Title
42775
    1SAPS     N    1   1.266   3.658   7.485  0.4678  0.3938 -0.3023
    1SAPS   HN1    2   1.359   3.625   7.453  1.5629  1.1821  1.8876
    1SAPS   HN2    3   1.193   3.599   7.440  0.0232  0.2927  0.5273
    1SAPS   HN3    4   1.251   3.754   7.449  0.2515  0.6319  0.4165
    1SAPS   C12    5   1.242   3.634   7.632  0.2147 -0.1062  0.1867
    1SAPS  H12A    6   1.149   3.685   7.657 -1.2502 -1.8638 -1.4335
    1SAPS   C13    7   1.215   3.489   7.670  0.3555  0.1708  0.3875
    1SAPS  O13A    8   1.242   3.394   7.589  0.4813 -0.0838 -0.6482
    1SAPS  O13B    9   1.148   3.473   7.774  0.7592 -0.0530  0.1297
    1SAPS   C11   10   1.359   3.698   7.713 -0.7501 -0.5121  0.1132
    1SAPS  H11A   11   1.449   3.649   7.669 -0.1839  1.4225 -1.0102
    1SAPS  H11B   12   1.348   3.665   7.818  0.9848 -0.5915  0.2970
    1SAPS     P   13   1.502   3.914   7.632  0.1002 -0.1582  0.1673
    1SAPS   O13   14   1.452   4.033   7.559 -0.0374 -0.5673 -0.1871
    1SAPS   O14   15   1.614   3.925   7.732 -0.0012  0.4943 -0.3991
    1SAPS   O12   16   1.380   3.834   7.691 -0.6347 -0.0078 -0.2535
    1SAPS   O11   17   1.545   3.814   7.522 -0.0401 -0.2906 -0.2532
    1SAPS    C1   18   1.634   3.842   7.418  0.9405  0.1140  0.2003
    1SAPS    HA   19   1.700   3.930   7.421  0.0390  0.9718 -2.3458
    1SAPS    HB   20   1.711   3.761   7.418 -0.3071 -1.1318  1.3805
    1SAPS    C2   21   1.566   3.827   7.277 -0.7729  0.2926 -0.0564
    1SAPS    HS   22   1.458   3.838   7.299 -1.0410  0.5490 -1.4151
    1SAPS   O21   23   1.610   3.711   7.206 -0.5619 -0.2701  0.4298
    1SAPS   C21   24   1.558   3.592   7.243  0.3272  0.0846  0.3897
    1SAPS   O22   25   1.465   3.583   7.322  0.0357  0.1227  0.7366
    1SAPS   C22   26   1.633   3.472   7.171 -0.1117 -0.4433  0.7291
    1SAPS   H2R   27   1.732   3.452   7.216  0.1731 -2.2726 -0.5696
    1SAPS   H2S   28   1.567   3.384   7.186  0.8617 -1.4529 -0.6186
    1SAPS    C3   29   1.600   3.940   7.183 -0.8458 -0.6420  0.3831
    1SAPS    HX   30   1.710   3.946   7.193 -0.7984 -0.6748 -0.0848
    1SAPS    HY   31   1.552   4.033   7.220  1.6248  1.2968 -0.9744
    1SAPS   O31   32   1.557   3.924   7.045  0.0312  0.1749  0.0091
    1SAPS   C31   33   1.650   3.882   6.958  0.4168  0.9201 -0.5397
    1SAPS   O32   34   1.765   3.885   6.979 -0.1066 -0.0249 -0.5556
    1SAPS   C32   35   1.580   3.851   6.827 -0.1729 -0.2966  0.2019
    1SAPS   H2X   36   1.570   3.953   6.785  0.3492 -0.5514 -0.5737
    1SAPS   H2Y   37   1.484   3.797   6.840 -0.5445  0.4448  0.5234
    1SAPS   C23   38   1.644   3.499   7.019  0.3998 -0.4596 -0.0748
    1SAPS   H3R   39   1.725   3.572   6.998  1.2182 -0.8230  1.6455
    1SAPS   H3S   40   1.541   3.535   6.996 -0.9520 -3.4553  0.7127
    1SAPS   C24   41   1.677   3.381   6.932 -0.6652 -0.3210  0.1597
    1SAPS   H4R   42   1.765   3.344   6.988 -0.7399 -0.2144  0.3474
    1SAPS   H4S   43   1.713   3.429   6.838 -0.4417  1.0306  0.9054
    1SAPS   C25   44   1.559   3.286   6.910 -0.6714  0.1894  0.1426
    1SAPS   H5R   45   1.529   3.232   7.001 -2.1014  1.5934  0.5629
    1SAPS   C26   46   1.502   3.248   6.793 -0.7408 -0.9531  0.1548
    1SAPS   H6R   47   1.431   3.164   6.789  0.6918 -2.4088  2.6856
    1SAPS   C27   48   1.538   3.305   6.654  0.7569 -1.0083  0.0041
    1SAPS   H7R   49   1.563   3.215   6.594  1.9121 -0.3882 -0.4813
    1SAPS   H7S   50   1.635   3.359   6.651 -0.0994  0.7402  1.5105
    1SAPS   C28   51   1.418   3.371   6.585  0.0198  0.2323  0.0546
    1SAPS   H8R   52   1.360   3.433   6.655  0.2172 -1.0217  1.3606
    1SAPS   C29   53   1.388   3.368   6.452 -0.3086 -0.3000  0.1271
    1SAPS   H9R   54   1.301   3.427   6.419 -0.7245  0.0282  1.7255
    1SAPS  C210   55   1.454   3.284   6.342 -0.4042 -0.5009 -0.0683
    1SAPS  H10R   56   1.519   3.206   6.389 -0.8476 -0.2085  1.0432
    1SAPS  H10S   57   1.528   3.344   6.284  1.3425 -1.8027  0.7166
    1SAPS  C211   58   1.357   3.203   6.250 -0.6504  0.1995 -1.0242
    1SAPS  H11R   59   1.317   3.115   6.301  3.3808 -0.7634  0.7949
    1SAPS  C212   60   1.319   3.223   6.125  0.5229 -0.4391 -0.6412
    1SAPS  H12R   61   1.246   3.155   6.079  2.0648 -1.8382 -1.1609
    1SAPS  C213   62   1.373   3.334   6.036  0.0315  0.0785  0.2108
    1SAPS  H13R   63   1.480   3.311   6.015  0.5362  3.0001 -0.9046
    1SAPS  H13S   64   1.371   3.429   6.092 -2.9114 -0.2100  0.7435
    1SAPS  C214   65   1.286   3.354   5.916 -0.1544 -0.1174  0.4898
    1SAPS  H14R   66   1.182   3.375   5.945  0.3089  0.6409  1.7205
    1SAPS  C215   67   1.317   3.356   5.786 -0.3424 -0.1257  0.3233
    1SAPS  H15R   68   1.239   3.381   5.712  1.1831 -0.8925 -1.6318
    1SAPS  C216   69   1.449   3.337   5.723 -0.3392 -0.1818  0.5659
    1SAPS  H16R   70   1.528   3.319   5.798 -2.6829  1.8451  3.7824
    1SAPS  H16S   71   1.481   3.428   5.667  0.3089 -0.7667 -0.0419
    1SAPS  C217   72   1.453   3.222   5.627 -0.2226  0.1549 -0.4252
    1SAPS  H17R   73   1.421   3.147   5.702  1.3454  0.3479  0.4913
    1SAPS  H17S   74   1.558   3.205   5.593  0.7420  1.8268  1.5132
    1SAPS  C218   75   1.359   3.233   5.504 -0.0203 -0.2196  0.1781
    1SAPS  H18R   76   1.254   3.258   5.527 -0.1588 -0.3256 -0.3175
    1SAPS  H18S   77   1.364   3.130   5.463  0.4395 -0.5522  1.0475
    1SAPS  C219   78   1.415   3.326   5.395  0.4846 -0.6096  0.3199
    1SAPS  H19R   79   1.506   3.273   5.360  0.4688  0.3382 -1.2407
    1SAPS  H19S   80   1.441   3.420   5.447 -0.4849 -1.4928  2.5482
    1SAPS  C220   81   1.326   3.351   5.274  0.1320  0.6732 -0.1087
    1SAPS  H20R   82   1.276   3.257   5.241  0.2314  1.1718 -1.7431
    1SAPS  H20S   83   1.389   3.388   5.191  1.1186  1.0596  0.7943
    1SAPS  H20T   84   1.242   3.417   5.306  0.0517  0.6428 -0.2537
    1SAPS   C33   85   1.657   3.755   6.738  0.1340  0.1574  0.3392
    1SAPS   H3X   86   1.668   3.664   6.802  0.9393  0.5024  0.7065
    1SAPS   H3Y   87   1.752   3.801   6.702  1.4041 -0.0843  3.0959
    1SAPS   C34   88   1.574   3.714   6.621  0.1244  0.0030 -1.0376
    1SAPS   H4X   89   1.470   3.696   6.655  0.4981 -1.8290 -0.7845
    1SAPS   H4Y   90   1.618   3.622   6.578  0.8008  0.1657 -0.7009
    1SAPS   C35   91   1.569   3.820   6.505  0.7076  0.8075  0.0137
    1SAPS   H5X   92   1.670   3.864   6.494  0.7560  0.7880  0.3636
    1SAPS   H5Y   93   1.511   3.904   6.550 -0.1011  0.4673 -0.3713
    1SAPS   C36   94   1.493   3.779   6.375  0.2055  0.8219  0.6477
    1SAPS   H6X   95   1.382   3.783   6.389 -0.1220  2.5841 -1.7741
    1SAPS   H6Y   96   1.533   3.680   6.348 -0.0377  1.1323 -0.9622
    1SAPS   C37   97   1.521   3.877   6.257 -0.1331 -0.1091  0.1590
    1SAPS   H7X   98   1.632   3.876   6.261 -0.0034  2.8394  3.6622
    1SAPS   H7Y   99   1.478   3.978   6.274 -2.1135 -0.0380 -4.0445
    1SAPS   C38  100   1.473   3.836   6.123 -0.1353  0.6503  0.4205
    1SAPS   H8X  101   1.370   3.876   6.109  0.2491  1.6168  0.2353
    1SAPS   H8Y  102   1.466   3.726   6.113 -2.0964  0.4141  3.3733
    1SAPS   C39  103   1.577   3.872   6.006  0.5185 -0.5334  0.0844
    1SAPS   H9X  104   1.548   3.818   5.914  1.1747 -0.8764  0.0673
    1SAPS   H9Y  105   1.683   3.840   6.021  0.2697 -1.9649 -0.9991
    1SAPS  C310  106   1.577   4.027   5.987 -0.0914 -0.0232  0.2446
    1SAPS  H10X  107   1.621   4.075   6.077 -0.1382  1.0532 -0.3015
    1SAPS  H10Y  108   1.476   4.073   5.983  1.3258  3.2599 -1.4781
    1SAPS  C311  109   1.643   4.064   5.855 -0.3869 -0.0946 -0.6116
    1SAPS  H11X  110   1.583   4.026   5.770 -0.0822 -1.1704 -0.3634
    1SAPS  H11Y  111   1.742   4.014   5.841 -1.0483 -1.3460 -0.9107
    1SAPS  C312  112   1.680   4.214   5.847  0.1891  0.3981 -0.1590
    1SAPS  H12X  113   1.777   4.220   5.792 -0.1889 -0.9842 -1.0151
    1SAPS  H12Y  114   1.687   4.250   5.952 -3.5558 -2.1110  1.1562
    1SAPS  C313  115   1.570   4.309   5.800 -0.2183  0.2814 -0.3302
    1SAPS  H13X  116   1.585   4.406   5.852  3.0314 -0.5574  0.5011
    1SAPS  H13Y  117   1.474   4.272   5.842  0.6321 -3.0096 -1.0046
    1SAPS  C314  118   1.567   4.324   5.652  0.1282 -0.1805  0.2269
    1SAPS  H14X  119   1.522   4.228   5.616  1.5890 -1.3415  1.3569
    1SAPS  H14Y  120   1.664   4.329   5.598 -0.9367 -1.5966 -1.9674
    1SAPS  C315  121   1.471   4.428   5.612 -0.4143 -0.5190 -0.5001
    1SAPS  H15X  122   1.373   4.414   5.663  1.0300  0.9693  3.0405
    1SAPS  H15Y  123   1.454   4.430   5.503 -1.4012  2.5499 -0.3977
    1SAPS  C316  124   1.535   4.571   5.630 -0.0843  0.1689 -0.6594
    1SAPS  H16X  125   1.633   4.551   5.580  0.1384 -3.3803  0.9099
    1SAPS  H16Y  126   1.545   4.609   5.734 -1.8027 -0.3045 -0.2997
    1SAPS  C317  127   1.458   4.687   5.562  0.0961  0.6462 -0.4225
    1SAPS  H17X  128   1.354   4.685   5.601 -0.6476  0.2235 -2.3109
    1SAPS  H17Y  129   1.444   4.663   5.455 -0.0601 -1.4470  0.0289
    1SAPS  C318  130   1.516   4.824   5.583 -0.9120 -0.1310  0.1500
    1SAPS  H18X  131   1.607   4.840   5.521  0.1583 -1.6917  1.2466
    1SAPS  H18Y  132   1.539   4.857   5.687  0.2413 -0.2237 -0.0582
    1SAPS  H18Z  133   1.445   4.905   5.553 -0.1519  1.0143  1.3109
    2SAPS     N  134   1.325   3.017   7.843  0.1439 -0.4509 -0.0453
    2SAPS   HN1  135   1.239   3.025   7.784  0.6313  1.5790 -0.5563
    2SAPS   HN2  136   1.310   2.944   7.916  0.5663  1.5130  2.0896
    2SAPS   HN3  137   1.329   3.110   7.887 -0.0091  0.3337 -1.6083
    2SAPS   C12  138   1.451   2.978   7.767  0.2207 -0.0334  0.3986
    2SAPS  H12A  139   1.452   3.041   7.679  2.0177 -0.8673 -0.2281
    2SAPS   C13  140   1.585   2.994   7.837  0.4259  0.0383  0.3800
    2SAPS  O13A  141   1.593   3.088   7.921  0.2332  0.1698  0.0883
    2SAPS  O13B  142   1.689   2.957   7.768  0.8516 -0.6441  0.3747
    2SAPS   C11  143   1.441   2.834   7.712  0.2137 -0.8632 -0.4961
    2SAPS  H11A  144   1.457   2.763   7.796  0.3818 -0.1122  0.1064
    2SAPS  H11B  145   1.524   2.818   7.640 -0.3720  1.8818 -1.9401
    2SAPS     P  146   1.239   2.844   7.534 -0.0080  0.3196 -0.1872
    2SAPS   O13  147   1.110   2.772   7.512  0.3153  0.5958 -0.2944
    2SAPS   O14  148   1.235   2.991   7.552 -0.2979  0.0856  0.4003
    2SAPS   O12  149   1.312   2.798   7.669  0.4944 -0.4158  0.0948
    2SAPS   O11  150   1.341   2.799   7.423 -0.5226  0.0396 -0.3743
    2SAPS    C1  151   1.421   2.683   7.426 -0.0560  0.4305 -0.1080
    2SAPS    HA  152   1.526   2.712   7.407 -0.0321 -0.2304 -1.0311
    2SAPS    HB  153   1.409   2.618   7.516  0.3811  0.8346  0.2461
    2SAPS    C2  154   1.388   2.596   7.303  0.2255  0.0408 -1.1825
    2SAPS    HS  155   1.468   2.520   7.289  0.3006 -0.6062  1.9529
    2SAPS   O21  156   1.353   2.666   7.186  0.3068  0.5815 -0.7193
    2SAPS   C21  157   1.457   2.726   7.140  0.7987  0.6070 -0.1693
    2SAPS   O22  158   1.570   2.705   7.170 -0.1721 -0.0666 -0.0171
    2SAPS   C22  159   1.419   2.820   7.025 -0.5202  1.0269  0.9643
    2SAPS   H2R  160   1.313   2.797   7.000  0.2100 -2.6904  0.7361
    2SAPS   H2S  161   1.431   2.926   7.058  1.3979  1.1486 -0.0078
    2SAPS    C3  162   1.258   2.510   7.336  0.0679 -0.2870 -0.6272
    2SAPS    HX  163   1.172   2.581   7.333 -2.3338 -2.9460 -0.0601
    2SAPS    HY  164   1.251   2.460   7.435  0.1544 -1.4113 -1.1792
    2SAPS   O31  165   1.241   2.397   7.250 -0.5610  0.4491  0.1610
    2SAPS   C31  166   1.112   2.367   7.236 -0.3640  0.6589  0.0936
    2SAPS   O32  167   1.020   2.435   7.275  0.5167  0.1581  0.1669
    2SAPS   C32  168   1.100   2.242   7.153  0.1436  0.0884 -0.3907
    2SAPS   H2X  169   1.027   2.180   7.209  0.3274 -0.3412 -0.6207
    2SAPS   H2Y  170   1.197   2.198   7.121  0.7893  1.4337 -0.3838
    2SAPS   C23  171   1.517   2.802   6.903 -0.1695 -0.3809 -0.4141
    2SAPS   H3R  172   1.543   2.699   6.871  1.0285 -0.3988  0.5654
    2SAPS   H3S  173   1.614   2.847   6.931 -2.3856  4.1282  0.9973
    2SAPS   C24  174   1.452   2.862   6.779  1.5752  0.0001  0.5801
    2SAPS   H4R  175   1.396   2.954   6.808  2.0857  0.4023  0.3319
    2SAPS   H4S  176   1.365   2.797   6.757  1.0834  1.0805 -0.8296
    2SAPS   C25  177   1.529   2.893   6.649  0.2730 -0.3780 -0.0425
    2SAPS   H5R  178   1.597   2.979   6.657 -0.6812  0.6345 -2.0890
    2SAPS   C26  179   1.531   2.828   6.525  0.1359  0.4643 -0.4071
    2SAPS   H6R  180   1.592   2.874   6.446  1.4698 -0.7110 -0.0973
    2SAPS   C27  181   1.454   2.702   6.488 -0.0809  0.5232  0.1174
    2SAPS   H7R  182   1.374   2.735   6.418  1.0527 -0.7850 -1.9115
    2SAPS   H7S  183   1.416   2.653   6.580  2.5705  0.1553  1.1037
    2SAPS   C28  184   1.552   2.612   6.425 -0.0078 -0.0244  0.2563
    2SAPS   H8R  185   1.610   2.537   6.481 -1.5699 -2.6779 -1.4088
    2SAPS   C29  186   1.591   2.619   6.296  0.1182  0.5654  0.4658
    2SAPS   H9R  187   1.663   2.542   6.262 -3.2772 -1.4689 -2.9261
    2SAPS  C210  188   1.525   2.712   6.193  0.6438 -0.2792  0.0397
    2SAPS  H10R  189   1.476   2.798   6.244  1.6780  0.1884  0.2721
    2SAPS  H10S  190   1.448   2.651   6.141 -0.1942 -0.8396  1.8779
    2SAPS  C211  191   1.615   2.752   6.080 -0.1794 -0.0760 -0.2594
    2SAPS  H11R  192   1.594   2.717   5.978  1.0440 -2.0500  0.1060
    2SAPS  C212  193   1.727   2.827   6.080  0.0124 -0.5534 -0.2095
    2SAPS  H12R  194   1.765   2.853   5.980 -1.3301  2.5828 -0.0420
    2SAPS  C213  195   1.798   2.897   6.194  0.0186  0.0392 -0.4048
    2SAPS  H13R  196   1.908   2.907   6.179  0.5885 -1.5740  2.1499
    2SAPS  H13S  197   1.791   2.841   6.289 -1.0889 -3.1303 -2.2194
    2SAPS  C214  198   1.727   3.026   6.225  0.1598 -0.2627 -0.1457
    2SAPS  H14R  199   1.641   3.054   6.162 -1.3192 -1.6201  1.2016
    2SAPS  C215  200   1.768   3.118   6.310 -0.1169  1.1456  0.0882
    2SAPS  H15R  201   1.710   3.210   6.324 -1.3484  0.2365  1.2407
    2SAPS  C216  202   1.896   3.105   6.387  0.9362 -0.0242  0.2553
    2SAPS  H16R  203   1.978   3.173   6.355  1.0264  0.2786  1.1071
    2SAPS  H16S  204   1.919   2.996   6.386 -3.1730 -1.0587 -0.6559
    2SAPS  C217  205   1.874   3.130   6.533 -1.3629 -0.2363 -0.7709
    2SAPS  H17R  206   1.815   3.049   6.582  0.7820 -0.0002  2.5009
    2SAPS  H17S  207   1.830   3.231   6.540  0.6534  0.7030 -1.0187
    2SAPS  C218  208   2.014   3.129   6.593 -0.1286 -0.1000  0.7868
    2SAPS  H18R  209   2.075   3.204   6.537 -0.0807 -0.8390 -0.1734
    2SAPS  H18S  210   2.071   3.034   6.586 -0.4743 -0.2660  0.1321
    2SAPS  C219  211   2.013   3.174   6.743  0.1164 -0.1325  0.0869
    2SAPS  H19R  212   1.940   3.117   6.806 -0.2757  2.6773  2.3795
    2SAPS  H19S  213   1.978   3.279   6.751  0.4890 -0.0224  0.2726
    2SAPS  C220  214   2.151   3.170   6.813  0.4372 -0.2561  0.0507
    2SAPS  H20R  215   2.143   3.168   6.924 -1.4196  3.3189  0.1437
    2SAPS  H20S  216   2.218   3.255   6.788 -0.2226  0.6630  1.2350
    2SAPS  H20T  217   2.203   3.076   6.787  1.8064 -0.3905  2.9103
    2SAPS   C33  218   1.020   2.266   7.020  0.0980  0.2527  0.3048
    2SAPS   H3X  219   0.946   2.348   7.028 -0.3416 -0.0106 -0.7914
    2SAPS   H3Y  220   0.966   2.174   6.988 -0.8276  0.8141  0.2144
    2SAPS   C34  221   1.105   2.320   6.902 -0.0795  0.0607  0.0475
    2SAPS   H4X  222   1.173   2.396   6.944 -2.7017  1.8208  1.3408
    2SAPS   H4Y  223   1.040   2.357   6.820  1.3005 -2.1210 -2.1787
    2SAPS   C35  224   1.186   2.212   6.840 -0.0725  0.3857  0.5373
    2SAPS   H5X  225   1.126   2.128   6.798  3.0949 -2.0327  0.4746
    2SAPS   H5Y  226   1.258   2.170   6.915  2.2828  0.9351 -1.2902
    2SAPS   C36  227   1.275   2.272   6.732  0.4792 -0.4077 -0.0091
    2SAPS   H6X  228   1.369   2.212   6.738  0.9072  0.3484  1.2078
    2SAPS   H6Y  229   1.304   2.377   6.756  0.9542 -0.0749 -1.8704
    2SAPS   C37  230   1.220   2.287   6.591  0.1344 -0.2100 -0.8342
    2SAPS   H7X  231   1.265   2.378   6.547  0.6924  0.3136  0.7262
    2SAPS   H7Y  232   1.110   2.300   6.578  0.0332 -1.5599 -1.5184
    2SAPS   C38  233   1.245   2.168   6.499  0.3018  0.1031 -0.1343
    2SAPS   H8X  234   1.195   2.209   6.409  0.8449  0.5323 -0.2501
    2SAPS   H8Y  235   1.181   2.080   6.516 -1.5873  0.9581 -2.3564
    2SAPS   C39  236   1.388   2.134   6.469 -0.2656  0.3586 -0.1702
    2SAPS   H9X  237   1.445   2.139   6.565 -0.4727  0.4449 -0.0500
    2SAPS   H9Y  238   1.426   2.217   6.405 -0.3816  1.0157  0.5878
    2SAPS  C310  239   1.405   1.994   6.400  0.6529  0.0788 -1.4307
    2SAPS  H10X  240   1.365   1.993   6.296 -0.8265 -1.0973 -0.8913
    2SAPS  H10Y  241   1.338   1.926   6.457 -0.9897  2.3181 -0.5455
    2SAPS  C311  242   1.554   1.951   6.385  0.0312  0.8411 -0.4134
    2SAPS  H11X  243   1.600   1.942   6.486 -1.3097 -0.5519  0.1081
    2SAPS  H11Y  244   1.609   2.039   6.345  0.6730 -0.4544 -2.5541
    2SAPS  C312  245   1.580   1.814   6.314  0.0178 -0.2647  0.0794
    2SAPS  H12X  246   1.506   1.751   6.367 -2.6307  0.5869 -2.3532
    2SAPS  H12Y  247   1.681   1.773   6.336  0.9142  2.0617  0.5465
    2SAPS  C313  248   1.574   1.825   6.157  0.7004  0.2790  0.2812
    2SAPS  H13X  249   1.649   1.895   6.114  0.7170  0.0871 -0.0040
    2SAPS  H13Y  250   1.475   1.862   6.125  1.0676  0.3237 -0.8408
    2SAPS  C314  251   1.600   1.687   6.091 -0.3402 -0.6324 -0.5228
    2SAPS  H14X  252   1.548   1.607   6.148  2.2894 -1.1556  1.3051
    2SAPS  H14Y  253   1.710   1.672   6.092 -0.4077 -1.8739  3.0713
    2SAPS  C315  254   1.544   1.669   5.950  0.1655 -0.5758  0.1464
    2SAPS  H15X  255   1.445   1.719   5.945  0.7536  0.8138  1.6062
    2SAPS  H15Y  256   1.526   1.560   5.932 -2.3386 -0.2580  0.2526
    2SAPS  C316  257   1.628   1.731   5.835 -0.1089  0.6931 -0.0780
    2SAPS  H16X  258   1.707   1.660   5.802  0.4942  1.7706 -1.0438
    2SAPS  H16Y  259   1.667   1.833   5.857 -0.0552  1.0855 -1.8232
    2SAPS  C317  260   1.543   1.761   5.708 -0.8381  0.4124  0.5748
    2SAPS  H17X  261   1.475   1.846   5.730  0.3402  1.1142  1.6547
    2SAPS  H17Y  262   1.477   1.673   5.699  0.8295 -0.9340  0.8985
    2SAPS  C318  263   1.635   1.778   5.587  0.0221 -0.1754 -0.0589
    2SAPS  H18X  264   1.575   1.797   5.496  0.0797 -0.5743 -0.1837
    2SAPS  H18Y  265   1.713   1.700   5.573  0.8521  0.2118  2.0454
    2SAPS  H18Z  266   1.699   1.866   5.607 -0.1599 -0.2606  1.0048
    3SAPS     N  267   1.874   3.156   7.791 -0.1707  0.0839  0.5389
    3SAPS   HN1  268   1.846   3.224   7.865  2.2516  0.6592  1.0251
    3SAPS   HN2  269   1.846   3.187   7.696 -1.3651  0.3719  0.9638
    3SAPS   HN3  270   1.820   3.069   7.807  0.6207 -0.9840 -2.1189
    3SAPS   C12  271   2.022   3.124   7.807 -0.3302  0.3147 -0.3340
    3SAPS  H12A  272   2.074   3.218   7.816 -0.7354  0.5969 -0.8543
    3SAPS   C13  273   2.058   3.044   7.937 -0.4139 -0.3155  1.0391
    3SAPS  O13A  274   1.968   2.985   8.007 -0.6127  0.5591  0.4341
    3SAPS  O13B  275   2.178   3.043   7.969  0.0815  0.0880 -0.7635
    3SAPS   C11  276   2.075   3.048   7.677  0.0492 -0.3523 -0.8286
    3SAPS  H11A  277   2.009   2.960   7.655 -1.0299  0.5057 -1.1080
    3SAPS  H11B  278   2.181   3.017   7.686  0.2248  0.2181 -0.9510
    3SAPS     P  279   2.185   3.207   7.500  0.3298 -0.0496  0.0569
    3SAPS   O13  280   2.116   3.299   7.405 -0.0994  0.1836 -0.1950
    3SAPS   O14  281   2.268   3.269   7.603 -0.4835 -0.2930 -0.2654
    3SAPS   O12  282   2.065   3.139   7.575  0.4232  0.4391  0.4188
    3SAPS   O11  283   2.254   3.090   7.422  0.0282  0.1722  0.0744
    3SAPS    C1  284   2.283   3.095   7.281 -0.5254  0.3511 -0.2176
    3SAPS    HA  285   2.255   3.002   7.228 -1.7912  1.3606 -1.3684
    3SAPS    HB  286   2.224   3.170   7.224 -1.3747 -0.4529 -0.3974
    3SAPS    C2  287   2.430   3.138   7.238 -0.1940  0.1214 -0.4036
    3SAPS    HS  288   2.452   3.234   7.291  1.1061 -0.7510  0.7293
    3SAPS   O21  289   2.430   3.158   7.100  0.3764  0.0437 -0.5017
    3SAPS   C21  290   2.531   3.236   7.060  0.6286  0.0105  0.4090
    3SAPS   O22  291   2.617   3.286   7.132  0.4494  0.1927  0.5810
    3SAPS   C22  292   2.520   3.252   6.912 -0.7839 -0.1521 -0.4676
    3SAPS   H2R  293   2.449   3.175   6.876 -0.7041  0.1343 -1.2395
    3SAPS   H2S  294   2.472   3.350   6.892  0.0761  0.6558  1.1769
    3SAPS    C3  295   2.545   3.039   7.287  0.5918 -0.3811  0.3719
    3SAPS    HX  296   2.543   3.040   7.398 -1.8950 -2.3622  0.4262
    3SAPS    HY  297   2.643   3.083   7.261 -0.2174  1.0841 -0.3356
    3SAPS   O31  298   2.524   2.908   7.228 -0.4084 -0.4465 -0.9594
    3SAPS   C31  299   2.596   2.884   7.121  0.2119  0.0862 -0.2971
    3SAPS   O32  300   2.665   2.965   7.061  0.1251 -0.4400 -0.3762
    3SAPS   C32  301   2.587   2.734   7.082 -0.5211  0.2686 -0.1700
    3SAPS   H2X  302   2.488   2.701   7.121  0.8869 -1.3110  2.3555
    3SAPS   H2Y  303   2.667   2.700   7.151 -0.4304  0.6776 -0.0728
    3SAPS   C23  304   2.655   3.234   6.847 -0.5077 -0.7416 -0.5443
    3SAPS   H3R  305   2.717   3.154   6.891 -1.7370 -0.5361  1.7213
    3SAPS   H3S  306   2.706   3.331   6.865 -0.0935 -1.1659  0.6398
    3SAPS   C24  307   2.642   3.200   6.697  0.9515  0.5874 -0.2653
    3SAPS   H4R  308   2.745   3.188   6.657  1.3264  1.6867  0.3201
    3SAPS   H4S  309   2.588   3.281   6.644  0.7908  1.0412  0.5722
    3SAPS   C25  310   2.568   3.070   6.681  0.2400  0.4343  0.5189
    3SAPS   H5R  311   2.562   2.998   6.763 -0.0470 -2.2354 -1.7098
    3SAPS   C26  312   2.499   3.049   6.566  0.0339 -0.0273  0.2060
    3SAPS   H6R  313   2.439   2.957   6.566 -1.3048  0.7014  3.6825
    3SAPS   C27  314   2.506   3.135   6.439 -0.0365 -0.5223 -0.3165
    3SAPS   H7R  315   2.515   3.087   6.340 -1.4227 -2.0685  0.2404
    3SAPS   H7S  316   2.585   3.211   6.456 -1.3853  0.8823 -0.0953
    3SAPS   C28  317   2.385   3.222   6.424  0.2641 -0.2149  0.2919
    3SAPS   H8R  318   2.329   3.242   6.516 -0.3938  1.9931 -0.4952
    3SAPS   C29  319   2.327   3.270   6.313 -0.2041 -0.5643 -0.5897
    3SAPS   H9R  320   2.229   3.317   6.331 -0.0850 -0.8339  0.9804
    3SAPS  C210  321   2.353   3.234   6.167 -0.0180 -0.7396  0.2036
    3SAPS  H10R  322   2.423   3.149   6.167  0.3375 -0.4503  0.1673
    3SAPS  H10S  323   2.410   3.311   6.110 -1.7642 -0.5928 -1.4548
    3SAPS  C211  324   2.240   3.199   6.073 -0.1284 -0.8528 -0.7029
    3SAPS  H11R  325   2.145   3.169   6.121 -0.8732  1.3601 -0.6633
    3SAPS  C212  326   2.249   3.188   5.939 -0.4163  0.3957 -0.2282
    3SAPS  H12R  327   2.158   3.156   5.886 -0.1893 -0.5260 -0.0668
    3SAPS  C213  328   2.375   3.201   5.852  0.0465 -0.9351 -0.4809
    3SAPS  H13R  329   2.459   3.253   5.903 -1.2805 -0.7564  1.6687
    3SAPS  H13S  330   2.350   3.272   5.770  0.1982 -1.8439 -1.3328
    3SAPS  C214  331   2.422   3.064   5.806 -0.4003  0.0779  0.4941
    3SAPS  H14R  332   2.425   2.983   5.880 -0.3759 -0.5880 -0.2181
    3SAPS  C215  333   2.437   3.029   5.676 -1.0364 -0.0191 -0.2558
    3SAPS  H15R  334   2.477   2.931   5.646 -0.8813 -0.5905  1.6880
    3SAPS  C216  335   2.424   3.119   5.558 -0.5563 -0.0398 -0.3155
    3SAPS  H16R  336   2.334   3.185   5.563 -0.2750  0.3153  0.0619
    3SAPS  H16S  337   2.420   3.058   5.465  1.8356  1.5892 -1.5791
    3SAPS  C217  338   2.541   3.203   5.518  0.1778  0.4417  0.2156
    3SAPS  H17R  339   2.627   3.134   5.504 -0.3227 -0.5111  1.6046
    3SAPS  H17S  340   2.572   3.270   5.600  2.1646  2.1021 -1.7728
    3SAPS  C218  341   2.509   3.291   5.400  0.3126  0.1648  0.0024
    3SAPS  H18R  342   2.417   3.352   5.409  0.0518 -0.2900  0.4849
    3SAPS  H18S  343   2.499   3.234   5.305 -1.2186 -0.3284  0.4266
    3SAPS  C219  344   2.627   3.386   5.357  0.3785 -0.7866  0.4271
    3SAPS  H19R  345   2.623   3.483   5.411  0.4736  0.2937 -1.4203
    3SAPS  H19S  346   2.729   3.344   5.368  0.8181  0.1157 -0.0948
    3SAPS  C220  347   2.603   3.428   5.209 -0.0704 -0.1712  0.2749
    3SAPS  H20R  348   2.611   3.335   5.149 -1.3222  0.0775 -0.3072
    3SAPS  H20S  349   2.682   3.501   5.177 -0.3487 -0.3026 -0.7402
    3SAPS  H20T  350   2.500   3.470   5.205  1.0692  2.8263 -1.5102
    3SAPS   C33  351   2.617   2.686   6.939 -0.2586 -1.0586  0.3759
    3SAPS   H3X  352   2.716   2.725   6.909 -0.2588 -2.3084 -1.4361
    3SAPS   H3Y  353   2.533   2.732   6.882  1.7172 -0.4813 -2.2437
    3SAPS   C34  354   2.624   2.537   6.917 -0.3690  0.3312 -0.0558
    3SAPS   H4X  355   2.525   2.494   6.944 -1.4975  0.1990 -3.8427
    3SAPS   H4Y  356   2.693   2.492   6.992 -2.2242  1.6257  2.6287
    3SAPS   C35  357   2.666   2.506   6.780  0.1834  1.0406  0.1090
    3SAPS   H5X  358   2.776   2.521   6.779  0.5073 -0.9311  0.6132
    3SAPS   H5Y  359   2.646   2.397   6.769  1.1880  1.0244 -2.0420
    3SAPS   C36  360   2.593   2.585   6.666  0.3144  0.0470  0.0983
    3SAPS   H6X  361   2.621   2.691   6.684  2.2406 -0.1186 -1.5007
    3SAPS   H6Y  362   2.482   2.580   6.668  0.2611 -1.1681 -2.2649
    3SAPS   C37  363   2.635   2.554   6.522  0.3368 -0.6204  0.4097
    3SAPS   H7X  364   2.612   2.447   6.502 -1.0596 -0.3774  0.6035
    3SAPS   H7Y  365   2.746   2.563   6.518  0.6331 -2.2544  2.9886
    3SAPS   C38  366   2.559   2.639   6.420 -0.3899 -0.1785 -0.5586
    3SAPS   H8X  367   2.586   2.743   6.450  0.3044 -0.7420  0.8543
    3SAPS   H8Y  368   2.450   2.627   6.435 -0.1081 -1.1707  0.8531
    3SAPS   C39  369   2.585   2.581   6.280  0.0564 -0.1202 -0.4903
    3SAPS   H9X  370   2.692   2.557   6.260  0.0221  0.1433 -1.0121
    3SAPS   H9Y  371   2.548   2.651   6.202  2.4154  0.3743 -1.2633
    3SAPS  C310  372   2.504   2.452   6.256 -0.3106  0.3021  0.7880
    3SAPS  H10X  373   2.396   2.477   6.271 -0.6674 -0.3779 -0.5006
    3SAPS  H10Y  374   2.526   2.383   6.339  1.1930  0.4616  0.5422
    3SAPS  C311  375   2.531   2.402   6.117 -0.7767 -0.5960 -0.1867
    3SAPS  H11X  376   2.640   2.387   6.099 -0.3993  1.5333  0.1004
    3SAPS  H11Y  377   2.495   2.483   6.052 -0.1924  0.1063  0.3482
    3SAPS  C312  378   2.457   2.276   6.074 -0.6261  0.0861 -0.3040
    3SAPS  H12X  379   2.350   2.294   6.097 -0.1820  1.7222  0.6091
    3SAPS  H12Y  380   2.490   2.182   6.123 -0.6177  0.9709  1.4866
    3SAPS  C313  381   2.467   2.248   5.926 -0.4591 -0.1160 -0.4557
    3SAPS  H13X  382   2.409   2.154   5.915 -1.7114  0.8124 -2.5374
    3SAPS  H13Y  383   2.572   2.223   5.900 -0.1355 -0.2833  0.9271
    3SAPS  C314  384   2.394   2.346   5.839  0.6450 -0.6245 -0.3105
    3SAPS  H14X  385   2.433   2.448   5.857  0.2534 -0.6920  1.0436
    3SAPS  H14Y  386   2.284   2.343   5.852  0.7506  0.9397  1.3264
    3SAPS  C315  387   2.413   2.313   5.690 -0.3287  0.0488  0.5364
    3SAPS  H15X  388   2.398   2.206   5.664 -1.9272  0.4292 -0.2173
    3SAPS  H15Y  389   2.520   2.313   5.660 -1.1175  0.4713 -2.5862
    3SAPS  C316  390   2.313   2.383   5.602 -0.5727  0.3319  0.3240
    3SAPS  H16X  391   2.223   2.395   5.664 -0.2716  0.0412  0.8220
    3SAPS  H16Y  392   2.291   2.318   5.514 -4.6166  1.1680  0.5359
    3SAPS  C317  393   2.377   2.518   5.569  0.3929  0.2132  0.2688
    3SAPS  H17X  394   2.480   2.519   5.527 -0.1806 -0.7744 -1.2574
    3SAPS  H17Y  395   2.376   2.579   5.662 -1.1823  0.6611 -0.0193
    3SAPS  C318  396   2.284   2.603   5.474 -0.1430  0.2668 -0.2201
    3SAPS  H18X  397   2.295   2.712   5.494 -1.6253 -0.0121  2.7918
    3SAPS  H18Y  398   2.181   2.569   5.498  0.7771 -1.6844  1.2802
    3SAPS  H18Z  399   2.322   2.581   5.373  0.4596 -3.8035  0.7273
    4SAPS     N  400   5.284   0.995   7.905  0.0145 -0.3540 -0.1090
    4SAPS   HN1  401   5.264   0.895   7.925 -0.3645  0.0507  1.7401
    4SAPS   HN2  402   5.194   1.039   7.934 -2.2369 -3.1466 -2.2940
    4SAPS   HN3  403   5.297   1.005   7.802  0.4966 -1.9337 -0.2169
    4SAPS   C12  404   5.398   1.068   7.967 -0.1891  0.0558 -0.3508
    4SAPS  H12A  405   5.396   1.170   7.932 -0.2373 -0.6044 -2.4324
    4SAPS   C13  406   5.383   1.084   8.115 -0.0097  0.1102 -0.2353
    4SAPS  O13A  407   5.285   1.035   8.182  0.8469  0.0737  0.3817
    4SAPS  O13B  408   5.475   1.147   8.171 -0.6190 -0.3255  0.6560
    4SAPS   C11  409   5.534   0.992   7.941 -0.4996  0.5063 -0.4453
    4SAPS  H11A  410   5.525   0.899   8.001  1.8447  0.3906 -0.1926
    4SAPS  H11B  411   5.613   1.040   8.003 -1.9763  1.1762  1.0143
    4SAPS     P  412   5.654   1.081   7.726  0.0230  0.1556  0.1605
    4SAPS   O13  413   5.648   1.209   7.791  0.3941  0.1747 -0.2298
    4SAPS   O14  414   5.781   1.012   7.702 -0.4058  0.7222  0.9573
    4SAPS   O12  415   5.564   0.979   7.807  0.1174  0.0178  0.2543
    4SAPS   O11  416   5.564   1.098   7.598  0.6040 -0.5259  0.3802
    4SAPS    C1  417   5.561   1.211   7.510 -0.3267 -0.4264  0.3787
    4SAPS    HA  418   5.456   1.243   7.496 -0.8897 -2.1266  0.3763
    4SAPS    HB  419   5.620   1.299   7.544 -2.3599  0.2804  2.3357
    4SAPS    C2  420   5.614   1.159   7.375 -0.0293 -0.3187  0.1604
    4SAPS    HS  421   5.723   1.144   7.395  0.0043 -0.4130 -0.1009
    4SAPS   O21  422   5.588   1.264   7.282 -0.1785  0.5475  0.2462
    4SAPS   C21  423   5.695   1.319   7.229 -0.7272  0.5706 -0.1109
    4SAPS   O22  424   5.812   1.286   7.248  0.2210  0.3146  0.0017
    4SAPS   C22  425   5.666   1.423   7.132  0.0825 -0.8256 -0.1056
    4SAPS   H2R  426   5.561   1.457   7.143  0.4224  1.0386 -1.9147
    4SAPS   H2S  427   5.724   1.514   7.158 -0.2952 -0.3613 -0.8365
    4SAPS    C3  428   5.553   1.026   7.321  0.0764 -0.4648 -0.4110
    4SAPS    HX  429   5.453   1.049   7.278  0.0968 -0.6905 -0.5853
    4SAPS    HY  430   5.524   0.958   7.404  1.5740 -1.6124 -0.7956
    4SAPS   O31  431   5.633   0.953   7.220 -0.1180 -0.2847  0.3406
    4SAPS   C31  432   5.699   0.857   7.268  0.1631 -0.5435 -0.6189
    4SAPS   O32  433   5.724   0.832   7.389  0.0632 -0.2654  0.1075
    4SAPS   C32  434   5.751   0.775   7.157 -0.1206 -0.1998  0.2581
    4SAPS   H2X  435   5.773   0.849   7.077  0.4084 -0.3439  0.2678
    4SAPS   H2Y  436   5.675   0.711   7.106  0.4200  1.1507 -2.4312
    4SAPS   C23  437   5.695   1.390   6.983  0.3172 -0.5959  0.3022
    4SAPS   H3R  438   5.649   1.293   6.955 -0.8189 -0.1983  0.7324
    4SAPS   H3S  439   5.805   1.390   6.964  0.0383  0.6490 -1.6119
    4SAPS   C24  440   5.624   1.488   6.889  0.1527  0.1293  0.5218
    4SAPS   H4R  441   5.516   1.501   6.910  0.0823  1.4862 -0.5167
    4SAPS   H4S  442   5.638   1.448   6.787 -0.9201 -0.0679  0.4428
    4SAPS   C25  443   5.681   1.625   6.898 -0.0459 -0.7191  0.0376
    4SAPS   H5R  444   5.747   1.651   6.982 -0.6441  1.9034 -0.2041
    4SAPS   C26  445   5.679   1.718   6.802 -0.8393 -0.5394  0.0972
    4SAPS   H6R  446   5.709   1.820   6.829 -3.7125 -0.0004  1.6684
    4SAPS   C27  447   5.617   1.697   6.663  0.1799 -0.0103  0.6373
    4SAPS   H7R  448   5.593   1.590   6.645 -1.9862  0.5326 -0.0264
    4SAPS   H7S  449   5.690   1.735   6.588 -0.0899  1.0753  0.9117
    4SAPS   C28  450   5.491   1.778   6.651 -0.5291 -0.0603 -0.0174
    4SAPS   H8R  451   5.449   1.821   6.743 -1.1401 -1.6739  0.4942
    4SAPS   C29  452   5.423   1.798   6.544  0.6310 -0.0783  0.1000
    4SAPS   H9R  453   5.330   1.855   6.561  0.6675  0.3347 -1.0258
    4SAPS  C210  454   5.444   1.742   6.406 -0.3769 -0.1500  0.3052
    4SAPS  H10R  455   5.352   1.746   6.343 -1.3932 -2.2073  1.5484
    4SAPS  H10S  456   5.464   1.633   6.414  1.5506  0.2458  1.2028
    4SAPS  C211  457   5.568   1.785   6.335 -0.7746  0.2831  0.7495
    4SAPS  H11R  458   5.660   1.729   6.357 -1.5076 -0.9269  0.8032
    4SAPS  C212  459   5.578   1.885   6.247 -0.2631  0.3806  0.1528
    4SAPS  H12R  460   5.680   1.898   6.208  0.8220 -1.1861  2.3085
    4SAPS  C213  461   5.471   1.961   6.184  0.4118 -0.4117  0.3297
    4SAPS  H13R  462   5.371   1.945   6.229  0.8099  0.7582  1.7128
    4SAPS  H13S  463   5.458   1.920   6.082 -1.1222  0.4292  0.1641
    4SAPS  C214  464   5.488   2.108   6.155 -0.4859  0.0263  0.8216
    4SAPS  H14R  465   5.478   2.174   6.243 -3.0087 -0.0220  0.6343
    4SAPS  C215  466   5.504   2.174   6.039 -0.8053 -0.6675  0.5834
    4SAPS  H15R  467   5.530   2.280   6.051  2.3227 -1.2992  0.3644
    4SAPS  C216  468   5.498   2.115   5.898  0.1398 -0.2080  0.1801
    4SAPS  H16R  469   5.504   2.006   5.916 -1.6854 -0.2844  0.5187
    4SAPS  H16S  470   5.574   2.157   5.828 -0.7588  1.0180 -0.0824
    4SAPS  C217  471   5.360   2.132   5.832  0.1528  0.2522  0.2815
    4SAPS  H17R  472   5.346   2.241   5.842  1.2282  0.3432  1.0167
    4SAPS  H17S  473   5.289   2.078   5.899  1.0686 -0.5779  0.6210
    4SAPS  C218  474   5.369   2.096   5.680 -0.4849 -0.4934  0.4205
    4SAPS  H18R  475   5.451   2.157   5.635 -0.6227  0.1728  1.0460
    4SAPS  H18S  476   5.268   2.111   5.636 -0.2151 -0.1653 -0.1017
    4SAPS  C219  477   5.414   1.945   5.665 -0.1355  0.0639 -0.1848
    4SAPS  H19R  478   5.519   1.927   5.695 -0.2317 -0.7285 -0.2963
    4SAPS  H19S  479   5.416   1.923   5.557 -1.3811 -2.4611  0.2246
    4SAPS  C220  480   5.327   1.829   5.719 -0.1418  0.3530 -0.5251
    4SAPS  H20R  481   5.227   1.842   5.672 -0.4050  0.8186  0.1533
    4SAPS  H20S  482   5.309   1.839   5.828 -1.9321 -1.2797 -0.6296
    4SAPS  H20T  483   5.371   1.728   5.701 -1.5085 -0.5545  0.9757
    4SAPS   C33  484   5.869   0.695   7.205 -0.4096  0.0695 -0.0630
    4SAPS   H3X  485   5.864   0.650   7.307 -1.7262 -1.8193 -0.8879
    4SAPS   H3Y  486   5.957   0.761   7.204 -0.8646  0.7010 -1.8255
    4SAPS   C34  487   5.901   0.572   7.124  0.1087 -0.2777 -0.3655
    4SAPS   H4X  488   5.836   0.485   7.144 -1.1868  0.1983 -2.2490
    4SAPS   H4Y  489   6.000   0.540   7.163  0.5239  1.1902 -0.1621
    4SAPS   C35  490   5.908   0.582   6.972  0.9578 -0.4838  0.1765
    4SAPS   H5X  491   5.811   0.607   6.925  1.2007  0.7200  0.2620
    4SAPS   H5Y  492   5.942   0.485   6.930 -2.6472 -2.1746  0.7826
    4SAPS   C36  493   6.001   0.699   6.919  1.0219  0.3598  0.1362
    4SAPS   H6X  494   6.102   0.672   6.956  0.0148 -3.5468  0.4486
    4SAPS   H6Y  495   5.959   0.789   6.968  0.9073 -0.2269  1.1268
    4SAPS   C37  496   6.009   0.714   6.764  0.4897  0.2716 -0.3055
    4SAPS   H7X  497   6.034   0.821   6.747 -1.8092  1.0582  0.9414
    4SAPS   H7Y  498   5.913   0.691   6.713 -0.9718  0.2680  2.3122
    4SAPS   C38  499   6.114   0.620   6.705 -0.3070  0.1938 -0.4387
    4SAPS   H8X  500   6.064   0.523   6.682  1.5152 -0.7185 -0.7041
    4SAPS   H8Y  501   6.192   0.603   6.782  0.8027  1.2498 -1.3047
    4SAPS   C39  502   6.185   0.687   6.586  0.0612  0.4411 -0.3335
    4SAPS   H9X  503   6.259   0.756   6.633  0.7476  1.9744 -3.4208
    4SAPS   H9Y  504   6.111   0.735   6.519 -1.4782 -0.6809  0.4934
    4SAPS  C310  505   6.274   0.602   6.499  0.2332  0.3319 -0.3046
    4SAPS  H10X  506   6.215   0.517   6.460 -0.1618  0.9658 -1.1009
    4SAPS  H10Y  507   6.354   0.558   6.563  1.9241 -1.4286 -3.3775
    4SAPS  C311  508   6.340   0.690   6.391 -0.9177  0.5285  0.1117
    4SAPS  H11X  509   6.409   0.618   6.342 -0.2142  1.3403 -0.1030
    4SAPS  H11Y  510   6.400   0.770   6.439 -0.5037  1.0732 -1.2698
    4SAPS  C312  511   6.244   0.742   6.282 -0.6375 -0.2414 -0.5097
    4SAPS  H12X  512   6.181   0.826   6.318 -1.7774  0.4635 -3.7401
    4SAPS  H12Y  513   6.170   0.669   6.243 -1.8900  0.5073  0.3958
    4SAPS  C313  514   6.313   0.806   6.161 -0.0196  0.3201  0.5114
    4SAPS  H13X  515   6.361   0.721   6.107  0.9517 -0.0029  1.8379
    4SAPS  H13Y  516   6.403   0.862   6.195  0.5320  0.2567 -0.7599
    4SAPS  C314  517   6.225   0.882   6.073 -0.2556  0.1021 -0.6617
    4SAPS  H14X  518   6.199   0.984   6.110 -1.7482 -0.7544  0.7655
    4SAPS  H14Y  519   6.131   0.822   6.075 -0.3798  0.1391 -2.7381
    4SAPS  C315  520   6.269   0.877   5.926  0.4954 -0.4222  0.1747
    4SAPS  H15X  521   6.270   0.774   5.884  1.0105 -0.1185 -0.6001
    4SAPS  H15Y  522   6.373   0.917   5.920  0.1800  0.2001 -2.8942
    4SAPS  C316  523   6.170   0.972   5.847 -0.1594  0.5685  0.1011
    4SAPS  H16X  524   6.130   1.051   5.913 -3.1647 -0.5836 -0.1978
    4SAPS  H16Y  525   6.084   0.911   5.811  0.5852  0.1321 -1.0109
    4SAPS  C317  526   6.236   1.037   5.719 -0.0037  0.1591 -0.4527
    4SAPS  H17X  527   6.342   1.052   5.750  0.4597  0.8926 -2.2360
    4SAPS  H17Y  528   6.204   1.143   5.707 -0.3816 -0.0094 -0.9548
    4SAPS  C318  529   6.219   0.948   5.602 -0.2549 -0.1243 -0.2823
    4SAPS  H18X  530   6.114   0.937   5.566 -1.3755  0.4546  2.5641
    4SAPS  H18Y  531   6.254   0.845   5.622 -1.2491 -0.7371 -1.5080
    4SAPS  H18Z  532   6.274   0.981   5.511 -0.2039 -0.3711 -0.3424
    5SAPS     N  533   3.732   4.296   7.891  0.2840 -0.1720  0.1738
    5SAPS   HN1  534   3.806   4.261   7.827  2.7929  1.1385  2.1478
    5SAPS   HN2  535   3.645   4.239   7.893  0.0693  0.0790 -1.2519
    5SAPS   HN3  536   3.695   4.376   7.835 -1.1676 -1.5469 -0.9210
    5SAPS   C12  537   3.796   4.320   8.022  0.1403  0.5857 -0.2363
    5SAPS  H12A  538   3.713   4.361   8.079 -1.0857 -1.2918 -0.5699
    5SAPS   C13  539   3.819   4.194   8.116 -0.4156 -0.3177  0.0853
    5SAPS  O13A  540   3.786   4.083   8.070 -0.1429 -0.2482 -0.1533
    5SAPS  O13B  541   3.880   4.209   8.229 -0.1287 -0.4149 -0.5628
    5SAPS   C11  542   3.929   4.410   8.009 -0.2526 -0.4779  0.2996
    5SAPS  H11A  543   4.009   4.350   7.959  1.7504  1.0690  1.4836
    5SAPS  H11B  544   3.968   4.435   8.110  1.4002  1.2612 -0.7014
    5SAPS     P  545   3.886   4.660   7.980 -0.0771 -0.0342 -0.5836
    5SAPS   O13  546   3.810   4.652   8.106  0.1523  0.1547 -0.0814
    5SAPS   O14  547   4.016   4.731   7.991 -0.1330  0.2018 -0.2126
    5SAPS   O12  548   3.908   4.522   7.916  0.1218 -0.7358  0.0894
    5SAPS   O11  549   3.802   4.733   7.871 -0.0356  0.0745  0.7822
    5SAPS    C1  550   3.818   4.718   7.726 -0.5123  1.1489  0.0350
    5SAPS    HA  551   3.880   4.799   7.680  0.1014 -0.5096 -2.2815
    5SAPS    HB  552   3.867   4.619   7.710 -2.1900  0.4205 -0.7896
    5SAPS    C2  553   3.682   4.714   7.653 -0.0357  0.1881  0.2044
    5SAPS    HS  554   3.617   4.658   7.724  1.7131 -2.3965 -0.1298
    5SAPS   O21  555   3.690   4.637   7.532 -0.0599  0.5206 -0.1276
    5SAPS   C21  556   3.663   4.508   7.547  0.4987 -0.2176  0.0906
    5SAPS   O22  557   3.653   4.444   7.653  0.1644  0.1563 -0.0932
    5SAPS   C22  558   3.619   4.458   7.411 -0.9071  0.0686  0.1446
    5SAPS   H2R  559   3.630   4.347   7.413 -3.8273 -0.3386 -1.5636
    5SAPS   H2S  560   3.511   4.482   7.402 -0.6605  0.4870 -2.9282
    5SAPS    C3  561   3.637   4.866   7.618 -0.3910  0.3353 -0.0959
    5SAPS    HX  562   3.619   4.908   7.720 -0.2551  2.8152 -1.0182
    5SAPS    HY  563   3.543   4.859   7.560 -0.3993 -0.5179  0.0144
    5SAPS   O31  564   3.739   4.955   7.559  0.2819  0.0439  0.2965
    5SAPS   C31  565   3.697   5.071   7.523  0.6169 -0.3397 -0.0359
    5SAPS   O32  566   3.589   5.121   7.546 -0.2525 -0.1913 -0.1132
    5SAPS   C32  567   3.801   5.137   7.429  0.1215  0.4899  1.1131
    5SAPS   H2X  568   3.819   5.061   7.350  0.8124  0.3628  1.3872
    5SAPS   H2Y  569   3.890   5.163   7.490  0.4739  0.5328  0.5862
    5SAPS   C23  570   3.681   4.520   7.278 -0.3853 -0.3585 -0.4147
    5SAPS   H3R  571   3.791   4.510   7.273 -0.1405  1.7766 -0.2052
    5SAPS   H3S  572   3.670   4.631   7.281  1.0298 -0.2041  0.0713
    5SAPS   C24  573   3.615   4.465   7.150 -0.1262  0.6624  0.0322
    5SAPS   H4R  574   3.648   4.525   7.063  1.8313 -0.3840  0.0010
    5SAPS   H4S  575   3.510   4.500   7.164  0.6672  2.4971  1.7979
    5SAPS   C25  576   3.621   4.310   7.131 -0.4777  0.4831 -0.2746
    5SAPS   H5R  577   3.722   4.266   7.134 -1.7220 -2.5606  1.1292
    5SAPS   C26  578   3.519   4.219   7.117 -0.0194  0.0878 -0.1270
    5SAPS   H6R  579   3.539   4.112   7.099  1.5372  0.5600 -1.5055
    5SAPS   C27  580   3.368   4.245   7.113 -0.2024  0.4622 -0.5279
    5SAPS   H7R  581   3.349   4.355   7.118 -1.4553  0.2267  0.5524
    5SAPS   H7S  582   3.313   4.210   7.204 -0.6878  2.3776 -0.0173
    5SAPS   C28  583   3.304   4.178   6.996 -0.4416 -0.6510  0.1329
    5SAPS   H8R  584   3.262   4.078   7.008  1.1359 -1.7117 -2.4113
    5SAPS   C29  585   3.281   4.242   6.877 -0.7971 -0.3091 -0.3761
    5SAPS   H9R  586   3.224   4.195   6.795  0.7438 -2.5919 -0.2256
    5SAPS  C210  587   3.339   4.376   6.839  0.9601  0.0401  0.1282
    5SAPS  H10R  588   3.395   4.362   6.744 -2.2239 -1.3471 -1.7446
    5SAPS  H10S  589   3.409   4.410   6.918  1.8009  1.1902 -1.0553
    5SAPS  C211  590   3.227   4.480   6.822  0.0688 -0.1490  0.3211
    5SAPS  H11R  591   3.202   4.531   6.916  1.9403 -1.7506  1.7710
    5SAPS  C212  592   3.160   4.513   6.707 -0.1101 -0.3032  0.1088
    5SAPS  H12R  593   3.073   4.579   6.715 -0.4334 -0.4719 -1.5591
    5SAPS  C213  594   3.179   4.458   6.568 -0.3117  1.0427 -0.5172
    5SAPS  H13R  595   3.075   4.462   6.527 -0.1206 -0.3635 -1.2234
    5SAPS  H13S  596   3.194   4.349   6.554 -2.4221  0.4858  1.0298
    5SAPS  C214  597   3.268   4.535   6.476 -0.0500 -0.0219 -0.9462
    5SAPS  H14R  598   3.285   4.642   6.496  2.2830 -0.3506 -0.9464
    5SAPS  C215  599   3.350   4.475   6.385 -0.1178 -0.8913  0.7573
    5SAPS  H15R  600   3.395   4.551   6.320 -2.7746 -0.1950 -0.4098
    5SAPS  C216  601   3.367   4.328   6.358 -0.2909 -0.1275  0.6048
    5SAPS  H16R  602   3.343   4.273   6.451  4.0962 -0.7436  1.6130
    5SAPS  H16S  603   3.475   4.312   6.338  0.0697  1.0673  1.5005
    5SAPS  C217  604   3.280   4.264   6.244  0.0343  0.5355  0.4343
    5SAPS  H17R  605   3.265   4.330   6.156 -0.6982 -0.5444 -0.2681
    5SAPS  H17S  606   3.183   4.249   6.296 -0.8835 -0.9699 -1.5750
    5SAPS  C218  607   3.333   4.125   6.211  0.1508  0.5598 -0.5433
    5SAPS  H18R  608   3.439   4.120   6.246 -0.7461 -4.5003  2.3725
    5SAPS  H18S  609   3.338   4.123   6.100  0.8009  0.1093 -0.5090
    5SAPS  C219  610   3.247   4.016   6.268 -0.3598  0.2566 -0.6575
    5SAPS  H19R  611   3.138   4.036   6.257 -0.7088 -1.4409 -0.4152
    5SAPS  H19S  612   3.263   4.020   6.377  0.9700 -0.1900 -0.8260
    5SAPS  C220  613   3.278   3.876   6.221  0.3145  0.3480  0.5701
    5SAPS  H20R  614   3.386   3.859   6.240 -0.0017 -1.8994  0.5741
    5SAPS  H20S  615   3.261   3.873   6.111 -1.9788  1.1770  0.8415
    5SAPS  H20T  616   3.220   3.795   6.270 -2.3916  1.0993 -1.1361
    5SAPS   C33  617   3.763   5.277   7.367 -0.0806  0.3113  0.3764
    5SAPS   H3X  618   3.737   5.350   7.447  0.7807  2.5862 -1.3192
    5SAPS   H3Y  619   3.672   5.271   7.304  0.4410 -1.6283 -0.2748
    5SAPS   C34  620   3.883   5.346   7.291  0.6806 -0.1515 -0.1835
    5SAPS   H4X  621   3.969   5.354   7.361  2.5511  0.1893 -2.4040
    5SAPS   H4Y  622   3.866   5.450   7.257  0.5183  0.0237  0.4256
    5SAPS   C35  623   3.936   5.268   7.172 -0.5943 -0.1762 -0.1319
    5SAPS   H5X  624   3.964   5.162   7.186  2.1683  0.4485 -0.3229
    5SAPS   H5Y  625   4.032   5.322   7.153 -0.0921 -1.1977 -0.5824
    5SAPS   C36  626   3.840   5.284   7.051 -0.1613 -0.7365  0.1444
    5SAPS   H6X  627   3.772   5.370   7.063 -0.4635 -1.1400  1.6544
    5SAPS   H6Y  628   3.761   5.206   7.057 -1.1323  0.1387 -0.8697
    5SAPS   C37  629   3.911   5.281   6.916  0.7040 -0.5464  0.5170
    5SAPS   H7X  630   3.962   5.183   6.912 -0.8439 -1.3622 -0.6332
    5SAPS   H7Y  631   3.984   5.364   6.905  0.2160 -0.2905 -1.0405
    5SAPS   C38  632   3.808   5.289   6.796 -0.7812  1.0203  0.3579
    5SAPS   H8X  633   3.783   5.396   6.776 -1.2447  0.9978  0.7850
    5SAPS   H8Y  634   3.717   5.229   6.818  1.0884 -2.3013 -0.3078
    5SAPS   C39  635   3.866   5.235   6.667 -0.5189  1.0304 -1.0944
    5SAPS   H9X  636   3.899   5.130   6.678  0.7742  1.4356 -0.9708
    5SAPS   H9Y  637   3.964   5.278   6.639  0.5772 -0.8341 -0.2878
    5SAPS  C310  638   3.770   5.259   6.548 -0.4998  0.2550 -0.2098
    5SAPS  H10X  639   3.762   5.370   6.537 -0.1735  0.2850 -0.1361
    5SAPS  H10Y  640   3.670   5.212   6.562  0.3495 -1.8441 -0.8260
    5SAPS  C311  641   3.824   5.201   6.412  0.4286  0.0013  0.3580
    5SAPS  H11X  642   3.841   5.092   6.398 -2.3410 -0.1938 -2.8698
    5SAPS  H11Y  643   3.929   5.230   6.393  0.6709 -0.7082  0.5552
    5SAPS  C312  644   3.753   5.252   6.288 -0.2756  0.0835 -0.3334
    5SAPS  H12X  645   3.756   5.363   6.296  0.6384  0.0444 -0.0065
    5SAPS  H12Y  646   3.648   5.219   6.283 -0.1669 -0.2616 -0.3375
    5SAPS  C313  647   3.825   5.211   6.155  0.3736  1.0148 -0.1052
    5SAPS  H13X  648   3.844   5.101   6.153 -1.2721  0.7129 -0.8243
    5SAPS  H13Y  649   3.925   5.258   6.145 -0.0643  1.6838 -1.6415
    5SAPS  C314  650   3.742   5.257   6.036  1.0566  0.4037 -0.1360
    5SAPS  H14X  651   3.724   5.366   6.045  0.9833  0.3171  0.8298
    5SAPS  H14Y  652   3.651   5.195   6.019  1.1348  0.4732 -0.8472
    5SAPS  C315  653   3.818   5.242   5.906 -0.3103  0.4299  0.9586
    5SAPS  H15X  654   3.834   5.133   5.890 -0.7408  0.1124  2.5331
    5SAPS  H15Y  655   3.918   5.286   5.926  0.0581 -0.0366  0.1941
    5SAPS  C316  656   3.748   5.322   5.795 -0.1381  0.0006  0.1887
    5SAPS  H16X  657   3.811   5.348   5.707 -0.0377 -1.2278 -0.1161
    5SAPS  H16Y  658   3.719   5.423   5.833  0.0136 -0.4943  1.6592
    5SAPS  C317  659   3.619   5.262   5.735  0.3113 -0.4242 -0.5222
    5SAPS  H17X  660   3.527   5.270   5.797 -1.1194 -1.5736 -2.4208
    5SAPS  H17Y  661   3.617   5.154   5.710 -0.7577 -1.0817  2.0758
    5SAPS  C318  662   3.584   5.340   5.607 -0.1098  0.0466  0.6797
    5SAPS  H18X  663   3.490   5.309   5.556  0.7198 -1.5145  0.0457
    5SAPS  H18Y  664   3.658   5.318   5.528 -0.9702  2.1304 -0.7864
    5SAPS  H18Z  665   3.590   5.450   5.620  2.2916  0.1632 -0.8657
    6SAPS     N  666   6.669   4.815   7.905 -0.3850 -0.4445 -0.4125
    6SAPS   HN1  667   6.635   4.871   7.985 -0.6116 -2.4114  0.9269
    6SAPS   HN2  668   6.768   4.837   7.881 -0.5326 -1.8441 -2.6159
    6SAPS   HN3  669   6.612   4.848   7.825 -0.1352 -1.9033 -1.2318
    6SAPS   C12  670   6.657   4.668   7.914 -0.0097 -0.0004  0.0515
    6SAPS  H12A  671   6.748   4.639   7.964  0.4451  1.5880  0.2021
    6SAPS   C13  672   6.539   4.622   8.001 -0.0505 -0.0716 -0.2758
    6SAPS  O13A  673   6.493   4.704   8.090  0.7020 -0.2459 -0.4056
    6SAPS  O13B  674   6.518   4.498   8.012 -0.2441  0.0409 -0.6206
    6SAPS   C11  675   6.643   4.608   7.779  0.0744 -0.3030  0.1458
    6SAPS  H11A  676   6.550   4.645   7.731 -0.5114 -2.5209 -0.5729
    6SAPS  H11B  677   6.631   4.498   7.788  2.2109 -0.4722  1.8240
    6SAPS     P  678   6.750   4.612   7.540  0.3345  0.4791 -0.1001
    6SAPS   O13  679   6.690   4.723   7.473  0.3676 -0.3675 -0.5600
    6SAPS   O14  680   6.891   4.589   7.504  0.1553 -0.0989  0.6515
    6SAPS   O12  681   6.759   4.631   7.697  0.0108 -0.2395  0.6639
    6SAPS   O11  682   6.661   4.478   7.521 -0.0377  0.0340  0.1433
    6SAPS    C1  683   6.733   4.351   7.522  0.0074 -0.8461  0.1286
    6SAPS    HA  684   6.815   4.352   7.597  0.8796  0.1617 -0.8091
    6SAPS    HB  685   6.665   4.267   7.550  3.0639 -3.5922 -0.0765
    6SAPS    C2  686   6.778   4.300   7.381 -0.2852  0.1029 -0.1513
    6SAPS    HS  687   6.857   4.374   7.358  0.7830 -1.4427 -1.6777
    6SAPS   O21  688   6.667   4.314   7.289  0.5567  0.0621 -0.9082
    6SAPS   C21  689   6.709   4.349   7.164 -0.6010 -0.0769  0.1801
    6SAPS   O22  690   6.821   4.382   7.133  0.7382 -0.3293  0.7409
    6SAPS   C22  691   6.602   4.321   7.058  0.2959  0.3822  0.4724
    6SAPS   H2R  692   6.608   4.212   7.037  1.4101  0.2120  1.6307
    6SAPS   H2S  693   6.503   4.356   7.095  0.2339  2.5925 -1.5374
    6SAPS    C3  694   6.835   4.153   7.373 -0.5113 -0.6380 -0.6859
    6SAPS    HX  695   6.747   4.090   7.396 -1.6334 -0.6969 -4.5175
    6SAPS    HY  696   6.916   4.138   7.447 -0.5705 -1.1040 -0.7152
    6SAPS   O31  697   6.893   4.119   7.249  0.0073 -0.6888 -0.2084
    6SAPS   C31  698   7.016   4.161   7.218  0.1803  0.2139  0.5853
    6SAPS   O32  699   7.087   4.230   7.290 -0.0825  0.0731  0.1281
    6SAPS   C32  700   7.057   4.101   7.084  0.4330 -0.1669 -0.1491
    6SAPS   H2X  701   7.035   3.992   7.079 -0.5305 -0.1396  2.2475
    6SAPS   H2Y  702   7.168   4.113   7.080  0.6154 -1.8091 -1.0674
    6SAPS   C23  703   6.638   4.385   6.922  0.2719 -0.4178 -0.5472
    6SAPS   H3R  704   6.730   4.334   6.884 -0.3391 -2.1127  0.1343
    6SAPS   H3S  705   6.667   4.490   6.944  0.0907 -0.3162 -0.7915
    6SAPS   C24  706   6.525   4.374   6.822 -0.7064  0.1967 -0.3965
    6SAPS   H4R  707   6.554   4.447   6.744 -0.3330 -0.1558 -0.5938
    6SAPS   H4S  708   6.437   4.412   6.878  0.8664  0.6717  1.9087
    6SAPS   C25  709   6.499   4.235   6.779  0.5970  0.2860  0.4573
    6SAPS   H5R  710   6.517   4.153   6.850  2.1928 -0.0006 -0.2408
    6SAPS   C26  711   6.470   4.194   6.654 -0.2800  0.1697  0.3597
    6SAPS   H6R  712   6.464   4.088   6.628  1.4092  1.0431 -4.5886
    6SAPS   C27  713   6.442   4.281   6.536 -0.4269  0.1701  0.1335
    6SAPS   H7R  714   6.463   4.389   6.554  1.0643  0.3166 -2.1450
    6SAPS   H7S  715   6.331   4.282   6.530 -0.3999 -0.6788 -0.8413
    6SAPS   C28  716   6.506   4.245   6.403  0.6628  0.1276 -0.0027
    6SAPS   H8R  717   6.614   4.261   6.398  0.7346 -0.1375  0.6106
    6SAPS   C29  718   6.442   4.186   6.299 -0.2183  0.1804 -0.4856
    6SAPS   H9R  719   6.505   4.164   6.211 -0.1223 -0.6777 -0.2112
    6SAPS  C210  720   6.293   4.155   6.289 -0.2164  0.8772 -0.6326
    6SAPS  H10R  721   6.234   4.248   6.271 -1.0306  0.0411 -2.6427
    6SAPS  H10S  722   6.264   4.123   6.391  0.7913  1.4034 -0.1646
    6SAPS  C211  723   6.269   4.047   6.187  0.6821 -0.0152  0.7543
    6SAPS  H11R  724   6.308   3.950   6.219 -0.4313 -0.2344  1.4996
    6SAPS  C212  725   6.218   4.069   6.067 -0.2358 -0.1520 -0.3409
    6SAPS  H12R  726   6.213   3.987   5.994  0.1546 -1.3946  0.9737
    6SAPS  C213  727   6.173   4.199   6.013 -0.2184  0.1417  0.2038
    6SAPS  H13R  728   6.260   4.254   5.971  0.4120 -0.7163  0.3368
    6SAPS  H13S  729   6.139   4.266   6.095 -0.1521 -0.6530  0.9011
    6SAPS  C214  730   6.075   4.206   5.901 -0.0392  1.0594  0.1969
    6SAPS  H14R  731   6.041   4.112   5.854  0.9850 -1.2138  3.6390
    6SAPS  C215  732   6.023   4.318   5.846  0.4711  0.8774 -0.1138
    6SAPS  H15R  733   5.972   4.305   5.749  2.8671 -0.1358 -1.3027
    6SAPS  C216  734   6.042   4.461   5.890  0.5227 -0.0514 -0.5317
    6SAPS  H16R  735   6.076   4.469   5.995  1.1615 -1.9540 -0.5457
    6SAPS  H16S  736   5.936   4.487   5.912  0.4699 -0.7375  0.0598
    6SAPS  C217  737   6.090   4.567   5.785 -0.0194 -0.4847 -0.1514
    6SAPS  H17R  738   6.033   4.662   5.796 -0.7194 -0.9698  0.5691
    6SAPS  H17S  739   6.050   4.525   5.691  1.0135 -1.7237 -0.0619
    6SAPS  C218  740   6.235   4.596   5.779 -0.9054 -0.0195 -0.2447
    6SAPS  H18R  741   6.280   4.507   5.730 -2.0288 -0.1366 -1.1157
    6SAPS  H18S  742   6.282   4.624   5.875 -1.7064  0.8386 -0.0872
    6SAPS  C219  743   6.281   4.707   5.676 -0.0358 -0.6276 -0.5949
    6SAPS  H19R  744   6.390   4.717   5.693 -0.1396 -0.1960 -0.1502
    6SAPS  H19S  745   6.229   4.803   5.700  0.7589  0.0638 -1.5503
    6SAPS  C220  746   6.249   4.659   5.536 -0.0730 -0.0025 -0.0374
    6SAPS  H20R  747   6.293   4.560   5.512  0.2443  0.3661 -0.9899
    6SAPS  H20S  748   6.297   4.717   5.455  1.2527 -1.4978 -0.3751
    6SAPS  H20T  749   6.145   4.637   5.506  0.2492 -1.9471  0.1201
    6SAPS   C33  750   6.985   4.179   6.978  0.2522  0.3814 -0.4027
    6SAPS   H3X  751   7.017   4.285   6.990  1.1532 -0.0594  1.5352
    6SAPS   H3Y  752   6.876   4.167   6.993  0.1417 -0.9865 -1.9911
    6SAPS   C34  753   7.035   4.123   6.845 -0.2399  0.0470 -0.2481
    6SAPS   H4X  754   7.005   4.016   6.839  1.2756 -0.4554  0.4242
    6SAPS   H4Y  755   7.146   4.122   6.851 -0.2173 -0.3123 -0.6894
    6SAPS   C35  756   6.984   4.195   6.718 -1.4868  0.4052  0.3114
    6SAPS   H5X  757   6.877   4.219   6.737 -1.2408  1.5488  0.3280
    6SAPS   H5Y  758   6.993   4.131   6.627 -2.5897 -0.4305  0.7607
    6SAPS   C36  759   7.070   4.325   6.682  0.4518  0.4743 -0.8407
    6SAPS   H6X  760   7.084   4.381   6.777  0.1307  0.5072 -0.8114
    6SAPS   H6Y  761   7.013   4.396   6.618 -0.8859  2.9083  2.7023
    6SAPS   C37  762   7.214   4.323   6.638  0.1527 -0.4371 -0.7587
    6SAPS   H7X  763   7.271   4.238   6.683 -1.0677 -1.3643 -0.9168
    6SAPS   H7Y  764   7.276   4.415   6.647  1.9520 -1.7065  0.7613
    6SAPS   C38  765   7.222   4.287   6.489 -0.3321  0.0334 -0.3829
    6SAPS   H8X  766   7.173   4.188   6.479 -2.6552  1.1692 -1.0397
    6SAPS   H8Y  767   7.330   4.280   6.463 -0.1263  2.0010 -0.2705
    6SAPS   C39  768   7.159   4.391   6.394 -0.1186  0.1700  0.0840
    6SAPS   H9X  769   7.050   4.381   6.412 -0.0503 -2.0459 -0.4295
    6SAPS   H9Y  770   7.165   4.358   6.289  1.3568 -1.7018  0.7054
    6SAPS  C310  771   7.206   4.534   6.416 -0.5304 -0.2030 -0.4407
    6SAPS  H10X  772   7.316   4.544   6.415 -0.0036 -4.2051  0.3178
    6SAPS  H10Y  773   7.170   4.560   6.518 -1.2459 -0.7883 -0.5306
    6SAPS  C311  774   7.132   4.634   6.330  0.4625  0.3631  0.3142
    6SAPS  H11X  775   7.129   4.740   6.366  0.8152  0.4713  0.0253
    6SAPS  H11Y  776   7.022   4.615   6.325  0.6515 -0.4907 -0.9349
    6SAPS  C312  777   7.182   4.633   6.177  0.0842  0.7713 -0.1366
    6SAPS  H12X  778   7.231   4.535   6.156 -0.2856  0.5382  0.0781
    6SAPS  H12Y  779   7.254   4.717   6.166  0.4809  0.5142  0.4650
    6SAPS  C313  780   7.064   4.651   6.078 -0.4354 -0.3949  0.0679
    6SAPS  H13X  781   7.002   4.738   6.110  2.0222  1.7014 -0.5009
    6SAPS  H13Y  782   7.005   4.557   6.073  0.7167 -1.0801 -2.6986
    6SAPS  C314  783   7.109   4.681   5.930  0.0008 -0.3403 -0.0125
    6SAPS  H14X  784   7.173   4.773   5.926 -2.9357  1.7969 -1.1937
    6SAPS  H14Y  785   7.029   4.711   5.859  0.5821  1.1011 -0.1050
    6SAPS  C315  786   7.183   4.563   5.869  0.0083  0.0818  0.7819
    6SAPS  H15X  787   7.098   4.496   5.846 -1.0221  1.6075  0.0003
    6SAPS  H15Y  788   7.260   4.519   5.937  1.9824  1.7361 -0.2688
    6SAPS  C316  789   7.244   4.609   5.732 -0.3920  0.1699 -0.0912
    6SAPS  H16X  790   7.319   4.685   5.763  0.5701  0.0445 -1.9845
    6SAPS  H16Y  791   7.170   4.664   5.671  1.4481  1.3965 -1.3241
    6SAPS  C317  792   7.314   4.500   5.656  0.3069  0.4785 -0.1985
    6SAPS  H17X  793   7.243   4.425   5.618  0.6423  0.6886 -1.2569
    6SAPS  H17Y  794   7.388   4.456   5.727 -0.4315 -0.3769  0.0618
    6SAPS  C318  795   7.390   4.557   5.533 -0.1758 -0.0358  0.1068
    6SAPS  H18X  796   7.463   4.479   5.505  0.3590 -0.5307  2.6541
    6SAPS  H18Y  797   7.448   4.650   5.552 -0.3260  0.0335  0.2252
    6SAPS  H18Z  798   7.320   4.578   5.448 -1.1187 -0.9671  0.6357
    7SAPS     N  799   3.236   4.341   7.666 -0.9342  0.6753 -0.2500
    7SAPS   HN1  800   3.166   4.276   7.706 -0.3589  0.2094  0.0109
    7SAPS   HN2  801   3.226   4.426   7.726 -2.1711 -0.3508  1.0727
    7SAPS   HN3  802   3.203   4.364   7.570 -1.9972 -4.1732 -1.2821
    7SAPS   C12  803   3.365   4.268   7.679 -1.1241 -0.0603  0.0056
    7SAPS  H12A  804   3.445   4.335   7.653 -1.0809  1.0014  2.5383
    7SAPS   C13  805   3.394   4.234   7.829  0.3881 -0.2908  0.8996
    7SAPS  O13A  806   3.304   4.240   7.912 -0.0069  0.2882 -0.3121
    7SAPS  O13B  807   3.507   4.178   7.857  0.2765  0.2876  0.0229
    7SAPS   C11  808   3.369   4.145   7.587  0.7416 -0.9917  0.2565
    7SAPS  H11A  809   3.462   4.090   7.614  0.7433 -0.9387  0.3576
    7SAPS  H11B  810   3.373   4.183   7.482  1.6101 -0.4917  0.4630
    7SAPS     P  811   3.251   3.911   7.609  0.2333 -0.3033 -0.2081
    7SAPS   O13  812   3.307   3.873   7.742  0.1296 -0.0415  0.1159
    7SAPS   O14  813   3.118   3.854   7.577  0.2161 -0.1044  0.7205
    7SAPS   O12  814   3.248   4.069   7.610  0.4150 -0.1387  0.1415
    7SAPS   O11  815   3.366   3.877   7.492  0.0702  0.7485 -0.5152
    7SAPS    C1  816   3.317   3.859   7.359  0.1007 -0.4233  0.1945
    7SAPS    HA  817   3.223   3.801   7.355 -0.5204  0.2941  2.5544
    7SAPS    HB  818   3.300   3.962   7.322 -0.7387 -0.5228  0.2988
    7SAPS    C2  819   3.437   3.809   7.271  0.2884  0.1107 -0.2648
    7SAPS    HS  820   3.453   3.705   7.306 -3.7084 -0.7731 -0.5819
    7SAPS   O21  821   3.545   3.902   7.277 -0.1207 -0.3070 -0.1620
    7SAPS   C21  822   3.639   3.873   7.369 -0.5143  0.4223  0.7978
    7SAPS   O22  823   3.652   3.763   7.418 -0.5592 -0.1817 -0.0111
    7SAPS   C22  824   3.710   4.004   7.403 -0.8451  0.0383  0.0338
    7SAPS   H2R  825   3.691   4.078   7.323  1.8962  0.3170 -0.4572
    7SAPS   H2S  826   3.670   4.045   7.499 -1.5911  1.1807 -0.7378
    7SAPS    C3  827   3.383   3.800   7.127  0.8184  0.5527 -0.5094
    7SAPS    HX  828   3.360   3.902   7.090 -0.7737  0.7764  0.9137
    7SAPS    HY  829   3.286   3.745   7.130  0.2610  1.3932 -1.8917
    7SAPS   O31  830   3.483   3.741   7.046 -0.4614 -0.1615  0.1023
    7SAPS   C31  831   3.501   3.608   7.048 -0.9288 -0.8298 -0.8541
    7SAPS   O32  832   3.427   3.533   7.111  0.2730  0.0643 -0.4923
    7SAPS   C32  833   3.629   3.563   6.971  0.3039  0.0511  0.1877
    7SAPS   H2X  834   3.714   3.627   7.000 -0.2236  0.6808  0.3754
    7SAPS   H2Y  835   3.612   3.575   6.861  0.9542 -0.0234  0.0758
    7SAPS   C23  836   3.860   3.996   7.409 -0.1981 -0.3920  0.6966
    7SAPS   H3R  837   3.896   3.922   7.483 -3.4353  0.9074  3.9188
    7SAPS   H3S  838   3.898   4.096   7.438 -4.0660  2.6763 -3.3980
    7SAPS   C24  839   3.928   3.983   7.267 -0.3512 -0.3827 -0.5375
    7SAPS   H4R  840   4.034   4.014   7.281 -0.4902  0.0515 -0.4380
    7SAPS   H4S  841   3.885   4.065   7.205 -0.1583 -0.0948 -0.2921
    7SAPS   C25  842   3.934   3.841   7.203  0.3591 -0.6056  0.4119
    7SAPS   H5R  843   3.950   3.758   7.275  0.9766  0.3562  1.4215
    7SAPS   C26  844   3.903   3.820   7.077 -0.3624 -0.5321 -0.4048
    7SAPS   H6R  845   3.891   3.719   7.037 -0.3413  0.0973 -2.0786
    7SAPS   C27  846   3.887   3.927   6.969 -0.2971  0.1947  0.0286
    7SAPS   H7R  847   3.988   3.967   6.947 -1.3951  1.4166 -3.3749
    7SAPS   H7S  848   3.827   4.010   7.012  1.1590  1.2142  0.1867
    7SAPS   C28  849   3.836   3.867   6.839  0.1887  0.4064  0.5646
    7SAPS   H8R  850   3.905   3.796   6.790 -0.1599  1.3588 -1.3908
    7SAPS   C29  851   3.733   3.903   6.769 -0.0052  0.0700 -0.3642
    7SAPS   H9R  852   3.718   3.856   6.670  1.1231 -1.7779  0.3046
    7SAPS  C210  853   3.632   4.010   6.804  0.0452 -0.1355  0.2942
    7SAPS  H10R  854   3.683   4.106   6.826  1.3399 -0.0723 -2.4929
    7SAPS  H10S  855   3.580   3.977   6.896 -1.3408  0.2005 -0.3421
    7SAPS  C211  856   3.515   4.043   6.711  0.3661  0.2081  0.1487
    7SAPS  H11R  857   3.504   4.147   6.677 -0.6214  0.7501  1.9941
    7SAPS  C212  858   3.421   3.968   6.664 -0.2564  0.2406  0.7661
    7SAPS  H12R  859   3.347   4.002   6.590  0.8638 -2.2290 -1.6870
    7SAPS  C213  860   3.402   3.820   6.701 -0.6972  0.1649  0.3435
    7SAPS  H13R  861   3.353   3.809   6.800 -1.8795 -0.5973 -0.2903
    7SAPS  H13S  862   3.496   3.764   6.716 -0.2381  0.1599 -2.1299
    7SAPS  C214  863   3.320   3.741   6.604 -0.0614  0.8132  0.5061
    7SAPS  H14R  864   3.266   3.809   6.537  0.6882  1.0688  0.1515
    7SAPS  C215  865   3.306   3.604   6.578 -0.3780 -0.2724  0.1260
    7SAPS  H15R  866   3.240   3.586   6.491 -0.7411 -1.1274  0.5735
    7SAPS  C216  867   3.370   3.489   6.648 -0.1259  0.1349 -0.2453
    7SAPS  H16R  868   3.418   3.535   6.737 -0.5805 -0.7174  0.4587
    7SAPS  H16S  869   3.443   3.430   6.588 -1.0447 -1.1616 -0.1288
    7SAPS  C217  870   3.262   3.388   6.693 -0.2636  0.4340  0.3242
    7SAPS  H17R  871   3.215   3.338   6.606 -0.0333 -1.3434  1.1760
    7SAPS  H17S  872   3.184   3.444   6.748 -1.8317 -0.8332 -0.5176
    7SAPS  C218  873   3.316   3.284   6.795 -1.1304 -0.2159 -0.2893
    7SAPS  H18R  874   3.329   3.345   6.887  0.7303  0.1205 -0.7377
    7SAPS  H18S  875   3.414   3.243   6.761  0.0086  1.4292  0.8786
    7SAPS  C219  876   3.210   3.172   6.817  0.2493  0.5901 -0.1479
    7SAPS  H19R  877   3.253   3.112   6.900  1.6594  1.4597 -0.2207
    7SAPS  H19S  878   3.205   3.111   6.725  0.9649 -0.6018  0.5760
    7SAPS  C220  879   3.065   3.209   6.853  0.2951  0.0249  0.0381
    7SAPS  H20R  880   3.019   3.266   6.770 -1.6667  0.6810  1.4920
    7SAPS  H20S  881   3.078   3.270   6.945 -1.7504  1.4003 -0.5304
    7SAPS  H20T  882   2.998   3.125   6.882  2.1598 -0.7829  2.3834
    7SAPS   C33  883   3.670   3.411   6.999  0.7561  0.2075  0.1159
    7SAPS   H3X  884   3.580   3.348   7.009  0.3366  0.3296 -2.2795
    7SAPS   H3Y  885   3.729   3.417   7.093  0.6413  1.2898  0.1322
    7SAPS   C34  886   3.760   3.348   6.892  0.4229 -0.0560 -0.0459
    7SAPS   H4X  887   3.694   3.354   6.803 -0.2626 -0.3924  0.4308
    7SAPS   H4Y  888   3.781   3.241   6.913  0.7382  0.2747  1.4058
    7SAPS   C35  889   3.896   3.418   6.868 -0.2017 -0.4251 -0.1998
    7SAPS   H5X  890   3.940   3.460   6.961 -0.4395 -0.5208 -0.0427
    7SAPS   H5Y  891   3.882   3.510   6.808 -0.5527 -1.3877 -1.6514
    7SAPS   C36  892   4.006   3.332   6.804  0.4453  0.0238  0.7915
    7SAPS   H6X  893   4.016   3.247   6.875 -1.2676  1.1831  2.5059
    7SAPS   H6Y  894   4.101   3.388   6.789  0.4225 -0.4780 -1.5876
    7SAPS   C37  895   3.971   3.282   6.667 -0.3829 -0.3498  0.7552
    7SAPS   H7X  896   3.886   3.211   6.674 -1.0549  0.5008  1.3883
    7SAPS   H7Y  897   4.060   3.219   6.645 -0.6371  0.1444 -2.1569
    7SAPS   C38  898   3.923   3.391   6.569 -0.1134 -0.2059  0.7853
    7SAPS   H8X  899   3.985   3.483   6.582 -0.5938 -0.0497  2.1143
    7SAPS   H8Y  900   3.816   3.406   6.596  0.3928 -0.0963  2.8870
    7SAPS   C39  901   3.923   3.346   6.422  0.4284 -0.0554  0.1420
    7SAPS   H9X  902   4.011   3.282   6.400  0.6218  0.6269 -1.1832
    7SAPS   H9Y  903   3.930   3.436   6.357  0.5360  0.3186  0.6694
    7SAPS  C310  904   3.796   3.271   6.375 -0.5072  0.5890  0.1524
    7SAPS  H10X  905   3.711   3.339   6.394 -2.1021 -0.6403 -2.1297
    7SAPS  H10Y  906   3.789   3.183   6.443 -1.1700 -0.1114 -0.7882
    7SAPS  C311  907   3.789   3.226   6.229 -0.0165 -0.1836 -0.1341
    7SAPS  H11X  908   3.875   3.159   6.210  0.5451  0.4082  0.2565
    7SAPS  H11Y  909   3.797   3.316   6.164 -0.7079 -0.8819 -1.2257
    7SAPS  C312  910   3.661   3.145   6.198  0.2318  0.2891 -0.4580
    7SAPS  H12X  911   3.577   3.214   6.221  1.5561  1.2824  1.7134
    7SAPS  H12Y  912   3.661   3.059   6.268  3.1621  0.8827  0.3866
    7SAPS  C313  913   3.643   3.086   6.059  0.4753  0.4674 -0.5708
    7SAPS  H13X  914   3.726   3.012   6.047  0.3873 -0.1316  1.9965
    7SAPS  H13Y  915   3.667   3.162   5.982  1.6842  0.4820 -0.1995
    7SAPS  C314  916   3.509   3.022   6.032 -0.0745  0.0912 -0.2141
    7SAPS  H14X  917   3.432   3.101   6.050  0.3743  0.3010  0.8754
    7SAPS  H14Y  918   3.487   2.945   6.109 -1.6941 -1.7855 -2.3930
    7SAPS  C315  919   3.504   2.945   5.902  0.0645  0.2056  0.1652
    7SAPS  H15X  920   3.594   2.880   5.900  1.2754  1.8408  0.2872
    7SAPS  H15Y  921   3.502   3.010   5.812 -0.1041  0.1149  0.1019
    7SAPS  C316  922   3.372   2.861   5.898 -0.5626 -0.7404 -1.1105
    7SAPS  H16X  923   3.288   2.930   5.921 -1.3929 -1.8955 -0.5948
    7SAPS  H16Y  924   3.382   2.779   5.971 -1.4953 -0.3788 -0.5571
    7SAPS  C317  925   3.340   2.795   5.764  0.5341 -0.7567 -0.5138
    7SAPS  H17X  926   3.409   2.709   5.751  1.5102 -0.2322  1.0332
    7SAPS  H17Y  927   3.340   2.875   5.687  2.3149 -1.0357 -0.8266
    7SAPS  C318  928   3.198   2.730   5.772 -0.6868 -0.8725  0.9103
    7SAPS  H18X  929   3.163   2.700   5.671 -0.7261  1.7053  0.0779
    7SAPS  H18Y  930   3.115   2.789   5.815 -0.4488 -1.2796  1.9572
    7SAPS  H18Z  931   3.216   2.638   5.832  0.5151 -2.1800 -1.3170
    8SAPS     N  932   2.799   5.494   7.724  0.2661 -0.3634  0.3027
    8SAPS   HN1  933   2.818   5.585   7.676  0.2003  0.4787  1.8208
    8SAPS   HN2  934   2.893   5.451   7.737 -0.0268 -1.2284 -0.3202
    8SAPS   HN3  935   2.747   5.431   7.660  0.4945 -0.2146 -0.0355
    8SAPS   C12  936   2.726   5.517   7.850  0.4946  0.6457 -0.4258
    8SAPS  H12A  937   2.682   5.422   7.872  1.3778  0.4657  0.6310
    8SAPS   C13  938   2.823   5.545   7.968  0.1721  0.1985  0.1732
    8SAPS  O13A  939   2.945   5.537   7.941 -0.0925 -0.3762 -0.2996
    8SAPS  O13B  940   2.772   5.546   8.081  0.0985  0.0436 -0.0673
    8SAPS   C11  941   2.622   5.632   7.839 -0.0407  0.9596  0.2093
    8SAPS  H11A  942   2.675   5.729   7.852 -0.0997  0.6899  3.0654
    8SAPS  H11B  943   2.563   5.629   7.933 -0.7481  0.7588 -0.2348
    8SAPS     P  944   2.402   5.541   7.717  0.0937 -0.2138 -0.0153
    8SAPS   O13  945   2.416   5.407   7.656 -0.2638  0.3460 -0.2495
    8SAPS   O14  946   2.352   5.545   7.852  0.4112 -0.2875 -0.3822
    8SAPS   O12  947   2.545   5.620   7.721  0.1850  0.5170  0.2779
    8SAPS   O11  948   2.326   5.634   7.614  0.9718 -0.1064 -0.6461
    8SAPS    C1  949   2.375   5.733   7.530 -0.2724 -0.1899 -0.3005
    8SAPS    HA  950   2.309   5.821   7.543  0.5165  0.5575 -1.2243
    8SAPS    HB  951   2.479   5.763   7.557  0.0061 -1.5086  0.1823
    8SAPS    C2  952   2.374   5.679   7.384  0.8437 -0.8830  0.2252
    8SAPS    HS  953   2.386   5.762   7.310 -0.3221 -3.1466 -2.7279
    8SAPS   O21  954   2.263   5.595   7.349 -0.3640 -0.1255 -0.4542
    8SAPS   C21  955   2.144   5.657   7.327 -0.2293  0.8647 -0.1296
    8SAPS   O22  956   2.121   5.775   7.329 -0.2042 -0.4328  0.4766
    8SAPS   C22  957   2.053   5.547   7.296  1.1541  0.9690 -0.3834
    8SAPS   H2R  958   2.012   5.508   7.392 -0.3246 -0.0430 -1.3773
    8SAPS   H2S  959   1.963   5.589   7.247 -0.6997 -0.3662  1.6824
    8SAPS    C3  960   2.495   5.596   7.353  0.0658  0.1848 -0.5222
    8SAPS    HX  961   2.476   5.497   7.400  0.7508 -0.9331 -2.4859
    8SAPS    HY  962   2.584   5.638   7.403 -0.8404 -0.5778  1.8901
    8SAPS   O31  963   2.521   5.572   7.208 -0.5169 -0.1532 -0.2564
    8SAPS   C31  964   2.467   5.468   7.149 -0.1905  1.0198  0.2910
    8SAPS   O32  965   2.432   5.369   7.210 -0.3366  0.0338  0.4384
    8SAPS   C32  966   2.481   5.482   6.998  0.0358 -0.1953 -1.0085
    8SAPS   H2X  967   2.585   5.457   6.968 -0.1050 -1.2698 -0.6362
    8SAPS   H2Y  968   2.460   5.589   6.974 -2.2860  0.1453  1.9787
    8SAPS   C23  969   2.100   5.432   7.197  0.2923  0.1261  0.0404
    8SAPS   H3R  970   2.177   5.379   7.257  1.8877  1.9494 -0.2793
    8SAPS   H3S  971   2.152   5.484   7.114 -1.1837  1.1935 -0.2597
    8SAPS   C24  972   1.991   5.342   7.124  0.3595  0.3693 -0.0825
    8SAPS   H4R  973   1.937   5.301   7.212  1.5415  0.2908  0.6357
    8SAPS   H4S  974   2.052   5.261   7.078  1.2898 -0.5830  2.6011
    8SAPS   C25  975   1.894   5.421   7.035 -0.2459  0.6155  0.2700
    8SAPS   H5R  976   1.824   5.485   7.091  0.7896  1.5155  0.5721
    8SAPS   C26  977   1.870   5.398   6.906 -0.4302  0.3091 -0.4467
    8SAPS   H6R  978   1.798   5.457   6.848 -0.8774 -1.3310 -1.6184
    8SAPS   C27  979   1.930   5.288   6.829 -0.2538 -0.4157 -0.5543
    8SAPS   H7R  980   2.033   5.262   6.862 -1.4860 -3.5072  1.3032
    8SAPS   H7S  981   1.958   5.329   6.730  0.7339  0.3963  0.0387
    8SAPS   C28  982   1.844   5.167   6.818 -0.3773  0.2956  0.1917
    8SAPS   H8R  983   1.773   5.144   6.898  0.7709 -2.1310  0.6101
    8SAPS   C29  984   1.811   5.117   6.696  0.2176  0.5597  0.1188
    8SAPS   H9R  985   1.749   5.026   6.697  1.0594 -0.0579 -1.0348
    8SAPS  C210  986   1.881   5.135   6.565  0.5311  0.0021  0.1653
    8SAPS  H10R  987   1.841   5.051   6.504  0.3531 -0.7212  1.2598
    8SAPS  H10S  988   1.990   5.111   6.563  0.0888 -2.2848 -2.3579
    8SAPS  C211  989   1.859   5.265   6.490 -0.5094 -0.5584  0.3056
    8SAPS  H11R  990   1.912   5.348   6.538  1.4937  0.9806 -4.0974
    8SAPS  C212  991   1.792   5.286   6.373 -0.4431  0.3365 -0.3297
    8SAPS  H12R  992   1.779   5.392   6.349 -0.9270  0.1901 -0.7429
    8SAPS  C213  993   1.718   5.178   6.287  0.8458  0.5421  0.0002
    8SAPS  H13R  994   1.618   5.213   6.254  0.1496  0.5433  1.9788
    8SAPS  H13S  995   1.700   5.090   6.353 -1.5792  0.5583 -0.5443
    8SAPS  C214  996   1.803   5.129   6.173 -0.1065 -0.3221 -0.0715
    8SAPS  H14R  997   1.909   5.116   6.198 -0.3363  0.6405  1.5942
    8SAPS  C215  998   1.753   5.087   6.051  0.7358  0.2023 -0.2953
    8SAPS  H15R  999   1.822   5.071   5.966  0.3300  0.8843 -0.7674
    8SAPS  C216 1000   1.605   5.089   6.009  0.7302 -0.1202 -0.5058
    8SAPS  H16R 1001   1.534   5.155   6.063  1.2424 -0.5280  0.7145
    8SAPS  H16S 1002   1.560   4.988   6.015  1.1001 -0.2675 -0.0817
    8SAPS  C217 1003   1.581   5.153   5.863 -0.0222  0.3202  0.3720
    8SAPS  H17R 1004   1.506   5.094   5.806  0.7261  0.3995 -0.7524
    8SAPS  H17S 1005   1.669   5.140   5.796 -0.3904 -1.7972  0.2207
    8SAPS  C218 1006   1.544   5.299   5.852 -0.0283 -0.3551 -0.1996
    8SAPS  H18R 1007   1.453   5.321   5.912 -0.6159  3.5368 -2.2206
    8SAPS  H18S 1008   1.522   5.331   5.748  0.9811  2.3578  0.3308
    8SAPS  C219 1009   1.656   5.394   5.901 -0.4317 -0.3752  0.2802
    8SAPS  H19R 1010   1.737   5.378   5.826 -1.7457 -2.8269 -0.7571
    8SAPS  H19S 1011   1.693   5.364   6.002  0.2962  0.6549  0.3319
    8SAPS  C220 1012   1.607   5.536   5.912  0.4475 -0.2398  0.6356
    8SAPS  H20R 1013   1.574   5.583   5.817 -2.2431  4.0947  3.3995
    8SAPS  H20S 1014   1.689   5.597   5.955  0.7304 -0.0286 -0.1877
    8SAPS  H20T 1015   1.511   5.541   5.969 -1.4069 -0.8459 -2.2185
    8SAPS   C33 1016   2.380   5.397   6.922 -0.3903  0.1047  0.4889
    8SAPS   H3X 1017   2.275   5.430   6.934 -1.1386 -2.2966  1.2044
    8SAPS   H3Y 1018   2.375   5.287   6.940  3.3939 -0.3597 -0.4141
    8SAPS   C34 1019   2.414   5.389   6.775 -1.2354 -1.1203 -0.5484
    8SAPS   H4X 1020   2.485   5.303   6.771 -2.9397 -2.5435 -1.6479
    8SAPS   H4Y 1021   2.473   5.473   6.733 -1.4243 -0.2436  0.8744
    8SAPS   C35 1022   2.301   5.373   6.684 -0.0737 -0.7034 -0.2186
    8SAPS   H5X 1023   2.245   5.469   6.691  1.3648  0.4135 -2.6350
    8SAPS   H5Y 1024   2.229   5.293   6.711 -0.8968 -0.0873 -0.5400
    8SAPS   C36 1025   2.351   5.356   6.540 -0.2161  0.4765 -0.4289
    8SAPS   H6X 1026   2.417   5.267   6.529 -0.1556  0.6596 -1.7493
    8SAPS   H6Y 1027   2.429   5.434   6.530  0.2623 -0.0683 -1.0379
    8SAPS   C37 1028   2.240   5.385   6.440  0.5271  0.4203  0.2945
    8SAPS   H7X 1029   2.198   5.487   6.459  0.7594  0.7590 -0.9244
    8SAPS   H7Y 1030   2.156   5.317   6.466  0.3778  0.2385 -0.6357
    8SAPS   C38 1031   2.268   5.350   6.294 -0.0758 -0.7526 -0.0399
    8SAPS   H8X 1032   2.319   5.252   6.295  1.7278  0.1439  0.9261
    8SAPS   H8Y 1033   2.343   5.416   6.245  0.1608 -2.0229 -1.4441
    8SAPS   C39 1034   2.145   5.358   6.210 -0.1736  0.7893 -0.1962
    8SAPS   H9X 1035   2.109   5.463   6.203  0.1764  0.9138 -0.1306
    8SAPS   H9Y 1036   2.056   5.306   6.251 -0.4837  0.7528 -0.9016
    8SAPS  C310 1037   2.170   5.316   6.062 -0.2329  0.3589 -0.0149
    8SAPS  H10X 1038   2.072   5.319   6.011  0.7277 -1.4332 -2.1273
    8SAPS  H10Y 1039   2.200   5.212   6.040 -1.2962 -0.1913  1.0509
    8SAPS  C311 1040   2.265   5.406   5.985 -0.0480  0.6191 -0.4880
    8SAPS  H11X 1041   2.362   5.419   6.037 -0.5102  0.3836  0.4586
    8SAPS  H11Y 1042   2.217   5.506   5.978  1.2050  1.3770  1.0491
    8SAPS  C312 1043   2.282   5.360   5.832  0.0546 -0.1820 -0.1313
    8SAPS  H12X 1044   2.187   5.332   5.781  0.1966  1.1034 -1.1651
    8SAPS  H12Y 1045   2.344   5.269   5.841 -0.0276 -0.3736 -1.3795
    8SAPS  C313 1046   2.362   5.455   5.751 -0.0263  0.2114  0.0057
    8SAPS  H13X 1047   2.459   5.466   5.805 -0.1951  0.5230  0.2499
    8SAPS  H13Y 1048   2.322   5.559   5.754  1.3587  0.7391  2.2225
    8SAPS  C314 1049   2.375   5.406   5.603  0.4670  0.2762 -0.9342
    8SAPS  H14X 1050   2.294   5.437   5.533 -2.6905  0.4276  2.4551
    8SAPS  H14Y 1051   2.364   5.297   5.621  0.1839  0.3983 -0.3294
    8SAPS  C315 1052   2.504   5.434   5.530  0.0850  0.3240 -0.4006
    8SAPS  H15X 1053   2.512   5.375   5.437  2.9351 -0.3017  0.1600
    8SAPS  H15Y 1054   2.583   5.391   5.596 -0.9051 -2.0368 -0.6659
    8SAPS  C316 1055   2.509   5.591   5.514  0.4394 -0.4803  0.3117
    8SAPS  H16X 1056   2.540   5.634   5.612 -2.8491 -0.3680  1.4302
    8SAPS  H16Y 1057   2.412   5.641   5.494  0.7640 -0.8489 -2.7059
    8SAPS  C317 1058   2.612   5.623   5.408 -0.9592  0.0930  0.3998
    8SAPS  H17X 1059   2.640   5.730   5.420  1.0250 -0.3287 -0.0429
    8SAPS  H17Y 1060   2.560   5.619   5.310 -0.7708  0.2381  0.2927
    8SAPS  C318 1061   2.749   5.554   5.415 -0.3705 -0.1695  0.1262
    8SAPS  H18X 1062   2.794   5.556   5.516 -3.5718 -0.6156  1.7092
    8SAPS  H18Y 1063   2.825   5.605   5.352  0.1155 -2.6241 -1.4420
    8SAPS  H18Z 1064   2.748   5.449   5.377  4.0735  0.2184 -1.6374
    9SAPS     N 1065   3.087   3.515   7.796 -0.4208 -0.6043 -0.0133
    9SAPS   HN1 1066   3.021   3.594   7.811 -2.7166 -2.2111 -1.1737
    9SAPS   HN2 1067   3.177   3.552   7.833 -1.5668  1.7212  0.6405
    9SAPS   HN3 1068   3.089   3.489   7.696 -1.9148 -0.1630 -0.1771
    9SAPS   C12 1069   3.033   3.388   7.868  0.0079 -0.8463 -0.5036
    9SAPS  H12A 1070   3.073   3.385   7.968  1.9112 -1.6322 -1.2427
    9SAPS   C13 1071   2.879   3.384   7.889  0.9190  0.2993  0.2271
    9SAPS  O13A 1072   2.816   3.491   7.875  0.2109  0.4775 -0.1833
    9SAPS  O13B 1073   2.835   3.286   7.959 -0.2363  0.3449  0.6044
    9SAPS   C11 1074   3.082   3.267   7.788  0.5391  0.0780  0.0975
    9SAPS  H11A 1075   3.029   3.265   7.690  0.9743 -0.4335 -0.1335
    9SAPS  H11B 1076   3.056   3.174   7.843  2.8268 -1.1094 -0.7128
    9SAPS     P 1077   3.307   3.136   7.745  0.2002  0.2756 -0.1407
    9SAPS   O13 1078   3.444   3.166   7.700 -0.1702 -0.4804 -0.5019
    9SAPS   O14 1079   3.289   3.047   7.865 -0.1397 -0.4671  0.4450
    9SAPS   O12 1080   3.225   3.273   7.767  0.4477  0.5364  0.6496
    9SAPS   O11 1081   3.238   3.060   7.624 -0.3509 -0.2714 -0.1927
    9SAPS    C1 1082   3.205   3.111   7.500  0.4418 -0.0992  0.8939
    9SAPS    HA 1083   3.097   3.117   7.477  0.5963 -1.7280 -0.4090
    9SAPS    HB 1084   3.233   3.219   7.497  0.3177  0.0221  2.7920
    9SAPS    C2 1085   3.275   3.031   7.391  0.6906 -0.2317  0.4762
    9SAPS    HS 1086   3.290   3.098   7.304 -2.2655  0.7027  0.5995
    9SAPS   O21 1087   3.200   2.917   7.350 -0.2115  0.3859 -0.0012
    9SAPS   C21 1088   3.108   2.937   7.254  0.3800  0.7176  0.5551
    9SAPS   O22 1089   3.089   3.042   7.200 -0.6961 -0.1767  0.0422
    9SAPS   C22 1090   3.031   2.809   7.221 -0.1209  0.6012  0.5136
    9SAPS   H2R 1091   3.033   2.733   7.301  2.5166 -1.0987 -1.0086
    9SAPS   H2S 1092   2.922   2.827   7.225  0.1471  2.7010 -0.2214
    9SAPS    C3 1093   3.423   2.990   7.423  0.1642  0.0456 -0.6719
    9SAPS    HX 1094   3.421   2.910   7.500 -2.3601  1.2899  0.7001
    9SAPS    HY 1095   3.443   3.093   7.460 -3.4372  0.9471 -0.8111
    9SAPS   O31 1096   3.499   2.969   7.301  0.2380  0.7812 -0.0460
    9SAPS   C31 1097   3.519   2.836   7.273  0.4766 -0.4476 -0.6508
    9SAPS   O32 1098   3.468   2.747   7.344  0.1615  0.1713 -0.2221
    9SAPS   C32 1099   3.569   2.817   7.130 -0.0576  0.3377 -0.0293
    9SAPS   H2X 1100   3.565   2.707   7.111  0.4016  0.4706 -0.9638
    9SAPS   H2Y 1101   3.677   2.842   7.127  0.1775 -0.4765  0.9378
    9SAPS   C23 1102   3.084   2.747   7.089 -0.3569 -0.3117 -0.1734
    9SAPS   H3R 1103   3.033   2.657   7.050  2.0214 -1.1947 -1.4797
    9SAPS   H3S 1104   3.184   2.706   7.113 -0.8699 -1.8915 -0.6465
    9SAPS   C24 1105   3.097   2.848   6.974 -0.4358  0.2550  0.1823
    9SAPS   H4R 1106   3.135   2.781   6.894  2.1272 -0.0616  1.5822
    9SAPS   H4S 1107   3.154   2.941   6.994 -0.4907 -0.1057  2.2365
    9SAPS   C25 1108   2.954   2.893   6.949  0.6405 -0.3967  0.9771
    9SAPS   H5R 1109   2.899   2.932   7.037 -0.7130 -0.4351  0.1816
    9SAPS   C26 1110   2.888   2.889   6.824 -0.9298  0.4607  0.2300
    9SAPS   H6R 1111   2.788   2.936   6.824 -1.0968  0.1080  0.5309
    9SAPS   C27 1112   2.946   2.856   6.691  0.0523 -0.4401 -0.2570
    9SAPS   H7R 1113   2.935   2.746   6.684 -0.6165 -0.7002  3.2161
    9SAPS   H7S 1114   3.048   2.899   6.705 -1.2063  2.7481 -0.0162
    9SAPS   C28 1115   2.886   2.915   6.564  0.0954 -0.1724 -0.2934
    9SAPS   H8R 1116   2.778   2.939   6.560  0.2279  0.4366 -0.4015
    9SAPS   C29 1117   2.956   2.934   6.446 -0.0954 -0.7972 -0.5558
    9SAPS   H9R 1118   2.901   2.972   6.358 -0.4865  1.4011  0.5687
    9SAPS  C210 1119   3.100   2.916   6.429 -0.8236 -0.5633  0.0114
    9SAPS  H10R 1120   3.123   2.807   6.436  2.9349  0.0324 -1.1446
    9SAPS  H10S 1121   3.158   2.966   6.509 -1.9459  0.0604  0.4518
    9SAPS  C211 1122   3.152   2.963   6.294 -0.1977  0.0395 -1.1282
    9SAPS  H11R 1123   3.168   2.885   6.218  0.6079 -0.9992  0.0679
    9SAPS  C212 1124   3.174   3.088   6.252  1.1455 -0.5861 -0.0373
    9SAPS  H12R 1125   3.204   3.111   6.149  0.1368  2.0612  0.1702
    9SAPS  C213 1126   3.139   3.219   6.323 -0.6561 -0.3900  0.5022
    9SAPS  H13R 1127   3.105   3.216   6.429 -0.0954 -1.9970  0.6554
    9SAPS  H13S 1128   3.063   3.278   6.267  1.5821  1.0615 -1.1774
    9SAPS  C214 1129   3.264   3.301   6.336  0.2546 -0.9405  0.1108
    9SAPS  H14R 1130   3.329   3.269   6.419 -0.2592 -1.1002  0.4553
    9SAPS  C215 1131   3.305   3.403   6.261 -0.6711 -0.0497  0.2313
    9SAPS  H15R 1132   3.407   3.445   6.264 -0.5516 -0.0875 -1.8295
    9SAPS  C216 1133   3.238   3.454   6.138 -1.1837  0.2715 -0.1136
    9SAPS  H16R 1134   3.212   3.560   6.159 -1.0093  0.6352 -1.5996
    9SAPS  H16S 1135   3.146   3.393   6.131 -1.0815  0.1951 -0.9003
    9SAPS  C217 1136   3.321   3.448   6.011  0.2944 -0.2667 -0.2394
    9SAPS  H17R 1137   3.263   3.471   5.919  0.5380  3.1520  0.3152
    9SAPS  H17S 1138   3.364   3.346   6.011 -1.1159 -1.0078  2.8867
    9SAPS  C218 1139   3.443   3.544   6.003  0.6657 -0.1561 -0.0475
    9SAPS  H18R 1140   3.496   3.527   6.099 -1.0842 -1.2534  0.7648
    9SAPS  H18S 1141   3.404   3.647   5.997 -0.0890 -0.5045 -2.2621
    9SAPS  C219 1142   3.526   3.531   5.877 -0.4247  0.0134 -0.4726
    9SAPS  H19R 1143   3.627   3.568   5.903 -0.2337 -2.0280  2.0855
    9SAPS  H19S 1144   3.490   3.584   5.786  0.3604  1.0846 -0.1855
    9SAPS  C220 1145   3.565   3.382   5.855  0.3455 -0.2199  0.1612
    9SAPS  H20R 1146   3.585   3.338   5.955 -2.7755  0.0357  1.0075
    9SAPS  H20S 1147   3.644   3.378   5.777 -0.3189  0.5074 -0.5624
    9SAPS  H20T 1148   3.486   3.315   5.816 -1.4293  1.5129  0.6166
    9SAPS   C33 1149   3.479   2.885   7.029 -0.6978 -0.6439 -0.6772
    9SAPS   H3X 1150   3.516   2.990   7.029 -0.2980 -0.7822 -0.8781
    9SAPS   H3Y 1151   3.374   2.900   7.060 -0.3946 -0.2170  0.1717
    9SAPS   C34 1152   3.479   2.818   6.896 -0.7420 -0.0024 -0.4744
    9SAPS   H4X 1153   3.433   2.718   6.885  1.3264 -0.7653 -3.4396
    9SAPS   H4Y 1154   3.587   2.809   6.869 -0.7404  1.1834 -0.9456
    9SAPS   C35 1155   3.419   2.918   6.787 -0.2102 -0.0156 -0.0101
    9SAPS   H5X 1156   3.467   3.018   6.791 -1.8290  0.8075 -0.1765
    9SAPS   H5Y 1157   3.311   2.932   6.808 -0.0018  1.5209  0.1400
    9SAPS   C36 1158   3.424   2.860   6.644  0.1770  0.8638  0.0957
    9SAPS   H6X 1159   3.363   2.933   6.585 -0.1521  1.5564  1.2564
    9SAPS   H6Y 1160   3.370   2.763   6.646  1.3141  0.1897 -0.7098
    9SAPS   C37 1161   3.560   2.843   6.582  0.0232  0.1287  0.7132
    9SAPS   H7X 1162   3.632   2.788   6.647  0.7033  0.7546  0.5118
    9SAPS   H7Y 1163   3.618   2.938   6.572  2.6386 -1.4829 -0.7261
    9SAPS   C38 1164   3.539   2.783   6.440 -0.4063 -0.2857 -0.0514
    9SAPS   H8X 1165   3.466   2.840   6.379  0.4543  3.0973  1.8243
    9SAPS   H8Y 1166   3.493   2.685   6.466 -1.0468 -0.7609 -2.6681
    9SAPS   C39 1167   3.670   2.744   6.374  1.0224  0.6857  0.5002
    9SAPS   H9X 1168   3.719   2.675   6.446 -1.5455 -1.5919  0.2480
    9SAPS   H9Y 1169   3.728   2.837   6.357  1.5150  0.4222  0.7328
    9SAPS  C310 1170   3.645   2.677   6.234 -0.4703 -0.1131 -0.0225
    9SAPS  H10X 1171   3.573   2.746   6.186 -0.4597 -1.0349 -1.4298
    9SAPS  H10Y 1172   3.595   2.578   6.244 -0.2696 -0.0708  1.8200
    9SAPS  C311 1173   3.763   2.679   6.138 -0.4256 -0.7153  0.9181
    9SAPS  H11X 1174   3.800   2.784   6.136 -0.2659 -0.7797 -0.4803
    9SAPS  H11Y 1175   3.727   2.652   6.036 -0.2800 -0.4869  0.8055
    9SAPS  C312 1176   3.885   2.590   6.171  0.4162 -0.7892  0.4995
    9SAPS  H12X 1177   3.911   2.609   6.277  0.9725 -1.9316  0.5840
    9SAPS  H12Y 1178   3.972   2.626   6.112  1.4081 -2.6742  0.7482
    9SAPS  C313 1179   3.854   2.439   6.145  0.5263 -0.2145 -0.7778
    9SAPS  H13X 1180   3.803   2.447   6.047  0.1973 -0.2322 -0.6073
    9SAPS  H13Y 1181   3.773   2.412   6.216  0.9395 -1.1698 -0.6549
    9SAPS  C314 1182   3.974   2.339   6.142  0.2782  0.5908  0.4233
    9SAPS  H14X 1183   4.027   2.356   6.238 -0.0795  1.5182  0.4699
    9SAPS  H14Y 1184   4.039   2.363   6.055  0.2875 -2.7961 -0.6438
    9SAPS  C315 1185   3.940   2.196   6.126 -0.1533 -0.1780  0.1119
    9SAPS  H15X 1186   3.908   2.175   6.021 -1.8656 -0.5737  0.6722
    9SAPS  H15Y 1187   3.847   2.165   6.178  0.9123 -3.9698  0.0629
    9SAPS  C316 1188   4.040   2.093   6.162 -0.5179  0.0774 -0.5816
    9SAPS  H16X 1189   4.057   2.107   6.271 -1.4450 -0.7888 -0.3046
    9SAPS  H16Y 1190   4.142   2.115   6.125  0.0024  1.7905  1.6660
    9SAPS  C317 1191   3.991   1.953   6.139  0.6691  0.4987  0.1442
    9SAPS  H17X 1192   3.889   1.950   6.182  0.3739  2.2792 -0.3282
    9SAPS  H17Y 1193   4.051   1.877   6.193 -1.2943 -0.1108  1.6037
    9SAPS  C318 1194   3.990   1.915   5.992 -0.5720 -0.1967  0.0098
    9SAPS  H18X 1195   3.931   1.984   5.928 -0.5605 -1.5619 -1.5134
    9SAPS  H18Y 1196   3.953   1.812   5.977 -2.1835 -0.1582  3.0461
    9SAPS  H18Z 1197   4.092   1.916   5.947 -1.4379  0.6451 -2.0418
   10SAPS     N 1198   6.180   3.111   8.068 -0.2677  0.2603 -0.0079
   10SAPS   HN1 1199   6.247   3.123   8.147  0.0930  0.4414 -0.3354
   10SAPS   HN2 1200   6.135   3.018   8.082  1.4847 -0.5227  0.7921
   10SAPS   HN3 1201   6.246   3.105   7.988 -0.8995  2.3541 -0.7395
   10SAPS   C12 1202   6.093   3.228   8.048 -0.0213  0.4314 -0.6432
   10SAPS  H12A 1203   5.998   3.203   8.093 -0.1328  0.1066 -1.0511
   10SAPS   C13 1204   6.133   3.354   8.126 -0.4320 -0.2145  0.0299
   10SAPS  O13A 1205   6.219   3.341   8.217  0.2669 -0.1073  0.2590
   10SAPS  O13B 1206   6.056   3.455   8.122  0.3365  0.4625 -0.4416
   10SAPS   C11 1207   6.067   3.253   7.893 -0.3465 -0.7548  0.1593
   10SAPS  H11A 1208   6.158   3.289   7.839 -0.7653 -2.1884 -1.5830
   10SAPS  H11B 1209   5.999   3.341   7.886  0.2572 -0.3442 -0.6654
   10SAPS     P 1210   5.866   3.119   7.794  0.3546 -0.4222  0.1851
   10SAPS   O13 1211   5.852   3.002   7.709 -0.0341  0.4305  0.0811
   10SAPS   O14 1212   5.810   3.104   7.928  0.2386 -0.0815  0.1738
   10SAPS   O12 1213   6.019   3.145   7.815 -0.5574 -0.0833 -0.3378
   10SAPS   O11 1214   5.800   3.248   7.720  0.7968 -0.1350  0.1542
   10SAPS    C1 1215   5.881   3.309   7.622 -0.5526  0.1912  0.2685
   10SAPS    HA 1216   5.991   3.311   7.639 -0.3712 -0.6728 -0.6904
   10SAPS    HB 1217   5.869   3.264   7.521 -0.6999  0.3174  0.2294
   10SAPS    C2 1218   5.846   3.458   7.616 -0.5565 -0.3707  0.4811
   10SAPS    HS 1219   5.834   3.492   7.721  0.9795 -0.7098  0.7978
   10SAPS   O21 1220   5.725   3.479   7.542 -0.6969 -0.0398  0.6311
   10SAPS   C21 1221   5.665   3.588   7.567  0.1207 -0.5499 -0.1158
   10SAPS   O22 1222   5.690   3.681   7.641 -1.1000 -0.1422  0.5033
   10SAPS   C22 1223   5.533   3.565   7.497  0.2005  0.6273 -0.2846
   10SAPS   H2R 1224   5.548   3.532   7.391 -0.3703  0.5818 -0.3556
   10SAPS   H2S 1225   5.485   3.482   7.552 -0.6057  3.0094  2.8553
   10SAPS    C3 1226   5.973   3.536   7.557 -0.4671 -0.3645 -0.3796
   10SAPS    HX 1227   6.053   3.528   7.633 -0.9403 -1.4902  0.0135
   10SAPS    HY 1228   5.945   3.643   7.542 -0.6058 -0.0145  2.0463
   10SAPS   O31 1229   6.017   3.477   7.430  0.7778 -0.3708 -0.2421
   10SAPS   C31 1230   6.084   3.562   7.352  0.5040  0.1059 -0.0599
   10SAPS   O32 1231   6.107   3.681   7.380  0.7977  0.4832 -0.2089
   10SAPS   C32 1232   6.123   3.495   7.226  0.8703  1.1630  0.1977
   10SAPS   H2X 1233   6.057   3.406   7.215  1.0654  1.1191 -0.7716
   10SAPS   H2Y 1234   6.231   3.470   7.226  0.4558 -0.8367  2.0654
   10SAPS   C23 1235   5.432   3.684   7.496 -0.5743  0.0967 -0.3903
   10SAPS   H3R 1236   5.495   3.775   7.486  0.6408 -0.6519  0.2158
   10SAPS   H3S 1237   5.382   3.694   7.595 -2.1381  0.3942 -1.1736
   10SAPS   C24 1238   5.334   3.663   7.383 -0.6521  0.2355 -0.5962
   10SAPS   H4R 1239   5.315   3.553   7.388  2.3348 -0.3662 -0.7596
   10SAPS   H4S 1240   5.381   3.692   7.287 -0.7605  0.6954 -0.5123
   10SAPS   C25 1241   5.209   3.740   7.389 -0.6104  0.5490 -0.9429
   10SAPS   H5R 1242   5.150   3.718   7.480  0.6759 -0.1034 -0.2388
   10SAPS   C26 1243   5.167   3.831   7.304 -0.5771  0.0948  0.4054
   10SAPS   H6R 1244   5.074   3.883   7.330 -0.9314 -0.3263 -0.0158
   10SAPS   C27 1245   5.243   3.890   7.186  0.2680 -0.3989  0.3466
   10SAPS   H7R 1246   5.351   3.873   7.204  0.0468 -1.2288  0.9411
   10SAPS   H7S 1247   5.224   3.999   7.173  0.4955 -0.2855  0.9288
   10SAPS   C28 1248   5.197   3.830   7.053 -0.1412  0.2919  0.2108
   10SAPS   H8R 1249   5.097   3.784   7.045  0.1615 -0.0512 -2.2177
   10SAPS   C29 1250   5.272   3.835   6.940  0.5455 -0.4093  0.2141
   10SAPS   H9R 1251   5.227   3.803   6.845  0.9259 -1.6495  0.4328
   10SAPS  C210 1252   5.405   3.900   6.928  0.6255  0.3098 -0.1692
   10SAPS  H10R 1253   5.466   3.851   6.849  0.0794 -1.0143  0.2051
   10SAPS  H10S 1254   5.473   3.867   7.010 -0.6404  0.3482  0.9309
   10SAPS  C211 1255   5.414   4.055   6.910 -0.0457  0.2976  0.2501
   10SAPS  H11R 1256   5.432   4.107   7.005  1.0144 -1.6709  1.1993
   10SAPS  C212 1257   5.423   4.126   6.797  0.3118 -0.0093  0.7084
   10SAPS  H12R 1258   5.410   4.236   6.800  2.1952  0.3470 -1.4093
   10SAPS  C213 1259   5.415   4.068   6.654 -0.7469 -0.2685 -0.2169
   10SAPS  H13R 1260   5.405   3.958   6.647 -0.3573 -0.2821 -0.6008
   10SAPS  H13S 1261   5.507   4.076   6.593 -0.7639 -0.7404 -0.3053
   10SAPS  C214 1262   5.308   4.141   6.570  0.7738 -0.2679  0.0710
   10SAPS  H14R 1263   5.229   4.194   6.624  0.9145 -0.4864  0.4927
   10SAPS  C215 1264   5.298   4.122   6.439  0.4318 -0.5097 -0.7778
   10SAPS  H15R 1265   5.223   4.177   6.381 -0.8823 -0.0651  1.2111
   10SAPS  C216 1266   5.380   4.032   6.358 -0.7131  0.0497 -0.3028
   10SAPS  H16R 1267   5.431   3.957   6.422  0.1016  0.3675 -0.5702
   10SAPS  H16S 1268   5.465   4.089   6.314  0.9424 -3.2026 -1.7328
   10SAPS  C217 1269   5.297   3.964   6.252 -0.7644  0.2996 -0.7456
   10SAPS  H17R 1270   5.196   3.934   6.288 -0.6631 -0.4486 -1.0600
   10SAPS  H17S 1271   5.352   3.867   6.250  2.6152  1.9161  1.8946
   10SAPS  C218 1272   5.301   4.021   6.108 -0.1721 -0.3804  0.2090
   10SAPS  H18R 1273   5.208   3.988   6.057 -1.8153  1.4894  1.7923
   10SAPS  H18S 1274   5.399   3.992   6.065  0.4461  1.4666  0.2860
   10SAPS  C219 1275   5.289   4.176   6.099 -0.0895  0.4148 -0.5634
   10SAPS  H19R 1276   5.369   4.216   6.166 -1.4133  1.0184  0.7132
   10SAPS  H19S 1277   5.195   4.216   6.142 -0.8152  1.5921 -3.0911
   10SAPS  C220 1278   5.293   4.222   5.954 -0.6673 -0.7182  0.4273
   10SAPS  H20R 1279   5.197   4.207   5.900 -0.1323 -0.0168 -0.7580
   10SAPS  H20S 1280   5.378   4.176   5.899 -1.4308 -0.7397 -0.7671
   10SAPS  H20T 1281   5.317   4.330   5.953 -1.0540 -0.6206  1.1616
   10SAPS   C33 1282   6.111   3.577   7.090 -0.0180 -0.2253  0.3230
   10SAPS   H3X 1283   6.184   3.659   7.106 -0.1176 -0.7126  4.5898
   10SAPS   H3Y 1284   6.009   3.618   7.075 -0.0744 -0.1519  0.8584
   10SAPS   C34 1285   6.163   3.497   6.962  0.1690 -0.2963 -0.2317
   10SAPS   H4X 1286   6.085   3.424   6.930 -0.5303 -1.4495  3.5531
   10SAPS   H4Y 1287   6.255   3.444   6.995 -0.3835 -1.1185  0.0215
   10SAPS   C35 1288   6.188   3.578   6.835 -0.3283 -0.2871  1.1203
   10SAPS   H5X 1289   6.269   3.651   6.857  0.9352 -0.7281 -1.6289
   10SAPS   H5Y 1290   6.101   3.641   6.807  1.1697  1.6800  0.6393
   10SAPS   C36 1291   6.223   3.489   6.711 -0.7352  0.6420 -0.5352
   10SAPS   H6X 1292   6.128   3.438   6.687 -0.4455  0.6348 -1.6957
   10SAPS   H6Y 1293   6.302   3.414   6.738 -0.0868  1.9724  1.5499
   10SAPS   C37 1294   6.266   3.580   6.594 -0.1119 -0.5121 -0.4077
   10SAPS   H7X 1295   6.340   3.513   6.545  1.0297  0.0525  0.4868
   10SAPS   H7Y 1296   6.310   3.668   6.645  1.2051 -0.2341 -1.9191
   10SAPS   C38 1297   6.160   3.614   6.490 -0.1185  1.3221  0.0513
   10SAPS   H8X 1298   6.076   3.678   6.524 -1.5480 -0.7090  0.5315
   10SAPS   H8Y 1299   6.107   3.523   6.454  1.0166 -0.8122  3.4248
   10SAPS   C39 1300   6.229   3.686   6.371 -0.2213  0.0488  0.3383
   10SAPS   H9X 1301   6.268   3.786   6.400  1.1424 -0.1417 -0.7461
   10SAPS   H9Y 1302   6.146   3.707   6.301 -0.2499 -4.7298 -1.4260
   10SAPS  C310 1303   6.325   3.611   6.279  0.4626 -0.3039 -0.4591
   10SAPS  H10X 1304   6.272   3.516   6.255  0.6780 -0.7647  0.8287
   10SAPS  H10Y 1305   6.414   3.581   6.339 -1.6649  0.3061  3.2840
   10SAPS  C311 1306   6.350   3.695   6.157 -0.3393  0.3826 -0.4766
   10SAPS  H11X 1307   6.432   3.766   6.177 -1.2719  0.8332  2.1802
   10SAPS  H11Y 1308   6.264   3.763   6.135  0.6477  1.5402 -0.8302
   10SAPS  C312 1309   6.362   3.611   6.032 -0.0030 -0.3352  0.5309
   10SAPS  H12X 1310   6.278   3.539   6.037 -1.7019  1.5148  5.2533
   10SAPS  H12Y 1311   6.457   3.555   6.025  0.6936  1.0300 -2.1201
   10SAPS  C313 1312   6.324   3.684   5.903 -0.1457 -0.6807 -0.1900
   10SAPS  H13X 1313   6.393   3.765   5.872 -0.4870 -0.1710  0.3733
   10SAPS  H13Y 1314   6.232   3.741   5.928 -0.3871 -0.9252 -0.4945
   10SAPS  C314 1315   6.294   3.594   5.784  0.0859  0.4009 -0.2769
   10SAPS  H14X 1316   6.215   3.638   5.720 -0.3728 -0.1845 -0.1191
   10SAPS  H14Y 1317   6.239   3.505   5.821  0.5673  0.6275  1.0564
   10SAPS  C315 1318   6.416   3.558   5.695 -0.7368 -0.1863  0.1980
   10SAPS  H15X 1319   6.493   3.518   5.765 -1.5794  0.6454  1.6497
   10SAPS  H15Y 1320   6.465   3.645   5.647 -1.9612  0.6955  0.4865
   10SAPS  C316 1321   6.386   3.455   5.578  0.5055 -0.4169 -0.2379
   10SAPS  H16X 1322   6.356   3.356   5.618 -1.9707  0.4692  0.2853
   10SAPS  H16Y 1323   6.475   3.438   5.513 -0.4893 -1.5915 -1.3533
   10SAPS  C317 1324   6.284   3.521   5.489  0.0088  0.3674  0.8731
   10SAPS  H17X 1325   6.305   3.629   5.475  1.5263 -0.1332 -1.2173
   10SAPS  H17Y 1326   6.180   3.518   5.527 -0.0184  1.3511  0.9126
   10SAPS  C318 1327   6.285   3.460   5.346  1.0406  0.0432  0.3393
   10SAPS  H18X 1328   6.206   3.512   5.287  1.1506  1.3347  1.2778
   10SAPS  H18Y 1329   6.256   3.353   5.351  0.2481  0.2808  1.1073
   10SAPS  H18Z 1330   6.387   3.471   5.304  0.4217 -0.6644 -1.4505
   11SAPS     N 1331   4.443   2.456   3.397 -0.0505 -0.0406  0.0992
   11SAPS   HN1 1332   4.483   2.521   3.326  1.9266 -1.0561  0.2060
   11SAPS   HN2 1333   4.407   2.516   3.473 -1.0462 -0.3684 -0.0952
   11SAPS   HN3 1334   4.521   2.393   3.426  1.2830  0.3933 -2.2163
   11SAPS   C12 1335   4.329   2.378   3.332 -0.7807  0.3472 -0.6422
   11SAPS  H12A 1336   4.242   2.442   3.330 -0.6315  0.5702 -0.1459
   11SAPS   C13 1337   4.353   2.336   3.181 -0.4135 -0.1862 -0.9422
   11SAPS  O13A 1338   4.462   2.369   3.128 -0.4818 -0.0616  0.4510
   11SAPS  O13B 1339   4.261   2.273   3.119 -0.3994 -0.0568  0.0660
   11SAPS   C11 1340   4.279   2.264   3.422 -0.1048 -0.2203  0.3903
   11SAPS  H11A 1341   4.200   2.211   3.366  1.6664 -0.8017 -1.6832
   11SAPS  H11B 1342   4.229   2.329   3.497 -0.3404  1.6155 -1.2690
   11SAPS     P 1343   4.345   2.025   3.526 -0.3301  0.0934  0.6212
   11SAPS   O13 1344   4.355   1.938   3.404  0.4630  0.1179 -0.3298
   11SAPS   O14 1345   4.438   1.990   3.637  0.1259 -0.2521  0.3958
   11SAPS   O12 1346   4.376   2.174   3.479  0.0932  0.1971 -0.2300
   11SAPS   O11 1347   4.201   2.050   3.578  0.5410  0.2554  0.0933
   11SAPS    C1 1348   4.179   2.120   3.705 -0.1518  0.0399  0.2740
   11SAPS    HA 1349   4.239   2.213   3.714 -0.8891  0.4203  1.6843
   11SAPS    HB 1350   4.079   2.168   3.694  1.1265  2.6494 -0.7752
   11SAPS    C2 1351   4.178   2.035   3.835 -0.6743  0.0502 -0.6158
   11SAPS    HS 1352   4.274   1.980   3.843 -1.2999 -0.9606  0.0777
   11SAPS   O21 1353   4.066   1.950   3.834 -0.2431 -0.7167 -0.4292
   11SAPS   C21 1354   4.085   1.826   3.868  0.2545 -0.4424 -0.3554
   11SAPS   O22 1355   4.182   1.769   3.916 -0.0725 -0.0901 -0.2842
   11SAPS   C22 1356   3.955   1.750   3.822 -0.3869  0.8037  0.1178
   11SAPS   H2R 1357   3.971   1.739   3.713 -1.1571 -1.7803  0.1834
   11SAPS   H2S 1358   3.957   1.648   3.867  1.3971  1.1327  0.8788
   11SAPS    C3 1359   4.173   2.134   3.963  0.3248  0.1409  0.6542
   11SAPS    HX 1360   4.080   2.191   3.946  0.4019  0.7884  2.2360
   11SAPS    HY 1361   4.257   2.207   3.962 -0.4685  1.0925  1.5319
   11SAPS   O31 1362   4.151   2.062   4.082  0.5792 -0.1873  0.0730
   11SAPS   C31 1363   4.258   2.009   4.141  0.3921 -0.5028  0.2983
   11SAPS   O32 1364   4.371   2.025   4.105 -0.5068 -0.2557 -0.1431
   11SAPS   C32 1365   4.214   1.936   4.266  0.0214 -0.1194  0.0090
   11SAPS   H2X 1366   4.225   1.827   4.246  0.1490 -0.6507  2.5424
   11SAPS   H2Y 1367   4.109   1.959   4.292  0.2447  0.5399  0.3584
   11SAPS   C23 1368   3.818   1.826   3.831 -0.2520  0.3869 -0.1918
   11SAPS   H3R 1369   3.739   1.765   3.782  2.6668 -1.5957 -2.7548
   11SAPS   H3S 1370   3.823   1.920   3.772  1.7542  0.5618  0.1843
   11SAPS   C24 1371   3.773   1.865   3.977  0.4872  0.6848  0.1699
   11SAPS   H4R 1372   3.675   1.913   3.957  0.7922  1.6227  0.8175
   11SAPS   H4S 1373   3.840   1.948   4.009  1.2952  1.1121 -2.3622
   11SAPS   C25 1374   3.749   1.742   4.063 -0.5285 -0.1241  0.1998
   11SAPS   H5R 1375   3.701   1.659   4.010 -0.2766  0.6919 -1.3937
   11SAPS   C26 1376   3.782   1.719   4.193 -1.1320  0.4496  0.3225
   11SAPS   H6R 1377   3.748   1.625   4.240  2.4590 -2.2685 -1.9574
   11SAPS   C27 1378   3.877   1.802   4.265 -0.2112  0.1435  0.1361
   11SAPS   H7R 1379   3.896   1.899   4.214 -2.2043 -0.3450 -1.6769
   11SAPS   H7S 1380   3.970   1.742   4.278  0.3741  1.2340  1.2291
   11SAPS   C28 1381   3.830   1.835   4.407 -0.3982  1.0325  0.4589
   11SAPS   H8R 1382   3.801   1.940   4.424 -0.6114  1.5785 -2.6293
   11SAPS   C29 1383   3.825   1.751   4.516  0.1067  0.2056  0.4986
   11SAPS   H9R 1384   3.784   1.803   4.604  2.3332  1.8911  0.6202
   11SAPS  C210 1385   3.857   1.605   4.526 -0.1005 -0.5369  0.1337
   11SAPS  H10R 1386   3.836   1.553   4.430 -1.9850 -0.6413  0.5569
   11SAPS  H10S 1387   3.780   1.564   4.596 -0.3118  0.2313  0.3569
   11SAPS  C211 1388   3.994   1.565   4.584  0.3559  0.2393 -0.2585
   11SAPS  H11R 1389   4.053   1.519   4.503 -2.5899 -1.3196 -1.7055
   11SAPS  C212 1390   4.040   1.584   4.712 -0.3660  0.1510 -0.7952
   11SAPS  H12R 1391   4.140   1.551   4.744 -1.0124  0.3532  1.6302
   11SAPS  C213 1392   3.961   1.641   4.830 -0.5362 -0.0968 -0.3629
   11SAPS  H13R 1393   3.906   1.553   4.871 -0.9011 -0.3603 -1.3785
   11SAPS  H13S 1394   3.891   1.712   4.781 -0.5482  1.5461  1.8796
   11SAPS  C214 1395   4.026   1.731   4.935  0.0466  0.5100  0.3386
   11SAPS  H14R 1396   4.077   1.818   4.891  1.8832  0.9256  3.0157
   11SAPS  C215 1397   4.019   1.717   5.072 -0.7608 -0.0281 -0.1881
   11SAPS  H15R 1398   4.073   1.799   5.123  1.3262 -2.0112  0.9865
   11SAPS  C216 1399   3.945   1.616   5.156  0.4331  0.2991 -0.0027
   11SAPS  H16R 1400   3.987   1.587   5.254 -1.9815 -3.1474  0.1975
   11SAPS  H16S 1401   3.948   1.523   5.094 -0.9142  0.6856 -0.6818
   11SAPS  C217 1402   3.799   1.658   5.174 -0.6350  0.0353  0.4593
   11SAPS  H17R 1403   3.760   1.662   5.070  0.4743  0.0734  0.0285
   11SAPS  H17S 1404   3.792   1.764   5.207 -1.2376  0.4863 -1.0505
   11SAPS  C218 1405   3.724   1.580   5.280 -0.0050  0.5469  0.8241
   11SAPS  H18R 1406   3.771   1.579   5.381  3.3223 -1.6536 -0.5834
   11SAPS  H18S 1407   3.721   1.475   5.243  3.2166  0.9219 -0.8023
   11SAPS  C219 1408   3.581   1.631   5.301 -0.0046 -0.2584  0.2220
   11SAPS  H19R 1409   3.584   1.742   5.287 -1.0294 -0.3667 -0.9918
   11SAPS  H19S 1410   3.543   1.606   5.402  0.9233 -1.5893  0.2614
   11SAPS  C220 1411   3.486   1.556   5.206 -0.2987 -0.4650 -0.6491
   11SAPS  H20R 1412   3.509   1.576   5.099 -1.1366 -0.0935 -0.7700
   11SAPS  H20S 1413   3.383   1.593   5.226  0.2141  0.7013 -0.0797
   11SAPS  H20T 1414   3.486   1.450   5.238 -0.2681 -0.2920 -0.0688
   11SAPS   C33 1415   4.299   1.971   4.387 -0.5870 -0.2426  0.2939
   11SAPS   H3X 1416   4.324   2.079   4.397 -1.9860  0.5320 -3.2925
   11SAPS   H3Y 1417   4.401   1.931   4.370 -0.1413  0.0854  1.9636
   11SAPS   C34 1418   4.242   1.910   4.515  0.3749  0.3345  0.2375
   11SAPS   H4X 1419   4.201   1.807   4.501  0.0038  0.3592  1.1249
   11SAPS   H4Y 1420   4.157   1.964   4.561 -0.6345  0.7696 -2.0066
   11SAPS   C35 1421   4.350   1.890   4.623  0.1394 -0.4176 -0.4733
   11SAPS   H5X 1422   4.312   1.859   4.723  1.5867  0.0776  0.2669
   11SAPS   H5Y 1423   4.414   1.979   4.643 -0.8309  0.3837 -0.8532
   11SAPS   C36 1424   4.443   1.768   4.580 -0.3262  0.2056 -0.2557
   11SAPS   H6X 1425   4.514   1.791   4.497 -0.2895  1.7197  0.1658
   11SAPS   H6Y 1426   4.374   1.695   4.531  1.8035 -2.4110  0.3991
   11SAPS   C37 1427   4.514   1.694   4.690 -0.8408  0.4184  0.0246
   11SAPS   H7X 1428   4.559   1.766   4.761 -1.0704 -0.7467  1.4112
   11SAPS   H7Y 1429   4.605   1.649   4.643  0.0829  1.0811  1.1305
   11SAPS   C38 1430   4.429   1.593   4.763  0.7968  0.2601 -0.2297
   11SAPS   H8X 1431   4.370   1.534   4.689  0.6641 -1.5794  1.2788
   11SAPS   H8Y 1432   4.357   1.646   4.829  2.4966  0.7668  1.3135
   11SAPS   C39 1433   4.512   1.498   4.847  0.9743  0.0036  0.2290
   11SAPS   H9X 1434   4.590   1.455   4.781  0.2953 -0.2518 -0.4284
   11SAPS   H9Y 1435   4.450   1.415   4.887  0.0579  1.2327  1.4692
   11SAPS  C310 1436   4.587   1.562   4.958 -0.2977 -0.2187 -0.4787
   11SAPS  H10X 1437   4.510   1.616   5.018 -1.4608  0.9348 -2.8702
   11SAPS  H10Y 1438   4.655   1.639   4.915 -1.4023  1.8627  1.2799
   11SAPS  C311 1439   4.656   1.456   5.039  0.0910  0.3751 -0.2594
   11SAPS  H11X 1440   4.722   1.385   4.985  0.1334  0.9905 -1.0544
   11SAPS  H11Y 1441   4.583   1.393   5.094 -1.0319  0.0608 -2.0277
   11SAPS  C312 1442   4.755   1.512   5.149 -0.1805 -0.2554 -0.3855
   11SAPS  H12X 1443   4.709   1.573   5.230  2.5669 -0.1941  1.2807
   11SAPS  H12Y 1444   4.829   1.580   5.103 -0.5758 -0.2586 -1.0377
   11SAPS  C313 1445   4.825   1.410   5.242  0.5556  0.9150 -0.3791
   11SAPS  H13X 1446   4.886   1.338   5.184 -1.5930  0.4808 -2.2412
   11SAPS  H13Y 1447   4.737   1.355   5.281  1.9503 -0.7644  0.4994
   11SAPS  C314 1448   4.907   1.475   5.348  0.2427  0.1751 -0.8349
   11SAPS  H14X 1449   4.838   1.541   5.404  0.9119  0.2333 -0.0599
   11SAPS  H14Y 1450   4.980   1.541   5.296  0.4423 -0.0759 -0.8783
   11SAPS  C315 1451   4.975   1.382   5.454  0.1023 -0.1637  0.0020
   11SAPS  H15X 1452   5.060   1.332   5.403  0.9887  0.7582  0.5365
   11SAPS  H15Y 1453   4.898   1.306   5.479  1.5792 -1.7656 -0.1819
   11SAPS  C316 1454   5.015   1.453   5.591  0.5991  0.1971  0.3857
   11SAPS  H16X 1455   4.966   1.397   5.673 -0.0660 -1.4295 -1.0566
   11SAPS  H16Y 1456   4.989   1.561   5.593  0.8628  0.2612  2.1546
   11SAPS  C317 1457   5.162   1.441   5.624 -1.0272  0.1249 -1.0298
   11SAPS  H17X 1458   5.187   1.333   5.629  0.4981  0.4840  0.5894
   11SAPS  H17Y 1459   5.186   1.483   5.724  0.6887  1.9506 -2.1340
   11SAPS  C318 1460   5.263   1.502   5.536 -0.7652  0.5022  0.7238
   11SAPS  H18X 1461   5.254   1.471   5.429 -0.1172  0.2193  0.7505
   11SAPS  H18Y 1462   5.366   1.490   5.574 -0.0386  3.3379 -0.0806
   11SAPS  H18Z 1463   5.243   1.612   5.538  0.3754  0.7170  0.9428
   12SAPS     N 1464   4.283   1.555   2.996  0.0411  0.0316  0.4901
   12SAPS   HN1 1465   4.368   1.613   3.013  0.0678  0.8229 -1.9387
   12SAPS   HN2 1466   4.252   1.586   2.901  2.3524  0.9023 -0.0414
   12SAPS   HN3 1467   4.213   1.581   3.068 -0.1242 -0.8037  0.6373
   12SAPS   C12 1468   4.300   1.402   2.988  0.5878 -0.5353 -0.5592
   12SAPS  H12A 1469   4.227   1.363   2.918 -0.7251 -1.5274  1.2784
   12SAPS   C13 1470   4.436   1.363   2.939  0.0979 -0.1722  0.4904
   12SAPS  O13A 1471   4.523   1.456   2.929  0.2933 -0.2111 -0.2846
   12SAPS  O13B 1472   4.461   1.250   2.898  0.4808  0.2260 -0.1554
   12SAPS   C11 1473   4.267   1.335   3.126  1.4119  0.3027 -0.5480
   12SAPS  H11A 1474   4.340   1.381   3.196 -1.8437  2.8630  1.4936
   12SAPS  H11B 1475   4.301   1.231   3.113  1.8102  0.0618  1.8864
   12SAPS     P 1476   4.085   1.458   3.274  0.6980 -0.0822 -0.0215
   12SAPS   O13 1477   4.126   1.590   3.220  0.4680 -0.4036  0.0706
   12SAPS   O14 1478   3.941   1.454   3.304  0.1134 -0.2092  0.2804
   12SAPS   O12 1479   4.125   1.351   3.168  0.1767 -0.3044  0.4081
   12SAPS   O11 1480   4.172   1.432   3.407 -0.5812  0.0834 -0.0477
   12SAPS    C1 1481   4.189   1.293   3.449  0.3606  0.0528 -0.0377
   12SAPS    HA 1482   4.152   1.221   3.373  1.1970  1.5739 -1.9665
   12SAPS    HB 1483   4.297   1.280   3.474  0.3405  0.7546  0.4218
   12SAPS    C2 1484   4.116   1.276   3.576 -0.4119  0.2370  0.8841
   12SAPS    HS 1485   4.007   1.295   3.569 -0.2975  0.4310 -1.1277
   12SAPS   O21 1486   4.181   1.354   3.679  0.1352 -0.4772  0.9667
   12SAPS   C21 1487   4.091   1.398   3.768  0.0153  0.0653 -0.2152
   12SAPS   O22 1488   3.978   1.428   3.740  0.2518 -0.1717 -0.0777
   12SAPS   C22 1489   4.152   1.409   3.905 -0.7399 -0.6666 -1.0284
   12SAPS   H2R 1490   4.238   1.339   3.907 -2.2730 -2.6691  1.6507
   12SAPS   H2S 1491   4.191   1.513   3.917  1.7221 -1.5777 -0.5067
   12SAPS    C3 1492   4.128   1.122   3.614  0.1073  0.7492 -0.4533
   12SAPS    HX 1493   4.239   1.111   3.618 -0.0517 -0.6703  1.0236
   12SAPS    HY 1494   4.076   1.070   3.531 -1.3767  3.6113 -1.4486
   12SAPS   O31 1495   4.056   1.092   3.738 -0.4265  0.5073  0.3725
   12SAPS   C31 1496   4.021   0.959   3.746 -0.2958 -0.8206 -0.3674
   12SAPS   O32 1497   4.062   0.882   3.665  0.0014  0.5316  0.2545
   12SAPS   C32 1498   3.937   0.927   3.873 -0.4528  0.0356 -0.1196
   12SAPS   H2X 1499   3.827   0.919   3.863 -0.3575 -0.8782 -0.5940
   12SAPS   H2Y 1500   3.968   0.994   3.956  0.6964  0.6150 -0.9846
   12SAPS   C23 1501   4.058   1.371   4.026 -0.6725  0.0032  0.1917
   12SAPS   H3R 1502   4.009   1.273   4.007 -2.5863  0.9800 -0.2573
   12SAPS   H3S 1503   3.971   1.440   4.035 -1.3129 -1.0031  1.9465
   12SAPS   C24 1504   4.141   1.361   4.159 -0.1247 -0.0347 -0.2093
   12SAPS   H4R 1505   4.216   1.280   4.149 -0.3435 -0.2781  0.0748
   12SAPS   H4S 1506   4.071   1.319   4.235 -0.7647  1.9085  0.3256
   12SAPS   C25 1507   4.198   1.484   4.221 -0.7382 -0.2305  0.0247
   12SAPS   H5R 1508   4.149   1.578   4.193  0.9576  0.9424  0.8216
   12SAPS   C26 1509   4.296   1.501   4.312  0.0635 -0.4987  0.1335
   12SAPS   H6R 1510   4.328   1.606   4.323 -2.3782  0.3778 -0.4598
   12SAPS   C27 1511   4.375   1.394   4.371  0.0731 -0.5875 -0.6517
   12SAPS   H7R 1512   4.401   1.316   4.297  1.0105  0.8965 -1.9630
   12SAPS   H7S 1513   4.314   1.348   4.451 -0.5378  0.8781 -0.2281
   12SAPS   C28 1514   4.510   1.425   4.437  0.2960  0.0640  0.3603
   12SAPS   H8R 1515   4.513   1.443   4.546  0.8181 -0.8891  0.5122
   12SAPS   C29 1516   4.632   1.423   4.379  0.2886  0.4419 -0.0177
   12SAPS   H9R 1517   4.725   1.427   4.438  1.0545  2.3734 -1.2517
   12SAPS  C210 1518   4.644   1.398   4.226  0.1893 -0.4304 -0.3476
   12SAPS  H10R 1519   4.562   1.444   4.167 -1.7944 -2.1838  0.9080
   12SAPS  H10S 1520   4.639   1.288   4.207 -1.4758 -0.6782  1.2015
   12SAPS  C211 1521   4.777   1.445   4.179  0.2138 -0.0231  0.4214
   12SAPS  H11R 1522   4.788   1.553   4.161  1.3531  0.0831  1.6116
   12SAPS  C212 1523   4.888   1.378   4.152  0.0731 -0.0432 -0.0259
   12SAPS  H12R 1524   4.979   1.429   4.117  0.2194  0.7643  1.4318
   12SAPS  C213 1525   4.912   1.234   4.182 -0.2501 -0.2695 -1.2063
   12SAPS  H13R 1526   4.954   1.188   4.090  1.3697  1.9914 -1.6591
   12SAPS  H13S 1527   4.819   1.183   4.215 -0.9161  1.6271  0.0002
   12SAPS  C214 1528   5.038   1.210   4.266  0.2171 -0.0091 -0.0826
   12SAPS  H14R 1529   5.130   1.230   4.210 -0.4217 -0.0842 -1.2062
   12SAPS  C215 1530   5.047   1.141   4.379 -0.2963 -0.0585 -0.2622
   12SAPS  H15R 1531   5.143   1.135   4.433 -0.2240  0.7169 -0.2973
   12SAPS  C216 1532   4.942   1.067   4.453  0.5304 -0.0559  0.5232
   12SAPS  H16R 1533   4.989   0.987   4.514  3.4073  0.8928 -0.3231
   12SAPS  H16S 1534   4.864   1.025   4.385 -1.2525  1.9811  1.2078
   12SAPS  C217 1535   4.864   1.159   4.552 -0.0164 -0.2672 -0.9719
   12SAPS  H17R 1536   4.780   1.103   4.597  0.2379 -1.7184 -2.2019
   12SAPS  H17S 1537   4.811   1.235   4.491  1.5933  1.3485 -0.4229
   12SAPS  C218 1538   4.945   1.232   4.662  0.8319  0.3354 -0.7498
   12SAPS  H18R 1539   5.015   1.297   4.607 -1.0034  2.5855 -0.5803
   12SAPS  H18S 1540   4.998   1.167   4.736 -0.2732  0.5920  0.3000
   12SAPS  C219 1541   4.866   1.320   4.755  0.4365  0.0229 -0.2534
   12SAPS  H19R 1542   4.821   1.256   4.835 -0.8694  1.1622 -0.0466
   12SAPS  H19S 1543   4.788   1.371   4.695 -1.4304 -2.0973  0.2094
   12SAPS  C220 1544   4.953   1.425   4.824 -0.1824  0.4598  0.3892
   12SAPS  H20R 1545   4.909   1.514   4.872  0.0102  1.4605 -1.2051
   12SAPS  H20S 1546   5.019   1.465   4.743 -0.7828 -0.3408 -0.5192
   12SAPS  H20T 1547   5.018   1.368   4.894 -0.2292  0.6382  0.5766
   12SAPS   C33 1548   3.962   0.780   3.928  0.3835 -0.2756  0.2669
   12SAPS   H3X 1549   4.072   0.764   3.938  0.5115 -0.4991 -1.2360
   12SAPS   H3Y 1550   3.919   0.703   3.861  0.2469  1.3334 -1.5863
   12SAPS   C34 1551   3.877   0.768   4.059 -0.3681  0.0631 -1.0064
   12SAPS   H4X 1552   3.843   0.662   4.056  0.5175 -0.3178  1.1221
   12SAPS   H4Y 1553   3.778   0.819   4.066 -0.3644 -0.2153  2.8309
   12SAPS   C35 1554   3.967   0.785   4.183 -0.3709 -0.0258 -0.6020
   12SAPS   H5X 1555   4.015   0.884   4.182  1.5531 -0.8742  1.3810
   12SAPS   H5Y 1556   4.040   0.706   4.155 -0.0733  0.3676 -0.9435
   12SAPS   C36 1557   3.885   0.762   4.306  0.1080 -0.3440 -0.4067
   12SAPS   H6X 1558   3.803   0.690   4.284  0.0924 -0.9228  1.3748
   12SAPS   H6Y 1559   3.835   0.858   4.330 -0.0428 -0.3256 -0.7923
   12SAPS   C37 1560   3.968   0.718   4.422 -0.0886  1.3413 -0.4853
   12SAPS   H7X 1561   4.068   0.765   4.439  0.4626 -0.7908  3.4806
   12SAPS   H7Y 1562   3.989   0.610   4.407  0.2084  1.0619  1.6015
   12SAPS   C38 1563   3.892   0.708   4.555 -0.9456  0.1957 -0.3452
   12SAPS   H8X 1564   3.809   0.638   4.533 -0.9392  0.6899 -2.0273
   12SAPS   H8Y 1565   3.851   0.806   4.587 -0.7798 -0.5755  2.6045
   12SAPS   C39 1566   3.977   0.647   4.671  0.2808 -0.5808 -0.1526
   12SAPS   H9X 1567   4.053   0.725   4.690 -1.2676  0.9251  0.1289
   12SAPS   H9Y 1568   4.033   0.560   4.629  3.3361  0.5437  1.3189
   12SAPS  C310 1569   3.881   0.615   4.788 -0.2644 -0.8400  0.1632
   12SAPS  H10X 1570   3.817   0.530   4.756 -1.1580  0.2570 -1.0930
   12SAPS  H10Y 1571   3.801   0.691   4.799  0.4532 -0.3208  2.2668
   12SAPS  C311 1572   3.960   0.591   4.918 -0.8010 -0.5009  0.2524
   12SAPS  H11X 1573   4.027   0.673   4.952  1.1872 -1.2716 -1.6044
   12SAPS  H11Y 1574   4.030   0.506   4.909  1.4382  1.2200  0.4230
   12SAPS  C312 1575   3.855   0.570   5.035 -0.0092  0.2640  0.1356
   12SAPS  H12X 1576   3.804   0.473   5.019 -1.5348  0.9585  0.6070
   12SAPS  H12Y 1577   3.774   0.646   5.029  0.3763  0.6136 -0.7469
   12SAPS  C313 1578   3.922   0.578   5.169 -0.5705  0.2007  0.4068
   12SAPS  H13X 1579   3.854   0.604   5.253 -0.0052  0.4435  0.7975
   12SAPS  H13Y 1580   4.002   0.654   5.178  0.6907 -1.1640  1.2302
   12SAPS  C314 1581   3.993   0.446   5.196 -0.1087 -0.3454  0.4913
   12SAPS  H14X 1582   4.084   0.422   5.135 -0.7096  0.3411 -0.7233
   12SAPS  H14Y 1583   3.922   0.364   5.172 -2.4866  2.5542 -3.8447
   12SAPS  C315 1584   4.047   0.444   5.333 -0.3110  0.7136 -0.2626
   12SAPS  H15X 1585   3.966   0.433   5.408 -0.8285  1.7280 -0.6575
   12SAPS  H15Y 1586   4.089   0.543   5.362  1.0913 -0.0210  0.3302
   12SAPS  C316 1587   4.167   0.348   5.356  0.4024 -0.6306 -0.4748
   12SAPS  H16X 1588   4.259   0.390   5.311 -0.0182  1.8603  0.8127
   12SAPS  H16Y 1589   4.147   0.251   5.306 -1.1733  0.3504 -1.8210
   12SAPS  C317 1590   4.196   0.324   5.501  0.0839 -0.1209 -0.4976
   12SAPS  H17X 1591   4.101   0.341   5.556 -0.9277 -0.4630 -2.0753
   12SAPS  H17Y 1592   4.271   0.397   5.538  1.1731 -0.1513 -2.5135
   12SAPS  C318 1593   4.240   0.182   5.535  0.2717  0.5661 -0.2012
   12SAPS  H18X 1594   4.163   0.105   5.513  1.0178 -0.7858  1.6574
   12SAPS  H18Y 1595   4.256   0.169   5.645  0.2684 -1.3060 -0.4013
   12SAPS  H18Z 1596   4.335   0.157   5.484  1.7927  0.7786  2.3664
   13SAPS     N 1597   0.008   1.510   3.106 -0.1443 -0.6547  0.2499
   13SAPS   HN1 1598   0.034   1.580   3.034 -1.1115  0.0872  0.5967
   13SAPS   HN2 1599   0.001   1.557   3.198 -0.8074 -0.8047  0.2854
   13SAPS   HN3 1600   0.083   1.439   3.106  0.4307 -0.0887 -1.2758
   13SAPS   C12 1601  -0.119   1.442   3.069 -0.6559 -0.4260  0.3628
   13SAPS  H12A 1602  -0.200   1.512   3.086 -1.1449 -1.5825  3.5268
   13SAPS   C13 1603  -0.129   1.376   2.932  0.2073 -0.5113 -0.2726
   13SAPS  O13A 1604  -0.039   1.378   2.847 -0.2316  0.0409  0.2401
   13SAPS  O13B 1605  -0.247   1.363   2.900 -0.4573 -0.3381 -0.2009
   13SAPS   C11 1606  -0.159   1.328   3.166  0.0446  0.3569 -0.1138
   13SAPS  H11A 1607  -0.098   1.237   3.144  0.5666  0.6715  0.0101
   13SAPS  H11B 1608  -0.264   1.306   3.136  0.7563 -1.1695 -1.7054
   13SAPS     P 1609  -0.167   1.269   3.414  0.0745  0.1464  0.5145
   13SAPS   O13 1610  -0.284   1.303   3.498  0.0373 -0.5925 -0.2427
   13SAPS   O14 1611  -0.172   1.132   3.361  0.0447  0.7661  0.1433
   13SAPS   O12 1612  -0.152   1.373   3.302 -0.8738 -0.3373 -0.2486
   13SAPS   O11 1613  -0.031   1.285   3.506 -0.5264  0.4688 -0.1417
   13SAPS    C1 1614  -0.000   1.195   3.612 -0.1790 -0.4426 -0.0982
   13SAPS    HA 1615  -0.085   1.126   3.630  0.5079 -1.0423  0.9902
   13SAPS    HB 1616   0.085   1.126   3.591 -0.1178 -0.9292  1.5793
   13SAPS    C2 1617   0.016   1.269   3.753 -0.0648 -0.0182  0.2218
   13SAPS    HS 1618   0.125   1.269   3.776  0.2737 -0.1520 -1.3075
   13SAPS   O21 1619  -0.055   1.199   3.860 -0.3672  0.8734 -0.2299
   13SAPS   C21 1620  -0.035   1.067   3.876  0.3391 -0.0473 -0.2778
   13SAPS   O22 1621   0.043   0.997   3.812  0.1167 -0.2706 -0.4988
   13SAPS   C22 1622  -0.118   1.029   3.994  0.5475 -0.2495 -0.1328
   13SAPS   H2R 1623  -0.078   1.077   4.086 -0.6705 -0.0691  0.3296
   13SAPS   H2S 1624  -0.222   1.068   3.983  0.4115  0.5937  3.0343
   13SAPS    C3 1625  -0.029   1.420   3.739  0.0800 -0.5563  0.1600
   13SAPS    HX 1626  -0.136   1.420   3.708 -0.1371 -1.2476  0.8479
   13SAPS    HY 1627   0.025   1.476   3.661 -0.3991 -0.1910  0.0877
   13SAPS   O31 1628  -0.007   1.499   3.862 -0.0471 -0.5608 -0.0882
   13SAPS   C31 1629  -0.103   1.583   3.900 -0.4501  0.4255 -0.4329
   13SAPS   O32 1630  -0.205   1.608   3.840 -0.4376  0.1504 -0.6372
   13SAPS   C32 1631  -0.067   1.641   4.028 -0.1718 -1.0134  0.5263
   13SAPS   H2X 1632   0.014   1.715   4.008 -2.4320  0.9897 -2.0983
   13SAPS   H2Y 1633  -0.035   1.561   4.097  0.3761  0.2717  1.8264
   13SAPS   C23 1634  -0.121   0.883   4.029 -0.0799  0.4151  0.6779
   13SAPS   H3R 1635  -0.023   0.831   4.035 -0.1497  0.4121  2.4090
   13SAPS   H3S 1636  -0.182   0.829   3.954  0.5219 -3.3184  2.6323
   13SAPS   C24 1637  -0.193   0.848   4.161 -0.4519 -0.3647  0.1734
   13SAPS   H4R 1638  -0.228   0.742   4.163 -0.4775 -0.3618  2.5309
   13SAPS   H4S 1639  -0.289   0.904   4.165 -0.0381  0.2837  1.3368
   13SAPS   C25 1640  -0.114   0.882   4.286 -0.3410  0.3996  0.2021
   13SAPS   H5R 1641  -0.034   0.808   4.300 -1.5138 -0.7759  0.8795
   13SAPS   C26 1642  -0.127   0.984   4.371  0.0869 -0.3199  0.5382
   13SAPS   H6R 1643  -0.040   0.998   4.436 -0.5661 -3.0368  2.1606
   13SAPS   C27 1644  -0.234   1.088   4.370  0.0129  0.0954 -0.1696
   13SAPS   H7R 1645  -0.271   1.106   4.474 -1.2865  2.1719 -0.9090
   13SAPS   H7S 1646  -0.324   1.057   4.312  0.6617 -1.3646 -0.4196
   13SAPS   C28 1647  -0.191   1.221   4.320 -0.6552 -0.6399 -1.0954
   13SAPS   H8R 1648  -0.123   1.223   4.234 -0.9039 -1.1634 -1.3066
   13SAPS   C29 1649  -0.226   1.343   4.373  1.7456  0.4779 -0.1922
   13SAPS   H9R 1650  -0.187   1.436   4.329 -0.1039  0.8862 -1.0586
   13SAPS  C210 1651  -0.316   1.366   4.492 -0.2471 -0.5210  0.3940
   13SAPS  H10R 1652  -0.399   1.292   4.495 -1.1807  0.3859 -1.5488
   13SAPS  H10S 1653  -0.374   1.456   4.464  1.2190  0.1332 -0.6826
   13SAPS  C211 1654  -0.223   1.391   4.603 -0.7459 -0.6019  1.0216
   13SAPS  H11R 1655  -0.168   1.483   4.579  0.8014 -2.1593 -1.9220
   13SAPS  C212 1656  -0.218   1.320   4.716 -0.2696 -0.5636 -0.3217
   13SAPS  H12R 1657  -0.142   1.342   4.791  1.0666  1.1845 -2.0893
   13SAPS  C213 1658  -0.303   1.199   4.753  0.0146  0.3575 -0.1919
   13SAPS  H13R 1659  -0.229   1.125   4.792 -0.3372  0.2828  0.3493
   13SAPS  H13S 1660  -0.358   1.154   4.668 -1.0042 -0.9778  1.1150
   13SAPS  C214 1661  -0.390   1.234   4.867 -0.7967 -0.0358 -0.2940
   13SAPS  H14R 1662  -0.473   1.301   4.842 -1.8954 -0.2512  2.3596
   13SAPS  C215 1663  -0.357   1.238   4.996 -0.4196 -0.8770 -0.3176
   13SAPS  H15R 1664  -0.437   1.273   5.063 -1.3719 -0.3710 -1.6846
   13SAPS  C216 1665  -0.235   1.184   5.061  1.4774 -0.7550 -0.4873
   13SAPS  H16R 1666  -0.218   1.233   5.159 -1.2749 -0.4412 -0.1051
   13SAPS  H16S 1667  -0.152   1.212   4.992  0.7271  0.0011 -1.1017
   13SAPS  C217 1668  -0.240   1.033   5.087 -1.0576  0.4700  0.6747
   13SAPS  H17R 1669  -0.139   1.004   5.120 -1.5119  0.2573  1.9328
   13SAPS  H17S 1670  -0.251   0.983   4.989  1.6481 -0.3046  0.7025
   13SAPS  C218 1671  -0.351   0.994   5.185  0.5978 -0.3528  0.1194
   13SAPS  H18R 1672  -0.452   1.015   5.144 -0.3081  1.5488  3.0211
   13SAPS  H18S 1673  -0.343   1.062   5.273  0.8870 -1.0782  0.6666
   13SAPS  C219 1674  -0.346   0.848   5.242 -0.3728  0.1407 -0.1189
   13SAPS  H19R 1675  -0.443   0.819   5.288 -0.3876  0.4551  0.0558
   13SAPS  H19S 1676  -0.268   0.843   5.321 -0.0973 -1.4957 -0.4773
   13SAPS  C220 1677  -0.307   0.742   5.136 -0.2269 -0.0756 -0.1698
   13SAPS  H20R 1678  -0.272   0.643   5.173  1.0569  0.7955  1.0426
   13SAPS  H20S 1679  -0.223   0.784   5.076 -1.3462  1.9423 -0.4098
   13SAPS  H20T 1680  -0.391   0.733   5.063  0.4156  0.4647 -1.0041
   13SAPS   C33 1681  -0.168   1.736   4.097 -0.4376 -0.2815  0.1669
   13SAPS   H3X 1682  -0.244   1.785   4.032 -0.5027 -0.9107 -0.2327
   13SAPS   H3Y 1683  -0.106   1.813   4.148 -0.4053 -1.6207  2.2589
   13SAPS   C34 1684  -0.243   1.682   4.210  0.0887 -0.1899  0.8240
   13SAPS   H4X 1685  -0.173   1.626   4.275  0.1876 -0.1176  0.7800
   13SAPS   H4Y 1686  -0.314   1.609   4.164  1.7824 -1.4536  0.0951
   13SAPS   C35 1687  -0.312   1.796   4.291  0.1276 -0.0082 -0.3813
   13SAPS   H5X 1688  -0.383   1.844   4.220 -1.7125 -0.1625  1.2784
   13SAPS   H5Y 1689  -0.234   1.868   4.324  2.4579 -2.4129 -0.2799
   13SAPS   C36 1690  -0.384   1.754   4.423 -0.4083 -0.2629 -0.0676
   13SAPS   H6X 1691  -0.320   1.688   4.486  0.4465  0.2503 -0.3943
   13SAPS   H6Y 1692  -0.474   1.692   4.400 -1.2963  1.7163 -2.4678
   13SAPS   C37 1693  -0.424   1.871   4.511  0.3314 -0.5484  0.4996
   13SAPS   H7X 1694  -0.503   1.921   4.451 -0.2665 -2.0908 -0.0422
   13SAPS   H7Y 1695  -0.343   1.946   4.523  0.9804 -1.2290  0.4787
   13SAPS   C38 1696  -0.487   1.838   4.650 -0.0392  0.7052  0.0278
   13SAPS   H8X 1697  -0.398   1.819   4.713  0.5859  0.0236 -1.0413
   13SAPS   H8Y 1698  -0.548   1.747   4.634 -0.4501  1.3343 -2.3675
   13SAPS   C39 1699  -0.574   1.950   4.711 -0.3934  0.5137  0.4701
   13SAPS   H9X 1700  -0.647   1.991   4.639  0.8298 -0.2206 -1.2513
   13SAPS   H9Y 1701  -0.508   2.036   4.736  0.7882  0.0271 -0.8399
   13SAPS  C310 1702  -0.629   1.897   4.844 -0.1555  0.2623  0.5469
   13SAPS  H10X 1703  -0.544   1.868   4.910 -2.6006 -3.2513  2.4858
   13SAPS  H10Y 1704  -0.684   1.805   4.814  0.6996  0.3343 -1.4265
   13SAPS  C311 1705  -0.721   1.988   4.923  0.1616 -0.4438 -0.2904
   13SAPS  H11X 1706  -0.663   2.077   4.955 -1.0585  0.8405 -1.5014
   13SAPS  H11Y 1707  -0.758   1.920   5.002  1.6779 -2.0835 -0.9213
   13SAPS  C312 1708  -0.831   2.045   4.833  0.3721  0.4892 -0.0981
   13SAPS  H12X 1709  -0.787   2.080   4.738  2.4268  0.7929  0.9086
   13SAPS  H12Y 1710  -0.872   2.128   4.894 -1.7447 -0.2445 -0.4423
   13SAPS  C313 1711  -0.937   1.938   4.819  0.5455 -0.1757  0.7832
   13SAPS  H13X 1712  -0.998   1.911   4.908 -0.1630  0.9150  0.6479
   13SAPS  H13Y 1713  -0.898   1.847   4.768 -2.8007 -0.3879 -1.7626
   13SAPS  C314 1714  -1.046   1.975   4.716  0.2362  0.1136  0.4400
   13SAPS  H14X 1715  -1.005   1.996   4.614  0.1888 -1.6745  0.0239
   13SAPS  H14Y 1716  -1.096   2.068   4.751  2.3792  1.9333 -0.9472
   13SAPS  C315 1717  -1.139   1.860   4.681 -0.4679  0.2536 -0.3474
   13SAPS  H15X 1718  -1.083   1.764   4.689 -0.8842 -0.0356 -0.8223
   13SAPS  H15Y 1719  -1.171   1.869   4.575  1.7879 -0.1929 -1.1189
   13SAPS  C316 1720  -1.268   1.850   4.761  0.5619  0.4276 -0.0510
   13SAPS  H16X 1721  -1.346   1.921   4.726 -1.7225 -0.8659  2.0939
   13SAPS  H16Y 1722  -1.242   1.879   4.866 -0.9547 -1.1155  0.7919
   13SAPS  C317 1723  -1.335   1.715   4.757  0.7026 -0.1781  0.5978
   13SAPS  H17X 1724  -1.375   1.687   4.657 -3.5825  2.5701  1.2654
   13SAPS  H17Y 1725  -1.417   1.740   4.829 -1.3320 -0.5267 -1.4813
   13SAPS  C318 1726  -1.265   1.602   4.820 -0.7966 -0.3823  0.2317
   13SAPS  H18X 1727  -1.338   1.520   4.806 -1.9949  0.3485  1.8426
   13SAPS  H18Y 1728  -1.253   1.603   4.930 -0.0665 -0.3881  0.1582
   13SAPS  H18Z 1729  -1.172   1.566   4.770 -1.3171 -1.1758 -0.1731
   14SAPS     N 1730   5.894   2.988   3.410  0.1348  0.0436  0.5567
   14SAPS   HN1 1731   5.972   2.930   3.447 -0.2351  0.0244  1.3428
   14SAPS   HN2 1732   5.824   3.006   3.485  0.1554  2.6660  0.0478
   14SAPS   HN3 1733   5.847   2.940   3.331  0.5492  1.3800 -0.5457
   14SAPS   C12 1734   5.953   3.117   3.364 -0.3532 -0.1851 -0.1251
   14SAPS  H12A 1735   6.040   3.101   3.301 -0.9445 -0.5509 -0.8565
   14SAPS   C13 1736   5.841   3.198   3.285 -0.4293  0.4690 -0.0574
   14SAPS  O13A 1737   5.732   3.136   3.259  0.5135  1.0343  0.3479
   14SAPS  O13B 1738   5.862   3.312   3.238 -0.0310  0.3145  0.0066
   14SAPS   C11 1739   5.995   3.202   3.483 -0.1974 -0.2322 -0.0192
   14SAPS  H11A 1740   5.915   3.211   3.559  0.0934 -1.4662  0.4711
   14SAPS  H11B 1741   6.028   3.304   3.453  0.9589 -0.6232 -0.1540
   14SAPS     P 1742   6.213   3.214   3.620 -0.0311 -0.0985  0.0757
   14SAPS   O13 1743   6.317   3.129   3.675  0.5564  0.0812 -0.2847
   14SAPS   O14 1744   6.264   3.317   3.522 -0.0579 -0.4804  0.4776
   14SAPS   O12 1745   6.104   3.134   3.551  0.9532  0.1947 -0.4459
   14SAPS   O11 1746   6.141   3.285   3.745  0.2652  0.4979 -0.0855
   14SAPS    C1 1747   6.060   3.232   3.844 -0.0395 -0.1882  0.5084
   14SAPS    HA 1748   5.977   3.178   3.793 -0.8618  1.3499  0.1579
   14SAPS    HB 1749   6.115   3.170   3.918 -0.8128  0.6117  1.8139
   14SAPS    C2 1750   5.991   3.339   3.932 -0.3470  0.5799  0.0880
   14SAPS    HS 1751   5.932   3.403   3.863 -0.3782 -0.6949 -1.0977
   14SAPS   O21 1752   6.083   3.410   4.004 -0.1707  0.0410 -0.3662
   14SAPS   C21 1753   6.094   3.543   3.976 -0.0728  0.1153  0.0669
   14SAPS   O22 1754   6.013   3.606   3.909  0.1718 -0.2066 -0.3681
   14SAPS   C22 1755   6.211   3.601   4.052 -0.5141  0.6347 -0.2110
   14SAPS   H2R 1756   6.245   3.532   4.132  0.6173 -1.9042 -2.6675
   14SAPS   H2S 1757   6.298   3.592   3.983 -1.2994  0.5385 -1.2203
   14SAPS    C3 1758   5.900   3.262   4.039  0.3238 -0.9327 -0.7688
   14SAPS    HX 1759   5.830   3.209   3.971 -2.1958  3.3469 -1.8697
   14SAPS    HY 1760   5.854   3.348   4.093 -0.0291 -0.9893 -0.9823
   14SAPS   O31 1761   5.979   3.181   4.126  0.0956 -0.2156  0.0672
   14SAPS   C31 1762   5.944   3.052   4.128 -0.6111  0.0699 -0.3600
   14SAPS   O32 1763   5.868   3.003   4.050  0.2730  0.3790  0.3827
   14SAPS   C32 1764   6.009   2.985   4.251  0.3708 -0.0413  0.3128
   14SAPS   H2X 1765   6.068   3.058   4.311 -0.4669  1.1360 -0.2494
   14SAPS   H2Y 1766   6.076   2.909   4.205 -0.4692  0.3163 -1.5893
   14SAPS   C23 1767   6.186   3.751   4.088 -0.5447 -0.4859  0.1816
   14SAPS   H3R 1768   6.087   3.754   4.140 -0.0209 -0.0255  1.1766
   14SAPS   H3S 1769   6.165   3.807   3.995  0.6188 -2.1514 -1.1354
   14SAPS   C24 1770   6.298   3.820   4.175  0.3520  0.1936  1.1709
   14SAPS   H4R 1771   6.256   3.916   4.212 -3.7851 -1.1499  0.4633
   14SAPS   H4S 1772   6.382   3.835   4.104 -1.3476 -1.0058 -1.2178
   14SAPS   C25 1773   6.343   3.736   4.289 -0.6555  0.1454 -0.1074
   14SAPS   H5R 1774   6.435   3.675   4.282 -0.6305  0.0767  0.7214
   14SAPS   C26 1775   6.274   3.709   4.397 -0.4994  0.6759 -0.7230
   14SAPS   H6R 1776   6.314   3.630   4.461  3.0452  1.7840 -1.3561
   14SAPS   C27 1777   6.140   3.758   4.436  0.4962 -0.2594  0.2649
   14SAPS   H7R 1778   6.103   3.839   4.370  0.1417 -0.2524  0.4709
   14SAPS   H7S 1779   6.154   3.794   4.540 -2.9166 -1.7977  1.3999
   14SAPS   C28 1780   6.042   3.648   4.444 -0.3388  0.8646 -0.1661
   14SAPS   H8R 1781   6.015   3.597   4.351 -1.5294 -1.0539  1.1354
   14SAPS   C29 1782   5.981   3.610   4.558 -0.1235  0.4714  0.4834
   14SAPS   H9R 1783   5.904   3.533   4.545  0.8746 -0.5629  0.4888
   14SAPS  C210 1784   6.001   3.659   4.696 -0.9115 -0.0194 -0.0480
   14SAPS  H10R 1785   6.033   3.765   4.697 -0.8511  0.1357 -3.6901
   14SAPS  H10S 1786   6.075   3.597   4.751 -0.0062  1.1074  0.0337
   14SAPS  C211 1787   5.879   3.635   4.782  0.6298 -0.0297 -0.2757
   14SAPS  H11R 1788   5.786   3.608   4.728  0.5746  1.6952 -1.1217
   14SAPS  C212 1789   5.868   3.672   4.914  0.5812  0.3662  0.3306
   14SAPS  H12R 1790   5.775   3.652   4.969  2.0023  0.3963  2.8869
   14SAPS  C213 1791   5.974   3.750   4.985 -0.5380 -0.3016  0.6392
   14SAPS  H13R 1792   5.932   3.849   5.017  2.7310  0.9318  1.5452
   14SAPS  H13S 1793   6.058   3.777   4.918 -0.6990 -0.0077  0.5515
   14SAPS  C214 1794   6.028   3.691   5.112 -0.0808 -0.3675 -0.1191
   14SAPS  H14R 1795   6.123   3.637   5.103 -0.9492 -2.2288  1.2463
   14SAPS  C215 1796   5.971   3.664   5.234  0.8763  0.2681 -0.2499
   14SAPS  H15R 1797   6.032   3.626   5.317  0.5838 -0.8552 -0.5355
   14SAPS  C216 1798   5.830   3.714   5.257  0.3567 -0.3997 -0.2353
   14SAPS  H16R 1799   5.767   3.626   5.235 -1.7685  0.9774  0.0081
   14SAPS  H16S 1800   5.793   3.790   5.184 -2.2541 -1.7453 -0.4094
   14SAPS  C217 1801   5.821   3.768   5.399 -0.8881  0.6473 -0.9353
   14SAPS  H17R 1802   5.862   3.694   5.471 -0.3990  0.9178 -0.9273
   14SAPS  H17S 1803   5.715   3.784   5.429 -1.1721  0.4453 -1.7991
   14SAPS  C218 1804   5.890   3.902   5.416  0.4476  0.2598 -0.1995
   14SAPS  H18R 1805   5.819   3.981   5.383 -1.1913 -0.1202  2.1539
   14SAPS  H18S 1806   5.984   3.912   5.357 -0.4545  0.9771 -1.5829
   14SAPS  C219 1807   5.909   3.931   5.569  0.1605  0.1681  0.5416
   14SAPS  H19R 1808   5.814   3.940   5.626 -0.5418 -2.7962 -0.0131
   14SAPS  H19S 1809   5.959   4.030   5.573  0.1938  0.2615 -1.3680
   14SAPS  C220 1810   5.999   3.832   5.645 -0.3007  0.2826  0.1132
   14SAPS  H20R 1811   6.104   3.841   5.610  0.7342 -0.7446  2.7088
   14SAPS  H20S 1812   5.976   3.725   5.626 -1.1943  0.7674 -1.8931
   14SAPS  H20T 1813   5.995   3.843   5.755  0.3030 -0.1559  0.1810
   14SAPS   C33 1814   5.925   2.903   4.351 -0.1946 -0.3220 -0.3792
   14SAPS   H3X 1815   5.993   2.843   4.415 -1.4284 -0.9491  0.3777
   14SAPS   H3Y 1816   5.850   2.840   4.299 -0.4754  1.2777 -2.0163
   14SAPS   C34 1817   5.861   3.004   4.450 -0.5961  0.0727 -0.1263
   14SAPS   H4X 1818   5.794   3.072   4.393  2.3692  0.5648 -3.3817
   14SAPS   H4Y 1819   5.941   3.070   4.488 -0.8363  2.1557 -2.8891
   14SAPS   C35 1820   5.782   2.926   4.554  0.1187  0.2422  0.6301
   14SAPS   H5X 1821   5.856   2.853   4.593  0.2191  0.2957  0.5387
   14SAPS   H5Y 1822   5.708   2.873   4.489 -2.0304  2.8037  0.8298
   14SAPS   C36 1823   5.724   3.022   4.663  0.2847  0.4079  0.9886
   14SAPS   H6X 1824   5.651   3.092   4.617  0.6597  1.7505  2.3565
   14SAPS   H6Y 1825   5.805   3.085   4.703  0.2543  0.4344  1.0091
   14SAPS   C37 1826   5.663   2.930   4.773 -0.3579  0.0590  0.3629
   14SAPS   H7X 1827   5.736   2.855   4.811 -0.3128  0.9461  2.1165
   14SAPS   H7Y 1828   5.583   2.871   4.723  0.1427  0.7260 -1.2819
   14SAPS   C38 1829   5.608   3.017   4.885  0.2474 -0.3214 -1.0172
   14SAPS   H8X 1830   5.531   3.082   4.837 -0.8200 -0.1951  0.7655
   14SAPS   H8Y 1831   5.691   3.086   4.909  0.9049 -0.5344 -2.5240
   14SAPS   C39 1832   5.561   2.948   5.019 -0.2067 -0.0078 -0.2070
   14SAPS   H9X 1833   5.542   3.022   5.100 -2.4508  0.8639 -1.4252
   14SAPS   H9Y 1834   5.644   2.885   5.058 -1.2758 -1.0600  0.4629
   14SAPS  C310 1835   5.449   2.844   4.995  0.6748 -0.3507  0.4836
   14SAPS  H10X 1836   5.480   2.762   4.927  0.8141  1.6745 -2.1066
   14SAPS  H10Y 1837   5.367   2.896   4.940  0.9710 -1.0418 -0.6400
   14SAPS  C311 1838   5.389   2.804   5.135 -0.3945  0.3816 -0.1825
   14SAPS  H11X 1839   5.329   2.888   5.176 -2.7323 -1.2230 -0.0857
   14SAPS  H11Y 1840   5.478   2.788   5.199 -0.0777 -1.3681 -0.9791
   14SAPS  C312 1841   5.290   2.687   5.140  0.2653  0.6045  0.9220
   14SAPS  H12X 1842   5.331   2.587   5.114 -2.7073 -0.7632  1.1224
   14SAPS  H12Y 1843   5.209   2.702   5.066 -0.7080 -1.2034  1.5703
   14SAPS  C313 1844   5.219   2.672   5.275 -0.5040  0.5371 -0.0840
   14SAPS  H13X 1845   5.153   2.584   5.259  1.3918 -1.4532  2.2215
   14SAPS  H13Y 1846   5.159   2.763   5.295 -1.8748 -0.1129 -1.0927
   14SAPS  C314 1847   5.319   2.631   5.389  0.1822 -0.7762  0.1919
   14SAPS  H14X 1848   5.382   2.720   5.408  0.6013 -0.9173 -0.5210
   14SAPS  H14Y 1849   5.387   2.549   5.357  1.5180  0.6359 -0.7118
   14SAPS  C315 1850   5.250   2.579   5.514  0.4707 -0.0287  0.5893
   14SAPS  H15X 1851   5.198   2.672   5.546  1.0793  1.1666 -1.6917
   14SAPS  H15Y 1852   5.320   2.546   5.594  0.5721 -2.2694 -0.3623
   14SAPS  C316 1853   5.156   2.458   5.489  0.0211 -0.0806  0.3537
   14SAPS  H16X 1854   5.218   2.376   5.446  0.8433  1.2213 -1.0436
   14SAPS  H16Y 1855   5.085   2.468   5.404 -0.5294 -0.0769  0.8085
   14SAPS  C317 1856   5.071   2.413   5.615 -0.2633 -0.2680  0.7441
   14SAPS  H17X 1857   5.142   2.397   5.699 -0.3140 -1.7132  0.5340
   14SAPS  H17Y 1858   5.012   2.322   5.590  0.2391  0.0933 -2.1831
   14SAPS  C318 1859   4.967   2.517   5.666  0.1926 -0.1368  1.0397
   14SAPS  H18X 1860   4.878   2.516   5.600  1.0130  3.3989 -0.3461
   14SAPS  H18Y 1861   5.008   2.620   5.672 -4.6947  2.0206  3.3275
   14SAPS  H18Z 1862   4.923   2.483   5.762 -0.0941  0.7582  1.2355
   15SAPS     N 1863   4.595   3.983   3.422  0.2885  0.0944  0.3264
   15SAPS   HN1 1864   4.655   4.059   3.460  0.5241  0.0063  0.1360
   15SAPS   HN2 1865   4.534   3.931   3.489 -2.6652  0.5293 -1.8477
   15SAPS   HN3 1866   4.669   3.922   3.382  0.6312  0.4886  0.3478
   15SAPS   C12 1867   4.502   4.048   3.326 -0.0838  1.1487 -0.1276
   15SAPS  H12A 1868   4.428   4.110   3.375 -0.6182 -0.2417  0.9106
   15SAPS   C13 1869   4.566   4.134   3.217  0.1111  0.3464 -0.3952
   15SAPS  O13A 1870   4.691   4.138   3.200 -0.3334  0.0855  0.5009
   15SAPS  O13B 1871   4.488   4.204   3.147  0.4149 -0.9545 -0.4333
   15SAPS   C11 1872   4.420   3.926   3.267  0.1916  0.6611  0.8611
   15SAPS  H11A 1873   4.329   3.974   3.224  0.1764  1.2500  1.5332
   15SAPS  H11B 1874   4.381   3.871   3.355  2.8279 -3.0971 -0.0688
   15SAPS     P 1875   4.589   3.717   3.223  0.1856  0.2061 -0.3296
   15SAPS   O13 1876   4.571   3.593   3.142  0.2196 -0.3404 -0.1227
   15SAPS   O14 1877   4.730   3.764   3.233 -0.3865 -0.0604 -0.6033
   15SAPS   O12 1878   4.492   3.842   3.169  0.3814 -0.3864  0.3717
   15SAPS   O11 1879   4.542   3.684   3.371 -0.5508  0.4541 -0.7504
   15SAPS    C1 1880   4.501   3.555   3.423 -0.8347 -0.0936  0.1631
   15SAPS    HA 1881   4.438   3.505   3.346  0.5061  1.5167 -2.0942
   15SAPS    HB 1882   4.588   3.488   3.442 -0.9452 -1.2856 -2.9504
   15SAPS    C2 1883   4.422   3.579   3.556 -0.2926  0.2945  1.0221
   15SAPS    HS 1884   4.351   3.657   3.523 -0.7452 -1.1557 -1.7872
   15SAPS   O21 1885   4.508   3.606   3.664  0.3618  0.0541  0.1192
   15SAPS   C21 1886   4.549   3.727   3.668  0.5597 -0.1022  0.0209
   15SAPS   O22 1887   4.499   3.824   3.619  0.2909  0.1230  0.6684
   15SAPS   C22 1888   4.665   3.740   3.761 -0.1837 -0.2290  0.3218
   15SAPS   H2R 1889   4.686   3.849   3.757  0.7364 -0.4202 -0.5695
   15SAPS   H2S 1890   4.628   3.714   3.862  0.8081  1.6518  1.2132
   15SAPS    C3 1891   4.331   3.455   3.580  0.4875  0.5616 -1.1646
   15SAPS    HX 1892   4.388   3.364   3.551 -2.5247 -1.3528 -1.5117
   15SAPS    HY 1893   4.241   3.447   3.515 -0.1325 -1.2925 -0.1601
   15SAPS   O31 1894   4.265   3.446   3.711  0.6143 -0.2625  0.2274
   15SAPS   C31 1895   4.219   3.323   3.744  0.3556  0.4828 -0.1422
   15SAPS   O32 1896   4.203   3.226   3.671 -0.5270 -0.8284  0.0972
   15SAPS   C32 1897   4.190   3.314   3.896  0.3595 -0.7009 -0.2324
   15SAPS   H2X 1898   4.155   3.210   3.911  0.3668 -0.3806  2.4922
   15SAPS   H2Y 1899   4.118   3.398   3.905  2.7179  1.3963  0.1026
   15SAPS   C23 1900   4.795   3.670   3.719 -0.7197  0.1803  0.0615
   15SAPS   H3R 1901   4.839   3.710   3.625  0.6743 -1.2171  0.0767
   15SAPS   H3S 1902   4.779   3.565   3.686  2.2744 -0.8810  1.5956
   15SAPS   C24 1903   4.891   3.671   3.841 -0.1859  0.2201 -0.0967
   15SAPS   H4R 1904   4.905   3.779   3.861 -4.5304  0.9858 -0.2921
   15SAPS   H4S 1905   4.991   3.625   3.820  0.2739  0.2314  1.8830
   15SAPS   C25 1906   4.845   3.596   3.960 -0.2775 -0.4572 -0.8649
   15SAPS   H5R 1907   4.830   3.489   3.937 -0.2170 -0.5635 -0.4229
   15SAPS   C26 1908   4.805   3.648   4.080  0.2810  0.1435  0.1978
   15SAPS   H6R 1909   4.768   3.577   4.156 -1.0123 -2.5179 -2.6573
   15SAPS   C27 1910   4.790   3.796   4.115 -0.7707  0.3768  0.0987
   15SAPS   H7R 1911   4.795   3.848   4.016 -2.6319 -1.2623 -0.9339
   15SAPS   H7S 1912   4.865   3.807   4.195 -0.5810 -3.5368  0.6146
   15SAPS   C28 1913   4.665   3.846   4.183 -0.4185  0.1253 -0.9296
   15SAPS   H8R 1914   4.593   3.873   4.105 -2.7094 -1.1295  0.6581
   15SAPS   C29 1915   4.635   3.853   4.313  0.0024  0.1326 -0.4776
   15SAPS   H9R 1916   4.539   3.904   4.332 -0.0754  0.7414 -2.2958
   15SAPS  C210 1917   4.716   3.822   4.440 -0.1622 -0.3333  0.0285
   15SAPS  H10R 1918   4.774   3.910   4.476 -2.6239  1.1328  0.6678
   15SAPS  H10S 1919   4.790   3.742   4.421  3.0318  2.3207  0.3178
   15SAPS  C211 1920   4.620   3.783   4.545 -0.1006 -1.2966 -0.0776
   15SAPS  H11R 1921   4.522   3.744   4.511 -0.7738 -1.9448  2.3809
   15SAPS  C212 1922   4.643   3.802   4.680  0.0649 -0.3115  0.0417
   15SAPS  H12R 1923   4.561   3.773   4.747  0.7990  0.8682  1.5252
   15SAPS  C213 1924   4.769   3.859   4.746 -0.5540 -0.5138 -0.6149
   15SAPS  H13R 1925   4.831   3.917   4.673 -1.7184 -1.0525 -2.0891
   15SAPS  H13S 1926   4.835   3.779   4.785  0.2937  0.9683  1.1052
   15SAPS  C214 1927   4.735   3.954   4.860 -0.1291 -0.1117 -0.3132
   15SAPS  H14R 1928   4.741   4.061   4.838 -1.5150  0.0024 -0.2115
   15SAPS  C215 1929   4.690   3.922   4.984 -0.9260  0.0733  0.5217
   15SAPS  H15R 1930   4.677   3.996   5.065 -1.7328  0.5853 -0.0639
   15SAPS  C216 1931   4.667   3.778   5.024  0.7294 -0.0810 -0.0416
   15SAPS  H16R 1932   4.752   3.713   4.994 -0.1385 -1.0758 -0.4325
   15SAPS  H16S 1933   4.573   3.742   4.976  0.6232  1.7014 -1.2588
   15SAPS  C217 1934   4.646   3.767   5.180  0.4044 -0.0177 -0.3902
   15SAPS  H17R 1935   4.616   3.663   5.203 -1.7678 -0.1329 -3.1692
   15SAPS  H17S 1936   4.563   3.827   5.223 -1.3137 -1.6020 -1.3459
   15SAPS  C218 1937   4.781   3.803   5.245 -0.5521 -0.2206 -0.5089
   15SAPS  H18R 1938   4.782   3.914   5.255 -0.5254 -0.2546 -0.1436
   15SAPS  H18S 1939   4.866   3.764   5.184 -0.7531 -1.6932  0.1199
   15SAPS  C219 1940   4.789   3.752   5.390  0.7092 -0.9432 -0.5741
   15SAPS  H19R 1941   4.758   3.646   5.402  3.1628 -1.8020 -1.2885
   15SAPS  H19S 1942   4.713   3.822   5.431  1.4820  1.3930 -2.8131
   15SAPS  C220 1943   4.923   3.778   5.456 -0.4853 -0.5650 -0.8296
   15SAPS  H20R 1944   4.956   3.884   5.450 -0.9663 -0.4114 -0.8200
   15SAPS  H20S 1945   4.992   3.700   5.418 -1.2883 -1.5972 -0.2469
   15SAPS  H20T 1946   4.903   3.766   5.565 -1.6511  2.0109 -0.6726
   15SAPS   C33 1947   4.318   3.335   3.981  0.2204  0.4468 -0.0867
   15SAPS   H3X 1948   4.408   3.286   3.938 -0.1013  1.7877 -2.4453
   15SAPS   H3Y 1949   4.305   3.294   4.084 -0.8920  0.9667 -0.0060
   15SAPS   C34 1950   4.351   3.482   4.009 -0.0052 -0.3054 -0.6716
   15SAPS   H4X 1951   4.282   3.529   4.082  1.9669 -0.8240  1.6843
   15SAPS   H4Y 1952   4.357   3.538   3.913  1.2610 -0.1957 -0.5434
   15SAPS   C35 1953   4.497   3.503   4.073  0.4939  0.3536  0.0219
   15SAPS   H5X 1954   4.508   3.613   4.077 -2.2565  0.8692 -2.7541
   15SAPS   H5Y 1955   4.576   3.451   4.015 -0.7283  1.2941 -2.6453
   15SAPS   C36 1956   4.500   3.442   4.221  0.2312  0.0435  0.1931
   15SAPS   H6X 1957   4.591   3.471   4.278 -0.7765  2.5500  0.6470
   15SAPS   H6Y 1958   4.511   3.331   4.219  2.2952  0.2208 -1.7371
   15SAPS   C37 1959   4.393   3.494   4.314 -0.5923 -0.4776  0.3440
   15SAPS   H7X 1960   4.297   3.443   4.290 -1.2160 -1.5510  4.3731
   15SAPS   H7Y 1961   4.368   3.598   4.286 -1.7837 -0.6230  0.8304
   15SAPS   C38 1962   4.430   3.475   4.460 -0.9802 -0.5034  0.0215
   15SAPS   H8X 1963   4.520   3.532   4.490 -1.5471  0.7853 -0.6656
   15SAPS   H8Y 1964   4.437   3.367   4.486  3.8862 -0.4902 -0.3531
   15SAPS   C39 1965   4.322   3.533   4.549  0.8582  0.5380 -0.7387
   15SAPS   H9X 1966   4.229   3.493   4.504  1.6745 -0.6064 -1.5008
   15SAPS   H9Y 1967   4.308   3.643   4.541 -2.4395  0.1887 -0.7575
   15SAPS  C310 1968   4.334   3.499   4.696 -0.1762  0.5318  0.4761
   15SAPS  H10X 1969   4.432   3.538   4.728  1.4438 -1.2049 -2.0428
   15SAPS  H10Y 1970   4.344   3.389   4.701 -0.6816  0.3895 -1.0268
   15SAPS  C311 1971   4.221   3.560   4.778  0.3345 -0.1775 -0.9610
   15SAPS  H11X 1972   4.122   3.514   4.758 -0.2392  0.8973 -0.6976
   15SAPS  H11Y 1973   4.209   3.667   4.751  1.0073 -0.3415 -1.9376
   15SAPS  C312 1974   4.249   3.559   4.939 -0.3096 -0.0905 -0.3127
   15SAPS  H12X 1975   4.354   3.581   4.968  0.2394 -0.6025 -1.8422
   15SAPS  H12Y 1976   4.221   3.459   4.981 -1.8347  0.6259  0.4854
   15SAPS  C313 1977   4.167   3.668   5.002 -0.6672  0.2450  0.1727
   15SAPS  H13X 1978   4.060   3.648   4.977 -0.4379  0.3866 -0.9815
   15SAPS  H13Y 1979   4.183   3.771   4.964 -2.2160  0.1010 -0.9944
   15SAPS  C314 1980   4.166   3.666   5.163 -0.1464  0.1928  0.4116
   15SAPS  H14X 1981   4.147   3.559   5.188 -3.2594  0.6747  0.5246
   15SAPS  H14Y 1982   4.079   3.722   5.203 -1.6367 -1.4372 -0.3792
   15SAPS  C315 1983   4.299   3.691   5.230 -0.8140  0.6682  0.1559
   15SAPS  H15X 1984   4.333   3.783   5.176 -1.8599 -0.0887 -1.8998
   15SAPS  H15Y 1985   4.365   3.605   5.207 -0.0134  1.8388 -2.2696
   15SAPS  C316 1986   4.279   3.709   5.383  0.1860  0.1315 -0.1149
   15SAPS  H16X 1987   4.182   3.757   5.408 -1.1435 -2.3573 -0.1920
   15SAPS  H16Y 1988   4.358   3.773   5.429 -1.4800  1.1838  1.4012
   15SAPS  C317 1989   4.289   3.578   5.458  0.2873  0.2436  0.1233
   15SAPS  H17X 1990   4.381   3.523   5.429  0.5184  1.1751 -1.0027
   15SAPS  H17Y 1991   4.205   3.510   5.432  0.4992 -1.3302  3.1335
   15SAPS  C318 1992   4.285   3.599   5.608  0.2639 -0.4448 -1.2330
   15SAPS  H18X 1993   4.373   3.665   5.624 -1.9137  2.6141 -1.1325
   15SAPS  H18Y 1994   4.284   3.502   5.664  1.1938  0.3589  0.2376
   15SAPS  H18Z 1995   4.196   3.660   5.635 -0.2063 -1.4352 -0.4672
   16SAPS     N 1996   5.186   1.598   3.637 -0.3851 -0.0171 -0.3064
   16SAPS   HN1 1997   5.106   1.607   3.703  1.0824  2.9830  1.2936
   16SAPS   HN2 1998   5.178   1.508   3.585  1.9919  0.3071 -1.3638
   16SAPS   HN3 1999   5.270   1.586   3.698 -0.3393  1.9736  0.0750
   16SAPS   C12 2000   5.202   1.702   3.536 -0.4038 -0.2117  0.2630
   16SAPS  H12A 2001   5.253   1.781   3.588  0.2485  0.8766 -1.9465
   16SAPS   C13 2002   5.270   1.663   3.398  0.1535  0.1225  0.3654
   16SAPS  O13A 2003   5.283   1.543   3.362 -0.1182  0.5109 -0.2354
   16SAPS  O13B 2004   5.299   1.754   3.318  0.0040  0.0089  0.4685
   16SAPS   C11 2005   5.061   1.760   3.496  0.7635  0.2521  0.2522
   16SAPS  H11A 2006   4.993   1.681   3.457 -2.2046  2.3722  0.7666
   16SAPS  H11B 2007   5.073   1.832   3.412 -2.0330  0.5163 -0.0249
   16SAPS     P 2008   4.985   1.984   3.614  0.0201  0.2353 -0.2057
   16SAPS   O13 2009   5.108   2.048   3.561 -0.1487 -0.3731 -0.3422
   16SAPS   O14 2010   4.862   2.024   3.537  0.6195  0.7148 -0.1290
   16SAPS   O12 2011   4.992   1.823   3.607 -0.2821  0.1764  0.3855
   16SAPS   O11 2012   4.975   2.011   3.770  0.2750  0.1218  0.1405
   16SAPS    C1 2013   5.047   1.929   3.863  0.0369 -0.5548 -0.3126
   16SAPS    HA 2014   5.000   1.828   3.874 -1.0948  0.2130  2.6714
   16SAPS    HB 2015   5.151   1.910   3.830  0.3903  1.3707 -0.4032
   16SAPS    C2 2016   5.052   1.994   4.006  0.4374  0.6599  0.1450
   16SAPS    HS 2017   5.113   1.927   4.071 -1.4331  0.3835  1.7202
   16SAPS   O21 2018   4.925   2.018   4.066  0.0283 -0.6105  0.1596
   16SAPS   C21 2019   4.871   1.907   4.108  0.0373 -0.3878 -0.2762
   16SAPS   O22 2020   4.931   1.802   4.127  0.0607 -0.1462 -0.1713
   16SAPS   C22 2021   4.718   1.927   4.129  0.2153  0.0609  0.6633
   16SAPS   H2R 2022   4.701   2.035   4.108  2.8274  0.1134 -1.8070
   16SAPS   H2S 2023   4.673   1.859   4.054 -1.3404  1.3441  0.3704
   16SAPS    C3 2024   5.130   2.126   4.004  0.5098  0.1047  0.4223
   16SAPS    HX 2025   5.059   2.202   3.963  0.2813 -0.0275  0.5757
   16SAPS    HY 2026   5.216   2.132   3.934  0.8806  1.7502  0.9558
   16SAPS   O31 2027   5.173   2.175   4.130 -0.0483  0.2124  0.0138
   16SAPS   C31 2028   5.271   2.102   4.185 -1.1576  0.0319  0.7267
   16SAPS   O32 2029   5.330   2.009   4.127  0.1263 -0.5339  0.1658
   16SAPS   C32 2030   5.310   2.141   4.319 -0.6343  0.2864 -0.3944
   16SAPS   H2X 2031   5.265   2.071   4.393 -0.7695  1.3460  0.5546
   16SAPS   H2Y 2032   5.276   2.242   4.351 -0.5911 -0.7406  3.4200
   16SAPS   C23 2033   4.672   1.897   4.272  0.4443  0.2846  0.0649
   16SAPS   H3R 2034   4.663   1.786   4.268  1.7538  0.1728 -0.0867
   16SAPS   H3S 2035   4.569   1.939   4.266 -0.6369 -1.9948  1.2667
   16SAPS   C24 2036   4.762   1.957   4.381  0.2124 -0.0204  0.6511
   16SAPS   H4R 2037   4.861   1.912   4.405 -1.9241 -3.2593  4.4443
   16SAPS   H4S 2038   4.708   1.955   4.477 -0.5240  1.3893  0.3021
   16SAPS   C25 2039   4.768   2.108   4.360 -0.1672  0.0304  0.0123
   16SAPS   H5R 2040   4.690   2.151   4.296 -0.7526 -1.3675 -0.2415
   16SAPS   C26 2041   4.852   2.199   4.411  0.3207 -0.1051  0.3031
   16SAPS   H6R 2042   4.818   2.301   4.388 -3.0549 -1.1914 -0.1210
   16SAPS   C27 2043   4.969   2.163   4.500  0.8027  0.7487 -0.8418
   16SAPS   H7R 2044   5.065   2.194   4.453 -0.5222  0.6034 -3.8763
   16SAPS   H7S 2045   4.962   2.055   4.524 -1.3050  1.5430  2.8227
   16SAPS   C28 2046   4.956   2.236   4.631  0.0816  0.1370  1.6113
   16SAPS   H8R 2047   4.907   2.167   4.702  0.1049  0.1735  1.6627
   16SAPS   C29 2048   5.014   2.347   4.668 -0.7155 -0.8179 -0.0657
   16SAPS   H9R 2049   4.996   2.396   4.765 -0.5025  1.9510 -1.3189
   16SAPS  C210 2050   5.108   2.438   4.583  0.1236  0.3733 -0.2366
   16SAPS  H10R 2051   5.073   2.459   4.479 -0.3619  1.0125  0.0559
   16SAPS  H10S 2052   5.205   2.384   4.573  0.5452  0.7923  1.3318
   16SAPS  C211 2053   5.140   2.576   4.643  0.9095 -0.1975 -0.2370
   16SAPS  H11R 2054   5.200   2.569   4.735 -0.0578  0.2489  0.4464
   16SAPS  C212 2055   5.069   2.690   4.624 -0.2074 -0.6906  0.2413
   16SAPS  H12R 2056   5.096   2.774   4.691 -0.7358  0.2573 -0.7186
   16SAPS  C213 2057   4.967   2.707   4.517 -0.5737 -0.1062  0.4912
   16SAPS  H13R 2058   4.867   2.666   4.542 -0.6409 -0.5358 -0.4427
   16SAPS  H13S 2059   5.004   2.647   4.431  0.9136  1.1541  0.2175
   16SAPS  C214 2060   4.938   2.852   4.482  0.7777 -0.4020  0.9412
   16SAPS  H14R 2061   4.977   2.893   4.388 -0.0932  1.6257  1.4097
   16SAPS  C215 2062   4.851   2.933   4.552 -0.1881  0.2342 -0.0299
   16SAPS  H15R 2063   4.841   3.040   4.526 -0.3082  0.3155  0.3324
   16SAPS  C216 2064   4.775   2.901   4.682 -0.7037 -0.2489  0.2350
   16SAPS  H16R 2065   4.813   2.801   4.713  0.7956 -0.0401 -0.8088
   16SAPS  H16S 2066   4.665   2.908   4.666 -1.2087  0.5235  3.4471
   16SAPS  C217 2067   4.824   2.986   4.805  0.8407  0.2551  0.5653
   16SAPS  H17R 2068   4.803   3.093   4.785 -0.0585 -0.0331 -0.1037
   16SAPS  H17S 2069   4.931   2.968   4.826  1.2715  0.9401 -0.8838
   16SAPS  C218 2070   4.735   2.953   4.927  0.5314 -0.1519 -0.0498
   16SAPS  H18R 2071   4.748   2.844   4.944 -0.9527 -0.3313  0.1104
   16SAPS  H18S 2072   4.626   2.966   4.911  0.2375 -2.1488  0.1258
   16SAPS  C219 2073   4.790   3.026   5.049  0.5927 -0.2863  0.1398
   16SAPS  H19R 2074   4.702   3.058   5.108 -1.3434 -2.7981 -1.1990
   16SAPS  H19S 2075   4.839   3.121   5.017 -3.8786  2.7808  1.3917
   16SAPS  C220 2076   4.874   2.936   5.140  0.0723 -0.1828 -0.6580
   16SAPS  H20R 2077   4.882   2.983   5.240  0.5300 -2.8891  0.6666
   16SAPS  H20S 2078   4.980   2.939   5.107 -0.4160 -0.5407 -2.3856
   16SAPS  H20T 2079   4.836   2.832   5.154  0.1761  0.0152  1.3511
   16SAPS   C33 2080   5.467   2.127   4.347  0.3419  0.5188 -0.2212
   16SAPS   H3X 2081   5.522   2.216   4.310 -0.5923  0.9011 -0.7260
   16SAPS   H3Y 2082   5.508   2.041   4.289  2.1489  1.7130 -0.7836
   16SAPS   C34 2083   5.503   2.100   4.500 -0.0109 -0.3809  0.0014
   16SAPS   H4X 2084   5.612   2.092   4.521 -0.0068  0.2573  0.2452
   16SAPS   H4Y 2085   5.453   2.010   4.541 -1.3275  0.8611  1.2471
   16SAPS   C35 2086   5.454   2.216   4.586  0.4604  0.2156 -0.1136
   16SAPS   H5X 2087   5.353   2.245   4.550 -0.5288  2.1012  3.6959
   16SAPS   H5Y 2088   5.519   2.304   4.567  1.3024 -0.3897 -0.1186
   16SAPS   C36 2089   5.451   2.189   4.737 -0.6784 -0.1401 -0.0441
   16SAPS   H6X 2090   5.542   2.228   4.787 -1.8827 -0.0544  2.2190
   16SAPS   H6Y 2091   5.468   2.080   4.753 -0.4913 -0.2683 -1.0690
   16SAPS   C37 2092   5.310   2.226   4.793  0.0593  0.5626 -0.0474
   16SAPS   H7X 2093   5.243   2.169   4.725 -0.5193  0.5376  0.5267
   16SAPS   H7Y 2094   5.285   2.334   4.792  1.4559  0.9215  0.6993
   16SAPS   C38 2095   5.285   2.179   4.936 -0.0606  0.1084  0.1004
   16SAPS   H8X 2096   5.351   2.236   5.005  1.7020  0.5028 -1.8002
   16SAPS   H8Y 2097   5.321   2.075   4.947  1.7399  0.8726  2.0670
   16SAPS   C39 2098   5.144   2.189   4.992 -0.1051  0.4053 -0.3676
   16SAPS   H9X 2099   5.126   2.090   5.040  0.1248  0.4876 -0.1078
   16SAPS   H9Y 2100   5.068   2.199   4.912 -0.9169  0.9191  0.4574
   16SAPS  C310 2101   5.124   2.310   5.084 -0.0206  0.1097 -0.3391
   16SAPS  H10X 2102   5.167   2.398   5.032 -0.6115 -0.6569 -2.1909
   16SAPS  H10Y 2103   5.186   2.303   5.177 -0.6402 -1.0924 -0.0080
   16SAPS  C311 2104   4.979   2.339   5.126  0.2659  0.4165 -0.2568
   16SAPS  H11X 2105   4.900   2.334   5.047 -2.1998 -0.4980  2.1208
   16SAPS  H11Y 2106   4.978   2.439   5.173  1.6871  0.2745  0.1296
   16SAPS  C312 2107   4.936   2.244   5.240  0.5979  0.0283 -0.8550
   16SAPS  H12X 2108   5.004   2.257   5.327 -0.1027  3.4070 -0.6893
   16SAPS  H12Y 2109   4.935   2.145   5.188  2.5162 -0.7271  0.4530
   16SAPS  C313 2110   4.797   2.278   5.293  0.1995 -0.1159 -0.6530
   16SAPS  H13X 2111   4.728   2.276   5.206  0.0545 -0.0848 -0.5391
   16SAPS  H13Y 2112   4.788   2.385   5.323 -4.3446 -0.3143 -0.6541
   16SAPS  C314 2113   4.748   2.178   5.400 -1.1040 -0.4059  0.2947
   16SAPS  H14X 2114   4.831   2.179   5.474  0.6863  1.2094 -1.6163
   16SAPS  H14Y 2115   4.754   2.074   5.361  1.3477 -0.3863  0.4749
   16SAPS  C315 2116   4.621   2.207   5.476 -0.1103 -0.1200  0.8423
   16SAPS  H15X 2117   4.610   2.124   5.549  2.3758 -2.8562 -1.5889
   16SAPS  H15Y 2118   4.530   2.209   5.412 -0.5471  0.0703  1.4670
   16SAPS  C316 2119   4.642   2.328   5.558 -0.0252  0.4183  0.1909
   16SAPS  H16X 2120   4.655   2.425   5.506 -0.1242  0.9415  1.1066
   16SAPS  H16Y 2121   4.727   2.309   5.627 -0.7430  2.3619  1.7126
   16SAPS  C317 2122   4.535   2.359   5.665  0.4716  0.0706 -0.3159
   16SAPS  H17X 2123   4.577   2.449   5.715  1.4372  0.7589 -2.2471
   16SAPS  H17Y 2124   4.534   2.276   5.738 -1.0897  1.7476  1.6866
   16SAPS  C318 2125   4.387   2.397   5.628  0.1120  0.0828 -0.1408
   16SAPS  H18X 2126   4.326   2.425   5.716 -0.1571  0.2335 -0.3737
   16SAPS  H18Y 2127   4.327   2.316   5.580 -2.7627  0.9414  1.7278
   16SAPS  H18Z 2128   4.389   2.472   5.546 -3.1838  0.6023  0.1170
   17SAPS     N 2129   3.134   2.122   2.956 -0.2639  0.2107  0.0988
   17SAPS   HN1 2130   3.213   2.068   2.915 -0.8667 -0.1279 -0.6474
   17SAPS   HN2 2131   3.075   2.056   3.012  0.4352 -1.5164 -1.1028
   17SAPS   HN3 2132   3.085   2.181   2.886  2.0269  0.5403 -1.3163
   17SAPS   C12 2133   3.193   2.218   3.056  0.5114  0.6192  0.1666
   17SAPS  H12A 2134   3.267   2.167   3.117 -0.2372 -0.5834  0.1138
   17SAPS   C13 2135   3.245   2.349   2.990 -0.0903  0.3305 -0.4262
   17SAPS  O13A 2136   3.226   2.375   2.870 -0.1370  0.2640 -0.0772
   17SAPS  O13B 2137   3.328   2.414   3.057  0.1243 -0.4795  0.2821
   17SAPS   C11 2138   3.088   2.247   3.163  0.7768 -0.0174  0.5321
   17SAPS  H11A 2139   3.003   2.282   3.101 -1.4010 -3.0527  1.5922
   17SAPS  H11B 2140   3.139   2.334   3.209  2.9758 -1.2133  0.5169
   17SAPS     P 2141   3.125   2.111   3.373 -0.2242  0.0054  0.3504
   17SAPS   O13 2142   3.069   2.207   3.468  0.4641 -0.2552 -0.2718
   17SAPS   O14 2143   3.111   1.963   3.392  0.1002  0.3898 -0.9415
   17SAPS   O12 2144   3.050   2.129   3.240 -0.0475  0.3410  0.4546
   17SAPS   O11 2145   3.273   2.139   3.331  0.6482  0.0395 -0.0628
   17SAPS    C1 2146   3.391   2.091   3.403  0.9166  0.5297  0.2215
   17SAPS    HA 2147   3.373   1.996   3.458 -2.2620 -0.3389 -2.0349
   17SAPS    HB 2148   3.469   2.083   3.325  0.4139 -0.3266 -0.2067
   17SAPS    C2 2149   3.445   2.190   3.512 -0.3144 -1.0723 -0.2562
   17SAPS    HS 2150   3.528   2.132   3.559  0.0526  0.1272  0.6081
   17SAPS   O21 2151   3.337   2.223   3.611 -0.4480 -0.1349  0.5912
   17SAPS   C21 2152   3.342   2.136   3.712  0.4542 -0.1441  0.1305
   17SAPS   O22 2153   3.427   2.046   3.725  0.1164 -0.8730 -0.1061
   17SAPS   C22 2154   3.221   2.158   3.806  0.7733  0.4468 -0.3072
   17SAPS   H2R 2155   3.220   2.267   3.827  1.1061  0.5769 -0.9376
   17SAPS   H2S 2156   3.124   2.135   3.757 -0.0309 -0.5123  1.6219
   17SAPS    C3 2157   3.497   2.312   3.436  0.2147  0.1551  0.2093
   17SAPS    HX 2158   3.413   2.352   3.375 -1.0793 -0.4006  1.5584
   17SAPS    HY 2159   3.577   2.274   3.370 -0.3596 -1.3845  0.3531
   17SAPS   O31 2160   3.551   2.406   3.532 -0.5093  0.5652  0.2768
   17SAPS   C31 2161   3.473   2.505   3.574 -0.3039 -0.3330 -0.0533
   17SAPS   O32 2162   3.358   2.528   3.534  0.3582 -0.6283  0.1073
   17SAPS   C32 2163   3.534   2.587   3.689 -0.1723 -0.5785  0.3245
   17SAPS   H2X 2164   3.557   2.685   3.642 -0.6173 -0.2463  0.7868
   17SAPS   H2Y 2165   3.628   2.531   3.709 -0.0668 -0.8528 -0.8537
   17SAPS   C23 2166   3.214   2.082   3.939  0.2499  0.6777 -0.0852
   17SAPS   H3R 2167   3.172   2.145   4.020  2.9531  1.0371  1.1305
   17SAPS   H3S 2168   3.320   2.069   3.971  0.4132  0.8510 -0.5498
   17SAPS   C24 2169   3.138   1.946   3.934 -0.5973  0.5871 -0.0559
   17SAPS   H4R 2170   3.149   1.894   4.031 -4.0440 -0.5094 -0.1337
   17SAPS   H4S 2171   3.190   1.885   3.857 -0.3410 -0.4514  0.9150
   17SAPS   C25 2172   2.988   1.949   3.896 -0.0233  0.0921 -0.1446
   17SAPS   H5R 2173   2.973   1.931   3.788 -0.5310  0.5964 -0.1617
   17SAPS   C26 2174   2.883   1.966   3.978 -0.1812 -0.0837  0.1833
   17SAPS   H6R 2175   2.784   1.951   3.931 -1.1606 -0.8212  2.3379
   17SAPS   C27 2176   2.891   1.990   4.121  0.5870  0.5036  0.0211
   17SAPS   H7R 2177   2.989   1.966   4.166  0.9983  1.1153 -0.5387
   17SAPS   H7S 2178   2.829   1.919   4.180  0.4589 -0.4603 -1.2588
   17SAPS   C28 2179   2.848   2.133   4.165 -0.7308  0.3253  0.3292
   17SAPS   H8R 2180   2.759   2.178   4.119  0.0641 -0.1130 -1.7786
   17SAPS   C29 2181   2.918   2.203   4.255 -0.2110 -0.4263  0.5746
   17SAPS   H9R 2182   2.873   2.300   4.282 -0.4187 -0.3893  0.0998
   17SAPS  C210 2183   3.051   2.168   4.326 -0.0987 -0.0928  0.7859
   17SAPS  H10R 2184   3.130   2.171   4.247 -0.6476 -0.8125  0.2013
   17SAPS  H10S 2185   3.044   2.063   4.361  1.5330 -0.5682 -0.2222
   17SAPS  C211 2186   3.075   2.254   4.444  0.3836 -0.6424 -0.2297
   17SAPS  H11R 2187   3.140   2.341   4.431  0.8675 -1.1083 -0.9869
   17SAPS  C212 2188   3.030   2.227   4.571 -0.1143 -0.2778 -0.1718
   17SAPS  H12R 2189   3.049   2.296   4.655  0.7142 -0.3356 -0.2953
   17SAPS  C213 2190   2.945   2.110   4.614  0.2439  0.1532  0.2636
   17SAPS  H13R 2191   2.947   2.019   4.550  0.5595  1.2653 -1.3770
   17SAPS  H13S 2192   2.841   2.144   4.594 -0.2015 -0.2839  1.7088
   17SAPS  C214 2193   2.962   2.083   4.765 -0.6663 -0.3112 -0.2575
   17SAPS  H14R 2194   3.061   2.046   4.795 -1.0455 -1.4937 -0.4251
   17SAPS  C215 2195   2.878   2.133   4.856 -0.4290  0.6495  0.4235
   17SAPS  H15R 2196   2.903   2.111   4.961  0.2220 -0.7662 -0.0068
   17SAPS  C216 2197   2.755   2.216   4.837 -0.1957  0.4194 -0.4143
   17SAPS  H16R 2198   2.691   2.179   4.755  1.4448 -0.2750 -1.4482
   17SAPS  H16S 2199   2.783   2.322   4.817 -3.6183  1.5460  0.2192
   17SAPS  C217 2200   2.668   2.219   4.959  0.1334 -0.2529 -0.3121
   17SAPS  H17R 2201   2.651   2.116   4.999  1.1030  0.4124  1.9712
   17SAPS  H17S 2202   2.568   2.254   4.925 -0.8902 -0.9733  1.7773
   17SAPS  C218 2203   2.704   2.318   5.075 -0.6491  0.1599 -0.1787
   17SAPS  H18R 2204   2.729   2.418   5.033 -0.8419 -0.2179 -1.2408
   17SAPS  H18S 2205   2.793   2.278   5.127 -0.7170  0.7194  0.3644
   17SAPS  C219 2206   2.586   2.320   5.177  0.1765 -0.6009  0.1913
   17SAPS  H19R 2207   2.628   2.358   5.273 -0.5781 -1.3344  0.8373
   17SAPS  H19S 2208   2.557   2.213   5.190 -1.4553 -0.1098  0.8350
   17SAPS  C220 2209   2.471   2.400   5.137 -0.7283 -0.3462  0.7041
   17SAPS  H20R 2210   2.515   2.497   5.107 -0.4302 -0.5131  0.6058
   17SAPS  H20S 2211   2.391   2.397   5.215 -1.0870 -4.2000  0.3879
   17SAPS  H20T 2212   2.434   2.352   5.044  0.5122  0.6310 -0.3190
   17SAPS   C33 2213   3.439   2.598   3.807  0.0778 -0.3472 -0.7019
   17SAPS   H3X 2214   3.409   2.505   3.858 -2.1229  1.6001  1.8111
   17SAPS   H3Y 2215   3.347   2.630   3.754 -0.6096 -3.5503 -1.6376
   17SAPS   C34 2216   3.477   2.703   3.916 -0.1721 -0.3154  0.1849
   17SAPS   H4X 2217   3.380   2.741   3.952  0.0686  3.7050 -2.7375
   17SAPS   H4Y 2218   3.533   2.788   3.871 -2.1107  1.2874  0.7048
   17SAPS   C35 2219   3.554   2.654   4.033  0.5311 -0.2610 -0.1112
   17SAPS   H5X 2220   3.661   2.632   4.013  0.6579  0.9330 -0.8082
   17SAPS   H5Y 2221   3.508   2.562   4.077 -0.4994 -0.1205 -0.8641
   17SAPS   C36 2222   3.577   2.753   4.140 -0.3959 -0.1120  0.0514
   17SAPS   H6X 2223   3.479   2.795   4.173  0.1691 -0.0380  1.7747
   17SAPS   H6Y 2224   3.627   2.842   4.095 -1.0581  0.3305  0.1796
   17SAPS   C37 2225   3.659   2.708   4.257 -0.4437  0.0193  1.0342
   17SAPS   H7X 2226   3.758   2.673   4.220 -0.9194 -0.4716  0.1773
   17SAPS   H7Y 2227   3.599   2.619   4.285 -3.9399  2.3946  1.7258
   17SAPS   C38 2228   3.681   2.799   4.384  0.1626  0.3019  0.3310
   17SAPS   H8X 2229   3.578   2.830   4.412  0.5480  1.9511  0.0558
   17SAPS   H8Y 2230   3.734   2.894   4.358  1.9955 -1.0889 -1.3389
   17SAPS   C39 2231   3.750   2.720   4.494 -0.1137 -0.0703  0.1026
   17SAPS   H9X 2232   3.851   2.681   4.465  0.6808  1.9380  0.0064
   17SAPS   H9Y 2233   3.679   2.639   4.522  0.2478 -0.9576 -1.3914
   17SAPS  C310 2234   3.769   2.808   4.621  0.0393  0.2802  0.2697
   17SAPS  H10X 2235   3.662   2.833   4.640  0.4168  2.2377 -0.0029
   17SAPS  H10Y 2236   3.829   2.900   4.608  0.4329 -0.2146 -1.7949
   17SAPS  C311 2237   3.844   2.747   4.747 -0.3457 -0.2702 -0.2361
   17SAPS  H11X 2238   3.947   2.720   4.717 -0.1724  0.8832 -0.7404
   17SAPS  H11Y 2239   3.793   2.654   4.781 -0.5156 -1.0975 -2.5751
   17SAPS  C312 2240   3.865   2.841   4.864  0.5585 -0.1665 -0.3887
   17SAPS  H12X 2241   3.944   2.917   4.843 -1.1125  1.3490 -1.4625
   17SAPS  H12Y 2242   3.902   2.780   4.949  2.6240  2.6860  0.9524
   17SAPS  C313 2243   3.731   2.909   4.917  0.1194 -0.2839 -0.3596
   17SAPS  H13X 2244   3.652   2.831   4.929 -0.0272 -0.8194 -3.7356
   17SAPS  H13Y 2245   3.698   2.970   4.831  1.9073  2.0318  0.4917
   17SAPS  C314 2246   3.751   2.978   5.051 -0.8924 -0.1618 -0.4382
   17SAPS  H14X 2247   3.818   3.067   5.047 -1.6553  0.4386 -0.0518
   17SAPS  H14Y 2248   3.794   2.898   5.114 -0.3708  0.3962 -0.0721
   17SAPS  C315 2249   3.631   3.038   5.133 -0.2680 -0.2066 -0.5530
   17SAPS  H15X 2250   3.546   2.966   5.121  0.8466 -1.3195 -2.2601
   17SAPS  H15Y 2251   3.614   3.137   5.086  0.9823  0.9418  1.2916
   17SAPS  C316 2252   3.665   3.062   5.283 -0.3000  0.2241 -0.5894
   17SAPS  H16X 2253   3.766   3.109   5.293  0.2417 -1.1292  0.5671
   17SAPS  H16Y 2254   3.677   2.963   5.330  0.4872  0.8313  0.5364
   17SAPS  C317 2255   3.561   3.149   5.348  0.2415 -0.2831 -0.1340
   17SAPS  H17X 2256   3.461   3.101   5.358 -1.8687  3.6149 -0.6538
   17SAPS  H17Y 2257   3.565   3.244   5.291 -1.8544 -0.4955 -0.7146
   17SAPS  C318 2258   3.597   3.201   5.487 -0.4549 -0.7908 -0.5012
   17SAPS  H18X 2259   3.566   3.118   5.553 -1.3071  0.7380  1.0983
   17SAPS  H18Y 2260   3.555   3.301   5.513  1.4700 -0.5783  2.2591
   17SAPS  H18Z 2261   3.706   3.222   5.495 -0.8963  2.2739 -1.0452
   18SAPS     N 2262   1.541   2.068   3.267 -0.7746 -0.0719  0.1091
   18SAPS   HN1 2263   1.638   2.039   3.291 -1.2254 -0.9356  0.9326
   18SAPS   HN2 2264   1.538   2.172   3.273  1.1604 -0.0475  1.4797
   18SAPS   HN3 2265   1.472   2.034   3.336 -1.4286 -0.3061 -0.6409
   18SAPS   C12 2266   1.495   2.025   3.128 -0.0796 -0.3803  0.1898
   18SAPS  H12A 2267   1.387   2.025   3.129 -0.1398  0.0915 -1.7403
   18SAPS   C13 2268   1.532   2.112   3.006  0.4009 -0.1065 -0.3970
   18SAPS  O13A 2269   1.617   2.196   3.026 -0.2287 -0.8162  0.5005
   18SAPS  O13B 2270   1.490   2.086   2.892  0.1251 -0.2638  0.7647
   18SAPS   C11 2271   1.536   1.881   3.095  0.5408 -0.1035 -0.3455
   18SAPS  H11A 2272   1.645   1.864   3.083  1.1297  3.4686 -1.2398
   18SAPS  H11B 2273   1.483   1.854   3.001 -2.2993 -2.2493  1.6893
   18SAPS     P 2274   1.501   1.642   3.169 -0.5074  0.4544 -0.0467
   18SAPS   O13 2275   1.387   1.584   3.106 -0.6974  0.8691 -0.1703
   18SAPS   O14 2276   1.630   1.622   3.095 -0.0127 -0.0084 -0.2210
   18SAPS   O12 2277   1.480   1.797   3.198  0.0031  0.2072  0.3359
   18SAPS   O11 2278   1.512   1.572   3.311  0.3291  0.1228 -0.1108
   18SAPS    C1 2279   1.429   1.592   3.426  0.2306  0.5356  0.0151
   18SAPS    HA 2280   1.327   1.619   3.392  0.1672 -1.1409 -1.2351
   18SAPS    HB 2281   1.411   1.494   3.475 -0.5912  0.6138 -0.1253
   18SAPS    C2 2282   1.483   1.702   3.525  0.3470 -0.6783 -0.0089
   18SAPS    HS 2283   1.489   1.800   3.474 -0.4391 -0.2367  0.7396
   18SAPS   O21 2284   1.613   1.669   3.574 -0.2594  0.0237  1.1075
   18SAPS   C21 2285   1.688   1.770   3.597  0.2443 -0.1518  0.5263
   18SAPS   O22 2286   1.653   1.889   3.598 -0.7809 -0.4284 -0.0268
   18SAPS   C22 2287   1.837   1.722   3.608  0.3297  0.0101  0.0892
   18SAPS   H2R 2288   1.865   1.687   3.506 -0.9008 -1.3942  0.1989
   18SAPS   H2S 2289   1.910   1.795   3.649  0.4841 -0.8385  1.3718
   18SAPS    C3 2290   1.380   1.712   3.640  0.2295 -0.2696 -0.3718
   18SAPS    HX 2291   1.276   1.737   3.610  0.2431  3.4594  2.0542
   18SAPS    HY 2292   1.408   1.794   3.708 -2.5061 -1.2996  2.1989
   18SAPS   O31 2293   1.383   1.592   3.725  0.0810 -0.0668 -0.1428
   18SAPS   C31 2294   1.289   1.604   3.833  0.5413  0.4984 -0.0405
   18SAPS   O32 2295   1.225   1.703   3.849 -0.0138 -0.3736  0.0413
   18SAPS   C32 2296   1.310   1.477   3.915  0.3919 -0.1819  0.1717
   18SAPS   H2X 2297   1.418   1.449   3.910  0.5191  0.5140 -2.5980
   18SAPS   H2Y 2298   1.248   1.399   3.867  0.3767  0.9323 -1.7200
   18SAPS   C23 2299   1.851   1.598   3.697  0.3152 -0.6008 -0.0199
   18SAPS   H3R 2300   1.957   1.567   3.683  1.0536  2.0298 -0.7632
   18SAPS   H3S 2301   1.782   1.514   3.675  0.4047 -0.1231 -2.3474
   18SAPS   C24 2302   1.843   1.621   3.852 -0.1126  0.2031 -0.8170
   18SAPS   H4R 2303   1.916   1.701   3.878  0.0300 -0.4710  1.0321
   18SAPS   H4S 2304   1.879   1.537   3.915  0.1463  0.3316 -0.7894
   18SAPS   C25 2305   1.698   1.653   3.890  0.6425 -0.8875 -0.0805
   18SAPS   H5R 2306   1.628   1.569   3.883  0.6468 -1.1022  1.8169
   18SAPS   C26 2307   1.654   1.767   3.937  0.0720 -0.8483  1.1619
   18SAPS   H6R 2308   1.545   1.778   3.938  0.1222  2.7718 -2.6691
   18SAPS   C27 2309   1.746   1.887   3.970  0.8002  0.0343 -0.5236
   18SAPS   H7R 2310   1.764   1.955   3.884 -3.3724 -0.3040 -1.8800
   18SAPS   H7S 2311   1.846   1.861   4.012  0.8785  0.5394 -0.3937
   18SAPS   C28 2312   1.680   1.978   4.076  0.1417  0.1854 -0.5256
   18SAPS   H8R 2313   1.600   2.040   4.035 -0.0862 -1.9920 -3.7025
   18SAPS   C29 2314   1.718   1.996   4.204 -0.7148 -0.0288 -0.0295
   18SAPS   H9R 2315   1.656   2.063   4.266 -0.4597  0.6669 -0.5212
   18SAPS  C210 2316   1.831   1.931   4.281  0.3380 -0.1129 -0.6632
   18SAPS  H10R 2317   1.856   1.836   4.228  1.0340  0.7041 -1.8613
   18SAPS  H10S 2318   1.800   1.904   4.384 -0.3090  1.4274 -0.4356
   18SAPS  C211 2319   1.958   2.007   4.270 -0.1103 -0.5211 -0.3412
   18SAPS  H11R 2320   1.990   2.033   4.168 -0.8942 -0.3973 -0.5648
   18SAPS  C212 2321   2.046   2.042   4.370 -0.4629 -0.4688 -0.4108
   18SAPS  H12R 2322   2.143   2.091   4.353 -0.1610 -0.5479  0.9123
   18SAPS  C213 2323   2.034   2.013   4.523 -0.0555  0.9140  0.1802
   18SAPS  H13R 2324   1.972   1.921   4.524  3.2899 -1.6039 -1.9890
   18SAPS  H13S 2325   1.975   2.088   4.580 -0.2676 -0.1057  1.3308
   18SAPS  C214 2326   2.169   1.981   4.592  0.0277 -0.3112  0.0150
   18SAPS  H14R 2327   2.204   1.878   4.577  3.7455  0.7152  0.8047
   18SAPS  C215 2328   2.223   2.048   4.690 -0.1274 -0.2926 -0.1136
   18SAPS  H15R 2329   2.316   2.006   4.731  0.4445  0.4633 -0.6094
   18SAPS  C216 2330   2.185   2.188   4.740  0.5395  0.2334 -0.0313
   18SAPS  H16R 2331   2.137   2.178   4.840 -1.6964  3.1678 -0.6777
   18SAPS  H16S 2332   2.109   2.236   4.676 -1.0056 -1.3036  0.5569
   18SAPS  C217 2333   2.312   2.277   4.741  0.4270 -0.2098  0.1100
   18SAPS  H17R 2334   2.388   2.239   4.813  0.3015  1.3355  1.0965
   18SAPS  H17S 2335   2.286   2.377   4.782 -0.7555  0.2015 -1.5699
   18SAPS  C218 2336   2.365   2.300   4.598 -0.3465 -0.3543 -0.5892
   18SAPS  H18R 2337   2.293   2.348   4.529 -0.9074 -1.8400 -1.0700
   18SAPS  H18S 2338   2.389   2.204   4.548 -2.9745 -1.1309 -0.4995
   18SAPS  C219 2339   2.485   2.398   4.604  0.6912  0.6312  0.2962
   18SAPS  H19R 2340   2.535   2.382   4.702 -0.5988 -0.7989  0.7692
   18SAPS  H19S 2341   2.445   2.501   4.604  0.1244  0.4251 -0.3795
   18SAPS  C220 2342   2.587   2.366   4.490 -0.2260  0.7029  0.0856
   18SAPS  H20R 2343   2.668   2.441   4.474  2.5758 -1.6033  2.4786
   18SAPS  H20S 2344   2.525   2.348   4.399  0.0811  0.1360 -0.0144
   18SAPS  H20T 2345   2.648   2.278   4.517 -0.0911  1.6228  3.0930
   18SAPS   C33 2346   1.271   1.492   4.065 -0.6054  0.4507  0.0169
   18SAPS   H3X 2347   1.283   1.392   4.111  0.3575  1.0660  1.1514
   18SAPS   H3Y 2348   1.163   1.516   4.068 -0.3290  1.7501  0.2729
   18SAPS   C34 2349   1.356   1.600   4.133 -0.4511 -0.1622 -0.2643
   18SAPS   H4X 2350   1.340   1.706   4.103 -0.7604 -0.3793 -0.8712
   18SAPS   H4Y 2351   1.463   1.578   4.113  0.3527  0.3999  2.9099
   18SAPS   C35 2352   1.350   1.596   4.287 -0.5283  0.3919 -0.1500
   18SAPS   H5X 2353   1.367   1.491   4.318  0.6502 -0.0886 -2.2768
   18SAPS   H5Y 2354   1.249   1.634   4.315 -1.1799 -0.6418 -1.0421
   18SAPS   C36 2355   1.467   1.681   4.346  0.3924  0.9598  0.6940
   18SAPS   H6X 2356   1.458   1.780   4.296 -1.6638 -0.3143 -1.7102
   18SAPS   H6Y 2357   1.561   1.630   4.316  0.0613  1.5839 -1.6245
   18SAPS   C37 2358   1.465   1.695   4.495  0.5223 -0.4357  0.3023
   18SAPS   H7X 2359   1.469   1.603   4.556  0.1216 -0.0907  0.8565
   18SAPS   H7Y 2360   1.374   1.752   4.523  1.5650  0.6673  1.6337
   18SAPS   C38 2361   1.566   1.786   4.553  0.5617 -0.2207  0.0956
   18SAPS   H8X 2362   1.539   1.887   4.514 -0.6207 -0.5094  0.1126
   18SAPS   H8Y 2363   1.666   1.757   4.516  0.2859 -2.0448  0.6989
   18SAPS   C39 2364   1.573   1.774   4.710  0.3656  0.0999 -0.2295
   18SAPS   H9X 2365   1.622   1.685   4.754  0.7305  0.1261 -0.5683
   18SAPS   H9Y 2366   1.473   1.760   4.755  0.4650  0.6835  0.1945
   18SAPS  C310 2367   1.650   1.903   4.771 -0.4024 -0.0798  0.4007
   18SAPS  H10X 2368   1.627   1.999   4.719 -0.2954  0.5693  1.4995
   18SAPS  H10Y 2369   1.753   1.881   4.736 -0.5544  3.1158 -2.6090
   18SAPS  C311 2370   1.656   1.918   4.918 -0.0032 -0.3878  0.2363
   18SAPS  H11X 2371   1.669   1.817   4.964  0.3597 -1.4843 -2.1147
   18SAPS  H11Y 2372   1.560   1.960   4.953 -0.7801 -1.4711 -0.5592
   18SAPS  C312 2373   1.775   2.002   4.954 -0.2052  0.4757 -1.1129
   18SAPS  H12X 2374   1.779   2.095   4.894  0.4507  1.7831  0.8578
   18SAPS  H12Y 2375   1.866   1.939   4.939  0.3232  0.9371  0.0073
   18SAPS  C313 2376   1.760   2.047   5.104 -0.0068  0.9764 -0.7152
   18SAPS  H13X 2377   1.733   1.953   5.158  0.8579  0.6981 -0.7498
   18SAPS  H13Y 2378   1.675   2.117   5.111 -0.4883  0.3165  0.3324
   18SAPS  C314 2379   1.884   2.111   5.173 -0.0609 -0.0169  0.2823
   18SAPS  H14X 2380   1.969   2.038   5.174 -0.4357 -0.5150 -1.0193
   18SAPS  H14Y 2381   1.868   2.142   5.278 -0.3048  4.3663 -0.8880
   18SAPS  C315 2382   1.923   2.244   5.107  0.1975  0.2319  0.2073
   18SAPS  H15X 2383   1.839   2.312   5.133  0.4009  0.9862 -1.0568
   18SAPS  H15Y 2384   1.925   2.230   4.997 -0.3596 -1.8441  0.4074
   18SAPS  C316 2385   2.054   2.293   5.157  0.5176 -0.1620 -0.9546
   18SAPS  H16X 2386   2.140   2.236   5.115  0.1138  0.4115 -2.6168
   18SAPS  H16Y 2387   2.054   2.287   5.268  1.3025  1.0528 -0.8672
   18SAPS  C317 2388   2.085   2.442   5.121 -0.3200 -0.2069 -0.6666
   18SAPS  H17X 2389   2.059   2.450   5.013  0.4992 -0.5236 -0.8921
   18SAPS  H17Y 2390   2.194   2.456   5.138  0.2552 -1.2016 -3.1397
   18SAPS  C318 2391   2.011   2.539   5.211 -0.5206  0.8469  0.4570
   18SAPS  H18X 2392   2.082   2.625   5.213 -0.7195  1.0595 -0.6129
   18SAPS  H18Y 2393   2.001   2.488   5.309 -0.7316 -4.2269 -1.8644
   18SAPS  H18Z 2394   1.911   2.567   5.172 -0.5865  0.2956  0.2189
   19SAPS     N 2395   3.436   4.754   3.332  0.0023  0.0506 -0.4901
   19SAPS   HN1 2396   3.393   4.816   3.403 -0.6428 -0.6071 -0.2986
   19SAPS   HN2 2397   3.373   4.762   3.249  0.3661 -0.5910 -0.8448
   19SAPS   HN3 2398   3.421   4.660   3.374 -0.3936  0.3680  0.0769
   19SAPS   C12 2399   3.571   4.802   3.297 -0.4920  0.6472  0.7158
   19SAPS  H12A 2400   3.627   4.782   3.387  0.8637 -2.0879 -0.6206
   19SAPS   C13 2401   3.647   4.725   3.192  0.2497  0.7307  0.2349
   19SAPS  O13A 2402   3.595   4.623   3.137 -0.7897  0.5051 -0.1568
   19SAPS  O13B 2403   3.768   4.757   3.157  0.3946 -0.0619  0.4668
   19SAPS   C11 2404   3.568   4.949   3.248 -0.1642 -0.5735 -0.2640
   19SAPS  H11A 2405   3.505   4.946   3.156 -1.5038  0.0415  0.5996
   19SAPS  H11B 2406   3.671   4.988   3.228  0.3543 -0.6968  1.9349
   19SAPS     P 2407   3.499   5.189   3.325 -0.0112  0.3145 -0.0539
   19SAPS   O13 2408   3.615   5.245   3.396 -0.1194  0.1486 -0.3111
   19SAPS   O14 2409   3.493   5.220   3.183  0.1928 -0.1240  0.3037
   19SAPS   O12 2410   3.507   5.036   3.342  0.4010 -0.0351  0.1668
   19SAPS   O11 2411   3.370   5.227   3.398  0.2461  0.7308 -0.0833
   19SAPS    C1 2412   3.253   5.175   3.334  0.3956  0.2976  0.4370
   19SAPS    HA 2413   3.239   5.190   3.225  0.1912 -1.6100  0.1808
   19SAPS    HB 2414   3.242   5.066   3.348 -0.5904  0.3598  0.2624
   19SAPS    C2 2415   3.115   5.222   3.394  0.0918  0.9857  0.6022
   19SAPS    HS 2416   3.103   5.333   3.392  3.0882  1.5426  3.9044
   19SAPS   O21 2417   3.106   5.174   3.532  0.0925 -0.0514 -0.2372
   19SAPS   C21 2418   3.180   5.234   3.622  0.2398  0.1522  1.2775
   19SAPS   O22 2419   3.254   5.330   3.607  0.8018  0.1866 -0.2947
   19SAPS   C22 2420   3.132   5.181   3.753  0.5985 -0.5717 -0.7423
   19SAPS   H2R 2421   3.071   5.260   3.802  0.7367 -2.3239  2.6077
   19SAPS   H2S 2422   3.067   5.092   3.741 -0.1030  0.1209 -2.3303
   19SAPS    C3 2423   2.996   5.169   3.317  0.2848  0.2240  0.0090
   19SAPS    HX 2424   2.998   5.060   3.295 -0.9608 -0.1150  1.4027
   19SAPS    HY 2425   3.002   5.202   3.211  0.0022 -0.1582 -0.1315
   19SAPS   O31 2426   2.867   5.209   3.369 -0.3823  0.0291 -0.0310
   19SAPS   C31 2427   2.808   5.123   3.453  0.3654 -0.2773  0.2451
   19SAPS   O32 2428   2.841   5.011   3.486 -0.5790  0.0076  0.5736
   19SAPS   C32 2429   2.696   5.196   3.522 -0.9317  0.1973 -0.2747
   19SAPS   H2X 2430   2.641   5.270   3.460 -1.6942 -0.1554 -0.0328
   19SAPS   H2Y 2431   2.742   5.255   3.604 -0.5319  0.2373 -0.5248
   19SAPS   C23 2432   3.251   5.159   3.860  0.3406 -0.7628 -0.4679
   19SAPS   H3R 2433   3.331   5.233   3.835 -1.1460  1.0533 -0.0551
   19SAPS   H3S 2434   3.286   5.053   3.860  1.0583 -0.5959  2.1580
   19SAPS   C24 2435   3.207   5.201   4.004  1.0239  0.8521  0.5648
   19SAPS   H4R 2436   3.121   5.138   4.037  0.5491  0.7093 -0.8615
   19SAPS   H4S 2437   3.181   5.308   4.006  1.3018  1.0121 -1.5064
   19SAPS   C25 2438   3.311   5.171   4.111  0.3254  0.0727  0.1879
   19SAPS   H5R 2439   3.396   5.240   4.126 -0.0260  0.5699 -0.0983
   19SAPS   C26 2440   3.308   5.082   4.207  0.3209  0.9656 -1.1682
   19SAPS   H6R 2441   3.396   5.082   4.273 -0.0240 -0.0039 -0.6932
   19SAPS   C27 2442   3.205   4.971   4.222 -0.7792 -0.0363 -0.5309
   19SAPS   H7R 2443   3.256   4.874   4.245 -0.2954  0.8045  2.4372
   19SAPS   H7S 2444   3.160   4.945   4.124  1.9414 -1.2557 -1.5890
   19SAPS   C28 2445   3.093   5.017   4.319  0.3740  1.0254  0.3555
   19SAPS   H8R 2446   3.030   5.096   4.276 -0.2002  0.6575  0.5033
   19SAPS   C29 2447   3.049   4.959   4.426 -0.6401  0.6621  0.3667
   19SAPS   H9R 2448   2.969   5.008   4.483 -2.3134 -0.1538 -1.2147
   19SAPS  C210 2449   3.123   4.842   4.485  0.0411 -0.6239 -0.1669
   19SAPS  H10R 2450   3.149   4.775   4.401  0.5092 -2.5389  1.4420
   19SAPS  H10S 2451   3.052   4.782   4.545 -0.5958  0.2545 -0.0160
   19SAPS  C211 2452   3.242   4.886   4.558 -0.1374  0.7586 -0.3710
   19SAPS  H11R 2453   3.321   4.945   4.509  0.9459 -0.8425 -0.6081
   19SAPS  C212 2454   3.267   4.867   4.690  0.0434 -0.2622  0.0390
   19SAPS  H12R 2455   3.359   4.904   4.737  0.7493 -2.0213  0.1060
   19SAPS  C213 2456   3.185   4.784   4.790 -0.5529 -0.4374  0.5201
   19SAPS  H13R 2457   3.245   4.741   4.873 -3.0733  0.7170  3.1256
   19SAPS  H13S 2458   3.152   4.697   4.730  1.0773 -1.0737  0.5032
   19SAPS  C214 2459   3.077   4.870   4.852 -0.2855 -0.0750 -0.8104
   19SAPS  H14R 2460   3.063   4.963   4.795  4.6308  0.2722 -1.8097
   19SAPS  C215 2461   3.013   4.854   4.970 -0.9441 -0.1613 -0.0281
   19SAPS  H15R 2462   2.944   4.934   5.000 -0.1455  1.6902 -2.8152
   19SAPS  C216 2463   3.032   4.745   5.068  0.2157 -0.2072  0.2279
   19SAPS  H16R 2464   3.065   4.783   5.167 -1.2564 -1.0217  1.0690
   19SAPS  H16S 2465   3.108   4.672   5.033  1.9890  1.9636 -0.7130
   19SAPS  C217 2466   2.900   4.661   5.086 -0.2942 -0.0116 -0.2848
   19SAPS  H17R 2467   2.889   4.605   4.991  0.7597  0.1598 -0.5231
   19SAPS  H17S 2468   2.813   4.722   5.117  0.0786  1.8318 -2.6194
   19SAPS  C218 2469   2.929   4.558   5.200 -0.0074 -0.1264  0.2978
   19SAPS  H18R 2470   3.021   4.499   5.181 -0.8259 -1.1819 -0.4948
   19SAPS  H18S 2471   2.837   4.496   5.200 -0.8773  1.0642 -1.5721
   19SAPS  C219 2472   2.939   4.620   5.336  0.0871 -0.3084 -0.2521
   19SAPS  H19R 2473   2.849   4.677   5.367  0.5520 -0.9968  2.6293
   19SAPS  H19S 2474   3.018   4.698   5.344  0.3454 -0.7511  2.4526
   19SAPS  C220 2475   2.960   4.518   5.450  0.4223 -0.4066 -0.3363
   19SAPS  H20R 2476   2.984   4.561   5.549  0.2627 -0.0260 -0.4630
   19SAPS  H20S 2477   3.048   4.451   5.433  0.1725 -0.4419 -1.6533
   19SAPS  H20T 2478   2.874   4.448   5.463 -1.2331  1.4391 -0.9666
   19SAPS   C33 2479   2.596   5.092   3.573 -0.3085 -0.2887 -0.2837
   19SAPS   H3X 2480   2.643   5.006   3.626  1.1482 -0.1674 -1.3190
   19SAPS   H3Y 2481   2.540   5.039   3.493 -0.7020 -1.0219  0.4644
   19SAPS   C34 2482   2.491   5.160   3.664 -0.1481 -0.0335  0.9518
   19SAPS   H4X 2483   2.428   5.228   3.603  3.1038  1.9387 -0.4244
   19SAPS   H4Y 2484   2.546   5.226   3.734  0.2940 -0.2211  0.7829
   19SAPS   C35 2485   2.394   5.064   3.739  0.3905  0.2505 -0.1575
   19SAPS   H5X 2486   2.443   4.982   3.796  0.2154  1.6456  2.0826
   19SAPS   H5Y 2487   2.325   5.021   3.663  1.1193 -1.4382  0.0723
   19SAPS   C36 2488   2.320   5.144   3.845 -0.2596 -0.2088 -0.2908
   19SAPS   H6X 2489   2.283   5.237   3.798 -0.2623 -0.2233 -0.3176
   19SAPS   H6Y 2490   2.392   5.172   3.924 -0.0339  0.1635 -0.6293
   19SAPS   C37 2491   2.203   5.081   3.920  0.3295  0.2470  0.2251
   19SAPS   H7X 2492   2.240   4.981   3.949  0.8853  0.0514 -1.1073
   19SAPS   H7Y 2493   2.128   5.076   3.838  3.8428  0.0729 -3.2626
   19SAPS   C38 2494   2.154   5.143   4.051  0.3170 -0.4329  0.2465
   19SAPS   H8X 2495   2.051   5.106   4.070  0.9728 -2.0424  0.9621
   19SAPS   H8Y 2496   2.145   5.253   4.043  0.8130 -0.0437  3.4593
   19SAPS   C39 2497   2.237   5.119   4.178  0.0612 -0.2262  0.0822
   19SAPS   H9X 2498   2.327   5.182   4.164 -0.9505  1.4083  0.6037
   19SAPS   H9Y 2499   2.260   5.011   4.183 -0.6521 -0.3432  1.5973
   19SAPS  C310 2500   2.171   5.177   4.306 -0.3788 -0.1103  0.2294
   19SAPS  H10X 2501   2.064   5.147   4.313  0.0960 -1.4626  3.5988
   19SAPS  H10Y 2502   2.176   5.287   4.316  2.2642 -0.2221  0.8208
   19SAPS  C311 2503   2.232   5.135   4.434  0.4599 -0.2742 -0.1163
   19SAPS  H11X 2504   2.343   5.141   4.422  0.5578  1.2667  1.2521
   19SAPS  H11Y 2505   2.211   5.026   4.440  0.7572 -0.3069  0.4071
   19SAPS  C312 2506   2.177   5.217   4.559  0.0814 -0.3867  0.1123
   19SAPS  H12X 2507   2.066   5.218   4.551  0.1833 -1.4949 -2.4798
   19SAPS  H12Y 2508   2.211   5.322   4.545  2.3355 -0.8419  1.6247
   19SAPS  C313 2509   2.215   5.147   4.688 -0.2029  0.1945 -1.1344
   19SAPS  H13X 2510   2.325   5.137   4.700 -0.4514  0.1168  1.7749
   19SAPS  H13Y 2511   2.183   5.041   4.688  0.8594 -0.1307 -1.0915
   19SAPS  C314 2512   2.162   5.218   4.814 -0.0684  0.4445 -0.0747
   19SAPS  H14X 2513   2.051   5.230   4.815 -0.2070 -0.0622 -2.4170
   19SAPS  H14Y 2514   2.204   5.320   4.825  0.6044  0.3004 -1.1709
   19SAPS  C315 2515   2.201   5.131   4.934 -0.1962  0.4994  0.3442
   19SAPS  H15X 2516   2.310   5.149   4.945 -0.4047  1.3341  1.1902
   19SAPS  H15Y 2517   2.191   5.024   4.906  0.9983  0.2875  0.6535
   19SAPS  C316 2518   2.150   5.177   5.070  0.0882 -0.2987 -0.3747
   19SAPS  H16X 2519   2.117   5.283   5.057 -0.4898 -0.3533  0.5243
   19SAPS  H16Y 2520   2.231   5.183   5.145 -0.2613 -1.4992  0.1143
   19SAPS  C317 2521   2.038   5.092   5.125  0.1899 -0.2931  0.5218
   19SAPS  H17X 2522   2.067   4.985   5.129  1.0532 -0.1189 -0.4958
   19SAPS  H17Y 2523   1.958   5.099   5.049 -0.8785  2.7788  1.7415
   19SAPS  C318 2524   1.978   5.149   5.255 -0.6130  0.6481 -0.7203
   19SAPS  H18X 2525   2.055   5.138   5.334 -1.3522 -2.2815 -0.3138
   19SAPS  H18Y 2526   1.884   5.100   5.288 -1.1813  1.5414 -0.9692
   19SAPS  H18Z 2527   1.962   5.258   5.242  0.2120  1.2978  2.7969
   20SAPS     N 2528   6.070   0.921   3.688  0.2622 -0.0122 -0.0827
   20SAPS   HN1 2529   6.029   1.009   3.724  0.5521 -0.4238  1.3232
   20SAPS   HN2 2530   6.162   0.953   3.651 -0.9523  2.2449 -1.3937
   20SAPS   HN3 2531   6.012   0.883   3.610 -0.9959 -0.0335  0.8497
   20SAPS   C12 2532   6.096   0.808   3.780 -0.6036 -0.1361  0.4133
   20SAPS  H12A 2533   6.149   0.845   3.867 -3.0186 -1.5580  2.6258
   20SAPS   C13 2534   5.966   0.738   3.834  0.1866  0.3382 -0.1911
   20SAPS  O13A 2535   5.868   0.735   3.760 -0.0078  0.1284 -0.1743
   20SAPS  O13B 2536   5.978   0.664   3.933 -0.0402  0.3831 -0.2657
   20SAPS   C11 2537   6.170   0.695   3.702  0.3364  0.9768 -0.9262
   20SAPS  H11A 2538   6.106   0.650   3.624 -2.2776  0.1929  1.4776
   20SAPS  H11B 2539   6.173   0.603   3.764 -1.8711  0.1254 -1.9668
   20SAPS     P 2540   6.428   0.681   3.705  0.0546  0.0876  0.1281
   20SAPS   O13 2541   6.432   0.533   3.708  0.0284 -0.2713  0.4648
   20SAPS   O14 2542   6.538   0.738   3.622 -0.4674 -0.1609 -0.0681
   20SAPS   O12 2543   6.299   0.731   3.647  0.5890 -0.0959  0.4833
   20SAPS   O11 2544   6.423   0.752   3.845 -0.2705  0.0323  0.0594
   20SAPS    C1 2545   6.507   0.697   3.956  0.7341  0.0043  0.1149
   20SAPS    HA 2546   6.603   0.657   3.917  0.1755 -2.3093  0.9183
   20SAPS    HB 2547   6.523   0.772   4.037  1.6479 -0.4554  0.3843
   20SAPS    C2 2548   6.431   0.568   4.014 -0.0230  0.9928 -0.0802
   20SAPS    HS 2549   6.426   0.490   3.935  2.8394  1.5657 -0.9664
   20SAPS   O21 2550   6.305   0.611   4.059  0.1259 -0.4953  0.4859
   20SAPS   C21 2551   6.223   0.523   4.105 -0.6103  0.8479  0.2720
   20SAPS   O22 2552   6.230   0.401   4.075  0.3361  0.5254  0.2367
   20SAPS   C22 2553   6.132   0.591   4.198  0.1689  0.4920 -0.6884
   20SAPS   H2R 2554   6.127   0.695   4.160  1.0677  0.7400 -0.1745
   20SAPS   H2S 2555   6.035   0.540   4.178 -0.3816  0.5107  1.5685
   20SAPS    C3 2556   6.515   0.489   4.126 -0.3692 -0.5713  0.4945
   20SAPS    HX 2557   6.618   0.482   4.086 -0.3990  0.8160  0.1184
   20SAPS    HY 2558   6.464   0.393   4.146 -1.1855  0.2478  2.6748
   20SAPS   O31 2559   6.517   0.558   4.250  0.4072  0.1989 -0.0794
   20SAPS   C31 2560   6.629   0.535   4.322  0.0973  1.0947  0.1730
   20SAPS   O32 2561   6.711   0.452   4.297 -0.2354  0.5380  0.6895
   20SAPS   C32 2562   6.623   0.614   4.446  0.3807  0.0929 -0.2704
   20SAPS   H2X 2563   6.526   0.604   4.500  0.1845 -0.9196 -0.7921
   20SAPS   H2Y 2564   6.648   0.721   4.430  2.6784 -0.3643 -0.0177
   20SAPS   C23 2565   6.179   0.590   4.344 -0.7569  0.1980 -0.6732
   20SAPS   H3R 2566   6.278   0.639   4.357 -1.0121  0.6633 -0.4652
   20SAPS   H3S 2567   6.187   0.481   4.367 -0.5707  0.3668  0.1187
   20SAPS   C24 2568   6.075   0.644   4.432  0.6093  0.7995  0.1886
   20SAPS   H4R 2569   6.049   0.745   4.394 -2.2927  0.1497  0.2080
   20SAPS   H4S 2570   6.109   0.655   4.537  2.5832  0.5737 -0.3823
   20SAPS   C25 2571   5.945   0.569   4.418  0.0112 -0.0437 -0.3278
   20SAPS   H5R 2572   5.898   0.590   4.321 -1.5163  0.8773  0.5677
   20SAPS   C26 2573   5.883   0.500   4.505 -0.0623 -0.6403  0.1523
   20SAPS   H6R 2574   5.781   0.465   4.483 -1.0754 -1.6196  5.2234
   20SAPS   C27 2575   5.925   0.469   4.648  0.0390  0.0257  0.1155
   20SAPS   H7R 2576   5.893   0.556   4.710 -0.5049  0.1943 -0.3946
   20SAPS   H7S 2577   6.035   0.468   4.660 -0.0872 -0.1596  1.5024
   20SAPS   C28 2578   5.872   0.343   4.719  0.4001  0.2819  0.0053
   20SAPS   H8R 2579   5.828   0.276   4.644  0.0997  1.3466 -0.8050
   20SAPS   C29 2580   5.880   0.302   4.850  0.1468  0.1284  0.3625
   20SAPS   H9R 2581   5.845   0.204   4.885  1.0314  0.6312  2.8644
   20SAPS  C210 2582   5.938   0.394   4.944  0.1800 -0.0645  0.2565
   20SAPS  H10R 2583   5.983   0.483   4.896 -1.3621  0.6921  0.1265
   20SAPS  H10S 2584   6.018   0.341   5.000  0.2582 -1.7500 -1.3234
   20SAPS  C211 2585   5.831   0.436   5.040  0.8946 -0.6176  0.2980
   20SAPS  H11R 2586   5.728   0.399   5.027  0.5136  0.4332  0.2155
   20SAPS  C212 2587   5.847   0.507   5.150 -0.8661 -0.7558 -0.0110
   20SAPS  H12R 2588   5.776   0.517   5.233  1.3439  1.1048  1.8144
   20SAPS  C213 2589   5.985   0.552   5.201 -0.1548 -0.2751  0.4935
   20SAPS  H13R 2590   6.054   0.534   5.117  0.7197  1.9697  0.6541
   20SAPS  H13S 2591   6.012   0.479   5.280 -1.0672  0.9384  1.9938
   20SAPS  C214 2592   6.008   0.688   5.248  0.2093  0.4919 -0.9081
   20SAPS  H14R 2593   5.962   0.768   5.187  0.9350  0.8715 -0.9715
   20SAPS  C215 2594   6.060   0.722   5.372  0.4775 -0.7438  0.7291
   20SAPS  H15R 2595   6.059   0.830   5.394 -1.8976 -0.2356 -1.3491
   20SAPS  C216 2596   6.120   0.631   5.474 -0.6549  0.9157 -0.8280
   20SAPS  H16R 2597   6.210   0.679   5.518 -0.4759 -0.1112 -0.0391
   20SAPS  H16S 2598   6.159   0.539   5.427 -0.4519 -0.7558  2.3094
   20SAPS  C217 2599   6.023   0.581   5.579  0.4870 -0.6235  0.7037
   20SAPS  H17R 2600   6.053   0.497   5.645 -2.2844 -1.1036  1.4699
   20SAPS  H17S 2601   5.937   0.548   5.517 -0.2803  2.3542  0.0159
   20SAPS  C218 2602   5.960   0.683   5.680 -0.0052  0.3894  0.1833
   20SAPS  H18R 2603   5.934   0.773   5.621 -0.1063 -0.4788 -1.1242
   20SAPS  H18S 2604   6.041   0.715   5.749  0.1974 -2.7843  1.5855
   20SAPS  C219 2605   5.847   0.630   5.757 -0.0173  0.1917  0.2944
   20SAPS  H19R 2606   5.876   0.532   5.802 -0.4862  0.4058  1.0896
   20SAPS  H19S 2607   5.763   0.612   5.687  0.5493 -0.6940 -0.1726
   20SAPS  C220 2608   5.802   0.728   5.871  0.0992 -0.1509  0.6242
   20SAPS  H20R 2609   5.786   0.828   5.824 -0.3890 -1.1407 -1.4242
   20SAPS  H20S 2610   5.879   0.735   5.951  0.9138 -1.2186 -0.0347
   20SAPS  H20T 2611   5.704   0.697   5.913 -1.4896  1.6313 -1.5174
   20SAPS   C33 2612   6.725   0.561   4.554  0.0356 -0.1597  0.0876
   20SAPS   H3X 2613   6.830   0.563   4.518 -0.0822 -1.4904 -0.3958
   20SAPS   H3Y 2614   6.704   0.452   4.568  2.6637 -0.6616  0.7620
   20SAPS   C34 2615   6.714   0.628   4.692 -0.1635 -0.3180  0.2813
   20SAPS   H4X 2616   6.618   0.594   4.735 -1.7376  0.2228 -2.5642
   20SAPS   H4Y 2617   6.702   0.737   4.676  0.7805 -0.0008  1.6062
   20SAPS   C35 2618   6.828   0.610   4.786 -0.1199 -0.0391 -0.7081
   20SAPS   H5X 2619   6.809   0.666   4.880  2.6786 -1.8220  1.1046
   20SAPS   H5Y 2620   6.922   0.657   4.750  0.6555 -0.4923  0.6209
   20SAPS   C36 2621   6.850   0.464   4.837 -0.0223  0.0530 -0.2591
   20SAPS   H6X 2622   6.858   0.389   4.755 -1.1386  0.6896 -0.9877
   20SAPS   H6Y 2623   6.759   0.435   4.893 -0.3375 -0.8907 -1.2271
   20SAPS   C37 2624   6.974   0.447   4.934 -0.0462 -0.3349 -0.2840
   20SAPS   H7X 2625   7.062   0.497   4.888 -0.9879  1.8215  0.1210
   20SAPS   H7Y 2626   6.999   0.340   4.953  1.3272  0.3408  2.1002
   20SAPS   C38 2627   6.952   0.493   5.076 -0.0168 -0.4060 -0.1104
   20SAPS   H8X 2628   6.855   0.447   5.104 -0.9753  1.4207 -0.2993
   20SAPS   H8Y 2629   6.929   0.602   5.075 -1.0243 -0.5794 -2.8724
   20SAPS   C39 2630   7.073   0.464   5.166 -0.1856  0.2943 -0.3085
   20SAPS   H9X 2631   7.157   0.523   5.125 -1.0944  0.4324 -2.0802
   20SAPS   H9Y 2632   7.101   0.357   5.155 -4.4584 -0.9734 -0.7092
   20SAPS  C310 2633   7.058   0.473   5.323  0.5629 -0.2777  0.4998
   20SAPS  H10X 2634   6.983   0.395   5.351 -1.7674  2.1174  1.3334
   20SAPS  H10Y 2635   6.995   0.562   5.344 -1.4010 -1.2481 -0.9860
   20SAPS  C311 2636   7.191   0.471   5.392  0.1622  0.2837 -0.0242
   20SAPS  H11X 2637   7.238   0.562   5.350 -1.1377  0.7076 -0.6017
   20SAPS  H11Y 2638   7.251   0.380   5.373 -0.2359 -0.6259  2.6537
   20SAPS  C312 2639   7.192   0.502   5.549  0.0894  0.0850  0.2774
   20SAPS  H12X 2640   7.133   0.420   5.596  1.5664 -0.4981  1.1971
   20SAPS  H12Y 2641   7.152   0.604   5.565 -1.9118 -0.2936 -1.8240
   20SAPS  C313 2642   7.330   0.500   5.620 -0.2996 -0.0715 -0.9700
   20SAPS  H13X 2643   7.400   0.569   5.568  2.2583 -1.4915  0.4113
   20SAPS  H13Y 2644   7.374   0.400   5.601 -1.3963 -0.8610  0.4189
   20SAPS  C314 2645   7.337   0.519   5.775  0.0401 -0.1223 -0.1001
   20SAPS  H14X 2646   7.441   0.507   5.812 -0.1003  0.6688  0.5878
   20SAPS  H14Y 2647   7.284   0.434   5.823  0.5293 -0.1282  0.4504
   20SAPS  C315 2648   7.297   0.662   5.825 -0.8387 -0.0358 -0.1792
   20SAPS  H15X 2649   7.208   0.707   5.775 -1.5321  0.2753  1.2677
   20SAPS  H15Y 2650   7.373   0.738   5.796 -0.6262 -0.5514 -1.0119
   20SAPS  C316 2651   7.266   0.648   5.982 -0.4808 -0.7948  0.2148
   20SAPS  H16X 2652   7.340   0.597   6.047 -0.6992 -0.8599  0.4150
   20SAPS  H16Y 2653   7.168   0.597   5.996 -1.0764  0.0905 -0.6161
   20SAPS  C317 2654   7.250   0.789   6.035  0.0435  0.6341  0.5691
   20SAPS  H17X 2655   7.178   0.855   5.981  0.2245 -1.6585 -2.7424
   20SAPS  H17Y 2656   7.344   0.848   6.021  0.8561 -1.1149 -2.0223
   20SAPS  C318 2657   7.223   0.799   6.187  0.0665 -0.1508 -0.3241
   20SAPS  H18X 2658   7.317   0.769   6.238  0.4099  2.8394  0.9969
   20SAPS  H18Y 2659   7.135   0.739   6.217 -0.0668  0.4532  0.5226
   20SAPS  H18Z 2660   7.189   0.897   6.223 -0.5253 -1.2732  2.3722
   21CHL1    C3 2661   6.488   3.074   7.237  0.1255 -0.1830  0.0686
   21CHL1    H3 2662   6.409   3.020   7.182  1.4144 -1.4476 -0.6173
   21CHL1    O3 2663   6.471   3.052   7.375  0.5442 -0.2996  0.2357
   21CHL1   H3' 2664   6.465   2.957   7.380 -0.6227 -0.1808  3.8574
   21CHL1    C4 2665   6.619   3.013   7.181  0.9588 -0.2962 -0.3076
   21CHL1   H4A 2666   6.698   3.067   7.238  0.5580 -0.5317  0.4984
   21CHL1   H4B 2667   6.632   2.912   7.225 -0.2369  0.6108  2.3916
   21CHL1    C5 2668   6.617   3.022   7.034  0.0191  0.6659 -0.3200
   21CHL1    C6 2669   6.623   2.910   6.958 -1.0033 -0.6177  0.7408
   21CHL1    H6 2670   6.646   2.813   7.005  2.2924  0.3126  1.2994
   21CHL1    C7 2671   6.625   2.923   6.802  0.1169  0.1925 -0.1141
   21CHL1   H7A 2672   6.691   2.845   6.759  0.6613  1.3256 -1.4250
   21CHL1   H7B 2673   6.519   2.908   6.775  0.0322  2.7367 -1.5482
   21CHL1    C8 2674   6.654   3.055   6.751  0.9360  0.0110 -0.1938
   21CHL1    H8 2675   6.764   3.070   6.762  1.0649 -1.1852  0.4583
   21CHL1   C14 2676   6.617   3.054   6.604 -0.3607 -0.9649  0.0116
   21CHL1   H14 2677   6.508   3.036   6.595 -0.4700 -0.3644  0.0815
   21CHL1   C15 2678   6.690   2.953   6.510 -0.3339 -0.2603 -0.2046
   21CHL1  H15A 2679   6.795   2.947   6.547 -0.5934 -2.0552  0.3567
   21CHL1  H15B 2680   6.649   2.850   6.522 -0.6340 -0.0489  0.6811
   21CHL1   C16 2681   6.683   3.012   6.370  0.6809  1.0640  0.3815
   21CHL1  H16A 2682   6.782   3.028   6.322  0.4128 -1.3364 -1.1685
   21CHL1  H16B 2683   6.619   2.945   6.308  0.3350  0.8543  0.9607
   21CHL1   C17 2684   6.621   3.156   6.380  0.5938  0.3788  0.2542
   21CHL1   H17 2685   6.510   3.157   6.378  0.5850  2.7683 -0.1541
   21CHL1   C13 2686   6.646   3.193   6.526  0.2084  0.1364  0.3009
   21CHL1   C18 2687   6.792   3.229   6.539  0.0789  0.0547 -0.0386
   21CHL1  H18A 2688   6.830   3.251   6.641  0.1929  2.5526 -0.5610
   21CHL1  H18B 2689   6.855   3.145   6.502  0.1724 -0.4208  1.1456
   21CHL1  H18C 2690   6.817   3.312   6.469 -2.0932  0.9859  0.2273
   21CHL1   C12 2691   6.563   3.304   6.602 -0.5358 -0.3888 -0.2786
   21CHL1  H12A 2692   6.590   3.408   6.572  1.2711 -1.2673 -1.9246
   21CHL1  H12B 2693   6.454   3.285   6.591 -0.9802  0.9252  1.3379
   21CHL1   C11 2694   6.593   3.303   6.753  0.4436 -0.0391  0.1142
   21CHL1  H11A 2695   6.696   3.340   6.767  0.8902  0.1537 -2.9898
   21CHL1  H11B 2696   6.527   3.373   6.808 -0.0469  0.5479 -1.1893
   21CHL1    C9 2697   6.576   3.166   6.825 -0.6975  0.0445 -0.2047
   21CHL1    H9 2698   6.468   3.143   6.808 -0.9220  1.3726 -0.7673
   21CHL1   C10 2699   6.594   3.169   6.976 -0.5731 -0.4898 -0.0870
   21CHL1   C19 2700   6.718   3.245   7.004 -0.7416 -0.4749  0.4545
   21CHL1  H19A 2701   6.701   3.354   6.990  0.3302 -0.3227  0.2765
   21CHL1  H19B 2702   6.751   3.242   7.110  1.0832 -0.5800 -0.0836
   21CHL1  H19C 2703   6.804   3.203   6.949  0.0425 -0.7258  1.8186
   21CHL1    C1 2704   6.477   3.242   7.049 -0.3482  0.0482 -0.1149
   21CHL1   H1A 2705   6.479   3.352   7.034  1.7184 -0.0062 -0.4226
   21CHL1   H1B 2706   6.381   3.201   7.010 -1.5606 -0.1414  2.8089
   21CHL1    C2 2707   6.478   3.225   7.202 -0.1414 -0.1012  0.0739
   21CHL1   H2A 2708   6.386   3.266   7.248  0.6392 -0.2941  1.9194
   21CHL1   H2B 2709   6.568   3.272   7.247  0.5209  0.2127 -1.4986
   21CHL1   C20 2710   6.663   3.248   6.264  0.7893 -0.0821  0.1192
   21CHL1   H20 2711   6.773   3.265   6.263  0.4979  2.0430 -0.9666
   21CHL1   C21 2712   6.593   3.384   6.266 -0.0164  0.4725  0.1132
   21CHL1  H21A 2713   6.626   3.435   6.359  0.3935 -2.5349  1.7580
   21CHL1  H21B 2714   6.482   3.375   6.268 -0.0542  0.0579 -1.9483
   21CHL1  H21C 2715   6.616   3.441   6.173 -3.3156  1.2800 -0.3426
   21CHL1   C22 2716   6.640   3.161   6.131  0.3548 -0.3162  0.3298
   21CHL1  H22A 2717   6.708   3.074   6.123  0.9603  0.3059 -2.4167
   21CHL1  H22B 2718   6.541   3.112   6.122  0.7310 -0.9962 -0.2271
   21CHL1   C23 2719   6.657   3.233   5.991  0.7510 -0.0064  0.7047
   21CHL1  H23A 2720   6.555   3.273   5.971  1.0220 -0.2358 -1.3189
   21CHL1  H23B 2721   6.714   3.328   5.993  2.3433 -0.9369  2.0024
   21CHL1   C24 2722   6.728   3.145   5.886 -0.1005  0.1138  0.1881
   21CHL1  H24A 2723   6.836   3.142   5.911 -0.3982 -1.0538  1.4273
   21CHL1  H24B 2724   6.689   3.041   5.886  1.0832 -0.3469  0.8015
   21CHL1   C25 2725   6.706   3.190   5.741 -0.0631 -0.3683  0.0880
   21CHL1   H25 2726   6.730   3.297   5.729  2.1966 -1.1315 -4.2857
   21CHL1   C26 2727   6.782   3.105   5.642 -0.2136  0.2838  0.3237
   21CHL1  H26A 2728   6.732   3.006   5.641 -0.0030  0.1743 -1.2302
   21CHL1  H26B 2729   6.782   3.145   5.538  0.4210  0.1923  0.2828
   21CHL1  H26C 2730   6.890   3.095   5.664 -0.0978 -1.1747 -0.8073
   21CHL1   C27 2731   6.550   3.186   5.699 -0.3702 -0.2354  0.2483
   21CHL1  H27A 2732   6.544   3.235   5.599 -0.6086  1.5361  1.0823
   21CHL1  H27B 2733   6.501   3.086   5.698 -0.1536 -0.3577  1.1056
   21CHL1  H27C 2734   6.488   3.252   5.764  1.9613  3.8557 -1.2754
   22CHL1    C3 2735   0.030   2.208   6.658 -0.3044 -0.8435 -0.2737
   22CHL1    H3 2736   0.105   2.128   6.646  0.7551 -0.0110  0.5959
   22CHL1    O3 2737  -0.015   2.195   6.791  0.3378 -0.0061 -0.0633
   22CHL1   H3' 2738  -0.075   2.122   6.808 -0.0489  0.5527  1.1117
   22CHL1    C4 2739   0.104   2.341   6.626  0.1212  0.5285 -0.2610
   22CHL1   H4A 2740   0.035   2.425   6.651  2.1410  2.1289  0.1321
   22CHL1   H4B 2741   0.183   2.371   6.697 -2.2869  5.3672  0.8648
   22CHL1    C5 2742   0.136   2.363   6.475  1.2147 -0.3901 -0.4849
   22CHL1    C6 2743   0.259   2.387   6.435 -0.3338  0.0267 -1.0417
   22CHL1    H6 2744   0.336   2.388   6.513 -0.7325 -1.3419 -0.5969
   22CHL1    C7 2745   0.307   2.402   6.299  0.9056  0.1950 -0.4007
   22CHL1   H7A 2746   0.387   2.478   6.285 -0.1916  0.9597 -3.3400
   22CHL1   H7B 2747   0.363   2.308   6.277  0.9120  0.0244  0.3125
   22CHL1    C8 2748   0.181   2.429   6.207  0.0043  0.7302  0.2515
   22CHL1    H8 2749   0.129   2.526   6.218 -2.3028 -0.4852  0.8950
   22CHL1   C14 2750   0.234   2.428   6.062  0.0844  0.1949  0.2490
   22CHL1   H14 2751   0.277   2.326   6.052  0.1038  0.3680 -1.6175
   22CHL1   C15 2752   0.342   2.525   6.023  0.1471 -0.8761  0.3881
   22CHL1  H15A 2753   0.303   2.626   6.047  0.0830 -1.2768  2.0736
   22CHL1  H15B 2754   0.438   2.503   6.074  1.5293  1.1862 -1.1372
   22CHL1   C16 2755   0.346   2.517   5.873  0.1113  0.3527  0.2256
   22CHL1  H16A 2756   0.349   2.625   5.845 -1.6735  1.1115  2.5110
   22CHL1  H16B 2757   0.443   2.470   5.849  0.1379 -0.3179  1.5547
   22CHL1   C17 2758   0.217   2.446   5.828 -0.6759  0.5556  0.3732
   22CHL1   H17 2759   0.259   2.346   5.806 -0.7906  0.1615  1.8476
   22CHL1   C13 2760   0.127   2.445   5.954  0.2716  0.5066  0.6167
   22CHL1   C18 2761   0.047   2.575   5.952 -0.1928  0.3460 -0.4018
   22CHL1  H18A 2762  -0.039   2.562   5.883 -0.3318 -2.7325  0.2282
   22CHL1  H18B 2763   0.009   2.595   6.054 -1.9752 -0.5849 -0.8356
   22CHL1  H18C 2764   0.116   2.658   5.926  0.3246  0.1781  0.4060
   22CHL1   C12 2765   0.036   2.321   5.974  0.9404  0.3990 -0.0136
   22CHL1  H12A 2766  -0.055   2.321   5.910  0.9896 -0.4947 -0.0955
   22CHL1  H12B 2767   0.100   2.231   5.965  0.5617  0.3062 -2.3000
   22CHL1   C11 2768  -0.029   2.325   6.114 -0.2268  0.1487  0.2297
   22CHL1  H11A 2769  -0.082   2.422   6.128  2.2760  1.4384  1.4114
   22CHL1  H11B 2770  -0.105   2.245   6.125 -1.3091  0.5878 -3.1007
   22CHL1    C9 2771   0.072   2.325   6.231  0.0117  1.0001 -0.6743
   22CHL1    H9 2772   0.121   2.226   6.219  0.6817  1.2953 -0.4256
   22CHL1   C10 2773   0.022   2.329   6.377  0.0697 -0.0896 -0.3811
   22CHL1   C19 2774  -0.083   2.446   6.382  0.8221 -0.1064 -0.2332
   22CHL1  H19A 2775  -0.104   2.484   6.484 -0.2085  0.4971 -0.6622
   22CHL1  H19B 2776  -0.052   2.534   6.322 -1.7247  0.8245 -0.2661
   22CHL1  H19C 2777  -0.179   2.404   6.346 -0.7140  1.2267  2.0789
   22CHL1    C1 2778  -0.041   2.191   6.422 -0.1587 -0.4339  0.3680
   22CHL1   H1A 2779  -0.124   2.166   6.352 -0.4616 -3.0361  1.5345
   22CHL1   H1B 2780   0.045   2.122   6.407  1.2694  1.1480  0.9821
   22CHL1    C2 2781  -0.095   2.200   6.571  0.4360  0.4066  1.3193
   22CHL1   H2A 2782  -0.146   2.104   6.595  1.7633 -0.8385 -0.5511
   22CHL1   H2B 2783  -0.166   2.285   6.575 -2.6871 -2.0097  1.1570
   22CHL1   C20 2784   0.157   2.492   5.692  0.3864 -0.2689  0.3381
   22CHL1   H20 2785   0.122   2.597   5.707  0.1039 -0.1613 -0.9887
   22CHL1   C21 2786   0.045   2.402   5.654 -0.6744 -1.0011  0.0173
   22CHL1  H21A 2787  -0.047   2.432   5.708  0.9791  1.5885  1.6141
   22CHL1  H21B 2788   0.071   2.296   5.674 -2.8412 -1.7990 -1.0778
   22CHL1  H21C 2789   0.023   2.409   5.545  3.2132  2.1390 -0.8230
   22CHL1   C22 2790   0.261   2.492   5.574  0.3618 -0.1362 -0.4846
   22CHL1  H22A 2791   0.356   2.540   5.608  0.3584 -0.0901 -0.5397
   22CHL1  H22B 2792   0.278   2.386   5.546 -0.0669 -0.7108  1.2906
   22CHL1   C23 2793   0.226   2.571   5.447 -0.2140  0.3904  0.6966
   22CHL1  H23A 2794   0.119   2.552   5.421  0.4443 -1.3216 -1.0075
   22CHL1  H23B 2795   0.224   2.681   5.467 -0.6865  0.5139  0.0184
   22CHL1   C24 2796   0.322   2.548   5.329 -0.6387 -0.1149 -0.2813
   22CHL1  H24A 2797   0.422   2.552   5.378 -0.7033  1.7057 -0.2314
   22CHL1  H24B 2798   0.324   2.441   5.298 -0.2603 -0.7660  1.8503
   22CHL1   C25 2799   0.314   2.630   5.207 -0.1529  0.2923  0.6184
   22CHL1   H25 2800   0.323   2.736   5.239 -1.2231 -0.5120  3.9809
   22CHL1   C26 2801   0.421   2.594   5.099 -0.4616  0.3206 -0.2667
   22CHL1  H26A 2802   0.389   2.495   5.061  0.9366  0.3402 -1.5963
   22CHL1  H26B 2803   0.417   2.662   5.011  3.2343  0.2934 -0.6311
   22CHL1  H26C 2804   0.529   2.587   5.126 -0.4867  0.5257 -0.1080
   22CHL1   C27 2805   0.173   2.630   5.142 -0.5707  0.2258 -0.3455
   22CHL1  H27A 2806   0.179   2.703   5.059  0.0750  1.0250  0.3819
   22CHL1  H27B 2807   0.148   2.533   5.094 -0.1311 -0.5459  0.9299
   22CHL1  H27C 2808   0.098   2.670   5.213  1.1722  2.3705  0.3845
   23CHL1    C3 2809   5.535   3.062   7.316 -0.2134 -0.3913  0.1856
   23CHL1    H3 2810   5.610   3.004   7.258 -0.8451 -0.9696 -0.0662
   23CHL1    O3 2811   5.512   3.002   7.444 -0.0498 -0.3241  0.4025
   23CHL1   H3' 2812   5.438   3.056   7.475  1.1313  1.1876  0.7168
   23CHL1    C4 2813   5.582   3.208   7.327 -0.9828  0.1842 -0.0010
   23CHL1   H4A 2814   5.491   3.249   7.376 -0.8465 -1.0027  1.3029
   23CHL1   H4B 2815   5.673   3.202   7.390 -0.7477 -1.3775 -0.4627
   23CHL1    C5 2816   5.622   3.268   7.194  0.1788  0.8479  0.8619
   23CHL1    C6 2817   5.748   3.299   7.157  0.6900 -0.1758  0.2783
   23CHL1    H6 2818   5.828   3.297   7.233 -1.1701  0.9517  2.3656
   23CHL1    C7 2819   5.762   3.362   7.022 -0.1182 -0.3485 -0.8411
   23CHL1   H7A 2820   5.818   3.456   7.036  0.9420 -1.0407 -0.2826
   23CHL1   H7B 2821   5.818   3.299   6.950 -0.5212  0.1146 -1.5606
   23CHL1    C8 2822   5.639   3.406   6.938  0.4666  0.1880  0.4924
   23CHL1    H8 2823   5.598   3.500   6.979 -1.8118 -1.3034  1.8714
   23CHL1   C14 2824   5.677   3.420   6.791 -0.5346 -0.0993  0.3229
   23CHL1   H14 2825   5.707   3.318   6.760  0.2103  0.9790 -2.9715
   23CHL1   C15 2826   5.792   3.522   6.760  0.0226  0.9439  0.6166
   23CHL1  H15A 2827   5.777   3.620   6.810  1.0625  0.0304  2.8151
   23CHL1  H15B 2828   5.897   3.495   6.780 -0.4775 -0.4372  1.5242
   23CHL1   C16 2829   5.779   3.544   6.610  0.4792  0.1234  0.3160
   23CHL1  H16A 2830   5.774   3.654   6.607 -3.2914  0.0601 -1.1723
   23CHL1  H16B 2831   5.869   3.496   6.565 -0.5067 -1.8952  0.3439
   23CHL1   C17 2832   5.642   3.484   6.562  0.0869  0.0388  0.6795
   23CHL1   H17 2833   5.658   3.382   6.521 -0.5038 -0.4800  1.6777
   23CHL1   C13 2834   5.563   3.456   6.691  0.9052  0.3511 -0.0403
   23CHL1   C18 2835   5.491   3.583   6.737 -0.5991 -0.1006 -0.2007
   23CHL1  H18A 2836   5.409   3.625   6.675 -0.3013  0.4719 -0.2203
   23CHL1  H18B 2837   5.447   3.570   6.839 -0.4365 -0.0014 -0.1168
   23CHL1  H18C 2838   5.558   3.672   6.740 -1.0205  0.2085  0.3546
   23CHL1   C12 2839   5.472   3.331   6.700  0.1911 -0.5504  0.3440
   23CHL1  H12A 2840   5.387   3.337   6.629 -2.5305  0.1190  3.4355
   23CHL1  H12B 2841   5.518   3.234   6.668 -3.6434 -2.2082 -0.7533
   23CHL1   C11 2842   5.417   3.314   6.845 -0.4365  0.1706  0.5219
   23CHL1  H11A 2843   5.344   3.396   6.858 -1.7061 -0.2353 -2.9136
   23CHL1  H11B 2844   5.362   3.218   6.847  1.0964 -0.7413  1.5816
   23CHL1    C9 2845   5.534   3.298   6.948 -0.3902 -0.3571 -0.6646
   23CHL1    H9 2846   5.580   3.201   6.918 -0.9103 -1.7799  2.6791
   23CHL1   C10 2847   5.501   3.269   7.099  0.4666  0.0175 -0.0685
   23CHL1   C19 2848   5.412   3.392   7.141 -0.2756 -0.0465  0.4181
   23CHL1  H19A 2849   5.315   3.398   7.087 -0.4017 -0.8161  0.5419
   23CHL1  H19B 2850   5.388   3.387   7.249 -0.2586  0.8078  0.4667
   23CHL1  H19C 2851   5.466   3.489   7.133 -0.7482  0.1625 -0.3372
   23CHL1    C1 2852   5.419   3.136   7.107 -0.0515  0.2643 -0.4092
   23CHL1   H1A 2853   5.322   3.132   7.052 -0.7528 -0.6856  0.8061
   23CHL1   H1B 2854   5.480   3.062   7.052  3.2113 -0.5735  3.8400
   23CHL1    C2 2855   5.402   3.067   7.244 -0.0041  0.2395 -0.5893
   23CHL1   H2A 2856   5.370   2.961   7.239  1.4495 -0.2627  0.3462
   23CHL1   H2B 2857   5.338   3.137   7.302  0.5604  1.3238 -1.2299
   23CHL1   C20 2858   5.571   3.572   6.457 -1.0179 -0.1661  0.1105
   23CHL1   H20 2859   5.527   3.664   6.500 -2.6248 -0.3703 -1.0011
   23CHL1   C21 2860   5.450   3.500   6.392  0.1925 -0.0964 -0.1442
   23CHL1  H21A 2861   5.485   3.404   6.349  0.3285 -0.1886  0.1727
   23CHL1  H21B 2862   5.407   3.576   6.323  0.8385  1.7702  1.3933
   23CHL1  H21C 2863   5.373   3.479   6.468  0.6615 -0.9453  0.1076
   23CHL1   C22 2864   5.661   3.641   6.348 -0.8592  0.1189  0.1301
   23CHL1  H22A 2865   5.604   3.713   6.285 -0.0342  0.7731  0.1285
   23CHL1  H22B 2866   5.745   3.698   6.391  2.0305 -0.4581 -4.1323
   23CHL1   C23 2867   5.732   3.542   6.254  0.3064  0.4289  0.1807
   23CHL1  H23A 2868   5.783   3.466   6.316  2.3041  0.6819 -1.0831
   23CHL1  H23B 2869   5.665   3.473   6.197  0.7301  0.1264  0.0465
   23CHL1   C24 2870   5.837   3.611   6.168  0.4574  0.3642  0.3085
   23CHL1  H24A 2871   5.798   3.697   6.109 -0.0846  0.0986  0.2711
   23CHL1  H24B 2872   5.905   3.661   6.240  1.0631  0.5466 -0.3813
   23CHL1   C25 2873   5.922   3.520   6.079  0.1526  0.5092  0.0875
   23CHL1   H25 2874   6.002   3.583   6.035  0.2845 -0.0368 -0.4560
   23CHL1   C26 2875   5.991   3.413   6.165  0.1194  0.1436  0.0332
   23CHL1  H26A 2876   6.047   3.452   6.252  2.6943 -2.8373 -0.1178
   23CHL1  H26B 2877   5.917   3.342   6.206 -0.0497 -0.1973 -0.8283
   23CHL1  H26C 2878   6.054   3.353   6.096 -0.6443  1.6736 -2.1092
   23CHL1   C27 2879   5.832   3.461   5.971 -0.0080 -0.1278  0.0974
   23CHL1  H27A 2880   5.741   3.405   6.003  0.2652  0.1482  1.4376
   23CHL1  H27B 2881   5.794   3.552   5.920 -1.9271 -0.3354  1.0709
   23CHL1  H27C 2882   5.890   3.405   5.896  0.2359  0.6688 -0.3242
   24CHL1    C3 2883   1.452   4.805   7.100 -0.3440 -0.4577  0.2798
   24CHL1    H3 2884   1.359   4.848   7.143 -0.0426 -1.0909  1.6240
   24CHL1    O3 2885   1.514   4.738   7.209  0.7178 -0.2214 -0.3163
   24CHL1   H3' 2886   1.593   4.696   7.172  0.9251  1.3554 -1.8215
   24CHL1    C4 2887   1.416   4.708   6.984  1.0159  0.4472  0.2051
   24CHL1   H4A 2888   1.513   4.655   6.969  3.1071  3.7593  0.9581
   24CHL1   H4B 2889   1.346   4.634   7.028  2.0658 -1.7526 -1.5799
   24CHL1    C5 2890   1.366   4.770   6.849 -0.2932  0.8792 -0.3583
   24CHL1    C6 2891   1.240   4.743   6.812 -0.9094 -0.8146 -0.0977
   24CHL1    H6 2892   1.184   4.665   6.867 -0.1536 -1.4930 -0.2698
   24CHL1    C7 2893   1.169   4.824   6.709  0.2360 -0.9235  0.2976
   24CHL1   H7A 2894   1.092   4.756   6.666  0.1714 -0.8258  0.2603
   24CHL1   H7B 2895   1.124   4.907   6.767  0.1490 -1.2969  0.7744
   24CHL1    C8 2896   1.268   4.890   6.613 -0.0418 -0.0134 -0.6648
   24CHL1    H8 2897   1.322   4.814   6.552 -0.2217 -0.4317 -0.3094
   24CHL1   C14 2898   1.190   4.986   6.522  0.6863 -0.4380 -0.3116
   24CHL1   H14 2899   1.151   5.068   6.586 -0.3688  0.7885 -2.4320
   24CHL1   C15 2900   1.078   4.927   6.438 -0.6380 -0.0530  0.3344
   24CHL1  H15A 2901   1.096   4.836   6.378 -2.2925 -0.0307 -0.2454
   24CHL1  H15B 2902   0.984   4.906   6.493  0.6348  1.3289  3.2919
   24CHL1   C16 2903   1.047   5.035   6.337 -0.1162  0.4012 -0.6977
   24CHL1  H16A 2904   1.038   4.993   6.235 -1.8335 -2.5610  0.5565
   24CHL1  H16B 2905   0.953   5.090   6.362 -1.2017 -2.4109  2.0685
   24CHL1   C17 2906   1.159   5.143   6.347  0.0301 -0.2673  0.3701
   24CHL1   H17 2907   1.113   5.224   6.409 -2.3960 -1.0466 -0.3159
   24CHL1   C13 2908   1.272   5.070   6.428  0.7313 -0.1589  0.4212
   24CHL1   C18 2909   1.350   4.973   6.332  0.6979 -0.4695 -0.1349
   24CHL1  H18A 2910   1.407   4.897   6.389  0.3016 -0.1238  0.7430
   24CHL1  H18B 2911   1.275   4.930   6.262 -1.1381  2.0793  0.1125
   24CHL1  H18C 2912   1.414   5.043   6.273 -2.8885  2.0287 -1.4044
   24CHL1   C12 2913   1.371   5.151   6.504  0.1188  0.1384  0.6380
   24CHL1  H12A 2914   1.439   5.201   6.432 -1.1856  0.4058 -0.4436
   24CHL1  H12B 2915   1.310   5.232   6.549 -1.4560  0.2608 -1.5843
   24CHL1   C11 2916   1.457   5.069   6.600  0.0230 -0.1721  0.0354
   24CHL1  H11A 2917   1.510   5.001   6.530  0.9472 -0.4779  1.0166
   24CHL1  H11B 2918   1.541   5.126   6.644  0.8883  0.1709 -1.9532
   24CHL1    C9 2919   1.373   4.970   6.695  0.5733 -0.2015  0.9970
   24CHL1    H9 2920   1.307   5.040   6.751 -2.0754 -0.8253 -1.1574
   24CHL1   C10 2921   1.449   4.886   6.796 -0.1586  0.7742 -0.1034
   24CHL1   C19 2922   1.564   4.813   6.727 -0.0242  0.0365  0.6039
   24CHL1  H19A 2923   1.623   4.892   6.676 -2.0249  2.9149  2.4017
   24CHL1  H19B 2924   1.630   4.766   6.804  0.2893 -1.0366 -0.2918
   24CHL1  H19C 2925   1.521   4.742   6.654 -0.6411  3.1436 -2.2999
   24CHL1    C1 2926   1.500   4.977   6.908  1.2377 -0.8446  0.2029
   24CHL1   H1A 2927   1.578   5.042   6.864 -0.4164  2.6358  1.9368
   24CHL1   H1B 2928   1.413   5.041   6.936  1.4869 -0.5047  0.2114
   24CHL1    C2 2929   1.550   4.913   7.035  0.0867 -0.0074 -0.7925
   24CHL1   H2A 2930   1.572   4.987   7.115 -0.6335  0.4630 -1.0183
   24CHL1   H2B 2931   1.645   4.859   7.017  2.8316  2.5789  3.8460
   24CHL1   C20 2932   1.181   5.215   6.211 -0.1506  0.2154  0.1508
   24CHL1   H20 2933   1.215   5.151   6.127  0.9808 -0.8378  1.3486
   24CHL1   C21 2934   1.302   5.313   6.218  0.3216 -0.4204 -0.1245
   24CHL1  H21A 2935   1.306   5.366   6.121 -0.2481  1.3749  0.7864
   24CHL1  H21B 2936   1.396   5.258   6.238  0.7540  0.8505  1.5651
   24CHL1  H21C 2937   1.299   5.394   6.294  1.3183  0.4640 -0.9891
   24CHL1   C22 2938   1.050   5.283   6.162 -0.3117 -0.4580  0.1313
   24CHL1  H22A 2939   0.977   5.200   6.148  1.1653 -2.0162  1.1412
   24CHL1  H22B 2940   1.006   5.355   6.234 -2.5232 -1.6341  0.0305
   24CHL1   C23 2941   1.067   5.336   6.018 -0.2396 -0.2147  0.2231
   24CHL1  H23A 2942   1.111   5.438   6.019 -1.5816  0.3715  0.3589
   24CHL1  H23B 2943   1.136   5.269   5.962 -1.2604  1.8972 -3.9675
   24CHL1   C24 2944   0.933   5.345   5.949  0.3377 -0.3876 -0.1328
   24CHL1  H24A 2945   0.894   5.246   5.919  0.7036 -0.4226 -0.4980
   24CHL1  H24B 2946   0.855   5.385   6.018  2.7139  0.9848  1.9259
   24CHL1   C25 2947   0.937   5.446   5.829 -0.2164 -0.9530  0.4745
   24CHL1   H25 2948   0.982   5.541   5.865 -1.0940 -0.9316  1.5603
   24CHL1   C26 2949   1.012   5.404   5.701 -0.5924 -0.6122 -0.4267
   24CHL1  H26A 2950   0.948   5.329   5.649  0.7917 -3.2058  1.3590
   24CHL1  H26B 2951   1.028   5.495   5.640  2.1559 -0.2025  0.7389
   24CHL1  H26C 2952   1.108   5.356   5.731  0.1713  0.4960 -1.0503
   24CHL1   C27 2953   0.794   5.474   5.783 -0.1777  0.4809 -0.5588
   24CHL1  H27A 2954   0.730   5.486   5.873 -0.3381  1.5072 -0.8019
   24CHL1  H27B 2955   0.789   5.556   5.708  0.1804  1.9440  0.9614
   24CHL1  H27C 2956   0.756   5.379   5.742  0.2622 -0.8203  1.8413
   25CHL1    C3 2957   4.546   4.648   7.479 -0.2161 -0.1126  0.5638
   25CHL1    H3 2958   4.452   4.589   7.480 -1.4961  1.7824 -0.7183
   25CHL1    O3 2959   4.588   4.670   7.615 -0.3121  0.4331 -0.2278
   25CHL1   H3' 2960   4.637   4.591   7.639  1.1332  0.5819 -2.3576
   25CHL1    C4 2961   4.656   4.579   7.398 -0.4919  0.1223  0.2099
   25CHL1   H4A 2962   4.745   4.645   7.405 -0.8227  0.4672  1.5406
   25CHL1   H4B 2963   4.680   4.490   7.460  1.1926  0.0186 -0.5454
   25CHL1    C5 2964   4.619   4.543   7.254  0.3091  0.7005 -0.9623
   25CHL1    C6 2965   4.631   4.415   7.204  0.6001  0.7984  0.0801
   25CHL1    H6 2966   4.662   4.341   7.279  1.0398  0.2775 -0.6079
   25CHL1    C7 2967   4.599   4.384   7.054 -0.3063 -0.2587 -0.1546
   25CHL1   H7A 2968   4.660   4.302   7.012  2.8142  0.5375  2.4157
   25CHL1   H7B 2969   4.498   4.338   7.051 -0.2542 -0.3471 -0.5242
   25CHL1    C8 2970   4.597   4.513   6.964 -0.4661  0.3793 -0.5156
   25CHL1    H8 2971   4.703   4.542   6.944 -0.2588  1.0029  1.2917
   25CHL1   C14 2972   4.529   4.474   6.830  0.7199 -0.5895  0.0542
   25CHL1   H14 2973   4.426   4.447   6.863  1.6405 -3.2657  0.9862
   25CHL1   C15 2974   4.577   4.358   6.736 -0.1282  0.0044  0.5624
   25CHL1  H15A 2975   4.687   4.359   6.723  0.0855 -2.5688  1.5911
   25CHL1  H15B 2976   4.554   4.258   6.779 -0.4531  0.3787  1.2877
   25CHL1   C16 2977   4.509   4.385   6.598  0.0709 -0.5523 -0.8522
   25CHL1  H16A 2978   4.585   4.388   6.517  1.5601  2.3820  0.5031
   25CHL1  H16B 2979   4.432   4.307   6.580 -0.0138 -0.6292 -0.1859
   25CHL1   C17 2980   4.443   4.529   6.626  0.4656  0.1568 -0.3545
   25CHL1   H17 2981   4.347   4.500   6.674  1.7546 -0.0365  2.3215
   25CHL1   C13 2982   4.515   4.600   6.741 -0.0518  0.2792 -0.7043
   25CHL1   C18 2983   4.652   4.662   6.698  0.1849 -0.0743 -0.6441
   25CHL1  H18A 2984   4.710   4.581   6.648  1.0869  2.1489 -3.4596
   25CHL1  H18B 2985   4.640   4.745   6.626  2.3936 -0.1930 -1.2458
   25CHL1  H18C 2986   4.707   4.708   6.783  1.5121 -0.2813 -1.3619
   25CHL1   C12 2987   4.427   4.704   6.821 -0.3198 -0.4911  0.2336
   25CHL1  H12A 2988   4.401   4.784   6.749  0.3588 -0.3309  0.1637
   25CHL1  H12B 2989   4.336   4.646   6.850  1.4396 -2.0910  2.9365
   25CHL1   C11 2990   4.480   4.743   6.951  0.8478 -0.4063  0.2317
   25CHL1  H11A 2991   4.572   4.802   6.933 -0.1544  1.4882  1.0509
   25CHL1  H11B 2992   4.413   4.816   7.000  1.6551  0.7695 -0.3625
   25CHL1    C9 2993   4.521   4.627   7.038 -0.6393  0.4403  0.2203
   25CHL1    H9 2994   4.424   4.574   7.050 -1.1795  0.5337 -2.8540
   25CHL1   C10 2995   4.575   4.666   7.183 -0.5221  0.1652  0.3606
   25CHL1   C19 2996   4.704   4.750   7.160  0.5408 -0.8486  0.3630
   25CHL1  H19A 2997   4.778   4.703   7.092  0.3414 -0.7715  0.0936
   25CHL1  H19B 2998   4.667   4.842   7.111 -2.0497 -2.1712 -0.3650
   25CHL1  H19C 2999   4.755   4.790   7.250  0.4598  2.0897 -0.7756
   25CHL1    C1 3000   4.468   4.748   7.268  0.3602  0.6302  0.2768
   25CHL1   H1A 3001   4.454   4.839   7.206 -1.5480 -0.0678 -0.3711
   25CHL1   H1B 3002   4.383   4.677   7.270  0.6233  0.2919 -0.2104
   25CHL1    C2 3003   4.512   4.781   7.413  0.5853 -0.1211 -0.1832
   25CHL1   H2A 3004   4.433   4.841   7.463  0.7441 -0.5023  0.5401
   25CHL1   H2B 3005   4.607   4.838   7.405  0.4189 -0.0793 -3.3986
   25CHL1   C20 3006   4.398   4.613   6.503  0.1031 -1.0884 -0.2570
   25CHL1   H20 3007   4.379   4.717   6.537 -2.3002 -0.3620 -3.2948
   25CHL1   C21 3008   4.262   4.566   6.451 -0.0996  0.4955 -0.8628
   25CHL1  H21A 3009   4.231   4.617   6.357  0.3487  2.5337  0.0294
   25CHL1  H21B 3010   4.194   4.590   6.535  2.5616 -1.5130  2.1108
   25CHL1  H21C 3011   4.257   4.456   6.441  1.6624  0.3824 -0.8555
   25CHL1   C22 3012   4.503   4.625   6.391  0.1731 -0.9509  0.4106
   25CHL1  H22A 3013   4.601   4.656   6.434  1.1468  0.2706 -2.3952
   25CHL1  H22B 3014   4.528   4.531   6.336  3.0428 -0.1717  0.1887
   25CHL1   C23 3015   4.473   4.743   6.296  0.4795  0.2007 -0.1549
   25CHL1  H23A 3016   4.372   4.732   6.252  0.6604 -0.2080 -0.4719
   25CHL1  H23B 3017   4.470   4.838   6.354 -1.8543  0.3429 -0.3965
   25CHL1   C24 3018   4.573   4.756   6.177  0.3633  0.3294 -0.0722
   25CHL1  H24A 3019   4.676   4.769   6.215  1.0167 -0.5783 -1.4519
   25CHL1  H24B 3020   4.559   4.659   6.124 -0.4519  0.2563  0.2569
   25CHL1   C25 3021   4.534   4.861   6.064 -0.0340  0.4717 -0.0182
   25CHL1   H25 3022   4.427   4.844   6.040  0.0397 -1.3750  0.8453
   25CHL1   C26 3023   4.564   5.001   6.120 -0.0395 -0.6903 -0.1987
   25CHL1  H26A 3024   4.494   5.011   6.206  0.5460  0.2480  0.1870
   25CHL1  H26B 3025   4.671   4.996   6.150 -0.4689 -0.2469  1.5240
   25CHL1  H26C 3026   4.541   5.084   6.050 -2.2099  1.7054  3.0124
   25CHL1   C27 3027   4.619   4.834   5.935  0.2740  0.2116  0.0703
   25CHL1  H27A 3028   4.584   4.737   5.895  1.0068  0.0967 -0.3115
   25CHL1  H27B 3029   4.598   4.912   5.859 -1.1644  1.1390  1.3535
   25CHL1  H27C 3030   4.727   4.821   5.961  0.2192  0.2609  0.3284
   26CHL1    C3 3031   1.363   4.287   6.954 -0.2615 -0.2886  0.2291
   26CHL1    H3 3032   1.317   4.373   7.007  0.3230  1.3871 -1.8200
   26CHL1    O3 3033   1.384   4.195   7.062 -0.2239 -0.0316 -0.1106
   26CHL1   H3' 3034   1.452   4.238   7.115 -0.8905 -2.2114  2.6960
   26CHL1    C4 3035   1.265   4.220   6.859 -0.2553  0.3980 -0.8606
   26CHL1   H4A 3036   1.288   4.112   6.843  1.3189  0.1877  2.0995
   26CHL1   H4B 3037   1.164   4.214   6.904 -0.7899 -1.3480 -2.1638
   26CHL1    C5 3038   1.248   4.290   6.725 -0.7270 -0.1609 -1.0505
   26CHL1    C6 3039   1.129   4.328   6.676  0.2821  0.2504 -0.7385
   26CHL1    H6 3040   1.040   4.315   6.739 -0.3795  2.1054 -1.2119
   26CHL1    C7 3041   1.110   4.401   6.548 -0.4602 -0.2282  0.5093
   26CHL1   H7A 3042   1.028   4.362   6.484 -0.0511 -1.6582  0.8213
   26CHL1   H7B 3043   1.092   4.508   6.574  2.7753  0.3388  0.8261
   26CHL1    C8 3044   1.233   4.400   6.458  0.2362 -0.3885 -0.1864
   26CHL1    H8 3045   1.245   4.309   6.395  2.9803  0.3511 -0.8460
   26CHL1   C14 3046   1.222   4.512   6.353  0.2387  0.4850  0.9332
   26CHL1   H14 3047   1.219   4.607   6.411  0.2480  0.6225  0.7094
   26CHL1   C15 3048   1.099   4.515   6.255 -0.3775 -0.1620  0.3387
   26CHL1  H15A 3049   1.066   4.417   6.215  1.1841 -0.8713  0.7373
   26CHL1  H15B 3050   1.014   4.550   6.318 -0.7941 -3.0550  1.5582
   26CHL1   C16 3051   1.138   4.611   6.143 -0.3990 -0.5009  0.1631
   26CHL1  H16A 3052   1.123   4.550   6.052  0.7687 -1.1481  0.3762
   26CHL1  H16B 3053   1.096   4.713   6.135  0.4319 -0.2429 -1.4159
   26CHL1   C17 3054   1.294   4.634   6.157 -0.2432 -0.0895 -0.4499
   26CHL1   H17 3055   1.317   4.723   6.219  0.7213  1.1978 -2.5262
   26CHL1   C13 3056   1.343   4.524   6.260 -0.0011  0.7894 -0.2505
   26CHL1   C18 3057   1.375   4.395   6.174  0.1916 -0.2478  0.5927
   26CHL1  H18A 3058   1.477   4.411   6.132 -1.1692 -1.3622 -3.5158
   26CHL1  H18B 3059   1.389   4.303   6.234 -3.1198 -0.6737  0.8889
   26CHL1  H18C 3060   1.295   4.369   6.102 -0.3474  2.7232 -0.0212
   26CHL1   C12 3061   1.464   4.558   6.348 -0.6271 -0.1657 -0.0097
   26CHL1  H12A 3062   1.560   4.558   6.293 -0.5376 -0.5784  0.1444
   26CHL1  H12B 3063   1.441   4.661   6.384 -0.5731  1.0078 -3.0338
   26CHL1   C11 3064   1.478   4.464   6.470  0.4863 -0.1764  0.0411
   26CHL1  H11A 3065   1.523   4.371   6.430 -0.2016  0.7030 -3.0744
   26CHL1  H11B 3066   1.547   4.518   6.538  0.4161 -0.8944  0.6963
   26CHL1    C9 3067   1.345   4.426   6.549 -1.0745 -0.4966  0.0152
   26CHL1    H9 3068   1.324   4.522   6.601 -1.1496 -1.7941  2.5276
   26CHL1   C10 3069   1.379   4.324   6.656  0.2003  0.5084  0.1095
   26CHL1   C19 3070   1.437   4.183   6.609 -0.6095 -0.2718  0.2067
   26CHL1  H19A 3071   1.445   4.110   6.692  0.6389 -0.1223  0.2322
   26CHL1  H19B 3072   1.367   4.140   6.535  1.6801 -1.3146 -1.4401
   26CHL1  H19C 3073   1.534   4.189   6.556 -0.9650  1.4335 -0.3267
   26CHL1    C1 3074   1.486   4.385   6.746  0.5415 -0.1086  0.4121
   26CHL1   H1A 3075   1.584   4.384   6.693  0.2880  0.5371 -0.0877
   26CHL1   H1B 3076   1.468   4.494   6.759  1.0572 -0.2228  2.4337
   26CHL1    C2 3077   1.499   4.319   6.890 -0.0157  0.4415  0.4641
   26CHL1   H2A 3078   1.556   4.387   6.957  1.1120  0.4882 -0.5002
   26CHL1   H2B 3079   1.551   4.221   6.883 -0.9924 -0.3211  2.7536
   26CHL1   C20 3080   1.371   4.651   6.023  0.4390 -0.3403 -0.7440
   26CHL1   H20 3081   1.375   4.555   5.967  0.8169 -0.6341 -0.2225
   26CHL1   C21 3082   1.519   4.700   6.047 -0.7864  0.1544 -0.2562
   26CHL1  H21A 3083   1.583   4.616   6.081 -2.0457  0.1111  2.2508
   26CHL1  H21B 3084   1.523   4.787   6.117 -1.4757 -0.5525  0.6875
   26CHL1  H21C 3085   1.557   4.725   5.946  1.4899 -4.0971 -0.6504
   26CHL1   C22 3086   1.297   4.741   5.920  0.2756 -0.1242  0.5187
   26CHL1  H22A 3087   1.348   4.747   5.822 -0.3741  0.8436  0.2279
   26CHL1  H22B 3088   1.201   4.694   5.887  0.6559 -0.6145  0.1040
   26CHL1   C23 3089   1.265   4.880   5.965  0.1040 -0.4626  0.4472
   26CHL1  H23A 3090   1.181   4.875   6.038  1.8320 -0.9283  2.4829
   26CHL1  H23B 3091   1.357   4.911   6.019  0.0076 -0.6565  0.7274
   26CHL1   C24 3092   1.243   4.973   5.842  0.8028 -0.5077  0.2278
   26CHL1  H24A 3093   1.218   5.069   5.891  0.1442 -0.5284 -0.0539
   26CHL1  H24B 3094   1.335   4.980   5.780  0.5973 -0.5395 -0.0838
   26CHL1   C25 3095   1.127   4.926   5.752 -0.4823 -0.2538  0.3490
   26CHL1   H25 3096   1.152   4.821   5.728  0.3450  0.4072 -1.9413
   26CHL1   C26 3097   0.991   4.917   5.833  0.2418 -1.2050  0.1821
   26CHL1  H26A 3098   0.901   4.917   5.769  0.7633  1.7122 -0.6777
   26CHL1  H26B 3099   0.989   4.828   5.900  0.5961 -0.8824  0.6241
   26CHL1  H26C 3100   0.990   5.010   5.894  0.7820  0.0718 -1.7044
   26CHL1   C27 3101   1.121   5.018   5.624  0.0666  0.5959  1.0498
   26CHL1  H27A 3102   1.089   5.121   5.648  0.8991  1.0207  0.3992
   26CHL1  H27B 3103   1.214   5.023   5.562 -0.6968 -2.3320 -0.5545
   26CHL1  H27C 3104   1.050   4.960   5.561 -1.3745 -2.0122  4.7516
   27CHL1    C3 3105   5.473   4.853   7.354  0.3088  0.2117 -0.7734
   27CHL1    H3 3106   5.578   4.848   7.318  0.2171 -0.1033 -1.0044
   27CHL1    O3 3107   5.455   4.807   7.485  0.4529  0.4343 -0.5775
   27CHL1   H3' 3108   5.360   4.811   7.500  0.0011 -3.6763 -1.0177
   27CHL1    C4 3109   5.421   5.000   7.331 -0.0073  0.4632 -0.2977
   27CHL1   H4A 3110   5.321   4.999   7.380  1.0448  1.9974  2.0990
   27CHL1   H4B 3111   5.477   5.072   7.395 -1.5524 -0.0936  1.7778
   27CHL1    C5 3112   5.413   5.041   7.186  0.2441  0.3590  0.1059
   27CHL1    C6 3113   5.459   5.164   7.150 -0.1050  0.4464 -0.0322
   27CHL1    H6 3114   5.511   5.222   7.228  0.1101 -0.9691  0.9029
   27CHL1    C7 3115   5.474   5.215   7.003  0.1248 -0.0664 -0.0901
   27CHL1   H7A 3116   5.448   5.322   6.984  2.0846  0.4306 -0.2356
   27CHL1   H7B 3117   5.583   5.216   6.981  0.3557  0.5412  1.0050
   27CHL1    C8 3118   5.397   5.128   6.904  0.0556 -0.1719  0.3832
   27CHL1    H8 3119   5.291   5.162   6.910 -0.4901 -1.9049  1.1316
   27CHL1   C14 3120   5.455   5.153   6.764 -0.0994 -0.1200 -0.0409
   27CHL1   H14 3121   5.561   5.119   6.755 -0.4099 -0.6052 -2.7802
   27CHL1   C15 3122   5.463   5.300   6.717 -0.3635  0.5304  0.0359
   27CHL1  H15A 3123   5.372   5.356   6.747  0.4101  3.1551 -2.0699
   27CHL1  H15B 3124   5.553   5.352   6.757  0.6577 -1.6900  0.7338
   27CHL1   C16 3125   5.466   5.293   6.561  0.1134  0.3329  0.6984
   27CHL1  H16A 3126   5.372   5.332   6.517 -0.3424 -1.8692 -0.4025
   27CHL1  H16B 3127   5.555   5.348   6.521  0.7747 -0.7705  0.6195
   27CHL1   C17 3128   5.461   5.142   6.534  0.0066  0.3161 -0.3229
   27CHL1   H17 3129   5.567   5.106   6.529 -0.6575 -1.7554 -0.4162
   27CHL1   C13 3130   5.387   5.073   6.648 -0.2158 -0.0978 -0.6511
   27CHL1   C18 3131   5.231   5.094   6.639 -0.0579  0.1234  0.4839
   27CHL1  H18A 3132   5.186   5.077   6.740  1.4648  0.4650  1.2599
   27CHL1  H18B 3133   5.208   5.198   6.610  0.8238 -0.2474 -1.6980
   27CHL1  H18C 3134   5.186   5.028   6.562  1.1404  1.9269 -1.8924
   27CHL1   C12 3135   5.416   4.923   6.681 -0.2317 -0.4865 -0.9673
   27CHL1  H12A 3136   5.378   4.851   6.606 -1.9868 -1.2877  0.6053
   27CHL1  H12B 3137   5.526   4.918   6.688 -0.3673 -1.3175  1.7953
   27CHL1   C11 3138   5.364   4.885   6.824 -0.0112  0.6210  0.4704
   27CHL1  H11A 3139   5.256   4.862   6.822  0.1344 -0.0376  0.1204
   27CHL1  H11B 3140   5.407   4.784   6.842  1.5342  1.3557  1.1775
   27CHL1    C9 3141   5.415   4.981   6.932 -0.0902  1.0676  0.1803
   27CHL1    H9 3142   5.521   4.954   6.916 -0.0899  0.5077  1.0705
   27CHL1   C10 3143   5.367   4.936   7.075  0.9660 -0.5591  0.9021
   27CHL1   C19 3144   5.212   4.943   7.086 -0.1130 -0.8250 -0.4391
   27CHL1  H19A 3145   5.189   4.923   7.193 -1.1518  3.0178  0.2027
   27CHL1  H19B 3146   5.181   5.043   7.049 -0.3149 -0.6904  0.0815
   27CHL1  H19C 3147   5.162   4.862   7.029 -0.1350 -1.0388 -0.1201
   27CHL1    C1 3148   5.427   4.802   7.109 -0.4687 -0.0094  0.2888
   27CHL1   H1A 3149   5.399   4.717   7.043  1.7300 -1.2215  0.8352
   27CHL1   H1B 3150   5.536   4.814   7.091  0.0783 -3.0980  1.0068
   27CHL1    C2 3151   5.411   4.755   7.258 -0.1441 -0.4723 -0.5018
   27CHL1   H2A 3152   5.469   4.660   7.264  1.6298  0.6540  0.8818
   27CHL1   H2B 3153   5.309   4.729   7.293  1.1973 -1.8973  2.7306
   27CHL1   C20 3154   5.411   5.109   6.393  0.9262  0.0004 -0.6125
   27CHL1   H20 3155   5.303   5.131   6.385  0.6223 -0.8180  0.8514
   27CHL1   C21 3156   5.436   4.959   6.367  0.4428 -0.0026  0.0736
   27CHL1  H21A 3157   5.535   4.933   6.412  1.1187  2.0732 -0.1054
   27CHL1  H21B 3158   5.427   4.924   6.262  1.3591  0.3856 -0.1460
   27CHL1  H21C 3159   5.355   4.901   6.415  1.7132 -1.8259  0.1205
   27CHL1   C22 3160   5.471   5.197   6.279 -0.7228 -0.3122  0.6720
   27CHL1  H22A 3161   5.479   5.305   6.305  0.4954  0.2733 -1.8022
   27CHL1  H22B 3162   5.572   5.159   6.252 -1.6322 -1.5790 -1.1113
   27CHL1   C23 3163   5.397   5.196   6.144 -0.2776  0.5210 -0.5229
   27CHL1  H23A 3164   5.403   5.090   6.112  5.6587  0.6279 -0.8216
   27CHL1  H23B 3165   5.292   5.220   6.169 -0.4590 -0.6490 -0.0856
   27CHL1   C24 3166   5.442   5.283   6.029  0.9806 -0.0831 -0.4262
   27CHL1  H24A 3167   5.407   5.386   6.052 -1.0550 -0.7148 -0.5131
   27CHL1  H24B 3168   5.551   5.269   6.016  1.5431 -0.4894  3.4010
   27CHL1   C25 3169   5.367   5.257   5.895 -0.1456  0.0170 -0.4822
   27CHL1   H25 3170   5.358   5.147   5.884  0.8513 -0.0824 -0.3411
   27CHL1   C26 3171   5.222   5.310   5.897  0.3412 -0.1210 -1.2554
   27CHL1  H26A 3172   5.168   5.265   5.811 -0.5720  0.7873 -1.1777
   27CHL1  H26B 3173   5.168   5.299   5.993 -1.0824  0.5280 -1.9597
   27CHL1  H26C 3174   5.235   5.420   5.886 -0.0179  0.0599  0.0027
   27CHL1   C27 3175   5.443   5.322   5.780  0.4072  0.1853  0.1358
   27CHL1  H27A 3176   5.529   5.254   5.760 -0.3808 -0.6340 -0.5780
   27CHL1  H27B 3177   5.472   5.426   5.802  0.0709 -0.2333  2.8713
   27CHL1  H27C 3178   5.381   5.327   5.688 -1.6847  2.9337  1.5405
   28CHL1    C3 3179   5.411   0.164   7.466  0.0076  0.6824  0.3588
   28CHL1    H3 3180   5.348   0.075   7.444  1.3686 -0.3155  0.3757
   28CHL1    O3 3181   5.411   0.171   7.608 -0.3494 -0.2703  0.6887
   28CHL1   H3' 3182   5.498   0.142   7.633  0.0808  0.3316 -0.0366
   28CHL1    C4 3183   5.552   0.147   7.417  0.1132  0.4545  0.0023
   28CHL1   H4A 3184   5.613   0.231   7.456 -0.6112  0.4661  1.1357
   28CHL1   H4B 3185   5.589   0.054   7.464 -2.0341 -0.1898  0.5359
   28CHL1    C5 3186   5.560   0.136   7.261  0.2303 -0.7950 -0.3027
   28CHL1    C6 3187   5.608   0.029   7.192 -0.6657 -0.2070 -0.6091
   28CHL1    H6 3188   5.655  -0.060   7.238  1.3169 -0.2500 -2.5716
   28CHL1    C7 3189   5.626   0.030   7.045 -0.2648 -0.0814 -0.8050
   28CHL1   H7A 3190   5.730   0.003   7.015 -0.1464 -1.6289  0.8245
   28CHL1   H7B 3191   5.553  -0.042   7.002 -1.6769  2.2235 -2.5057
   28CHL1    C8 3192   5.604   0.169   6.975  0.3734 -0.1328  0.0974
   28CHL1    H8 3193   5.700   0.226   6.980  0.4041  0.0358 -1.9168
   28CHL1   C14 3194   5.574   0.145   6.833  0.3162 -1.2179 -0.0746
   28CHL1   H14 3195   5.482   0.082   6.832 -0.7742  0.2692 -2.2949
   28CHL1   C15 3196   5.668   0.058   6.742  0.1587 -0.0046  0.8794
   28CHL1  H15A 3197   5.776   0.077   6.762 -0.0027  0.5681  1.2302
   28CHL1  H15B 3198   5.642  -0.050   6.743 -0.6323  0.1672  0.1836
   28CHL1   C16 3199   5.634   0.099   6.594  0.6761 -1.5724 -0.2952
   28CHL1  H16A 3200   5.720   0.136   6.536 -1.3616  1.6844 -1.4894
   28CHL1  H16B 3201   5.584   0.013   6.544  0.8576 -2.0393  0.3149
   28CHL1   C17 3202   5.519   0.207   6.606 -0.4900 -0.5938 -0.0890
   28CHL1   H17 3203   5.419   0.159   6.611 -0.9979  0.4880  0.4457
   28CHL1   C13 3204   5.539   0.275   6.746 -0.3032  0.1769  0.2525
   28CHL1   C18 3205   5.665   0.368   6.751  0.3862  0.1325  0.0271
   28CHL1  H18A 3206   5.631   0.461   6.699 -1.3490  0.6594  1.9284
   28CHL1  H18B 3207   5.695   0.394   6.855 -0.5802 -0.6630  0.5262
   28CHL1  H18C 3208   5.748   0.335   6.686 -2.4473  0.0030 -3.8983
   28CHL1   C12 3209   5.415   0.349   6.815 -0.9657  0.1098  0.1201
   28CHL1  H12A 3210   5.392   0.447   6.766 -0.7126  0.4565  0.6867
   28CHL1  H12B 3211   5.330   0.280   6.796 -1.1422  0.3943 -0.1283
   28CHL1   C11 3212   5.432   0.362   6.967 -0.0976 -0.9546 -0.1759
   28CHL1  H11A 3213   5.507   0.442   6.986 -2.1261  0.6144  1.6659
   28CHL1  H11B 3214   5.336   0.410   6.994  0.7451  0.6762  0.0430
   28CHL1    C9 3215   5.482   0.237   7.047 -0.4641  0.5100 -0.1476
   28CHL1    H9 3216   5.399   0.164   7.041  0.5423 -0.7070  0.4963
   28CHL1   C10 3217   5.499   0.268   7.196  0.0361  0.4657 -0.0391
   28CHL1   C19 3218   5.606   0.371   7.213 -0.3264  0.0345 -0.6867
   28CHL1  H19A 3219   5.706   0.343   7.175 -0.6503 -1.5825 -0.4042
   28CHL1  H19B 3220   5.581   0.472   7.173  1.3553  1.2762  1.2004
   28CHL1  H19C 3221   5.636   0.395   7.317  0.0562 -0.8752 -0.5756
   28CHL1    C1 3222   5.362   0.292   7.253  0.2097 -0.6018 -0.2662
   28CHL1   H1A 3223   5.335   0.393   7.217 -0.4383 -0.1791  1.3376
   28CHL1   H1B 3224   5.285   0.221   7.215 -0.1461 -0.8507  0.8891
   28CHL1    C2 3225   5.352   0.289   7.409  0.3559  0.2098  0.6812
   28CHL1   H2A 3226   5.249   0.303   7.448  0.1381 -1.4831  0.7513
   28CHL1   H2B 3227   5.402   0.382   7.445 -0.3623  0.3593  1.3064
   28CHL1   C20 3228   5.505   0.301   6.480  0.6562 -0.3225 -0.4902
   28CHL1   H20 3229   5.604   0.351   6.474 -0.8898  3.6807  2.4578
   28CHL1   C21 3230   5.395   0.407   6.499 -0.5428  0.0939  0.0085
   28CHL1  H21A 3231   5.382   0.477   6.414 -0.9409 -0.3441 -0.3008
   28CHL1  H21B 3232   5.425   0.478   6.579 -0.8652 -0.4956  0.6612
   28CHL1  H21C 3233   5.301   0.351   6.520  0.5462 -1.4693  1.0288
   28CHL1   C22 3234   5.481   0.215   6.354 -0.2288 -0.6150 -0.3822
   28CHL1  H22A 3235   5.563   0.141   6.349 -0.3674 -1.0090  2.1698
   28CHL1  H22B 3236   5.386   0.157   6.358  0.3990 -1.5634  2.4087
   28CHL1   C23 3237   5.457   0.292   6.228 -0.3849 -0.1020 -0.2320
   28CHL1  H23A 3238   5.367   0.356   6.235 -0.8021 -0.6379 -0.5590
   28CHL1  H23B 3239   5.540   0.363   6.213 -0.3051 -0.2941 -0.7062
   28CHL1   C24 3240   5.442   0.191   6.113  0.4298  0.0284 -0.0527
   28CHL1  H24A 3241   5.516   0.108   6.115  0.3051 -0.0696  0.5029
   28CHL1  H24B 3242   5.348   0.139   6.143  1.2336 -1.2289  0.3904
   28CHL1   C25 3243   5.423   0.256   5.973  0.3185  0.2086 -0.6768
   28CHL1   H25 3244   5.349   0.338   5.982  0.3628  0.2483 -0.6805
   28CHL1   C26 3245   5.556   0.287   5.907 -0.8753 -0.0038  0.1990
   28CHL1  H26A 3246   5.594   0.376   5.962 -1.0503 -0.2206  0.6798
   28CHL1  H26B 3247   5.636   0.209   5.914  1.7778  2.6450  2.3101
   28CHL1  H26C 3248   5.553   0.309   5.798  1.3160  0.2098  0.1239
   28CHL1   C27 3249   5.356   0.149   5.878  0.2942 -0.1465  0.1246
   28CHL1  H27A 3250   5.419   0.058   5.877  1.8380  0.8706  0.2646
   28CHL1  H27B 3251   5.256   0.120   5.917 -1.7311  3.5074 -1.7427
   28CHL1  H27C 3252   5.360   0.191   5.776  1.2960 -0.2147  0.1238
   29CHL1    C3 3253   0.396   3.257   7.362 -0.0076 -0.0449 -0.3974
   29CHL1    H3 3254   0.376   3.366   7.361  0.1398 -0.0250 -1.1160
   29CHL1    O3 3255   0.402   3.201   7.490  0.6512 -0.2746  0.0949
   29CHL1   H3' 3256   0.417   3.109   7.468 -1.3892 -0.5010 -0.5533
   29CHL1    C4 3257   0.295   3.180   7.271 -0.3598  0.2081 -0.1419
   29CHL1   H4A 3258   0.310   3.070   7.277 -0.4538  0.2856  2.6792
   29CHL1   H4B 3259   0.192   3.196   7.311 -0.1857  2.5201 -0.4915
   29CHL1    C5 3260   0.298   3.240   7.129  0.3385  0.2842 -0.5905
   29CHL1    C6 3261   0.192   3.283   7.064  0.4696 -0.4900  0.7730
   29CHL1    H6 3262   0.096   3.270   7.117  1.4267 -1.9591  2.2589
   29CHL1    C7 3263   0.187   3.306   6.914 -0.1890  0.0208  0.3797
   29CHL1   H7A 3264   0.094   3.266   6.869 -0.7430  0.1354  1.3977
   29CHL1   H7B 3265   0.189   3.415   6.890 -1.1313 -0.4124 -1.8603
   29CHL1    C8 3266   0.310   3.228   6.848 -0.3208 -1.1356  0.0175
   29CHL1    H8 3267   0.306   3.117   6.840  1.1548 -1.1633 -0.7431
   29CHL1   C14 3268   0.322   3.258   6.700  0.5768  0.5079 -0.5270
   29CHL1   H14 3269   0.330   3.368   6.689  1.4741  0.5095  0.0967
   29CHL1   C15 3270   0.201   3.222   6.613  0.6843  0.3727  0.1721
   29CHL1  H15A 3271   0.177   3.117   6.642 -2.1130  1.2480  1.3709
   29CHL1  H15B 3272   0.118   3.288   6.646  0.5999 -1.1071  3.2581
   29CHL1   C16 3273   0.254   3.222   6.463  0.7395 -0.0946 -0.8367
   29CHL1  H16A 3274   0.232   3.129   6.406 -0.1271 -0.2301 -0.3143
   29CHL1  H16B 3275   0.210   3.310   6.411  0.6143 -0.0498 -0.6553
   29CHL1   C17 3276   0.402   3.245   6.480  0.0624  0.8429  0.2211
   29CHL1   H17 3277   0.408   3.356   6.472 -0.4081  0.7920 -0.9428
   29CHL1   C13 3278   0.435   3.204   6.627 -0.3791  0.2742 -0.2126
   29CHL1   C18 3279   0.440   3.055   6.627 -0.4386  0.1260 -0.1322
   29CHL1  H18A 3280   0.522   3.020   6.562  0.4043  0.1861  0.8580
   29CHL1  H18B 3281   0.449   3.012   6.729 -2.9453  0.6588  0.3700
   29CHL1  H18C 3282   0.349   3.014   6.579  0.1803 -0.3034 -0.9408
   29CHL1   C12 3283   0.563   3.270   6.688  0.1177  0.3002 -0.2722
   29CHL1  H12A 3284   0.653   3.230   6.638  0.0331  0.0828 -0.2528
   29CHL1  H12B 3285   0.555   3.380   6.680 -0.5310  0.3356  0.6202
   29CHL1   C11 3286   0.574   3.239   6.839 -0.1589 -0.2330  0.9455
   29CHL1  H11A 3287   0.601   3.132   6.845  0.3404 -0.0312  3.3847
   29CHL1  H11B 3288   0.650   3.306   6.885 -0.3530  0.5520  0.1491
   29CHL1    C9 3289   0.439   3.267   6.920  0.0685 -0.0303  0.0940
   29CHL1    H9 3290   0.435   3.378   6.925  1.6038  0.0379  0.1665
   29CHL1   C10 3291   0.438   3.211   7.062 -1.0261 -0.0365 -0.3755
   29CHL1   C19 3292   0.473   3.054   7.063  0.3270  0.0481  0.2559
   29CHL1  H19A 3293   0.580   3.044   7.035  0.5128 -2.4462  1.5962
   29CHL1  H19B 3294   0.458   3.008   7.163 -0.8843  2.0561  1.0641
   29CHL1  H19C 3295   0.403   3.005   6.993  2.2619 -1.4385 -0.7458
   29CHL1    C1 3296   0.539   3.284   7.154  0.2927  1.0701  0.0874
   29CHL1   H1A 3297   0.642   3.281   7.113  0.9037  2.5294  1.4163
   29CHL1   H1B 3298   0.517   3.393   7.153  1.4118  1.3141 -0.0716
   29CHL1    C2 3299   0.538   3.251   7.304 -0.7618 -0.8424  0.5684
   29CHL1   H2A 3300   0.611   3.319   7.354  1.3074 -1.9529 -0.7948
   29CHL1   H2B 3301   0.582   3.149   7.301  2.7908  0.5618 -0.8961
   29CHL1   C20 3302   0.485   3.185   6.364  0.2017 -0.4333  0.5971
   29CHL1   H20 3303   0.502   3.075   6.359  3.0977 -0.0145 -1.4987
   29CHL1   C21 3304   0.627   3.250   6.371  0.3129  0.2907  0.1471
   29CHL1  H21A 3305   0.691   3.207   6.452  0.0590 -0.2280  0.0745
   29CHL1  H21B 3306   0.621   3.360   6.386  2.7821  0.9604 -2.7076
   29CHL1  H21C 3307   0.691   3.239   6.281  0.0322 -2.1776  0.1738
   29CHL1   C22 3308   0.427   3.211   6.223 -0.1074  0.8467 -0.4183
   29CHL1  H22A 3309   0.503   3.170   6.154  0.7781  0.0616  0.9705
   29CHL1  H22B 3310   0.334   3.153   6.203 -1.8337  2.9119  1.0847
   29CHL1   C23 3311   0.398   3.357   6.188  0.5329 -0.0289 -0.5757
   29CHL1  H23A 3312   0.332   3.408   6.262  1.4315 -1.2528  1.1296
   29CHL1  H23B 3313   0.490   3.418   6.185 -0.5953  1.8602  0.9616
   29CHL1   C24 3314   0.338   3.379   6.050  0.3753 -0.7070  0.3417
   29CHL1  H24A 3315   0.361   3.481   6.014  0.6874 -0.0290  2.3396
   29CHL1  H24B 3316   0.395   3.305   5.989  0.6327 -1.5924  1.6050
   29CHL1   C25 3317   0.190   3.334   6.035  0.1304  0.4106 -0.2763
   29CHL1   H25 3318   0.184   3.240   6.094  0.9141  1.5590  1.7428
   29CHL1   C26 3319   0.093   3.434   6.104 -1.0422 -0.1114  0.0933
   29CHL1  H26A 3320   0.131   3.538   6.099 -0.4106 -0.3298  0.2572
   29CHL1  H26B 3321  -0.007   3.424   6.056 -0.4725 -3.3491 -0.7103
   29CHL1  H26C 3322   0.082   3.412   6.212 -1.6152 -2.2890 -0.3626
   29CHL1   C27 3323   0.147   3.321   5.892  0.3153  0.0198 -0.5123
   29CHL1  H27A 3324   0.225   3.253   5.850 -1.1307 -2.2647  0.3295
   29CHL1  H27B 3325   0.059   3.254   5.881  0.3494 -0.2673  0.8147
   29CHL1  H27C 3326   0.139   3.420   5.842 -1.5521 -0.4475 -1.2366
   30CHL1    C3 3327   2.586   4.956   7.376 -0.0674 -0.2284  0.4334
   30CHL1    H3 3328   2.651   4.877   7.420  1.5310 -0.2719 -1.8123
   30CHL1    O3 3329   2.516   5.012   7.485 -0.5954 -0.2900  0.7223
   30CHL1   H3' 3330   2.473   5.090   7.448 -0.7146 -0.3562  0.7245
   30CHL1    C4 3331   2.676   5.064   7.317  0.0471 -0.0252  0.4112
   30CHL1   H4A 3332   2.621   5.159   7.299 -0.2422 -0.3310 -0.3751
   30CHL1   H4B 3333   2.752   5.086   7.395  0.3926  1.1665 -0.2365
   30CHL1    C5 3334   2.736   5.018   7.188 -0.7678 -0.0810  0.0673
   30CHL1    C6 3335   2.868   5.028   7.160  0.1074 -0.3021 -0.7296
   30CHL1    H6 3336   2.935   5.055   7.243  0.4058  0.4572 -1.2007
   30CHL1    C7 3337   2.939   4.987   7.040  0.1139  0.1819 -0.6630
   30CHL1   H7A 3338   3.028   5.049   7.018 -0.5418  0.4368 -2.8170
   30CHL1   H7B 3339   2.976   4.885   7.065 -1.7599 -1.1892 -3.0378
   30CHL1    C8 3340   2.849   4.992   6.923 -0.1837  0.1701 -0.2510
   30CHL1    H8 3341   2.825   5.099   6.903 -0.1766  0.2511  0.1680
   30CHL1   C14 3342   2.917   4.920   6.801  0.4009 -0.2899  0.4644
   30CHL1   H14 3343   2.918   4.810   6.819 -0.2726 -0.5146 -0.7799
   30CHL1   C15 3344   3.061   4.969   6.757  0.6998 -0.7280 -0.3699
   30CHL1  H15A 3345   3.075   5.079   6.753 -0.6816 -0.5491 -0.6612
   30CHL1  H15B 3346   3.138   4.916   6.819  1.5705  1.0845  0.1778
   30CHL1   C16 3347   3.079   4.907   6.615  0.0923 -0.0127  0.0227
   30CHL1  H16A 3348   3.133   4.972   6.542  1.0329 -0.0177  0.6924
   30CHL1  H16B 3349   3.129   4.809   6.635 -0.3169  0.2894  2.9761
   30CHL1   C17 3350   2.930   4.856   6.577 -0.5617  0.3295 -0.4199
   30CHL1   H17 3351   2.934   4.749   6.605  2.6142  0.3650 -0.4235
   30CHL1   C13 3352   2.834   4.930   6.676 -0.1204 -0.2896 -0.6265
   30CHL1   C18 3353   2.804   5.074   6.637 -0.5791 -0.1334  0.4948
   30CHL1  H18A 3354   2.750   5.117   6.724 -1.8240  0.0980 -0.3584
   30CHL1  H18B 3355   2.892   5.135   6.610 -1.7890  0.7239 -1.8633
   30CHL1  H18C 3356   2.734   5.076   6.550  0.4564 -0.2630 -0.3527
   30CHL1   C12 3357   2.706   4.846   6.705 -1.2830 -0.6453 -0.2388
   30CHL1  H12A 3358   2.645   4.874   6.616 -0.3603  4.2041  0.3821
   30CHL1  H12B 3359   2.739   4.740   6.709 -0.8372 -0.4800  0.6724
   30CHL1   C11 3360   2.633   4.890   6.836  1.2731 -0.1038  0.3460
   30CHL1  H11A 3361   2.570   4.977   6.808 -0.3385 -1.1672  0.5157
   30CHL1  H11B 3362   2.559   4.811   6.859  1.1211  0.2225  0.9782
   30CHL1    C9 3363   2.716   4.909   6.957 -0.6454  0.3587 -0.1367
   30CHL1    H9 3364   2.751   4.809   6.990  3.5083  0.9926 -1.9011
   30CHL1   C10 3365   2.639   4.970   7.078 -0.0496  1.0129  0.1404
   30CHL1   C19 3366   2.548   5.087   7.030 -0.4095 -0.9010  0.2539
   30CHL1  H19A 3367   2.596   5.178   6.989 -0.6634 -0.7483  0.2920
   30CHL1  H19B 3368   2.466   5.064   6.959 -1.9810 -1.9761  2.2826
   30CHL1  H19C 3369   2.495   5.127   7.119  0.9476 -0.2281  0.7852
   30CHL1    C1 3370   2.560   4.853   7.143 -0.5027 -0.3376 -0.4127
   30CHL1   H1A 3371   2.485   4.825   7.067  0.6885  1.6662 -2.4644
   30CHL1   H1B 3372   2.628   4.768   7.165  1.7101  1.8486  2.0669
   30CHL1    C2 3373   2.486   4.893   7.276 -0.5119  0.2557 -0.2414
   30CHL1   H2A 3374   2.436   4.806   7.325 -2.1533  1.0375 -0.4530
   30CHL1   H2B 3375   2.412   4.973   7.255  0.1590  0.7376 -0.7926
   30CHL1   C20 3376   2.905   4.876   6.429 -0.5808 -0.5420 -0.8661
   30CHL1   H20 3377   2.916   4.984   6.407 -0.0412  0.2543  2.6096
   30CHL1   C21 3378   2.764   4.826   6.389 -0.6142 -0.2662 -0.3101
   30CHL1  H21A 3379   2.690   4.905   6.417  2.4446  3.1826 -1.2970
   30CHL1  H21B 3380   2.738   4.728   6.436 -0.0852 -0.2246  0.0748
   30CHL1  H21C 3381   2.764   4.801   6.281  1.7326 -1.3143 -0.1199
   30CHL1   C22 3382   3.009   4.803   6.340  0.0657 -0.2054 -0.1838
   30CHL1  H22A 3383   3.107   4.849   6.366  1.2168 -1.6233 -1.7887
   30CHL1  H22B 3384   3.025   4.698   6.370  2.0933  0.7036  2.2774
   30CHL1   C23 3385   2.993   4.814   6.186 -0.3035 -0.5785  0.0209
   30CHL1  H23A 3386   2.889   4.815   6.146 -0.4348  1.4610  0.3306
   30CHL1  H23B 3387   3.022   4.920   6.171 -1.8367 -0.1467 -0.0806
   30CHL1   C24 3388   3.077   4.707   6.116 -0.3345  0.1202  0.0429
   30CHL1  H24A 3389   3.179   4.711   6.160 -1.1083 -2.7694  2.4458
   30CHL1  H24B 3390   3.037   4.611   6.155 -2.2709  1.7424  2.4252
   30CHL1   C25 3391   3.054   4.698   5.963 -0.5123  0.2292 -0.1236
   30CHL1   H25 3392   3.117   4.614   5.928  0.1163  0.5831  0.1230
   30CHL1   C26 3393   2.907   4.661   5.919  0.1231  0.8851 -0.5840
   30CHL1  H26A 3394   2.891   4.560   5.963  1.9104  0.9796  0.4026
   30CHL1  H26B 3395   2.827   4.730   5.952 -1.3125 -0.9058 -0.1243
   30CHL1  H26C 3396   2.892   4.654   5.810 -0.8391  1.9167 -0.5349
   30CHL1   C27 3397   3.090   4.828   5.888  0.4769 -0.9311 -0.0311
   30CHL1  H27A 3398   3.102   4.819   5.778 -0.8581  0.8456 -0.3662
   30CHL1  H27B 3399   3.006   4.900   5.899 -1.6163 -2.7672 -2.5287
   30CHL1  H27C 3400   3.183   4.867   5.935  0.5812 -0.9113 -0.2537
   31CHL1    C3 3401   0.375   3.654   7.279 -0.1065  0.3469 -1.1028
   31CHL1    H3 3402   0.365   3.545   7.261 -3.3015  0.2631  0.5173
   31CHL1    O3 3403   0.361   3.667   7.421  0.6370  0.2260  0.2818
   31CHL1   H3' 3404   0.440   3.645   7.471  0.6115 -0.7664 -0.0803
   31CHL1    C4 3405   0.512   3.710   7.236 -0.4298 -0.3854 -0.9020
   31CHL1   H4A 3406   0.518   3.813   7.276  1.3308 -0.8360  0.0777
   31CHL1   H4B 3407   0.593   3.652   7.284 -1.5423 -2.7952 -1.7815
   31CHL1    C5 3408   0.520   3.710   7.084  0.2602 -0.2016  0.0805
   31CHL1    C6 3409   0.622   3.655   7.020 -0.3949  0.0663  0.2532
   31CHL1    H6 3410   0.699   3.611   7.086 -1.9190 -3.1134  0.0842
   31CHL1    C7 3411   0.649   3.649   6.874  0.3171 -0.1455 -0.6437
   31CHL1   H7A 3412   0.754   3.682   6.862 -0.0401  1.3650  0.2161
   31CHL1   H7B 3413   0.635   3.549   6.827 -1.2117  0.7087 -2.1189
   31CHL1    C8 3414   0.549   3.736   6.797 -0.0740  0.0313  0.1863
   31CHL1    H8 3415   0.581   3.842   6.808 -0.1934  0.1671 -0.7092
   31CHL1   C14 3416   0.541   3.694   6.645  0.2743 -0.2772 -0.3117
   31CHL1   H14 3417   0.499   3.592   6.659  0.0346 -0.1172  0.1740
   31CHL1   C15 3418   0.674   3.675   6.569  0.9599  0.0452  0.0234
   31CHL1  H15A 3419   0.749   3.753   6.596  1.6304  0.5408 -2.9210
   31CHL1  H15B 3420   0.726   3.581   6.599 -0.0482 -0.1956  1.0751
   31CHL1   C16 3421   0.643   3.689   6.423 -0.2027 -0.0078  0.1172
   31CHL1  H16A 3422   0.693   3.774   6.373 -1.9750  0.2213 -1.3873
   31CHL1  H16B 3423   0.667   3.600   6.360  0.2286  0.9074 -1.0558
   31CHL1   C17 3424   0.493   3.723   6.416  0.8740  0.6018 -0.0136
   31CHL1   H17 3425   0.443   3.624   6.410 -0.0778  1.0751 -0.0448
   31CHL1   C13 3426   0.454   3.782   6.552  0.0743  1.0112 -0.6694
   31CHL1   C18 3427   0.488   3.927   6.558 -0.1140 -0.3053 -0.1208
   31CHL1  H18A 3428   0.460   3.963   6.659 -1.6024 -1.3957 -0.1115
   31CHL1  H18B 3429   0.596   3.937   6.535  0.0796 -0.9272  0.4869
   31CHL1  H18C 3430   0.424   3.983   6.486 -0.8598 -1.0223 -0.0346
   31CHL1   C12 3431   0.313   3.758   6.614 -0.2213 -0.5371  0.3138
   31CHL1  H12A 3432   0.237   3.826   6.571 -0.7505  1.6991  4.3105
   31CHL1  H12B 3433   0.284   3.650   6.614  0.3148 -0.6966  1.3096
   31CHL1   C11 3434   0.301   3.789   6.766 -0.4165  0.9089 -0.5025
   31CHL1  H11A 3435   0.313   3.899   6.776  1.1704  0.9890 -2.5462
   31CHL1  H11B 3436   0.205   3.749   6.805 -0.5383  0.3254 -1.3679
   31CHL1    C9 3437   0.409   3.721   6.856  0.0869 -0.1593 -0.1470
   31CHL1    H9 3438   0.389   3.612   6.852  2.4717 -0.6523 -0.1653
   31CHL1   C10 3439   0.400   3.767   7.004 -0.2482 -0.0158  0.2903
   31CHL1   C19 3440   0.402   3.919   7.011  0.3774 -0.1967 -0.1488
   31CHL1  H19A 3441   0.479   3.963   6.944 -0.3412 -0.0297 -0.8752
   31CHL1  H19B 3442   0.297   3.950   6.993 -0.6880 -2.4943  1.5777
   31CHL1  H19C 3443   0.422   3.951   7.116  0.5453 -0.9827  0.0692
   31CHL1    C1 3444   0.272   3.710   7.071 -0.0963 -0.1419  0.0676
   31CHL1   H1A 3445   0.187   3.753   7.015  0.5638  1.5009  0.2743
   31CHL1   H1B 3446   0.267   3.601   7.050 -3.0160 -0.0655  0.0258
   31CHL1    C2 3447   0.267   3.732   7.220  0.1924  0.2977  0.0939
   31CHL1   H2A 3448   0.176   3.683   7.258  1.4902 -0.3455  2.5920
   31CHL1   H2B 3449   0.269   3.840   7.247 -1.0544  0.8644 -1.9046
   31CHL1   C20 3450   0.430   3.788   6.292 -0.0255 -0.0013 -0.3111
   31CHL1   H20 3451   0.464   3.894   6.304  0.0542  0.0884 -1.2940
   31CHL1   C21 3452   0.272   3.784   6.292  0.8429 -0.2671 -0.5532
   31CHL1  H21A 3453   0.227   3.840   6.376  1.1548 -1.1015  0.1783
   31CHL1  H21B 3454   0.249   3.676   6.293  0.2197 -0.1381 -0.7015
   31CHL1  H21C 3455   0.234   3.837   6.202  0.7613  3.6630  1.5843
   31CHL1   C22 3456   0.477   3.726   6.158  0.9086 -0.1335 -0.3883
   31CHL1  H22A 3457   0.588   3.728   6.163  0.8991  2.8383  1.5463
   31CHL1  H22B 3458   0.445   3.620   6.156 -2.7390  0.7635  1.1273
   31CHL1   C23 3459   0.443   3.803   6.035  0.0633  0.1160 -0.3440
   31CHL1  H23A 3460   0.472   3.742   5.947 -2.7815 -0.0384 -1.2794
   31CHL1  H23B 3461   0.333   3.811   6.025 -0.1010 -0.2529  0.9633
   31CHL1   C24 3462   0.494   3.949   6.025  0.2060 -0.0364 -0.1429
   31CHL1  H24A 3463   0.462   4.006   6.115  0.6913  1.5438 -0.9151
   31CHL1  H24B 3464   0.604   3.945   6.017  0.3037 -1.4294  1.5499
   31CHL1   C25 3465   0.459   4.030   5.904 -0.1360  0.0756  0.4146
   31CHL1   H25 3466   0.489   3.977   5.811 -0.9396 -0.1611  0.2867
   31CHL1   C26 3467   0.311   4.063   5.888  0.0865 -0.0426 -0.0767
   31CHL1  H26A 3468   0.241   3.977   5.885  0.1523 -0.1850  1.6459
   31CHL1  H26B 3469   0.274   4.123   5.973  0.1944 -0.7540  0.4807
   31CHL1  H26C 3470   0.294   4.125   5.797 -0.0546 -0.0665 -0.0661
   31CHL1   C27 3471   0.555   4.153   5.901 -0.0041 -0.3939  0.6984
   31CHL1  H27A 3472   0.543   4.222   5.987  0.8877  0.6810 -0.0023
   31CHL1  H27B 3473   0.659   4.114   5.907 -0.3651 -1.4600  0.3013
   31CHL1  H27C 3474   0.546   4.218   5.811  2.9143 -0.4098  0.2937
   32CHL1    C3 3475   6.643   1.281   7.149 -0.0786  0.2119 -0.5670
   32CHL1    H3 3476   6.542   1.278   7.103  0.1215  0.3504 -1.0252
   32CHL1    O3 3477   6.636   1.351   7.273 -0.0416 -1.0273 -0.1514
   32CHL1   H3' 3478   6.545   1.378   7.288  1.0086  2.5851  0.5574
   32CHL1    C4 3479   6.682   1.135   7.178  0.0434 -0.2900  0.8181
   32CHL1   H4A 3480   6.781   1.128   7.227  0.3360  0.1476  0.2878
   32CHL1   H4B 3481   6.625   1.100   7.267  1.2396  0.3508  1.8598
   32CHL1    C5 3482   6.686   1.041   7.055 -0.4777  0.0465 -0.1404
   32CHL1    C6 3483   6.614   0.921   7.045 -0.3714 -0.3828 -0.4272
   32CHL1    H6 3484   6.528   0.915   7.114 -1.8562 -1.2664 -2.2717
   32CHL1    C7 3485   6.632   0.820   6.929  0.3092 -0.5560 -0.2577
   32CHL1   H7A 3486   6.658   0.717   6.962  0.3062 -0.8056 -0.9971
   32CHL1   H7B 3487   6.535   0.814   6.874  0.1133  0.9753 -0.1199
   32CHL1    C8 3488   6.736   0.873   6.827 -0.0807 -0.1678 -0.2158
   32CHL1    H8 3489   6.832   0.827   6.857  0.0862  0.8017  0.7987
   32CHL1   C14 3490   6.701   0.827   6.682  0.5446  0.7228 -0.1061
   32CHL1   H14 3491   6.612   0.886   6.651 -0.5375 -0.4430  0.7385
   32CHL1   C15 3492   6.667   0.679   6.680  0.7006  0.0871 -0.2113
   32CHL1  H15A 3493   6.745   0.637   6.748 -0.0796 -0.5660  0.2950
   32CHL1  H15B 3494   6.568   0.662   6.726 -0.1719  1.3517 -1.5260
   32CHL1   C16 3495   6.697   0.634   6.537  0.1403  0.7799  0.2256
   32CHL1  H16A 3496   6.769   0.549   6.531 -0.9564 -0.1422 -0.2066
   32CHL1  H16B 3497   6.609   0.586   6.488  0.0703 -1.1170  2.0565
   32CHL1   C17 3498   6.746   0.761   6.462  0.2377  0.3920 -0.5427
   32CHL1   H17 3499   6.652   0.815   6.437 -0.3304  0.3201  1.3217
   32CHL1   C13 3500   6.808   0.849   6.575 -0.9526  0.4363 -0.2320
   32CHL1   C18 3501   6.950   0.789   6.615 -0.5008  0.1365 -0.2442
   32CHL1  H18A 3502   6.953   0.680   6.636 -0.1311  0.0061 -0.9458
   32CHL1  H18B 3503   7.019   0.814   6.531 -0.7861  1.5898 -0.0679
   32CHL1  H18C 3504   6.984   0.844   6.706 -2.1865  1.2250 -0.2235
   32CHL1   C12 3505   6.825   1.002   6.552 -0.1290  0.3604 -0.0189
   32CHL1  H12A 3506   6.911   1.020   6.485  0.5572 -3.1955 -0.2783
   32CHL1  H12B 3507   6.731   1.042   6.509 -0.6824 -0.2293  0.6283
   32CHL1   C11 3508   6.857   1.070   6.687  0.1410  0.2449 -0.3988
   32CHL1  H11A 3509   6.956   1.038   6.729  0.3929  1.6621  0.1354
   32CHL1  H11B 3510   6.845   1.180   6.688 -0.9743  0.1320  0.5022
   32CHL1    C9 3511   6.759   1.022   6.808  0.6384  0.3000 -0.6826
   32CHL1    H9 3512   6.661   1.063   6.778  0.1975  0.2108  0.5630
   32CHL1   C10 3513   6.783   1.095   6.949 -0.3654  0.1647 -0.2529
   32CHL1   C19 3514   6.927   1.075   7.004 -0.3724  0.6162  0.5726
   32CHL1  H19A 3515   6.963   0.970   7.014  0.1166  0.7361  0.1607
   32CHL1  H19B 3516   6.986   1.134   6.931 -0.3446  1.3229  1.1590
   32CHL1  H19C 3517   6.951   1.114   7.105  2.5310 -0.7839  0.5506
   32CHL1    C1 3518   6.769   1.250   6.933 -0.0232 -0.2458 -0.2731
   32CHL1   H1A 3519   6.867   1.281   6.892  0.5017  1.8729  2.3428
   32CHL1   H1B 3520   6.695   1.267   6.851 -0.2651 -5.0250 -1.3339
   32CHL1    C2 3521   6.748   1.331   7.056 -0.3916 -0.0443 -0.1498
   32CHL1   H2A 3522   6.717   1.436   7.035  0.2852  0.8199  2.7501
   32CHL1   H2B 3523   6.846   1.334   7.107  0.4846  0.5094 -1.7852
   32CHL1   C20 3524   6.816   0.729   6.334  0.0229  0.0961  0.2464
   32CHL1   H20 3525   6.903   0.662   6.352  0.0544 -0.2065 -0.9421
   32CHL1   C21 3526   6.870   0.857   6.263  0.7507 -0.5008  0.4059
   32CHL1  H21A 3527   6.905   0.840   6.159 -1.2177 -0.3649 -0.3144
   32CHL1  H21B 3528   6.955   0.894   6.324  0.5836  1.7086 -0.6074
   32CHL1  H21C 3529   6.793   0.936   6.256 -0.0025 -1.2971 -0.5613
   32CHL1   C22 3530   6.715   0.654   6.239  0.2883  0.7617 -0.0128
   32CHL1  H22A 3531   6.651   0.580   6.290 -0.6397  1.1743 -0.5619
   32CHL1  H22B 3532   6.638   0.724   6.201  2.9074  2.3488 -2.8447
   32CHL1   C23 3533   6.785   0.573   6.125  1.1030 -0.4369  0.3097
   32CHL1  H23A 3534   6.704   0.510   6.084  1.7948 -2.2519  1.6004
   32CHL1  H23B 3535   6.810   0.657   6.057 -0.8215 -0.8633 -0.9888
   32CHL1   C24 3536   6.900   0.484   6.157  0.0294 -0.0673  0.2409
   32CHL1  H24A 3537   6.994   0.544   6.147 -0.5128  0.4963 -1.9718
   32CHL1  H24B 3538   6.890   0.446   6.261  1.3296  1.6761  1.0501
   32CHL1   C25 3539   6.910   0.372   6.057 -0.3658  1.0587 -1.1023
   32CHL1   H25 3540   6.811   0.324   6.044  2.0081 -4.5498 -1.2394
   32CHL1   C26 3541   6.948   0.414   5.917  0.5175  0.0891 -0.0271
   32CHL1  H26A 3542   6.872   0.477   5.866  0.8298  0.0034 -0.5998
   32CHL1  H26B 3543   7.048   0.464   5.914  0.1982  0.8542  1.1049
   32CHL1  H26C 3544   6.944   0.324   5.853  1.2410  0.1888 -0.2192
   32CHL1   C27 3545   7.011   0.257   6.098 -0.1836 -0.5004  0.0001
   32CHL1  H27A 3546   6.956   0.167   6.135 -3.9847  0.8416 -1.9195
   32CHL1  H27B 3547   7.088   0.226   6.024 -0.3821 -0.4662 -0.2229
   32CHL1  H27C 3548   7.070   0.302   6.180  0.5460  3.7049 -2.5604
   33CHL1    C3 3549   5.545   2.147   7.433 -0.5251 -0.8628  0.9676
   33CHL1    H3 3550   5.501   2.249   7.441  1.1628 -0.0860  1.0493
   33CHL1    O3 3551   5.570   2.107   7.569  0.0338 -0.2971  0.2177
   33CHL1   H3' 3552   5.642   2.043   7.570  0.6773  0.3912  1.3554
   33CHL1    C4 3553   5.446   2.055   7.359  0.2136 -0.9267  0.4778
   33CHL1   H4A 3554   5.495   1.955   7.365  2.8156  0.2723  0.9537
   33CHL1   H4B 3555   5.354   2.056   7.421  0.4331  0.4773  0.8280
   33CHL1    C5 3556   5.426   2.108   7.219  0.3832  0.2689 -0.6347
   33CHL1    C6 3557   5.297   2.138   7.186  0.0721 -0.5535  0.1480
   33CHL1    H6 3558   5.220   2.122   7.263 -1.1507  1.0269 -0.6791
   33CHL1    C7 3559   5.267   2.191   7.045  0.4920 -0.2567 -0.0812
   33CHL1   H7A 3560   5.191   2.122   7.004  0.8531 -0.5721 -0.2237
   33CHL1   H7B 3561   5.227   2.295   7.051 -0.2501 -0.5130 -0.4809
   33CHL1    C8 3562   5.382   2.206   6.945 -0.3913  0.0172 -0.2734
   33CHL1    H8 3563   5.384   2.108   6.893  1.0853 -0.1568  0.0793
   33CHL1   C14 3564   5.348   2.312   6.829  0.2814  0.1154 -0.1237
   33CHL1   H14 3565   5.342   2.411   6.880 -2.4452  0.7455 -1.4718
   33CHL1   C15 3566   5.220   2.287   6.742  0.2510 -0.1225 -0.4896
   33CHL1  H15A 3567   5.222   2.182   6.705  1.8683  0.4761 -2.3164
   33CHL1  H15B 3568   5.119   2.294   6.787  1.0886 -0.5030  1.5631
   33CHL1   C16 3569   5.249   2.377   6.624 -1.0793 -0.3541  0.3909
   33CHL1  H16A 3570   5.228   2.329   6.527  4.1599 -0.9038 -0.7685
   33CHL1  H16B 3571   5.187   2.469   6.636 -2.5693 -1.0699 -1.4488
   33CHL1   C17 3572   5.394   2.433   6.639 -0.0122 -0.7586 -0.4101
   33CHL1   H17 3573   5.395   2.529   6.695  2.9995 -1.5636  1.1014
   33CHL1   C13 3574   5.460   2.328   6.730 -0.4637 -0.4809 -0.1952
   33CHL1   C18 3575   5.491   2.201   6.641 -0.2998  0.6154  0.5868
   33CHL1  H18A 3576   5.595   2.220   6.609 -0.2237 -1.5232 -0.6383
   33CHL1  H18B 3577   5.494   2.102   6.691  0.3514 -0.0823 -0.7789
   33CHL1  H18C 3578   5.428   2.200   6.549  0.2875 -1.3914  0.1561
   33CHL1   C12 3579   5.592   2.361   6.805 -0.0087  0.0785  0.1977
   33CHL1  H12A 3580   5.680   2.370   6.738  0.3584  1.6798  0.8401
   33CHL1  H12B 3581   5.577   2.460   6.854  1.6604  0.1115  0.7322
   33CHL1   C11 3582   5.626   2.261   6.909 -0.2197  0.1091  0.2134
   33CHL1  H11A 3583   5.638   2.159   6.866  0.2540  0.6310 -0.9413
   33CHL1  H11B 3584   5.712   2.298   6.968  0.5906 -0.6117 -0.4858
   33CHL1    C9 3585   5.512   2.243   7.015  0.0782 -0.2948 -0.1490
   33CHL1    H9 3586   5.491   2.344   7.056  0.9142  0.0505 -0.5499
   33CHL1   C10 3587   5.552   2.147   7.135 -0.1560 -0.6078  0.4024
   33CHL1   C19 3588   5.609   2.008   7.080  0.5154 -0.5696  0.2473
   33CHL1  H19A 3589   5.528   1.969   7.015 -0.6729  0.5605  1.0002
   33CHL1  H19B 3590   5.707   2.011   7.028  0.0299  0.1860 -0.6536
   33CHL1  H19C 3591   5.634   1.943   7.166 -1.1117  0.0632  1.2414
   33CHL1    C1 3592   5.660   2.219   7.218  0.0049 -0.0922  0.0916
   33CHL1   H1A 3593   5.754   2.209   7.159 -0.8813 -1.9091 -1.1188
   33CHL1   H1B 3594   5.623   2.323   7.226 -0.6073 -0.4069  1.5466
   33CHL1    C2 3595   5.683   2.165   7.362 -1.1323  0.6705  0.1033
   33CHL1   H2A 3596   5.745   2.236   7.420 -2.7992  1.7033  0.6840
   33CHL1   H2B 3597   5.738   2.070   7.342 -1.2104  1.1009 -2.4834
   33CHL1   C20 3598   5.458   2.470   6.502 -0.2723 -0.3400  0.2265
   33CHL1   H20 3599   5.454   2.382   6.434  0.5256  0.3755 -0.7563
   33CHL1   C21 3600   5.602   2.513   6.510 -0.1946 -0.0670 -0.1286
   33CHL1  H21A 3601   5.629   2.576   6.423 -1.4990  2.5225  1.2210
   33CHL1  H21B 3602   5.670   2.427   6.521 -0.1067  0.2113  1.9689
   33CHL1  H21C 3603   5.628   2.575   6.599  0.3530 -0.0238 -0.3175
   33CHL1   C22 3604   5.367   2.572   6.430 -0.1080 -0.7421  0.1931
   33CHL1  H22A 3605   5.261   2.541   6.442 -0.9512  1.6117 -0.5535
   33CHL1  H22B 3606   5.374   2.680   6.457  2.7589 -0.9013  0.4520
   33CHL1   C23 3607   5.381   2.558   6.281  0.3329  0.3605 -0.0420
   33CHL1  H23A 3608   5.475   2.615   6.265  1.1186 -0.4525  1.4274
   33CHL1  H23B 3609   5.397   2.453   6.248  0.2771  1.4078 -3.8115
   33CHL1   C24 3610   5.270   2.624   6.199  0.2866  0.0153  0.0250
   33CHL1  H24A 3611   5.171   2.602   6.244 -0.0831 -1.2414 -1.3341
   33CHL1  H24B 3612   5.279   2.735   6.194  1.8297 -0.1094 -0.5703
   33CHL1   C25 3613   5.263   2.590   6.053 -0.6291  0.5162  0.1795
   33CHL1   H25 3614   5.259   2.479   6.055  3.3597  0.1404 -1.8806
   33CHL1   C26 3615   5.140   2.643   5.981  0.5622  0.6726  0.7154
   33CHL1  H26A 3616   5.141   2.603   5.878 -0.0109  1.3861  0.4291
   33CHL1  H26B 3617   5.047   2.598   6.024 -0.0275 -0.3160 -1.4696
   33CHL1  H26C 3618   5.137   2.754   5.980 -1.0596  0.6676 -1.5224
   33CHL1   C27 3619   5.389   2.632   5.977 -0.0111 -0.4538  0.0418
   33CHL1  H27A 3620   5.412   2.741   5.979 -0.4632 -0.3264 -0.8962
   33CHL1  H27B 3621   5.478   2.573   6.006 -0.2163 -0.5053  0.5869
   33CHL1  H27C 3622   5.378   2.611   5.868  0.2633  2.4714 -0.6562
   34CHL1    C3 3623   0.879   2.847   7.250 -0.2830 -0.1451  0.1184
   34CHL1    H3 3624   0.794   2.786   7.210  0.0646 -0.2469 -0.4834
   34CHL1    O3 3625   0.881   2.853   7.395 -0.3933  0.4354 -0.2577
   34CHL1   H3' 3626   0.970   2.824   7.419 -0.2926  1.9228  1.3502
   34CHL1    C4 3627   1.005   2.775   7.192 -0.6183  0.1147 -0.3879
   34CHL1   H4A 3628   1.095   2.831   7.226 -0.0672 -1.3144  0.6338
   34CHL1   H4B 3629   1.029   2.673   7.230  1.5482  1.3812  1.9532
   34CHL1    C5 3630   1.007   2.779   7.037  0.4267  0.7573  0.5179
   34CHL1    C6 3631   1.026   2.663   6.974  0.1228  0.3891 -0.5100
   34CHL1    H6 3632   1.046   2.571   7.032  0.3188  0.0944 -1.0430
   34CHL1    C7 3633   1.030   2.649   6.828  0.0418 -0.2896 -0.3205
   34CHL1   H7A 3634   1.124   2.607   6.787  0.7545 -0.3649  1.3064
   34CHL1   H7B 3635   0.948   2.587   6.786 -1.1899  1.5942 -0.8683
   34CHL1    C8 3636   1.032   2.786   6.751  0.0357  0.0326 -0.9017
   34CHL1    H8 3637   1.136   2.823   6.755  0.5922 -1.2816 -2.4161
   34CHL1   C14 3638   0.993   2.765   6.606  0.0975 -0.4222  0.4592
   34CHL1   H14 3639   0.884   2.746   6.606 -0.0862  0.3854 -1.6831
   34CHL1   C15 3640   1.069   2.658   6.532 -0.2008  0.4893  0.1752
   34CHL1  H15A 3641   1.175   2.650   6.566 -0.3145  1.3098  0.7558
   34CHL1  H15B 3642   1.023   2.557   6.541 -0.2743  0.0131 -3.8414
   34CHL1   C16 3643   1.053   2.696   6.388  0.4235 -0.6904  0.2613
   34CHL1  H16A 3644   1.152   2.694   6.337  0.3748  0.8840  0.0441
   34CHL1  H16B 3645   0.981   2.627   6.340 -2.4010  1.0654  1.7143
   34CHL1   C17 3646   0.985   2.837   6.382  0.1356 -0.4810  0.0195
   34CHL1   H17 3647   0.877   2.815   6.372  0.1125 -0.3156 -0.0940
   34CHL1   C13 3648   1.004   2.898   6.527  0.0431  0.6810  0.6284
   34CHL1   C18 3649   1.146   2.954   6.527  0.1786 -0.5491  0.2661
   34CHL1  H18A 3650   1.198   2.964   6.625 -0.8618 -1.9351  0.9848
   34CHL1  H18B 3651   1.215   2.899   6.461  0.5942 -0.0935  0.3102
   34CHL1  H18C 3652   1.140   3.056   6.484 -0.6960 -0.4089  0.6944
   34CHL1   C12 3653   0.908   2.997   6.583  0.2415 -0.2896  0.3226
   34CHL1  H12A 3654   0.910   3.096   6.534 -0.5296 -0.1004  0.6565
   34CHL1  H12B 3655   0.805   2.954   6.585  0.9322 -2.0151  0.3948
   34CHL1   C11 3656   0.944   3.025   6.730 -0.2663  0.0176  1.0905
   34CHL1  H11A 3657   1.044   3.073   6.734  0.8065 -1.9419 -0.5809
   34CHL1  H11B 3658   0.863   3.086   6.774 -2.1920 -1.6784  0.0712
   34CHL1    C9 3659   0.949   2.894   6.817  0.1934  0.7988 -0.2703
   34CHL1    H9 3660   0.846   2.850   6.816  1.6378 -3.0434  0.9769
   34CHL1   C10 3661   0.975   2.913   6.966  0.2582 -0.8704  0.3756
   34CHL1   C19 3662   1.096   3.001   6.986  0.2211  0.1150 -0.2063
   34CHL1  H19A 3663   1.182   2.956   6.932 -0.5909  0.4779 -1.8923
   34CHL1  H19B 3664   1.076   3.102   6.945 -1.6922 -0.2894 -0.3801
   34CHL1  H19C 3665   1.119   3.008   7.094 -0.3663 -2.6373  0.1826
   34CHL1    C1 3666   0.856   2.984   7.035 -0.0746 -0.0716 -0.4200
   34CHL1   H1A 3667   0.857   3.089   6.998 -0.5260 -0.4710 -1.6004
   34CHL1   H1B 3668   0.757   2.940   7.011 -0.7492  2.2437 -2.1406
   34CHL1    C2 3669   0.860   2.988   7.193 -0.1620 -0.5957  0.3928
   34CHL1   H2A 3670   0.765   3.029   7.233  0.0634 -0.8818  1.2493
   34CHL1   H2B 3671   0.950   3.048   7.219  0.2464 -0.8854 -0.3354
   34CHL1   C20 3672   1.034   2.918   6.264 -0.2327  0.1727  0.2455
   34CHL1   H20 3673   1.140   2.945   6.281 -0.2484  0.2288  0.2538
   34CHL1   C21 3674   0.954   3.044   6.261 -0.5331 -0.3983 -0.3060
   34CHL1  H21A 3675   0.926   3.083   6.161 -0.9769 -1.0794 -0.4527
   34CHL1  H21B 3676   1.023   3.116   6.311  0.0347 -1.2829  0.1960
   34CHL1  H21C 3677   0.866   3.032   6.327  0.7837  1.0949  1.8814
   34CHL1   C22 3678   1.028   2.839   6.133 -0.4838  1.2576 -0.1541
   34CHL1  H22A 3679   1.076   2.740   6.151 -1.7458  0.1891 -2.3889
   34CHL1  H22B 3680   0.923   2.825   6.103 -1.1520 -0.4000  2.5434
   34CHL1   C23 3681   1.118   2.903   6.022  0.1248 -0.3382  0.2923
   34CHL1  H23A 3682   1.083   3.005   5.997 -1.9425 -0.9076  0.6896
   34CHL1  H23B 3683   1.222   2.919   6.059 -0.3768  2.9219  0.5922
   34CHL1   C24 3684   1.117   2.819   5.886 -0.5427 -1.1448 -0.7697
   34CHL1  H24A 3685   1.147   2.715   5.911 -1.6533 -1.5037 -0.8571
   34CHL1  H24B 3686   1.017   2.811   5.839 -0.1451  1.4490 -2.2411
   34CHL1   C25 3687   1.210   2.882   5.774 -0.7954 -0.8752 -0.4748
   34CHL1   H25 3688   1.198   2.993   5.777  3.6254 -0.1937  1.6813
   34CHL1   C26 3689   1.351   2.850   5.810 -0.1500  0.3692 -0.3858
   34CHL1  H26A 3690   1.367   2.845   5.920  0.1999  2.2491 -0.3101
   34CHL1  H26B 3691   1.372   2.752   5.763 -1.9668 -0.1039 -0.3119
   34CHL1  H26C 3692   1.428   2.922   5.774 -0.8587  2.0270  1.2066
   34CHL1   C27 3693   1.179   2.829   5.633  0.3898 -0.1619  0.1393
   34CHL1  H27A 3694   1.073   2.837   5.603  0.5241 -3.9155 -2.0008
   34CHL1  H27B 3695   1.252   2.880   5.566  3.3408 -0.5209  2.8195
   34CHL1  H27C 3696   1.208   2.723   5.616  1.2953  0.4342 -2.4609
   35CHL1    C3 3697   2.231   0.010   7.001  0.7269  0.5023  0.3212
   35CHL1    H3 3698   2.192  -0.093   6.982  0.4280  0.6630  0.0500
   35CHL1    O3 3699   2.190   0.037   7.133  0.7287  0.5519  0.1827
   35CHL1   H3' 3700   2.227   0.125   7.138 -1.6136  1.6861 -0.7465
   35CHL1    C4 3701   2.389   0.011   6.987 -0.2008  0.3769 -0.3975
   35CHL1   H4A 3702   2.427   0.113   7.010 -1.3681  0.8551 -0.5178
   35CHL1   H4B 3703   2.438  -0.063   7.054  0.6585  2.7214  1.7251
   35CHL1    C5 3704   2.426  -0.033   6.842  0.4006  0.3421  0.5137
   35CHL1    C6 3705   2.507  -0.138   6.826  0.0525 -0.1527 -0.5386
   35CHL1    H6 3706   2.551  -0.188   6.913  0.0203  0.2368 -0.2961
   35CHL1    C7 3707   2.527  -0.213   6.696  0.4223 -0.0860 -0.0164
   35CHL1   H7A 3708   2.633  -0.246   6.686  0.2630 -0.2149 -1.5300
   35CHL1   H7B 3709   2.454  -0.297   6.692 -0.2136  0.5295 -2.0055
   35CHL1    C8 3710   2.479  -0.127   6.572  0.0538 -0.2359  0.1259
   35CHL1    H8 3711   2.547  -0.041   6.555 -1.6329  0.5400 -3.6033
   35CHL1   C14 3712   2.467  -0.214   6.447 -0.1683 -0.3279  0.8465
   35CHL1   H14 3713   2.387  -0.286   6.474 -0.5655  0.0036  0.5586
   35CHL1   C15 3714   2.583  -0.302   6.396  0.4946  0.7175 -0.5545
   35CHL1  H15A 3715   2.673  -0.238   6.386  0.4631  0.8354 -0.0937
   35CHL1  H15B 3716   2.584  -0.392   6.461  0.7073  1.2231  0.1576
   35CHL1   C16 3717   2.551  -0.339   6.252  1.3739 -0.3486 -0.0896
   35CHL1  H16A 3718   2.632  -0.295   6.190  0.1735  0.8475 -0.8663
   35CHL1  H16B 3719   2.545  -0.446   6.222 -2.6848  0.7128 -4.1247
   35CHL1   C17 3720   2.412  -0.266   6.215 -0.7602 -0.8601 -0.1414
   35CHL1   H17 3721   2.333  -0.337   6.246 -1.7619 -0.6554 -2.0403
   35CHL1   C13 3722   2.409  -0.151   6.320 -0.0820 -0.1800 -0.7463
   35CHL1   C18 3723   2.498  -0.039   6.267  0.4216 -0.4611  0.6295
   35CHL1  H18A 3724   2.451   0.012   6.180 -1.5106 -0.3850  1.6726
   35CHL1  H18B 3725   2.520   0.042   6.340 -0.4851  0.2551  0.1255
   35CHL1  H18C 3726   2.594  -0.072   6.221  0.6101  1.8940 -0.8340
   35CHL1   C12 3727   2.271  -0.099   6.360  0.3425 -1.0395  0.2148
   35CHL1  H12A 3728   2.226  -0.039   6.278 -1.1810 -1.3875  0.7587
   35CHL1  H12B 3729   2.200  -0.183   6.375 -1.0924  0.1576  0.2951
   35CHL1   C11 3730   2.270  -0.004   6.480  0.3367  0.2797  0.0035
   35CHL1  H11A 3731   2.312   0.097   6.456 -0.7451  0.2888 -2.1525
   35CHL1  H11B 3732   2.163   0.010   6.506 -0.5853 -3.0302 -1.4688
   35CHL1    C9 3733   2.335  -0.066   6.603  0.3133 -1.1038  0.8943
   35CHL1    H9 3734   2.275  -0.157   6.625  1.4643 -2.1516 -0.1487
   35CHL1   C10 3735   2.341   0.025   6.723  0.5483 -0.7407 -0.2094
   35CHL1   C19 3736   2.396   0.163   6.695  0.0931 -0.0764 -0.1542
   35CHL1  H19A 3737   2.502   0.141   6.669  0.7001  1.5723  0.7208
   35CHL1  H19B 3738   2.332   0.224   6.628 -0.2712  0.9183  1.0420
   35CHL1  H19C 3739   2.390   0.214   6.794 -0.1529 -0.7104  0.1626
   35CHL1    C1 3740   2.189   0.043   6.768 -0.3688 -0.1297  0.2490
   35CHL1   H1A 3741   2.135   0.110   6.698 -0.5253 -1.4671 -0.9780
   35CHL1   H1B 3742   2.142  -0.058   6.761  0.3945 -0.5611  1.1189
   35CHL1    C2 3743   2.165   0.103   6.906  0.7890  0.5769 -0.7352
   35CHL1   H2A 3744   2.059   0.114   6.939  0.6528 -1.2585 -0.4809
   35CHL1   H2B 3745   2.208   0.204   6.926 -0.9310  0.9086  1.8190
   35CHL1   C20 3746   2.385  -0.235   6.069 -0.9276 -0.3104 -0.0560
   35CHL1   H20 3747   2.442  -0.145   6.036  0.1518 -0.9811 -0.0911
   35CHL1   C21 3748   2.236  -0.221   6.043  0.3536 -0.0483  0.4152
   35CHL1  H21A 3749   2.200  -0.155   6.126  0.7618 -2.9204  3.0295
   35CHL1  H21B 3750   2.170  -0.310   6.044  0.9643 -0.5088  0.3740
   35CHL1  H21C 3751   2.218  -0.174   5.944 -0.9993  1.4884  1.3245
   35CHL1   C22 3752   2.444  -0.339   5.972 -0.1294  0.4384 -0.2060
   35CHL1  H22A 3753   2.554  -0.347   5.974 -0.0882  0.2412 -2.0871
   35CHL1  H22B 3754   2.403  -0.436   6.009 -2.4115  1.8085  1.1441
   35CHL1   C23 3755   2.404  -0.323   5.825 -0.4043 -0.1143 -0.3721
   35CHL1  H23A 3756   2.300  -0.359   5.813  0.3449 -2.2151 -0.9944
   35CHL1  H23B 3757   2.400  -0.218   5.790  1.4984  0.0228 -0.2716
   35CHL1   C24 3758   2.486  -0.414   5.733 -0.1546  0.8122 -0.5197
   35CHL1  H24A 3759   2.596  -0.400   5.745  0.5215 -1.4882 -3.1397
   35CHL1  H24B 3760   2.485  -0.522   5.757  2.7307  0.8595  0.2240
   35CHL1   C25 3761   2.454  -0.405   5.583  0.5477  0.0072  1.3148
   35CHL1   H25 3762   2.497  -0.493   5.531  1.8731  0.7894  1.0232
   35CHL1   C26 3763   2.302  -0.391   5.542  0.1378 -0.1142 -0.1354
   35CHL1  H26A 3764   2.237  -0.475   5.576  0.4416  0.8814  3.3150
   35CHL1  H26B 3765   2.264  -0.298   5.590  0.8988 -0.5729  1.4204
   35CHL1  H26C 3766   2.299  -0.373   5.433 -1.4536  1.1930  0.0881
   35CHL1   C27 3767   2.527  -0.289   5.523 -0.1788 -0.0178 -0.5449
   35CHL1  H27A 3768   2.527  -0.286   5.412  2.0407 -0.5467 -0.6065
   35CHL1  H27B 3769   2.488  -0.189   5.553 -2.4033 -0.5157 -1.5694
   35CHL1  H27C 3770   2.634  -0.288   5.555  0.3598  0.8585 -2.2220
   36CHL1    C3 3771   4.639   2.821   7.005 -0.4695 -0.2839 -0.9732
   36CHL1    H3 3772   4.704   2.749   6.951 -1.8032 -0.8637 -1.8498
   36CHL1    O3 3773   4.641   2.791   7.146  0.0853 -0.1764 -0.2479
   36CHL1   H3' 3774   4.735   2.777   7.160  0.3079 -0.4507 -1.8672
   36CHL1    C4 3775   4.676   2.973   6.981 -0.0077  0.1450  0.0393
   36CHL1   H4A 3776   4.611   3.038   7.044 -0.6305  0.7860 -1.2314
   36CHL1   H4B 3777   4.783   2.969   7.012  0.6905 -0.8193 -2.2521
   36CHL1    C5 3778   4.670   3.014   6.832 -0.3067 -0.1037 -0.3513
   36CHL1    C6 3779   4.772   3.074   6.763  0.4172 -0.2141 -0.9299
   36CHL1    H6 3780   4.869   3.081   6.815 -0.2423  0.4653  0.2739
   36CHL1    C7 3781   4.762   3.126   6.625 -0.1215  0.4039  0.8370
   36CHL1   H7A 3782   4.816   3.223   6.618  1.7363 -0.6547 -0.0011
   36CHL1   H7B 3783   4.814   3.054   6.559 -2.4486 -1.2930  0.7302
   36CHL1    C8 3784   4.614   3.131   6.576  0.1032 -0.1788  0.0665
   36CHL1    H8 3785   4.576   3.226   6.619  1.6466  0.4035  0.1839
   36CHL1   C14 3786   4.614   3.148   6.420  0.3603  0.4794 -0.0176
   36CHL1   H14 3787   4.662   3.059   6.372 -3.2213 -0.5323 -2.1683
   36CHL1   C15 3788   4.693   3.270   6.354  0.4336  0.0752 -0.5935
   36CHL1  H15A 3789   4.684   3.360   6.418 -1.4622  0.6576 -1.6162
   36CHL1  H15B 3790   4.800   3.247   6.335  0.5186 -1.3885  1.3547
   36CHL1   C16 3791   4.623   3.291   6.224  0.5911  0.2864  0.6379
   36CHL1  H16A 3792   4.576   3.390   6.238 -0.2006 -0.3026  2.4584
   36CHL1  H16B 3793   4.694   3.294   6.138  1.4547  0.5738  1.3499
   36CHL1   C17 3794   4.505   3.185   6.211  0.0993 -0.2326 -0.5915
   36CHL1   H17 3795   4.551   3.098   6.159  2.7026  1.1151 -0.7087
   36CHL1   C13 3796   4.470   3.151   6.358 -0.0674  0.1769  0.7190
   36CHL1   C18 3797   4.392   3.264   6.423 -0.2964 -0.4290  0.4015
   36CHL1  H18A 3798   4.281   3.263   6.411 -0.0776 -2.1822 -2.1344
   36CHL1  H18B 3799   4.397   3.267   6.534 -0.4113  1.8459  0.4001
   36CHL1  H18C 3800   4.427   3.361   6.381 -1.0796 -0.1688  0.3308
   36CHL1   C12 3801   4.399   3.014   6.384 -0.6217 -0.7224 -0.7756
   36CHL1  H12A 3802   4.301   3.000   6.334 -0.4422 -0.8289 -1.1046
   36CHL1  H12B 3803   4.451   2.932   6.330 -2.4666 -2.4204 -0.0760
   36CHL1   C11 3804   4.406   2.984   6.540 -0.4173  0.0872 -0.1445
   36CHL1  H11A 3805   4.323   3.039   6.590  0.1666  0.5104  0.3621
   36CHL1  H11B 3806   4.388   2.875   6.554  2.6609 -0.6026 -0.9109
   36CHL1    C9 3807   4.536   3.008   6.616 -0.3167  1.1611  0.5059
   36CHL1    H9 3808   4.601   2.928   6.575  0.6041  1.7730  0.7481
   36CHL1   C10 3809   4.533   2.987   6.771 -0.6115  0.1151  0.7990
   36CHL1   C19 3810   4.449   3.097   6.834 -0.0087  0.1145 -0.3944
   36CHL1  H19A 3811   4.448   3.097   6.945  0.2496  1.1440 -0.3746
   36CHL1  H19B 3812   4.478   3.198   6.798  2.1177 -0.6150 -0.8941
   36CHL1  H19C 3813   4.344   3.094   6.801 -0.3480 -0.6959  0.7039
   36CHL1    C1 3814   4.480   2.845   6.798  0.0681 -0.1420  0.3110
   36CHL1   H1A 3815   4.373   2.830   6.773  0.2794 -2.2635  0.4788
   36CHL1   H1B 3816   4.542   2.774   6.739  0.5131  0.9345 -0.5466
   36CHL1    C2 3817   4.499   2.798   6.943 -0.3181 -0.5062 -0.0987
   36CHL1   H2A 3818   4.481   2.689   6.958  0.7321 -0.6176  0.4126
   36CHL1   H2B 3819   4.440   2.867   7.007  1.6242  1.4829 -0.3548
   36CHL1   C20 3820   4.385   3.213   6.128 -0.4202  0.1320 -0.5291
   36CHL1   H20 3821   4.293   3.182   6.181  1.0876 -2.3736  0.7995
   36CHL1   C21 3822   4.390   3.115   6.006  0.5819 -0.4761 -0.0840
   36CHL1  H21A 3823   4.318   3.149   5.929  3.1261 -0.4530 -2.6321
   36CHL1  H21B 3824   4.371   3.010   6.035 -0.3661 -0.5461 -0.9033
   36CHL1  H21C 3825   4.491   3.122   5.959  0.5294  1.3920  0.0184
   36CHL1   C22 3826   4.367   3.358   6.096 -0.8566  0.3728 -0.6710
   36CHL1  H22A 3827   4.385   3.413   6.190  0.2415 -0.7756 -0.1653
   36CHL1  H22B 3828   4.439   3.398   6.021 -0.2980  1.0385  0.2140
   36CHL1   C23 3829   4.224   3.384   6.038  0.1147  0.0432  0.9941
   36CHL1  H23A 3830   4.194   3.331   5.945 -1.3619  0.2409  1.3246
   36CHL1  H23B 3831   4.152   3.337   6.109  1.3256 -0.3755  1.9701
   36CHL1   C24 3832   4.194   3.540   6.026  0.2252 -0.1350 -0.5551
   36CHL1  H24A 3833   4.249   3.598   6.102  1.0822  2.2139 -2.8089
   36CHL1  H24B 3834   4.241   3.578   5.933 -0.7536  1.9973 -0.2374
   36CHL1   C25 3835   4.049   3.579   6.019  0.7734  0.1456 -0.1226
   36CHL1   H25 3836   3.986   3.529   6.096 -0.7600 -0.0279 -1.4378
   36CHL1   C26 3837   4.032   3.737   6.031  0.6560  0.6059 -0.3290
   36CHL1  H26A 3838   4.060   3.789   5.936 -4.0757 -0.6526 -2.7661
   36CHL1  H26B 3839   3.925   3.767   6.033  0.3419 -0.1332 -2.6193
   36CHL1  H26C 3840   4.088   3.777   6.118  0.0854 -1.6499  1.1475
   36CHL1   C27 3841   3.987   3.538   5.884 -0.1246  0.1466 -0.6097
   36CHL1  H27A 3842   3.964   3.430   5.875  0.6073  0.0448 -1.3465
   36CHL1  H27B 3843   3.894   3.596   5.863  0.0127 -0.3230 -2.7506
   36CHL1  H27C 3844   4.054   3.565   5.799  1.7634 -2.0933  0.0630
   37CHL1    C3 3845   0.959   5.139   7.373  0.1947 -0.2473 -0.5733
   37CHL1    H3 3846   0.880   5.068   7.340 -0.1572 -1.1272  1.9510
   37CHL1    O3 3847   1.021   5.100   7.498 -0.3651 -0.3931  0.2698
   37CHL1   H3' 3848   1.085   5.170   7.513  0.6909 -1.4543  0.7687
   37CHL1    C4 3849   1.062   5.140   7.254  0.3091  0.0511  1.0195
   37CHL1   H4A 3850   1.146   5.208   7.282  0.8101  0.4865 -1.3180
   37CHL1   H4B 3851   1.112   5.042   7.246  1.0927  0.4983  0.3088
   37CHL1    C5 3852   0.995   5.187   7.127  0.1800 -0.2140 -0.2022
   37CHL1    C6 3853   0.984   5.110   7.025 -0.1130  0.1204 -0.4486
   37CHL1    H6 3854   1.031   5.011   7.038 -0.5535 -0.0443 -0.0596
   37CHL1    C7 3855   0.931   5.151   6.889  0.0616  0.4120 -0.1200
   37CHL1   H7A 3856   1.008   5.112   6.819  0.2452  0.5026  0.0308
   37CHL1   H7B 3857   0.834   5.100   6.870 -0.9837  1.9657  0.8119
   37CHL1    C8 3858   0.921   5.300   6.880  0.6092  0.3686  0.0051
   37CHL1    H8 3859   1.019   5.353   6.883  0.3615  0.8566 -0.3670
   37CHL1   C14 3860   0.861   5.339   6.748  0.1822 -0.6277  0.1603
   37CHL1   H14 3861   0.762   5.287   6.749 -0.1020 -0.1147 -0.6999
   37CHL1   C15 3862   0.921   5.290   6.623 -0.5115 -0.0750 -0.2847
   37CHL1  H15A 3863   1.032   5.289   6.626 -0.5164 -0.7569  3.2244
   37CHL1  H15B 3864   0.895   5.184   6.601  2.9681 -1.3103  0.8365
   37CHL1   C16 3865   0.865   5.392   6.510 -0.1639 -0.1533  0.0133
   37CHL1  H16A 3866   0.948   5.451   6.465 -0.1652  1.3935  1.9077
   37CHL1  H16B 3867   0.817   5.332   6.429  0.8965 -0.9668 -0.0408
   37CHL1   C17 3868   0.763   5.486   6.587 -0.1993  0.0363 -0.3813
   37CHL1   H17 3869   0.662   5.439   6.591 -0.6807  0.3692 -4.4819
   37CHL1   C13 3870   0.824   5.486   6.740 -0.1888  0.2741  1.0757
   37CHL1   C18 3871   0.959   5.574   6.733  0.0351 -0.4719 -0.2354
   37CHL1  H18A 3872   1.016   5.558   6.827  0.5148  0.1774 -0.4177
   37CHL1  H18B 3873   1.024   5.544   6.648  0.7379  0.8496 -0.1867
   37CHL1  H18C 3874   0.940   5.682   6.722  1.4554 -0.2102 -0.2607
   37CHL1   C12 3875   0.732   5.517   6.861  0.1491 -0.4641  0.1525
   37CHL1  H12A 3876   0.688   5.619   6.859  0.3312 -0.3930 -0.8455
   37CHL1  H12B 3877   0.646   5.446   6.866 -0.0836 -0.1774  0.2523
   37CHL1   C11 3878   0.808   5.505   6.993 -0.2487 -0.0735  0.3992
   37CHL1  H11A 3879   0.895   5.573   7.000  0.0332 -0.1467 -1.7864
   37CHL1  H11B 3880   0.752   5.537   7.084  0.4732 -0.1201  0.8602
   37CHL1    C9 3881   0.848   5.355   7.004 -0.9408  0.6407 -1.2577
   37CHL1    H9 3882   0.748   5.306   7.013  0.1767 -1.6347 -0.3126
   37CHL1   C10 3883   0.932   5.326   7.133  0.1929 -0.5417  0.0200
   37CHL1   C19 3884   1.052   5.425   7.137  0.2290 -0.6556  0.1311
   37CHL1  H19A 3885   1.024   5.526   7.174 -0.2928  0.1594 -2.3015
   37CHL1  H19B 3886   1.143   5.385   7.187 -0.6195 -0.2697  2.1222
   37CHL1  H19C 3887   1.079   5.458   7.035 -0.9728  0.7280  0.2130
   37CHL1    C1 3888   0.835   5.337   7.262 -0.1193  0.3550  0.9043
   37CHL1   H1A 3889   0.803   5.443   7.270  2.0153  1.0100  1.3223
   37CHL1   H1B 3890   0.743   5.278   7.246  0.4742 -0.1041 -1.0012
   37CHL1    C2 3891   0.903   5.281   7.391  0.2321  0.3119  0.3968
   37CHL1   H2A 3892   0.839   5.291   7.481  0.5915  1.7246  0.5164
   37CHL1   H2B 3893   0.986   5.351   7.415 -0.1426  0.7869  0.3266
   37CHL1   C20 3894   0.735   5.611   6.507  0.4448  0.3329 -0.6209
   37CHL1   H20 3895   0.830   5.668   6.504  0.0506  1.0801  0.5658
   37CHL1   C21 3896   0.626   5.700   6.581 -0.4166 -0.7793  0.0277
   37CHL1  H21A 3897   0.548   5.631   6.621  0.3139 -0.5839  1.8519
   37CHL1  H21B 3898   0.576   5.773   6.514  0.3153 -0.7776 -0.5325
   37CHL1  H21C 3899   0.667   5.755   6.667 -1.6229  1.3030 -0.6653
   37CHL1   C22 3900   0.680   5.588   6.370 -0.1025 -0.8209  0.2238
   37CHL1  H22A 3901   0.739   5.508   6.321  0.5161 -0.1720 -0.1051
   37CHL1  H22B 3902   0.576   5.552   6.385 -0.4538 -0.1092 -0.4927
   37CHL1   C23 3903   0.693   5.701   6.273 -0.4031 -0.9358  0.4721
   37CHL1  H23A 3904   0.641   5.796   6.300  2.6897  1.0093  0.0056
   37CHL1  H23B 3905   0.798   5.731   6.257 -0.9151  0.3651 -0.6511
   37CHL1   C24 3906   0.635   5.686   6.127 -0.4050  0.0634  0.6402
   37CHL1  H24A 3907   0.703   5.609   6.085 -0.3469  0.8935 -0.8544
   37CHL1  H24B 3908   0.529   5.656   6.139 -0.0715 -1.1390  0.6936
   37CHL1   C25 3909   0.650   5.821   6.045  0.2390  0.3885 -0.6088
   37CHL1   H25 3910   0.591   5.899   6.097 -1.3338 -0.8554 -0.4733
   37CHL1   C26 3911   0.790   5.881   6.039  0.0606 -0.0406 -0.1231
   37CHL1  H26A 3912   0.803   5.964   5.966 -2.9973  0.7755  0.1285
   37CHL1  H26B 3913   0.823   5.912   6.140 -2.6066  1.8834  0.2319
   37CHL1  H26C 3914   0.854   5.794   6.011 -1.0253 -0.8049 -0.3212
   37CHL1   C27 3915   0.592   5.793   5.904  0.2046  0.0309  0.5346
   37CHL1  H27A 3916   0.578   5.884   5.840 -2.2180 -0.5146  0.1775
   37CHL1  H27B 3917   0.656   5.718   5.854  0.5595 -0.9095  2.3212
   37CHL1  H27C 3918   0.490   5.749   5.906  0.2397 -0.0523  3.0714
   38CHL1    C3 3919   3.059   3.867   6.951 -0.7539  0.4244 -0.4182
   38CHL1    H3 3920   3.163   3.863   6.911  0.5942 -1.6554  2.8032
   38CHL1    O3 3921   3.084   3.924   7.082 -0.0283  0.4660 -0.4624
   38CHL1   H3' 3922   2.998   3.928   7.124  0.6454  0.9387  0.9447
   38CHL1    C4 3923   2.964   3.959   6.872 -0.8000  0.0468 -0.5403
   38CHL1   H4A 3924   2.869   3.969   6.928 -0.4355  2.4085 -0.2461
   38CHL1   H4B 3925   3.014   4.058   6.863  3.9266 -1.9730  0.1881
   38CHL1    C5 3926   2.945   3.902   6.736  0.6335 -0.5930 -0.1412
   38CHL1    C6 3927   2.962   3.975   6.624  0.0715  0.6199  0.0245
   38CHL1    H6 3928   2.989   4.081   6.629  1.5759  0.2320  0.7465
   38CHL1    C7 3929   2.954   3.918   6.480  0.4776 -0.3815  0.6086
   38CHL1   H7A 3930   2.899   3.995   6.422 -1.7374 -0.5428  2.3466
   38CHL1   H7B 3931   3.050   3.905   6.425 -0.1613  0.7759 -0.8373
   38CHL1    C8 3932   2.873   3.785   6.482  1.1092 -0.3071  0.7612
   38CHL1    H8 3933   2.768   3.816   6.501  0.9564  0.5912 -1.2022
   38CHL1   C14 3934   2.885   3.716   6.344 -0.1221  0.4588 -0.1386
   38CHL1   H14 3935   2.988   3.677   6.329 -0.5574 -0.2982 -1.2977
   38CHL1   C15 3936   2.867   3.803   6.220 -0.1649  1.0463 -0.5812
   38CHL1  H15A 3937   2.780   3.872   6.226  0.9879  2.4113  3.9306
   38CHL1  H15B 3938   2.955   3.866   6.196  2.4155 -1.4776  1.5564
   38CHL1   C16 3939   2.839   3.699   6.113  0.7786  0.3286  0.6949
   38CHL1  H16A 3940   2.744   3.722   6.061  0.1551 -1.2575  1.0793
   38CHL1  H16B 3941   2.913   3.707   6.030  1.1535 -0.5641  0.9257
   38CHL1   C17 3942   2.822   3.560   6.179 -0.6195 -0.5269 -0.1285
   38CHL1   H17 3943   2.926   3.521   6.178  0.3649  1.8348  1.4542
   38CHL1   C13 3944   2.802   3.588   6.327  0.0844  0.5004 -0.1335
   38CHL1   C18 3945   2.655   3.628   6.353 -0.4305  0.3955 -0.5966
   38CHL1  H18A 3946   2.573   3.557   6.327 -1.5274  0.5821  2.0452
   38CHL1  H18B 3947   2.629   3.643   6.459 -1.2962  1.0781 -0.8959
   38CHL1  H18C 3948   2.625   3.725   6.308 -1.2115  0.0509 -0.8402
   38CHL1   C12 3949   2.855   3.486   6.440 -0.6880  0.1924 -0.2292
   38CHL1  H12A 3950   2.801   3.390   6.454  1.0763 -0.8365 -0.0925
   38CHL1  H12B 3951   2.965   3.474   6.426 -0.0388  2.0642  2.4402
   38CHL1   C11 3952   2.842   3.553   6.585  0.4176  0.8953 -0.2759
   38CHL1  H11A 3953   2.734   3.556   6.610  0.5886 -0.9261  0.8393
   38CHL1  H11B 3954   2.893   3.478   6.649  1.7645 -0.3040 -2.5859
   38CHL1    C9 3955   2.914   3.688   6.592 -0.3671 -0.7515  0.4951
   38CHL1    H9 3956   3.019   3.663   6.566 -0.0823  0.8579  0.0041
   38CHL1   C10 3957   2.907   3.752   6.739 -0.4412  0.8337  1.0591
   38CHL1   C19 3958   2.759   3.727   6.780  0.9815 -0.7266 -0.4509
   38CHL1  H19A 3959   2.733   3.773   6.878 -0.5507  1.0545 -1.6307
   38CHL1  H19B 3960   2.689   3.773   6.708 -0.4148  1.7541  2.2829
   38CHL1  H19C 3961   2.733   3.621   6.805 -0.7891 -0.3545 -0.5625
   38CHL1    C1 3962   2.996   3.666   6.832 -0.5739 -0.2145  0.3511
   38CHL1   H1A 3963   2.946   3.568   6.848 -2.2901  0.6204  0.3879
   38CHL1   H1B 3964   3.095   3.645   6.786  0.1732 -0.9526  2.2115
   38CHL1    C2 3965   3.009   3.722   6.969  0.3360  0.4324  0.6801
   38CHL1   H2A 3966   3.086   3.666   7.026 -1.2245 -0.2137  2.2583
   38CHL1   H2B 3967   2.911   3.724   7.021 -0.5611 -0.4089 -0.9067
   38CHL1   C20 3968   2.724   3.462   6.102 -0.2608  0.0697  0.0642
   38CHL1   H20 3969   2.621   3.504   6.109  0.8481  2.8504  1.0532
   38CHL1   C21 3970   2.728   3.316   6.156  0.0042 -0.1273  0.1215
   38CHL1  H21A 3971   2.831   3.281   6.179 -0.1174 -3.1360 -2.9795
   38CHL1  H21B 3972   2.677   3.250   6.082  0.3771 -0.0337 -0.2245
   38CHL1  H21C 3973   2.660   3.305   6.243 -2.9476 -0.0794 -2.0214
   38CHL1   C22 3974   2.765   3.453   5.949  0.2739 -0.2169 -0.0519
   38CHL1  H22A 3975   2.696   3.382   5.898 -0.9769 -0.3753  1.7740
   38CHL1  H22B 3976   2.752   3.553   5.902 -1.0390 -0.2193  0.2718
   38CHL1   C23 3977   2.916   3.414   5.916  0.4476  0.1482  0.5936
   38CHL1  H23A 3978   2.981   3.500   5.944 -0.8211  1.2336  0.3315
   38CHL1  H23B 3979   2.947   3.331   5.983  1.3288 -0.0872 -0.0916
   38CHL1   C24 3980   2.931   3.376   5.765 -0.3914 -0.1772 -0.6401
   38CHL1  H24A 3981   2.853   3.302   5.738 -1.0940  1.0689 -2.1773
   38CHL1  H24B 3982   2.905   3.468   5.708  1.6349  0.6174 -0.3823
   38CHL1   C25 3983   3.070   3.339   5.719  0.3388  0.3457  0.3188
   38CHL1   H25 3984   3.134   3.429   5.721  1.5258 -0.4848  1.0012
   38CHL1   C26 3985   3.124   3.234   5.814 -0.3691  0.7252 -0.8441
   38CHL1  H26A 3986   3.118   3.259   5.922  1.1752 -0.0226 -0.5647
   38CHL1  H26B 3987   3.065   3.141   5.806 -0.0227  0.3480  0.6752
   38CHL1  H26C 3988   3.229   3.209   5.787 -0.4688 -1.7324  0.6855
   38CHL1   C27 3989   3.062   3.283   5.579 -0.6963  0.7255 -1.0998
   38CHL1  H27A 3990   3.013   3.183   5.580  0.2338  0.2460  0.4388
   38CHL1  H27B 3991   3.016   3.343   5.498  1.1412 -0.3796 -3.0676
   38CHL1  H27C 3992   3.165   3.252   5.550 -1.0154 -1.7145  0.0760
   39CHL1    C3 3993   0.211   1.754   6.755 -0.0205  0.6979 -0.9213
   39CHL1    H3 3994   0.106   1.758   6.720 -0.0925  0.1136 -0.7890
   39CHL1    O3 3995   0.225   1.719   6.895 -0.2860  0.0530  0.2811
   39CHL1   H3' 3996   0.320   1.710   6.905 -0.4929 -1.9260  1.0364
   39CHL1    C4 3997   0.290   1.640   6.678 -0.3480  0.1143 -0.0203
   39CHL1   H4A 3998   0.391   1.627   6.722 -0.8380  1.9311  1.8226
   39CHL1   H4B 3999   0.246   1.539   6.694 -0.8340  0.4852  1.1274
   39CHL1    C5 4000   0.292   1.677   6.531 -0.4503  0.4227 -0.2468
   39CHL1    C6 4001   0.251   1.597   6.434 -0.0962  0.5738  0.0974
   39CHL1    H6 4002   0.216   1.495   6.457  0.5064  0.5103  0.7917
   39CHL1    C7 4003   0.260   1.632   6.291 -0.4982 -0.0496  0.5436
   39CHL1   H7A 4004   0.291   1.541   6.234  0.5706  1.0009 -0.6023
   39CHL1   H7B 4005   0.162   1.672   6.260  0.5733  0.2382 -2.9478
   39CHL1    C8 4006   0.361   1.744   6.254 -0.0753  0.3574 -0.2022
   39CHL1    H8 4007   0.466   1.715   6.272  0.2989  1.6596 -0.1857
   39CHL1   C14 4008   0.345   1.797   6.113  0.4706  0.6522 -0.0732
   39CHL1   H14 4009   0.239   1.828   6.098 -1.1139 -2.8894  2.3775
   39CHL1   C15 4010   0.364   1.693   5.997  0.0452  0.4876 -0.2986
   39CHL1  H15A 4011   0.463   1.643   6.004 -0.3806 -0.1647  1.8447
   39CHL1  H15B 4012   0.279   1.622   6.001  0.0780  0.4928  0.7813
   39CHL1   C16 4013   0.353   1.790   5.876 -0.6382  0.1569 -0.1112
   39CHL1  H16A 4014   0.425   1.757   5.798 -1.1168  1.3236 -1.1007
   39CHL1  H16B 4015   0.250   1.788   5.833 -1.0219 -3.3144  0.7244
   39CHL1   C17 4016   0.393   1.933   5.922 -0.0741  0.4902  0.0105
   39CHL1   H17 4017   0.295   1.983   5.937 -0.0373  0.3798  0.6277
   39CHL1   C13 4018   0.431   1.919   6.074  0.3154  0.2840  1.0042
   39CHL1   C18 4019   0.580   1.880   6.084 -0.0827 -0.4761  0.7058
   39CHL1  H18A 4020   0.597   1.788   6.023 -0.5907  0.4486 -0.9124
   39CHL1  H18B 4021   0.653   1.955   6.048 -1.4766  1.2562  1.3697
   39CHL1  H18C 4022   0.607   1.862   6.190  1.5206 -1.8749  0.1076
   39CHL1   C12 4023   0.400   2.037   6.172 -0.1983  0.5242  0.0475
   39CHL1  H12A 4024   0.452   2.131   6.143 -0.2156  0.2647 -0.8558
   39CHL1  H12B 4025   0.294   2.069   6.167 -0.6479 -0.8917  0.1057
   39CHL1   C11 4026   0.418   1.989   6.321 -0.2160  0.0773  0.3174
   39CHL1  H11A 4027   0.526   1.978   6.344  0.2636  2.8493 -0.2581
   39CHL1  H11B 4028   0.389   2.078   6.381 -1.4799  1.6653 -2.4280
   39CHL1    C9 4029   0.331   1.860   6.354 -0.1622 -1.3622  0.5365
   39CHL1    H9 4030   0.227   1.892   6.330  1.0998  2.6004 -0.5026
   39CHL1   C10 4031   0.346   1.820   6.503 -0.2519  0.1448  0.2054
   39CHL1   C19 4032   0.494   1.823   6.550  0.4761 -0.6383  0.5235
   39CHL1  H19A 4033   0.508   1.790   6.655 -1.4744  0.0897  1.0621
   39CHL1  H19B 4034   0.561   1.758   6.489  1.3973 -0.8787  1.7511
   39CHL1  H19C 4035   0.522   1.930   6.539 -3.8350  0.8530  1.9501
   39CHL1    C1 4036   0.260   1.920   6.592 -0.5532 -0.4919  0.6125
   39CHL1   H1A 4037   0.281   2.026   6.570 -0.4868 -0.4330  0.9559
   39CHL1   H1B 4038   0.153   1.915   6.563 -0.5258  2.1296 -0.1299
   39CHL1    C2 4039   0.267   1.897   6.740 -0.1012 -0.0889 -0.1175
   39CHL1   H2A 4040   0.206   1.965   6.803 -1.0463 -0.1970 -0.8976
   39CHL1   H2B 4041   0.371   1.911   6.776  0.5789  0.3083 -2.0827
   39CHL1   C20 4042   0.478   1.999   5.814 -0.1754 -0.5092 -0.4071
   39CHL1   H20 4043   0.582   1.962   5.811  0.5516  1.3728  0.3157
   39CHL1   C21 4044   0.492   2.149   5.859  1.0469 -0.1457 -0.1508
   39CHL1  H21A 4045   0.544   2.145   5.956  0.6341 -0.3786  0.0650
   39CHL1  H21B 4046   0.390   2.190   5.874  2.0670  2.2279  0.7982
   39CHL1  H21C 4047   0.540   2.210   5.779  0.7279 -0.9715 -0.9958
   39CHL1   C22 4048   0.417   1.992   5.670 -0.0251 -0.1040  0.1994
   39CHL1  H22A 4049   0.398   1.887   5.641  0.3927  0.1935 -1.2473
   39CHL1  H22B 4050   0.315   2.036   5.662 -0.2402 -1.0171 -3.7763
   39CHL1   C23 4051   0.509   2.047   5.557  0.2397 -0.0985 -0.1720
   39CHL1  H23A 4052   0.542   2.151   5.575  1.9900 -0.4864 -0.9717
   39CHL1  H23B 4053   0.590   1.973   5.540  1.2529  1.2067 -1.2439
   39CHL1   C24 4054   0.428   2.067   5.429  0.1272  0.5234 -1.0156
   39CHL1  H24A 4055   0.378   1.971   5.403  1.0926 -0.1070 -0.5726
   39CHL1  H24B 4056   0.351   2.147   5.443 -1.5583 -1.3333  1.0453
   39CHL1   C25 4057   0.520   2.108   5.313 -0.0835 -0.0442  0.2007
   39CHL1   H25 4058   0.601   2.032   5.302 -0.6344 -0.9592  2.0569
   39CHL1   C26 4059   0.456   2.126   5.180 -0.3351 -0.5152  0.2311
   39CHL1  H26A 4060   0.534   2.151   5.104  0.2400 -0.6808  0.7575
   39CHL1  H26B 4061   0.406   2.040   5.131  0.0949 -1.0357  0.6980
   39CHL1  H26C 4062   0.390   2.215   5.180 -0.5677 -0.6280 -1.7008
   39CHL1   C27 4063   0.597   2.240   5.347  0.3699  0.1816  0.8176
   39CHL1  H27A 4064   0.634   2.291   5.256  1.6209  0.3838  1.4200
   39CHL1  H27B 4065   0.523   2.307   5.397 -0.0902  0.1965  0.1350
   39CHL1  H27C 4066   0.682   2.219   5.416  1.4680 -0.3109 -0.6500
   40CHL1    C3 4067   2.784   5.856   7.242  0.5908  0.2472 -0.0531
   40CHL1    H3 4068   2.771   5.746   7.227 -2.0966  0.3526  1.0928
   40CHL1    O3 4069   2.724   5.899   7.363 -0.5913  0.2903  0.4024
   40CHL1   H3' 4070   2.732   5.994   7.359 -0.3864  0.3576  1.7251
   40CHL1    C4 4071   2.926   5.906   7.226 -0.2050  0.7597  0.2400
   40CHL1   H4A 4072   2.922   6.016   7.239 -1.1997  1.2868 -3.3858
   40CHL1   H4B 4073   2.978   5.853   7.309 -0.1373 -2.2008 -1.5362
   40CHL1    C5 4074   2.977   5.877   7.084  0.4940 -0.9383 -0.5266
   40CHL1    C6 4075   3.080   5.802   7.058 -0.8026  0.2754 -0.7924
   40CHL1    H6 4076   3.139   5.757   7.139 -0.5766  1.6416 -0.1643
   40CHL1    C7 4077   3.131   5.778   6.924 -0.9945  0.1880 -0.0888
   40CHL1   H7A 4078   3.241   5.789   6.921 -1.0172  0.9896  1.2748
   40CHL1   H7B 4079   3.120   5.671   6.897  1.2563 -0.0800 -0.1131
   40CHL1    C8 4080   3.077   5.874   6.813  0.5843  0.4473 -0.3399
   40CHL1    H8 4081   3.121   5.972   6.841 -3.3197  2.0858  0.7841
   40CHL1   C14 4082   3.109   5.832   6.677  0.2676  0.0461  0.5445
   40CHL1   H14 4083   3.068   5.728   6.671  1.2792 -0.5460  2.8429
   40CHL1   C15 4084   3.253   5.810   6.638 -0.3712  0.3641 -0.3768
   40CHL1  H15A 4085   3.316   5.898   6.664  0.9233 -0.8460  0.7159
   40CHL1  H15B 4086   3.293   5.722   6.692 -2.7559 -1.0748 -0.7976
   40CHL1   C16 4087   3.239   5.795   6.489 -0.2439  0.0527  0.4584
   40CHL1  H16A 4088   3.311   5.867   6.444 -1.1613  0.2458 -0.7242
   40CHL1  H16B 4089   3.270   5.692   6.463  1.1380  0.4553  0.4296
   40CHL1   C17 4090   3.094   5.829   6.436 -0.1261  0.1289 -0.8974
   40CHL1   H17 4091   3.034   5.736   6.438  0.2425 -0.1024  0.2572
   40CHL1   C13 4092   3.036   5.908   6.562  0.3581  0.4305 -0.2219
   40CHL1   C18 4093   3.077   6.054   6.552  0.1833 -0.6067 -0.1179
   40CHL1  H18A 4094   3.071   6.110   6.648  1.3002 -1.1711  0.3004
   40CHL1  H18B 4095   3.185   6.061   6.528 -0.0422  1.1459 -0.8198
   40CHL1  H18C 4096   3.021   6.104   6.470 -0.4271 -1.1923 -0.0622
   40CHL1   C12 4097   2.885   5.908   6.567 -0.2838 -0.4715  0.4527
   40CHL1  H12A 4098   2.843   5.972   6.488 -0.3615 -2.3923 -1.1504
   40CHL1  H12B 4099   2.845   5.804   6.559  2.3697 -1.5657  0.2480
   40CHL1   C11 4100   2.843   5.953   6.713 -0.0356  0.1633  0.6745
   40CHL1  H11A 4101   2.861   6.062   6.714 -0.6245  0.3198 -1.7392
   40CHL1  H11B 4102   2.734   5.933   6.725  0.1294 -0.8129  0.6212
   40CHL1    C9 4103   2.923   5.883   6.830 -0.2682  0.8348 -0.1900
   40CHL1    H9 4104   2.894   5.776   6.829  0.1344  0.6548  2.1622
   40CHL1   C10 4105   2.881   5.929   6.972 -0.0489  0.6115  0.3928
   40CHL1   C19 4106   2.888   6.082   6.976  0.2695  0.2348  0.4686
   40CHL1  H19A 4107   2.858   6.137   7.068 -1.6847  0.1311 -0.0701
   40CHL1  H19B 4108   2.995   6.112   6.967 -0.2374  1.6225 -1.5628
   40CHL1  H19C 4109   2.823   6.130   6.899 -1.8697 -2.8428  0.1853
   40CHL1    C1 4110   2.731   5.878   6.997 -0.4355  0.4931 -0.2294
   40CHL1   H1A 4111   2.662   5.926   6.924  0.0030  0.9928 -0.3220
   40CHL1   H1B 4112   2.734   5.768   6.982 -0.3768  0.0931  2.3022
   40CHL1    C2 4113   2.675   5.900   7.137  0.3486 -0.1457  0.1294
   40CHL1   H2A 4114   2.578   5.851   7.158  1.0071 -0.5877  2.4863
   40CHL1   H2B 4115   2.656   6.010   7.140 -0.3522 -0.2497 -0.3534
   40CHL1   C20 4116   3.073   5.887   6.299 -0.3745 -0.3207  0.0285
   40CHL1   H20 4117   2.979   5.946   6.295 -0.6713 -0.8371 -2.0459
   40CHL1   C21 4118   3.056   5.772   6.199 -0.4060  0.1262 -0.2242
   40CHL1  H21A 4119   3.061   5.796   6.091  1.4824 -0.5230 -0.3085
   40CHL1  H21B 4120   2.963   5.716   6.220 -0.2775 -0.5265 -1.3375
   40CHL1  H21C 4121   3.137   5.696   6.206 -0.3816  0.0369 -1.3318
   40CHL1   C22 4122   3.186   5.982   6.244 -0.1149 -0.3698  0.2662
   40CHL1  H22A 4123   3.211   6.063   6.316  1.0427 -1.5937  1.2930
   40CHL1  H22B 4124   3.276   5.917   6.232 -0.5803 -0.8318 -0.9439
   40CHL1   C23 4125   3.149   6.054   6.115  0.2063 -0.0714  0.1933
   40CHL1  H23A 4126   3.139   5.980   6.033 -0.5743 -0.4632  0.6356
   40CHL1  H23B 4127   3.047   6.097   6.123  0.3317  0.1618  0.5458
   40CHL1   C24 4128   3.240   6.173   6.085 -0.1109  0.4122 -0.2926
   40CHL1  H24A 4129   3.225   6.246   6.167  0.5130 -0.2053  0.3906
   40CHL1  H24B 4130   3.346   6.140   6.089  0.0587  0.4008 -3.1473
   40CHL1   C25 4131   3.224   6.226   5.944  0.1616 -0.5859 -0.0564
   40CHL1   H25 4132   3.119   6.214   5.910  0.1952  1.0294 -0.8291
   40CHL1   C26 4133   3.275   6.371   5.941 -0.0026 -0.1642 -1.0357
   40CHL1  H26A 4134   3.225   6.426   6.023 -0.6561 -1.3584 -0.6210
   40CHL1  H26B 4135   3.383   6.385   5.966 -0.4620  0.3112  0.7876
   40CHL1  H26C 4136   3.270   6.409   5.837  1.7910  0.9491 -0.7696
   40CHL1   C27 4137   3.306   6.131   5.847 -0.0449  0.2812 -0.6950
   40CHL1  H27A 4138   3.413   6.158   5.860 -0.6921  2.2452  1.3098
   40CHL1  H27B 4139   3.275   6.027   5.871 -0.6496  1.0290  2.2935
   40CHL1  H27C 4140   3.284   6.146   5.740  0.4237 -0.4943 -0.9091
   41CHL1    C3 4141   4.322   5.657   7.349 -0.3703 -0.2558 -0.1872
   41CHL1    H3 4142   4.375   5.561   7.331  2.4030  1.1449  0.0323
   41CHL1    O3 4143   4.317   5.678   7.486 -0.2302 -0.0733 -0.5175
   41CHL1   H3' 4144   4.260   5.755   7.498 -0.1566 -0.3433  2.2144
   41CHL1    C4 4145   4.399   5.770   7.281  0.9874 -0.6244  0.9590
   41CHL1   H4A 4146   4.357   5.870   7.307  2.3667  0.0671  0.6467
   41CHL1   H4B 4147   4.504   5.771   7.318  0.1342 -1.3003  3.6173
   41CHL1    C5 4148   4.387   5.742   7.128 -0.2608 -0.4586  0.9291
   41CHL1    C6 4149   4.498   5.729   7.052 -0.6688 -0.3441 -0.6159
   41CHL1    H6 4150   4.595   5.752   7.099 -0.4491  1.6177 -1.9062
   41CHL1    C7 4151   4.499   5.710   6.901  0.0394 -0.0836 -0.1523
   41CHL1   H7A 4152   4.572   5.774   6.848 -1.8765  3.2798  0.9397
   41CHL1   H7B 4153   4.517   5.601   6.890 -1.0533 -0.4619  1.4321
   41CHL1    C8 4154   4.364   5.743   6.835 -0.4597 -0.0641  0.3127
   41CHL1    H8 4155   4.348   5.851   6.819  1.4172 -0.0814 -2.2693
   41CHL1   C14 4156   4.359   5.690   6.689 -0.4059  0.2271  0.1305
   41CHL1   H14 4157   4.389   5.584   6.692  3.0401  1.0747 -0.6151
   41CHL1   C15 4158   4.465   5.761   6.599 -0.6643  0.6993 -0.2729
   41CHL1  H15A 4159   4.483   5.867   6.624  2.0130  0.2947 -0.2234
   41CHL1  H15B 4160   4.552   5.695   6.617 -2.1315 -1.2393  0.1169
   41CHL1   C16 4161   4.409   5.748   6.457  0.6272 -0.3069  0.7205
   41CHL1  H16A 4162   4.398   5.850   6.415 -1.5600 -0.8179 -0.0494
   41CHL1  H16B 4163   4.486   5.709   6.387  0.2635  1.3465 -0.6503
   41CHL1   C17 4164   4.272   5.676   6.467  0.3661 -0.0987 -0.7363
   41CHL1   H17 4165   4.286   5.566   6.464  0.7620 -0.0550 -0.5670
   41CHL1   C13 4166   4.228   5.711   6.612  0.5608 -0.1352 -0.3053
   41CHL1   C18 4167   4.184   5.863   6.607 -0.5172 -0.6955 -0.0325
   41CHL1  H18A 4168   4.089   5.861   6.549  1.4118  0.4261 -3.5222
   41CHL1  H18B 4169   4.167   5.905   6.708 -1.2500 -0.9600 -0.0356
   41CHL1  H18C 4170   4.260   5.927   6.557 -1.5086  0.4112 -0.1689
   41CHL1   C12 4171   4.117   5.629   6.682 -0.5256 -0.3076 -0.0907
   41CHL1  H12A 4172   4.017   5.661   6.644 -0.3314  1.3326  0.7154
   41CHL1  H12B 4173   4.134   5.520   6.666  0.7007  0.1538 -2.4571
   41CHL1   C11 4174   4.121   5.674   6.833 -0.1276  0.1937 -0.4072
   41CHL1  H11A 4175   4.074   5.773   6.846 -0.5503 -0.2029  1.5260
   41CHL1  H11B 4176   4.053   5.600   6.882 -0.9486  1.2912  0.1465
   41CHL1    C9 4177   4.249   5.681   6.911 -0.0993 -0.0054  0.1499
   41CHL1    H9 4178   4.280   5.574   6.909  2.4810  0.5985 -3.9577
   41CHL1   C10 4179   4.251   5.728   7.060  0.0453  0.4121 -0.2718
   41CHL1   C19 4180   4.179   5.864   7.064 -0.6767 -0.5828  1.2512
   41CHL1  H19A 4181   4.070   5.851   7.052 -0.4588 -1.8554  0.4860
   41CHL1  H19B 4182   4.196   5.905   7.166  2.6834 -0.8935  0.9327
   41CHL1  H19C 4183   4.213   5.930   6.981  0.8550 -0.9859  1.5153
   41CHL1    C1 4184   4.175   5.624   7.149 -0.5225  0.1890  0.2029
   41CHL1   H1A 4185   4.068   5.638   7.120 -0.3105  3.4972  0.7254
   41CHL1   H1B 4186   4.214   5.523   7.122  3.5808  0.9863  2.4748
   41CHL1    C2 4187   4.180   5.638   7.297 -0.6822 -0.3701  0.5717
   41CHL1   H2A 4188   4.124   5.553   7.342  0.6276 -0.9726  1.1375
   41CHL1   H2B 4189   4.132   5.733   7.328  1.3474  1.1810 -0.7509
   41CHL1   C20 4190   4.174   5.715   6.352  0.1204 -0.6250  0.3743
   41CHL1   H20 4191   4.154   5.825   6.354 -0.1664 -0.6882  1.7285
   41CHL1   C21 4192   4.041   5.648   6.367 -0.1400 -0.9786 -0.3968
   41CHL1  H21A 4193   3.985   5.680   6.457  1.0975  1.9657 -0.5470
   41CHL1  H21B 4194   4.049   5.537   6.372 -0.8222 -1.1711 -2.4612
   41CHL1  H21C 4195   3.978   5.662   6.277  0.1584  0.4230 -0.4131
   41CHL1   C22 4196   4.242   5.684   6.216  0.9361  0.4034  0.1149
   41CHL1  H22A 4197   4.347   5.718   6.210  0.9811  0.0811 -1.3335
   41CHL1  H22B 4198   4.250   5.575   6.194  0.0882  0.3318  0.1113
   41CHL1   C23 4199   4.172   5.749   6.090  0.0292  0.2325 -0.3503
   41CHL1  H23A 4200   4.087   5.684   6.061 -1.1427  0.8883  1.4730
   41CHL1  H23B 4201   4.130   5.844   6.128 -1.2783 -0.9768  1.3879
   41CHL1   C24 4202   4.280   5.780   5.985  0.0323  0.0130  0.5758
   41CHL1  H24A 4203   4.360   5.840   6.033 -0.0018 -0.0452  0.7065
   41CHL1  H24B 4204   4.338   5.689   5.961  2.0447  1.3407  0.1281
   41CHL1   C25 4205   4.226   5.846   5.850  0.2986  0.6868  0.0837
   41CHL1   H25 4206   4.145   5.923   5.851  0.1513  0.5842 -1.5255
   41CHL1   C26 4207   4.340   5.895   5.762  0.5301 -0.4858 -0.3518
   41CHL1  H26A 4208   4.299   5.918   5.661  1.4820 -2.3926 -1.2259
   41CHL1  H26B 4209   4.392   5.984   5.803 -1.5662  0.9347 -0.6079
   41CHL1  H26C 4210   4.423   5.821   5.764  0.1588 -0.8986  1.0314
   41CHL1   C27 4211   4.157   5.726   5.779 -0.0815 -0.9829 -0.3193
   41CHL1  H27A 4212   4.117   5.758   5.680 -0.5593 -0.7914 -0.0640
   41CHL1  H27B 4213   4.230   5.647   5.751 -0.3896 -1.0715 -0.8974
   41CHL1  H27C 4214   4.070   5.695   5.840 -0.2508  0.2326  0.0837
   42CHL1    C3 4215   3.613   6.822   7.288  0.8323  0.2274  0.2837
   42CHL1    H3 4216   3.569   6.920   7.316 -0.1596 -0.5892  1.7039
   42CHL1    O3 4217   3.549   6.725   7.373 -0.3659 -0.1588  0.0619
   42CHL1   H3' 4218   3.574   6.637   7.343  1.2088 -0.0865  1.0920
   42CHL1    C4 4219   3.588   6.795   7.147 -0.9858  0.1243 -0.3002
   42CHL1   H4A 4220   3.618   6.688   7.146 -0.7903  0.0492  2.8917
   42CHL1   H4B 4221   3.478   6.792   7.135 -0.8635 -0.4475 -1.3426
   42CHL1    C5 4222   3.676   6.874   7.051 -0.0224  0.0885 -0.1532
   42CHL1    C6 4223   3.626   6.955   6.954 -1.1178 -0.1558 -0.6849
   42CHL1    H6 4224   3.517   6.968   6.942 -1.2018  1.3861  1.3088
   42CHL1    C7 4225   3.713   7.038   6.858  0.3488 -0.4671  0.2388
   42CHL1   H7A 4226   3.674   7.036   6.753  0.6821 -1.3235  0.1230
   42CHL1   H7B 4227   3.695   7.143   6.890  1.1110 -0.2988  0.1162
   42CHL1    C8 4228   3.858   6.995   6.856  0.3161  0.4258  0.3938
   42CHL1    H8 4229   3.858   6.895   6.808 -2.8419  1.0870 -1.2670
   42CHL1   C14 4230   3.940   7.098   6.770  0.5084  0.0863 -0.6134
   42CHL1   H14 4231   3.928   7.195   6.824 -1.4335 -0.2484 -0.3712
   42CHL1   C15 4232   3.895   7.110   6.628 -0.7353 -0.5347 -0.0377
   42CHL1  H15A 4233   3.875   7.010   6.583 -2.3103  0.9597 -3.0145
   42CHL1  H15B 4234   3.805   7.172   6.611  0.3337  0.9362 -0.5863
   42CHL1   C16 4235   4.023   7.172   6.568 -0.6746  0.1020  0.0633
   42CHL1  H16A 4236   4.038   7.122   6.470 -0.6622  1.4166 -0.6281
   42CHL1  H16B 4237   4.000   7.280   6.559  0.1791  0.2225 -0.9397
   42CHL1   C17 4238   4.145   7.157   6.669 -0.1791  0.1124  0.4783
   42CHL1   H17 4239   4.144   7.258   6.716 -1.7356  0.8984 -1.1301
   42CHL1   C13 4240   4.082   7.057   6.767  0.3561 -1.1229  0.6027
   42CHL1   C18 4241   4.104   6.916   6.698  0.2742 -0.2419 -0.7443
   42CHL1  H18A 4242   4.214   6.904   6.692  0.6940  2.2219  0.6843
   42CHL1  H18B 4243   4.063   6.836   6.765  2.3149 -1.1908 -0.5517
   42CHL1  H18C 4244   4.061   6.902   6.597 -1.8042 -0.1360  0.0667
   42CHL1   C12 4245   4.134   7.064   6.914 -0.0470 -0.1015  1.0204
   42CHL1  H12A 4246   4.241   7.037   6.905  0.3412  1.4198  0.7631
   42CHL1  H12B 4247   4.118   7.164   6.961  1.0826 -0.3315  1.9420
   42CHL1   C11 4248   4.062   6.961   7.005  0.1959 -0.1759 -0.1269
   42CHL1  H11A 4249   4.100   6.868   6.959  1.5693  0.8418 -1.1562
   42CHL1  H11B 4250   4.094   6.983   7.109 -0.2424  2.8196 -0.5168
   42CHL1    C9 4251   3.905   6.975   6.999 -0.7201  0.4443 -0.3423
   42CHL1    H9 4252   3.889   7.076   7.042  2.5241  2.0144 -2.4171
   42CHL1   C10 4253   3.826   6.871   7.082  0.3432  0.4970 -0.5072
   42CHL1   C19 4254   3.878   6.735   7.055 -0.5383  0.1553 -0.2103
   42CHL1  H19A 4255   3.831   6.659   7.122  0.7299 -0.8260 -0.4050
   42CHL1  H19B 4256   3.860   6.710   6.948  1.3575  1.7098 -0.9497
   42CHL1  H19C 4257   3.987   6.728   7.073 -0.4282  1.7315 -0.1833
   42CHL1    C1 4258   3.843   6.903   7.239 -0.0801 -0.3410  0.2328
   42CHL1   H1A 4259   3.950   6.912   7.269 -0.0013  1.6854 -0.5277
   42CHL1   H1B 4260   3.799   7.002   7.264  0.2341 -0.2476  0.4222
   42CHL1    C2 4261   3.758   6.815   7.331  0.0685 -0.0429  0.3693
   42CHL1   H2A 4262   3.770   6.825   7.441  0.6300 -0.0131  0.3117
   42CHL1   H2B 4263   3.798   6.713   7.315  0.0877  0.2904 -2.1653
   42CHL1   C20 4264   4.282   7.142   6.591 -0.0148  0.2934  0.1049
   42CHL1   H20 4265   4.282   7.046   6.535  0.3277 -0.6134  1.5880
   42CHL1   C21 4266   4.402   7.135   6.695 -0.0678 -0.1531  0.5254
   42CHL1  H21A 4267   4.502   7.160   6.654 -1.0761  3.2561 -0.1531
   42CHL1  H21B 4268   4.419   7.036   6.742  1.4721 -0.6211 -0.9187
   42CHL1  H21C 4269   4.368   7.203   6.776 -1.7110 -0.0005 -0.2425
   42CHL1   C22 4270   4.294   7.264   6.501  0.0719  0.0283 -0.1216
   42CHL1  H22A 4271   4.206   7.316   6.457  1.1163  1.8909 -0.0901
   42CHL1  H22B 4272   4.345   7.337   6.567 -2.6624 -0.2338  2.5256
   42CHL1   C23 4273   4.382   7.236   6.383 -0.3633  0.1352  0.6934
   42CHL1  H23A 4274   4.485   7.219   6.420 -0.1000  0.1553 -0.0068
   42CHL1  H23B 4275   4.350   7.132   6.359  1.9333 -1.4224  3.7100
   42CHL1   C24 4276   4.364   7.333   6.263  0.4278  0.2135 -0.0062
   42CHL1  H24A 4277   4.255   7.336   6.242  0.3595 -0.1656  0.2851
   42CHL1  H24B 4278   4.394   7.436   6.292 -0.2465  0.4284 -0.0709
   42CHL1   C25 4279   4.436   7.312   6.131 -0.8117 -0.0250 -0.2217
   42CHL1   H25 4280   4.401   7.394   6.065 -2.6176 -1.3555 -0.9983
   42CHL1   C26 4281   4.589   7.331   6.152  0.1563 -0.1484 -0.7030
   42CHL1  H26A 4282   4.602   7.425   6.209  2.1781 -0.8579  0.1036
   42CHL1  H26B 4283   4.646   7.247   6.197  1.4452  0.6207 -0.8542
   42CHL1  H26C 4284   4.634   7.333   6.051 -0.5080 -0.6409 -1.0173
   42CHL1   C27 4285   4.404   7.189   6.055  0.4035  0.4989 -0.2304
   42CHL1  H27A 4286   4.478   7.170   5.975  0.8627  1.0609  0.0542
   42CHL1  H27B 4287   4.379   7.105   6.123 -1.8002  1.3280  0.0709
   42CHL1  H27C 4288   4.305   7.198   6.005 -1.2712 -0.4025  2.6529
   43CHL1    C3 4289   4.907   5.178   7.451 -0.0769  0.2177 -0.3693
   43CHL1    H3 4290   4.995   5.110   7.443 -0.4299 -0.3174  0.2751
   43CHL1    O3 4291   4.884   5.177   7.593  0.1147 -0.2508 -0.6686
   43CHL1   H3' 4292   4.834   5.254   7.619 -0.9330 -1.1227  0.0006
   43CHL1    C4 4293   4.940   5.315   7.400 -0.2307 -0.0974 -0.2200
   43CHL1   H4A 4294   4.862   5.389   7.431  1.7357  2.8024 -1.7219
   43CHL1   H4B 4295   5.023   5.355   7.462 -1.4719  0.4083  1.2013
   43CHL1    C5 4296   4.951   5.333   7.252 -1.4544  0.2553 -0.5031
   43CHL1    C6 4297   5.070   5.379   7.196  1.0384  0.1770  0.7162
   43CHL1    H6 4298   5.153   5.418   7.256  0.5423  2.6849 -0.1311
   43CHL1    C7 4299   5.083   5.406   7.049  0.1589  0.2443 -0.0847
   43CHL1   H7A 4300   5.126   5.507   7.031 -2.9057  1.4632 -1.2842
   43CHL1   H7B 4301   5.160   5.334   7.016  1.3332  1.3830  0.0641
   43CHL1    C8 4302   4.955   5.384   6.961  0.2884 -0.1233  0.4616
   43CHL1    H8 4303   4.891   5.474   6.978 -2.3563 -1.7086 -0.4723
   43CHL1   C14 4304   4.983   5.361   6.815 -0.1026 -0.0968 -0.0024
   43CHL1   H14 4305   5.045   5.271   6.798 -2.9470 -1.9128 -1.6228
   43CHL1   C15 4306   5.049   5.479   6.745  0.2081  0.1418  0.6884
   43CHL1  H15A 4307   4.996   5.574   6.766 -0.7661  0.3150 -2.1493
   43CHL1  H15B 4308   5.158   5.488   6.765  0.6478 -1.2714 -0.8977
   43CHL1   C16 4309   5.033   5.451   6.593  0.0447 -0.5665  1.1717
   43CHL1  H16A 4310   4.986   5.534   6.536  1.0349 -1.3684 -0.8893
   43CHL1  H16B 4311   5.130   5.417   6.550  1.4100  2.3878  1.6745
   43CHL1   C17 4312   4.930   5.330   6.590 -0.3794  0.0136 -0.1401
   43CHL1   H17 4313   4.979   5.230   6.592 -0.9319 -0.3053 -1.4132
   43CHL1   C13 4314   4.861   5.333   6.729 -0.1269  0.6419  0.1120
   43CHL1   C18 4315   4.758   5.439   6.732 -0.3543 -0.2643 -0.5334
   43CHL1  H18A 4316   4.733   5.463   6.838  1.0878 -1.6576  0.1716
   43CHL1  H18B 4317   4.788   5.534   6.684 -2.2315  0.2240 -0.8150
   43CHL1  H18C 4318   4.676   5.402   6.667 -0.1728 -1.2544 -0.2178
   43CHL1   C12 4319   4.797   5.201   6.785  0.8291 -0.1089  0.6433
   43CHL1  H12A 4320   4.708   5.166   6.729  0.7691 -1.5601  1.5721
   43CHL1  H12B 4321   4.874   5.121   6.777  1.0658  0.1867 -0.2190
   43CHL1   C11 4322   4.755   5.220   6.936 -0.0686 -0.1597 -0.3015
   43CHL1  H11A 4323   4.667   5.287   6.930 -0.0466 -0.2767 -2.9021
   43CHL1  H11B 4324   4.723   5.119   6.970  0.5044  0.1539  1.2430
   43CHL1    C9 4325   4.870   5.271   7.023  0.3774  0.6643  0.1564
   43CHL1    H9 4326   4.940   5.184   7.031 -0.8663 -0.4049 -0.2199
   43CHL1   C10 4327   4.828   5.289   7.171 -0.3650  0.0853  0.1081
   43CHL1   C19 4328   4.722   5.395   7.179 -0.3740  0.4625 -0.0971
   43CHL1  H19A 4329   4.659   5.360   7.264  0.6906 -2.4588 -0.3911
   43CHL1  H19B 4330   4.768   5.491   7.211  0.4058 -0.3299  1.3297
   43CHL1  H19C 4331   4.671   5.420   7.084 -0.7058  0.2000  0.0100
   43CHL1    C1 4332   4.788   5.140   7.221 -0.3278 -0.0307 -0.1250
   43CHL1   H1A 4333   4.697   5.098   7.173 -1.6704  2.4723  0.0754
   43CHL1   H1B 4334   4.864   5.067   7.186  0.3414  0.3497  0.5119
   43CHL1    C2 4335   4.775   5.127   7.378 -0.8283  0.1068 -0.6531
   43CHL1   H2A 4336   4.760   5.020   7.402  0.9542 -0.2233 -0.8958
   43CHL1   H2B 4337   4.693   5.189   7.422  0.4109  0.5012  1.2268
   43CHL1   C20 4338   4.846   5.336   6.464  0.0397  0.3886 -0.3275
   43CHL1   H20 4339   4.782   5.427   6.474  0.0701  0.3833 -0.0819
   43CHL1   C21 4340   4.747   5.216   6.453 -0.1693 -0.6423  0.4752
   43CHL1  H21A 4341   4.693   5.214   6.356  0.9502 -0.1615 -0.1843
   43CHL1  H21B 4342   4.667   5.225   6.530  0.9159  0.6582  1.5062
   43CHL1  H21C 4343   4.799   5.119   6.464  1.5475  0.2914  0.9726
   43CHL1   C22 4344   4.915   5.353   6.328 -0.6740 -0.4155  0.2994
   43CHL1  H22A 4345   5.009   5.413   6.333  0.2881 -1.6960 -1.3181
   43CHL1  H22B 4346   4.941   5.253   6.288  0.7503  0.0698 -0.0514
   43CHL1   C23 4347   4.816   5.407   6.218 -0.1962 -0.0895 -0.1052
   43CHL1  H23A 4348   4.737   5.330   6.209 -0.3612  0.2566 -2.0277
   43CHL1  H23B 4349   4.771   5.504   6.249  0.6170  0.6277 -1.1132
   43CHL1   C24 4350   4.883   5.425   6.083  0.0342  0.2261 -0.0342
   43CHL1  H24A 4351   4.979   5.480   6.098  0.5691 -0.9315  0.9803
   43CHL1  H24B 4352   4.916   5.327   6.040  0.5247  0.7326 -0.8464
   43CHL1   C25 4353   4.807   5.495   5.965  0.4332  0.5522 -0.1918
   43CHL1   H25 4354   4.789   5.599   6.002 -1.8127 -0.4915  1.9594
   43CHL1   C26 4355   4.902   5.501   5.843 -0.1651  0.0948 -0.0477
   43CHL1  H26A 4356   4.898   5.402   5.791  1.5798  0.2968 -0.6120
   43CHL1  H26B 4357   4.861   5.584   5.781 -0.2078  0.3919  0.3762
   43CHL1  H26C 4358   5.000   5.528   5.887 -0.4401  0.1503  0.5319
   43CHL1   C27 4359   4.667   5.440   5.927 -0.1264 -0.7160  0.4463
   43CHL1  H27A 4360   4.612   5.413   6.020  0.2228 -0.9956  0.5745
   43CHL1  H27B 4361   4.599   5.510   5.874  0.4507  0.7580  1.5857
   43CHL1  H27C 4362   4.675   5.348   5.865 -1.3837 -0.4254 -0.1688
   44CHL1    C3 4363   6.161   4.179   7.365  0.4326  0.1343 -0.2347
   44CHL1    H3 4364   6.058   4.215   7.386 -0.0920 -1.3975  0.0057
   44CHL1    O3 4365   6.233   4.160   7.484  0.5005 -0.4627  0.6422
   44CHL1   H3' 4366   6.221   4.067   7.504  1.2420 -0.1639  2.7887
   44CHL1    C4 4367   6.135   4.041   7.304  0.4384  0.3811  0.0308
   44CHL1   H4A 4368   6.230   3.984   7.307 -0.8681 -1.9152  0.2419
   44CHL1   H4B 4369   6.079   3.987   7.384  1.2829  0.7324  0.8820
   44CHL1    C5 4370   6.077   4.035   7.171  0.2286 -0.6412 -0.2861
   44CHL1    C6 4371   5.965   3.961   7.151 -0.8277 -0.0359  0.0837
   44CHL1    H6 4372   5.926   3.911   7.240 -1.2270  1.1531  0.5982
   44CHL1    C7 4373   5.892   3.957   7.020  0.1372  0.4334  0.7949
   44CHL1   H7A 4374   5.878   3.848   7.003  1.0796  0.0993  1.9758
   44CHL1   H7B 4375   5.801   4.019   7.029  0.8013  1.7250 -0.7964
   44CHL1    C8 4376   5.989   4.013   6.912 -0.6328  0.0802  0.3531
   44CHL1    H8 4377   6.071   3.940   6.896  0.0113  0.7719  0.4677
   44CHL1   C14 4378   5.920   4.025   6.778  0.8674  0.1590  0.0873
   44CHL1   H14 4379   5.835   4.095   6.797  0.7228  0.7491 -2.3758
   44CHL1   C15 4380   5.857   3.894   6.721  0.1270  0.9949  0.2088
   44CHL1  H15A 4381   5.931   3.812   6.731 -0.3861  0.4153 -0.6024
   44CHL1  H15B 4382   5.766   3.867   6.778  0.5554  2.2952  1.5911
   44CHL1   C16 4383   5.819   3.933   6.573 -0.7934  0.1699  0.2873
   44CHL1  H16A 4384   5.853   3.857   6.500 -0.2387 -0.1798  0.8883
   44CHL1  H16B 4385   5.709   3.943   6.574 -0.7012  1.4576 -0.6673
   44CHL1   C17 4386   5.881   4.077   6.542 -0.3043 -0.4748 -0.0979
   44CHL1   H17 4387   5.805   4.155   6.568  0.3092  0.2837 -0.5386
   44CHL1   C13 4388   5.991   4.091   6.655  0.2095  0.4128  0.5728
   44CHL1   C18 4389   6.110   3.999   6.605 -0.2530 -0.4550 -0.0724
   44CHL1  H18A 4390   6.139   3.998   6.498  3.1097 -2.6081  0.7185
   44CHL1  H18B 4391   6.192   4.028   6.674  0.7440 -2.4595 -0.3367
   44CHL1  H18C 4392   6.083   3.893   6.626 -0.8489 -0.8077 -2.3318
   44CHL1   C12 4393   6.029   4.237   6.697 -0.2188  0.1809 -0.6440
   44CHL1  H12A 4394   6.098   4.279   6.620  0.2678 -0.9463 -0.8493
   44CHL1  H12B 4395   5.936   4.295   6.706 -0.5273 -0.1420 -1.6423
   44CHL1   C11 4396   6.105   4.233   6.838 -0.1022  0.2035  0.6962
   44CHL1  H11A 4397   6.206   4.193   6.818 -0.6076 -1.7278  1.7875
   44CHL1  H11B 4398   6.103   4.341   6.863 -3.1529  0.5216 -0.4285
   44CHL1    C9 4399   6.051   4.146   6.950 -0.3419  0.1780  0.1798
   44CHL1    H9 4400   5.961   4.203   6.984 -0.5807  1.0894 -1.8545
   44CHL1   C10 4401   6.141   4.134   7.070 -0.3777  0.7323 -0.6674
   44CHL1   C19 4402   6.277   4.069   7.038 -0.1021 -0.7999  0.5793
   44CHL1  H19A 4403   6.260   3.967   6.999  0.5677 -1.3441  1.6663
   44CHL1  H19B 4404   6.325   4.121   6.952 -0.8960 -2.2952 -0.8187
   44CHL1  H19C 4405   6.342   4.060   7.128 -0.7649 -0.8440  1.0574
   44CHL1    C1 4406   6.172   4.272   7.136  0.1627 -0.1076  0.0859
   44CHL1   H1A 4407   6.233   4.329   7.063 -1.9412  0.0101 -1.6896
   44CHL1   H1B 4408   6.076   4.327   7.147  0.0020 -0.0804 -1.2332
   44CHL1    C2 4409   6.238   4.267   7.273 -0.0682 -0.1777  0.0563
   44CHL1   H2A 4410   6.230   4.369   7.316  1.5230  0.9326 -2.1009
   44CHL1   H2B 4411   6.341   4.232   7.251 -0.0760 -0.8556  1.0418
   44CHL1   C20 4412   5.910   4.099   6.394  0.2101  0.6331 -0.2181
   44CHL1   H20 4413   5.975   4.017   6.356 -0.8615 -0.7298  0.7430
   44CHL1   C21 4414   5.960   4.239   6.377  0.4795  0.0382 -0.7946
   44CHL1  H21A 4415   5.886   4.315   6.413  0.1696 -0.3258 -0.6528
   44CHL1  H21B 4416   5.967   4.255   6.268  1.4109 -0.5266 -0.8267
   44CHL1  H21C 4417   6.058   4.244   6.429 -0.0644  0.0515  0.2781
   44CHL1   C22 4418   5.776   4.080   6.315  1.1616  0.0421  0.4183
   44CHL1  H22A 4419   5.734   3.980   6.339  0.4908 -0.0429 -0.9597
   44CHL1  H22B 4420   5.700   4.153   6.350  0.9996 -1.7544  4.3705
   44CHL1   C23 4421   5.793   4.074   6.160 -0.6945 -0.2074  0.0570
   44CHL1  H23A 4422   5.816   4.174   6.118  0.2681 -0.0439  0.9222
   44CHL1  H23B 4423   5.883   4.010   6.148  2.1451  3.3992  0.3356
   44CHL1   C24 4424   5.687   4.012   6.066  0.3252  0.3547 -0.1841
   44CHL1  H24A 4425   5.667   3.912   6.109  0.9437 -0.8731 -2.6041
   44CHL1  H24B 4426   5.591   4.065   6.085  0.7027  0.5731  1.2282
   44CHL1   C25 4427   5.715   4.000   5.919 -0.3759  0.1317 -0.4147
   44CHL1   H25 4428   5.818   3.963   5.906 -0.7239 -0.9027 -0.3519
   44CHL1   C26 4429   5.613   3.901   5.856  0.3659 -1.1558 -0.4654
   44CHL1  H26A 4430   5.509   3.917   5.890  0.7281 -2.2541  1.2986
   44CHL1  H26B 4431   5.618   3.891   5.746 -1.3372 -2.9649 -0.4269
   44CHL1  H26C 4432   5.638   3.800   5.897  0.8641 -2.0330 -2.7662
   44CHL1   C27 4433   5.702   4.139   5.858  0.4097 -0.3371  0.1788
   44CHL1  H27A 4434   5.731   4.125   5.752 -2.2578 -1.1167 -0.5132
   44CHL1  H27B 4435   5.596   4.165   5.876 -0.1657 -1.9770 -0.6394
   44CHL1  H27C 4436   5.772   4.214   5.901  0.6306  0.2029 -1.0724
   45CHL1    C3 4437   6.581   3.647   7.305  0.2689  1.0731  0.0277
   45CHL1    H3 4438   6.548   3.543   7.283  0.4246  0.8552  0.7950
   45CHL1    O3 4439   6.571   3.653   7.445 -0.6294 -0.2135  0.0767
   45CHL1   H3' 4440   6.585   3.746   7.463  1.3364 -0.0405 -1.9595
   45CHL1    C4 4441   6.724   3.671   7.266 -0.1426  0.2619 -0.2970
   45CHL1   H4A 4442   6.742   3.775   7.300  0.1254  0.3186 -0.6145
   45CHL1   H4B 4443   6.797   3.608   7.323  0.6082  1.5595  0.2108
   45CHL1    C5 4444   6.733   3.678   7.117  0.0466  0.3435  0.5905
   45CHL1    C6 4445   6.828   3.607   7.066 -0.5905 -0.4958  0.3737
   45CHL1    H6 4446   6.896   3.549   7.130  0.3974  0.4312  0.2004
   45CHL1    C7 4447   6.869   3.615   6.921 -0.4398 -0.4581 -0.1278
   45CHL1   H7A 4448   6.979   3.632   6.913 -0.2915 -0.3233  1.7790
   45CHL1   H7B 4449   6.832   3.517   6.886 -0.9374 -0.2273 -0.2523
   45CHL1    C8 4450   6.790   3.712   6.837 -0.7191 -0.2839 -0.3415
   45CHL1    H8 4451   6.846   3.807   6.855 -1.5245 -0.2119  2.1643
   45CHL1   C14 4452   6.800   3.673   6.690  0.5190 -0.2278  0.0332
   45CHL1   H14 4453   6.725   3.592   6.686 -3.4729  3.1470 -0.3853
   45CHL1   C15 4454   6.918   3.638   6.614 -0.0833  0.2349  0.2902
   45CHL1  H15A 4455   6.992   3.720   6.626  1.9425 -1.4503 -0.0064
   45CHL1  H15B 4456   6.964   3.547   6.660 -1.4780 -0.0579  1.1571
   45CHL1   C16 4457   6.890   3.632   6.465 -0.0694  0.0946  0.5230
   45CHL1  H16A 4458   6.979   3.679   6.419 -0.4384  0.7002  0.4220
   45CHL1  H16B 4459   6.867   3.541   6.405 -0.8303  0.4915  0.1903
   45CHL1   C17 4460   6.764   3.723   6.465  0.8950 -1.3365  0.3781
   45CHL1   H17 4461   6.681   3.652   6.450 -0.6419  0.4142  0.3014
   45CHL1   C13 4462   6.729   3.777   6.608 -0.4531  0.1582  0.2617
   45CHL1   C18 4463   6.795   3.912   6.625  0.0667  0.0927 -0.2845
   45CHL1  H18A 4464   6.764   3.989   6.552  0.0967 -0.5564 -0.9970
   45CHL1  H18B 4465   6.775   3.963   6.722 -0.2785 -1.9441  0.7835
   45CHL1  H18C 4466   6.906   3.905   6.616  0.2195  0.0856  1.3425
   45CHL1   C12 4467   6.581   3.783   6.643 -0.7659 -0.2369 -0.3978
   45CHL1  H12A 4468   6.530   3.858   6.579  1.1130  1.5085  0.0498
   45CHL1  H12B 4469   6.526   3.689   6.620 -1.7134  0.2407 -0.1602
   45CHL1   C11 4470   6.558   3.827   6.790 -0.4037  0.6164  0.2512
   45CHL1  H11A 4471   6.586   3.934   6.798  2.0805  0.1821 -1.4365
   45CHL1  H11B 4472   6.449   3.820   6.809 -0.4677 -2.1271 -0.6852
   45CHL1    C9 4473   6.645   3.735   6.886 -0.8029 -0.1017  0.0826
   45CHL1    H9 4474   6.610   3.630   6.873 -1.1667  0.0892 -0.5332
   45CHL1   C10 4475   6.635   3.766   7.034  0.4938  0.2717 -0.5639
   45CHL1   C19 4476   6.671   3.913   7.056  0.1128 -0.0448 -0.1113
   45CHL1  H19A 4477   6.699   3.936   7.160 -0.7585  1.4291 -0.1800
   45CHL1  H19B 4478   6.761   3.944   6.998 -0.2520 -0.0186 -0.6790
   45CHL1  H19C 4479   6.589   3.984   7.033  0.7990  1.2346  1.2928
   45CHL1    C1 4480   6.492   3.739   7.085 -0.0530 -0.0465  0.3693
   45CHL1   H1A 4481   6.416   3.808   7.044 -0.9182 -0.3202  1.4940
   45CHL1   H1B 4482   6.471   3.636   7.046 -0.2285 -0.4786  1.5827
   45CHL1    C2 4483   6.482   3.749   7.238  0.2453 -0.1799  1.1530
   45CHL1   H2A 4484   6.377   3.733   7.271  0.6791 -0.5861  2.3578
   45CHL1   H2B 4485   6.505   3.852   7.273 -0.6893  0.0745  1.0446
   45CHL1   C20 4486   6.758   3.822   6.341 -0.6104  0.9995 -0.0536
   45CHL1   H20 4487   6.668   3.887   6.353 -0.1044  2.0834 -1.7102
   45CHL1   C21 4488   6.730   3.722   6.221  0.0639  0.4417 -0.7617
   45CHL1  H21A 4489   6.637   3.664   6.240 -0.6021  2.0385  1.1700
   45CHL1  H21B 4490   6.810   3.645   6.212 -1.3373 -0.9855 -1.5621
   45CHL1  H21C 4491   6.711   3.779   6.128  0.6237  1.2471 -0.3977
   45CHL1   C22 4492   6.885   3.904   6.309 -0.6952 -0.6090  0.3156
   45CHL1  H22A 4493   6.923   3.951   6.402 -1.7488  1.7545 -0.3821
   45CHL1  H22B 4494   6.972   3.841   6.281  0.8620  1.6378 -0.1565
   45CHL1   C23 4495   6.852   4.021   6.216  0.5691 -0.4622 -0.1377
   45CHL1  H23A 4496   6.805   3.966   6.131 -1.6671 -0.0057  0.7349
   45CHL1  H23B 4497   6.768   4.087   6.246  0.1886  0.4004 -2.7758
   45CHL1   C24 4498   6.974   4.098   6.169  0.4232  0.4513 -0.0221
   45CHL1  H24A 4499   7.033   4.129   6.258  1.4924  0.9408 -0.8804
   45CHL1  H24B 4500   7.039   4.023   6.120 -0.6023 -1.2865  1.1888
   45CHL1   C25 4501   6.952   4.213   6.064  0.1386 -0.0440 -0.8687
   45CHL1   H25 4502   7.049   4.248   6.024  1.3669 -0.0499  1.9129
   45CHL1   C26 4503   6.871   4.157   5.950 -0.0464  0.1243  0.0171
   45CHL1  H26A 4504   6.771   4.122   5.982 -1.2634  1.8642 -1.7195
   45CHL1  H26B 4505   6.860   4.231   5.869 -0.5340 -0.9327 -0.9027
   45CHL1  H26C 4506   6.933   4.069   5.921 -0.4793 -1.4801  3.4286
   45CHL1   C27 4507   6.874   4.325   6.136 -0.1658  0.1546 -0.5346
   45CHL1  H27A 4508   6.783   4.300   6.194 -0.0563  0.6959 -0.1257
   45CHL1  H27B 4509   6.935   4.366   6.220  0.9310 -0.5146 -0.9738
   45CHL1  H27C 4510   6.845   4.404   6.064  0.1609 -0.5127 -1.4163
   46CHL1    C3 4511   6.837   1.529   6.559 -0.1775 -0.4717 -0.7262
   46CHL1    H3 4512   6.948   1.536   6.566 -0.0486 -2.3077 -0.3909
   46CHL1    O3 4513   6.795   1.482   6.690  0.2527 -0.2542  0.1324
   46CHL1   H3' 4514   6.700   1.489   6.682  0.2140  0.3015  0.9375
   46CHL1    C4 4515   6.780   1.673   6.536  1.1110  1.2317  0.4003
   46CHL1   H4A 4516   6.669   1.672   6.544  0.9337 -1.0735 -1.1664
   46CHL1   H4B 4517   6.804   1.745   6.617  0.9204 -0.2896  1.8767
   46CHL1    C5 4518   6.807   1.715   6.392 -0.4706  0.2118 -1.4541
   46CHL1    C6 4519   6.865   1.833   6.367 -0.4456 -0.2309  0.2453
   46CHL1    H6 4520   6.882   1.906   6.447  2.7410 -0.0091 -0.5066
   46CHL1    C7 4521   6.893   1.890   6.234 -0.2899  0.7269 -0.1335
   46CHL1   H7A 4522   6.848   1.991   6.225  0.5878  1.0861 -0.6383
   46CHL1   H7B 4523   7.003   1.887   6.216 -0.0551  0.5592  1.1911
   46CHL1    C8 4524   6.824   1.812   6.121 -0.7632  0.2330  0.2029
   46CHL1    H8 4525   6.715   1.832   6.118 -0.7196  0.3732 -1.1922
   46CHL1   C14 4526   6.874   1.851   5.988 -0.0876  0.0200 -0.1608
   46CHL1   H14 4527   6.983   1.827   5.991  0.2779  1.6524  2.1710
   46CHL1   C15 4528   6.868   1.996   5.955  0.2286  0.3483  0.1406
   46CHL1  H15A 4529   6.771   2.044   5.982  0.2250  1.9370 -2.4382
   46CHL1  H15B 4530   6.947   2.052   6.009 -0.2255  1.0720  0.0697
   46CHL1   C16 4531   6.891   1.997   5.801 -0.1533 -0.2346 -0.1564
   46CHL1  H16A 4532   6.798   2.028   5.748  0.2711 -0.1577 -0.8594
   46CHL1  H16B 4533   6.978   2.057   5.770  1.5858 -1.9470  1.1488
   46CHL1   C17 4534   6.903   1.851   5.764  0.3869  0.9195  0.1252
   46CHL1   H17 4535   7.009   1.820   5.774 -0.5055 -1.8954  1.7055
   46CHL1   C13 4536   6.810   1.779   5.874 -0.3040  0.1436  0.7619
   46CHL1   C18 4537   6.659   1.800   5.856 -0.5836  0.1055  0.2438
   46CHL1  H18A 4538   6.615   1.783   5.956  0.0765 -0.0652  0.5110
   46CHL1  H18B 4539   6.645   1.904   5.821 -0.0729 -0.3039 -1.2721
   46CHL1  H18C 4540   6.622   1.727   5.781 -0.6753  1.2202 -0.8144
   46CHL1   C12 4541   6.838   1.633   5.889  0.1012 -0.2776  0.3286
   46CHL1  H12A 4542   6.788   1.573   5.811 -1.5827  2.2823 -0.6845
   46CHL1  H12B 4543   6.948   1.620   5.883  0.0897 -1.4829  1.8917
   46CHL1   C11 4544   6.791   1.572   6.019  1.0787 -0.0717  0.6042
   46CHL1  H11A 4545   6.680   1.570   6.010  1.0102  1.7431  0.7523
   46CHL1  H11B 4546   6.824   1.466   6.021 -0.3357 -0.6187 -1.4677
   46CHL1    C9 4547   6.833   1.658   6.143  0.8280  0.5084  0.5760
   46CHL1    H9 4548   6.943   1.646   6.146  0.8342  0.1413 -0.5884
   46CHL1   C10 4549   6.772   1.615   6.278 -0.1748  0.8182 -0.3768
   46CHL1   C19 4550   6.617   1.606   6.264 -0.3436 -0.1648 -0.3795
   46CHL1  H19A 4551   6.583   1.703   6.221  0.7980  0.7454  0.7238
   46CHL1  H19B 4552   6.583   1.526   6.195  1.0136 -0.5308 -0.6528
   46CHL1  H19C 4553   6.572   1.580   6.362 -0.1952 -0.5884 -0.4226
   46CHL1    C1 4554   6.823   1.472   6.317  0.4481  0.6822  0.0613
   46CHL1   H1A 4555   6.790   1.392   6.247  0.4621  0.4473  0.3247
   46CHL1   H1B 4556   6.933   1.472   6.300  0.3190 -0.8389 -0.9992
   46CHL1    C2 4557   6.790   1.430   6.455 -0.3758  0.5950 -0.3023
   46CHL1   H2A 4558   6.848   1.337   6.474  1.3863  1.5275 -0.8803
   46CHL1   H2B 4559   6.682   1.405   6.467  0.0782 -0.4955  2.2314
   46CHL1   C20 4560   6.880   1.820   5.614 -0.2742 -0.4303  0.4870
   46CHL1   H20 4561   6.772   1.822   5.587  0.1348  0.1921 -1.2370
   46CHL1   C21 4562   6.915   1.672   5.579  0.0555 -0.0623 -0.0141
   46CHL1  H21A 4563   6.831   1.606   5.611  1.1696 -1.0241  1.0166
   46CHL1  H21B 4564   7.011   1.637   5.624 -0.2962  0.6544  1.3645
   46CHL1  H21C 4565   6.923   1.649   5.471 -1.1856  1.5869 -0.5010
   46CHL1   C22 4566   6.966   1.929   5.533  0.5400 -0.5151  0.5541
   46CHL1  H22A 4567   6.903   2.021   5.537  0.4925 -0.5852  2.0544
   46CHL1  H22B 4568   7.065   1.951   5.578 -0.6391  2.9506  1.8268
   46CHL1   C23 4569   6.984   1.890   5.391 -1.0714  0.4960  0.5542
   46CHL1  H23A 4570   7.062   1.811   5.387  0.3360  1.8596 -2.0055
   46CHL1  H23B 4571   6.886   1.856   5.351  0.3202 -2.8276 -0.3826
   46CHL1   C24 4572   7.034   2.014   5.301 -0.1202 -0.0976 -0.1320
   46CHL1  H24A 4573   6.974   2.099   5.340  0.7944  0.7051 -0.4576
   46CHL1  H24B 4574   7.140   2.037   5.325  0.0557  0.5808 -1.5068
   46CHL1   C25 4575   7.017   1.982   5.149 -0.9926  0.0651  0.5333
   46CHL1   H25 4576   6.913   1.952   5.124 -1.3529  3.6403 -3.2957
   46CHL1   C26 4577   7.033   2.110   5.071  0.9127  0.1140  0.2848
   46CHL1  H26A 4578   7.134   2.154   5.086 -0.0701  1.6746  2.9370
   46CHL1  H26B 4579   7.007   2.102   4.963 -0.9808 -1.5804  0.8012
   46CHL1  H26C 4580   6.963   2.182   5.118 -0.6255 -1.1103 -0.0283
   46CHL1   C27 4581   7.103   1.867   5.101 -0.2895  0.6907  0.3126
   46CHL1  H27A 4582   7.208   1.895   5.119 -0.4303  2.1502 -0.9313
   46CHL1  H27B 4583   7.060   1.776   5.149  0.9707 -0.5749 -0.8565
   46CHL1  H27C 4584   7.095   1.851   4.991 -1.5713  1.4564  0.2771
   47CHL1    C3 4585   2.213   3.490   7.098  0.2433 -0.1301  0.3819
   47CHL1    H3 4586   2.244   3.392   7.056 -0.7111 -0.1599 -0.2959
   47CHL1    O3 4587   2.243   3.491   7.237  0.1309 -0.0960 -0.6833
   47CHL1   H3' 4588   2.195   3.417   7.274 -0.5603 -0.5464 -2.3821
   47CHL1    C4 4589   2.296   3.597   7.019 -0.4723 -0.0026 -0.0308
   47CHL1   H4A 4590   2.264   3.684   7.079 -3.3058 -2.9659  3.2500
   47CHL1   H4B 4591   2.405   3.586   7.042 -0.4143  2.1380  0.9735
   47CHL1    C5 4592   2.263   3.600   6.876 -0.2534  0.2611 -0.5455
   47CHL1    C6 4593   2.361   3.587   6.789 -0.2660  0.0916  0.1115
   47CHL1    H6 4594   2.465   3.570   6.823 -0.0798  0.2143 -0.3863
   47CHL1    C7 4595   2.348   3.591   6.643 -0.3959  0.2325  0.5720
   47CHL1   H7A 4596   2.413   3.671   6.601 -1.9334  1.0204 -0.4423
   47CHL1   H7B 4597   2.378   3.493   6.600  0.9321  0.4794  0.8957
   47CHL1    C8 4598   2.203   3.629   6.601 -1.0363  0.2833  0.3058
   47CHL1    H8 4599   2.192   3.739   6.611  1.0190  0.3369  3.8707
   47CHL1   C14 4600   2.173   3.577   6.458 -0.1932 -0.0096 -0.2994
   47CHL1   H14 4601   2.164   3.467   6.467 -0.5490  0.1714  2.4784
   47CHL1   C15 4602   2.271   3.618   6.352 -0.1752 -0.4637  0.9014
   47CHL1  H15A 4603   2.298   3.723   6.373 -0.3669 -0.3109  0.3890
   47CHL1  H15B 4604   2.360   3.551   6.343  2.3226  2.6669  0.5426
   47CHL1   C16 4605   2.192   3.609   6.219 -0.1522 -0.2833 -0.4788
   47CHL1  H16A 4606   2.178   3.714   6.184 -0.9845  0.1510  1.0751
   47CHL1  H16B 4607   2.237   3.537   6.147 -1.8381 -0.1043 -1.7571
   47CHL1   C17 4608   2.048   3.556   6.261 -0.7330  0.0451  0.3950
   47CHL1   H17 4609   2.070   3.447   6.265  1.5939  0.3936 -0.9485
   47CHL1   C13 4610   2.033   3.606   6.407 -0.3174  1.4596 -0.4727
   47CHL1   C18 4611   1.994   3.755   6.406 -0.2418  0.0568 -0.1271
   47CHL1  H18A 4612   1.989   3.804   6.506  0.9973 -1.2413  0.5980
   47CHL1  H18B 4613   2.072   3.809   6.348  0.5143 -0.6371  0.2296
   47CHL1  H18C 4614   1.895   3.771   6.358 -0.6409 -0.0515  0.6446
   47CHL1   C12 4615   1.940   3.523   6.490 -0.1738  1.2267 -0.1261
   47CHL1  H12A 4616   1.839   3.554   6.458  0.3122  0.8210 -2.1826
   47CHL1  H12B 4617   1.961   3.414   6.484  0.8116  1.4858 -2.0078
   47CHL1   C11 4618   1.955   3.552   6.638 -0.4871 -0.0324  0.6833
   47CHL1  H11A 4619   1.909   3.651   6.658 -0.0467  0.3122  0.0487
   47CHL1  H11B 4620   1.896   3.478   6.697  0.4851  0.5339  2.4296
   47CHL1    C9 4621   2.104   3.557   6.689  0.3139  0.0004 -0.3914
   47CHL1    H9 4622   2.133   3.450   6.699  1.8533  0.6505  3.4503
   47CHL1   C10 4623   2.113   3.606   6.837  0.2263 -0.9959  0.3997
   47CHL1   C19 4624   2.081   3.758   6.855  0.8666 -0.0553 -0.8429
   47CHL1  H19A 4625   2.086   3.774   6.964 -1.1290  2.2922 -1.0082
   47CHL1  H19B 4626   2.145   3.839   6.813  1.3381  0.7217  1.2725
   47CHL1  H19C 4627   1.974   3.780   6.834 -0.1968 -1.3457  2.5801
   47CHL1    C1 4628   2.018   3.523   6.923  0.4832  0.4582 -0.4567
   47CHL1   H1A 4629   1.913   3.558   6.924  0.0238 -0.8021 -1.2889
   47CHL1   H1B 4630   2.037   3.420   6.885 -0.4696  0.7250 -1.7144
   47CHL1    C2 4631   2.063   3.528   7.077  0.5483 -0.5516  1.1290
   47CHL1   H2A 4632   1.986   3.467   7.129 -1.3870 -0.7416 -1.6993
   47CHL1   H2B 4633   2.054   3.635   7.106  0.4278  0.2332 -1.5102
   47CHL1   C20 4634   1.941   3.582   6.160  0.3132  0.1348  0.7905
   47CHL1   H20 4635   1.903   3.685   6.172 -0.0285 -0.0663  1.4758
   47CHL1   C21 4636   1.813   3.493   6.179 -0.0650 -0.3144 -0.5687
   47CHL1  H21A 4637   1.725   3.517   6.115  0.0286  0.0897 -0.5442
   47CHL1  H21B 4638   1.769   3.508   6.281 -0.5805  0.2932 -0.8711
   47CHL1  H21C 4639   1.839   3.386   6.162  0.7363  0.2034 -2.9914
   47CHL1   C22 4640   1.994   3.567   6.013 -0.1596  0.3071  0.1491
   47CHL1  H22A 4641   2.075   3.642   6.009 -0.0031  0.1294  0.0177
   47CHL1  H22B 4642   2.029   3.468   5.977 -2.7295 -0.1919 -1.2324
   47CHL1   C23 4643   1.882   3.595   5.909  0.0034  0.3424 -0.0245
   47CHL1  H23A 4644   1.820   3.503   5.902  2.3520 -1.3366  0.1232
   47CHL1  H23B 4645   1.824   3.683   5.944  0.4331  1.3805 -1.7940
   47CHL1   C24 4646   1.946   3.620   5.770 -0.4621 -0.3779  0.2274
   47CHL1  H24A 4647   2.000   3.716   5.780 -0.7661 -0.0393 -1.1444
   47CHL1  H24B 4648   2.011   3.530   5.758 -0.9789 -0.6579 -0.6164
   47CHL1   C25 4649   1.844   3.624   5.654  0.2037 -0.0819  0.9983
   47CHL1   H25 4650   1.903   3.635   5.561  0.6594 -1.2708  1.1338
   47CHL1   C26 4651   1.774   3.493   5.634  0.4166  0.2620 -0.1659
   47CHL1  H26A 4652   1.695   3.498   5.556  1.0291 -0.3789 -0.8401
   47CHL1  H26B 4653   1.839   3.408   5.605  0.3160 -0.6901  2.2556
   47CHL1  H26C 4654   1.742   3.444   5.728  2.8322  0.5500  0.9017
   47CHL1   C27 4655   1.738   3.735   5.666  0.0663  0.9199 -0.3574
   47CHL1  H27A 4656   1.678   3.722   5.759  0.1319  0.9203 -0.3146
   47CHL1  H27B 4657   1.778   3.839   5.673 -0.4657  1.3879 -3.0704
   47CHL1  H27C 4658   1.671   3.743   5.578 -0.3555 -1.3034 -0.2933
   48CHL1    C3 4659   5.159   4.484   7.064  0.7360  0.1916  0.1617
   48CHL1    H3 4660   5.224   4.572   7.084  0.1391  0.2704  1.9116
   48CHL1    O3 4661   5.127   4.426   7.189  0.2579  0.0688  0.2461
   48CHL1   H3' 4662   5.191   4.459   7.253  0.1219  0.1114  0.3617
   48CHL1    C4 4663   5.022   4.540   7.008  0.3759  0.2837 -0.0815
   48CHL1   H4A 4664   4.959   4.449   7.000  0.2223  0.3748  0.1026
   48CHL1   H4B 4665   4.967   4.611   7.073  0.9291 -0.3295  1.0836
   48CHL1    C5 4666   5.031   4.599   6.869 -0.1803 -0.4403  0.1550
   48CHL1    C6 4667   4.990   4.729   6.846  0.6360 -0.4211  0.0137
   48CHL1    H6 4668   4.946   4.778   6.934 -1.2649 -2.2647  0.1636
   48CHL1    C7 4669   4.983   4.799   6.711 -0.4195 -0.7000 -0.3408
   48CHL1   H7A 4670   4.884   4.848   6.699  0.3607  1.4292  1.5018
   48CHL1   H7B 4671   5.062   4.876   6.698 -0.8125 -0.3026 -0.3952
   48CHL1    C8 4672   5.017   4.687   6.600 -0.1578 -0.6881  0.8104
   48CHL1    H8 4673   4.927   4.626   6.576 -1.0621  0.7790  0.3773
   48CHL1   C14 4674   5.048   4.765   6.476 -0.2930 -0.3138  0.1957
   48CHL1   H14 4675   5.132   4.831   6.507 -0.0676 -0.3117 -0.4105
   48CHL1   C15 4676   4.949   4.881   6.436 -0.0306 -0.3151 -0.6238
   48CHL1  H15A 4677   4.846   4.841   6.437 -0.3258  0.3754 -1.9044
   48CHL1  H15B 4678   4.959   4.976   6.494 -3.5494  1.7121 -2.9964
   48CHL1   C16 4679   4.984   4.909   6.292 -0.0958  0.3203 -0.4177
   48CHL1  H16A 4680   4.889   4.898   6.234 -0.9781  1.1067  0.8294
   48CHL1  H16B 4681   5.026   5.011   6.276  0.3406  0.6709  2.5199
   48CHL1   C17 4682   5.088   4.808   6.245  0.2462 -0.0749  0.0755
   48CHL1   H17 4683   5.188   4.855   6.263  0.3443  0.2810 -1.2861
   48CHL1   C13 4684   5.075   4.692   6.344 -0.7187  0.6895 -0.1872
   48CHL1   C18 4685   4.949   4.600   6.316  0.7676  0.3261  0.5980
   48CHL1  H18A 4686   4.860   4.658   6.284  1.6938  0.9136 -1.0535
   48CHL1  H18B 4687   4.980   4.531   6.234  1.6519 -0.3832  1.5113
   48CHL1  H18C 4688   4.921   4.531   6.398 -1.1674 -0.5514 -0.7181
   48CHL1   C12 4689   5.201   4.608   6.378  0.5338  0.0145 -0.1974
   48CHL1  H12A 4690   5.221   4.545   6.288 -2.5976  0.4445 -1.3211
   48CHL1  H12B 4691   5.290   4.670   6.403  1.1410 -0.9168  0.0134
   48CHL1   C11 4692   5.184   4.526   6.508 -0.1398 -0.4188  0.6186
   48CHL1  H11A 4693   5.103   4.455   6.479  1.3418 -1.7129 -0.5585
   48CHL1  H11B 4694   5.280   4.473   6.530  1.1484  1.6551  0.2005
   48CHL1    C9 4695   5.135   4.604   6.632  0.5735 -0.0068 -0.4549
   48CHL1    H9 4696   5.215   4.677   6.658  1.0557  0.3512 -2.7669
   48CHL1   C10 4697   5.110   4.512   6.764 -0.3588  0.6271 -0.9627
   48CHL1   C19 4698   5.019   4.389   6.723  0.2464 -0.0884  0.2818
   48CHL1  H19A 4699   4.994   4.326   6.811 -2.2559 -0.1455 -0.3864
   48CHL1  H19B 4700   4.925   4.428   6.677  0.2653  0.3555  0.6109
   48CHL1  H19C 4701   5.064   4.338   6.636 -1.6283 -3.1906  0.9780
   48CHL1    C1 4702   5.243   4.460   6.828  0.1547 -0.1281  0.0394
   48CHL1   H1A 4703   5.295   4.398   6.751  0.1799 -0.9315  0.6938
   48CHL1   H1B 4704   5.313   4.544   6.846  0.1602 -0.3994  1.3552
   48CHL1    C2 4705   5.234   4.389   6.963  0.1494  0.5711 -0.5557
   48CHL1   H2A 4706   5.333   4.355   7.000  0.4343  0.8429 -1.0552
   48CHL1   H2B 4707   5.173   4.296   6.960  2.9933 -1.5173  1.2578
   48CHL1   C20 4708   5.072   4.789   6.097  0.0837  0.5104 -0.3762
   48CHL1   H20 4709   4.972   4.751   6.066 -0.2173 -0.0039  1.1325
   48CHL1   C21 4710   5.176   4.688   6.051 -0.7738  0.2166  0.2954
   48CHL1  H21A 4711   5.165   4.675   5.942 -2.5548  2.2872  0.1617
   48CHL1  H21B 4712   5.280   4.721   6.071 -0.2795 -1.3511  0.4654
   48CHL1  H21C 4713   5.163   4.588   6.097  0.0909  0.3442  0.8492
   48CHL1   C22 4714   5.084   4.921   6.013 -0.3731 -0.2169  0.0332
   48CHL1  H22A 4715   5.007   4.991   6.051  0.4703  1.0887 -0.5980
   48CHL1  H22B 4716   5.182   4.970   6.034 -0.0426  0.3990 -2.6492
   48CHL1   C23 4717   5.074   4.928   5.863 -0.1786 -0.0940 -0.0577
   48CHL1  H23A 4718   5.130   5.020   5.838 -0.0156 -0.8350 -2.8314
   48CHL1  H23B 4719   5.126   4.843   5.815  1.4223  1.4000 -1.0714
   48CHL1   C24 4720   4.928   4.949   5.819 -0.6069  1.3533 -0.3556
   48CHL1  H24A 4721   4.882   4.849   5.810  1.2709  0.2513  1.4674
   48CHL1  H24B 4722   4.868   5.013   5.886 -0.4457 -0.3475  1.4897
   48CHL1   C25 4723   4.906   5.006   5.673  0.1920  0.4453  0.0073
   48CHL1   H25 4724   4.967   5.098   5.662  0.8566 -0.0368 -0.4027
   48CHL1   C26 4725   4.951   4.908   5.562  0.2105 -0.1446 -0.3811
   48CHL1  H26A 4726   4.936   4.960   5.465 -0.9319 -1.3568 -0.8819
   48CHL1  H26B 4727   5.053   4.877   5.592  0.1232 -1.1074 -1.0663
   48CHL1  H26C 4728   4.873   4.829   5.564  0.1867 -0.1473 -1.2233
   48CHL1   C27 4729   4.764   5.056   5.660 -0.6243  0.4071  0.3953
   48CHL1  H27A 4730   4.756   5.126   5.573  0.7657  0.2773  0.1385
   48CHL1  H27B 4731   4.694   4.971   5.651 -0.6475  0.2610  1.7547
   48CHL1  H27C 4732   4.731   5.113   5.749  0.2553  2.7108 -0.6594
   49CHL1    C3 4733   4.439   4.132   3.829  0.2524 -0.3159 -0.3005
   49CHL1    H3 4734   4.487   4.034   3.852  0.2915 -0.1714  0.2590
   49CHL1    O3 4735   4.431   4.149   3.692  0.2236 -0.2881 -0.1832
   49CHL1   H3' 4736   4.371   4.086   3.651  0.1042 -0.8678  0.8622
   49CHL1    C4 4737   4.295   4.135   3.899 -0.1443  0.1249 -0.1658
   49CHL1   H4A 4738   4.239   4.229   3.881 -3.4492 -1.8922 -1.2466
   49CHL1   H4B 4739   4.236   4.054   3.851  0.2746  0.3382 -1.0582
   49CHL1    C5 4740   4.309   4.126   4.053 -0.1441  0.4851 -0.5894
   49CHL1    C6 4741   4.252   4.021   4.110 -0.1765  0.2436  0.2985
   49CHL1    H6 4742   4.209   3.939   4.051  0.7162 -1.8646  2.4016
   49CHL1    C7 4743   4.267   3.993   4.256 -0.6038 -0.7301 -0.3904
   49CHL1   H7A 4744   4.169   3.961   4.299 -0.7099 -0.9081 -0.7644
   49CHL1   H7B 4745   4.348   3.920   4.278 -2.2767 -2.1198  1.5229
   49CHL1    C8 4746   4.310   4.124   4.346  0.1943 -0.0604  1.6156
   49CHL1    H8 4747   4.226   4.197   4.338 -1.7506 -2.2822  0.7904
   49CHL1   C14 4748   4.342   4.098   4.491 -0.7611 -0.4756 -0.4187
   49CHL1   H14 4749   4.434   4.036   4.486  0.7605  1.7701 -1.9238
   49CHL1   C15 4750   4.246   4.015   4.577 -0.2394 -0.2254  0.1202
   49CHL1  H15A 4751   4.138   4.030   4.556  0.1552  0.6397 -1.5118
   49CHL1  H15B 4752   4.272   3.908   4.564 -0.6245 -0.1323 -1.8462
   49CHL1   C16 4753   4.271   4.060   4.721 -0.4518  0.1165  0.1829
   49CHL1  H16A 4754   4.180   4.123   4.734  0.6377  1.9190 -0.6401
   49CHL1  H16B 4755   4.282   3.971   4.788  0.5947 -0.0176 -0.1540
   49CHL1   C17 4756   4.395   4.151   4.716  0.3175  0.1453  0.0241
   49CHL1   H17 4757   4.485   4.087   4.705  2.3830  2.7336  1.0249
   49CHL1   C13 4758   4.384   4.218   4.575 -0.1737 -0.4319  0.7298
   49CHL1   C18 4759   4.269   4.319   4.571 -0.3085 -0.0209 -0.7546
   49CHL1  H18A 4760   4.278   4.397   4.650  1.2902  0.8677 -1.7448
   49CHL1  H18B 4761   4.259   4.371   4.473 -1.3745 -2.6483 -2.1583
   49CHL1  H18C 4762   4.171   4.268   4.577 -0.7340  0.8636  0.0563
   49CHL1   C12 4763   4.512   4.273   4.507 -0.3000  0.1208  0.3621
   49CHL1  H12A 4764   4.525   4.372   4.554 -1.9881  0.4716  0.1490
   49CHL1  H12B 4765   4.600   4.207   4.527 -1.2513 -1.4399 -0.4244
   49CHL1   C11 4766   4.504   4.303   4.353 -0.0687  0.1796  0.4875
   49CHL1  H11A 4767   4.457   4.404   4.352 -0.7207 -0.0816  1.7003
   49CHL1  H11B 4768   4.606   4.318   4.313 -0.7688  0.2092 -1.3481
   49CHL1    C9 4769   4.428   4.193   4.273 -0.8474  0.7415 -0.0412
   49CHL1    H9 4770   4.504   4.112   4.269  0.1007  1.6325 -0.4007
   49CHL1   C10 4771   4.396   4.232   4.127 -0.4076  0.8509 -0.5752
   49CHL1   C19 4772   4.327   4.371   4.121  0.9491  0.3682  0.6086
   49CHL1  H19A 4773   4.307   4.406   4.018 -0.2909  0.7318  0.9477
   49CHL1  H19B 4774   4.235   4.377   4.184 -0.5565  3.6473 -1.5949
   49CHL1  H19C 4775   4.392   4.453   4.158  0.9276 -0.0392  1.5919
   49CHL1    C1 4776   4.538   4.235   4.051 -0.4307 -0.4663  0.0978
   49CHL1   H1A 4777   4.599   4.319   4.093  0.4127 -0.7788 -0.4589
   49CHL1   H1B 4778   4.589   4.137   4.062  0.3388 -0.1041 -0.1189
   49CHL1    C2 4779   4.524   4.250   3.888 -0.1440  0.8144  0.5014
   49CHL1   H2A 4780   4.625   4.246   3.843 -0.1156  0.2977  0.6042
   49CHL1   H2B 4781   4.479   4.346   3.855  1.0138  1.8040  1.6732
   49CHL1   C20 4782   4.399   4.230   4.842  0.1055  0.1577 -0.3986
   49CHL1   H20 4783   4.301   4.279   4.858 -0.4661 -1.9189  3.7699
   49CHL1   C21 4784   4.505   4.338   4.839 -0.5360 -0.6197  0.4570
   49CHL1  H21A 4785   4.469   4.425   4.779 -1.2794 -1.7290 -0.7597
   49CHL1  H21B 4786   4.601   4.311   4.791 -0.7641 -0.6190 -0.0015
   49CHL1  H21C 4787   4.524   4.382   4.939 -1.9340 -0.9400  0.8757
   49CHL1   C22 4788   4.412   4.141   4.974  0.9546 -0.2244 -0.8926
   49CHL1  H22A 4789   4.334   4.063   4.975 -0.4059  1.0888 -0.2427
   49CHL1  H22B 4790   4.513   4.097   4.990  1.2165  0.4258 -0.6878
   49CHL1   C23 4791   4.390   4.222   5.104 -0.1759 -0.2585 -0.0830
   49CHL1  H23A 4792   4.481   4.284   5.112 -0.3152  0.6839 -3.8659
   49CHL1  H23B 4793   4.300   4.286   5.104 -0.0758 -0.1152 -0.7234
   49CHL1   C24 4794   4.384   4.122   5.222  0.6838 -0.3458  0.1778
   49CHL1  H24A 4795   4.285   4.072   5.219  0.6514 -0.2379 -1.0631
   49CHL1  H24B 4796   4.456   4.038   5.213 -0.0593 -0.9479 -0.2716
   49CHL1   C25 4797   4.394   4.168   5.370 -0.3881 -0.5081  0.8085
   49CHL1   H25 4798   4.318   4.245   5.395  0.6621  0.5721  0.6982
   49CHL1   C26 4799   4.381   4.041   5.458  0.3563 -0.0098 -0.5222
   49CHL1  H26A 4800   4.279   3.999   5.443 -0.3887  0.5156  2.3829
   49CHL1  H26B 4801   4.463   3.968   5.443  0.9931  0.7050 -0.5373
   49CHL1  H26C 4802   4.391   4.065   5.566  0.5413 -0.4038 -0.4496
   49CHL1   C27 4803   4.523   4.236   5.391  0.0638 -0.6688  0.3613
   49CHL1  H27A 4804   4.539   4.325   5.326 -0.3139  1.1569  2.6049
   49CHL1  H27B 4805   4.527   4.269   5.497  1.0270 -3.4254  1.2721
   49CHL1  H27C 4806   4.614   4.174   5.384  0.1437 -0.5152  0.0346
   50CHL1    C3 4807   2.305   6.000   3.788  0.3314 -1.2786 -0.9737
   50CHL1    H3 4808   2.358   5.905   3.812  3.4346  0.4529 -0.5663
   50CHL1    O3 4809   2.340   6.047   3.660  0.6989  0.6518 -0.4295
   50CHL1   H3' 4810   2.432   6.073   3.670  1.1946 -1.3755  0.7787
   50CHL1    C4 4811   2.151   5.981   3.808  0.2784  0.2010 -0.4828
   50CHL1   H4A 4812   2.113   6.081   3.778 -0.3184  0.2585  0.4515
   50CHL1   H4B 4813   2.093   5.923   3.733 -2.1999  0.7832  0.8652
   50CHL1    C5 4814   2.116   5.950   3.951 -0.0131 -0.0273 -0.3561
   50CHL1    C6 4815   2.043   5.838   3.981  0.3205 -0.2744 -0.1785
   50CHL1    H6 4816   2.012   5.762   3.908 -1.4329  2.2500 -2.2228
   50CHL1    C7 4817   1.997   5.804   4.121 -0.7427 -0.3343 -0.3734
   50CHL1   H7A 4818   1.887   5.786   4.118 -0.4529 -2.3882 -3.4037
   50CHL1   H7B 4819   2.037   5.711   4.167  1.2471  1.3881  1.6112
   50CHL1    C8 4820   2.029   5.918   4.221 -0.9020 -0.4646  0.8983
   50CHL1    H8 4821   1.953   5.999   4.220  1.5868  1.9893 -0.1576
   50CHL1   C14 4822   2.013   5.856   4.368 -0.6076 -0.5587  0.5118
   50CHL1   H14 4823   2.098   5.783   4.369 -0.3842 -0.2983  0.9279
   50CHL1   C15 4824   1.893   5.780   4.410  0.1838 -0.2540  0.0085
   50CHL1  H15A 4825   1.801   5.838   4.387  0.0471  0.6174  2.4398
   50CHL1  H15B 4826   1.886   5.680   4.362  0.8277  0.8175 -2.4446
   50CHL1   C16 4827   1.904   5.765   4.566  0.4621 -0.4128 -0.4664
   50CHL1  H16A 4828   1.818   5.808   4.620  0.5643  1.0939 -1.4362
   50CHL1  H16B 4829   1.901   5.658   4.598 -1.6079 -0.4457 -0.6183
   50CHL1   C17 4830   2.028   5.854   4.597 -0.3862  0.8222 -0.2414
   50CHL1   H17 4831   2.112   5.782   4.598 -1.5506 -0.6457 -1.6914
   50CHL1   C13 4832   2.034   5.958   4.482 -1.5203  0.7961  0.8916
   50CHL1   C18 4833   1.926   6.070   4.483  1.4191 -0.1853 -0.3865
   50CHL1  H18A 4834   1.826   6.024   4.501  1.6831 -0.0287  1.6550
   50CHL1  H18B 4835   1.946   6.143   4.564  0.7704 -0.0342 -0.3548
   50CHL1  H18C 4836   1.930   6.124   4.386  0.3992  1.4086  0.4224
   50CHL1   C12 4837   2.174   6.011   4.454 -0.0376 -0.1738 -0.1580
   50CHL1  H12A 4838   2.199   6.082   4.536  2.1547 -0.0566 -0.8733
   50CHL1  H12B 4839   2.249   5.929   4.464  0.2130 -0.2119 -2.0766
   50CHL1   C11 4840   2.201   6.078   4.322  0.4227 -0.5141  1.0853
   50CHL1  H11A 4841   2.138   6.170   4.317  0.2255 -0.7114 -2.6423
   50CHL1  H11B 4842   2.310   6.101   4.315  0.1514  0.4209 -0.3840
   50CHL1    C9 4843   2.167   5.985   4.200  0.4015  0.6131  0.6995
   50CHL1    H9 4844   2.238   5.901   4.204 -0.9716 -0.6077  0.2762
   50CHL1   C10 4845   2.178   6.044   4.056 -0.5468 -0.3891 -0.8997
   50CHL1   C19 4846   2.102   6.183   4.052  0.4163 -0.0216  0.1237
   50CHL1  H19A 4847   2.085   6.216   3.948 -1.0506 -1.4129 -0.1255
   50CHL1  H19B 4848   1.997   6.176   4.088  0.8852  0.4456  1.6985
   50CHL1  H19C 4849   2.155   6.261   4.111  0.2870  1.1284 -1.2367
   50CHL1    C1 4850   2.324   6.075   4.033 -0.2870  1.2206 -0.6220
   50CHL1   H1A 4851   2.361   6.153   4.103  1.7624  0.0461 -0.3290
   50CHL1   H1B 4852   2.386   5.984   4.052  1.2390  1.9714 -1.8228
   50CHL1    C2 4853   2.351   6.110   3.891 -0.1357 -0.0336  0.1589
   50CHL1   H2A 4854   2.460   6.131   3.884 -0.4866  1.9585  0.1221
   50CHL1   H2B 4855   2.305   6.207   3.863  1.8641  0.5782 -1.3308
   50CHL1   C20 4856   2.009   5.913   4.741  0.1418 -0.9656  0.9061
   50CHL1   H20 4857   1.921   5.981   4.732 -0.1471 -1.5861 -1.6862
   50CHL1   C21 4858   2.141   5.991   4.781 -0.0928 -0.1354  0.2333
   50CHL1  H21A 4859   2.151   6.087   4.725  2.3346  0.3095  1.3069
   50CHL1  H21B 4860   2.226   5.920   4.772  0.2628  0.4599 -1.5134
   50CHL1  H21C 4861   2.142   6.018   4.889  1.4011  0.4048  0.1056
   50CHL1   C22 4862   1.969   5.801   4.846  0.0065  0.3757  0.7867
   50CHL1  H22A 4863   1.914   5.712   4.809 -0.5863  0.6567  0.9832
   50CHL1  H22B 4864   2.073   5.771   4.869  0.8792  0.9231 -2.0597
   50CHL1   C23 4865   1.898   5.865   4.967  0.2572  0.3934 -0.2068
   50CHL1  H23A 4866   1.948   5.960   4.994 -0.0995 -0.0974  2.4001
   50CHL1  H23B 4867   1.791   5.886   4.945  0.4003  0.9036 -0.4274
   50CHL1   C24 4868   1.914   5.768   5.083 -0.0020 -0.8037  0.4607
   50CHL1  H24A 4869   1.879   5.669   5.047  1.0707 -1.1778  0.4089
   50CHL1  H24B 4870   2.020   5.760   5.114  0.5398 -1.5855 -1.4387
   50CHL1   C25 4871   1.839   5.804   5.217  0.1609  0.2483  0.0368
   50CHL1   H25 4872   1.742   5.848   5.185  0.9155  0.5579 -1.9958
   50CHL1   C26 4873   1.810   5.677   5.286  0.1976 -0.4219 -0.7127
   50CHL1  H26A 4874   1.759   5.693   5.384 -0.9471  2.5922 -1.6870
   50CHL1  H26B 4875   1.736   5.617   5.229  0.4522 -1.5231  0.0860
   50CHL1  H26C 4876   1.906   5.621   5.294 -0.6024 -1.6527  0.7989
   50CHL1   C27 4877   1.893   5.905   5.317  0.0929 -0.3390  0.2545
   50CHL1  H27A 4878   1.899   6.004   5.266  2.5665 -1.7712 -2.5875
   50CHL1  H27B 4879   1.830   5.898   5.408  1.9295 -1.3435  1.5292
   50CHL1  H27C 4880   1.991   5.872   5.359 -0.1038 -1.0850  0.1304
   51CHL1    C3 4881   2.767   3.376   3.621 -0.9173 -0.6627  0.1179
   51CHL1    H3 4882   2.661   3.408   3.628 -1.1746 -1.4774  0.0185
   51CHL1    O3 4883   2.807   3.382   3.483 -0.3771  0.1701  0.2160
   51CHL1   H3' 4884   2.902   3.372   3.490 -0.5477 -1.6206  0.3047
   51CHL1    C4 4885   2.860   3.473   3.706  0.0213  0.2168 -0.1849
   51CHL1   H4A 4886   2.964   3.452   3.673  1.0789  3.2864  0.8124
   51CHL1   H4B 4887   2.839   3.575   3.668  1.0703  0.5337  0.0290
   51CHL1    C5 4888   2.861   3.463   3.854  0.3311 -0.7595 -0.2180
   51CHL1    C6 4889   2.851   3.569   3.940 -0.3513  0.2194  0.0559
   51CHL1    H6 4890   2.830   3.670   3.903 -0.5919  0.9269  2.0513
   51CHL1    C7 4891   2.845   3.566   4.091 -0.4768  0.1770  0.1277
   51CHL1   H7A 4892   2.916   3.637   4.137 -0.3120  0.4814 -0.5805
   51CHL1   H7B 4893   2.743   3.596   4.125  0.2075  1.7672  0.8357
   51CHL1    C8 4894   2.885   3.428   4.145 -0.1765  0.8668  1.0594
   51CHL1    H8 4895   2.995   3.432   4.130 -0.5542  3.2860 -2.1042
   51CHL1   C14 4896   2.859   3.413   4.298 -0.0138 -0.2361 -0.3039
   51CHL1   H14 4897   2.749   3.403   4.316 -0.2572  0.1242 -1.4669
   51CHL1   C15 4898   2.905   3.536   4.377  0.2178  0.2470 -0.4043
   51CHL1  H15A 4899   2.998   3.585   4.342  1.9407 -0.9210  2.1979
   51CHL1  H15B 4900   2.822   3.610   4.373 -1.7113 -1.8132 -3.8848
   51CHL1   C16 4901   2.906   3.484   4.524  0.1488  0.2805  0.2757
   51CHL1  H16A 4902   3.014   3.499   4.547  1.3485 -1.4093 -3.5542
   51CHL1  H16B 4903   2.846   3.541   4.598  2.4249  1.3194  1.4470
   51CHL1   C17 4904   2.878   3.331   4.517  0.0357 -1.4781 -0.2985
   51CHL1   H17 4905   2.767   3.320   4.519 -0.1206 -0.0962 -0.4392
   51CHL1   C13 4906   2.911   3.280   4.367 -0.1796 -0.4981  0.5673
   51CHL1   C18 4907   3.064   3.274   4.362 -0.3591  0.8051 -0.3738
   51CHL1  H18A 4908   3.125   3.362   4.391  0.9311  0.0798 -0.8310
   51CHL1  H18B 4909   3.109   3.188   4.417 -1.6676  0.6172  0.4481
   51CHL1  H18C 4910   3.091   3.250   4.257 -0.1643 -0.1453 -0.1150
   51CHL1   C12 4911   2.832   3.168   4.296  0.0491 -0.7662 -0.2903
   51CHL1  H12A 4912   2.853   3.070   4.344 -1.3628 -0.6382  0.6768
   51CHL1  H12B 4913   2.723   3.188   4.309 -0.0960 -1.2549 -0.7154
   51CHL1   C11 4914   2.853   3.174   4.139 -0.0418  0.1927 -0.8933
   51CHL1  H11A 4915   2.959   3.144   4.133 -0.0209 -0.0260  0.2392
   51CHL1  H11B 4916   2.790   3.090   4.104 -1.0072  0.9371 -1.0057
   51CHL1    C9 4917   2.822   3.313   4.068 -0.6255  0.0366 -0.3729
   51CHL1    H9 4918   2.712   3.330   4.064 -0.9136 -1.8033 -1.9287
   51CHL1   C10 4919   2.861   3.323   3.916 -0.3081  0.7385 -0.1937
   51CHL1   C19 4920   3.009   3.272   3.906  0.3507 -0.2344 -0.6532
   51CHL1  H19A 4921   3.081   3.327   3.970 -2.2970  1.8069  0.7786
   51CHL1  H19B 4922   3.013   3.162   3.922 -0.1825 -0.1054  0.5138
   51CHL1  H19C 4923   3.049   3.272   3.803  0.1281 -0.6559 -0.7403
   51CHL1    C1 4924   2.758   3.237   3.828  0.3747 -0.0061 -0.0521
   51CHL1   H1A 4925   2.765   3.133   3.865 -1.5087 -0.0055  0.4127
   51CHL1   H1B 4926   2.655   3.279   3.829  0.0441 -0.7356 -1.5223
   51CHL1    C2 4927   2.788   3.237   3.674 -0.0915  0.0654 -0.3090
   51CHL1   H2A 4928   2.739   3.150   3.625  0.7844 -1.3278  1.1927
   51CHL1   H2B 4929   2.896   3.212   3.671 -0.3213 -0.9935 -0.1689
   51CHL1   C20 4930   2.940   3.243   4.635  0.4103 -0.2476 -0.1462
   51CHL1   H20 4931   3.041   3.214   4.597  1.4545  0.8653  1.6424
   51CHL1   C21 4932   2.843   3.122   4.655 -0.9519 -0.2956  0.3002
   51CHL1  H21A 4933   2.842   3.053   4.567 -2.2830 -0.6423  0.5686
   51CHL1  H21B 4934   2.747   3.162   4.693 -2.5261 -0.4835 -3.1542
   51CHL1  H21C 4935   2.895   3.051   4.724 -0.9566  0.2355  0.8566
   51CHL1   C22 4936   2.961   3.330   4.767  0.2673 -0.2918  0.6698
   51CHL1  H22A 4937   3.044   3.402   4.754  0.1785 -0.2453  0.3339
   51CHL1  H22B 4938   2.878   3.396   4.801  1.4530  0.5733  1.9869
   51CHL1   C23 4939   2.988   3.240   4.896  0.0813 -0.1994  0.5395
   51CHL1  H23A 4940   2.894   3.181   4.905 -0.5472  0.3535 -1.6751
   51CHL1  H23B 4941   3.072   3.170   4.880 -0.0616 -0.2124 -0.1651
   51CHL1   C24 4942   3.032   3.322   5.025  0.5864 -0.2429  0.3216
   51CHL1  H24A 4943   3.128   3.373   5.005  0.9337 -1.3981 -1.1693
   51CHL1  H24B 4944   2.956   3.394   5.061  1.2885  0.4506  0.4276
   51CHL1   C25 4945   3.055   3.234   5.152 -0.4287 -0.3098  0.0715
   51CHL1   H25 4946   3.057   3.300   5.241  1.1525 -0.6839  0.3432
   51CHL1   C26 4947   2.935   3.142   5.179 -0.0074 -0.5946 -0.0927
   51CHL1  H26A 4948   2.842   3.200   5.160  0.3148 -0.6453 -1.9867
   51CHL1  H26B 4949   2.935   3.048   5.119  0.9598 -0.7505  0.1456
   51CHL1  H26C 4950   2.938   3.118   5.287 -1.4180  0.8877  0.3206
   51CHL1   C27 4951   3.185   3.163   5.145 -0.1431  0.4113 -0.1278
   51CHL1  H27A 4952   3.217   3.128   5.044 -1.3785  1.2351 -0.8471
   51CHL1  H27B 4953   3.263   3.228   5.189  1.4989 -0.1298 -2.0798
   51CHL1  H27C 4954   3.181   3.073   5.209  1.8422  2.1984  2.7625
   52CHL1    C3 4955   4.072   2.598   4.065 -0.2630  0.0351  0.2705
   52CHL1    H3 4956   3.998   2.674   4.096 -1.3793 -1.2482  0.8853
   52CHL1    O3 4957   4.116   2.617   3.929  0.0380 -0.4043  0.4687
   52CHL1   H3' 4958   4.189   2.555   3.925  0.2568 -0.2437  1.6099
   52CHL1    C4 4959   4.198   2.606   4.150 -0.5507  0.8131 -0.3074
   52CHL1   H4A 4960   4.259   2.523   4.109 -0.0761  0.5278  0.9285
   52CHL1   H4B 4961   4.243   2.705   4.129 -2.0042  1.8589  1.2100
   52CHL1    C5 4962   4.165   2.576   4.301  0.2378  0.6994  0.4141
   52CHL1    C6 4963   4.195   2.658   4.398  0.9158 -0.3117  0.0931
   52CHL1    H6 4964   4.241   2.757   4.387 -0.7209  0.6337  1.2874
   52CHL1    C7 4965   4.158   2.628   4.540  0.0193 -0.5227 -0.2877
   52CHL1   H7A 4966   4.244   2.652   4.607 -0.4340 -2.0362  0.8694
   52CHL1   H7B 4967   4.078   2.693   4.580  0.2218 -0.4897  0.0645
   52CHL1    C8 4968   4.138   2.482   4.571 -0.4955  0.4357  0.1927
   52CHL1    H8 4969   4.235   2.428   4.558  0.4898  2.2228 -0.1763
   52CHL1   C14 4970   4.070   2.461   4.705  0.0131  0.0756  0.0806
   52CHL1   H14 4971   3.965   2.499   4.703  0.2136  0.6004 -0.5784
   52CHL1   C15 4972   4.139   2.530   4.829 -0.0474  0.2733 -0.7996
   52CHL1  H15A 4973   4.249   2.513   4.828  0.1466  1.2826  0.6672
   52CHL1  H15B 4974   4.117   2.638   4.837  1.0010  0.5070 -0.9583
   52CHL1   C16 4975   4.073   2.458   4.947  0.0445  0.1991 -0.4401
   52CHL1  H16A 4976   4.141   2.445   5.034 -1.0917  0.2993  0.4970
   52CHL1  H16B 4977   3.986   2.520   4.977  1.1647  2.0058 -0.7777
   52CHL1   C17 4978   4.015   2.325   4.893 -0.3604  0.5035  0.3580
   52CHL1   H17 4979   3.907   2.346   4.880 -0.7509 -0.8137  1.3482
   52CHL1   C13 4980   4.056   2.318   4.746 -0.5901  0.1094  0.4013
   52CHL1   C18 4981   4.192   2.246   4.745  0.1148  0.9147 -0.1150
   52CHL1  H18A 4982   4.188   2.144   4.790  0.3123  0.6177 -0.7493
   52CHL1  H18B 4983   4.229   2.236   4.640 -1.0684  1.8052 -0.6320
   52CHL1  H18C 4984   4.274   2.302   4.795 -0.8282  1.2221  1.1377
   52CHL1   C12 4985   3.960   2.241   4.650  0.0932 -0.4782 -0.1495
   52CHL1  H12A 4986   3.985   2.133   4.660  0.4340 -0.3452  0.5081
   52CHL1  H12B 4987   3.853   2.261   4.670  0.3432  2.2659 -1.2595
   52CHL1   C11 4988   4.003   2.266   4.503 -0.4456 -0.0967 -0.0127
   52CHL1  H11A 4989   4.092   2.200   4.490 -1.1759 -1.2312  0.6148
   52CHL1  H11B 4990   3.923   2.221   4.441 -0.4874  0.7189 -0.5802
   52CHL1    C9 4991   4.042   2.417   4.470 -0.6483 -0.5283  0.0809
   52CHL1    H9 4992   3.941   2.462   4.476 -0.1008  0.7863 -0.1148
   52CHL1   C10 4993   4.092   2.437   4.322 -0.7992 -1.3272  1.0554
   52CHL1   C19 4994   4.193   2.328   4.277  0.2963 -0.2854 -0.3811
   52CHL1  H19A 4995   4.232   2.334   4.173  0.8368  1.7080 -0.1030
   52CHL1  H19B 4996   4.274   2.334   4.352  0.6653  0.3418 -0.8237
   52CHL1  H19C 4997   4.140   2.231   4.290  0.7127 -0.2498  2.1803
   52CHL1    C1 4998   3.971   2.432   4.231  0.1011 -0.2395  0.8538
   52CHL1   H1A 4999   3.944   2.325   4.216  0.6054 -0.2519  0.0027
   52CHL1   H1B 5000   3.878   2.482   4.267 -1.1066 -1.6104 -0.2806
   52CHL1    C2 5001   3.998   2.469   4.081  0.5054 -0.0423  0.0846
   52CHL1   H2A 5002   3.903   2.464   4.024 -1.0931 -1.7993  2.7096
   52CHL1   H2B 5003   4.070   2.390   4.050 -0.1468 -1.0183  1.0032
   52CHL1   C20 5004   4.011   2.206   4.991  0.0994  0.4920  1.1099
   52CHL1   H20 5005   4.118   2.179   5.004  0.3028  0.7246 -0.0133
   52CHL1   C21 5006   3.935   2.084   4.930 -0.3902 -0.9940 -0.1398
   52CHL1  H21A 5007   3.932   1.996   4.999  0.6954 -0.4847  0.5902
   52CHL1  H21B 5008   3.976   2.048   4.834  0.2437  1.5547 -0.9106
   52CHL1  H21C 5009   3.831   2.120   4.914  0.6853  2.0126 -1.1525
   52CHL1   C22 5010   3.963   2.233   5.132 -0.3859  1.3346  0.0926
   52CHL1  H22A 5011   3.969   2.137   5.188 -1.3778  1.2126  0.0197
   52CHL1  H22B 5012   4.023   2.314   5.178  1.3620  0.3898 -0.4289
   52CHL1   C23 5013   3.826   2.286   5.155 -0.2967 -0.1523  0.4435
   52CHL1  H23A 5014   3.804   2.371   5.088  0.2989  0.3421  0.8623
   52CHL1  H23B 5015   3.754   2.204   5.132  1.0457 -1.8048  1.8120
   52CHL1   C24 5016   3.808   2.332   5.298  0.3880  0.4986 -0.6626
   52CHL1  H24A 5017   3.810   2.245   5.367  0.2768  3.3940  3.2903
   52CHL1  H24B 5018   3.904   2.374   5.333  0.7460  0.1056 -1.1535
   52CHL1   C25 5019   3.680   2.411   5.323  0.2816  0.3751 -0.2453
   52CHL1   H25 5020   3.677   2.494   5.249 -1.5671  0.1393 -0.4719
   52CHL1   C26 5021   3.552   2.330   5.332 -0.6946 -0.7861 -0.2466
   52CHL1  H26A 5022   3.555   2.267   5.424  1.2990 -0.7100 -0.2157
   52CHL1  H26B 5023   3.458   2.389   5.324  0.7724  1.6141 -0.6886
   52CHL1  H26C 5024   3.540   2.261   5.247  0.1362  0.1863 -1.1821
   52CHL1   C27 5025   3.712   2.488   5.447 -1.0718 -0.3864 -0.3491
   52CHL1  H27A 5026   3.804   2.549   5.437  0.0871 -1.3221  3.2042
   52CHL1  H27B 5027   3.628   2.556   5.471  0.9608  2.2087 -0.1087
   52CHL1  H27C 5028   3.730   2.419   5.532  0.4937 -0.1583 -0.4614
   53CHL1    C3 5029   2.074   3.831   3.567  0.6068 -0.5550  0.5523
   53CHL1    H3 5030   2.170   3.780   3.589  0.7356 -0.9275 -0.8252
   53CHL1    O3 5031   2.065   3.867   3.431  0.2438 -0.2202 -0.2642
   53CHL1   H3' 5032   1.997   3.934   3.426  1.6543  1.3110  0.0471
   53CHL1    C4 5033   1.963   3.729   3.607  0.2016 -0.2402 -0.1780
   53CHL1   H4A 5034   1.864   3.776   3.588 -0.8068 -2.2763 -0.1811
   53CHL1   H4B 5035   1.976   3.635   3.549 -2.4641 -0.5739 -0.3521
   53CHL1    C5 5036   1.987   3.696   3.748 -0.2876 -0.2233  0.1497
   53CHL1    C6 5037   2.015   3.571   3.799  0.3340  0.8289 -0.5991
   53CHL1    H6 5038   2.015   3.478   3.741  0.1051 -1.8515  3.2696
   53CHL1    C7 5039   2.010   3.543   3.950  0.7539 -0.4807 -0.1490
   53CHL1   H7A 5040   1.933   3.464   3.967 -0.5470  0.9343  0.8746
   53CHL1   H7B 5041   2.108   3.511   3.989 -0.0679 -3.8297 -0.5601
   53CHL1    C8 5042   1.965   3.658   4.045  0.5515  0.3895 -0.3511
   53CHL1    H8 5043   1.855   3.664   4.042  0.3913  2.3475  3.5808
   53CHL1   C14 5044   2.020   3.636   4.187  0.1558 -0.1978  0.3047
   53CHL1   H14 5045   2.128   3.656   4.176  0.1903  0.5100  1.7307
   53CHL1   C15 5046   2.011   3.500   4.256  0.3760 -0.1048  0.5571
   53CHL1  H15A 5047   1.920   3.439   4.236  0.2561  0.1980  0.1546
   53CHL1  H15B 5048   2.097   3.440   4.221  1.0538 -0.0495  2.0361
   53CHL1   C16 5049   2.026   3.530   4.409 -0.1726  0.0102  0.0228
   53CHL1  H16A 5050   1.934   3.502   4.465 -0.5290  1.9789  0.5045
   53CHL1  H16B 5051   2.115   3.479   4.451 -1.4040 -1.2835  1.1378
   53CHL1   C17 5052   2.049   3.686   4.424  0.7877 -0.0327 -0.1196
   53CHL1   H17 5053   2.157   3.713   4.419  1.2270 -1.6220  0.3531
   53CHL1   C13 5054   1.977   3.747   4.291 -0.2198  0.1369 -1.1179
   53CHL1   C18 5055   1.821   3.759   4.312  0.3926 -0.0299 -0.2582
   53CHL1  H18A 5056   1.806   3.827   4.399 -0.0322 -0.0463 -0.3166
   53CHL1  H18B 5057   1.772   3.797   4.221  0.7052 -0.5346 -0.6444
   53CHL1  H18C 5058   1.792   3.654   4.334  0.1005  0.4095  1.6802
   53CHL1   C12 5059   2.041   3.870   4.236 -0.7937  0.6562 -0.9097
   53CHL1  H12A 5060   2.028   3.946   4.316 -0.4191  1.6952 -1.8096
   53CHL1  H12B 5061   2.149   3.855   4.219 -1.0978 -0.9756 -1.6233
   53CHL1   C11 5062   1.980   3.910   4.098 -1.0648  0.0784  0.4508
   53CHL1  H11A 5063   1.873   3.934   4.118 -1.0059 -1.1928  2.6503
   53CHL1  H11B 5064   2.038   4.003   4.075 -1.3171  0.2861  0.6416
   53CHL1    C9 5065   2.010   3.797   3.997  0.4913  0.1191 -0.1402
   53CHL1    H9 5066   2.118   3.772   3.986  0.7911 -0.1903  2.7383
   53CHL1   C10 5067   1.969   3.825   3.844  0.3699 -0.3008  0.2035
   53CHL1   C19 5068   1.821   3.874   3.851  0.5466 -0.0020  0.1301
   53CHL1  H19A 5069   1.777   3.872   3.749 -1.7440 -0.6460  1.0797
   53CHL1  H19B 5070   1.756   3.806   3.910  0.9916  0.1927  0.8670
   53CHL1  H19C 5071   1.798   3.977   3.886 -1.5618  0.0002 -1.0926
   53CHL1    C1 5072   2.058   3.940   3.792  0.2178 -0.0952 -0.1965
   53CHL1   H1A 5073   2.021   4.034   3.838  0.3911  0.9295 -2.0344
   53CHL1   H1B 5074   2.164   3.932   3.824  0.6322  0.4425 -1.3710
   53CHL1    C2 5075   2.061   3.959   3.644 -0.7416 -0.0570  0.0058
   53CHL1   H2A 5076   2.134   4.039   3.617  0.9364 -1.7565 -0.7273
   53CHL1   H2B 5077   1.966   4.005   3.611  0.4295  1.2133 -1.7834
   53CHL1   C20 5078   2.005   3.731   4.562 -0.2684 -0.1842  0.5620
   53CHL1   H20 5079   1.896   3.719   4.578 -0.6063  0.1657 -1.2927
   53CHL1   C21 5080   2.031   3.883   4.583 -0.0701 -0.0798 -0.3267
   53CHL1  H21A 5081   1.967   3.952   4.524  0.4177  0.6278 -0.0457
   53CHL1  H21B 5082   2.134   3.911   4.554 -1.5452  2.4033 -3.8413
   53CHL1  H21C 5083   1.992   3.913   4.683 -1.2053  1.5609 -1.2125
   53CHL1   C22 5084   2.091   3.667   4.673  0.2588  0.8870  0.1850
   53CHL1  H22A 5085   2.072   3.724   4.766  3.9003  1.7584  0.5461
   53CHL1  H22B 5086   2.068   3.559   4.676 -2.2083  1.3553 -0.1564
   53CHL1   C23 5087   2.248   3.654   4.652  0.4096 -0.6766  0.2494
   53CHL1  H23A 5088   2.265   3.593   4.561  1.5739 -1.8979  1.2414
   53CHL1  H23B 5089   2.283   3.757   4.628 -2.0462 -0.3386 -2.4375
   53CHL1   C24 5090   2.320   3.581   4.770  0.4106 -0.5929  0.0572
   53CHL1  H24A 5091   2.298   3.650   4.854 -2.8537  0.1624 -1.2370
   53CHL1  H24B 5092   2.272   3.484   4.796  2.7343 -1.3800  1.7004
   53CHL1   C25 5093   2.468   3.576   4.754  0.1357 -0.1362 -1.0093
   53CHL1   H25 5094   2.505   3.677   4.725 -2.3935  1.1025 -0.1561
   53CHL1   C26 5095   2.542   3.546   4.887  0.6061  0.1333 -0.2133
   53CHL1  H26A 5096   2.653   3.554   4.882  0.8271 -1.0634  1.7721
   53CHL1  H26B 5097   2.493   3.600   4.970 -2.8805 -0.4222 -1.7467
   53CHL1  H26C 5098   2.520   3.443   4.920  2.8184 -0.0611  0.8522
   53CHL1   C27 5099   2.504   3.482   4.648  0.9082  0.3824  0.7021
   53CHL1  H27A 5100   2.609   3.454   4.625 -0.2748 -3.2163 -0.9997
   53CHL1  H27B 5101   2.445   3.392   4.674 -0.0268  0.4588 -1.0307
   53CHL1  H27C 5102   2.457   3.523   4.556  1.1458  0.3803  0.5794
   54CHL1    C3 5103   3.014   2.658   3.814  0.1181  0.5268 -0.4303
   54CHL1    H3 5104   3.110   2.709   3.790 -0.1824  1.3989  0.2100
   54CHL1    O3 5105   2.957   2.612   3.691 -0.2842 -0.1161 -0.2611
   54CHL1   H3' 5106   3.015   2.544   3.656 -2.1874 -2.1111  0.2347
   54CHL1    C4 5107   3.043   2.541   3.914 -0.1103  0.8474  0.4164
   54CHL1   H4A 5108   2.962   2.466   3.926  1.7899 -1.0652  2.1887
   54CHL1   H4B 5109   3.123   2.483   3.863 -0.8166  0.1463  0.0969
   54CHL1    C5 5110   3.085   2.576   4.058  0.5036 -0.4635  0.3844
   54CHL1    C6 5111   3.198   2.518   4.109  0.3121  0.4060  0.0326
   54CHL1    H6 5112   3.249   2.437   4.055 -1.1750 -0.5052 -0.0957
   54CHL1    C7 5113   3.253   2.546   4.246 -0.9995  0.2098 -0.0064
   54CHL1   H7A 5114   3.280   2.447   4.289 -1.5504 -1.5795 -3.4665
   54CHL1   H7B 5115   3.346   2.606   4.239 -1.3118  0.8065  0.6656
   54CHL1    C8 5116   3.153   2.614   4.341  0.1485 -0.4563 -0.2119
   54CHL1    H8 5117   3.079   2.542   4.381  0.0543  0.2160  0.8835
   54CHL1   C14 5118   3.230   2.694   4.451 -0.5772  0.7322  0.1525
   54CHL1   H14 5119   3.292   2.766   4.393 -1.4088  0.8252 -0.6461
   54CHL1   C15 5120   3.327   2.606   4.543 -0.0666  0.3183 -0.2184
   54CHL1  H15A 5121   3.268   2.514   4.562  0.4239  0.0248 -0.0913
   54CHL1  H15B 5122   3.416   2.583   4.480 -0.0532 -1.7174  0.4782
   54CHL1   C16 5123   3.349   2.695   4.666 -0.1768 -0.2766 -0.0407
   54CHL1  H16A 5124   3.315   2.637   4.755  0.9556  1.5089  1.6445
   54CHL1  H16B 5125   3.455   2.728   4.670 -0.4691  0.8762 -1.1771
   54CHL1   C17 5126   3.250   2.820   4.641 -0.0058  1.2828  0.6351
   54CHL1   H17 5127   3.305   2.898   4.584  1.4898 -0.6277 -0.6650
   54CHL1   C13 5128   3.146   2.766   4.545 -0.0072 -0.2218  0.1814
   54CHL1   C18 5129   3.054   2.667   4.622  0.3127  0.6155  0.0195
   54CHL1  H18A 5130   2.990   2.734   4.684  2.4860  3.5992 -0.7469
   54CHL1  H18B 5131   2.978   2.616   4.558 -0.1674  0.5263  0.6529
   54CHL1  H18C 5132   3.103   2.600   4.695 -3.6209 -1.4278  1.0936
   54CHL1   C12 5133   3.069   2.873   4.462  0.3407  0.1372 -0.4809
   54CHL1  H12A 5134   3.006   2.927   4.537  0.5494 -0.1761 -0.0754
   54CHL1  H12B 5135   3.147   2.941   4.420  0.4402  0.3978  0.1154
   54CHL1   C11 5136   2.987   2.808   4.352 -0.2064 -0.7021  0.3587
   54CHL1  H11A 5137   2.903   2.745   4.389 -0.9214 -2.3033 -3.4523
   54CHL1  H11B 5138   2.937   2.891   4.298 -0.2674 -1.5712 -0.9555
   54CHL1    C9 5139   3.077   2.726   4.257 -0.0430 -0.4138 -0.4062
   54CHL1    H9 5140   3.157   2.799   4.230 -0.1747 -0.2690 -0.4010
   54CHL1   C10 5141   3.003   2.683   4.127 -0.0953  0.8665 -0.5897
   54CHL1   C19 5142   2.875   2.607   4.159  0.9604 -0.5014  0.9312
   54CHL1  H19A 5143   2.818   2.559   4.076 -2.2422  0.8742  2.1445
   54CHL1  H19B 5144   2.879   2.523   4.232 -0.8362 -1.3598  0.1051
   54CHL1  H19C 5145   2.789   2.670   4.192  0.1463  0.1533 -2.1367
   54CHL1    C1 5146   2.976   2.795   4.025  0.3110  0.0737 -0.7407
   54CHL1   H1A 5147   2.904   2.868   4.068 -0.0882  0.1655 -1.5388
   54CHL1   H1B 5148   3.064   2.860   4.006  0.8473 -0.3162  0.3220
   54CHL1    C2 5149   2.923   2.751   3.885  0.2247  0.4109 -0.0789
   54CHL1   H2A 5150   2.914   2.847   3.828  0.0616  0.7626  0.5257
   54CHL1   H2B 5151   2.821   2.708   3.899  0.7806 -1.4444 -1.3599
   54CHL1   C20 5152   3.212   2.890   4.769  0.2282  0.7873 -0.2210
   54CHL1   H20 5153   3.119   2.950   4.757 -0.6797 -0.3604  0.8921
   54CHL1   C21 5154   3.327   2.991   4.794  0.5218  0.2240 -0.2449
   54CHL1  H21A 5155   3.313   3.028   4.898 -0.3020  0.8165 -0.5555
   54CHL1  H21B 5156   3.320   3.059   4.706  1.3084 -0.8922 -1.1951
   54CHL1  H21C 5157   3.427   2.943   4.789  0.6847  0.6865 -2.2843
   54CHL1   C22 5158   3.203   2.797   4.889  0.9543 -0.7116 -0.7448
   54CHL1  H22A 5159   3.153   2.701   4.863  0.1381 -0.4186 -0.2730
   54CHL1  H22B 5160   3.308   2.768   4.910  1.1054 -0.0326 -0.5555
   54CHL1   C23 5161   3.147   2.858   5.016  0.5949  0.2551 -0.3881
   54CHL1  H23A 5162   3.234   2.908   5.063  0.8591 -1.5060  1.0807
   54CHL1  H23B 5163   3.066   2.924   4.978 -0.9727 -0.5483  1.3620
   54CHL1   C24 5164   3.076   2.760   5.109 -0.0622 -0.2862 -0.3673
   54CHL1  H24A 5165   3.037   2.818   5.196 -0.6667  1.7472 -1.9087
   54CHL1  H24B 5166   2.983   2.722   5.062  0.7695 -0.4838 -1.9381
   54CHL1   C25 5167   3.160   2.645   5.157  0.7261 -0.6169 -0.5136
   54CHL1   H25 5168   3.204   2.593   5.069  0.5877 -2.4346  0.4571
   54CHL1   C26 5169   3.275   2.694   5.261  0.1851  0.6664 -0.1323
   54CHL1  H26A 5170   3.324   2.607   5.310 -0.2722 -0.0946 -1.0159
   54CHL1  H26B 5171   3.348   2.762   5.212 -0.2732  1.3370  0.1021
   54CHL1  H26C 5172   3.239   2.764   5.340  1.2733  1.6011 -0.4353
   54CHL1   C27 5173   3.067   2.553   5.243 -0.1876  0.0273 -0.0559
   54CHL1  H27A 5174   3.022   2.603   5.332  0.1992 -3.2760  2.1545
   54CHL1  H27B 5175   2.989   2.517   5.173 -0.5228  1.2729 -0.3504
   54CHL1  H27C 5176   3.137   2.475   5.279  0.5663  0.3616 -0.7606
   55CHL1    C3 5177   6.872   0.127   3.981  0.1773 -0.3480 -0.4499
   55CHL1    H3 5178   6.955   0.201   3.971  1.3460 -1.0655  2.7317
   55CHL1    O3 5179   6.795   0.116   3.865 -0.4292 -0.3744 -0.4659
   55CHL1   H3' 5180   6.820   0.037   3.818  0.6525 -0.1810 -0.2474
   55CHL1    C4 5181   6.940  -0.011   4.009 -0.0735 -0.1893  0.4749
   55CHL1   H4A 5182   6.853  -0.079   4.002 -0.6894  0.6749 -0.5870
   55CHL1   H4B 5183   7.016  -0.043   3.935  0.1425 -1.6457  1.2847
   55CHL1    C5 5184   7.006  -0.028   4.149 -0.4759  1.2541  0.6320
   55CHL1    C6 5185   7.137  -0.054   4.171  0.5919  0.3640  0.6035
   55CHL1    H6 5186   7.194  -0.083   4.082  1.0938  1.3235  0.6000
   55CHL1    C7 5187   7.205  -0.049   4.303  0.5520  0.0678 -0.1968
   55CHL1   H7A 5188   7.278  -0.132   4.309  1.2258  0.4856 -2.0228
   55CHL1   H7B 5189   7.269   0.041   4.309 -0.1628  0.5051  2.6183
   55CHL1    C8 5190   7.108  -0.057   4.421 -0.2658 -0.0781 -0.5625
   55CHL1    H8 5191   7.066  -0.158   4.437  0.6588 -0.5379 -0.9589
   55CHL1   C14 5192   7.177  -0.016   4.551 -0.2790  0.5530  0.0846
   55CHL1   H14 5193   7.213   0.086   4.524  0.7869  0.6474  1.7564
   55CHL1   C15 5194   7.303  -0.086   4.591  1.0020  0.6256  0.0787
   55CHL1  H15A 5195   7.303  -0.193   4.561  1.0676  0.9721 -1.2065
   55CHL1  H15B 5196   7.394  -0.056   4.535  1.0275 -1.8027 -1.3340
   55CHL1   C16 5197   7.309  -0.060   4.740 -0.3743 -0.4170 -0.0643
   55CHL1  H16A 5198   7.310  -0.154   4.800 -0.8212  0.2877  1.0896
   55CHL1  H16B 5199   7.397  -0.002   4.776  0.7587 -2.3607  0.4856
   55CHL1   C17 5200   7.188   0.020   4.790  0.1121 -0.1373 -0.6601
   55CHL1   H17 5201   7.221   0.125   4.773  2.8705 -1.0195 -1.2495
   55CHL1   C13 5202   7.085  -0.004   4.670  0.5596  0.2652 -0.4955
   55CHL1   C18 5203   7.022  -0.139   4.705  0.1032 -0.0501 -0.0724
   55CHL1  H18A 5204   6.965  -0.146   4.800 -0.8515  0.7232 -0.5664
   55CHL1  H18B 5205   6.956  -0.179   4.625 -0.7519 -2.3259  1.6599
   55CHL1  H18C 5206   7.096  -0.222   4.708  1.0650  0.8098  1.2230
   55CHL1   C12 5207   6.977   0.096   4.647  0.3712  0.1225  0.4370
   55CHL1  H12A 5208   6.898   0.107   4.724 -1.7661  0.2801 -1.6461
   55CHL1  H12B 5209   7.016   0.200   4.644 -0.0052  0.2537 -0.0039
   55CHL1   C11 5210   6.900   0.069   4.517  0.6900 -0.0643 -0.1676
   55CHL1  H11A 5211   6.831  -0.017   4.531 -2.5061  1.9159 -2.2614
   55CHL1  H11B 5212   6.844   0.161   4.488  2.0789  0.6129 -0.8034
   55CHL1    C9 5213   6.991   0.036   4.395 -0.0058 -0.1597  0.2437
   55CHL1    H9 5214   7.052   0.127   4.374  1.3382 -0.8228  1.0964
   55CHL1   C10 5215   6.908   0.015   4.263 -0.0657 -0.2240 -0.0611
   55CHL1   C19 5216   6.788  -0.086   4.276  0.2097  0.3526 -0.0950
   55CHL1  H19A 5217   6.819  -0.188   4.306 -0.7180  0.0819 -0.0258
   55CHL1  H19B 5218   6.723  -0.044   4.356  0.6849 -1.2975  1.2238
   55CHL1  H19C 5219   6.715  -0.087   4.192 -0.6971  0.3289  0.6810
   55CHL1    C1 5220   6.852   0.155   4.224  0.6258 -0.1079 -0.6608
   55CHL1   H1A 5221   6.774   0.181   4.298  0.1459 -0.2926 -1.0938
   55CHL1   H1B 5222   6.922   0.240   4.235 -1.1306  1.6070 -2.1053
   55CHL1    C2 5223   6.775   0.169   4.093 -0.0425  0.3626  0.2785
   55CHL1   H2A 5224   6.747   0.275   4.076 -2.3543 -0.5775 -2.6338
   55CHL1   H2B 5225   6.695   0.094   4.075 -1.0113  1.8995 -2.3332
   55CHL1   C20 5226   7.159  -0.016   4.935 -0.3412 -0.1425 -0.7015
   55CHL1   H20 5227   7.120  -0.118   4.955  1.7820 -0.5560  1.8490
   55CHL1   C21 5228   7.052   0.075   4.994 -0.4191  0.4216 -0.1135
   55CHL1  H21A 5229   6.960   0.088   4.933 -1.9409 -1.9361  1.5020
   55CHL1  H21B 5230   7.109   0.168   5.015  2.4080 -1.1166 -0.4768
   55CHL1  H21C 5231   7.023   0.027   5.090 -0.1555  0.1956 -0.1466
   55CHL1   C22 5232   7.284  -0.011   5.023 -0.6301  0.1274 -0.2161
   55CHL1  H22A 5233   7.376  -0.053   4.978 -0.6152  0.0611 -0.1225
   55CHL1  H22B 5234   7.316   0.094   5.041 -0.6919 -0.0379  0.9067
   55CHL1   C23 5235   7.265  -0.083   5.158  0.8216  0.4673 -0.4269
   55CHL1  H23A 5236   7.202  -0.018   5.222 -1.9001 -0.7774 -1.6855
   55CHL1  H23B 5237   7.214  -0.181   5.145  0.9490 -0.0020  2.1453
   55CHL1   C24 5238   7.394  -0.115   5.236 -0.3079 -0.5738 -0.6702
   55CHL1  H24A 5239   7.366  -0.165   5.331 -1.5778  1.5439  0.1478
   55CHL1  H24B 5240   7.455  -0.188   5.179  0.2519 -0.6506  0.0249
   55CHL1   C25 5241   7.473   0.011   5.279  0.5030 -0.4876  0.3264
   55CHL1   H25 5242   7.490   0.082   5.195 -1.5092  0.1589  0.4053
   55CHL1   C26 5243   7.416   0.089   5.399 -1.0764 -0.2836  0.4018
   55CHL1  H26A 5244   7.496   0.159   5.431 -0.2105 -0.7591 -0.6759
   55CHL1  H26B 5245   7.333   0.154   5.363  0.7584  2.6800  1.2083
   55CHL1  H26C 5246   7.386   0.034   5.491  1.5900  0.0990  1.5874
   55CHL1   C27 5247   7.615  -0.017   5.320  0.3893  0.4204  0.0291
   55CHL1  H27A 5248   7.684   0.068   5.296  2.3031 -1.3200 -0.9445
   55CHL1  H27B 5249   7.631  -0.053   5.424  0.7856 -0.0933 -0.2099
   55CHL1  H27C 5250   7.648  -0.096   5.250 -0.5326  0.1646 -0.1246
   56CHL1    C3 5251   6.925   5.659   4.091  0.7491  1.2651 -0.0459
   56CHL1    H3 5252   6.837   5.726   4.083 -1.0166 -0.9310 -0.0919
   56CHL1    O3 5253   6.947   5.591   3.966  0.9482 -0.1945 -0.0580
   56CHL1   H3' 5254   6.925   5.661   3.904 -3.2860  0.2466  1.6438
   56CHL1    C4 5255   7.048   5.749   4.128 -0.1438 -0.7188  0.3906
   56CHL1   H4A 5256   7.138   5.688   4.105 -0.0973 -1.1522  1.6570
   56CHL1   H4B 5257   7.048   5.823   4.045 -1.1744  0.5901  1.5186
   56CHL1    C5 5258   7.041   5.806   4.271 -0.2778  0.1251  0.0802
   56CHL1    C6 5259   7.062   5.935   4.296  0.1716 -0.0315  0.0029
   56CHL1    H6 5260   7.078   6.003   4.211 -4.8105  1.3140 -0.1574
   56CHL1    C7 5261   7.062   6.000   4.431 -0.6946  0.0430 -0.2486
   56CHL1   H7A 5262   7.132   6.086   4.431 -0.8680  0.1888  0.7370
   56CHL1   H7B 5263   6.963   6.045   4.452  0.5758  3.2241 -0.5827
   56CHL1    C8 5264   7.077   5.889   4.538 -0.3507 -0.2841  0.3400
   56CHL1    H8 5265   7.177   5.843   4.545 -0.7612 -1.3872 -0.6204
   56CHL1   C14 5266   7.048   5.951   4.675  0.8781  0.4119  0.5778
   56CHL1   H14 5267   6.940   5.980   4.676  1.1352  1.4498  2.9323
   56CHL1   C15 5268   7.121   6.079   4.712  0.0293 -0.2873  1.1803
   56CHL1  H15A 5269   7.224   6.078   4.672  0.0608 -1.3938  1.2614
   56CHL1  H15B 5270   7.064   6.167   4.673 -0.9920 -1.7917 -0.9247
   56CHL1   C16 5271   7.122   6.101   4.861  0.5312 -0.2176  0.2845
   56CHL1  H16A 5272   7.231   6.110   4.886  0.4248 -0.0316  0.6977
   56CHL1  H16B 5273   7.067   6.191   4.897  0.3684  1.0292 -2.7974
   56CHL1   C17 5274   7.041   5.966   4.907 -0.5095 -0.6188  0.3003
   56CHL1   H17 5275   6.932   5.987   4.899 -0.4415 -0.8388 -1.7219
   56CHL1   C13 5276   7.069   5.865   4.795 -0.2281  0.8276 -0.1853
   56CHL1   C18 5277   7.216   5.811   4.812  0.4119 -0.6195  0.3614
   56CHL1  H18A 5278   7.290   5.892   4.826 -1.0095  0.9602 -0.8992
   56CHL1  H18B 5279   7.220   5.745   4.901  0.0349  0.1569  0.9577
   56CHL1  H18C 5280   7.246   5.749   4.724 -3.3044 -0.8058 -0.9664
   56CHL1   C12 5281   6.967   5.743   4.777  1.0833  0.4932 -0.3759
   56CHL1  H12A 5282   7.001   5.681   4.863 -2.6288  0.3430  1.1842
   56CHL1  H12B 5283   6.866   5.781   4.804  0.2449 -2.0662  0.3916
   56CHL1   C11 5284   6.991   5.674   4.644  0.0126  0.2646 -0.1893
   56CHL1  H11A 5285   7.095   5.636   4.656  0.5445  2.2223  2.3040
   56CHL1  H11B 5286   6.918   5.592   4.629  0.1765 -0.1481  1.1102
   56CHL1    C9 5287   6.982   5.760   4.519 -0.2147 -1.0710  0.0154
   56CHL1    H9 5288   6.880   5.802   4.522 -0.0528 -0.6992  0.2692
   56CHL1   C10 5289   7.016   5.700   4.382  0.0955  1.1066 -0.5606
   56CHL1   C19 5290   7.149   5.617   4.389 -0.2300  0.0435  1.0307
   56CHL1  H19A 5291   7.190   5.577   4.294 -0.0468  0.8476  0.7612
   56CHL1  H19B 5292   7.233   5.677   4.430  2.2424 -1.0743 -2.0638
   56CHL1  H19C 5293   7.121   5.533   4.456  2.2823 -0.7389  1.2140
   56CHL1    C1 5294   6.905   5.607   4.330  0.4689 -0.5106  0.2923
   56CHL1   H1A 5295   6.903   5.533   4.413  2.3576  0.2166  1.0291
   56CHL1   H1B 5296   6.809   5.663   4.324  0.9818  0.1869 -2.4214
   56CHL1    C2 5297   6.915   5.548   4.192  0.0049 -0.1958  0.2796
   56CHL1   H2A 5298   6.834   5.475   4.172 -2.6912  2.5654  0.3134
   56CHL1   H2B 5299   7.012   5.494   4.193  0.4712  0.4251 -2.9003
   56CHL1   C20 5300   7.072   5.931   5.053  0.9454  0.6517  0.0342
   56CHL1   H20 5301   7.172   5.884   5.065  0.4302 -0.6532 -0.5975
   56CHL1   C21 5302   6.964   5.830   5.101 -0.1234  0.3750 -0.2726
   56CHL1  H21A 5303   6.985   5.799   5.206  2.3180  3.1962  0.1962
   56CHL1  H21B 5304   6.963   5.729   5.054  1.4375 -1.0212  2.4086
   56CHL1  H21C 5305   6.856   5.853   5.091 -0.7781 -2.3839 -0.4173
   56CHL1   C22 5306   7.059   6.058   5.150 -0.3614 -0.1509 -0.0406
   56CHL1  H22A 5307   7.136   6.127   5.109 -0.6831 -0.7914 -1.7934
   56CHL1  H22B 5308   6.960   6.103   5.132 -1.5036 -1.6648  1.9818
   56CHL1   C23 5309   7.076   6.032   5.296 -0.2382  1.3792  0.6019
   56CHL1  H23A 5310   7.059   6.123   5.358  0.0483  2.4471 -0.8501
   56CHL1  H23B 5311   7.010   5.955   5.341 -0.2902 -1.2273 -3.4591
   56CHL1   C24 5312   7.225   5.995   5.334  0.5481 -0.0053  0.2976
   56CHL1  H24A 5313   7.256   5.890   5.314  1.0515 -0.0821  1.4303
   56CHL1  H24B 5314   7.281   6.050   5.255  0.9928 -1.0655 -0.1427
   56CHL1   C25 5315   7.279   6.039   5.478 -0.1697 -0.4063 -0.2656
   56CHL1   H25 5316   7.243   6.142   5.495 -2.1710 -0.9532 -0.8821
   56CHL1   C26 5317   7.236   5.943   5.588  0.2127  0.8300 -0.4593
   56CHL1  H26A 5318   7.266   5.839   5.563 -0.9590  0.1586  0.8594
   56CHL1  H26B 5319   7.282   5.972   5.685  0.9636 -0.6247 -0.3578
   56CHL1  H26C 5320   7.126   5.932   5.598  0.0656 -0.9482 -3.0896
   56CHL1   C27 5321   7.430   6.035   5.476 -0.9463 -0.1492  0.0681
   56CHL1  H27A 5322   7.454   5.933   5.437  1.0015 -0.2611  1.4046
   56CHL1  H27B 5323   7.474   6.108   5.404  0.6572 -0.8004  0.3305
   56CHL1  H27C 5324   7.477   6.058   5.574  0.5103  1.5885 -0.9632
   57CHL1    C3 5325   5.881   5.744   4.167 -0.4232 -0.0510 -0.5653
   57CHL1    H3 5326   5.773   5.768   4.170 -0.7985 -1.5908 -0.8199
   57CHL1    O3 5327   5.908   5.664   4.048  0.2613 -0.1744  0.2111
   57CHL1   H3' 5328   6.003   5.651   4.045  0.1176 -1.2814  0.3123
   57CHL1    C4 5329   5.959   5.882   4.157 -0.0841 -0.4586  0.8060
   57CHL1   H4A 5330   6.068   5.870   4.142  0.1552  1.0546  1.1974
   57CHL1   H4B 5331   5.920   5.924   4.062  0.6010 -4.6198 -1.5363
   57CHL1    C5 5332   5.957   5.965   4.286  0.1950  0.4735  0.9039
   57CHL1    C6 5333   5.919   6.094   4.289  0.9532 -0.5993  1.0460
   57CHL1    H6 5334   5.878   6.150   4.203 -2.3938  0.8059  3.3738
   57CHL1    C7 5335   5.899   6.178   4.417 -0.0611  0.6436  0.1103
   57CHL1   H7A 5336   5.922   6.285   4.395  1.7541  1.0875  3.5486
   57CHL1   H7B 5337   5.792   6.170   4.445  0.6774 -1.5693  2.6482
   57CHL1    C8 5338   5.982   6.125   4.535 -0.1239  0.2429 -0.1730
   57CHL1    H8 5339   6.089   6.135   4.505 -0.2276 -1.0722 -1.0695
   57CHL1   C14 5340   5.952   6.196   4.664 -0.1194  0.2076  0.9538
   57CHL1   H14 5341   5.844   6.182   4.686 -0.1350 -1.6088 -0.0774
   57CHL1   C15 5342   5.973   6.345   4.655  0.7564 -0.5526 -0.8988
   57CHL1  H15A 5343   6.070   6.368   4.606  1.7612  1.5303  1.8394
   57CHL1  H15B 5344   5.888   6.395   4.603 -0.0414  0.1441  0.9824
   57CHL1   C16 5345   5.974   6.387   4.805 -0.4623  0.4229 -0.5825
   57CHL1  H16A 5346   6.056   6.462   4.810 -0.0361 -0.0745  0.0375
   57CHL1  H16B 5347   5.880   6.438   4.834  0.7589  3.1511 -1.1232
   57CHL1   C17 5348   5.982   6.254   4.887 -0.5580 -0.7481 -0.9594
   57CHL1   H17 5349   5.882   6.233   4.931  0.2753 -2.1255  0.4153
   57CHL1   C13 5350   6.017   6.144   4.784  0.4542 -0.3610  0.0122
   57CHL1   C18 5351   6.170   6.137   4.768 -0.5470 -0.1254  0.3749
   57CHL1  H18A 5352   6.192   6.082   4.674 -3.0730 -1.9418  0.7162
   57CHL1  H18B 5353   6.225   6.230   4.742 -0.7749  0.0090  0.3660
   57CHL1  H18C 5354   6.212   6.075   4.850 -0.9215 -1.0292 -0.0958
   57CHL1   C12 5355   5.955   6.006   4.807  0.1110 -0.3003 -0.0483
   57CHL1  H12A 5356   5.994   5.949   4.894 -2.4047 -3.7191 -0.9055
   57CHL1  H12B 5357   5.844   6.009   4.813 -0.1196 -0.0011 -3.0237
   57CHL1   C11 5358   5.993   5.915   4.686 -0.0919  0.0932 -0.9080
   57CHL1  H11A 5359   6.101   5.893   4.700  0.2774  0.7349 -2.5876
   57CHL1  H11B 5360   5.946   5.815   4.691  2.3614 -1.1733 -1.6535
   57CHL1    C9 5361   5.950   5.976   4.550 -0.3352 -0.4301  0.2795
   57CHL1    H9 5362   5.839   5.973   4.560 -0.2485  0.1051  1.4959
   57CHL1   C10 5363   5.986   5.894   4.422  0.0319  0.9710 -0.4172
   57CHL1   C19 5364   6.136   5.865   4.419 -0.9016 -0.0494  0.4605
   57CHL1  H19A 5365   6.168   5.803   4.506  0.1257 -0.7709 -0.3984
   57CHL1  H19B 5366   6.173   5.805   4.333 -1.2753  1.3501 -0.7176
   57CHL1  H19C 5367   6.197   5.958   4.420  0.3329 -0.8380  1.1629
   57CHL1    C1 5368   5.912   5.756   4.427  0.3940  0.1922  0.9660
   57CHL1   H1A 5369   5.946   5.696   4.514 -0.1568  0.2017  1.1902
   57CHL1   H1B 5370   5.803   5.775   4.431  0.3305 -0.2189  1.2296
   57CHL1    C2 5371   5.930   5.669   4.293  0.0225  0.2849 -0.3765
   57CHL1   H2A 5372   5.867   5.579   4.310 -2.0013  1.8396  0.9286
   57CHL1   H2B 5373   6.035   5.633   4.289 -0.5462 -2.2567  3.0802
   57CHL1   C20 5374   6.075   6.273   5.005 -0.2482 -1.0218  0.4089
   57CHL1   H20 5375   6.178   6.304   4.977 -0.3470 -1.3575 -0.3535
   57CHL1   C21 5376   6.090   6.148   5.095 -0.0551  0.7806  0.1171
   57CHL1  H21A 5377   5.993   6.138   5.149 -1.0759  3.2129 -1.1234
   57CHL1  H21B 5378   6.168   6.173   5.170  1.4704  0.1131 -1.1756
   57CHL1  H21C 5379   6.120   6.056   5.040 -0.2136  1.1788 -0.6565
   57CHL1   C22 5380   6.029   6.394   5.097  0.1362  0.1288 -0.0526
   57CHL1  H22A 5381   6.106   6.395   5.177  0.3009  0.0805 -0.2121
   57CHL1  H22B 5382   6.041   6.491   5.043 -0.0279 -0.0701 -0.4470
   57CHL1   C23 5383   5.884   6.381   5.145  0.4535  0.1696  0.3938
   57CHL1  H23A 5384   5.822   6.403   5.056 -0.0905  0.9571  0.9623
   57CHL1  H23B 5385   5.855   6.284   5.192  1.4024  0.8057  2.4285
   57CHL1   C24 5386   5.838   6.482   5.249  0.2906 -0.3614 -0.5926
   57CHL1  H24A 5387   5.898   6.465   5.341 -1.7115  0.2406  0.9060
   57CHL1  H24B 5388   5.882   6.578   5.214  1.5234 -1.6649 -2.8232
   57CHL1   C25 5389   5.692   6.479   5.288  0.3868 -0.0991 -0.7558
   57CHL1   H25 5390   5.665   6.373   5.305  0.8079  0.0300  0.9217
   57CHL1   C26 5391   5.660   6.560   5.419  0.3580 -0.0062  0.5059
   57CHL1  H26A 5392   5.550   6.565   5.430  0.1515  0.4242 -1.4728
   57CHL1  H26B 5393   5.710   6.503   5.501  0.9107  0.1663  0.2940
   57CHL1  H26C 5394   5.694   6.665   5.409 -2.4263  0.7884 -1.8038
   57CHL1   C27 5395   5.602   6.549   5.183 -0.8903 -0.3672 -0.1952
   57CHL1  H27A 5396   5.639   6.653   5.176 -0.5952  0.1794  5.0758
   57CHL1  H27B 5397   5.607   6.492   5.088  0.9765 -0.7936  0.1143
   57CHL1  H27C 5398   5.499   6.546   5.224 -0.6910 -1.9288  0.2586
   58CHL1    C3 5399   0.331   0.461   4.235  0.6099  0.0994  0.0380
   58CHL1    H3 5400   0.438   0.462   4.205  0.5465  1.7933 -0.2331
   58CHL1    O3 5401   0.250   0.442   4.119  0.2030  0.6564  0.3187
   58CHL1   H3' 5402   0.306   0.383   4.068 -0.7920  0.2185 -0.2936
   58CHL1    C4 5403   0.308   0.345   4.324 -0.2294  0.8492 -0.3474
   58CHL1   H4A 5404   0.199   0.334   4.339 -0.3422  0.8289 -1.1233
   58CHL1   H4B 5405   0.338   0.254   4.266  0.8202  1.3126 -0.5485
   58CHL1    C5 5406   0.388   0.353   4.459 -0.1374  0.1070 -0.0806
   58CHL1    C6 5407   0.475   0.254   4.479 -0.0685  0.2719  0.1332
   58CHL1    H6 5408   0.494   0.173   4.407  0.3170  0.2557  0.2528
   58CHL1    C7 5409   0.556   0.251   4.602 -0.0339  0.0015 -0.6297
   58CHL1   H7A 5410   0.574   0.148   4.639  0.7236  1.2661  2.9391
   58CHL1   H7B 5411   0.656   0.293   4.577  0.0268  0.1738 -0.1107
   58CHL1    C8 5412   0.503   0.348   4.717 -0.0179  0.7020  0.8061
   58CHL1    H8 5413   0.422   0.290   4.768 -1.3683  1.5814 -0.2569
   58CHL1   C14 5414   0.617   0.386   4.823 -0.1415  0.0420  0.1818
   58CHL1   H14 5415   0.687   0.456   4.774  0.3904 -0.5695  0.0543
   58CHL1   C15 5416   0.713   0.274   4.874  0.3356 -0.5262  0.0602
   58CHL1  H15A 5417   0.651   0.182   4.881  1.0791 -1.0555 -0.2121
   58CHL1  H15B 5418   0.801   0.243   4.814  0.7441  0.1930  0.2708
   58CHL1   C16 5419   0.764   0.329   5.003 -0.5124  0.4880  0.2436
   58CHL1  H16A 5420   0.759   0.245   5.076  1.8339  0.9418  1.0330
   58CHL1  H16B 5421   0.869   0.366   4.997 -0.2635  0.2023  2.1779
   58CHL1   C17 5422   0.685   0.456   5.043 -0.1723 -0.0676 -0.5001
   58CHL1   H17 5423   0.747   0.544   5.015  1.4625 -1.6333 -2.0593
   58CHL1   C13 5424   0.566   0.458   4.941  0.2989 -0.0632 -0.8440
   58CHL1   C18 5425   0.456   0.373   5.014 -0.3180 -0.6131  0.2781
   58CHL1  H18A 5426   0.377   0.330   4.949  2.1924 -2.8981 -1.4563
   58CHL1  H18B 5427   0.486   0.276   5.057  1.8414 -0.3852 -0.6076
   58CHL1  H18C 5428   0.414   0.426   5.102 -1.0671  1.4195 -1.1965
   58CHL1   C12 5429   0.500   0.594   4.900 -0.9341  0.5590 -0.6122
   58CHL1  H12A 5430   0.459   0.667   4.973 -0.8582  2.0708 -2.0365
   58CHL1  H12B 5431   0.585   0.652   4.859 -0.8891  0.8132 -0.1687
   58CHL1   C11 5432   0.403   0.580   4.779 -0.5106 -0.5854 -0.7825
   58CHL1  H11A 5433   0.306   0.557   4.829 -0.4898  0.3826 -0.2805
   58CHL1  H11B 5434   0.391   0.684   4.741  2.0736  0.5642  1.2439
   58CHL1    C9 5435   0.447   0.484   4.668  0.2590  0.2629  0.3951
   58CHL1    H9 5436   0.541   0.532   4.632  0.7999  0.1878  1.6417
   58CHL1   C10 5437   0.352   0.476   4.543 -0.1093  0.5505 -0.2157
   58CHL1   C19 5438   0.206   0.479   4.587  0.4754 -0.6023 -0.6400
   58CHL1  H19A 5439   0.130   0.459   4.508  0.2380 -1.9734 -0.0971
   58CHL1  H19B 5440   0.177   0.405   4.664  2.6870 -0.4654  0.4205
   58CHL1  H19C 5441   0.191   0.581   4.628  1.7233 -0.9081  0.6351
   58CHL1    C1 5442   0.375   0.595   4.448  0.3655  0.0780  0.1483
   58CHL1   H1A 5443   0.330   0.680   4.503 -0.6816 -0.6094  0.3839
   58CHL1   H1B 5444   0.480   0.630   4.439  0.2002  0.1144 -2.2822
   58CHL1    C2 5445   0.302   0.592   4.313 -0.3675  0.3249 -0.0504
   58CHL1   H2A 5446   0.312   0.685   4.253 -1.8060  1.0019  0.7062
   58CHL1   H2B 5447   0.197   0.591   4.349  0.0249  0.7217  1.1356
   58CHL1   C20 5448   0.668   0.468   5.191 -0.9366 -0.1866 -0.0276
   58CHL1   H20 5449   0.604   0.383   5.223 -2.0370  1.0796  1.2663
   58CHL1   C21 5450   0.602   0.606   5.217  0.6422  0.4032 -0.5153
   58CHL1  H21A 5451   0.510   0.616   5.155  0.7365  0.4586 -0.6470
   58CHL1  H21B 5452   0.670   0.690   5.193  0.2309  1.0436  0.4682
   58CHL1  H21C 5453   0.569   0.609   5.323  1.0735 -0.9511 -0.3317
   58CHL1   C22 5454   0.798   0.451   5.278  0.5647  0.4033  0.1782
   58CHL1  H22A 5455   0.853   0.355   5.264  1.7487  1.0146  0.5243
   58CHL1  H22B 5456   0.865   0.530   5.240 -1.6985  1.9773 -0.7939
   58CHL1   C23 5457   0.766   0.478   5.425  0.3537  0.4717  0.0308
   58CHL1  H23A 5458   0.753   0.586   5.447  0.0962  0.8062 -1.6766
   58CHL1  H23B 5459   0.670   0.427   5.449  1.2606 -1.1879  0.2520
   58CHL1   C24 5460   0.881   0.430   5.521  0.4243 -0.0097  0.3689
   58CHL1  H24A 5461   0.902   0.321   5.518  1.7785  0.2501 -0.1548
   58CHL1  H24B 5462   0.977   0.474   5.486  0.8236 -0.9069  0.3035
   58CHL1   C25 5463   0.851   0.465   5.666  0.6981 -1.0788  0.6995
   58CHL1   H25 5464   0.822   0.571   5.680  3.6831 -0.3027  1.8142
   58CHL1   C26 5465   0.727   0.376   5.716  0.4339  0.4185 -0.0778
   58CHL1  H26A 5466   0.641   0.417   5.659  0.7542 -0.4180 -1.2130
   58CHL1  H26B 5467   0.750   0.272   5.683  3.6955  1.1473 -0.5228
   58CHL1  H26C 5468   0.713   0.383   5.826 -0.1936 -2.5623  0.1215
   58CHL1   C27 5469   0.970   0.437   5.760  0.1206  0.8722  0.9376
   58CHL1  H27A 5470   1.020   0.342   5.733 -0.1050  0.7885  0.8041
   58CHL1  H27B 5471   1.049   0.515   5.755  0.2675  0.6897  0.1221
   58CHL1  H27C 5472   0.938   0.435   5.866 -1.6181 -1.6052  0.4320
   59CHL1    C3 5473   3.752   4.861   4.019  0.0799  0.2067 -0.8140
   59CHL1    H3 5474   3.792   4.765   4.060  1.8987  0.9411 -0.7745
   59CHL1    O3 5475   3.724   4.838   3.879  1.3052 -0.0064 -0.4853
   59CHL1   H3' 5476   3.695   4.926   3.854 -1.8455 -1.3036 -1.9469
   59CHL1    C4 5477   3.624   4.907   4.085 -0.1490 -0.2685  0.1305
   59CHL1   H4A 5478   3.589   5.005   4.046 -2.6625 -0.3790  1.7980
   59CHL1   H4B 5479   3.543   4.833   4.069 -1.1557  0.9761 -0.6655
   59CHL1    C5 5480   3.654   4.924   4.234  0.2018  0.4765  0.0043
   59CHL1    C6 5481   3.591   4.844   4.327  0.0344 -0.3257  0.3738
   59CHL1    H6 5482   3.503   4.783   4.301 -0.5391  0.7618 -0.3122
   59CHL1    C7 5483   3.628   4.843   4.479  0.2581 -0.0555  0.0911
   59CHL1   H7A 5484   3.547   4.857   4.553  2.0111  2.6520  1.6531
   59CHL1   H7B 5485   3.685   4.749   4.500  0.2834  0.1682  1.0564
   59CHL1    C8 5486   3.711   4.967   4.518 -0.1926  0.4463 -0.6514
   59CHL1    H8 5487   3.654   5.057   4.551  1.2248  0.8226  0.9372
   59CHL1   C14 5488   3.782   4.946   4.657  0.6989  1.0332  0.2140
   59CHL1   H14 5489   3.854   4.864   4.635 -0.9039 -0.2327 -0.5614
   59CHL1   C15 5490   3.694   4.905   4.773  0.5597 -0.3504  0.2199
   59CHL1  H15A 5491   3.617   4.984   4.768  3.7879  2.9893 -1.8487
   59CHL1  H15B 5492   3.652   4.802   4.763 -0.1728 -0.3324  2.6341
   59CHL1   C16 5493   3.782   4.926   4.894  0.7868  0.0979  0.2300
   59CHL1  H16A 5494   3.725   4.991   4.964  1.0512 -0.0765  0.6153
   59CHL1  H16B 5495   3.808   4.828   4.941  1.5455  1.1548  2.1411
   59CHL1   C17 5496   3.918   4.989   4.846 -0.3238  0.1375  0.5501
   59CHL1   H17 5497   3.998   4.913   4.832  0.9533  1.3717  0.9111
   59CHL1   C13 5498   3.876   5.054   4.713 -0.5678 -0.5652  0.0180
   59CHL1   C18 5499   3.798   5.185   4.735 -0.4534  0.2344  0.5202
   59CHL1  H18A 5500   3.849   5.270   4.784 -1.9018  0.8360  1.0034
   59CHL1  H18B 5501   3.742   5.220   4.646 -1.0437 -1.4774  0.1683
   59CHL1  H18C 5502   3.712   5.173   4.803 -0.3111  0.8506  0.8118
   59CHL1   C12 5503   3.985   5.074   4.613 -0.1955 -0.8447  0.0452
   59CHL1  H12A 5504   4.050   5.161   4.637 -0.7427 -0.2237 -0.6847
   59CHL1  H12B 5505   4.054   4.987   4.612  0.8377 -0.0530 -1.6770
   59CHL1   C11 5506   3.933   5.097   4.470  0.0661  0.2392  0.2583
   59CHL1  H11A 5507   3.880   5.193   4.481  0.4001  0.6101 -1.1888
   59CHL1  H11B 5508   4.015   5.118   4.398 -0.2310 -2.3085 -0.9616
   59CHL1    C9 5509   3.821   4.993   4.419 -0.1991 -0.5547  0.4854
   59CHL1    H9 5510   3.875   4.896   4.421  0.7892 -0.0133  1.0797
   59CHL1   C10 5511   3.774   5.018   4.275 -0.0677  1.1135 -0.1856
   59CHL1   C19 5512   3.735   5.165   4.262 -0.2824 -0.7573  0.4088
   59CHL1  H19A 5513   3.705   5.201   4.162 -2.5012 -0.5574  1.0938
   59CHL1  H19B 5514   3.650   5.184   4.331 -1.4871 -4.1217  0.0511
   59CHL1  H19C 5515   3.814   5.233   4.300  1.5761 -2.2454 -0.5992
   59CHL1    C1 5516   3.904   4.981   4.183 -0.0922  0.5787 -0.5079
   59CHL1   H1A 5517   3.984   5.058   4.191 -0.9010  1.3188  1.1657
   59CHL1   H1B 5518   3.953   4.888   4.219 -2.7694 -0.7407 -0.0652
   59CHL1    C2 5519   3.864   4.966   4.039  0.4287 -0.8744  0.0026
   59CHL1   H2A 5520   3.955   4.933   3.985  0.2529 -0.6874 -0.4150
   59CHL1   H2B 5521   3.836   5.064   3.993  1.3561  0.6465  2.4966
   59CHL1   C20 5522   3.986   5.076   4.957  0.5322  0.1330 -0.4793
   59CHL1   H20 5523   3.928   5.170   4.966 -1.4165 -1.2029  2.1764
   59CHL1   C21 5524   4.133   5.114   4.918  0.0511 -0.3748 -0.3957
   59CHL1  H21A 5525   4.191   5.020   4.904 -0.2040 -0.4892 -0.7071
   59CHL1  H21B 5526   4.189   5.172   4.994 -1.3740 -0.0909  0.4836
   59CHL1  H21C 5527   4.117   5.175   4.827 -0.1002  0.1058 -0.0478
   59CHL1   C22 5528   3.984   5.005   5.095  0.0844  0.1559 -0.2686
   59CHL1  H22A 5529   3.898   4.938   5.115  1.3802 -1.3407  0.5206
   59CHL1  H22B 5530   4.068   4.932   5.092  1.4002  1.6477 -2.1272
   59CHL1   C23 5531   3.999   5.101   5.220 -0.2436  0.2393 -0.3693
   59CHL1  H23A 5532   4.100   5.146   5.230  0.0227 -0.4953  0.3315
   59CHL1  H23B 5533   3.924   5.182   5.211  1.8516  2.1678 -1.8372
   59CHL1   C24 5534   3.972   5.025   5.347  0.1293 -0.1004 -0.5402
   59CHL1  H24A 5535   3.870   4.980   5.347 -0.2884  0.8175 -0.3823
   59CHL1  H24B 5536   4.051   4.947   5.357  2.4526  1.7633 -2.9489
   59CHL1   C25 5537   3.985   5.118   5.468 -0.1121 -0.0597  0.3192
   59CHL1   H25 5538   3.917   5.200   5.437  0.1451 -0.4547 -1.4040
   59CHL1   C26 5539   3.921   5.059   5.598 -0.2204 -0.4744  0.1320
   59CHL1  H26A 5540   3.814   5.046   5.568 -0.2847 -0.3580  0.3074
   59CHL1  H26B 5541   3.967   4.965   5.635 -1.3520  0.6092  4.9642
   59CHL1  H26C 5542   3.921   5.147   5.665  1.5332  0.7177 -1.3255
   59CHL1   C27 5543   4.132   5.164   5.492  0.1045  0.0390 -0.0184
   59CHL1  H27A 5544   4.172   5.217   5.403  1.0661 -1.1411 -0.3170
   59CHL1  H27B 5545   4.135   5.238   5.575  0.3477  0.9809 -0.8426
   59CHL1  H27C 5546   4.187   5.070   5.516 -3.0322 -1.9812 -0.2545
   60CHL1    C3 5547   4.693   5.192   3.797  0.3470  0.7181 -0.2217
   60CHL1    H3 5548   4.759   5.122   3.852 -0.8791 -0.9793 -0.8059
   60CHL1    O3 5549   4.715   5.173   3.659  0.1434  0.1194  0.3594
   60CHL1   H3' 5550   4.654   5.234   3.615 -1.5468 -1.3273  0.5747
   60CHL1    C4 5551   4.548   5.147   3.824 -0.0413 -0.6447 -0.9888
   60CHL1   H4A 5552   4.485   5.230   3.784  3.2392  2.0934 -0.9290
   60CHL1   H4B 5553   4.525   5.050   3.776 -3.8827 -0.8285  0.8646
   60CHL1    C5 5554   4.526   5.146   3.977 -0.4796 -0.2839 -0.3267
   60CHL1    C6 5555   4.487   5.032   4.033  1.2026 -0.1809 -0.1427
   60CHL1    H6 5556   4.459   4.944   3.974 -1.8857  0.2395  0.5131
   60CHL1    C7 5557   4.454   5.022   4.176 -0.0805  0.2505  0.3775
   60CHL1   H7A 5558   4.353   4.980   4.190  0.6495 -1.5669  0.4613
   60CHL1   H7B 5559   4.515   4.935   4.209  0.3967  0.0805 -0.8754
   60CHL1    C8 5560   4.466   5.156   4.257 -0.4695 -0.0669 -0.0335
   60CHL1    H8 5561   4.368   5.207   4.251 -0.4313 -0.0829 -1.0980
   60CHL1   C14 5562   4.500   5.124   4.399  0.0820 -0.0082  0.1292
   60CHL1   H14 5563   4.597   5.071   4.405  0.4857  0.8269  1.5227
   60CHL1   C15 5564   4.406   5.027   4.465 -0.0362  0.2345  0.4595
   60CHL1  H15A 5565   4.301   5.044   4.432 -0.6448 -2.1825  0.9310
   60CHL1  H15B 5566   4.416   4.922   4.429 -1.7817  0.2188 -0.0673
   60CHL1   C16 5567   4.432   5.047   4.616  0.5561 -0.1093  1.5137
   60CHL1  H16A 5568   4.333   5.058   4.666 -0.2909 -1.6146  0.2864
   60CHL1  H16B 5569   4.480   4.957   4.661  0.1301 -1.6464 -0.9257
   60CHL1   C17 5570   4.536   5.158   4.631 -0.1707 -0.1836 -0.1026
   60CHL1   H17 5571   4.634   5.111   4.608  1.3905  3.1453 -0.8808
   60CHL1   C13 5572   4.504   5.238   4.492 -0.1302 -0.3782  0.3598
   60CHL1   C18 5573   4.371   5.317   4.512 -0.3680  0.9266  0.1528
   60CHL1  H18A 5574   4.392   5.388   4.595  1.3100 -0.2524  0.7878
   60CHL1  H18B 5575   4.345   5.373   4.420 -0.6353 -0.4004 -0.6054
   60CHL1  H18C 5576   4.296   5.246   4.552 -0.6732  0.6737 -0.8589
   60CHL1   C12 5577   4.619   5.336   4.446  0.0399  0.4429  0.2250
   60CHL1  H12A 5578   4.615   5.428   4.507  0.0585 -0.1150  1.0755
   60CHL1  H12B 5579   4.711   5.277   4.464  0.6108  1.2355 -0.0626
   60CHL1   C11 5580   4.594   5.369   4.296 -0.3565 -0.4518 -0.1779
   60CHL1  H11A 5581   4.507   5.439   4.297  0.4606  0.5879  1.1800
   60CHL1  H11B 5582   4.681   5.430   4.264 -0.5144  0.1232  0.4552
   60CHL1    C9 5583   4.584   5.243   4.207  0.3844 -0.3216  0.5869
   60CHL1    H9 5584   4.675   5.182   4.226  1.1249  0.7258  0.4560
   60CHL1   C10 5585   4.564   5.274   4.055 -0.2010  0.7428 -0.3253
   60CHL1   C19 5586   4.443   5.369   4.029 -0.3608  0.1366  0.1342
   60CHL1  H19A 5587   4.467   5.465   4.080  1.7340 -0.0193 -0.4637
   60CHL1  H19B 5588   4.433   5.393   3.921  1.4335  1.3159  0.1859
   60CHL1  H19C 5589   4.351   5.329   4.077  0.1328 -2.1698 -0.6912
   60CHL1    C1 5590   4.696   5.331   4.001  0.0055 -0.8012  0.4427
   60CHL1   H1A 5591   4.694   5.435   4.041 -0.3009 -0.8301  0.5047
   60CHL1   H1B 5592   4.779   5.287   4.062  1.6265  0.6204 -0.6314
   60CHL1    C2 5593   4.723   5.330   3.848  0.0973 -0.0838 -0.0691
   60CHL1   H2A 5594   4.830   5.359   3.838 -0.4097  2.2029  0.4800
   60CHL1   H2B 5595   4.660   5.405   3.796  1.4224  1.3730  0.3558
   60CHL1   C20 5596   4.549   5.237   4.765 -0.3480  0.0149 -0.2911
   60CHL1   H20 5597   4.494   5.332   4.747  1.1944  0.6091 -2.3188
   60CHL1   C21 5598   4.705   5.273   4.776 -0.5528  0.6014 -0.2045
   60CHL1  H21A 5599   4.772   5.203   4.832  0.1292  0.9199 -0.6111
   60CHL1  H21B 5600   4.702   5.361   4.844 -1.2403  0.7833 -0.4639
   60CHL1  H21C 5601   4.742   5.315   4.681  0.4036 -1.8490 -0.9965
   60CHL1   C22 5602   4.489   5.162   4.885 -0.4057  0.1401 -0.5875
   60CHL1  H22A 5603   4.380   5.147   4.869 -0.3900  0.0236 -0.5892
   60CHL1  H22B 5604   4.544   5.068   4.908 -1.7867 -0.7280 -0.7233
   60CHL1   C23 5605   4.496   5.232   5.022  0.3803  0.5642 -0.0770
   60CHL1  H23A 5606   4.600   5.271   5.025  1.1134 -1.1419 -1.3434
   60CHL1  H23B 5607   4.417   5.308   5.037  0.9024  0.6467  2.6121
   60CHL1   C24 5608   4.480   5.137   5.144 -0.5963 -0.1635  0.3860
   60CHL1  H24A 5609   4.374   5.102   5.148 -0.9408  0.9126  1.6072
   60CHL1  H24B 5610   4.539   5.044   5.136 -1.1359 -0.5837  1.1532
   60CHL1   C25 5611   4.489   5.194   5.289 -0.6705  1.0383  0.4908
   60CHL1   H25 5612   4.411   5.272   5.298 -0.2190  1.7812 -1.3827
   60CHL1   C26 5613   4.432   5.082   5.385 -0.2699  0.5689 -0.0719
   60CHL1  H26A 5614   4.438   5.124   5.487  3.9981  3.0080 -1.0751
   60CHL1  H26B 5615   4.335   5.034   5.357  0.0030 -1.0426  1.5587
   60CHL1  H26C 5616   4.505   4.999   5.399  1.2549  1.5312 -1.8694
   60CHL1   C27 5617   4.622   5.245   5.343  0.8272  0.1105 -0.7056
   60CHL1  H27A 5618   4.661   5.339   5.300 -0.8148  1.1622  0.0023
   60CHL1  H27B 5619   4.604   5.272   5.449  0.7947  1.1099 -0.9514
   60CHL1  H27C 5620   4.693   5.160   5.338  0.6839 -0.0691  0.1156
   61CHL1    C3 5621   6.305   0.159   4.368 -0.1850 -0.5301  0.2056
   61CHL1    H3 5622   6.199   0.181   4.395 -0.5820 -2.0818  0.0475
   61CHL1    O3 5623   6.317   0.136   4.225  0.5218  0.1316 -0.2464
   61CHL1   H3' 5624   6.294   0.223   4.192  0.8370  0.9339  1.5350
   61CHL1    C4 5625   6.406   0.272   4.416  0.0344 -0.3355  0.5611
   61CHL1   H4A 5626   6.512   0.254   4.389  0.1756  1.8285 -0.5727
   61CHL1   H4B 5627   6.372   0.354   4.350  2.0550 -0.7764 -1.1298
   61CHL1    C5 5628   6.389   0.306   4.564 -0.4507 -0.2770 -0.9325
   61CHL1    C6 5629   6.342   0.420   4.615 -0.5047 -0.0844 -0.3733
   61CHL1    H6 5630   6.302   0.499   4.550 -1.0106  0.2588  0.3332
   61CHL1    C7 5631   6.321   0.442   4.761 -0.1355 -0.3462 -0.0727
   61CHL1   H7A 5632   6.351   0.545   4.790  2.7838 -1.4334  1.0551
   61CHL1   H7B 5633   6.213   0.435   4.786  0.2066  0.2876  1.6630
   61CHL1    C8 5634   6.397   0.344   4.850 -0.6466  0.8873 -0.6158
   61CHL1    H8 5635   6.505   0.367   4.844 -0.2636 -0.9501 -1.0971
   61CHL1   C14 5636   6.352   0.355   4.999  0.2425 -0.1209 -0.5746
   61CHL1   H14 5637   6.245   0.323   5.005  1.1074 -2.9832  2.1221
   61CHL1   C15 5638   6.351   0.498   5.061 -0.3588  0.2667 -0.1365
   61CHL1  H15A 5639   6.447   0.542   5.024 -1.2221  2.4343  0.0296
   61CHL1  H15B 5640   6.260   0.552   5.027 -0.1693  1.0027  0.4904
   61CHL1   C16 5641   6.355   0.464   5.203 -0.1305 -0.3396  0.0237
   61CHL1  H16A 5642   6.432   0.527   5.253  0.2892 -0.0635 -0.9633
   61CHL1  H16B 5643   6.259   0.503   5.244  0.4589  1.2378 -0.0387
   61CHL1   C17 5644   6.365   0.307   5.227  0.2364 -0.1982  0.7792
   61CHL1   H17 5645   6.258   0.277   5.233 -0.1093  0.8479  0.2262
   61CHL1   C13 5646   6.426   0.256   5.097  0.3629  0.7118 -0.5402
   61CHL1   C18 5647   6.575   0.290   5.098 -0.1483  0.7877  0.3334
   61CHL1  H18A 5648   6.585   0.399   5.121  1.2616  0.7602 -0.1030
   61CHL1  H18B 5649   6.633   0.233   5.174  0.2125 -0.3881 -0.8079
   61CHL1  H18C 5650   6.620   0.262   5.001 -0.5025 -3.0617  1.1285
   61CHL1   C12 5651   6.390   0.117   5.054 -0.4054  0.1441  0.9143
   61CHL1  H12A 5652   6.430   0.032   5.112 -1.3936 -1.3289 -0.4646
   61CHL1  H12B 5653   6.280   0.103   5.064 -0.1727 -1.0622  1.9288
   61CHL1   C11 5654   6.435   0.103   4.907  0.1631  0.0975 -0.3963
   61CHL1  H11A 5655   6.545   0.119   4.896  0.4296  0.0446  1.7317
   61CHL1  H11B 5656   6.418  -0.001   4.872  1.0991 -0.7370  1.4530
   61CHL1    C9 5657   6.377   0.197   4.797  0.0613 -0.0615 -0.2215
   61CHL1    H9 5658   6.267   0.182   4.804  0.2583 -0.9254  1.9679
   61CHL1   C10 5659   6.425   0.181   4.645  0.1266  0.0054 -0.8096
   61CHL1   C19 5660   6.584   0.164   4.642  0.6977 -0.0673 -0.0095
   61CHL1  H19A 5661   6.604   0.070   4.698  0.8880 -0.1791 -0.2606
   61CHL1  H19B 5662   6.598   0.140   4.535 -3.8803 -2.2941 -0.3514
   61CHL1  H19C 5663   6.630   0.257   4.682  1.9336 -0.6669  0.0408
   61CHL1    C1 5664   6.352   0.057   4.595 -0.1615 -0.0682 -0.7590
   61CHL1   H1A 5665   6.390  -0.038   4.639 -1.1658  0.7389  2.1174
   61CHL1   H1B 5666   6.245   0.057   4.625  0.3299 -0.0621  1.1586
   61CHL1    C2 5667   6.351   0.033   4.441  0.1316 -0.6343  0.3582
   61CHL1   H2A 5668   6.280  -0.049   4.418  0.5524 -0.5037 -1.6094
   61CHL1   H2B 5669   6.450   0.009   4.395 -0.2722 -1.1717 -0.2582
   61CHL1   C20 5670   6.430   0.274   5.358 -0.5012  0.0440  0.2912
   61CHL1   H20 5671   6.537   0.303   5.351 -0.5226 -0.2726 -2.1947
   61CHL1   C21 5672   6.433   0.122   5.377 -0.3371  0.4549 -0.2139
   61CHL1  H21A 5673   6.475   0.106   5.479 -0.2865 -0.7749 -0.4084
   61CHL1  H21B 5674   6.498   0.073   5.301 -0.6011  0.0901 -0.2100
   61CHL1  H21C 5675   6.329   0.081   5.376 -0.0418 -0.3594  0.4516
   61CHL1   C22 5676   6.381   0.348   5.483  0.1788  0.4588  0.5741
   61CHL1  H22A 5677   6.367   0.455   5.455  1.1707  0.1271 -1.3300
   61CHL1  H22B 5678   6.280   0.311   5.512  0.7955 -1.0720  0.8703
   61CHL1   C23 5679   6.480   0.352   5.598 -0.1126 -0.2202 -0.2525
   61CHL1  H23A 5680   6.523   0.259   5.640 -2.6151 -1.1620  0.4571
   61CHL1  H23B 5681   6.565   0.414   5.564 -1.6258  1.3047 -1.4967
   61CHL1   C24 5682   6.401   0.430   5.712  0.7148  0.2005  0.6813
   61CHL1  H24A 5683   6.407   0.537   5.681  1.3015 -0.2081 -0.7276
   61CHL1  H24B 5684   6.292   0.412   5.723  0.7672 -0.1240  0.6711
   61CHL1   C25 5685   6.471   0.414   5.846  0.0433 -0.0250  0.2436
   61CHL1   H25 5686   6.567   0.469   5.846  1.6063 -2.5614  2.0172
   61CHL1   C26 5687   6.379   0.481   5.953 -0.2942  0.4070  0.4048
   61CHL1  H26A 5688   6.435   0.481   6.049  0.1496 -1.1975  0.1818
   61CHL1  H26B 5689   6.345   0.583   5.924 -0.5770  0.2671  0.2430
   61CHL1  H26C 5690   6.283   0.428   5.973  0.8367 -1.9017  0.0641
   61CHL1   C27 5691   6.501   0.272   5.884 -0.0908 -0.4435 -0.1213
   61CHL1  H27A 5692   6.592   0.242   5.828 -1.2278 -2.7270 -0.9046
   61CHL1  H27B 5693   6.500   0.262   5.994 -1.2328 -1.9313 -0.2347
   61CHL1  H27C 5694   6.425   0.199   5.849  0.6071  0.0653 -2.9566
   62CHL1    C3 5695   3.117   6.556   3.974 -0.2127 -0.3534 -0.5886
   62CHL1    H3 5696   3.193   6.476   3.982  1.4832  1.0486 -1.8076
   62CHL1    O3 5697   3.076   6.552   3.836  0.7923  0.1693 -0.1882
   62CHL1   H3' 5698   3.159   6.553   3.787  1.7703 -1.9068  1.2542
   62CHL1    C4 5699   3.005   6.528   4.073  0.3948 -0.7671 -0.9207
   62CHL1   H4A 5700   2.919   6.598   4.071  1.0743  0.0932 -0.8662
   62CHL1   H4B 5701   2.959   6.429   4.055 -1.4430 -0.2523  0.6316
   62CHL1    C5 5702   3.071   6.536   4.208  0.0536 -0.0098 -0.3662
   62CHL1    C6 5703   3.068   6.424   4.290  0.8787  0.2661  0.4689
   62CHL1    H6 5704   3.013   6.332   4.264 -0.8925  1.1662  0.8980
   62CHL1    C7 5705   3.104   6.432   4.435  0.0455  0.3706 -0.1138
   62CHL1   H7A 5706   3.024   6.380   4.493  0.2537  1.1937  0.9393
   62CHL1   H7B 5707   3.202   6.381   4.450 -0.1253  0.2361  0.6077
   62CHL1    C8 5708   3.123   6.570   4.486  0.4072 -0.0976  0.3321
   62CHL1    H8 5709   3.019   6.607   4.501 -0.3759 -0.9035 -2.5307
   62CHL1   C14 5710   3.196   6.563   4.618 -0.6297  0.2228  0.0058
   62CHL1   H14 5711   3.298   6.538   4.583 -0.8905  0.7631 -1.1759
   62CHL1   C15 5712   3.170   6.449   4.725  0.3128 -0.5699  0.1013
   62CHL1  H15A 5713   3.059   6.443   4.727  0.2824  0.0238  2.3899
   62CHL1  H15B 5714   3.213   6.352   4.692 -2.2649 -1.6953 -0.1271
   62CHL1   C16 5715   3.233   6.513   4.855 -0.7193 -0.2935  0.1797
   62CHL1  H16A 5716   3.154   6.536   4.929 -1.0022  1.6617 -0.6918
   62CHL1  H16B 5717   3.311   6.445   4.896  0.0671  0.9048  0.7339
   62CHL1   C17 5718   3.306   6.647   4.814 -0.7601  0.2465  0.4841
   62CHL1   H17 5719   3.409   6.628   4.777 -1.0592  0.6825 -0.5983
   62CHL1   C13 5720   3.224   6.694   4.692 -0.1558  0.2243 -0.2215
   62CHL1   C18 5721   3.089   6.760   4.740 -0.3625 -0.3719 -0.0393
   62CHL1  H18A 5722   3.030   6.786   4.650  2.8105  0.3219 -2.0965
   62CHL1  H18B 5723   3.027   6.691   4.801  0.5208  1.1637  2.7646
   62CHL1  H18C 5724   3.116   6.854   4.793  1.1050  0.4596 -2.1281
   62CHL1   C12 5725   3.301   6.791   4.600  0.1686  1.2738 -0.4367
   62CHL1  H12A 5726   3.302   6.893   4.644 -0.2550  1.0091  0.2011
   62CHL1  H12B 5727   3.400   6.747   4.576 -0.7122 -0.7554 -0.5351
   62CHL1   C11 5728   3.229   6.791   4.459  0.1972 -0.1486 -0.2152
   62CHL1  H11A 5729   3.138   6.854   4.471  1.1244  1.1787  0.0630
   62CHL1  H11B 5730   3.289   6.850   4.386  0.8284 -1.4093 -0.7448
   62CHL1    C9 5731   3.199   6.658   4.391  0.0891  0.3777  0.0166
   62CHL1    H9 5732   3.299   6.613   4.374  0.3457  1.6796 -2.3814
   62CHL1   C10 5733   3.126   6.672   4.252  0.1660  0.8441 -0.1055
   62CHL1   C19 5734   3.007   6.771   4.265  0.0395 -0.6482 -0.2777
   62CHL1  H19A 5735   2.963   6.782   4.164 -0.1505 -2.7617 -0.4619
   62CHL1  H19B 5736   2.935   6.738   4.343  0.7509 -1.3032  0.1159
   62CHL1  H19C 5737   3.046   6.872   4.292  0.4014 -1.5056  2.8301
   62CHL1    C1 5738   3.233   6.715   4.141  0.4890  0.1615 -0.5618
   62CHL1   H1A 5739   3.262   6.821   4.154  0.8396  0.2518 -1.9081
   62CHL1   H1B 5740   3.322   6.651   4.156 -1.1037 -1.7649  1.5022
   62CHL1    C2 5741   3.178   6.696   3.992 -1.0045  0.8422 -0.2650
   62CHL1   H2A 5742   3.267   6.711   3.927 -0.9911  3.3816  0.2345
   62CHL1   H2B 5743   3.106   6.779   3.977 -3.0842 -0.2923  2.5639
   62CHL1   C20 5744   3.333   6.760   4.921 -0.2937  0.2625 -0.6049
   62CHL1   H20 5745   3.296   6.854   4.875 -2.9090 -0.1691  0.4584
   62CHL1   C21 5746   3.482   6.762   4.946 -0.2721  0.2103  0.6275
   62CHL1  H21A 5747   3.516   6.847   5.010 -0.6226 -0.1865  1.3539
   62CHL1  H21B 5748   3.540   6.788   4.855  2.5321  1.8741  2.6937
   62CHL1  H21C 5749   3.526   6.669   4.990 -0.1006  0.5593  1.2129
   62CHL1   C22 5750   3.244   6.745   5.048  0.1405  0.0052 -0.2257
   62CHL1  H22A 5751   3.140   6.770   5.017  0.4186  0.9537 -0.4142
   62CHL1  H22B 5752   3.247   6.641   5.087  0.0941 -1.2177 -3.2204
   62CHL1   C23 5753   3.288   6.841   5.166 -0.0439  0.6012  0.0044
   62CHL1  H23A 5754   3.238   6.825   5.264  1.2486  1.0084  0.7590
   62CHL1  H23B 5755   3.392   6.828   5.204  0.9519  2.8728 -1.7171
   62CHL1   C24 5756   3.264   6.989   5.122  0.8207  0.4381 -0.7232
   62CHL1  H24A 5757   3.319   7.021   5.030 -1.4724  1.5476 -1.7961
   62CHL1  H24B 5758   3.156   7.002   5.099  0.6794 -1.8685 -1.6159
   62CHL1   C25 5759   3.319   7.084   5.236  0.6506 -0.5309 -0.9214
   62CHL1   H25 5760   3.289   7.042   5.334  3.1194  0.0544  0.1592
   62CHL1   C26 5761   3.475   7.100   5.253 -0.0744  0.5311 -0.1088
   62CHL1  H26A 5762   3.520   7.132   5.157 -1.4434  1.2044 -0.5547
   62CHL1  H26B 5763   3.493   7.168   5.339  0.2559 -0.1513  0.3706
   62CHL1  H26C 5764   3.522   7.002   5.274  0.3097  0.1236 -2.5864
   62CHL1   C27 5765   3.247   7.223   5.233 -0.5743  0.9373 -0.0068
   62CHL1  H27A 5766   3.137   7.216   5.250 -0.8850 -2.8240 -2.6002
   62CHL1  H27B 5767   3.299   7.288   5.306  1.4914  0.6089 -1.1303
   62CHL1  H27C 5768   3.244   7.268   5.132 -0.1231  0.9845 -0.0014
   63CHL1    C3 5769   4.623   4.700   3.665  0.2666 -0.4870 -0.2524
   63CHL1    H3 5770   4.572   4.798   3.663  2.0890  0.5348 -2.8975
   63CHL1    O3 5771   4.611   4.638   3.540 -0.2954 -0.0217  0.0862
   63CHL1   H3' 5772   4.658   4.556   3.549 -0.4511 -0.0930  0.2549
   63CHL1    C4 5773   4.773   4.714   3.705  0.2950 -0.4408  0.4798
   63CHL1   H4A 5774   4.819   4.614   3.691 -0.6529 -0.9399  0.8350
   63CHL1   H4B 5775   4.834   4.769   3.631 -0.8307  1.4918  0.9173
   63CHL1    C5 5776   4.792   4.752   3.854  0.1683  0.7343 -0.3351
   63CHL1    C6 5777   4.859   4.857   3.892 -0.1858 -0.0292 -0.2395
   63CHL1    H6 5778   4.898   4.921   3.812 -0.2084 -2.2016 -2.1041
   63CHL1    C7 5779   4.890   4.898   4.029  0.1913 -0.3763  0.0071
   63CHL1   H7A 5780   4.995   4.925   4.053  0.3012 -1.7859  1.2184
   63CHL1   H7B 5781   4.842   4.995   4.055 -0.3344 -0.8345  0.7696
   63CHL1    C8 5782   4.852   4.794   4.138 -0.4428 -0.0210 -0.0958
   63CHL1    H8 5783   4.944   4.732   4.143 -1.0316 -0.8236  0.8788
   63CHL1   C14 5784   4.832   4.848   4.275 -0.2491  0.3363 -0.5561
   63CHL1   H14 5785   4.735   4.902   4.270 -0.3272  0.2757  0.2204
   63CHL1   C15 5786   4.939   4.943   4.329 -0.6211 -0.5861  0.9231
   63CHL1  H15A 5787   5.046   4.915   4.314 -1.1646 -2.6105  0.5719
   63CHL1  H15B 5788   4.918   5.040   4.278  1.0006  0.4251  2.0524
   63CHL1   C16 5789   4.922   4.942   4.479 -0.1879  0.6599 -0.1935
   63CHL1  H16A 5790   5.017   4.909   4.526 -0.2889 -3.7890 -2.5832
   63CHL1  H16B 5791   4.902   5.046   4.512 -0.9207 -0.0815  1.8798
   63CHL1   C17 5792   4.811   4.841   4.512  0.5061 -0.1724 -0.8789
   63CHL1   H17 5793   4.710   4.887   4.511  0.3621 -0.4369  0.0142
   63CHL1   C13 5794   4.805   4.747   4.386 -1.3275 -0.4772 -0.1357
   63CHL1   C18 5795   4.917   4.650   4.406 -0.1232 -0.2480 -0.5228
   63CHL1  H18A 5796   4.889   4.574   4.482 -0.5057  1.3335  0.9801
   63CHL1  H18B 5797   4.931   4.608   4.304 -0.5098  1.6792 -1.4168
   63CHL1  H18C 5798   5.006   4.706   4.441 -0.7470  0.7400 -0.4977
   63CHL1   C12 5799   4.667   4.686   4.349  0.4467  0.0302  0.4199
   63CHL1  H12A 5800   4.649   4.602   4.419 -0.2285 -0.4924 -0.3637
   63CHL1  H12B 5801   4.579   4.753   4.355  0.6267  0.4968 -1.4899
   63CHL1   C11 5802   4.677   4.623   4.212  0.0304  0.1642  0.1935
   63CHL1  H11A 5803   4.738   4.531   4.215 -2.7482 -1.8653 -1.1396
   63CHL1  H11B 5804   4.573   4.592   4.188 -0.6391  1.9081  0.6583
   63CHL1    C9 5805   4.725   4.717   4.101 -0.7790  0.0129  0.6379
   63CHL1    H9 5806   4.648   4.796   4.090 -1.2907 -0.7266 -1.6414
   63CHL1   C10 5807   4.731   4.660   3.956 -0.0208 -0.2930  0.4792
   63CHL1   C19 5808   4.798   4.525   3.962 -0.6662  0.2357 -0.0305
   63CHL1  H19A 5809   4.724   4.455   4.004  0.3460 -0.1353  1.1971
   63CHL1  H19B 5810   4.833   4.482   3.866 -1.6917  3.0057 -1.7636
   63CHL1  H19C 5811   4.881   4.528   4.036 -2.2781  0.1342  1.8453
   63CHL1    C1 5812   4.579   4.631   3.911  0.0162  0.1879 -0.6743
   63CHL1   H1A 5813   4.545   4.545   3.973  2.7311  0.4242  1.3005
   63CHL1   H1B 5814   4.517   4.720   3.938  0.1672  0.7331 -2.0614
   63CHL1    C2 5815   4.560   4.599   3.766 -0.7471  0.2868 -0.0879
   63CHL1   H2A 5816   4.451   4.584   3.749 -0.3659 -2.8280 -0.5044
   63CHL1   H2B 5817   4.600   4.496   3.753  0.9717  1.0186 -0.8616
   63CHL1   C20 5818   4.822   4.775   4.650  0.4596  0.1381 -0.1693
   63CHL1   H20 5819   4.913   4.713   4.662  0.2428 -0.3891 -1.1321
   63CHL1   C21 5820   4.703   4.682   4.673 -0.2740 -0.1094 -0.2437
   63CHL1  H21A 5821   4.605   4.718   4.634 -1.3862 -1.5460  1.1114
   63CHL1  H21B 5822   4.684   4.660   4.780  1.4819 -1.0026 -0.0730
   63CHL1  H21C 5823   4.731   4.588   4.621 -1.6055  0.7241 -2.6311
   63CHL1   C22 5824   4.828   4.884   4.762  0.0506  0.5816  0.0517
   63CHL1  H22A 5825   4.918   4.947   4.747 -1.2114  2.4122 -0.2319
   63CHL1  H22B 5826   4.741   4.951   4.741  0.3278  0.4521 -1.6559
   63CHL1   C23 5827   4.841   4.833   4.905 -0.4214 -0.7063 -0.7071
   63CHL1  H23A 5828   4.739   4.803   4.938 -0.3401  1.0380  1.4287
   63CHL1  H23B 5829   4.902   4.741   4.900  1.2884  0.2871  0.6351
   63CHL1   C24 5830   4.890   4.938   5.014  0.3233  0.2857  0.6370
   63CHL1  H24A 5831   4.962   5.013   4.973  1.4194 -0.9917  0.1267
   63CHL1  H24B 5832   4.806   5.003   5.047  1.9643  4.2253 -2.1026
   63CHL1   C25 5833   4.947   4.869   5.132  0.2450 -0.0507  0.5275
   63CHL1   H25 5834   5.016   4.784   5.112  1.1643 -0.2591  4.0412
   63CHL1   C26 5835   5.030   4.960   5.220 -0.3320 -0.4273  0.2894
   63CHL1  H26A 5836   5.078   4.910   5.307  0.1514  1.4588  1.1613
   63CHL1  H26B 5837   5.121   4.976   5.158 -0.4862  1.9624  0.5967
   63CHL1  H26C 5838   4.974   5.051   5.250 -0.7027 -0.3894 -0.4953
   63CHL1   C27 5839   4.828   4.821   5.221 -0.4150  0.3340  0.5301
   63CHL1  H27A 5840   4.784   4.732   5.171 -1.1207  0.4739  0.8997
   63CHL1  H27B 5841   4.873   4.794   5.319 -1.2785  4.0954  2.1303
   63CHL1  H27C 5842   4.746   4.894   5.234 -2.1137 -1.5644  1.0424
   64CHL1    C3 5843   0.169   4.267   3.948 -0.1787  0.0255 -0.8481
   64CHL1    H3 5844   0.123   4.168   3.925 -1.0661 -0.1509  1.4083
   64CHL1    O3 5845   0.223   4.337   3.840 -0.4673 -0.0082 -0.4505
   64CHL1   H3' 5846   0.291   4.394   3.877  1.0874 -0.8527 -1.8457
   64CHL1    C4 5847   0.085   4.365   4.026 -0.6534  0.8543  0.1281
   64CHL1   H4A 5848   0.145   4.457   4.047 -0.8898  1.4512 -1.6134
   64CHL1   H4B 5849   0.009   4.404   3.955 -0.7688  0.2372 -0.0920
   64CHL1    C5 5850   0.043   4.304   4.157 -0.5020  0.0256  0.2104
   64CHL1    C6 5851  -0.087   4.300   4.187 -0.3357  0.2687 -0.5893
   64CHL1    H6 5852  -0.153   4.351   4.115 -1.0433  1.0131  0.5469
   64CHL1    C7 5853  -0.152   4.243   4.312  0.2889  0.1517  0.1368
   64CHL1   H7A 5854  -0.227   4.316   4.348  0.7935  0.0129  1.5194
   64CHL1   H7B 5855  -0.196   4.148   4.277  0.7326  0.5302 -1.5494
   64CHL1    C8 5856  -0.042   4.214   4.423  0.2548  1.1067  0.0795
   64CHL1    H8 5857  -0.013   4.313   4.465 -2.8831  2.9570 -1.6892
   64CHL1   C14 5858  -0.106   4.121   4.528  0.4381  0.2368  0.1083
   64CHL1   H14 5859  -0.129   4.027   4.472  0.8650 -1.9302  3.3277
   64CHL1   C15 5860  -0.229   4.163   4.601  0.8507  0.0881  0.0461
   64CHL1  H15A 5861  -0.219   4.267   4.637  0.0674  0.0963  0.2549
   64CHL1  H15B 5862  -0.321   4.155   4.540  1.6882 -2.7328 -1.0116
   64CHL1   C16 5863  -0.230   4.073   4.727  0.6380 -0.1079  0.8531
   64CHL1  H16A 5864  -0.263   4.126   4.820 -1.6157 -0.3369  0.2308
   64CHL1  H16B 5865  -0.307   3.999   4.700 -1.3318  1.9433  0.5766
   64CHL1   C17 5866  -0.092   4.002   4.735  0.0132 -0.5516  0.1780
   64CHL1   H17 5867  -0.114   3.904   4.688 -1.9775 -0.2460  0.4090
   64CHL1   C13 5868   0.004   4.076   4.632 -0.4854  0.0898  0.0739
   64CHL1   C18 5869   0.064   4.207   4.707  0.1313 -0.0779 -0.3186
   64CHL1  H18A 5870   0.138   4.267   4.649 -1.0819  0.6724 -1.1324
   64CHL1  H18B 5871  -0.013   4.273   4.751  0.7280 -1.4858  3.1701
   64CHL1  H18C 5872   0.131   4.173   4.789 -1.3711  0.1095  1.0210
   64CHL1   C12 5873   0.120   3.987   4.563  0.2236 -0.4673 -0.5135
   64CHL1  H12A 5874   0.188   3.955   4.645  0.1705 -0.1416 -0.3392
   64CHL1  H12B 5875   0.071   3.898   4.519 -1.1770  0.5672 -1.1114
   64CHL1   C11 5876   0.190   4.082   4.464 -1.1437 -0.1188  0.2811
   64CHL1  H11A 5877   0.251   4.163   4.510  2.1095 -2.3519  0.2526
   64CHL1  H11B 5878   0.273   4.024   4.419  0.4580  0.3138  2.4689
   64CHL1    C9 5879   0.085   4.147   4.360 -0.3783  0.1005  0.0625
   64CHL1    H9 5880   0.041   4.055   4.317 -1.7882  0.2200  1.1526
   64CHL1   C10 5881   0.149   4.239   4.250 -0.1042 -0.4049 -0.4181
   64CHL1   C19 5882   0.221   4.358   4.314 -0.0717 -0.2686  0.4577
   64CHL1  H19A 5883   0.292   4.412   4.248 -2.6401  0.4305 -1.9284
   64CHL1  H19B 5884   0.147   4.431   4.353  1.8181  0.8117  2.1900
   64CHL1  H19C 5885   0.289   4.328   4.397  4.0039  3.4924 -1.1626
   64CHL1    C1 5886   0.249   4.149   4.168 -0.0820  0.6957  0.7297
   64CHL1   H1A 5887   0.335   4.136   4.238 -1.5235 -0.8558  2.3112
   64CHL1   H1B 5888   0.204   4.050   4.148  0.9443 -0.2615  2.8268
   64CHL1    C2 5889   0.285   4.209   4.027 -0.2031  0.1621 -0.6894
   64CHL1   H2A 5890   0.339   4.126   3.976 -0.9758 -0.5207 -0.4078
   64CHL1   H2B 5891   0.360   4.291   4.032  0.2380 -0.2842  0.3918
   64CHL1   C20 5892  -0.043   3.979   4.874  0.3690 -0.1074  0.6090
   64CHL1   H20 5893   0.064   3.951   4.866  0.1134 -0.9124 -0.0310
   64CHL1   C21 5894  -0.108   3.850   4.930 -0.3473  0.1847 -0.3313
   64CHL1  H21A 5895  -0.047   3.803   5.011 -0.3063  1.2790  0.2844
   64CHL1  H21B 5896  -0.121   3.776   4.848  0.1829 -0.3570  0.0600
   64CHL1  H21C 5897  -0.200   3.884   4.982 -0.3009 -0.6803  0.3563
   64CHL1   C22 5898  -0.054   4.093   4.978  0.2323 -0.1039 -0.3136
   64CHL1  H22A 5899  -0.057   4.193   4.929  2.6454  0.4832  0.6136
   64CHL1  H22B 5900  -0.150   4.083   5.032  1.1833 -0.4293  1.3730
   64CHL1   C23 5901   0.049   4.091   5.089  0.6578  0.3723  0.8170
   64CHL1  H23A 5902   0.059   3.984   5.117 -0.7268  0.1080  0.4214
   64CHL1  H23B 5903   0.152   4.123   5.066  2.1905 -3.2075  1.9693
   64CHL1   C24 5904   0.000   4.160   5.217  0.0793 -0.1279 -0.0695
   64CHL1  H24A 5905  -0.027   4.268   5.212 -1.4063 -0.4240  1.0840
   64CHL1  H24B 5906  -0.099   4.117   5.243 -0.3176  0.0381 -1.2354
   64CHL1   C25 5907   0.096   4.129   5.338  0.1620  0.0776 -0.8062
   64CHL1   H25 5908   0.113   4.022   5.359 -2.7129 -0.6096 -1.5913
   64CHL1   C26 5909   0.237   4.197   5.306 -0.5598 -0.0324 -0.2811
   64CHL1  H26A 5910   0.277   4.139   5.220 -0.6306 -0.2832 -0.1460
   64CHL1  H26B 5911   0.231   4.308   5.300  0.6271 -0.0016 -1.4254
   64CHL1  H26C 5912   0.311   4.174   5.386  1.0358  0.6025 -1.5103
   64CHL1   C27 5913   0.030   4.187   5.463 -0.2189 -0.0488  0.3952
   64CHL1  H27A 5914   0.103   4.173   5.545  0.7328 -0.2128 -0.4553
   64CHL1  H27B 5915   0.008   4.293   5.439 -2.5988 -0.6413 -0.3432
   64CHL1  H27C 5916  -0.068   4.148   5.498 -1.2368  2.5706  0.6651
   65CHL1    C3 5917   1.867   0.714   4.104  0.5257 -0.0128 -0.0411
   65CHL1    H3 5918   1.950   0.642   4.117  0.2951 -0.3678 -0.5053
   65CHL1    O3 5919   1.810   0.705   3.979 -0.3231 -0.3651  0.8772
   65CHL1   H3' 5920   1.735   0.763   3.991 -0.8258 -1.1115  1.3875
   65CHL1    C4 5921   1.772   0.666   4.210  0.0964 -0.0317 -0.5038
   65CHL1   H4A 5922   1.684   0.734   4.209 -0.2512 -0.3703  1.5276
   65CHL1   H4B 5923   1.738   0.565   4.178  0.4515 -0.6030  0.8136
   65CHL1    C5 5924   1.823   0.666   4.352  0.2222  0.7685  0.3726
   65CHL1    C6 5925   1.839   0.555   4.418 -0.6503  0.1243 -0.1292
   65CHL1    H6 5926   1.826   0.460   4.364  1.1103 -0.6929  0.7881
   65CHL1    C7 5927   1.888   0.548   4.561 -0.2014 -0.6332  0.2671
   65CHL1   H7A 5928   1.821   0.480   4.618  0.4421 -0.9961  0.6042
   65CHL1   H7B 5929   1.992   0.509   4.555 -0.5522 -1.3393 -2.4868
   65CHL1    C8 5930   1.904   0.688   4.632  0.4042 -0.0321  0.6309
   65CHL1    H8 5931   1.799   0.718   4.655  0.4733 -0.7497  2.0233
   65CHL1   C14 5932   1.979   0.682   4.764 -0.6389 -0.1775 -0.1555
   65CHL1   H14 5933   2.082   0.652   4.736 -0.9504 -1.2794 -0.1799
   65CHL1   C15 5934   1.947   0.569   4.867  0.5184  0.2323 -0.1712
   65CHL1  H15A 5935   1.837   0.562   4.880  0.6174 -0.2465  0.4731
   65CHL1  H15B 5936   1.982   0.469   4.835  1.8867  0.0876  1.5932
   65CHL1   C16 5937   2.017   0.625   5.000 -0.2500 -0.4883 -0.0021
   65CHL1  H16A 5938   1.934   0.637   5.074  0.5967 -1.5392  1.1634
   65CHL1  H16B 5939   2.086   0.555   5.052 -0.6266  1.4829  3.4709
   65CHL1   C17 5940   2.084   0.765   4.962 -0.6932  0.2656  0.2041
   65CHL1   H17 5941   2.189   0.747   4.929 -0.6936  0.1084  0.2864
   65CHL1   C13 5942   2.006   0.812   4.836 -0.4550  0.7224  0.2835
   65CHL1   C18 5943   1.867   0.869   4.885 -0.1748 -0.5042 -0.1613
   65CHL1  H18A 5944   1.881   0.970   4.929 -1.5825 -0.8525  1.1642
   65CHL1  H18B 5945   1.796   0.883   4.800  1.5410  2.1162 -1.2917
   65CHL1  H18C 5946   1.819   0.801   4.959 -0.7469 -2.1079 -1.9277
   65CHL1   C12 5947   2.078   0.904   4.732 -0.0983  0.5230 -0.0134
   65CHL1  H12A 5948   2.097   1.001   4.783  0.4960  1.4136 -1.8517
   65CHL1  H12B 5949   2.173   0.857   4.701  0.2469  1.8494 -1.0586
   65CHL1   C11 5950   2.004   0.924   4.603  0.1725  1.1930  0.0999
   65CHL1  H11A 5951   1.904   0.972   4.615 -0.7236 -0.7223  0.6490
   65CHL1  H11B 5952   2.070   0.982   4.535  2.8070 -0.0004  1.4829
   65CHL1    C9 5953   1.957   0.791   4.535 -0.0520 -0.0376  0.2043
   65CHL1    H9 5954   2.049   0.742   4.498  0.8621 -0.2517  2.5825
   65CHL1   C10 5955   1.872   0.803   4.400  0.1440  0.5363  0.7116
   65CHL1   C19 5956   1.745   0.889   4.426  0.0271 -0.2297 -0.2244
   65CHL1  H19A 5957   1.677   0.875   4.340  0.2909 -3.6738  0.0038
   65CHL1  H19B 5958   1.676   0.857   4.507 -0.3754  1.6054  0.2154
   65CHL1  H19C 5959   1.778   0.994   4.447  0.1445 -0.0052 -1.4676
   65CHL1    C1 5960   1.964   0.865   4.290  0.1150  0.3462  0.2226
   65CHL1   H1A 5961   1.980   0.974   4.310 -0.1219  0.3823  0.2156
   65CHL1   H1B 5962   2.062   0.811   4.288 -0.0295 -0.0554  2.0278
   65CHL1    C2 5963   1.905   0.858   4.146  0.5650  0.0506  0.3227
   65CHL1   H2A 5964   1.976   0.894   4.068  2.0975  1.4074  2.2436
   65CHL1   H2B 5965   1.817   0.926   4.150  0.1394 -0.5466  1.2853
   65CHL1   C20 5966   2.092   0.859   5.080 -0.3163 -0.3341  0.1287
   65CHL1   H20 5967   1.985   0.877   5.104 -1.0970 -1.3973 -2.2447
   65CHL1   C21 5968   2.155   0.987   5.031 -0.0406 -0.3398 -0.3500
   65CHL1  H21A 5969   2.253   0.979   4.979 -0.0699 -0.7065 -0.3457
   65CHL1  H21B 5970   2.169   1.056   5.117 -0.8198 -1.5447  0.7671
   65CHL1  H21C 5971   2.071   1.045   4.987 -1.4095 -0.6499  1.7112
   65CHL1   C22 5972   2.160   0.799   5.203  0.7183  0.6623  0.0304
   65CHL1  H22A 5973   2.117   0.702   5.235  1.7675  0.8637  2.2508
   65CHL1  H22B 5974   2.267   0.783   5.180  0.4190 -1.9118  0.1508
   65CHL1   C23 5975   2.176   0.891   5.330  0.0995 -0.6304  0.1578
   65CHL1  H23A 5976   2.217   0.990   5.303  2.4544 -2.2310 -2.5950
   65CHL1  H23B 5977   2.067   0.909   5.340  0.0522  0.2381 -1.5848
   65CHL1   C24 5978   2.231   0.818   5.452  0.6620 -0.1130  0.1962
   65CHL1  H24A 5979   2.204   0.711   5.445 -0.2056  0.1678 -1.1195
   65CHL1  H24B 5980   2.341   0.834   5.452  0.4533  1.5344  0.8363
   65CHL1   C25 5981   2.178   0.870   5.581  0.1017  0.5736 -0.8431
   65CHL1   H25 5982   2.195   0.979   5.577  2.7483  0.2579  0.0626
   65CHL1   C26 5983   2.031   0.857   5.597  0.5146 -0.0934 -0.0286
   65CHL1  H26A 5984   1.990   0.908   5.686 -0.3744 -0.5537 -0.1599
   65CHL1  H26B 5985   1.968   0.914   5.525 -0.2289 -2.4440 -1.3474
   65CHL1  H26C 5986   2.000   0.750   5.604  0.1590 -0.0698 -1.0002
   65CHL1   C27 5987   2.255   0.812   5.697  1.2261  0.2277  0.1257
   65CHL1  H27A 5988   2.237   0.849   5.801  0.2382 -0.3724  0.1883
   65CHL1  H27B 5989   2.246   0.702   5.703 -0.4165  0.4016  4.0207
   65CHL1  H27C 5990   2.362   0.825   5.671  2.0318 -1.2883  2.4065
   66CHL1    C3 5991   2.291   1.350   3.871  0.4871 -0.1935 -1.2042
   66CHL1    H3 5992   2.376   1.422   3.866  1.3337 -1.0500  0.1960
   66CHL1    O3 5993   2.243   1.351   3.739  0.1799 -0.0869  0.2810
   66CHL1   H3' 5994   2.234   1.439   3.703  0.9738 -0.2500 -0.3403
   66CHL1    C4 5995   2.343   1.212   3.912 -0.3855 -0.3711 -0.0673
   66CHL1   H4A 5996   2.256   1.144   3.916 -0.8167  0.0165 -1.9178
   66CHL1   H4B 5997   2.410   1.169   3.834 -1.4850  1.6470 -2.2537
   66CHL1    C5 5998   2.401   1.216   4.058 -0.3058 -1.0318 -0.2058
   66CHL1    C6 5999   2.526   1.162   4.079  0.0545  0.2522 -0.3878
   66CHL1    H6 6000   2.589   1.117   4.001  0.0969 -0.5096  0.0719
   66CHL1    C7 6001   2.594   1.151   4.211  0.3090 -0.0223 -1.3136
   66CHL1   H7A 6002   2.632   1.047   4.219 -0.9652 -0.4352 -0.0990
   66CHL1   H7B 6003   2.665   1.236   4.221 -2.8536  2.5616  3.1078
   66CHL1    C8 6004   2.492   1.185   4.330  0.2852  0.6820  0.0942
   66CHL1    H8 6005   2.431   1.096   4.354  2.6295 -0.6766  1.3223
   66CHL1   C14 6006   2.569   1.232   4.456 -0.1838  0.6825  0.7444
   66CHL1   H14 6007   2.610   1.334   4.436 -2.8181  1.8195  0.6661
   66CHL1   C15 6008   2.682   1.140   4.504  0.1541 -0.2593 -0.0680
   66CHL1  H15A 6009   2.672   1.033   4.476  0.3072  0.4114 -3.1384
   66CHL1  H15B 6010   2.773   1.178   4.452  1.3624  2.6990  3.7671
   66CHL1   C16 6011   2.697   1.167   4.651 -0.7593  0.7483  0.5561
   66CHL1  H16A 6012   2.683   1.074   4.709  2.3985  0.6672  1.3805
   66CHL1  H16B 6013   2.799   1.209   4.666 -0.4533  0.4953 -0.6992
   66CHL1   C17 6014   2.592   1.268   4.685 -0.0457 -0.3551  0.1740
   66CHL1   H17 6015   2.642   1.365   4.664  1.6338 -1.3045 -0.3620
   66CHL1   C13 6016   2.479   1.260   4.574  0.5664  0.3958  0.7919
   66CHL1   C18 6017   2.392   1.136   4.606  0.0697 -0.1594  0.0565
   66CHL1  H18A 6018   2.454   1.044   4.611 -3.4131 -2.6519  1.1407
   66CHL1  H18B 6019   2.329   1.152   4.696 -1.4451  0.3211 -1.0449
   66CHL1  H18C 6020   2.317   1.111   4.528 -1.1661 -0.8377  1.4096
   66CHL1   C12 6021   2.405   1.389   4.545  0.2111  0.4221 -0.7512
   66CHL1  H12A 6022   2.334   1.424   4.623 -0.1625  0.9157 -1.2984
   66CHL1  H12B 6023   2.483   1.466   4.527  1.1895 -0.9852 -3.0018
   66CHL1   C11 6024   2.323   1.360   4.421  0.5917 -0.1680  0.3055
   66CHL1  H11A 6025   2.239   1.289   4.437  0.8420 -0.9775 -1.7517
   66CHL1  H11B 6026   2.272   1.455   4.393  3.1633  0.8291 -1.3636
   66CHL1    C9 6027   2.406   1.307   4.298  0.4915 -0.4600  0.5193
   66CHL1    H9 6028   2.470   1.390   4.263 -0.6899 -0.4000 -1.6794
   66CHL1   C10 6029   2.317   1.277   4.173 -0.6398 -0.3134  0.2015
   66CHL1   C19 6030   2.217   1.165   4.198 -0.5782 -0.0791  0.3633
   66CHL1  H19A 6031   2.266   1.069   4.225  1.0052 -0.1712 -2.5056
   66CHL1  H19B 6032   2.143   1.201   4.273 -1.3983 -0.0755 -0.4284
   66CHL1  H19C 6033   2.166   1.139   4.103  0.0352  1.0120 -0.2858
   66CHL1    C1 6034   2.255   1.410   4.112 -0.0938  0.7189  0.0825
   66CHL1   H1A 6035   2.192   1.465   4.185  0.6377 -0.7719  1.9403
   66CHL1   H1B 6036   2.338   1.484   4.106 -0.3602  0.9410 -1.2332
   66CHL1    C2 6037   2.188   1.404   3.976  0.8465  0.0178 -0.0639
   66CHL1   H2A 6038   2.160   1.507   3.946  0.1932  0.6293  2.3963
   66CHL1   H2B 6039   2.094   1.346   3.973  1.6732 -1.4220  0.6389
   66CHL1   C20 6040   2.548   1.259   4.830 -0.0344  0.0425 -0.4661
   66CHL1   H20 6041   2.503   1.157   4.838 -1.7001  0.4072 -3.6745
   66CHL1   C21 6042   2.435   1.356   4.874  0.0905  0.3480  0.2282
   66CHL1  H21A 6043   2.464   1.459   4.844  0.1867  0.0542 -0.7418
   66CHL1  H21B 6044   2.427   1.347   4.984 -2.9601  2.2348  0.2808
   66CHL1  H21C 6045   2.334   1.323   4.842  0.1476  0.7509 -0.4010
   66CHL1   C22 6046   2.670   1.269   4.926  0.1748 -0.2201  0.5969
   66CHL1  H22A 6047   2.761   1.215   4.893  2.4398  4.2185 -1.0678
   66CHL1  H22B 6048   2.705   1.372   4.907  0.0654 -0.4106 -0.7304
   66CHL1   C23 6049   2.651   1.207   5.071  0.6749 -0.0858  0.0920
   66CHL1  H23A 6050   2.746   1.202   5.128 -0.8376 -2.3518  2.6797
   66CHL1  H23B 6051   2.582   1.266   5.135 -1.6568 -1.9151 -0.5823
   66CHL1   C24 6052   2.598   1.064   5.070 -0.8415 -0.3977 -0.2057
   66CHL1  H24A 6053   2.493   1.076   5.036 -0.9317  1.0140  0.5162
   66CHL1  H24B 6054   2.660   1.007   4.997 -0.7268 -0.1379 -0.3127
   66CHL1   C25 6055   2.593   0.992   5.212 -0.3020 -0.5390  0.5835
   66CHL1   H25 6056   2.702   0.986   5.231 -0.0252  0.7221 -0.5116
   66CHL1   C26 6057   2.522   1.079   5.316  0.9189  0.2563 -0.2929
   66CHL1  H26A 6058   2.414   1.083   5.290  1.2233 -1.2153 -1.9852
   66CHL1  H26B 6059   2.519   1.033   5.417 -1.4207  1.7705  0.4073
   66CHL1  H26C 6060   2.569   1.178   5.335  0.8530  0.2273  0.0303
   66CHL1   C27 6061   2.537   0.849   5.209 -0.1860 -0.2931 -0.4171
   66CHL1  H27A 6062   2.604   0.775   5.161  1.1273 -0.6173  1.7862
   66CHL1  H27B 6063   2.436   0.858   5.165  0.0895 -1.8627 -1.4209
   66CHL1  H27C 6064   2.525   0.799   5.308 -2.3111 -2.8917 -1.8726
   67CHL1    C3 6065   1.618   5.402   3.960  0.4768 -0.2425 -0.1168
   67CHL1    H3 6066   1.599   5.507   3.992 -2.4141 -1.1531  1.4287
   67CHL1    O3 6067   1.632   5.390   3.818  0.4830 -0.1915  0.1644
   67CHL1   H3' 6068   1.648   5.296   3.810 -0.5266 -0.4908  1.3919
   67CHL1    C4 6069   1.746   5.358   4.029 -0.9053 -0.6909 -0.3984
   67CHL1   H4A 6070   1.763   5.257   3.985 -1.9795 -0.4666 -1.3672
   67CHL1   H4B 6071   1.835   5.420   4.004  0.3680 -2.2727  0.0437
   67CHL1    C5 6072   1.722   5.340   4.180 -0.2517 -0.2492 -0.5330
   67CHL1    C6 6073   1.804   5.400   4.269  0.2637  0.4618 -0.3895
   67CHL1    H6 6074   1.889   5.456   4.227 -1.3414  0.8610 -3.4126
   67CHL1    C7 6075   1.803   5.388   4.421 -0.2578 -0.3633  0.4710
   67CHL1   H7A 6076   1.903   5.363   4.463  0.1275  0.4346  0.0685
   67CHL1   H7B 6077   1.779   5.483   4.473 -0.0721  0.3507 -0.7105
   67CHL1    C8 6078   1.711   5.276   4.465 -0.0907 -0.8908 -0.9248
   67CHL1    H8 6079   1.764   5.181   4.446 -1.6809 -1.7321 -1.2849
   67CHL1   C14 6080   1.674   5.291   4.615 -1.0223  0.0688  0.4906
   67CHL1   H14 6081   1.643   5.396   4.636  1.6055  0.3321  3.8475
   67CHL1   C15 6082   1.789   5.275   4.710  0.3695 -0.3487  0.0770
   67CHL1  H15A 6083   1.836   5.180   4.678 -0.3478 -0.2648 -1.3305
   67CHL1  H15B 6084   1.876   5.343   4.704  1.1001 -1.2079  0.6570
   67CHL1   C16 6085   1.730   5.253   4.844  0.1192  0.3776 -0.7216
   67CHL1  H16A 6086   1.790   5.170   4.889 -0.5497  1.5829  2.7411
   67CHL1  H16B 6087   1.738   5.345   4.907 -0.1696  0.2192 -0.4515
   67CHL1   C17 6088   1.579   5.223   4.820 -0.0719 -0.1682 -0.5943
   67CHL1   H17 6089   1.510   5.310   4.836 -1.4479 -1.6447  2.3495
   67CHL1   C13 6090   1.570   5.191   4.668  0.3031 -0.5161  0.0181
   67CHL1   C18 6091   1.611   5.047   4.629 -0.6959  0.1685 -0.4714
   67CHL1  H18A 6092   1.637   5.015   4.526 -0.3170 -0.2926 -0.2360
   67CHL1  H18B 6093   1.697   5.028   4.698  0.2334  1.8929 -1.0881
   67CHL1  H18C 6094   1.529   4.973   4.642  0.1019 -0.7531 -0.5644
   67CHL1   C12 6095   1.440   5.221   4.590  0.5941  0.2500 -0.5008
   67CHL1  H12A 6096   1.351   5.162   4.620  0.6340 -1.2721 -3.0806
   67CHL1  H12B 6097   1.422   5.330   4.601  1.7201  0.2965  1.3299
   67CHL1   C11 6098   1.454   5.194   4.446  0.2520 -1.1209  0.5690
   67CHL1  H11A 6099   1.473   5.087   4.422 -0.9351 -1.5103  1.3120
   67CHL1  H11B 6100   1.364   5.227   4.390  2.0860  0.9431 -1.3234
   67CHL1    C9 6101   1.571   5.284   4.390  0.2384 -0.4418  0.8024
   67CHL1    H9 6102   1.535   5.388   4.401  0.8707 -0.1881  0.5724
   67CHL1   C10 6103   1.595   5.260   4.234  0.4732  0.6403  0.5938
   67CHL1   C19 6104   1.618   5.109   4.202 -0.0864 -0.4502 -0.3591
   67CHL1  H19A 6105   1.522   5.052   4.203 -0.4601  0.1706  0.4906
   67CHL1  H19B 6106   1.646   5.103   4.095  1.5590  0.2223  0.0146
   67CHL1  H19C 6107   1.705   5.064   4.255 -0.8801 -2.1382 -0.4080
   67CHL1    C1 6108   1.475   5.306   4.149  0.4324 -1.0029  0.2461
   67CHL1   H1A 6109   1.390   5.235   4.154 -1.3443  0.9308 -1.0626
   67CHL1   H1B 6110   1.440   5.408   4.175 -0.1233 -0.3248 -2.8579
   67CHL1    C2 6111   1.496   5.323   3.993 -0.3083  0.3638  0.1485
   67CHL1   H2A 6112   1.408   5.371   3.945 -0.6170 -0.6262 -0.3108
   67CHL1   H2B 6113   1.515   5.219   3.959 -1.7179  0.2149 -0.2541
   67CHL1   C20 6114   1.520   5.119   4.916  0.4844  0.2049  0.4731
   67CHL1   H20 6115   1.572   5.023   4.894  0.4478  0.0381  1.1067
   67CHL1   C21 6116   1.375   5.094   4.885  0.3440  0.1312 -0.0296
   67CHL1  H21A 6117   1.318   5.042   4.965 -0.6826  1.6188  0.2529
   67CHL1  H21B 6118   1.354   5.041   4.790  0.2509  0.6710 -0.3165
   67CHL1  H21C 6119   1.318   5.189   4.878  0.1817 -0.0541 -1.4203
   67CHL1   C22 6120   1.547   5.136   5.069 -0.0344 -0.4483 -0.3886
   67CHL1  H22A 6121   1.495   5.051   5.117 -0.2356  0.7578  1.6203
   67CHL1  H22B 6122   1.655   5.118   5.092  0.2162  1.0262 -0.3245
   67CHL1   C23 6123   1.510   5.272   5.132 -0.0841  0.1465  0.2528
   67CHL1  H23A 6124   1.537   5.359   5.069  2.1917 -0.5436  0.1933
   67CHL1  H23B 6125   1.402   5.275   5.156  0.4006  1.4353  2.5009
   67CHL1   C24 6126   1.573   5.290   5.272 -0.1553  0.4222  0.0494
   67CHL1  H24A 6127   1.542   5.203   5.334 -1.9426 -0.1104 -1.4919
   67CHL1  H24B 6128   1.682   5.308   5.257 -0.8322  3.8299 -1.8569
   67CHL1   C25 6129   1.523   5.419   5.347 -0.3863  0.1673 -0.2507
   67CHL1   H25 6130   1.565   5.511   5.301 -0.4334  0.3634  0.1004
   67CHL1   C26 6131   1.367   5.426   5.349  0.1433 -0.6217  0.0811
   67CHL1  H26A 6132   1.338   5.501   5.427  2.1135 -0.1409  0.4077
   67CHL1  H26B 6133   1.333   5.463   5.250  1.9349 -0.4579 -0.5113
   67CHL1  H26C 6134   1.321   5.328   5.375  4.0183 -1.9825  2.6496
   67CHL1   C27 6135   1.577   5.421   5.491 -0.0877  0.5223  0.8531
   67CHL1  H27A 6136   1.534   5.509   5.543 -1.6687  2.3857 -3.1702
   67CHL1  H27B 6137   1.551   5.325   5.541  0.6240  1.2039  2.5805
   67CHL1  H27C 6138   1.688   5.424   5.489  0.0062 -0.1035  2.9803
   68CHL1    C3 6139   1.168   3.906   3.863  0.5273 -0.2375  0.2883
   68CHL1    H3 6140   1.075   3.876   3.916  1.0178  1.4573  2.2673
   68CHL1    O3 6141   1.149   3.908   3.720  0.2341 -0.2108 -0.0301
   68CHL1   H3' 6142   1.221   3.957   3.680  0.5094 -0.7421 -0.2046
   68CHL1    C4 6143   1.221   4.042   3.900  1.3247 -0.2909  0.5674
   68CHL1   H4A 6144   1.304   4.065   3.830  0.6329  2.7439  0.5916
   68CHL1   H4B 6145   1.136   4.111   3.878 -0.4108 -2.2221  0.8951
   68CHL1    C5 6146   1.261   4.060   4.048 -0.0020 -0.3937 -0.3025
   68CHL1    C6 6147   1.192   4.146   4.124  0.5494  0.1991 -0.6755
   68CHL1    H6 6148   1.117   4.212   4.079 -1.4141 -1.7010 -0.3676
   68CHL1    C7 6149   1.215   4.152   4.272 -0.3209 -0.3331 -1.0223
   68CHL1   H7A 6150   1.223   4.258   4.306 -0.6084 -1.0478  1.4533
   68CHL1   H7B 6151   1.134   4.108   4.334  3.2195 -2.6948  2.4097
   68CHL1    C8 6152   1.353   4.092   4.310  0.4197  0.3457 -0.1284
   68CHL1    H8 6153   1.439   4.153   4.275  1.3069 -0.7508  0.1105
   68CHL1   C14 6154   1.377   4.083   4.462 -0.0180 -0.3383 -0.2499
   68CHL1   H14 6155   1.287   4.024   4.488 -1.1813  1.6201  0.3797
   68CHL1   C15 6156   1.349   4.200   4.561  0.1225  0.3619  0.0556
   68CHL1  H15A 6157   1.409   4.286   4.525  1.7877 -1.2410 -1.1887
   68CHL1  H15B 6158   1.239   4.217   4.560  0.0561  0.1075  1.1100
   68CHL1   C16 6159   1.390   4.148   4.692 -0.7847  0.2472  0.7207
   68CHL1  H16A 6160   1.459   4.215   4.747  1.3323 -0.2058 -1.2460
   68CHL1  H16B 6161   1.300   4.125   4.752  0.7781 -0.0134  3.0815
   68CHL1   C17 6162   1.461   4.004   4.665  0.0382 -0.3721  0.0677
   68CHL1   H17 6163   1.380   3.929   4.665 -1.7572  1.3741 -2.6388
   68CHL1   C13 6164   1.496   4.005   4.513  0.3563 -0.0116  0.1539
   68CHL1   C18 6165   1.621   4.095   4.482  0.1520 -0.7326  0.4221
   68CHL1  H18A 6166   1.638   4.099   4.372 -0.1355  0.7540  0.4216
   68CHL1  H18B 6167   1.608   4.200   4.513 -1.5175 -0.6691 -0.3587
   68CHL1  H18C 6168   1.711   4.044   4.521 -0.0193 -1.4065 -0.0289
   68CHL1   C12 6169   1.494   3.862   4.460 -0.2310 -0.0670 -0.8320
   68CHL1  H12A 6170   1.582   3.810   4.501  0.2063  1.7870  0.7644
   68CHL1  H12B 6171   1.404   3.811   4.500 -0.5394  0.3431 -0.9876
   68CHL1   C11 6172   1.484   3.872   4.311  0.1046  0.1205  0.8873
   68CHL1  H11A 6173   1.579   3.922   4.282 -0.9389  0.8926 -1.4262
   68CHL1  H11B 6174   1.496   3.772   4.263  1.9841  0.6289  0.1941
   68CHL1    C9 6175   1.362   3.949   4.251  0.1237 -0.3685  0.0999
   68CHL1    H9 6176   1.266   3.897   4.272 -0.7626  0.6263 -1.3309
   68CHL1   C10 6177   1.354   3.951   4.092 -0.4693 -0.0197  0.1291
   68CHL1   C19 6178   1.493   3.992   4.040 -0.8350 -0.0001  0.5104
   68CHL1  H19A 6179   1.559   3.905   4.056 -0.6977  0.3875  2.2114
   68CHL1  H19B 6180   1.475   3.987   3.930  0.9980 -0.4382  0.2045
   68CHL1  H19C 6181   1.522   4.092   4.078 -0.2200  0.0713 -0.1322
   68CHL1    C1 6182   1.316   3.810   4.039 -0.0316  0.2855  0.5153
   68CHL1   H1A 6183   1.392   3.731   4.058 -0.9893 -0.5770  0.8657
   68CHL1   H1B 6184   1.229   3.774   4.097 -0.3990  1.2986  0.6014
   68CHL1    C2 6185   1.282   3.802   3.889  0.5420 -0.5638 -0.0666
   68CHL1   H2A 6186   1.239   3.704   3.862 -0.6110 -0.2983  0.7489
   68CHL1   H2B 6187   1.373   3.825   3.829 -0.3284 -3.9973 -3.0362
   68CHL1   C20 6188   1.571   3.967   4.751 -0.7878  0.5381  0.0947
   68CHL1   H20 6189   1.639   3.903   4.690 -1.4482 -1.2454  1.1812
   68CHL1   C21 6190   1.521   3.876   4.861  0.1286 -0.1728 -0.0946
   68CHL1  H21A 6191   1.602   3.834   4.924  0.4340  1.2180  0.4658
   68CHL1  H21B 6192   1.454   3.797   4.819  0.6499 -1.4338  1.3290
   68CHL1  H21C 6193   1.454   3.934   4.928 -0.4689 -0.2126 -0.6435
   68CHL1   C22 6194   1.662   4.077   4.810 -0.0127 -0.2340 -0.4372
   68CHL1  H22A 6195   1.703   4.138   4.727 -0.3827 -1.1319 -1.3081
   68CHL1  H22B 6196   1.609   4.146   4.878  0.9446 -0.6191  0.7357
   68CHL1   C23 6197   1.788   4.038   4.893  0.6834 -0.0961  0.3948
   68CHL1  H23A 6198   1.769   3.973   4.981 -0.1343 -1.3652 -0.6834
   68CHL1  H23B 6199   1.863   3.988   4.827 -1.3425 -0.3147 -1.8861
   68CHL1   C24 6200   1.855   4.165   4.955 -0.4350 -0.0698  0.0877
   68CHL1  H24A 6201   1.869   4.241   4.876 -0.0208 -1.5613 -1.3394
   68CHL1  H24B 6202   1.785   4.210   5.029 -1.9300 -0.5059 -1.0089
   68CHL1   C25 6203   1.993   4.143   5.032 -0.0301 -0.3243 -0.8538
   68CHL1   H25 6204   1.969   4.071   5.113 -0.5559 -1.0575 -1.6432
   68CHL1   C26 6205   2.107   4.093   4.943 -0.1459  0.2409 -0.2316
   68CHL1  H26A 6206   2.083   3.994   4.899  2.4932  0.3475 -2.2002
   68CHL1  H26B 6207   2.115   4.162   4.857  0.3231  1.1119  0.4947
   68CHL1  H26C 6208   2.208   4.101   4.990  0.3273 -0.5382 -1.0781
   68CHL1   C27 6209   2.036   4.269   5.102 -0.0461 -0.4929 -0.0025
   68CHL1  H27A 6210   2.101   4.254   5.191 -1.2251  0.9729  1.1593
   68CHL1  H27B 6211   2.091   4.328   5.025 -0.6342  1.0323  0.6981
   68CHL1  H27C 6212   1.950   4.325   5.145  0.5637 -0.2981  0.9974
   69CHL1    C3 6213   5.545   4.878   4.133 -0.4190 -0.3615 -0.1415
   69CHL1    H3 6214   5.611   4.791   4.155 -1.9260 -1.6496 -0.6100
   69CHL1    O3 6215   5.542   4.897   3.997  0.2438 -0.1522  0.3491
   69CHL1   H3' 6216   5.492   4.977   3.982 -0.0754 -0.1620  1.3335
   69CHL1    C4 6217   5.403   4.882   4.179 -0.2017  0.2191 -0.2669
   69CHL1   H4A 6218   5.341   4.972   4.157  0.7991  1.2553  0.9837
   69CHL1   H4B 6219   5.359   4.795   4.127  0.0368 -0.8193  1.1828
   69CHL1    C5 6220   5.408   4.863   4.328 -0.0969  0.1783 -0.7017
   69CHL1    C6 6221   5.337   4.764   4.385  0.5888  0.2583  0.1488
   69CHL1    H6 6222   5.278   4.698   4.320  1.8119  1.2084 -2.0087
   69CHL1    C7 6223   5.336   4.737   4.529  0.3399 -0.2767  0.3286
   69CHL1   H7A 6224   5.233   4.706   4.558  0.3492 -0.6580 -0.0270
   69CHL1   H7B 6225   5.407   4.656   4.555  1.9619  0.2706 -2.0673
   69CHL1    C8 6226   5.374   4.862   4.617 -0.2105  1.3019 -0.2443
   69CHL1    H8 6227   5.292   4.937   4.609 -0.6764  0.9778  1.2450
   69CHL1   C14 6228   5.389   4.836   4.760  1.3710 -0.3372 -0.1171
   69CHL1   H14 6229   5.473   4.765   4.771  1.0425 -0.3780  3.4665
   69CHL1   C15 6230   5.275   4.768   4.839 -0.3266  0.0353  1.4228
   69CHL1  H15A 6231   5.186   4.829   4.810 -0.0436 -0.5156 -0.7970
   69CHL1  H15B 6232   5.255   4.663   4.808  1.1349 -0.1189  0.9713
   69CHL1   C16 6233   5.315   4.784   4.984 -0.4168 -0.4260  0.5054
   69CHL1  H16A 6234   5.231   4.819   5.048  0.5201  2.0751  0.4799
   69CHL1  H16B 6235   5.349   4.682   5.014 -0.6375 -0.2872  1.2596
   69CHL1   C17 6236   5.434   4.883   4.992 -0.1660  0.2324 -0.1871
   69CHL1   H17 6237   5.524   4.819   4.988 -1.4686 -1.7182 -3.9499
   69CHL1   C13 6238   5.429   4.955   4.848 -0.4506 -0.5881 -0.4664
   69CHL1   C18 6239   5.324   5.064   4.847  0.1358  0.0993  0.2773
   69CHL1  H18A 6240   5.361   5.155   4.900 -0.2848  2.1009 -2.6252
   69CHL1  H18B 6241   5.303   5.098   4.743 -0.2509  0.7907  0.5731
   69CHL1  H18C 6242   5.225   5.031   4.886  0.5066 -0.9238  0.3772
   69CHL1   C12 6243   5.566   4.997   4.797  0.1927 -0.0529 -0.4465
   69CHL1  H12A 6244   5.591   5.094   4.845 -1.9642  1.9364 -2.9975
   69CHL1  H12B 6245   5.645   4.925   4.825 -1.5421 -2.4601 -1.4490
   69CHL1   C11 6246   5.560   5.031   4.646 -0.3509 -0.2710  0.4369
   69CHL1  H11A 6247   5.502   5.124   4.635 -0.6931 -0.5035  0.2444
   69CHL1  H11B 6248   5.665   5.040   4.611 -0.3225 -0.8368  0.3521
   69CHL1    C9 6249   5.500   4.920   4.557  0.0239 -0.2313  0.5698
   69CHL1    H9 6250   5.577   4.841   4.566  0.2040  0.1316  3.0190
   69CHL1   C10 6251   5.487   4.969   4.411  0.3428 -0.3045  0.0417
   69CHL1   C19 6252   5.415   5.108   4.409  0.0751 -0.4719  0.4926
   69CHL1  H19A 6253   5.323   5.108   4.471  0.4546 -2.4374  1.1086
   69CHL1  H19B 6254   5.486   5.186   4.445 -0.1228  0.2743 -0.6626
   69CHL1  H19C 6255   5.394   5.140   4.305 -1.5510 -0.2504  0.8645
   69CHL1    C1 6256   5.626   4.979   4.344 -0.8430  0.0474  0.3696
   69CHL1   H1A 6257   5.679   5.067   4.385  0.7884 -0.9446  0.4914
   69CHL1   H1B 6258   5.685   4.892   4.380 -0.2344  0.7038  0.9737
   69CHL1    C2 6259   5.626   4.993   4.187 -0.2061 -0.0348  1.0281
   69CHL1   H2A 6260   5.733   4.987   4.158 -0.0641 -3.1275  1.8872
   69CHL1   H2B 6261   5.581   5.088   4.152  1.6059 -0.1859 -2.0229
   69CHL1   C20 6262   5.437   4.960   5.117  0.5615 -0.3664  0.2819
   69CHL1   H20 6263   5.360   5.040   5.115  1.1163  0.2221  1.3499
   69CHL1   C21 6264   5.573   5.030   5.118  0.4298 -0.8398 -0.0997
   69CHL1  H21A 6265   5.667   4.971   5.111  1.4209  0.8002 -1.2634
   69CHL1  H21B 6266   5.573   5.104   5.200  2.1481 -2.5217  1.5299
   69CHL1  H21C 6267   5.578   5.094   5.028 -3.6303  0.1333  0.1700
   69CHL1   C22 6268   5.415   4.882   5.245  0.2970  0.7372 -0.7525
   69CHL1  H22A 6269   5.318   4.829   5.244  0.1110  0.8248  2.2830
   69CHL1  H22B 6270   5.502   4.813   5.258  0.0550  0.0626 -2.4908
   69CHL1   C23 6271   5.422   4.956   5.381 -0.4357 -0.2987  0.0730
   69CHL1  H23A 6272   5.513   5.020   5.386 -0.4262 -0.3681  0.8545
   69CHL1  H23B 6273   5.343   5.034   5.390 -2.0884 -1.8189 -0.6939
   69CHL1   C24 6274   5.422   4.861   5.501 -0.5241 -0.3310  0.4279
   69CHL1  H24A 6275   5.335   4.792   5.491  0.2486 -1.1666 -0.8625
   69CHL1  H24B 6276   5.513   4.798   5.503 -0.6919 -0.5917  0.0975
   69CHL1   C25 6277   5.424   4.927   5.633 -0.0061  0.4242 -0.8284
   69CHL1   H25 6278   5.348   5.008   5.633 -0.0449  0.3924 -1.4516
   69CHL1   C26 6279   5.416   4.824   5.746  0.5683 -0.5837 -0.4749
   69CHL1  H26A 6280   5.429   4.876   5.843 -1.1663  0.1181 -0.5754
   69CHL1  H26B 6281   5.320   4.770   5.727 -0.8881  1.5705  0.3653
   69CHL1  H26C 6282   5.501   4.752   5.745  0.1683 -1.0720 -0.2529
   69CHL1   C27 6283   5.561   4.991   5.660  0.5474  0.2576 -0.1665
   69CHL1  H27A 6284   5.635   4.913   5.630  0.0966  0.0291 -0.7029
   69CHL1  H27B 6285   5.588   5.086   5.609  0.5462  1.1748  1.4823
   69CHL1  H27C 6286   5.564   5.008   5.770  0.4173 -0.2076 -0.0900
   70CHL1    C3 6287   4.184   6.319   3.979 -0.0352 -0.2112 -0.4468
   70CHL1    H3 6288   4.272   6.251   3.971 -0.9902 -1.9425  2.2118
   70CHL1    O3 6289   4.147   6.366   3.848  0.9837  0.3514  0.6562
   70CHL1   H3' 6290   4.215   6.423   3.811  0.6109  0.7597  0.5972
   70CHL1    C4 6291   4.070   6.241   4.048 -0.3837 -0.4414 -0.3651
   70CHL1   H4A 6292   3.979   6.304   4.042  0.5418  0.8197 -2.5683
   70CHL1   H4B 6293   4.021   6.158   3.992  1.1981 -1.0988 -0.8246
   70CHL1    C5 6294   4.100   6.205   4.196  0.5681 -0.0775 -0.4302
   70CHL1    C6 6295   4.101   6.074   4.233  1.0546  0.5060 -0.6184
   70CHL1    H6 6296   4.062   5.996   4.166  1.5641 -0.9720  0.7502
   70CHL1    C7 6297   4.114   6.039   4.379  0.1628  0.7707 -0.1112
   70CHL1   H7A 6298   4.036   5.969   4.415  0.6055  1.2184  1.8670
   70CHL1   H7B 6299   4.206   5.977   4.388 -1.8345 -2.2284  1.6280
   70CHL1    C8 6300   4.118   6.151   4.482  0.1912 -0.4584 -0.0634
   70CHL1    H8 6301   4.014   6.185   4.496 -0.2030 -1.4132 -0.5820
   70CHL1   C14 6302   4.181   6.110   4.612  0.4843 -0.2472  0.7639
   70CHL1   H14 6303   4.288   6.093   4.585  0.1942 -1.9078  0.5476
   70CHL1   C15 6304   4.121   5.978   4.672  0.0472 -0.5247 -0.5935
   70CHL1  H15A 6305   4.011   5.993   4.674 -0.1369 -1.8187  0.3188
   70CHL1  H15B 6306   4.147   5.887   4.614  0.0053 -0.8885 -0.0444
   70CHL1   C16 6307   4.170   5.984   4.819  0.3889 -0.1569 -0.0022
   70CHL1  H16A 6308   4.082   5.981   4.887  0.9718  1.2131  0.8591
   70CHL1  H16B 6309   4.243   5.905   4.847  1.7265  0.9456 -0.2485
   70CHL1   C17 6310   4.246   6.121   4.834  0.2875 -0.4449  0.2049
   70CHL1   H17 6311   4.350   6.105   4.800  0.8439  0.6377  1.3554
   70CHL1   C13 6312   4.188   6.212   4.720 -0.3851 -0.2669  0.0642
   70CHL1   C18 6313   4.047   6.255   4.763  0.3101 -0.2472 -0.3768
   70CHL1  H18A 6314   4.001   6.294   4.670 -0.4068 -0.4843 -0.1346
   70CHL1  H18B 6315   3.983   6.168   4.790  1.1865 -1.1475 -1.1018
   70CHL1  H18C 6316   4.046   6.330   4.845 -1.5673 -0.3483 -0.2519
   70CHL1   C12 6317   4.270   6.339   4.673  0.6660  0.1626 -0.5751
   70CHL1  H12A 6318   4.269   6.422   4.747 -0.4577  1.1363 -1.6292
   70CHL1  H12B 6319   4.372   6.297   4.658 -0.0172 -1.3958 -1.0549
   70CHL1   C11 6320   4.221   6.389   4.533  0.2475  0.1710  0.1569
   70CHL1  H11A 6321   4.119   6.429   4.554  0.7605  0.5735  2.1007
   70CHL1  H11B 6322   4.295   6.463   4.496  0.2114 -0.2349 -0.7574
   70CHL1    C9 6323   4.203   6.272   4.427 -0.5417 -0.2007  0.0475
   70CHL1    H9 6324   4.301   6.226   4.401  0.2415 -0.4006  3.0313
   70CHL1   C10 6325   4.147   6.323   4.286  0.5255 -0.9448 -0.6878
   70CHL1   C19 6326   4.032   6.417   4.313 -0.6207 -0.6538  0.2375
   70CHL1  H19A 6327   4.062   6.514   4.357 -0.7877  0.5088 -2.0275
   70CHL1  H19B 6328   3.965   6.443   4.228 -0.3545  1.8821  0.7339
   70CHL1  H19C 6329   3.966   6.378   4.393 -0.9360  0.4647  0.5405
   70CHL1    C1 6330   4.265   6.393   4.212  0.3782  0.3421  0.0952
   70CHL1   H1A 6331   4.302   6.479   4.272  0.3278  0.6372 -0.2901
   70CHL1   H1B 6332   4.349   6.322   4.202  0.5207  0.6885 -1.3544
   70CHL1    C2 6333   4.233   6.441   4.064  0.2904  0.3801  0.6956
   70CHL1   H2A 6334   4.326   6.481   4.019 -0.3057  3.2584  1.7930
   70CHL1   H2B 6335   4.154   6.517   4.081 -0.1178  0.1225 -0.0242
   70CHL1   C20 6336   4.244   6.166   4.981 -0.0552  0.7759  0.1251
   70CHL1   H20 6337   4.145   6.160   5.030  0.9112  0.5905  2.2007
   70CHL1   C21 6338   4.309   6.305   4.989  0.5857 -0.0678  0.1563
   70CHL1  H21A 6339   4.351   6.314   5.091 -1.7661  1.8541  1.0377
   70CHL1  H21B 6340   4.227   6.379   5.002 -0.1322 -0.8373  0.0879
   70CHL1  H21C 6341   4.388   6.329   4.914 -0.7751  1.1336 -0.9515
   70CHL1   C22 6342   4.336   6.067   5.056 -0.2791 -0.2802 -0.1666
   70CHL1  H22A 6343   4.321   5.963   5.022  0.1938 -0.6067  0.6109
   70CHL1  H22B 6344   4.437   6.104   5.030  0.5292 -1.6212  0.9453
   70CHL1   C23 6345   4.313   6.070   5.210 -0.7423  0.1538  0.8041
   70CHL1  H23A 6346   4.383   6.005   5.266 -0.0356 -0.8518 -1.1411
   70CHL1  H23B 6347   4.326   6.174   5.247 -0.2400 -0.5087  2.5694
   70CHL1   C24 6348   4.171   6.030   5.260  0.2404 -1.0678 -0.0233
   70CHL1  H24A 6349   4.105   6.111   5.222  0.3983 -0.4828  0.8945
   70CHL1  H24B 6350   4.138   5.935   5.213 -1.2455 -0.5228 -0.1147
   70CHL1   C25 6351   4.161   6.024   5.415  0.3590  0.5588 -0.7216
   70CHL1   H25 6352   4.223   5.939   5.452  2.2247  2.6612  1.2883
   70CHL1   C26 6353   4.196   6.153   5.480  0.4329 -0.5472  0.2825
   70CHL1  H26A 6354   4.191   6.145   5.591  0.2458  0.2970  0.3373
   70CHL1  H26B 6355   4.297   6.193   5.456  0.0813 -0.5559 -1.2899
   70CHL1  H26C 6356   4.112   6.220   5.456 -2.1020 -2.8220  2.1607
   70CHL1   C27 6357   4.020   5.991   5.454 -0.1401  0.1171 -0.0313
   70CHL1  H27A 6358   3.970   5.908   5.399  1.4813 -0.8202 -0.1659
   70CHL1  H27B 6359   4.029   5.977   5.563 -2.9744  1.1260  0.4131
   70CHL1  H27C 6360   3.965   6.087   5.442  1.4974  0.8496 -2.5883
   71CHL1    C3 6361   5.463   6.085   3.982  0.2113  0.2689 -0.0123
   71CHL1    H3 6362   5.546   6.032   3.931 -0.0092  0.7957 -0.9490
   71CHL1    O3 6363   5.402   6.165   3.878 -0.1775  0.6346 -0.0703
   71CHL1   H3' 6364   5.383   6.109   3.803  0.4307  2.2807 -1.5339
   71CHL1    C4 6365   5.357   5.981   4.022  0.3124  0.4056  0.4897
   71CHL1   H4A 6366   5.265   6.035   4.050 -0.2649  0.5185 -1.4379
   71CHL1   H4B 6367   5.330   5.933   3.925  0.3076  2.5481 -0.6357
   71CHL1    C5 6368   5.406   5.892   4.134  0.5476  0.1841  0.1673
   71CHL1    C6 6369   5.403   5.758   4.121 -0.2963  0.1379  0.2585
   71CHL1    H6 6370   5.367   5.717   4.025  4.6533  0.1505 -1.9437
   71CHL1    C7 6371   5.424   5.666   4.242  0.4342  0.4074 -0.0546
   71CHL1   H7A 6372   5.354   5.582   4.259 -0.8397  1.6651  1.2150
   71CHL1   H7B 6373   5.523   5.622   4.218  0.4553  0.9481 -1.0198
   71CHL1    C8 6374   5.430   5.736   4.378  0.0433 -0.7793 -0.0631
   71CHL1    H8 6375   5.323   5.760   4.398  0.1671 -0.0626 -0.2539
   71CHL1   C14 6376   5.491   5.648   4.483 -0.2778 -0.4031  0.0255
   71CHL1   H14 6377   5.596   5.638   4.451 -0.3578  3.3373 -2.0245
   71CHL1   C15 6378   5.442   5.501   4.483 -0.5104 -0.3447 -0.2400
   71CHL1  H15A 6379   5.333   5.507   4.463 -0.5831  0.2720  0.2994
   71CHL1  H15B 6380   5.505   5.448   4.409  0.1943 -0.8221  0.6822
   71CHL1   C16 6381   5.483   5.463   4.627  0.4398  0.4217 -0.0899
   71CHL1  H16A 6382   5.394   5.427   4.682  0.3262 -0.5248 -0.8750
   71CHL1  H16B 6383   5.553   5.376   4.624 -0.9798 -0.7274 -1.2563
   71CHL1   C17 6384   5.558   5.587   4.694  0.4413 -0.0402  0.0763
   71CHL1   H17 6385   5.661   5.571   4.656  0.7162  1.4685  0.1262
   71CHL1   C13 6386   5.494   5.703   4.619 -0.1614 -0.4088 -0.6294
   71CHL1   C18 6387   5.345   5.728   4.673  0.2004  0.1464  0.5502
   71CHL1  H18A 6388   5.290   5.795   4.603  0.4837 -0.5128 -0.3193
   71CHL1  H18B 6389   5.281   5.638   4.680 -0.8292  0.8040 -0.1511
   71CHL1  H18C 6390   5.346   5.764   4.778 -0.6513 -1.5141  1.1610
   71CHL1   C12 6391   5.575   5.834   4.626 -0.4441  0.5362 -0.3489
   71CHL1  H12A 6392   5.554   5.868   4.729 -0.4807  2.1937 -0.8727
   71CHL1  H12B 6393   5.685   5.822   4.613  0.2837  3.9890  1.4577
   71CHL1   C11 6394   5.523   5.933   4.515  0.4580 -0.4613 -0.0077
   71CHL1  H11A 6395   5.426   5.971   4.554  1.2251  0.4660  1.0212
   71CHL1  H11B 6396   5.592   6.019   4.507 -0.4300  0.2604  0.0214
   71CHL1    C9 6397   5.500   5.867   4.379 -0.0632  0.2165  0.2978
   71CHL1    H9 6398   5.600   5.839   4.342 -0.3274 -1.5579  0.8112
   71CHL1   C10 6399   5.447   5.963   4.264 -0.6219  0.0112 -0.3582
   71CHL1   C19 6400   5.321   6.035   4.324  0.2241 -0.2988  0.1881
   71CHL1  H19A 6401   5.238   5.966   4.352 -1.8652  2.2330  0.6222
   71CHL1  H19B 6402   5.352   6.099   4.409 -0.2379  1.9253 -1.2453
   71CHL1  H19C 6403   5.272   6.099   4.248 -3.7878 -0.6644  2.1929
   71CHL1    C1 6404   5.549   6.074   4.223  0.1901  0.2654  0.7713
   71CHL1   H1A 6405   5.576   6.132   4.314  0.8199  0.0224  0.7466
   71CHL1   H1B 6406   5.642   6.021   4.193  0.0942  0.7406 -0.4024
   71CHL1    C2 6407   5.516   6.166   4.103 -0.1185  0.2042 -0.0500
   71CHL1   H2A 6408   5.601   6.225   4.064 -1.5196  1.8893 -0.7224
   71CHL1   H2B 6409   5.436   6.235   4.137  0.6692  2.0245 -1.7557
   71CHL1   C20 6410   5.564   5.593   4.845  0.1283  0.6705  0.0579
   71CHL1   H20 6411   5.482   5.652   4.891  0.1685  0.0335  0.9761
   71CHL1   C21 6412   5.698   5.664   4.891 -0.0941 -0.3282  0.0262
   71CHL1  H21A 6413   5.696   5.682   5.000 -0.2079  0.5015 -0.1075
   71CHL1  H21B 6414   5.711   5.760   4.837  0.9346 -0.8760 -0.7260
   71CHL1  H21C 6415   5.786   5.600   4.866  0.8084  1.5139 -1.8696
   71CHL1   C22 6416   5.569   5.445   4.902 -0.2468 -0.2501  0.6277
   71CHL1  H22A 6417   5.471   5.393   4.888 -1.4396  2.0481 -0.0488
   71CHL1  H22B 6418   5.643   5.393   4.837 -2.0667 -2.5837  0.2358
   71CHL1   C23 6419   5.611   5.424   5.051  0.1928  0.4791  0.3826
   71CHL1  H23A 6420   5.615   5.315   5.072 -1.2264  0.2720 -0.3052
   71CHL1  H23B 6421   5.712   5.464   5.074 -0.6311  2.3659  0.9335
   71CHL1   C24 6422   5.505   5.491   5.139  0.4297  0.0557 -0.4833
   71CHL1  H24A 6423   5.516   5.600   5.118  1.1608  0.1402  0.2844
   71CHL1  H24B 6424   5.404   5.455   5.108  0.8007 -0.1978 -1.4563
   71CHL1   C25 6425   5.526   5.464   5.289 -0.0512 -0.3180  0.5675
   71CHL1   H25 6426   5.633   5.438   5.307 -0.4386 -1.5648  1.1704
   71CHL1   C26 6427   5.489   5.583   5.381 -0.6369 -0.1210 -0.3991
   71CHL1  H26A 6428   5.555   5.671   5.364  3.4282 -3.0263 -1.0702
   71CHL1  H26B 6429   5.384   5.617   5.385  0.0966  2.7580 -2.1005
   71CHL1  H26C 6430   5.511   5.568   5.489 -0.5244 -1.7074 -0.6145
   71CHL1   C27 6431   5.441   5.347   5.343  0.2575  0.4395  0.1732
   71CHL1  H27A 6432   5.472   5.249   5.300 -0.5580 -0.2053  0.9873
   71CHL1  H27B 6433   5.430   5.330   5.453 -1.7820  0.6659  0.0498
   71CHL1  H27C 6434   5.336   5.357   5.307  0.3482 -0.1047 -0.2477
   72CHL1    C3 6435   5.218   3.810   4.312 -0.2124 -0.3696  0.0330
   72CHL1    H3 6436   5.236   3.918   4.297 -2.3387  0.1252  0.6805
   72CHL1    O3 6437   5.201   3.749   4.183  0.2292 -0.5037  0.0732
   72CHL1   H3' 6438   5.123   3.795   4.149  0.9744  0.1549 -0.8109
   72CHL1    C4 6439   5.330   3.739   4.388 -0.1669 -0.4046  0.0563
   72CHL1   H4A 6440   5.309   3.630   4.402 -0.2485 -0.6492 -1.6800
   72CHL1   H4B 6441   5.421   3.737   4.324  0.3752 -2.6922  0.7718
   72CHL1    C5 6442   5.350   3.785   4.530 -0.0195  0.3389  0.6021
   72CHL1    C6 6443   5.468   3.820   4.577  0.2593 -0.6552  0.3440
   72CHL1    H6 6444   5.553   3.818   4.507  0.3325 -2.1312  0.4422
   72CHL1    C7 6445   5.498   3.875   4.716 -0.3281 -0.0708  0.5490
   72CHL1   H7A 6446   5.597   3.841   4.752  0.1223 -2.0598 -2.2563
   72CHL1   H7B 6447   5.503   3.986   4.715  1.5402 -0.1262 -0.1355
   72CHL1    C8 6448   5.385   3.838   4.815 -0.1426 -0.1250 -0.9306
   72CHL1    H8 6449   5.385   3.729   4.837 -0.2393  0.1708  0.6773
   72CHL1   C14 6450   5.406   3.917   4.942 -0.5307  0.3108 -0.2022
   72CHL1   H14 6451   5.399   4.025   4.918 -2.0954  0.2511 -0.0789
   72CHL1   C15 6452   5.537   3.891   5.020 -0.8583 -0.0605 -0.1357
   72CHL1  H15A 6453   5.573   3.786   5.029 -0.1871  0.2920  2.0013
   72CHL1  H15B 6454   5.619   3.945   4.969 -1.7659  1.4174 -0.0713
   72CHL1   C16 6455   5.515   3.954   5.164  0.2780  0.6970  0.1431
   72CHL1  H16A 6456   5.560   3.889   5.242 -0.2495 -0.8632 -0.8169
   72CHL1  H16B 6457   5.562   4.055   5.163 -0.2878  1.0398  2.2079
   72CHL1   C17 6458   5.356   3.970   5.169  0.0774 -0.2129  0.1535
   72CHL1   H17 6459   5.338   4.080   5.162  0.9734 -0.0704 -0.0956
   72CHL1   C13 6460   5.296   3.900   5.042 -0.2148 -0.2394 -1.1600
   72CHL1   C18 6461   5.275   3.745   5.076 -0.0609  0.1394  0.2372
   72CHL1  H18A 6462   5.183   3.733   5.136 -1.2737  1.1115 -1.3376
   72CHL1  H18B 6463   5.244   3.696   4.982  4.2415 -0.7269 -0.9711
   72CHL1  H18C 6464   5.368   3.697   5.114  0.3552  0.6662 -0.0859
   72CHL1   C12 6465   5.158   3.952   4.989  0.0133  0.1976 -0.8941
   72CHL1  H12A 6466   5.085   3.927   5.069 -0.7532  0.4643 -1.4960
   72CHL1  H12B 6467   5.156   4.059   4.959  0.2978  0.5174  0.1815
   72CHL1   C11 6468   5.133   3.873   4.855  0.4944  0.0739 -0.2063
   72CHL1  H11A 6469   5.093   3.771   4.875  1.0081 -0.4843 -1.8460
   72CHL1  H11B 6470   5.048   3.922   4.802 -0.4788  0.1906  1.4047
   72CHL1    C9 6471   5.244   3.870   4.753 -1.6493  0.5637  0.3413
   72CHL1    H9 6472   5.258   3.975   4.717 -3.0031  0.5113 -0.3898
   72CHL1   C10 6473   5.224   3.786   4.624  0.7026 -0.3039  0.0639
   72CHL1   C19 6474   5.180   3.635   4.664  0.1816 -0.1551  0.3846
   72CHL1  H19A 6475   5.246   3.605   4.748  2.0989  0.7887 -0.7093
   72CHL1  H19B 6476   5.076   3.644   4.702  0.7248  2.0047  1.5367
   72CHL1  H19C 6477   5.176   3.572   4.572  0.4094 -0.9791  0.9291
   72CHL1    C1 6478   5.104   3.838   4.538  0.6253 -0.7666 -0.6121
   72CHL1   H1A 6479   5.012   3.820   4.598  0.5464 -0.5709 -0.6745
   72CHL1   H1B 6480   5.114   3.949   4.543 -0.8448 -0.6344  0.1002
   72CHL1    C2 6481   5.089   3.794   4.395  0.3571 -0.4110  0.1839
   72CHL1   H2A 6482   5.011   3.845   4.336  0.2994 -0.6551  0.0469
   72CHL1   H2B 6483   5.053   3.688   4.397  0.2942 -0.3878  1.2521
   72CHL1   C20 6484   5.296   3.927   5.308  0.3579 -0.4059  0.2112
   72CHL1   H20 6485   5.312   3.817   5.317  1.6624 -0.1660  1.2327
   72CHL1   C21 6486   5.151   3.976   5.319  0.6650 -0.1510 -0.6693
   72CHL1  H21A 6487   5.132   3.985   5.428 -0.4777  1.2992 -0.9661
   72CHL1  H21B 6488   5.076   3.912   5.268 -0.6206 -0.5462  1.6205
   72CHL1  H21C 6489   5.140   4.074   5.269 -1.5232 -1.3940 -2.8401
   72CHL1   C22 6490   5.375   3.982   5.428 -0.0178  0.0722  0.4605
   72CHL1  H22A 6491   5.325   3.927   5.510 -0.3474 -1.8783 -0.9678
   72CHL1  H22B 6492   5.479   3.942   5.429 -0.1932 -0.5102 -1.1937
   72CHL1   C23 6493   5.379   4.132   5.444 -0.6333 -0.2459 -0.1789
   72CHL1  H23A 6494   5.440   4.174   5.360 -0.6218 -1.0861 -0.6000
   72CHL1  H23B 6495   5.278   4.177   5.450  0.8452  3.3726  0.1565
   72CHL1   C24 6496   5.470   4.177   5.567  0.4208 -0.0055 -0.1837
   72CHL1  H24A 6497   5.410   4.157   5.658  0.5103 -1.3793 -0.3936
   72CHL1  H24B 6498   5.561   4.113   5.571  0.8221  0.4039 -1.9675
   72CHL1   C25 6499   5.520   4.319   5.564 -0.0876  0.3469 -0.1009
   72CHL1   H25 6500   5.441   4.381   5.516 -1.4718 -2.0342 -1.0681
   72CHL1   C26 6501   5.536   4.381   5.699 -0.3160 -0.5515 -0.6608
   72CHL1  H26A 6502   5.622   4.344   5.758  1.5342  1.1075 -2.1634
   72CHL1  H26B 6503   5.548   4.491   5.698  1.2192 -0.6338  1.7187
   72CHL1  H26C 6504   5.448   4.358   5.764 -1.2278 -0.4468 -1.8202
   72CHL1   C27 6505   5.650   4.337   5.483 -0.6015  0.1913  0.0999
   72CHL1  H27A 6506   5.681   4.236   5.448  0.7580  0.8754 -0.7640
   72CHL1  H27B 6507   5.628   4.400   5.394  0.8282 -0.7537 -0.9702
   72CHL1  H27C 6508   5.728   4.389   5.543 -0.3052 -0.4610  0.2943
   73CHL1    C3 6509   2.499   0.182   3.809 -0.4499 -0.1591  0.0293
   73CHL1    H3 6510   2.393   0.195   3.841 -0.1499  1.2407  0.5444
   73CHL1    O3 6511   2.502   0.190   3.672  0.0142  0.0368  0.1487
   73CHL1   H3' 6512   2.481   0.282   3.657 -0.0047  0.1000  0.5678
   73CHL1    C4 6513   2.595   0.287   3.880 -0.3481  0.5975 -1.0066
   73CHL1   H4A 6514   2.695   0.261   3.840 -0.0414 -0.9848  0.6779
   73CHL1   H4B 6515   2.558   0.387   3.847  2.3055  1.1711 -2.5697
   73CHL1    C5 6516   2.589   0.262   4.031  0.1775  0.0065  0.4315
   73CHL1    C6 6517   2.570   0.360   4.111  0.7847 -0.3139  0.4179
   73CHL1    H6 6518   2.554   0.458   4.063  2.0029  0.2319  1.0693
   73CHL1    C7 6519   2.581   0.355   4.262  0.2895 -0.1899  0.3950
   73CHL1   H7A 6520   2.656   0.434   4.281 -0.9082  1.5601 -1.7394
   73CHL1   H7B 6521   2.491   0.398   4.311 -0.6405 -1.6292  0.0145
   73CHL1    C8 6522   2.634   0.222   4.315  0.1201  0.7120  0.0958
   73CHL1    H8 6523   2.742   0.221   4.291 -0.2075  0.5725 -1.4708
   73CHL1   C14 6524   2.606   0.204   4.460 -0.7256  0.6382  0.1885
   73CHL1   H14 6525   2.496   0.189   4.455 -0.6429  0.4297 -1.2939
   73CHL1   C15 6526   2.641   0.313   4.554 -0.6241 -0.0533 -0.2492
   73CHL1  H15A 6527   2.748   0.338   4.543 -1.0156  2.2836  0.5291
   73CHL1  H15B 6528   2.571   0.397   4.533  1.7022  2.3128  0.9220
   73CHL1   C16 6529   2.625   0.246   4.686  0.4890 -0.2574  0.0091
   73CHL1  H16A 6530   2.713   0.286   4.741 -0.0634 -0.8053  1.3266
   73CHL1  H16B 6531   2.534   0.262   4.748  1.2837 -2.2934  1.8240
   73CHL1   C17 6532   2.625   0.092   4.671 -0.0720  0.0953 -0.0504
   73CHL1   H17 6533   2.521   0.054   4.679  0.3958 -1.7765 -1.9948
   73CHL1   C13 6534   2.665   0.071   4.517  0.3025 -0.9824 -0.5306
   73CHL1   C18 6535   2.816   0.062   4.504 -0.2345 -0.4831 -0.5288
   73CHL1  H18A 6536   2.853   0.077   4.400  2.4889  1.3360  0.5994
   73CHL1  H18B 6537   2.869   0.138   4.565 -2.2917 -0.5721  1.5183
   73CHL1  H18C 6538   2.850  -0.034   4.548 -1.7486 -1.1500 -0.7355
   73CHL1   C12 6539   2.604  -0.044   4.441 -0.4772 -0.5154 -1.2908
   73CHL1  H12A 6540   2.634  -0.142   4.484  1.8447  0.7373  0.2201
   73CHL1  H12B 6541   2.495  -0.049   4.458 -0.1818 -0.4129  1.0004
   73CHL1   C11 6542   2.633  -0.033   4.295  0.1137  0.7524 -0.0401
   73CHL1  H11A 6543   2.738  -0.057   4.269 -1.0667 -2.9947 -2.1662
   73CHL1  H11B 6544   2.579  -0.110   4.235  0.5718  0.5073 -0.1455
   73CHL1    C9 6545   2.578   0.101   4.238 -0.6572 -0.4608 -0.2369
   73CHL1    H9 6546   2.470   0.105   4.260 -0.6268 -1.7726  0.2295
   73CHL1   C10 6547   2.605   0.118   4.085  0.3788  0.3068  0.1851
   73CHL1   C19 6548   2.751   0.083   4.049 -0.2944  0.2011  0.3560
   73CHL1  H19A 6549   2.764  -0.026   4.067  0.9859  0.4011  0.7309
   73CHL1  H19B 6550   2.784   0.109   3.947  1.1900  2.5210  1.3447
   73CHL1  H19C 6551   2.825   0.134   4.115 -0.8342  0.0583  1.0911
   73CHL1    C1 6552   2.514   0.018   4.006 -0.4003 -0.0105  0.8208
   73CHL1   H1A 6553   2.561  -0.080   4.029  0.8894  0.1467 -0.9375
   73CHL1   H1B 6554   2.412   0.023   4.049 -0.0309 -0.4215  1.7875
   73CHL1    C2 6555   2.524   0.039   3.853  0.9297  0.6678  0.2804
   73CHL1   H2A 6556   2.452  -0.029   3.802  2.4425 -1.7114  1.1535
   73CHL1   H2B 6557   2.621   0.004   3.812  0.5040  1.8957 -1.9169
   73CHL1   C20 6558   2.706   0.034   4.788 -0.6206 -0.3990 -0.0824
   73CHL1   H20 6559   2.810   0.074   4.781 -0.7360 -0.0628  0.0986
   73CHL1   C21 6560   2.712  -0.119   4.776  0.1208  0.0192  0.4922
   73CHL1  H21A 6561   2.784  -0.170   4.843 -1.9327 -2.3148  1.0739
   73CHL1  H21B 6562   2.738  -0.140   4.670  0.2708  1.0547  0.3118
   73CHL1  H21C 6563   2.613  -0.162   4.803  0.4096 -0.9916 -0.0174
   73CHL1   C22 6564   2.653   0.070   4.927 -0.4637 -0.3550  0.0052
   73CHL1  H22A 6565   2.642   0.180   4.929  2.5767  0.0508 -0.3120
   73CHL1  H22B 6566   2.554   0.022   4.942  0.6737 -2.2059  2.4540
   73CHL1   C23 6567   2.740   0.025   5.045 -0.0275  0.0759 -0.0321
   73CHL1  H23A 6568   2.771  -0.081   5.055  0.0028  0.1955  1.4104
   73CHL1  H23B 6569   2.840   0.072   5.029 -0.5620  1.2076 -0.1629
   73CHL1   C24 6570   2.686   0.057   5.179  1.0365 -0.2028 -0.1999
   73CHL1  H24A 6571   2.669   0.167   5.186  4.0368  0.3794 -0.3826
   73CHL1  H24B 6572   2.588   0.007   5.189 -0.1311  2.0197  0.2414
   73CHL1   C25 6573   2.784   0.015   5.296  0.0415  0.1821  0.2017
   73CHL1   H25 6574   2.735   0.031   5.395 -0.5169 -0.5781  0.0564
   73CHL1   C26 6575   2.842  -0.127   5.299 -0.0739  0.3169  0.3623
   73CHL1  H26A 6576   2.885  -0.146   5.400 -1.5972  3.4967  1.7516
   73CHL1  H26B 6577   2.764  -0.198   5.265  1.7643 -0.4555 -2.6005
   73CHL1  H26C 6578   2.913  -0.136   5.215  2.2197  1.0212  2.1245
   73CHL1   C27 6579   2.903   0.109   5.299  1.1624  0.8791  0.5386
   73CHL1  H27A 6580   2.956   0.105   5.396  1.5359 -2.4218  0.3140
   73CHL1  H27B 6581   2.977   0.072   5.225 -0.8294  0.0987 -1.1700
   73CHL1  H27C 6582   2.869   0.212   5.274 -3.0689 -0.4991 -0.1428
   74CHL1    C3 6583   6.412   3.067   4.067  0.0314  0.4792  0.9236
   74CHL1    H3 6584   6.399   2.997   4.153 -0.3418 -0.1083  0.3983
   74CHL1    O3 6585   6.376   3.002   3.947  0.0267  0.2122  0.2975
   74CHL1   H3' 6586   6.327   3.065   3.892  0.1913 -1.6593 -2.1890
   74CHL1    C4 6587   6.337   3.201   4.087 -1.0124  0.3821 -1.1531
   74CHL1   H4A 6588   6.362   3.274   4.007 -0.6513 -1.0704 -2.4048
   74CHL1   H4B 6589   6.231   3.173   4.070 -0.6023 -1.5799 -0.6968
   74CHL1    C5 6590   6.362   3.259   4.227 -0.5427 -0.1817 -0.2895
   74CHL1    C6 6591   6.264   3.296   4.308 -0.1133  0.4424  0.1638
   74CHL1    H6 6592   6.158   3.285   4.278  0.5057  1.1136 -2.4618
   74CHL1    C7 6593   6.283   3.344   4.451 -0.6633 -0.4049 -0.1653
   74CHL1   H7A 6594   6.211   3.428   4.463  0.5480  0.2491  5.0100
   74CHL1   H7B 6595   6.253   3.260   4.518 -1.3560  0.8008  1.0907
   74CHL1    C8 6596   6.430   3.384   4.484 -0.4430  0.2743 -0.2792
   74CHL1    H8 6597   6.450   3.488   4.449  1.0819  0.8403  2.0685
   74CHL1   C14 6598   6.454   3.387   4.633 -0.6349  0.5739 -0.2666
   74CHL1   H14 6599   6.446   3.279   4.658  0.2910  0.6493  0.3858
   74CHL1   C15 6600   6.353   3.454   4.718  0.1043 -0.0291 -0.0713
   74CHL1  H15A 6601   6.330   3.554   4.676  0.0696  1.0085  2.2726
   74CHL1  H15B 6602   6.248   3.419   4.730 -0.0587  0.5189  0.1386
   74CHL1   C16 6603   6.426   3.480   4.855  0.3882  0.1588  0.3011
   74CHL1  H16A 6604   6.433   3.588   4.877 -0.9751  0.6809 -1.6296
   74CHL1  H16B 6605   6.391   3.419   4.941 -1.2880 -1.2619 -1.3015
   74CHL1   C17 6606   6.578   3.425   4.828  0.5731 -0.8936 -1.0056
   74CHL1   H17 6607   6.569   3.320   4.863  1.2286  0.2241  3.0584
   74CHL1   C13 6608   6.591   3.426   4.675 -0.5859 -0.1535 -0.4930
   74CHL1   C18 6609   6.641   3.566   4.633  0.4609  0.1736 -0.5285
   74CHL1  H18A 6610   6.655   3.577   4.523  3.7001  0.0639 -0.2234
   74CHL1  H18B 6611   6.564   3.637   4.669 -0.0247  0.3017 -1.7845
   74CHL1  H18C 6612   6.736   3.596   4.681  1.1805 -0.6178 -1.4138
   74CHL1   C12 6613   6.695   3.330   4.618  0.8913  0.1478 -0.0244
   74CHL1  H12A 6614   6.800   3.363   4.634  0.5275  1.5774 -0.4717
   74CHL1  H12B 6615   6.679   3.237   4.677  1.7320 -0.4425 -0.7060
   74CHL1   C11 6616   6.680   3.315   4.462 -0.6216  0.7110 -0.6064
   74CHL1  H11A 6617   6.716   3.410   4.416 -0.4923  1.2010  0.4749
   74CHL1  H11B 6618   6.753   3.235   4.438 -0.4856  0.3266  0.9988
   74CHL1    C9 6619   6.537   3.285   4.418  0.4147 -0.4978 -0.4601
   74CHL1    H9 6620   6.505   3.187   4.460 -1.4845 -0.0133 -0.6834
   74CHL1   C10 6621   6.513   3.272   4.261 -0.5188 -0.1624 -1.0262
   74CHL1   C19 6622   6.567   3.395   4.191  0.3044  0.1303 -0.7336
   74CHL1  H19A 6623   6.537   3.486   4.246  0.4916  0.8134 -1.7488
   74CHL1  H19B 6624   6.678   3.394   4.187  0.3050 -2.3564 -3.5686
   74CHL1  H19C 6625   6.535   3.407   4.085 -0.4957  0.2998 -0.4799
   74CHL1    C1 6626   6.598   3.146   4.217  0.2116 -0.0067 -0.2917
   74CHL1   H1A 6627   6.708   3.162   4.222  0.1288  1.2473 -1.9111
   74CHL1   H1B 6628   6.577   3.061   4.285 -2.4402  1.3667  0.7829
   74CHL1    C2 6629   6.564   3.089   4.077  0.8419  0.0547 -0.0341
   74CHL1   H2A 6630   6.616   2.996   4.043 -0.3600 -0.2458 -1.1355
   74CHL1   H2B 6631   6.597   3.165   4.003  0.1001 -0.5156 -0.9854
   74CHL1   C20 6632   6.685   3.494   4.925  0.3745  0.3305  0.5092
   74CHL1   H20 6633   6.705   3.599   4.895 -4.1078  0.7701 -1.7825
   74CHL1   C21 6634   6.804   3.388   4.929 -0.1911 -0.2200 -0.1174
   74CHL1  H21A 6635   6.831   3.354   4.827  0.4113  1.0635 -0.3965
   74CHL1  H21B 6636   6.804   3.307   5.005 -0.4952 -0.9697 -0.8935
   74CHL1  H21C 6637   6.896   3.446   4.950 -0.1081 -0.2012 -0.5243
   74CHL1   C22 6638   6.634   3.507   5.073  0.0888 -0.0217  0.3835
   74CHL1  H22A 6639   6.555   3.585   5.078  0.2373  0.0214  3.2448
   74CHL1  H22B 6640   6.585   3.421   5.123 -1.1879  1.2377  1.3796
   74CHL1   C23 6641   6.741   3.552   5.170  0.1804 -0.1560  0.0815
   74CHL1  H23A 6642   6.796   3.460   5.201  1.3376  0.0087 -1.3320
   74CHL1  H23B 6643   6.823   3.612   5.125  1.2499  0.0924  2.2410
   74CHL1   C24 6644   6.689   3.628   5.293  0.3882 -0.1221 -0.4961
   74CHL1  H24A 6645   6.637   3.724   5.269  0.5225 -0.5027 -2.4342
   74CHL1  H24B 6646   6.622   3.558   5.347  3.9518 -1.7756  2.2114
   74CHL1   C25 6647   6.806   3.657   5.392 -0.4963  0.2494 -0.2172
   74CHL1   H25 6648   6.890   3.708   5.341 -1.6133  3.1917  0.6370
   74CHL1   C26 6649   6.759   3.756   5.503 -0.8937 -0.0344 -0.7059
   74CHL1  H26A 6650   6.676   3.732   5.573  0.5462 -0.1795  1.0145
   74CHL1  H26B 6651   6.846   3.773   5.571 -1.0921  1.6335 -0.8144
   74CHL1  H26C 6652   6.751   3.858   5.460  0.9204  0.3379 -0.2716
   74CHL1   C27 6653   6.864   3.522   5.451 -0.3914  0.8820 -0.5423
   74CHL1  H27A 6654   6.917   3.460   5.376  1.8488 -0.9296  2.3209
   74CHL1  H27B 6655   6.944   3.552   5.522 -1.9389  0.9455  1.2398
   74CHL1  H27C 6656   6.785   3.468   5.508  0.0082  4.2442  3.7518
   75CHL1    C3 6657   0.598   3.828   3.739 -0.2763  0.2751 -0.0045
   75CHL1    H3 6658   0.631   3.724   3.763 -2.2798  0.1752  2.9248
   75CHL1    O3 6659   0.553   3.830   3.607  0.3519 -0.0490 -0.1980
   75CHL1   H3' 6660   0.543   3.924   3.591  1.1339  0.3386  1.3926
   75CHL1    C4 6661   0.489   3.864   3.841  0.4395  0.2723  0.1242
   75CHL1   H4A 6662   0.456   3.966   3.812  2.0929  0.4252 -1.3148
   75CHL1   H4B 6663   0.402   3.794   3.838 -0.5134  1.2090  2.7382
   75CHL1    C5 6664   0.533   3.858   3.984 -0.0557 -0.1177 -0.6110
   75CHL1    C6 6665   0.468   3.780   4.074  0.1957  0.6062 -0.2768
   75CHL1    H6 6666   0.384   3.718   4.040 -0.8170  0.3974  2.3555
   75CHL1    C7 6667   0.509   3.768   4.227  0.2605  0.3871  0.2669
   75CHL1   H7A 6668   0.416   3.767   4.287 -1.0254 -3.4349 -1.4139
   75CHL1   H7B 6669   0.542   3.662   4.234 -0.1168  0.2516  0.0169
   75CHL1    C8 6670   0.622   3.860   4.262 -0.4561 -1.1410  0.1514
   75CHL1    H8 6671   0.595   3.967   4.264  2.6028 -0.2665  2.9154
   75CHL1   C14 6672   0.687   3.827   4.395 -0.7430 -0.1126  0.2776
   75CHL1   H14 6673   0.730   3.724   4.391 -1.4447 -0.4187  0.6167
   75CHL1   C15 6674   0.594   3.817   4.510 -0.6078 -0.3011 -0.4582
   75CHL1  H15A 6675   0.517   3.896   4.511 -0.3141 -0.0051  1.4295
   75CHL1  H15B 6676   0.547   3.717   4.514 -1.0075 -0.1863 -1.7739
   75CHL1   C16 6677   0.675   3.827   4.628 -0.5592  0.6316  0.0748
   75CHL1  H16A 6678   0.640   3.910   4.692 -1.0623  0.0977  0.4959
   75CHL1  H16B 6679   0.680   3.734   4.688 -2.1875 -1.2988 -2.5445
   75CHL1   C17 6680   0.825   3.869   4.578 -0.2921  0.0724 -0.6814
   75CHL1   H17 6681   0.877   3.771   4.569 -0.8932 -0.1544 -1.8676
   75CHL1   C13 6682   0.801   3.920   4.439 -0.1331 -0.2549  0.0609
   75CHL1   C18 6683   0.756   4.066   4.442 -0.4675 -0.1633  0.0032
   75CHL1  H18A 6684   0.671   4.073   4.513 -0.7627  0.1072 -0.3714
   75CHL1  H18B 6685   0.841   4.133   4.470  1.0716 -0.7044 -2.9878
   75CHL1  H18C 6686   0.714   4.097   4.344  1.2010  1.2558 -0.3253
   75CHL1   C12 6687   0.915   3.898   4.346  0.0650 -0.2140  0.0470
   75CHL1  H12A 6688   0.990   3.978   4.364 -0.0594 -0.7136  3.2304
   75CHL1  H12B 6689   0.968   3.801   4.362  0.8705  0.0240 -1.0661
   75CHL1   C11 6690   0.878   3.907   4.194 -0.8421  0.2842  0.2741
   75CHL1  H11A 6691   0.884   4.013   4.162  0.6171  0.2160  0.2738
   75CHL1  H11B 6692   0.948   3.849   4.129 -0.5911  1.4293 -0.4964
   75CHL1    C9 6693   0.732   3.857   4.151  0.0089  0.4183  0.0765
   75CHL1    H9 6694   0.740   3.749   4.125 -3.1540 -0.0433  0.6431
   75CHL1   C10 6695   0.675   3.918   4.016  0.3423  0.3693 -0.1562
   75CHL1   C19 6696   0.645   4.073   4.031  0.2667  0.3211 -0.2079
   75CHL1  H19A 6697   0.618   4.123   3.936 -1.2023 -0.4788 -0.2495
   75CHL1  H19B 6698   0.561   4.096   4.101  0.2344 -1.3901  0.3619
   75CHL1  H19C 6699   0.741   4.111   4.072  1.9422 -1.4664 -2.2265
   75CHL1    C1 6700   0.778   3.899   3.896  0.1326  0.0066  0.1022
   75CHL1   H1A 6701   0.861   3.971   3.910 -0.1543  0.2649  0.5079
   75CHL1   H1B 6702   0.814   3.795   3.910 -0.6680 -0.2738  0.1434
   75CHL1    C2 6703   0.710   3.928   3.762 -0.2293  0.0555 -0.3591
   75CHL1   H2A 6704   0.780   3.905   3.678  1.6199 -1.8883  1.5834
   75CHL1   H2B 6705   0.666   4.030   3.761 -2.6226 -0.9070 -2.1008
   75CHL1   C20 6706   0.897   3.954   4.680 -0.4061 -0.4125  0.5752
   75CHL1   H20 6707   0.839   4.048   4.681 -1.3848 -0.9836 -0.4587
   75CHL1   C21 6708   1.040   3.980   4.631  0.1337  0.3907 -0.4159
   75CHL1  H21A 6709   1.091   3.901   4.573  0.5036  0.3638 -0.0569
   75CHL1  H21B 6710   1.108   4.001   4.716 -1.1133  2.1471  0.2019
   75CHL1  H21C 6711   1.037   4.080   4.582 -0.9352  1.0906  1.0131
   75CHL1   C22 6712   0.898   3.903   4.829  0.1247  0.5953  0.5690
   75CHL1  H22A 6713   0.935   3.987   4.891 -1.6155  1.9336 -0.1111
   75CHL1  H22B 6714   0.794   3.878   4.859 -0.4915  1.5577 -0.6764
   75CHL1   C23 6715   0.986   3.778   4.865  0.2912 -0.5206 -0.0355
   75CHL1  H23A 6716   0.927   3.693   4.824 -1.5439  0.2819  0.8330
   75CHL1  H23B 6717   1.087   3.785   4.821  0.4705  0.8161  0.5426
   75CHL1   C24 6718   1.008   3.762   5.022  0.4188  0.5070  0.3240
   75CHL1  H24A 6719   1.041   3.862   5.058  0.1791  1.1091 -1.0804
   75CHL1  H24B 6720   0.906   3.742   5.060  0.4653 -1.0089 -0.2739
   75CHL1   C25 6721   1.096   3.648   5.080  0.1733 -0.2404  0.8043
   75CHL1   H25 6722   1.066   3.562   5.017 -0.5426  1.6814 -1.6492
   75CHL1   C26 6723   1.248   3.681   5.056 -0.2136 -0.4086  0.3149
   75CHL1  H26A 6724   1.300   3.590   5.093  2.0030 -0.1434 -1.8744
   75CHL1  H26B 6725   1.275   3.705   4.951 -1.0785 -0.9311 -0.0328
   75CHL1  H26C 6726   1.284   3.768   5.114  0.3581 -0.7033  0.4097
   75CHL1   C27 6727   1.060   3.627   5.228 -0.7287 -0.4232  0.2035
   75CHL1  H27A 6728   1.095   3.532   5.276 -1.6699 -0.3167  1.1483
   75CHL1  H27B 6729   1.088   3.715   5.289  0.7198 -0.4267 -0.4222
   75CHL1  H27C 6730   0.950   3.634   5.235 -0.6432  0.8863  0.3057
   76CHL1    C3 6731   0.507   6.092   4.115  0.0695  0.1882  0.1135
   76CHL1    H3 6732   0.419   6.025   4.126  1.6847 -2.2192 -0.7062
   76CHL1    O3 6733   0.542   6.075   3.978  0.4377  0.3808  0.5069
   76CHL1   H3' 6734   0.625   6.121   3.962  3.0362 -4.1355 -0.5532
   76CHL1    C4 6735   0.475   6.239   4.144 -0.1427  0.6063 -0.4959
   76CHL1   H4A 6736   0.560   6.301   4.109  1.8599 -1.3749  0.6169
   76CHL1   H4B 6737   0.387   6.255   4.078 -0.0386  1.5041 -0.4212
   76CHL1    C5 6738   0.455   6.268   4.293 -0.6558 -0.0984 -0.4951
   76CHL1    C6 6739   0.348   6.326   4.339 -0.0894 -0.7820  0.4617
   76CHL1    H6 6740   0.276   6.366   4.266  0.4482 -1.5450 -0.5004
   76CHL1    C7 6741   0.338   6.377   4.480 -0.4539  0.2045  0.5093
   76CHL1   H7A 6742   0.298   6.480   4.497 -0.9343  0.3640 -1.3595
   76CHL1   H7B 6743   0.256   6.315   4.523 -2.5749  2.8904  0.6894
   76CHL1    C8 6744   0.463   6.348   4.563  0.1679 -0.7863 -0.4138
   76CHL1    H8 6745   0.533   6.431   4.539  0.2951 -0.3286  1.4602
   76CHL1   C14 6746   0.426   6.362   4.707 -0.0097 -0.2134  0.3643
   76CHL1   H14 6747   0.356   6.278   4.724  1.4437 -1.3051  1.2466
   76CHL1   C15 6748   0.358   6.498   4.748  0.2407  0.1925  0.6278
   76CHL1  H15A 6749   0.406   6.582   4.693  0.0555 -0.1605 -0.0892
   76CHL1  H15B 6750   0.247   6.488   4.748  0.3635 -1.5313  1.3958
   76CHL1   C16 6751   0.384   6.510   4.898 -0.0578 -0.4496  0.1728
   76CHL1  H16A 6752   0.434   6.606   4.923 -0.3996 -0.3609  0.5318
   76CHL1  H16B 6753   0.292   6.513   4.961 -0.4440  0.2798 -0.4140
   76CHL1   C17 6754   0.468   6.387   4.940 -0.7092  0.5600  0.5942
   76CHL1   H17 6755   0.386   6.313   4.952  0.0834 -0.5997 -0.7377
   76CHL1   C13 6756   0.542   6.352   4.805  0.2166  0.8712  0.0066
   76CHL1   C18 6757   0.656   6.450   4.787 -0.2690 -0.1894 -0.0395
   76CHL1  H18A 6758   0.733   6.427   4.864  0.6297  0.7529 -0.6224
   76CHL1  H18B 6759   0.702   6.440   4.686 -0.1921  1.6031 -0.2150
   76CHL1  H18C 6760   0.626   6.555   4.805  0.1742  0.0008 -0.3740
   76CHL1   C12 6761   0.598   6.207   4.783 -0.2512  0.3018  0.0389
   76CHL1  H12A 6762   0.694   6.193   4.835 -0.9404 -2.7798  0.6617
   76CHL1  H12B 6763   0.520   6.133   4.811  0.2561 -1.1425 -2.1271
   76CHL1   C11 6764   0.640   6.190   4.632 -0.5454 -0.8375 -0.7968
   76CHL1  H11A 6765   0.742   6.235   4.627 -0.7222 -0.2607  0.3750
   76CHL1  H11B 6766   0.659   6.080   4.632 -1.6998 -1.0496 -0.6534
   76CHL1    C9 6767   0.532   6.223   4.533 -0.1754 -0.8419  1.0327
   76CHL1    H9 6768   0.450   6.148   4.540 -1.6660  0.1180 -3.1853
   76CHL1   C10 6769   0.574   6.221   4.378  0.0591  0.3606  0.5615
   76CHL1   C19 6770   0.703   6.312   4.346 -0.1498  0.0061 -0.2337
   76CHL1  H19A 6771   0.780   6.277   4.418  0.3810  0.7132 -0.4442
   76CHL1  H19B 6772   0.737   6.304   4.241 -0.7522  2.4656 -0.6814
   76CHL1  H19C 6773   0.695   6.423   4.353 -0.2078  0.3530 -3.9622
   76CHL1    C1 6774   0.603   6.066   4.348  0.0438 -0.3687  0.1471
   76CHL1   H1A 6775   0.683   6.023   4.411 -0.9201 -4.4353 -1.1252
   76CHL1   H1B 6776   0.512   6.013   4.383 -0.3080 -0.7129 -1.2222
   76CHL1    C2 6777   0.621   6.030   4.195 -0.5320 -0.6169 -0.2040
   76CHL1   H2A 6778   0.629   5.919   4.188  0.8194 -1.2719  5.9025
   76CHL1   H2B 6779   0.718   6.074   4.163  1.0236 -0.9678  3.4668
   76CHL1   C20 6780   0.531   6.394   5.074 -0.5877  0.4511 -0.2707
   76CHL1   H20 6781   0.614   6.467   5.075 -0.7775  0.7126  1.9339
   76CHL1   C21 6782   0.585   6.248   5.113  0.3907 -0.1334 -0.0850
   76CHL1  H21A 6783   0.632   6.255   5.214 -2.6764  0.1006  1.4319
   76CHL1  H21B 6784   0.651   6.214   5.030  0.9595 -0.7717  0.6117
   76CHL1  H21C 6785   0.493   6.186   5.116  1.0154 -1.1092 -0.5879
   76CHL1   C22 6786   0.429   6.439   5.183  0.4724  0.0358 -0.9929
   76CHL1  H22A 6787   0.406   6.544   5.153  1.2665  1.2255  2.1443
   76CHL1  H22B 6788   0.339   6.374   5.185 -1.1042  2.0423 -2.4839
   76CHL1   C23 6789   0.480   6.457   5.323  0.4052  0.3182 -0.1159
   76CHL1  H23A 6790   0.545   6.371   5.350 -1.6100 -1.1644  0.2163
   76CHL1  H23B 6791   0.547   6.546   5.323  2.2660 -0.9860 -2.2845
   76CHL1   C24 6792   0.357   6.471   5.413 -0.2812  0.0507 -0.1023
   76CHL1  H24A 6793   0.296   6.552   5.367 -0.1986 -0.1229 -0.5255
   76CHL1  H24B 6794   0.284   6.387   5.399 -0.9077  0.9762 -3.0521
   76CHL1   C25 6795   0.382   6.509   5.558  0.0224 -0.6236 -0.1292
   76CHL1   H25 6796   0.471   6.448   5.587  1.2746  0.6609 -1.1299
   76CHL1   C26 6797   0.423   6.665   5.576  0.1871 -0.6686 -0.0249
   76CHL1  H26A 6798   0.340   6.734   5.550  0.8891  0.1561 -0.0844
   76CHL1  H26B 6799   0.453   6.685   5.681  1.1394  1.4576 -0.6500
   76CHL1  H26C 6800   0.510   6.686   5.510 -0.3549  2.0758  0.0071
   76CHL1   C27 6801   0.267   6.477   5.652  0.0620 -0.2813 -0.0927
   76CHL1  H27A 6802   0.165   6.505   5.615  0.1120  0.7379  0.4858
   76CHL1  H27B 6803   0.268   6.372   5.686  0.9527 -0.4694 -0.6685
   76CHL1  H27C 6804   0.289   6.535   5.744 -0.0477  1.1952 -0.9544
   77SOPE     N 6805   3.078   4.262   8.045 -0.2274  0.1809 -0.3332
   77SOPE   HN1 6806   3.074   4.269   8.149  0.6814  0.3651 -0.3060
   77SOPE   HN2 6807   3.174   4.245   8.008  0.4200 -1.7377  1.9350
   77SOPE   HN3 6808   3.044   4.354   8.010 -0.5605  0.1136 -0.1979
   77SOPE   C12 6809   2.979   4.157   7.999 -1.2704  0.1571 -0.4370
   77SOPE  H12A 6810   2.875   4.195   8.011 -1.6738 -0.8337 -0.6977
   77SOPE  H12B 6811   2.998   4.074   8.070  0.0873  0.0538 -0.8958
   77SOPE   C11 6812   3.022   4.121   7.856 -0.2670 -0.0744 -0.0245
   77SOPE  H11A 6813   2.967   4.036   7.810 -0.2175 -0.5887  0.8507
   77SOPE  H11B 6814   3.128   4.086   7.859  0.4430  1.7858 -1.4475
   77SOPE     P 6815   2.875   4.273   7.712  0.2077  0.0235 -0.3934
   77SOPE   O13 6816   2.902   4.411   7.653 -0.5470  0.1592 -0.1918
   77SOPE   O14 6817   2.776   4.264   7.817 -0.6743 -0.0004  0.3305
   77SOPE   O12 6818   3.014   4.228   7.767  0.1923 -0.1838  0.1235
   77SOPE   O11 6819   2.852   4.165   7.603 -0.0737 -0.3291 -0.4648
   77SOPE    C1 6820   2.940   4.146   7.493 -0.6614 -0.5658  0.4018
   77SOPE    HA 6821   2.947   4.038   7.465  0.4695 -0.8349  1.6269
   77SOPE    HB 6822   3.048   4.165   7.513 -1.1346  1.6620  1.1418
   77SOPE    C2 6823   2.890   4.225   7.373 -0.0591 -0.2555  0.3126
   77SOPE    HS 6824   2.881   4.332   7.402  1.3066 -0.0976  0.2393
   77SOPE   O21 6825   2.756   4.175   7.347 -0.1735  0.4891 -0.1203
   77SOPE   C21 6826   2.737   4.062   7.273  0.3999 -0.3917  1.0717
   77SOPE   O22 6827   2.817   3.977   7.244 -0.0402  0.2001 -0.2795
   77SOPE   C22 6828   2.594   4.070   7.226  0.3871  0.7562 -0.2086
   77SOPE   H2R 6829   2.587   4.164   7.166  0.4666  0.0265 -1.3952
   77SOPE   H2S 6830   2.523   4.079   7.311  0.2476  1.4033 -0.3839
   77SOPE    C3 6831   2.982   4.217   7.249 -0.1640 -0.1478 -0.1815
   77SOPE    HX 6832   3.001   4.108   7.238  0.0928  0.0413 -1.9204
   77SOPE    HY 6833   3.083   4.262   7.258  1.3430 -3.4864  1.0202
   77SOPE   O31 6834   2.916   4.264   7.125 -0.0271  0.5049 -0.4193
   77SOPE   C31 6835   2.913   4.390   7.112 -0.4036  0.1487  0.2466
   77SOPE   O32 6836   2.972   4.473   7.184  0.6036  0.0476 -0.3091
   77SOPE   C32 6837   2.829   4.427   6.994 -0.1696  0.0443 -0.2215
   77SOPE   H2X 6838   2.855   4.531   6.966 -0.8817 -0.3417 -2.6236
   77SOPE   H2Y 6839   2.722   4.408   7.015  0.4649 -1.7869  1.7540
   77SOPE   C23 6840   2.549   3.946   7.148  0.0664  0.6073 -0.6055
   77SOPE   H3R 6841   2.510   3.881   7.229 -0.7555  0.1984 -1.3172
   77SOPE   H3S 6842   2.633   3.893   7.098  1.1087  0.3479  1.3207
   77SOPE   C24 6843   2.431   3.954   7.044 -0.0181 -0.3216  0.9657
   77SOPE   H4R 6844   2.404   3.850   7.016  0.8693 -0.8713  2.0591
   77SOPE   H4S 6845   2.340   3.998   7.092  1.2815  2.9407  0.6897
   77SOPE   C25 6846   2.468   4.044   6.921 -0.3476 -0.1235 -0.6838
   77SOPE   H5R 6847   2.478   4.148   6.958  0.4283 -0.1607 -0.7752
   77SOPE   H5S 6848   2.563   4.018   6.870 -0.5265  0.0112 -1.0870
   77SOPE   C26 6849   2.361   4.029   6.815  0.3584  0.0587  0.7936
   77SOPE   H6R 6850   2.348   3.921   6.792 -1.0678  0.2757  0.4665
   77SOPE   H6S 6851   2.262   4.047   6.864  0.8621  0.0034  1.8506
   77SOPE   C27 6852   2.382   4.123   6.698  0.3816 -0.2471 -0.5525
   77SOPE   H7R 6853   2.303   4.113   6.621  0.5834 -2.1226 -0.5478
   77SOPE   H7S 6854   2.382   4.227   6.738  0.2541  0.1977 -1.6528
   77SOPE   C28 6855   2.502   4.099   6.615 -0.5379  0.4535  0.4652
   77SOPE   H8R 6856   2.501   4.185   6.544 -0.2489 -1.4115 -1.9448
   77SOPE   H8S 6857   2.591   4.102   6.681  0.3573 -2.1339 -0.4865
   77SOPE   C29 6858   2.505   3.963   6.540 -0.2194 -0.8785  1.1299
   77SOPE   H91 6859   2.522   3.875   6.604 -0.2689 -0.4293  1.7624
   77SOPE  C210 6860   2.471   3.936   6.407  0.0491 -0.1371  0.5782
   77SOPE  H101 6861   2.475   3.833   6.369 -1.6076 -0.3856  1.0231
   77SOPE  C211 6862   2.429   4.036   6.305 -0.2905 -0.3915 -0.0036
   77SOPE  H11R 6863   2.427   4.137   6.350 -2.5865 -0.9355  1.2644
   77SOPE  H11S 6864   2.320   4.027   6.285  0.0924  0.3144 -2.9804
   77SOPE  C212 6865   2.506   4.036   6.172  0.2290 -0.2679 -1.0810
   77SOPE  H12R 6866   2.614   4.015   6.185  0.1676 -2.0333 -2.9678
   77SOPE  H12S 6867   2.490   4.139   6.135  1.3817  0.9317  1.5042
   77SOPE  C213 6868   2.452   3.917   6.087 -1.3175 -0.2456 -0.5664
   77SOPE  H13R 6869   2.344   3.939   6.073 -0.8788  1.9508 -0.8566
   77SOPE  H13S 6870   2.455   3.824   6.147 -1.7944 -0.1557 -0.3965
   77SOPE  C214 6871   2.519   3.909   5.949 -1.3177 -0.2740 -0.2480
   77SOPE  H14R 6872   2.628   3.898   5.967 -1.6775 -0.6447  1.9734
   77SOPE  H14S 6873   2.517   4.008   5.898  1.6338  0.0904  0.1778
   77SOPE  C215 6874   2.478   3.794   5.858  0.5102 -0.3747 -0.9037
   77SOPE  H15R 6875   2.369   3.772   5.863  0.2831  0.5671  4.5329
   77SOPE  H15S 6876   2.510   3.702   5.910 -0.7326 -0.2343  0.1817
   77SOPE  C216 6877   2.531   3.788   5.712  0.3934  0.3290 -0.2323
   77SOPE  H16R 6878   2.641   3.803   5.721  0.1630  1.1087  2.0507
   77SOPE  H16S 6879   2.479   3.865   5.652 -0.0726  0.9432  0.9180
   77SOPE  C217 6880   2.509   3.655   5.633 -0.1090 -0.0580 -0.5118
   77SOPE  H17R 6881   2.584   3.579   5.664 -0.2645 -0.2851 -0.6899
   77SOPE  H17S 6882   2.516   3.664   5.522  1.9906 -1.4822 -0.5529
   77SOPE  C218 6883   2.376   3.574   5.663 -0.0689 -0.6252 -0.1534
   77SOPE  H18R 6884   2.396   3.519   5.757  1.8125  0.0149 -0.1346
   77SOPE  H18S 6885   2.358   3.502   5.581 -0.0177  0.4741 -1.1556
   77SOPE  H18T 6886   2.293   3.639   5.698  0.6251 -0.3631  1.0495
   77SOPE   C33 6887   2.850   4.346   6.861 -0.0717  0.6707  0.2860
   77SOPE   H3X 6888   2.802   4.246   6.871  0.2271  0.5239  0.2715
   77SOPE   H3Y 6889   2.960   4.337   6.848 -0.1390 -1.3999  0.7792
   77SOPE   C34 6890   2.766   4.404   6.745 -0.2788 -0.2136  0.5702
   77SOPE   H4X 6891   2.782   4.512   6.727  2.1308 -0.7513 -0.9632
   77SOPE   H4Y 6892   2.656   4.391   6.760 -0.7915  1.9162 -0.9909
   77SOPE   C35 6893   2.782   4.337   6.608 -0.2615  0.4483 -0.2863
   77SOPE   H5X 6894   2.704   4.259   6.598  2.1062 -2.5440  2.3648
   77SOPE   H5Y 6895   2.883   4.292   6.600  0.5722  2.3579 -1.0432
   77SOPE   C36 6896   2.765   4.432   6.486  0.1907  0.6867 -0.4326
   77SOPE   H6X 6897   2.850   4.504   6.496 -1.1914  2.3825 -0.4459
   77SOPE   H6Y 6898   2.672   4.491   6.498  0.9141  1.5806  1.1826
   77SOPE   C37 6899   2.774   4.371   6.339 -0.3924 -0.1161 -0.6000
   77SOPE   H7X 6900   2.735   4.447   6.267  1.8751  1.6844 -0.0441
   77SOPE   H7Y 6901   2.706   4.283   6.337 -2.8770  1.6456  0.2908
   77SOPE   C38 6902   2.915   4.336   6.283 -0.0217  0.3080 -0.6212
   77SOPE   H8X 6903   2.973   4.301   6.371 -0.7183  0.2033 -0.1990
   77SOPE   H8Y 6904   2.964   4.427   6.241 -0.2093  1.0105  0.6252
   77SOPE   C39 6905   2.911   4.227   6.176 -0.8231  0.0967  0.2260
   77SOPE   H9X 6906   2.847   4.146   6.217  0.2332 -0.7510  0.2508
   77SOPE   H9Y 6907   3.008   4.182   6.144 -1.4912 -1.3631  0.1568
   77SOPE  C310 6908   2.833   4.261   6.048  0.2186 -0.1607  0.0127
   77SOPE  H10X 6909   2.875   4.353   6.003 -0.8117  0.3693  0.1149
   77SOPE  H10Y 6910   2.726   4.280   6.068 -0.3474 -1.4844 -1.5003
   77SOPE  C311 6911   2.856   4.154   5.939 -0.6481  0.4237  0.0227
   77SOPE  H11X 6912   2.833   4.054   5.983  3.2826 -0.6284  0.0589
   77SOPE  H11Y 6913   2.959   4.142   5.900 -0.6642  0.5394 -0.0551
   77SOPE  C312 6914   2.761   4.179   5.819 -0.2603  0.0219 -0.7741
   77SOPE  H12X 6915   2.763   4.285   5.786 -0.9235  0.6971  1.2523
   77SOPE  H12Y 6916   2.657   4.159   5.852  0.7641 -2.7603  1.1300
   77SOPE  C313 6917   2.792   4.098   5.702  0.3221 -0.3118 -0.3363
   77SOPE  H13X 6918   2.792   3.996   5.745 -1.2113  0.3062  1.2395
   77SOPE  H13Y 6919   2.896   4.116   5.668  1.1462 -3.5221  0.1761
   77SOPE  C314 6920   2.678   4.110   5.597  0.1523 -0.5783  0.4135
   77SOPE  H14X 6921   2.580   4.111   5.649  1.2022  1.5746  2.5480
   77SOPE  H14Y 6922   2.688   4.011   5.546  0.0266 -0.4145  0.0693
   77SOPE  C315 6923   2.705   4.224   5.501 -0.0948 -0.5041 -0.1010
   77SOPE  H15X 6924   2.809   4.239   5.467 -0.4771  1.4897 -0.4829
   77SOPE  H15Y 6925   2.674   4.321   5.546 -1.6711 -0.5549 -0.9851
   77SOPE  C316 6926   2.614   4.207   5.368  0.5553  0.0071 -0.2784
   77SOPE  H16X 6927   2.509   4.193   5.402  0.2343  3.8171  0.7311
   77SOPE  H16Y 6928   2.650   4.122   5.306 -1.1479 -1.3502  0.4907
   77SOPE  C317 6929   2.621   4.328   5.284 -0.4897 -0.2151  0.0287
   77SOPE  H17X 6930   2.718   4.342   5.232 -0.5231 -2.0253 -0.6079
   77SOPE  H17Y 6931   2.606   4.408   5.360 -0.4098 -1.5331  1.4915
   77SOPE  C318 6932   2.513   4.326   5.173  0.6769 -0.1775 -0.3218
   77SOPE  H18X 6933   2.412   4.327   5.218 -0.8774 -0.9636 -3.4747
   77SOPE  H18Y 6934   2.514   4.230   5.118 -0.3308 -0.0091 -0.6570
   77SOPE  H18Z 6935   2.517   4.407   5.097  1.2169  0.6083  0.5201
   78SOPE     N 6936   0.740   3.339   7.899  0.1405  0.5696  1.0750
   78SOPE   HN1 6937   0.746   3.279   7.815  1.6707 -0.2713  1.7299
   78SOPE   HN2 6938   0.776   3.434   7.880  1.3260 -0.4803 -2.7993
   78SOPE   HN3 6939   0.796   3.293   7.975  2.3275 -1.7048 -1.6880
   78SOPE   C12 6940   0.604   3.354   7.959  0.1741 -1.3087  0.2633
   78SOPE  H12A 6941   0.620   3.375   8.067  0.6812  0.5415 -0.1347
   78SOPE  H12B 6942   0.550   3.258   7.943 -0.4232 -0.6950 -1.8163
   78SOPE   C11 6943   0.523   3.465   7.887 -0.7432 -0.6190  0.3592
   78SOPE  H11A 6944   0.428   3.497   7.936 -0.1545  2.6976 -0.4384
   78SOPE  H11B 6945   0.482   3.404   7.804  0.3992 -1.9599  0.7522
   78SOPE     P 6946   0.514   3.680   7.742 -0.1076  0.0905  0.2363
   78SOPE   O13 6947   0.592   3.805   7.730  0.4715  0.1190  0.7576
   78SOPE   O14 6948   0.371   3.682   7.785 -0.1996 -0.1789  0.0123
   78SOPE   O12 6949   0.592   3.581   7.839  0.7359 -0.3989  0.1287
   78SOPE   O11 6950   0.524   3.601   7.602  0.0616  0.0582 -0.8335
   78SOPE    C1 6951   0.636   3.516   7.576 -0.5032 -0.0290  0.5380
   78SOPE    HA 6952   0.617   3.466   7.479  1.9314 -0.0160 -0.0198
   78SOPE    HB 6953   0.649   3.433   7.648 -2.9873 -1.2468 -0.3074
   78SOPE    C2 6954   0.771   3.587   7.553 -0.3465  0.4082  0.3980
   78SOPE    HS 6955   0.795   3.638   7.649 -0.9830 -2.4679  2.1853
   78SOPE   O21 6956   0.763   3.679   7.439 -0.2567  0.3784  0.4511
   78SOPE   C21 6957   0.865   3.778   7.443  0.1636 -1.0504  0.0520
   78SOPE   O22 6958   0.949   3.788   7.532  0.8697  0.5451  0.0934
   78SOPE   C22 6959   0.861   3.870   7.317 -0.4871 -0.1539 -0.6398
   78SOPE   H2R 6960   0.898   3.972   7.343 -2.0728  0.6323 -1.3548
   78SOPE   H2S 6961   0.756   3.885   7.284 -0.3909  0.0755 -0.8519
   78SOPE    C3 6962   0.879   3.479   7.527  0.6560  0.1869  0.1996
   78SOPE    HX 6963   0.854   3.398   7.598 -3.0091 -1.2619 -2.4303
   78SOPE    HY 6964   0.979   3.521   7.552  1.5054 -1.8809  0.5088
   78SOPE   O31 6965   0.876   3.425   7.392  0.7744  0.0698  0.0244
   78SOPE   C31 6966   0.981   3.444   7.312  0.8727 -0.2866 -0.4698
   78SOPE   O32 6967   1.071   3.528   7.327  0.0720  0.7333 -0.2462
   78SOPE   C32 6968   0.954   3.364   7.185  0.3818  0.1301 -0.0646
   78SOPE   H2X 6969   0.844   3.353   7.171  0.7132 -1.7934 -1.6806
   78SOPE   H2Y 6970   1.003   3.265   7.199  0.2038  0.2170  1.3333
   78SOPE   C23 6971   0.942   3.809   7.202 -0.3013  0.3014 -0.6074
   78SOPE   H3R 6972   0.904   3.706   7.183 -0.7957  0.3523  0.0464
   78SOPE   H3S 6973   1.050   3.805   7.228 -0.1381  0.3030 -1.2723
   78SOPE   C24 6974   0.940   3.887   7.070  0.2343  0.5564 -0.6570
   78SOPE   H4R 6975   0.841   3.867   7.024  1.5863 -0.9886 -3.0675
   78SOPE   H4S 6976   0.958   3.995   7.091  2.0052  0.2523 -0.4405
   78SOPE   C25 6977   1.051   3.840   6.977 -1.2030  0.2971 -0.7619
   78SOPE   H5R 6978   1.137   3.879   7.035 -2.0126  2.9131 -1.1634
   78SOPE   H5S 6979   1.057   3.731   6.957  2.8831  0.5189 -1.4138
   78SOPE   C26 6980   1.047   3.911   6.842 -0.0491 -0.3025 -0.2236
   78SOPE   H6R 6981   0.951   3.878   6.797  0.1358 -0.0069 -0.8496
   78SOPE   H6S 6982   1.050   4.022   6.847 -0.9892 -0.2679 -0.2451
   78SOPE   C27 6983   1.159   3.863   6.752  0.2731 -0.5667 -0.5222
   78SOPE   H7R 6984   1.256   3.902   6.790  0.2859 -1.2024  0.1165
   78SOPE   H7S 6985   1.168   3.753   6.762 -0.0725 -0.7848 -2.2485
   78SOPE   C28 6986   1.151   3.899   6.606 -0.4674  0.2242 -0.1094
   78SOPE   H8R 6987   1.122   4.007   6.600 -0.4868  0.2584  0.5148
   78SOPE   H8S 6988   1.243   3.882   6.547 -0.1842 -1.4502  0.7575
   78SOPE   C29 6989   1.047   3.823   6.531  0.2991  0.3930 -0.0526
   78SOPE   H91 6990   0.989   3.748   6.588 -1.2064  1.2792 -0.3405
   78SOPE  C210 6991   1.013   3.850   6.403  1.3097  0.1655  1.0421
   78SOPE  H101 6992   0.933   3.788   6.361  1.8029 -0.4591  1.0114
   78SOPE  C211 6993   1.086   3.938   6.305  0.0179 -0.3976  0.1115
   78SOPE  H11R 6994   1.154   3.883   6.236  0.1919 -2.1425  1.6152
   78SOPE  H11S 6995   1.158   4.005   6.358  0.9857 -1.7122  0.5164
   78SOPE  C212 6996   0.985   4.029   6.229 -0.3890 -0.0079  0.2673
   78SOPE  H12R 6997   1.036   4.112   6.175 -0.5769  0.8731  1.3975
   78SOPE  H12S 6998   0.912   4.078   6.297 -0.5502  0.2966 -0.1239
   78SOPE  C213 6999   0.897   3.950   6.133 -0.2380 -0.0273 -0.0039
   78SOPE  H13R 7000   0.840   4.020   6.067 -1.0530 -1.7158 -1.1678
   78SOPE  H13S 7001   0.828   3.888   6.194  0.2815  0.9367  1.6173
   78SOPE  C214 7002   0.967   3.855   6.040 -0.3286 -0.7604 -0.0725
   78SOPE  H14R 7003   0.892   3.821   5.965 -0.8163  0.6176 -0.2452
   78SOPE  H14S 7004   1.000   3.768   6.101 -1.0520 -1.0452 -0.0733
   78SOPE  C215 7005   1.082   3.907   5.947 -0.1393  0.1287  0.2133
   78SOPE  H15R 7006   1.160   3.958   6.008 -0.6573  0.2105  0.8260
   78SOPE  H15S 7007   1.054   3.981   5.868 -0.8694  1.4052  1.6101
   78SOPE  C216 7008   1.144   3.785   5.877 -1.0568 -0.3175 -0.1409
   78SOPE  H16R 7009   1.059   3.718   5.854 -0.5564 -1.7931  2.0083
   78SOPE  H16S 7010   1.205   3.728   5.951 -0.9180  0.4544  0.3620
   78SOPE  C217 7011   1.226   3.825   5.760 -0.6676 -0.3383  0.1354
   78SOPE  H17R 7012   1.298   3.908   5.778  1.5040 -2.0716 -0.0604
   78SOPE  H17S 7013   1.152   3.862   5.686 -0.8028 -1.9501 -0.5906
   78SOPE  C218 7014   1.321   3.725   5.697  0.4710  0.2481 -0.2389
   78SOPE  H18R 7015   1.263   3.634   5.670  2.6435 -1.1875 -0.3163
   78SOPE  H18S 7016   1.405   3.689   5.761  0.5049  1.2643  0.3011
   78SOPE  H18T 7017   1.366   3.768   5.605  0.2204  1.6237  0.2734
   78SOPE   C33 7018   1.028   3.434   7.067  0.0794  0.2837 -0.0786
   78SOPE   H3X 7019   1.135   3.450   7.091  0.5711 -2.2896 -0.2911
   78SOPE   H3Y 7020   0.978   3.532   7.049 -0.1908  0.1143 -0.2704
   78SOPE   C34 7021   1.008   3.363   6.929  0.5789 -0.2172  0.5219
   78SOPE   H4X 7022   0.912   3.307   6.930  0.9759 -1.0221 -1.5089
   78SOPE   H4Y 7023   1.097   3.300   6.909  1.3703  1.2966 -0.9412
   78SOPE   C35 7024   1.017   3.454   6.802  0.1400  0.5879  1.0278
   78SOPE   H5X 7025   1.112   3.512   6.800  0.2612  0.3726  0.0043
   78SOPE   H5Y 7026   0.938   3.531   6.817  1.0618  1.3419  2.1718
   78SOPE   C36 7027   1.002   3.370   6.668  0.5740 -0.5096 -0.4507
   78SOPE   H6X 7028   0.907   3.314   6.676 -0.6125  1.3834 -0.5494
   78SOPE   H6Y 7029   1.084   3.297   6.654  0.6478 -1.0255  2.0872
   78SOPE   C37 7030   0.998   3.462   6.552  0.2745 -0.3026  0.2693
   78SOPE   H7X 7031   1.098   3.490   6.514  0.3400  0.5366  1.0200
   78SOPE   H7Y 7032   0.947   3.558   6.577  0.9222  0.3425 -0.8451
   78SOPE   C38 7033   0.918   3.411   6.429  0.4523 -0.5990  0.3016
   78SOPE   H8X 7034   0.811   3.440   6.433  0.6572  0.3681 -0.5285
   78SOPE   H8Y 7035   0.920   3.301   6.435 -1.4075 -0.5957  4.4627
   78SOPE   C39 7036   0.971   3.467   6.289 -0.7003  0.7349 -0.9833
   78SOPE   H9X 7037   1.081   3.451   6.289 -0.5468  1.7011 -0.1151
   78SOPE   H9Y 7038   0.962   3.577   6.281  0.8506  1.0923  1.4471
   78SOPE  C310 7039   0.907   3.402   6.168 -0.3972  0.0370  0.2840
   78SOPE  H10X 7040   0.796   3.395   6.176 -0.5195  1.4143  0.0092
   78SOPE  H10Y 7041   0.966   3.308   6.162  0.4464  0.6638 -1.9567
   78SOPE  C311 7042   0.936   3.487   6.043  0.0760 -0.4018  0.5906
   78SOPE  H11X 7043   1.042   3.515   6.028 -0.5743  2.2830  0.4545
   78SOPE  H11Y 7044   0.886   3.586   6.038  0.9781  0.1320  1.7873
   78SOPE  C312 7045   0.897   3.411   5.915 -0.1068 -0.1044  0.3726
   78SOPE  H12X 7046   0.937   3.309   5.932  1.4685  0.4761  0.3278
   78SOPE  H12Y 7047   0.966   3.451   5.838 -0.6455 -1.5748 -0.9221
   78SOPE  C313 7048   0.747   3.414   5.874 -0.2914  0.0697  0.2008
   78SOPE  H13X 7049   0.686   3.370   5.956 -0.7473 -0.6972 -0.5328
   78SOPE  H13Y 7050   0.727   3.345   5.790 -1.4273 -2.5899  2.4893
   78SOPE  C314 7051   0.682   3.554   5.830 -0.2037 -0.1043  0.1408
   78SOPE  H14X 7052   0.689   3.633   5.907 -2.4631  3.6289 -3.1420
   78SOPE  H14Y 7053   0.576   3.532   5.807  0.3311  0.1856 -3.1985
   78SOPE  C315 7054   0.738   3.606   5.695 -0.2867 -0.6858  0.1649
   78SOPE  H15X 7055   0.693   3.562   5.603  1.0029  0.0730 -0.8705
   78SOPE  H15Y 7056   0.844   3.571   5.692 -0.9639 -2.8561 -1.5552
   78SOPE  C316 7057   0.728   3.755   5.685  1.3876 -0.0669  0.8050
   78SOPE  H16X 7058   0.764   3.805   5.778 -0.3378  0.9607  0.9687
   78SOPE  H16Y 7059   0.618   3.771   5.683  1.0698 -1.6152  2.6113
   78SOPE  C317 7060   0.797   3.818   5.567  0.2942  0.4622 -0.2338
   78SOPE  H17X 7061   0.762   3.779   5.469  0.3366 -0.8853  0.2693
   78SOPE  H17Y 7062   0.904   3.789   5.573  0.0195 -0.2006  2.2630
   78SOPE  C318 7063   0.782   3.969   5.551  0.1347 -0.7680  0.4508
   78SOPE  H18X 7064   0.811   4.030   5.639 -0.0200  1.4221 -0.9562
   78SOPE  H18Y 7065   0.680   4.009   5.537  0.6816  1.4909  2.4146
   78SOPE  H18Z 7066   0.854   4.007   5.475  1.1844  0.1032  1.8395
   79SOPE     N 7067   0.764   0.634   8.076 -0.0640  0.1808  0.7882
   79SOPE   HN1 7068   0.724   0.724   8.109  0.5817  0.7372  0.0961
   79SOPE   HN2 7069   0.697   0.558   8.054  1.8776 -1.5911  0.6374
   79SOPE   HN3 7070   0.819   0.590   8.153 -0.2816 -3.0302 -0.7192
   79SOPE   C12 7071   0.850   0.650   7.958 -0.4111  0.4846  1.1950
   79SOPE  H12A 7072   0.791   0.706   7.883  0.0642 -0.5328  0.0253
   79SOPE  H12B 7073   0.879   0.549   7.923 -1.5570  0.3426  0.6304
   79SOPE   C11 7074   0.977   0.729   7.983  0.4029 -0.5758 -0.2694
   79SOPE  H11A 7075   1.035   0.658   8.046  0.6510 -0.0753  0.0849
   79SOPE  H11B 7076   0.949   0.816   8.048  1.4103  1.0551 -1.9204
   79SOPE     P 7077   1.184   0.726   7.832 -0.2510  0.4076 -0.2245
   79SOPE   O13 7078   1.253   0.683   7.950  0.2363  0.3928  0.0288
   79SOPE   O14 7079   1.258   0.822   7.760  0.0976 -0.3513  0.9873
   79SOPE   O12 7080   1.041   0.775   7.867  0.6024 -0.1821 -0.0814
   79SOPE   O11 7081   1.164   0.602   7.734  0.1134 -0.1491  0.2729
   79SOPE    C1 7082   1.044   0.573   7.663  0.2063  0.6515  0.3815
   79SOPE    HA 7083   0.956   0.634   7.692  0.8731  1.2197  1.2400
   79SOPE    HB 7084   1.013   0.468   7.686 -0.3507  0.3615 -1.4933
   79SOPE    C2 7085   1.055   0.591   7.505  0.1909  0.3420  0.1692
   79SOPE    HS 7086   0.957   0.581   7.453  1.0712 -3.1307 -1.0632
   79SOPE   O21 7087   1.152   0.495   7.448 -0.4405 -0.1325  0.5142
   79SOPE   C21 7088   1.108   0.368   7.447  0.7403 -0.2635  0.2316
   79SOPE   O22 7089   0.997   0.332   7.479  0.4668 -0.2519  0.7522
   79SOPE   C22 7090   1.222   0.276   7.395  0.0654  0.0656  0.0897
   79SOPE   H2R 7091   1.201   0.178   7.443  2.2876 -0.8473 -0.6374
   79SOPE   H2S 7092   1.321   0.298   7.440  0.6883 -2.7120  0.2809
   79SOPE    C3 7093   1.116   0.731   7.462  0.0053 -0.5173  0.6395
   79SOPE    HX 7094   1.221   0.726   7.498  0.4172  0.7865 -0.3135
   79SOPE    HY 7095   1.053   0.798   7.524  0.4610 -2.8978  4.0258
   79SOPE   O31 7096   1.099   0.752   7.320  0.6533 -0.0209 -0.1896
   79SOPE   C31 7097   1.202   0.723   7.247 -0.4262  0.2147 -0.0122
   79SOPE   O32 7098   1.318   0.695   7.285  0.6834  0.0039  0.3402
   79SOPE   C32 7099   1.173   0.736   7.099 -0.0008  0.3605 -0.8678
   79SOPE   H2X 7100   1.111   0.828   7.095 -0.0688  0.4776  1.5120
   79SOPE   H2Y 7101   1.120   0.644   7.068 -1.6778 -0.0003  2.5572
   79SOPE   C23 7102   1.222   0.254   7.243  0.7943 -0.3037 -0.0910
   79SOPE   H3R 7103   1.240   0.349   7.188  2.0069 -1.8059 -2.4569
   79SOPE   H3S 7104   1.122   0.211   7.221  1.1074 -1.8529  1.2970
   79SOPE   C24 7105   1.332   0.155   7.204  0.6820 -0.4898  0.1691
   79SOPE   H4R 7106   1.421   0.219   7.189  1.2523 -1.4686 -0.7597
   79SOPE   H4S 7107   1.355   0.072   7.274  1.7606  0.4676  0.9926
   79SOPE   C25 7108   1.325   0.092   7.065  0.5415 -0.0131  1.0879
   79SOPE   H5R 7109   1.429   0.054   7.050  0.3668  0.4818 -2.2017
   79SOPE   H5S 7110   1.248   0.013   7.059 -0.0573  0.6154  0.1783
   79SOPE   C26 7111   1.301   0.186   6.943  0.8197 -0.2941 -0.1210
   79SOPE   H6R 7112   1.199   0.229   6.955  0.5877 -1.0342  0.7017
   79SOPE   H6S 7113   1.381   0.263   6.942  0.0782  0.5021 -0.1275
   79SOPE   C27 7114   1.296   0.113   6.811 -0.0737  0.0497 -0.1746
   79SOPE   H7R 7115   1.395   0.065   6.796  0.1951  0.6747 -0.4588
   79SOPE   H7S 7116   1.226   0.027   6.813  0.1130 -0.1865  3.9212
   79SOPE   C28 7117   1.246   0.202   6.691 -0.3733 -0.2907 -0.0012
   79SOPE   H8R 7118   1.139   0.228   6.706 -0.6825 -1.4680 -0.0835
   79SOPE   H8S 7119   1.287   0.305   6.703 -2.7582  0.9064 -1.2249
   79SOPE   C29 7120   1.278   0.153   6.551  0.0936  0.0463 -0.7984
   79SOPE   H91 7121   1.225   0.059   6.529  1.2908 -1.1563  1.0962
   79SOPE  C210 7122   1.369   0.214   6.472  0.3586  0.1265 -0.0160
   79SOPE  H101 7123   1.393   0.170   6.374 -2.0832 -0.6709 -0.3189
   79SOPE  C211 7124   1.462   0.332   6.503  0.1016 -0.1994  0.0477
   79SOPE  H11R 7125   1.450   0.355   6.611 -1.2530  0.5238 -0.2337
   79SOPE  H11S 7126   1.431   0.413   6.433 -0.8663 -0.0822  0.6008
   79SOPE  C212 7127   1.613   0.299   6.482  0.7736 -0.1971 -0.0610
   79SOPE  H12R 7128   1.632   0.193   6.507 -0.1143 -0.5533 -0.8153
   79SOPE  H12S 7129   1.676   0.356   6.553  1.7324  0.0353 -1.0752
   79SOPE  C213 7130   1.652   0.316   6.328  0.0530 -1.2987 -0.3266
   79SOPE  H13R 7131   1.637   0.420   6.293  1.5704 -0.9695 -0.0517
   79SOPE  H13S 7132   1.583   0.255   6.266 -0.0506 -0.2415 -1.2840
   79SOPE  C214 7133   1.798   0.266   6.295  1.1935 -0.4385 -0.1074
   79SOPE  H14R 7134   1.807   0.261   6.184  1.8813 -1.5841 -0.0206
   79SOPE  H14S 7135   1.816   0.161   6.328  0.1105 -0.9943 -1.2122
   79SOPE  C215 7136   1.907   0.364   6.343 -0.1782  0.3426  0.2008
   79SOPE  H15R 7137   1.890   0.381   6.452  1.1778 -2.6903  0.9799
   79SOPE  H15S 7138   1.894   0.455   6.281 -1.2428 -1.9540 -3.2465
   79SOPE  C216 7139   2.053   0.307   6.324 -0.4356  0.7131  0.7076
   79SOPE  H16R 7140   2.062   0.213   6.383 -0.9504  0.1193 -0.1326
   79SOPE  H16S 7141   2.121   0.385   6.362  1.5880 -1.5065  1.8963
   79SOPE  C217 7142   2.099   0.274   6.183  0.8295 -1.1149 -0.2356
   79SOPE  H17R 7143   2.064   0.350   6.110  0.9804  0.0739  0.8884
   79SOPE  H17S 7144   2.036   0.190   6.147 -1.4071  0.9366 -1.3978
   79SOPE  C218 7145   2.242   0.258   6.161 -0.0040  0.1386 -0.2360
   79SOPE  H18R 7146   2.283   0.234   6.061  0.0266  0.2187 -0.2438
   79SOPE  H18S 7147   2.283   0.181   6.229 -1.4388 -1.1339 -0.7629
   79SOPE  H18T 7148   2.302   0.346   6.194  1.4933 -1.9583  3.0770
   79SOPE   C33 7149   1.288   0.771   6.998 -0.1853 -0.5894 -0.1231
   79SOPE   H3X 7150   1.360   0.688   6.985  1.7266  0.9101  0.5192
   79SOPE   H3Y 7151   1.342   0.861   7.033  0.9361 -0.4747 -2.0391
   79SOPE   C34 7152   1.230   0.805   6.857  0.2285 -0.2165  0.3481
   79SOPE   H4X 7153   1.192   0.908   6.875  0.0904 -0.1322 -0.3860
   79SOPE   H4Y 7154   1.145   0.736   6.837 -2.3783  2.5846  1.0479
   79SOPE   C35 7155   1.341   0.806   6.753 -0.5256  0.1230  0.3941
   79SOPE   H5X 7156   1.426   0.872   6.780  0.2876 -1.2471  1.3205
   79SOPE   H5Y 7157   1.300   0.841   6.656  1.2182  0.6190 -0.1930
   79SOPE   C36 7158   1.411   0.664   6.723 -0.1317 -0.2367  0.2756
   79SOPE   H6X 7159   1.331   0.615   6.664 -0.7110  1.8379 -0.7578
   79SOPE   H6Y 7160   1.441   0.605   6.813  0.3971 -1.2869 -0.5697
   79SOPE   C37 7161   1.540   0.666   6.632 -0.1929 -0.0069 -0.4318
   79SOPE   H7X 7162   1.578   0.562   6.633 -2.7232 -0.9955 -0.2104
   79SOPE   H7Y 7163   1.619   0.736   6.665 -0.3944 -0.1373  0.3465
   79SOPE   C38 7164   1.503   0.707   6.482  0.6258 -0.4454  0.0863
   79SOPE   H8X 7165   1.449   0.804   6.475 -0.7501 -1.2349 -0.4087
   79SOPE   H8Y 7166   1.434   0.634   6.437  0.6865  0.0699 -0.8658
   79SOPE   C39 7167   1.628   0.728   6.389 -0.5688 -0.2035 -0.0695
   79SOPE   H9X 7168   1.592   0.728   6.284 -2.1022  1.3014  0.3903
   79SOPE   H9Y 7169   1.706   0.650   6.397 -0.7067 -0.3164  0.1898
   79SOPE  C310 7170   1.691   0.872   6.405  0.5924 -0.2930 -0.7999
   79SOPE  H10X 7171   1.687   0.883   6.516 -1.4770 -0.6395 -0.8098
   79SOPE  H10Y 7172   1.616   0.950   6.381  1.0731  0.9727  1.5065
   79SOPE  C311 7173   1.828   0.896   6.345 -0.5912  0.1483  0.1214
   79SOPE  H11X 7174   1.866   0.995   6.378 -1.9573  0.3182  1.3388
   79SOPE  H11Y 7175   1.825   0.894   6.234 -0.2188 -1.9454  0.1091
   79SOPE  C312 7176   1.943   0.804   6.400 -0.3432  0.0812  0.0971
   79SOPE  H12X 7177   1.920   0.698   6.380 -1.0018  0.1427  0.5055
   79SOPE  H12Y 7178   1.941   0.816   6.511  1.8846  0.8440  0.1129
   79SOPE  C313 7179   2.087   0.820   6.345 -0.0196 -0.5346 -0.0560
   79SOPE  H13X 7180   2.144   0.741   6.398  1.2995  1.0783  1.0348
   79SOPE  H13Y 7181   2.129   0.919   6.373  1.5833 -1.1417 -0.2351
   79SOPE  C314 7182   2.116   0.798   6.200  0.3305 -0.1825  0.1269
   79SOPE  H14X 7183   2.222   0.784   6.170 -0.0026 -1.7301 -0.4266
   79SOPE  H14Y 7184   2.073   0.894   6.164  2.5967  1.9912  2.7411
   79SOPE  C315 7185   2.031   0.681   6.141 -0.4853  0.4790  0.2441
   79SOPE  H15X 7186   1.926   0.681   6.179 -1.0138  1.4767 -1.1121
   79SOPE  H15Y 7187   2.077   0.583   6.163 -1.1569  0.1016  0.0066
   79SOPE  C316 7188   2.030   0.690   5.977  0.2800 -0.5722  0.2402
   79SOPE  H16X 7189   2.133   0.663   5.946 -0.2574 -1.4152 -0.9058
   79SOPE  H16Y 7190   1.998   0.792   5.947  1.5020 -0.7333 -1.7855
   79SOPE  C317 7191   1.944   0.587   5.901  0.5194 -0.0439  1.0008
   79SOPE  H17X 7192   1.975   0.483   5.923  0.4835  0.2465  2.5399
   79SOPE  H17Y 7193   1.955   0.615   5.795 -0.7385  2.1604  1.3826
   79SOPE  C318 7194   1.792   0.607   5.931  0.3878 -0.3139  0.1796
   79SOPE  H18X 7195   1.751   0.702   5.891  0.0338 -0.4647  0.1810
   79SOPE  H18Y 7196   1.777   0.622   6.040 -1.5981 -2.3197  0.2336
   79SOPE  H18Z 7197   1.722   0.530   5.894  1.1080 -1.1097  0.4449
   80SOPE     N 7198   5.902   2.719   7.701  0.5765 -0.1064  0.8851
   80SOPE   HN1 7199   5.950   2.641   7.651 -0.9405 -0.2410 -0.4490
   80SOPE   HN2 7200   5.845   2.773   7.633  0.1754 -1.8293 -0.2148
   80SOPE   HN3 7201   5.979   2.774   7.745  0.6031  0.6561 -0.0792
   80SOPE   C12 7202   5.805   2.665   7.802  0.3429  0.8060  0.2584
   80SOPE  H12A 7203   5.805   2.554   7.803  1.0689  0.6370 -3.1668
   80SOPE  H12B 7204   5.706   2.705   7.770  0.1588  0.2490  0.1341
   80SOPE   C11 7205   5.847   2.732   7.936  0.5479  0.4686  0.0833
   80SOPE  H11A 7206   5.771   2.718   8.016 -0.2345  2.1377 -0.3196
   80SOPE  H11B 7207   5.859   2.842   7.929  0.8056  0.4115 -0.3662
   80SOPE     P 7208   6.108   2.743   7.984  0.5206  0.2667 -0.3001
   80SOPE   O13 7209   6.212   2.641   7.990 -0.0195  1.1729 -0.5323
   80SOPE   O14 7210   6.109   2.859   8.076 -0.0352  0.7511  0.6059
   80SOPE   O12 7211   5.964   2.675   7.993 -0.3265  0.0390 -0.0089
   80SOPE   O11 7212   6.099   2.793   7.834 -0.0215 -0.3304 -0.3857
   80SOPE    C1 7213   6.210   2.849   7.771  0.3428 -0.5628 -0.3198
   80SOPE    HA 7214   6.308   2.852   7.823  1.3580  1.5849 -2.1646
   80SOPE    HB 7215   6.188   2.957   7.756  0.5614 -0.4023  0.4769
   80SOPE    C2 7216   6.237   2.773   7.634 -0.5954 -0.0014 -0.0854
   80SOPE    HS 7217   6.327   2.815   7.585  0.6101  1.2966  2.9708
   80SOPE   O21 7218   6.125   2.798   7.550  0.0922  0.5582 -0.1745
   80SOPE   C21 7219   6.123   2.918   7.489 -0.3790  0.1636  0.1075
   80SOPE   O22 7220   6.206   3.005   7.513  0.1452  0.0340 -0.2777
   80SOPE   C22 7221   6.004   2.938   7.397  0.2722  0.0358  0.1283
   80SOPE   H2R 7222   5.922   2.975   7.462  1.0466  1.0008  0.5768
   80SOPE   H2S 7223   5.968   2.848   7.343 -0.6618  0.7548 -0.4940
   80SOPE    C3 7224   6.258   2.626   7.661 -0.3150 -0.4867 -0.3302
   80SOPE    HX 7225   6.199   2.586   7.746  1.3021  0.9089  1.5380
   80SOPE    HY 7226   6.357   2.611   7.709 -0.6554  0.3770  0.6652
   80SOPE   O31 7227   6.248   2.544   7.542 -0.7305  0.3070  0.3233
   80SOPE   C31 7228   6.124   2.493   7.521  0.1894  0.1569  0.0788
   80SOPE   O32 7229   6.031   2.512   7.597  0.3047  0.4410 -0.0300
   80SOPE   C32 7230   6.114   2.420   7.391  0.3989 -0.3496 -0.1222
   80SOPE   H2X 7231   6.126   2.311   7.409  1.0943  0.0882  2.3140
   80SOPE   H2Y 7232   6.195   2.449   7.321  0.9066 -1.7462 -0.1544
   80SOPE   C23 7233   6.026   3.055   7.289 -0.3839 -0.6124 -0.6915
   80SOPE   H3R 7234   6.079   3.139   7.337  1.4916 -1.9181 -0.3853
   80SOPE   H3S 7235   5.929   3.088   7.245  1.3466  0.9525 -3.5423
   80SOPE   C24 7236   6.115   3.006   7.171 -0.5437  0.5348 -0.0470
   80SOPE   H4R 7237   6.218   3.004   7.215 -0.5366  3.0126  0.1533
   80SOPE   H4S 7238   6.086   2.901   7.150 -0.5035 -0.0417  2.4778
   80SOPE   C25 7239   6.103   3.101   7.049  0.5139  0.1098  0.4140
   80SOPE   H5R 7240   5.994   3.106   7.028  0.5757  0.4242  0.1634
   80SOPE   H5S 7241   6.134   3.202   7.086 -0.8371  0.8993 -0.5126
   80SOPE   C26 7242   6.168   3.053   6.922 -0.5363  0.3712  0.0720
   80SOPE   H6R 7243   6.274   3.030   6.947 -0.8875 -0.5019  0.7980
   80SOPE   H6S 7244   6.127   2.957   6.886 -0.5772  0.6856 -0.7489
   80SOPE   C27 7245   6.158   3.153   6.805 -0.0167 -0.0684 -0.4761
   80SOPE   H7R 7246   6.050   3.180   6.809 -1.1090 -3.7815 -0.5575
   80SOPE   H7S 7247   6.221   3.233   6.850 -0.7680  0.5464 -0.5051
   80SOPE   C28 7248   6.205   3.098   6.673 -0.2391  0.8062  0.1650
   80SOPE   H8R 7249   6.264   3.170   6.613 -0.3543  1.0378  0.3315
   80SOPE   H8S 7250   6.269   3.011   6.697 -0.2756  0.8894  0.5584
   80SOPE   C29 7251   6.083   3.051   6.590 -0.4543  0.2109  0.0496
   80SOPE   H91 7252   5.995   3.000   6.631 -0.8433 -1.0242 -2.1475
   80SOPE  C210 7253   6.079   3.055   6.455  0.3202  0.1689 -0.1368
   80SOPE  H101 7254   5.987   3.021   6.405  2.0625 -0.7148 -2.9415
   80SOPE  C211 7255   6.162   3.118   6.354 -0.1602 -0.1408 -0.0700
   80SOPE  H11R 7256   6.244   3.181   6.395  0.0104 -0.7634  0.5715
   80SOPE  H11S 7257   6.105   3.194   6.298 -0.3411  1.0840  1.6901
   80SOPE  C212 7258   6.213   3.007   6.266  0.1384  0.6544  0.3379
   80SOPE  H12R 7259   6.135   2.941   6.224  0.9632  1.1683 -2.1372
   80SOPE  H12S 7260   6.282   2.938   6.319 -0.8081 -1.1914 -0.7707
   80SOPE  C213 7261   6.284   3.068   6.143 -0.9233  0.0345 -0.1008
   80SOPE  H13R 7262   6.358   3.143   6.179 -0.2267 -0.9850  0.6818
   80SOPE  H13S 7263   6.207   3.123   6.086  1.0168  2.0969 -0.8762
   80SOPE  C214 7264   6.348   2.959   6.051 -0.5231 -0.3583 -0.0866
   80SOPE  H14R 7265   6.420   2.903   6.114  0.1752 -0.3901 -0.8877
   80SOPE  H14S 7266   6.407   3.019   5.978 -0.2861  2.3974  2.1835
   80SOPE  C215 7267   6.251   2.878   5.965  1.0902 -0.0316 -0.3823
   80SOPE  H15R 7268   6.185   2.816   6.029  0.2394 -0.3413 -1.5232
   80SOPE  H15S 7269   6.314   2.808   5.906  0.7754 -1.2441  0.6670
   80SOPE  C216 7270   6.159   2.961   5.874  0.4412 -0.0031  1.2450
   80SOPE  H16R 7271   6.098   3.036   5.929  0.2037 -0.0580  1.0618
   80SOPE  H16S 7272   6.088   2.884   5.836  0.4436 -0.1213  1.4764
   80SOPE  C217 7273   6.231   3.032   5.759  0.1505 -0.4812  0.0206
   80SOPE  H17R 7274   6.297   2.952   5.720  0.6053 -0.2713  0.3502
   80SOPE  H17S 7275   6.294   3.119   5.787  3.2305 -1.5401 -2.9690
   80SOPE  C218 7276   6.141   3.076   5.648  0.0529  0.4585  0.1764
   80SOPE  H18R 7277   6.092   2.987   5.603 -0.6846  1.8269 -1.8241
   80SOPE  H18S 7278   6.179   3.137   5.564 -1.7298  1.9748  0.4108
   80SOPE  H18T 7279   6.055   3.138   5.680  1.7574  2.7674  0.5044
   80SOPE   C33 7280   5.974   2.446   7.334 -0.4755  0.1398  0.2712
   80SOPE   H3X 7281   5.898   2.428   7.413  0.2888 -1.2376  0.7220
   80SOPE   H3Y 7282   5.963   2.374   7.250 -0.1561  0.1302  0.2361
   80SOPE   C34 7283   5.953   2.591   7.287  0.6083  0.1281 -1.0130
   80SOPE   H4X 7284   6.044   2.619   7.229 -0.6908 -1.0125 -3.8181
   80SOPE   H4Y 7285   5.916   2.652   7.372 -0.9374  0.0178 -1.5760
   80SOPE   C35 7286   5.838   2.604   7.190 -0.7700  0.1778  0.6629
   80SOPE   H5X 7287   5.752   2.553   7.239  0.2158 -0.3010  1.9152
   80SOPE   H5Y 7288   5.861   2.548   7.097 -1.2325 -2.3565  1.9894
   80SOPE   C36 7289   5.799   2.748   7.152  0.7205 -0.0533  1.1183
   80SOPE   H6X 7290   5.898   2.785   7.117  1.3884 -1.0881  1.8708
   80SOPE   H6Y 7291   5.770   2.795   7.249 -1.7327 -0.0758  0.4633
   80SOPE   C37 7292   5.680   2.756   7.050 -0.3214  0.0374 -0.6203
   80SOPE   H7X 7293   5.601   2.825   7.089 -1.0592 -1.3639  0.4332
   80SOPE   H7Y 7294   5.629   2.658   7.041 -2.6751  0.7982  2.6212
   80SOPE   C38 7295   5.743   2.798   6.916  0.2357  0.2369  0.1050
   80SOPE   H8X 7296   5.809   2.718   6.876 -1.8761  0.0570 -3.4230
   80SOPE   H8Y 7297   5.798   2.893   6.931 -2.0620  2.1039 -2.3527
   80SOPE   C39 7298   5.629   2.829   6.820 -0.8007 -0.3411 -0.0590
   80SOPE   H9X 7299   5.566   2.905   6.872  1.4678 -0.0393  2.4952
   80SOPE   H9Y 7300   5.557   2.751   6.787 -1.8071  1.3220 -1.9794
   80SOPE  C310 7301   5.698   2.900   6.699  0.1261  0.2538 -0.0597
   80SOPE  H10X 7302   5.762   2.823   6.651 -1.2040 -1.7679  1.2622
   80SOPE  H10Y 7303   5.765   2.977   6.744  1.6663 -1.4630  0.6983
   80SOPE  C311 7304   5.588   2.958   6.603  0.2151  0.3804  0.2633
   80SOPE  H11X 7305   5.514   3.011   6.666  0.0073 -1.4253  1.5993
   80SOPE  H11Y 7306   5.533   2.876   6.552  0.8637  0.7666 -1.1236
   80SOPE  C312 7307   5.652   3.052   6.492 -0.3746 -0.0055 -0.2785
   80SOPE  H12X 7308   5.728   3.105   6.553 -0.6490  0.2698 -0.1695
   80SOPE  H12Y 7309   5.572   3.116   6.447  0.6278  0.2791 -1.7143
   80SOPE  C313 7310   5.710   2.975   6.375  0.5462  0.1510 -0.9836
   80SOPE  H13X 7311   5.622   2.910   6.356 -0.2322  1.4990 -2.1377
   80SOPE  H13Y 7312   5.800   2.915   6.403 -1.1767 -1.0455  2.5737
   80SOPE  C314 7313   5.723   3.042   6.235  0.0801 -0.6615 -0.2658
   80SOPE  H14X 7314   5.823   3.089   6.224 -0.2618  0.5790  1.5196
   80SOPE  H14Y 7315   5.650   3.126   6.231 -0.4330 -1.1120 -0.5589
   80SOPE  C315 7316   5.722   2.949   6.115 -0.0677  0.2466  0.0686
   80SOPE  H15X 7317   5.617   2.915   6.103 -0.1789  0.6117 -0.0031
   80SOPE  H15Y 7318   5.784   2.861   6.145 -0.0937  0.3140  0.3229
   80SOPE  C316 7319   5.771   3.007   5.980  0.2484  0.4219 -0.1475
   80SOPE  H16X 7320   5.782   2.925   5.905  0.2981  0.6405 -0.3786
   80SOPE  H16Y 7321   5.873   3.050   5.987  1.4211 -2.1745 -0.1315
   80SOPE  C317 7322   5.681   3.114   5.918  0.3623 -0.8649  0.1139
   80SOPE  H17X 7323   5.650   3.191   5.991 -1.0566 -1.4597  0.1781
   80SOPE  H17Y 7324   5.578   3.073   5.906  0.9196 -1.9282 -1.4837
   80SOPE  C318 7325   5.729   3.173   5.789  0.1699 -0.4539 -0.3202
   80SOPE  H18X 7326   5.669   3.262   5.757  2.2062  0.1517 -2.7246
   80SOPE  H18Y 7327   5.710   3.102   5.706 -0.3241  0.2417 -0.8159
   80SOPE  H18Z 7328   5.836   3.197   5.806  1.0037 -2.8901 -1.6436
   81SOPE     N 7329   5.711   5.681   7.967 -0.1591  0.5588  0.1902
   81SOPE   HN1 7330   5.761   5.594   7.938 -0.8151  0.5463 -0.9903
   81SOPE   HN2 7331   5.765   5.742   8.031  0.5091  1.1036 -0.8700
   81SOPE   HN3 7332   5.623   5.650   8.013  0.6884 -0.4224  1.2128
   81SOPE   C12 7333   5.682   5.750   7.836  0.4875 -0.0871 -0.3485
   81SOPE  H12A 7334   5.614   5.836   7.856 -0.7114 -0.5615 -2.1642
   81SOPE  H12B 7335   5.617   5.684   7.775  0.8723 -1.0502  0.2594
   81SOPE   C11 7336   5.807   5.791   7.761 -0.8327 -0.0805 -0.4343
   81SOPE  H11A 7337   5.767   5.865   7.689  0.5034  1.2828  0.1535
   81SOPE  H11B 7338   5.862   5.706   7.716 -0.8782  0.1521 -0.9382
   81SOPE     P 7339   6.050   5.895   7.800  0.1516 -0.1399  0.1508
   81SOPE   O13 7340   6.136   5.796   7.874 -0.5009  0.1467  0.7751
   81SOPE   O14 7341   6.073   6.044   7.820  0.6333  0.0065 -0.6827
   81SOPE   O12 7342   5.899   5.870   7.840  0.2858  0.0001 -0.6835
   81SOPE   O11 7343   6.048   5.862   7.649 -0.0918  0.2103 -0.3559
   81SOPE    C1 7344   6.159   5.891   7.566 -0.5738 -0.4636  0.3338
   81SOPE    HA 7345   6.253   5.850   7.608  0.2050 -0.7906 -1.6592
   81SOPE    HB 7346   6.168   5.999   7.544 -3.9677 -0.5024 -2.0161
   81SOPE    C2 7347   6.150   5.820   7.432 -0.3088 -0.1157  0.6240
   81SOPE    HS 7348   6.243   5.847   7.378  0.8322 -1.1803  1.9748
   81SOPE   O21 7349   6.030   5.847   7.357 -0.0967 -0.3000  0.3154
   81SOPE   C21 7350   6.033   5.969   7.302 -0.1853 -0.9362  0.9618
   81SOPE   O22 7351   6.129   6.040   7.294  0.2251 -0.3290  0.3299
   81SOPE   C22 7352   5.900   6.000   7.235  0.9332  0.2317  0.3290
   81SOPE   H2R 7353   5.828   6.022   7.317  0.0975  0.2736 -0.4029
   81SOPE   H2S 7354   5.877   5.913   7.170  1.4505  0.8944 -0.7599
   81SOPE    C3 7355   6.168   5.668   7.444  0.1994  0.6084  0.0213
   81SOPE    HX 7356   6.081   5.631   7.503  1.7017 -2.5486  0.4542
   81SOPE    HY 7357   6.260   5.639   7.500  0.2796  1.2742  0.2466
   81SOPE   O31 7358   6.155   5.611   7.313  0.2694 -0.7260  0.2105
   81SOPE   C31 7359   6.267   5.619   7.248 -0.1967  0.2472  0.8668
   81SOPE   O32 7360   6.377   5.643   7.296  0.5965 -0.3923  0.2522
   81SOPE   C32 7361   6.245   5.592   7.097 -0.6148  0.4749  0.3647
   81SOPE   H2X 7362   6.138   5.597   7.066 -1.0811 -3.9187  0.6374
   81SOPE   H2Y 7363   6.271   5.486   7.075 -0.4396  0.6906 -0.5276
   81SOPE   C23 7364   5.900   6.127   7.144  0.0924  0.3014 -0.5649
   81SOPE   H3R 7365   5.986   6.130   7.074  1.6341 -0.6793  1.1635
   81SOPE   H3S 7366   5.900   6.217   7.209 -1.7944  1.6924 -2.3843
   81SOPE   C24 7367   5.775   6.127   7.058 -0.2552 -0.3643 -0.1591
   81SOPE   H4R 7368   5.686   6.127   7.124 -0.4263  1.4469 -0.3523
   81SOPE   H4S 7369   5.787   6.221   7.001  0.2324 -0.1838  0.2364
   81SOPE   C25 7370   5.747   6.011   6.966 -0.0915  0.0895 -0.1897
   81SOPE   H5R 7371   5.752   5.911   7.013 -2.3284 -0.0450 -0.1478
   81SOPE   H5S 7372   5.641   6.034   6.942 -0.2420  0.1474  0.5150
   81SOPE   C26 7373   5.830   6.015   6.845 -0.6563  0.5722  0.6980
   81SOPE   H6R 7374   5.810   6.104   6.782  2.9500  2.2364  1.6151
   81SOPE   H6S 7375   5.937   6.028   6.873 -0.8499  1.9242  0.9038
   81SOPE   C27 7376   5.809   5.894   6.748  0.1510 -0.6253  0.0687
   81SOPE   H7R 7377   5.699   5.887   6.740  0.1088 -0.8563  0.7889
   81SOPE   H7S 7378   5.855   5.926   6.652  1.0285  0.1862  0.7381
   81SOPE   C28 7379   5.865   5.761   6.797  0.2695 -0.5107 -0.1008
   81SOPE   H8R 7380   5.972   5.773   6.823 -0.3715  0.9808  2.0321
   81SOPE   H8S 7381   5.821   5.737   6.896  0.5890 -1.9086 -0.2706
   81SOPE   C29 7382   5.838   5.648   6.698 -0.0756  0.2806 -0.1107
   81SOPE   H91 7383   5.735   5.610   6.702 -0.1517  0.4502 -0.4454
   81SOPE  C210 7384   5.937   5.601   6.612 -0.0298 -0.4736  0.0222
   81SOPE  H101 7385   5.902   5.525   6.540  1.2606 -2.6792  1.5719
   81SOPE  C211 7386   6.073   5.661   6.584  0.6494  0.1296  0.7196
   81SOPE  H11R 7387   6.099   5.755   6.638 -0.4921 -0.0392  1.6025
   81SOPE  H11S 7388   6.064   5.699   6.480  1.3386  3.1420  1.6709
   81SOPE  C212 7389   6.182   5.551   6.620 -0.1445 -0.3692 -0.1886
   81SOPE  H12R 7390   6.189   5.531   6.729  0.8125 -1.7211 -0.4859
   81SOPE  H12S 7391   6.272   5.607   6.585 -0.5733  0.2396 -0.3432
   81SOPE  C213 7392   6.185   5.446   6.524  0.0179  0.4901 -0.4210
   81SOPE  H13R 7393   6.168   5.487   6.422  2.1495  4.2619  0.5611
   81SOPE  H13S 7394   6.095   5.381   6.537 -2.0067  3.2217  0.0587
   81SOPE  C214 7395   6.317   5.366   6.523  0.3634 -0.1987  0.2765
   81SOPE  H14R 7396   6.398   5.442   6.521  0.4488 -0.2945 -1.0954
   81SOPE  H14S 7397   6.328   5.307   6.429  0.5679 -1.1798  0.9046
   81SOPE  C215 7398   6.337   5.270   6.642 -0.4235  0.0177 -0.3565
   81SOPE  H15R 7399   6.273   5.180   6.628 -2.4000  1.3216 -0.2429
   81SOPE  H15S 7400   6.283   5.310   6.731  0.7956  0.0226  0.3968
   81SOPE  C216 7401   6.482   5.242   6.675 -0.3604 -0.0591  0.1066
   81SOPE  H16R 7402   6.540   5.336   6.685  1.5952 -1.3077  1.0743
   81SOPE  H16S 7403   6.534   5.183   6.597 -0.1101  1.1012 -0.6218
   81SOPE  C217 7404   6.504   5.173   6.810  0.4459  0.4763 -0.8804
   81SOPE  H17R 7405   6.422   5.211   6.876  1.1169  0.5227 -0.0543
   81SOPE  H17S 7406   6.605   5.201   6.848  0.6002  0.7463 -1.4809
   81SOPE  C218 7407   6.498   5.020   6.789  0.2018  0.4177  0.1171
   81SOPE  H18R 7408   6.529   4.964   6.879 -1.4903  0.3634  0.6951
   81SOPE  H18S 7409   6.566   4.986   6.708  1.0565 -1.0940  1.4204
   81SOPE  H18T 7410   6.391   5.006   6.765 -0.0462  1.1465  0.7576
   81SOPE   C33 7411   6.323   5.691   7.009  0.4901 -0.0036  0.3183
   81SOPE   H3X 7412   6.347   5.643   6.913 -3.2919 -4.1400  1.0967
   81SOPE   H3Y 7413   6.413   5.725   7.065 -0.8691  1.3258  1.8183
   81SOPE   C34 7414   6.252   5.819   6.977 -0.4654 -0.1035  0.0529
   81SOPE   H4X 7415   6.233   5.863   7.077 -0.5116 -0.5419  0.2379
   81SOPE   H4Y 7416   6.153   5.808   6.929 -0.0194  2.2210 -1.5533
   81SOPE   C35 7417   6.342   5.909   6.882  0.3903  0.4230 -0.2957
   81SOPE   H5X 7418   6.366   5.840   6.798 -1.0018 -1.6385  0.9173
   81SOPE   H5Y 7419   6.436   5.937   6.934  0.4057  1.7535 -0.9904
   81SOPE   C36 7420   6.273   6.042   6.845  0.4381  0.4153  0.5525
   81SOPE   H6X 7421   6.353   6.113   6.816  0.1915  0.4622 -0.0440
   81SOPE   H6Y 7422   6.222   6.082   6.935 -0.8758  0.7251 -0.2867
   81SOPE   C37 7423   6.173   6.040   6.725 -0.2483  0.4978 -0.5265
   81SOPE   H7X 7424   6.127   6.140   6.713  0.2004  0.6427 -1.0823
   81SOPE   H7Y 7425   6.095   5.967   6.757 -1.8961  1.4967 -2.1145
   81SOPE   C38 7426   6.251   5.995   6.598 -0.0575  0.6304  0.1003
   81SOPE   H8X 7427   6.292   5.895   6.625 -1.1959  0.9959  3.7669
   81SOPE   H8Y 7428   6.337   6.064   6.582  0.9675 -0.7859 -0.7442
   81SOPE   C39 7429   6.166   5.999   6.473  0.4182 -0.6241 -0.3299
   81SOPE   H9X 7430   6.150   6.101   6.434  2.0307  0.2278  1.0852
   81SOPE   H9Y 7431   6.062   5.965   6.486 -0.0766  0.7122 -0.6318
   81SOPE  C310 7432   6.219   5.926   6.357  0.1750  0.4085 -0.0177
   81SOPE  H10X 7433   6.235   5.821   6.391 -0.7915  0.5944  1.0867
   81SOPE  H10Y 7434   6.316   5.968   6.326 -0.5350  1.5562 -0.7435
   81SOPE  C311 7435   6.127   5.937   6.232 -0.4659  0.0278 -0.1539
   81SOPE  H11X 7436   6.162   6.013   6.160 -0.9648  0.3134 -0.0942
   81SOPE  H11Y 7437   6.026   5.970   6.264 -0.1079  1.5177 -0.5188
   81SOPE  C312 7438   6.109   5.802   6.159  0.1338  0.0339  0.3281
   81SOPE  H12X 7439   6.072   5.729   6.235  0.9865 -1.8024 -0.9426
   81SOPE  H12Y 7440   6.207   5.776   6.113 -0.3931 -0.6947 -0.4153
   81SOPE  C313 7441   6.009   5.811   6.039 -0.6470 -0.2382  0.4589
   81SOPE  H13X 7442   6.056   5.892   5.979 -0.3170 -0.2110  0.7570
   81SOPE  H13Y 7443   5.909   5.838   6.081 -1.6873 -3.5668  0.4306
   81SOPE  C314 7444   6.009   5.688   5.947  0.0711 -0.3291  0.1186
   81SOPE  H14X 7445   6.110   5.673   5.905  0.0381  0.1778 -0.1394
   81SOPE  H14Y 7446   5.944   5.702   5.858  2.3913 -0.7453 -1.7135
   81SOPE  C315 7447   5.973   5.547   6.013 -0.4347 -0.0184  0.3250
   81SOPE  H15X 7448   6.048   5.509   6.086  0.5827 -0.9774 -1.1711
   81SOPE  H15Y 7449   5.973   5.475   5.929 -0.1866  0.8887 -0.4727
   81SOPE  C316 7450   5.832   5.546   6.089 -0.5536 -0.3540  0.7825
   81SOPE  H16X 7451   5.763   5.478   6.034 -2.3659  1.6853  0.4383
   81SOPE  H16Y 7452   5.786   5.646   6.077 -3.3788 -1.5902  0.3976
   81SOPE  C317 7453   5.837   5.509   6.239 -0.1438  0.4323 -0.1228
   81SOPE  H17X 7454   5.903   5.579   6.295  2.2231 -1.0657 -0.9020
   81SOPE  H17Y 7455   5.885   5.409   6.246 -1.5183 -0.2421  0.0164
   81SOPE  C318 7456   5.701   5.499   6.305 -0.7433 -0.1353  0.3107
   81SOPE  H18X 7457   5.709   5.438   6.397 -1.4618 -1.2311 -0.3251
   81SOPE  H18Y 7458   5.630   5.449   6.236 -0.5714  0.2048 -0.1183
   81SOPE  H18Z 7459   5.660   5.599   6.330  0.6696  0.9748 -1.5937
   82SOPE     N 7460   1.049   6.028   7.709 -0.0253 -0.2119 -0.4834
   82SOPE   HN1 7461   1.112   5.961   7.758  0.7247  0.7370 -0.1067
   82SOPE   HN2 7462   1.066   6.119   7.755  1.1885 -1.3763  1.5131
   82SOPE   HN3 7463   0.950   5.998   7.712 -0.1784  0.2693 -0.5891
   82SOPE   C12 7464   1.088   6.037   7.565 -0.1524 -0.3606  0.2317
   82SOPE  H12A 7465   1.017   6.109   7.519  1.0654  1.3374  0.9055
   82SOPE  H12B 7466   1.066   5.940   7.514  2.3637  0.6745 -3.2072
   82SOPE   C11 7467   1.235   6.090   7.550 -0.1448  0.8481  0.0301
   82SOPE  H11A 7468   1.237   6.199   7.572 -1.3249  1.6748 -3.2746
   82SOPE  H11B 7469   1.251   6.080   7.440  0.4614 -2.2539  0.3089
   82SOPE     P 7470   1.410   6.062   7.740 -0.2409  0.4607  0.2180
   82SOPE   O13 7471   1.508   5.959   7.786  0.1080 -0.1880  0.2125
   82SOPE   O14 7472   1.314   6.134   7.833  0.5496 -0.4084  0.0088
   82SOPE   O12 7473   1.326   6.004   7.626 -0.8084 -0.0481  0.1729
   82SOPE   O11 7474   1.486   6.174   7.673  0.4209 -0.1513  0.1496
   82SOPE    C1 7475   1.625   6.169   7.631 -1.2230 -0.0060 -0.0634
   82SOPE    HA 7476   1.685   6.095   7.687 -2.4773 -0.9252  0.0962
   82SOPE    HB 7477   1.673   6.264   7.664 -0.8270 -1.0196  2.4382
   82SOPE    C2 7478   1.640   6.168   7.481  1.1363  0.1569  0.0250
   82SOPE    HS 7479   1.747   6.142   7.465  0.4907 -4.3376  1.4550
   82SOPE   O21 7480   1.604   6.296   7.425  0.1848 -0.0128 -0.1187
   82SOPE   C21 7481   1.664   6.329   7.311  0.0582  0.3721 -0.9853
   82SOPE   O22 7482   1.745   6.254   7.253  0.1991 -0.6195  0.2209
   82SOPE   C22 7483   1.617   6.459   7.255 -0.3198 -0.4104 -0.3325
   82SOPE   H2R 7484   1.565   6.520   7.332  1.5419 -0.5632  1.1151
   82SOPE   H2S 7485   1.545   6.441   7.172  1.6082  0.1824 -2.2176
   82SOPE    C3 7486   1.556   6.057   7.417 -0.1404 -0.0994 -0.0907
   82SOPE    HX 7487   1.452   6.093   7.431 -0.3019 -0.5223 -0.1875
   82SOPE    HY 7488   1.560   5.961   7.473 -0.9279 -0.4988 -0.6932
   82SOPE   O31 7489   1.578   6.037   7.271  0.5030  0.0789 -0.1850
   82SOPE   C31 7490   1.688   5.962   7.248 -0.5773  0.7346 -0.5751
   82SOPE   O32 7491   1.745   5.892   7.329  0.8324 -0.1277  0.3237
   82SOPE   C32 7492   1.732   5.983   7.100 -0.4092 -0.2648 -0.4971
   82SOPE   H2X 7493   1.821   6.049   7.111 -0.3079 -0.8603  4.1693
   82SOPE   H2Y 7494   1.654   6.038   7.043 -1.1973 -2.5935 -1.7734
   82SOPE   C23 7495   1.736   6.543   7.207  0.0657 -0.0544 -0.6708
   82SOPE   H3R 7496   1.819   6.557   7.280 -1.2430  0.7440  0.7204
   82SOPE   H3S 7497   1.693   6.644   7.188 -1.4638 -0.1409  1.8974
   82SOPE   C24 7498   1.804   6.492   7.083  0.6777  0.2453  0.2632
   82SOPE   H4R 7499   1.884   6.563   7.053  0.6082  0.5643  0.8212
   82SOPE   H4S 7500   1.859   6.397   7.101  0.1336 -0.0372  0.4838
   82SOPE   C25 7501   1.715   6.459   6.958  0.6703  0.1400  0.8291
   82SOPE   H5R 7502   1.649   6.373   6.982  1.8837 -2.4635 -3.8532
   82SOPE   H5S 7503   1.651   6.547   6.932  1.1656 -0.0540 -1.2742
   82SOPE   C26 7504   1.792   6.436   6.821 -0.7138 -0.0979 -0.0600
   82SOPE   H6R 7505   1.735   6.399   6.732 -1.7558  0.9377  0.1523
   82SOPE   H6S 7506   1.840   6.533   6.798 -1.9214  1.0555  1.9937
   82SOPE   C27 7507   1.884   6.311   6.836 -0.0967  0.2827  0.8626
   82SOPE   H7R 7508   1.959   6.331   6.914 -0.6817  2.9280  0.8226
   82SOPE   H7S 7509   1.809   6.234   6.864 -0.8217 -0.0848 -1.8301
   82SOPE   C28 7510   1.955   6.262   6.698  0.2949  0.6140 -0.0807
   82SOPE   H8R 7511   2.024   6.179   6.723 -0.0626 -1.2243 -4.2320
   82SOPE   H8S 7512   1.873   6.227   6.632  2.2307 -0.4279 -2.0719
   82SOPE   C29 7513   2.022   6.380   6.636  0.1047 -0.1621  0.4026
   82SOPE   H91 7514   2.006   6.478   6.683 -0.1895 -0.2163  0.4179
   82SOPE  C210 7515   2.094   6.376   6.519  0.6597  0.0928  1.3265
   82SOPE  H101 7516   2.138   6.467   6.475  0.3570 -0.1592  0.4860
   82SOPE  C211 7517   2.106   6.244   6.438 -0.4565 -0.3339  0.4482
   82SOPE  H11R 7518   2.039   6.162   6.473 -0.2197 -0.4916  0.5343
   82SOPE  H11S 7519   2.210   6.207   6.445 -0.0955  0.5877  0.0732
   82SOPE  C212 7520   2.073   6.250   6.287  0.2222  0.4092  0.1614
   82SOPE  H12R 7521   2.101   6.348   6.243 -1.3241  0.6199 -0.4195
   82SOPE  H12S 7522   1.962   6.238   6.290  0.4985 -3.3655 -0.0590
   82SOPE  C213 7523   2.126   6.132   6.205 -0.5470  0.0483  0.3344
   82SOPE  H13R 7524   2.087   6.044   6.260  0.2416  0.4512  1.5712
   82SOPE  H13S 7525   2.236   6.128   6.222 -0.4951  0.6169  0.1302
   82SOPE  C214 7526   2.094   6.142   6.052  0.1697 -0.1640 -0.2483
   82SOPE  H14R 7527   1.987   6.165   6.034  0.2027 -0.1703 -0.4482
   82SOPE  H14S 7528   2.102   6.040   6.008  0.6940  0.4123 -1.5147
   82SOPE  C215 7529   2.178   6.240   5.972  0.3316 -0.8030  0.6410
   82SOPE  H15R 7530   2.286   6.226   5.994  0.8496  1.9816  0.2804
   82SOPE  H15S 7531   2.158   6.344   6.003 -0.8417 -0.8739  0.1713
   82SOPE  C216 7532   2.149   6.203   5.820  0.5756  0.0192  0.1300
   82SOPE  H16R 7533   2.170   6.292   5.757  3.3522 -0.4361  0.2998
   82SOPE  H16S 7534   2.041   6.181   5.803  1.0606 -1.4979 -1.1786
   82SOPE  C217 7535   2.245   6.098   5.766 -0.5724  0.4646 -0.3827
   82SOPE  H17R 7536   2.192   6.035   5.691  0.2062 -0.3656 -0.2474
   82SOPE  H17S 7537   2.285   6.040   5.851  0.0374  1.0097 -0.2858
   82SOPE  C218 7538   2.357   6.166   5.688 -0.4765 -0.5790  0.3941
   82SOPE  H18R 7539   2.433   6.092   5.657  1.7000  2.2339 -1.5590
   82SOPE  H18S 7540   2.401   6.236   5.763  3.1932  1.2508 -3.0246
   82SOPE  H18T 7541   2.320   6.230   5.605 -0.3664  1.3590  1.7660
   82SOPE   C33 7542   1.779   5.857   7.030 -0.0767 -0.1853  0.0247
   82SOPE   H3X 7543   1.694   5.786   7.038 -1.0779  1.1348  1.7486
   82SOPE   H3Y 7544   1.867   5.809   7.078 -0.3706 -2.2593 -1.3540
   82SOPE   C34 7545   1.795   5.891   6.879 -0.3252 -0.0292  0.5708
   82SOPE   H4X 7546   1.889   5.951   6.875 -1.2021  1.4007  1.0734
   82SOPE   H4Y 7547   1.704   5.947   6.849 -1.4371 -1.5894  0.9119
   82SOPE   C35 7548   1.807   5.759   6.802  0.0734  0.0217 -0.0015
   82SOPE   H5X 7549   1.729   5.685   6.828 -0.4125  0.3090 -0.6330
   82SOPE   H5Y 7550   1.907   5.716   6.826  0.3640  0.8641  0.3603
   82SOPE   C36 7551   1.782   5.797   6.653 -0.3304  0.0005  0.4567
   82SOPE   H6X 7552   1.833   5.891   6.621 -1.8002 -0.0332 -2.3080
   82SOPE   H6Y 7553   1.672   5.804   6.639 -0.6753 -1.5438  2.0484
   82SOPE   C37 7554   1.824   5.690   6.542  0.4329 -0.4477 -0.2091
   82SOPE   H7X 7555   1.792   5.588   6.573 -0.4981 -0.5596 -1.4334
   82SOPE   H7Y 7556   1.934   5.692   6.532  0.4177  3.1553 -1.0827
   82SOPE   C38 7557   1.765   5.727   6.404 -0.4108 -0.2416  0.3471
   82SOPE   H8X 7558   1.660   5.763   6.413  0.2236  1.6700  0.5726
   82SOPE   H8Y 7559   1.784   5.643   6.333 -1.1354 -2.2186  2.3748
   82SOPE   C39 7560   1.846   5.845   6.349  0.4487  0.3754 -0.2050
   82SOPE   H9X 7561   1.956   5.839   6.359  0.4331  1.7214  1.0782
   82SOPE   H9Y 7562   1.818   5.942   6.395 -1.0292 -0.3308  0.4488
   82SOPE  C310 7563   1.836   5.863   6.198  0.8736  0.3871  0.5677
   82SOPE  H10X 7564   1.854   5.971   6.179 -1.3784  0.6557 -0.3945
   82SOPE  H10Y 7565   1.733   5.848   6.158  0.1157 -1.0320  2.8710
   82SOPE  C311 7566   1.932   5.777   6.111  0.3350 -0.0074  0.0281
   82SOPE  H11X 7567   1.915   5.668   6.130  1.1291  0.2184  2.2604
   82SOPE  H11Y 7568   2.037   5.802   6.138  1.1212 -3.7348  0.9965
   82SOPE  C312 7569   1.904   5.803   5.964 -0.7293 -0.2163  0.4993
   82SOPE  H12X 7570   1.938   5.904   5.933  0.0067  0.4620  3.2297
   82SOPE  H12Y 7571   1.793   5.796   5.959 -1.0708  2.6124  1.9896
   82SOPE  C313 7572   1.963   5.700   5.865  0.0319  0.1421  0.2504
   82SOPE  H13X 7573   1.938   5.598   5.901  0.3619 -0.2377 -0.5733
   82SOPE  H13Y 7574   2.073   5.695   5.850 -0.0087  0.4127 -0.1615
   82SOPE  C314 7575   1.903   5.724   5.726  0.2251 -0.0770 -0.5728
   82SOPE  H14X 7576   1.973   5.786   5.666  2.0105  0.6538  2.0576
   82SOPE  H14Y 7577   1.806   5.778   5.735 -0.8572 -1.5440 -2.7037
   82SOPE  C315 7578   1.879   5.588   5.651 -0.1195 -0.2292 -0.2763
   82SOPE  H15X 7579   1.831   5.616   5.555  0.5691 -1.0082 -0.8645
   82SOPE  H15Y 7580   1.801   5.544   5.717  0.4072 -0.8457 -0.0544
   82SOPE  C316 7581   2.008   5.513   5.627 -0.1371 -0.4630  0.0273
   82SOPE  H16X 7582   2.039   5.473   5.726  1.0518  0.6782  0.1374
   82SOPE  H16Y 7583   2.094   5.565   5.581  0.1353 -1.1576 -0.2632
   82SOPE  C317 7584   1.987   5.380   5.549 -0.2855  0.0896 -0.0966
   82SOPE  H17X 7585   2.087   5.333   5.544 -0.6660 -0.8487  0.7605
   82SOPE  H17Y 7586   1.951   5.389   5.444 -0.5985 -1.4790 -0.1373
   82SOPE  C318 7587   1.897   5.282   5.626 -0.1837 -0.0086  0.1807
   82SOPE  H18X 7588   1.914   5.180   5.585 -1.3560  0.5645 -1.8982
   82SOPE  H18Y 7589   1.790   5.308   5.614 -0.5155 -1.1842  0.3975
   82SOPE  H18Z 7590   1.937   5.276   5.730  1.7357  0.1149 -0.5138
   83SOPE     N 7591   0.337   3.071   3.075  0.1293  1.0015 -0.3131
   83SOPE   HN1 7592   0.426   3.121   3.052  0.6162 -0.1520 -1.0431
   83SOPE   HN2 7593   0.263   3.119   3.020  1.0761  1.2873 -1.3783
   83SOPE   HN3 7594   0.312   3.086   3.175 -2.7989  1.2528 -1.0055
   83SOPE   C12 7595   0.339   2.925   3.030 -0.6817  0.1612 -0.6083
   83SOPE  H12A 7596   0.395   2.932   2.934  0.1581  0.3484 -0.1141
   83SOPE  H12B 7597   0.240   2.878   3.010 -0.6436 -0.4187  0.4991
   83SOPE   C11 7598   0.404   2.849   3.153 -0.1954 -0.4568  0.7397
   83SOPE  H11A 7599   0.506   2.894   3.157 -0.6041  0.6472 -0.6510
   83SOPE  H11B 7600   0.419   2.741   3.132 -1.1275 -0.5362  0.4228
   83SOPE     P 7601   0.248   2.794   3.360  0.4811 -0.3112  0.8779
   83SOPE   O13 7602   0.221   2.667   3.288  0.2080 -0.1305  0.1229
   83SOPE   O14 7603   0.127   2.875   3.395  0.5802 -0.1664  0.3985
   83SOPE   O12 7604   0.345   2.883   3.276  0.3867  0.0559  0.7352
   83SOPE   O11 7605   0.350   2.763   3.482  0.4448  0.2205  0.1844
   83SOPE    C1 7606   0.480   2.747   3.478 -0.7324 -0.2130  0.5990
   83SOPE    HA 7607   0.516   2.711   3.379  0.7710 -2.3356  1.8104
   83SOPE    HB 7608   0.511   2.672   3.554 -1.4180 -0.0706  1.0270
   83SOPE    C2 7609   0.551   2.879   3.516  0.7238  0.3443 -0.3348
   83SOPE    HS 7610   0.525   2.961   3.447 -1.7264 -1.0934 -1.2269
   83SOPE   O21 7611   0.688   2.843   3.532 -0.2786  0.0415 -0.3885
   83SOPE   C21 7612   0.771   2.952   3.512 -0.2446 -0.0548 -0.2654
   83SOPE   O22 7613   0.732   3.057   3.465 -0.3754 -0.3418 -0.3827
   83SOPE   C22 7614   0.910   2.919   3.559  0.0624  0.0568  0.1474
   83SOPE   H2R 7615   0.954   2.842   3.492 -0.0276  0.1772 -0.0513
   83SOPE   H2S 7616   0.883   2.863   3.651 -2.4162 -0.7930 -1.0114
   83SOPE    C3 7617   0.497   2.922   3.654  0.1773  0.8272 -0.0321
   83SOPE    HX 7618   0.516   2.831   3.715 -0.2174 -1.6105 -3.3133
   83SOPE    HY 7619   0.386   2.936   3.653 -0.0940 -1.0521 -0.3824
   83SOPE   O31 7620   0.557   3.040   3.703  0.4522 -0.3133 -0.5649
   83SOPE   C31 7621   0.495   3.159   3.719 -0.6559 -0.5356  0.3769
   83SOPE   O32 7622   0.374   3.166   3.718 -0.1565 -0.1087 -0.0411
   83SOPE   C32 7623   0.598   3.270   3.744  0.0559 -0.1417  0.7615
   83SOPE   H2X 7624   0.655   3.289   3.651  2.1408 -0.2401  1.9658
   83SOPE   H2Y 7625   0.678   3.230   3.810 -0.0791  1.1043  1.7067
   83SOPE   C23 7626   1.001   3.041   3.585 -0.7595  0.1770  0.3344
   83SOPE   H3R 7627   0.952   3.139   3.567  1.3301  0.8703 -2.0360
   83SOPE   H3S 7628   1.089   3.033   3.519 -0.7190  1.8356  0.1471
   83SOPE   C24 7629   1.053   3.024   3.730  0.2398  0.3035  0.0160
   83SOPE   H4R 7630   1.090   2.922   3.753  0.1623  0.2331 -0.1698
   83SOPE   H4S 7631   1.149   3.079   3.728  0.8454 -0.4972  2.7373
   83SOPE   C25 7632   0.945   3.060   3.833 -0.3334  0.1977 -0.3063
   83SOPE   H5R 7633   0.903   3.162   3.822  1.7398  1.1611  0.1568
   83SOPE   H5S 7634   0.848   3.008   3.818 -1.8977  3.4093 -2.4121
   83SOPE   C26 7635   1.000   3.060   3.977 -0.4535  0.4084 -0.2777
   83SOPE   H6R 7636   1.043   2.960   3.999  1.0066  0.6910 -1.6461
   83SOPE   H6S 7637   1.085   3.130   3.977  0.9126 -1.0297  3.2739
   83SOPE   C27 7638   0.903   3.094   4.083  0.1708 -0.3877 -0.5597
   83SOPE   H7R 7639   0.825   3.162   4.043  0.0180 -2.2326 -3.7236
   83SOPE   H7S 7640   0.839   3.006   4.107 -0.9154  0.1288 -1.4939
   83SOPE   C28 7641   0.974   3.146   4.212 -0.0886 -0.6986 -0.4420
   83SOPE   H8R 7642   1.052   3.214   4.172  1.6741 -2.1415  0.3895
   83SOPE   H8S 7643   0.887   3.186   4.268 -0.2299 -0.9354 -0.4910
   83SOPE   C29 7644   1.052   3.037   4.288 -0.2041  0.7655 -0.3584
   83SOPE   H91 7645   1.141   3.001   4.234 -1.2028  0.8434 -2.1193
   83SOPE  C210 7646   1.046   3.003   4.419  0.3354 -0.4605  0.0678
   83SOPE  H101 7647   1.107   2.921   4.459  0.2127 -1.9853 -2.6221
   83SOPE  C211 7648   0.949   3.069   4.510 -0.3249  0.0529 -0.5131
   83SOPE  H11R 7649   0.945   3.179   4.494  0.4221 -0.0026 -1.1281
   83SOPE  H11S 7650   0.995   3.042   4.607  2.3392 -3.5650 -2.5583
   83SOPE  C212 7651   0.812   3.007   4.508  0.8451 -0.8950  0.1532
   83SOPE  H12R 7652   0.764   3.017   4.408 -0.8460  1.5689  1.0978
   83SOPE  H12S 7653   0.739   3.070   4.564 -1.7556 -0.2018 -3.6298
   83SOPE  C213 7654   0.809   2.864   4.573  0.2039  0.4481  0.5099
   83SOPE  H13R 7655   0.863   2.891   4.666  0.8141  1.5940 -0.1466
   83SOPE  H13S 7656   0.869   2.796   4.510  1.9497  1.8637  0.5546
   83SOPE  C214 7657   0.668   2.803   4.596 -0.5484 -0.4501 -0.1908
   83SOPE  H14R 7658   0.616   2.779   4.501 -0.3061  0.5438 -0.5818
   83SOPE  H14S 7659   0.609   2.881   4.648  0.1780  0.3464 -0.5487
   83SOPE  C215 7660   0.692   2.668   4.665  0.6915  0.1927  0.4529
   83SOPE  H15R 7661   0.762   2.690   4.748  1.6909 -1.2389  0.0420
   83SOPE  H15S 7662   0.738   2.594   4.596 -1.4841  1.0373 -2.0733
   83SOPE  C216 7663   0.560   2.619   4.726  0.8154  0.2328 -0.2296
   83SOPE  H16R 7664   0.477   2.649   4.657 -0.4942  2.0446  1.9849
   83SOPE  H16S 7665   0.533   2.669   4.822 -0.8638 -0.1140 -0.4766
   83SOPE  C217 7666   0.564   2.466   4.752 -0.2357 -0.2914  0.6509
   83SOPE  H17R 7667   0.596   2.406   4.664  0.4467 -1.6506  1.7746
   83SOPE  H17S 7668   0.465   2.434   4.790 -0.8482  1.2035  0.3825
   83SOPE  C218 7669   0.666   2.424   4.860  0.0094  0.3845  0.3043
   83SOPE  H18R 7670   0.771   2.426   4.826 -0.4606  1.2896 -1.1642
   83SOPE  H18S 7671   0.640   2.317   4.880  2.9648 -0.6350 -0.7221
   83SOPE  H18T 7672   0.658   2.479   4.956 -0.0149 -0.1760  0.6306
   83SOPE   C33 7673   0.560   3.408   3.792 -0.4420 -0.1827  0.0540
   83SOPE   H3X 7674   0.481   3.445   3.724 -0.6106 -1.3600 -0.4283
   83SOPE   H3Y 7675   0.646   3.477   3.780 -0.0873 -0.3962  1.2175
   83SOPE   C34 7676   0.514   3.402   3.934  1.1562  0.4587  0.1028
   83SOPE   H4X 7677   0.485   3.301   3.972 -0.2705  1.4328  1.7965
   83SOPE   H4Y 7678   0.423   3.460   3.958  1.0210 -0.3126  1.6154
   83SOPE   C35 7679   0.607   3.441   4.047 -0.4325  0.0753  0.5937
   83SOPE   H5X 7680   0.633   3.547   4.026  3.1037 -1.1513 -2.4415
   83SOPE   H5Y 7681   0.704   3.395   4.019  0.0770  1.8896 -0.8525
   83SOPE   C36 7682   0.564   3.397   4.185  0.8423 -0.2434 -0.5831
   83SOPE   H6X 7683   0.532   3.291   4.192 -0.8130  0.2755  0.2224
   83SOPE   H6Y 7684   0.479   3.459   4.221  3.3378  2.4438  1.1217
   83SOPE   C37 7685   0.673   3.417   4.296 -0.0905 -0.0897 -0.4965
   83SOPE   H7X 7686   0.719   3.518   4.283 -0.9049  0.5305  1.1977
   83SOPE   H7Y 7687   0.749   3.337   4.280 -1.8281 -2.0029  0.2734
   83SOPE   C38 7688   0.608   3.397   4.432 -0.0201  0.0109  0.3614
   83SOPE   H8X 7689   0.558   3.298   4.441 -2.6169  1.2615  0.7393
   83SOPE   H8Y 7690   0.529   3.476   4.434  0.5307  0.5750  2.6864
   83SOPE   C39 7691   0.715   3.410   4.535  0.3392 -0.7247  0.1419
   83SOPE   H9X 7692   0.769   3.507   4.530  2.8523 -2.0690 -0.4319
   83SOPE   H9Y 7693   0.796   3.335   4.526  0.5279 -0.4054 -0.8979
   83SOPE  C310 7694   0.659   3.396   4.672 -0.3289  0.0156 -0.9696
   83SOPE  H10X 7695   0.586   3.313   4.661 -1.6215  1.1678 -1.4789
   83SOPE  H10Y 7696   0.600   3.486   4.699  0.4062  0.1112  0.4227
   83SOPE  C311 7697   0.772   3.376   4.774  0.3021 -0.6006  0.6185
   83SOPE  H11X 7698   0.844   3.460   4.764 -1.1714  0.9329  2.1880
   83SOPE  H11Y 7699   0.824   3.280   4.755 -2.1830 -2.0435  0.6141
   83SOPE  C312 7700   0.714   3.367   4.920  0.1372  0.1032  0.4387
   83SOPE  H12X 7701   0.649   3.278   4.928  2.3827 -1.5045  1.6662
   83SOPE  H12Y 7702   0.657   3.458   4.947  1.0647  0.8687 -0.0890
   83SOPE  C313 7703   0.826   3.355   5.024 -0.2106 -0.1304 -0.1467
   83SOPE  H13X 7704   0.845   3.459   5.056 -1.4662 -0.0666  0.5031
   83SOPE  H13Y 7705   0.914   3.321   4.967 -0.1483  2.2724 -1.5716
   83SOPE  C314 7706   0.790   3.263   5.140  0.0429 -0.0557  0.0129
   83SOPE  H14X 7707   0.785   3.157   5.106  2.5128 -0.3753  0.4671
   83SOPE  H14Y 7708   0.689   3.288   5.179  0.3029 -1.3853  1.6562
   83SOPE  C315 7709   0.888   3.265   5.254 -0.2515  0.2503  0.2902
   83SOPE  H15X 7710   0.863   3.362   5.301 -0.2981  1.4867 -2.1116
   83SOPE  H15Y 7711   0.995   3.268   5.224 -0.0408  0.0064  1.0008
   83SOPE  C316 7712   0.869   3.147   5.349 -0.3807 -0.1420  0.0912
   83SOPE  H16X 7713   0.910   3.059   5.295  0.4228  1.4348 -2.0158
   83SOPE  H16Y 7714   0.765   3.121   5.379  0.1514  0.6368  2.8800
   83SOPE  C317 7715   0.949   3.154   5.482 -0.4468  0.4479  0.0224
   83SOPE  H17X 7716   1.055   3.141   5.453 -0.0672  3.3447 -0.2533
   83SOPE  H17Y 7717   0.918   3.066   5.541  1.2097 -0.9908 -1.1750
   83SOPE  C318 7718   0.953   3.282   5.572  0.3190  0.4476 -0.2296
   83SOPE  H18X 7719   1.018   3.265   5.660 -1.9833  1.9707  1.9227
   83SOPE  H18Y 7720   0.848   3.297   5.606 -0.1487  1.6675 -2.0609
   83SOPE  H18Z 7721   0.979   3.380   5.528 -1.9168  0.7133 -1.1200
   84SOPE     N 7722   3.864   0.593   3.411 -0.7799 -0.1500  0.5419
   84SOPE   HN1 7723   3.784   0.608   3.347  0.1708 -0.3943 -0.7592
   84SOPE   HN2 7724   3.926   0.677   3.407 -0.1122 -0.5965  1.1926
   84SOPE   HN3 7725   3.921   0.515   3.372  0.4084  1.3971 -0.9928
   84SOPE   C12 7726   3.825   0.567   3.551  0.2359 -0.3104  0.0042
   84SOPE  H12A 7727   3.916   0.582   3.611  0.1768 -0.2221  0.0720
   84SOPE  H12B 7728   3.787   0.463   3.560  0.2302 -0.2138  1.1918
   84SOPE   C11 7729   3.711   0.665   3.605 -0.2833  0.3901 -0.3892
   84SOPE  H11A 7730   3.735   0.773   3.597  3.3656 -0.4110 -2.2510
   84SOPE  H11B 7731   3.717   0.632   3.711  1.5641 -0.6011 -0.7626
   84SOPE     P 7732   3.534   0.686   3.410  0.2740  0.2246  0.0309
   84SOPE   O13 7733   3.393   0.646   3.404  0.0360 -0.0403 -0.2845
   84SOPE   O14 7734   3.627   0.637   3.306 -0.9133  0.5260 -0.3804
   84SOPE   O12 7735   3.582   0.633   3.551  0.2901 -0.5252  0.1042
   84SOPE   O11 7736   3.549   0.849   3.422  0.7400 -0.2786  0.2425
   84SOPE    C1 7737   3.448   0.930   3.476  0.5204 -0.3130 -0.1860
   84SOPE    HA 7738   3.350   0.880   3.458 -0.6231  0.5836  2.8438
   84SOPE    HB 7739   3.451   1.030   3.430  1.6639 -0.6342 -0.8348
   84SOPE    C2 7740   3.456   0.946   3.630  0.0859 -0.6564 -0.5582
   84SOPE    HS 7741   3.555   0.989   3.659 -1.0883  1.1523  1.0191
   84SOPE   O21 7742   3.423   0.816   3.690  0.0369 -0.2393 -0.4048
   84SOPE   C21 7743   3.478   0.785   3.803  0.1211 -0.4643  0.4004
   84SOPE   O22 7744   3.558   0.855   3.863 -0.0396 -0.0746  0.0548
   84SOPE   C22 7745   3.410   0.657   3.852 -0.1164  0.4925 -0.2879
   84SOPE   H2R 7746   3.414   0.579   3.772  3.7985  0.2893 -0.0923
   84SOPE   H2S 7747   3.306   0.684   3.879  0.1560  0.4195  0.8575
   84SOPE    C3 7748   3.342   1.054   3.682  0.5311  0.1134 -0.1966
   84SOPE    HX 7749   3.247   1.006   3.651 -0.3839  1.4575  0.4450
   84SOPE    HY 7750   3.350   1.149   3.626  1.4787 -0.0876 -0.4145
   84SOPE   O31 7751   3.358   1.065   3.825 -0.7063  0.0002 -0.1476
   84SOPE   C31 7752   3.461   1.144   3.866 -0.4342  0.2491  0.4728
   84SOPE   O32 7753   3.535   1.194   3.789 -0.1739  0.1364  0.6557
   84SOPE   C32 7754   3.449   1.158   4.020  0.0030 -0.6756 -0.2000
   84SOPE   H2X 7755   3.445   1.056   4.064  1.2975 -1.1303 -1.0658
   84SOPE   H2Y 7756   3.354   1.213   4.038  0.9317  1.0421 -0.3260
   84SOPE   C23 7757   3.489   0.601   3.977 -0.1119 -0.0192 -0.2845
   84SOPE   H3R 7758   3.591   0.568   3.946 -0.3774 -1.0392 -0.0877
   84SOPE   H3S 7759   3.442   0.501   3.988 -0.2717 -0.1082 -1.5725
   84SOPE   C24 7760   3.470   0.675   4.110 -0.2986  0.3375 -0.1742
   84SOPE   H4R 7761   3.518   0.775   4.101 -1.4756  0.7998 -1.7926
   84SOPE   H4S 7762   3.365   0.710   4.122  0.2331  2.2419 -0.6613
   84SOPE   C25 7763   3.511   0.587   4.230 -0.5042  0.4417 -0.7151
   84SOPE   H5R 7764   3.456   0.493   4.250 -0.3528  0.8490  2.1068
   84SOPE   H5S 7765   3.616   0.552   4.220 -1.1084 -1.6006 -0.2297
   84SOPE   C26 7766   3.507   0.670   4.359 -0.4905  0.8242 -0.5980
   84SOPE   H6R 7767   3.574   0.759   4.355  1.6524 -0.6503  0.4166
   84SOPE   H6S 7768   3.401   0.693   4.381 -0.8978 -0.6140 -0.9397
   84SOPE   C27 7769   3.547   0.584   4.482  1.1181 -1.0031  0.3759
   84SOPE   H7R 7770   3.479   0.498   4.469 -0.8948  0.8782 -3.0638
   84SOPE   H7S 7771   3.648   0.544   4.458  2.5366  0.7721  2.8904
   84SOPE   C28 7772   3.558   0.641   4.620  0.4208 -0.3011  1.0064
   84SOPE   H8R 7773   3.599   0.565   4.689  1.3584 -2.1401 -1.4444
   84SOPE   H8S 7774   3.617   0.735   4.622 -0.1238  0.0405  2.4379
   84SOPE   C29 7775   3.417   0.669   4.661 -0.0657  0.3063  0.3123
   84SOPE   H91 7776   3.339   0.606   4.616 -1.5307  0.0540  3.0344
   84SOPE  C210 7777   3.376   0.768   4.744 -0.2551 -0.1097  0.0322
   84SOPE  H101 7778   3.269   0.772   4.771  0.4116 -0.8079  3.1023
   84SOPE  C211 7779   3.459   0.868   4.824 -0.1777 -0.1208  0.9558
   84SOPE  H11R 7780   3.433   0.967   4.780 -2.6331 -1.0189  0.2521
   84SOPE  H11S 7781   3.569   0.852   4.817 -0.2199 -0.4422  1.0372
   84SOPE  C212 7782   3.414   0.848   4.969  0.5701 -0.0767 -0.3832
   84SOPE  H12R 7783   3.305   0.871   4.975  0.5141 -0.4292 -0.0419
   84SOPE  H12S 7784   3.470   0.926   5.024 -2.3101 -0.4307  3.4466
   84SOPE  C213 7785   3.466   0.718   5.034  0.2720  0.4272  0.6053
   84SOPE  H13R 7786   3.576   0.729   5.022  0.4292  0.9063  2.2380
   84SOPE  H13S 7787   3.439   0.629   4.973 -0.6180  2.5371 -2.3182
   84SOPE  C214 7788   3.438   0.710   5.185 -0.0128  0.3027  0.4579
   84SOPE  H14R 7789   3.329   0.710   5.206 -0.2055 -1.3967 -0.4029
   84SOPE  H14S 7790   3.477   0.805   5.226  2.1211 -0.1230 -0.4578
   84SOPE  C215 7791   3.514   0.587   5.246 -0.0711 -0.4329 -0.2290
   84SOPE  H15R 7792   3.619   0.615   5.220  0.6636 -1.8496  1.0630
   84SOPE  H15S 7793   3.479   0.491   5.201 -2.2518 -0.6867  1.8271
   84SOPE  C216 7794   3.499   0.581   5.395 -0.2079  0.5562  0.0095
   84SOPE  H16R 7795   3.414   0.513   5.418  1.5930 -0.9329  2.8859
   84SOPE  H16S 7796   3.474   0.683   5.431 -0.4547  0.9193 -1.1615
   84SOPE  C217 7797   3.620   0.510   5.460 -0.2927  0.2016  0.2267
   84SOPE  H17R 7798   3.724   0.547   5.447  0.0613 -0.9539 -0.3217
   84SOPE  H17S 7799   3.639   0.418   5.402  0.0872  0.8194 -0.6428
   84SOPE  C218 7800   3.591   0.476   5.607 -0.7389  0.3196 -0.0199
   84SOPE  H18R 7801   3.588   0.572   5.663 -0.5631 -0.9448  2.3126
   84SOPE  H18S 7802   3.671   0.413   5.651 -0.0046  1.2482 -0.0029
   84SOPE  H18T 7803   3.492   0.425   5.616  0.6649 -3.0882 -2.2160
   84SOPE   C33 7804   3.561   1.247   4.090  0.0727  0.1954 -0.5105
   84SOPE   H3X 7805   3.543   1.354   4.063 -1.5155 -0.0749 -0.6525
   84SOPE   H3Y 7806   3.665   1.221   4.062  0.4409 -0.1178  1.0696
   84SOPE   C34 7807   3.546   1.240   4.246 -0.2495 -0.0007  0.2099
   84SOPE   H4X 7808   3.442   1.204   4.265 -0.0609 -1.3500 -1.1462
   84SOPE   H4Y 7809   3.557   1.337   4.299  1.4453 -1.2151  2.2702
   84SOPE   C35 7810   3.655   1.156   4.313  0.2391 -0.6791  0.4313
   84SOPE   H5X 7811   3.751   1.190   4.270 -0.4789  1.4007  0.3886
   84SOPE   H5Y 7812   3.636   1.050   4.286  0.8204 -0.5301 -0.6207
   84SOPE   C36 7813   3.666   1.191   4.467  0.2836  0.4918  0.2081
   84SOPE   H6X 7814   3.579   1.162   4.529  0.4174  0.5233  0.4094
   84SOPE   H6Y 7815   3.669   1.301   4.478  1.2466  0.4426  0.4882
   84SOPE   C37 7816   3.770   1.115   4.541 -0.3695  0.0239 -0.2845
   84SOPE   H7X 7817   3.873   1.144   4.513  0.2453 -0.4557  1.3485
   84SOPE   H7Y 7818   3.761   1.007   4.516  1.7068 -0.1835 -0.3489
   84SOPE   C38 7819   3.772   1.123   4.694 -0.4000  0.2499  0.1175
   84SOPE   H8X 7820   3.670   1.108   4.737 -1.2044  3.1457 -0.5125
   84SOPE   H8Y 7821   3.804   1.226   4.720 -2.4247  0.8020  0.5950
   84SOPE   C39 7822   3.865   1.020   4.760 -0.4895  0.5628 -0.0394
   84SOPE   H9X 7823   3.911   0.945   4.692  0.1614 -0.0408  1.0379
   84SOPE   H9Y 7824   3.803   0.968   4.835 -2.3870  1.8866 -0.6086
   84SOPE  C310 7825   3.979   1.092   4.839 -0.0269  0.4854  0.4266
   84SOPE  H10X 7826   3.938   1.162   4.915 -0.4448  1.0829 -0.3336
   84SOPE  H10Y 7827   4.039   1.153   4.769  0.3989 -1.6833 -1.1981
   84SOPE  C311 7828   4.075   0.988   4.898  0.2405  0.8978  0.4537
   84SOPE  H11X 7829   4.135   0.948   4.813  1.5328 -0.9049  2.1099
   84SOPE  H11Y 7830   4.016   0.903   4.940 -0.3004 -0.0331 -2.0102
   84SOPE  C312 7831   4.167   1.040   5.012 -0.7355  0.3512  0.3537
   84SOPE  H12X 7832   4.243   1.106   4.964  0.0338 -0.3932  0.5187
   84SOPE  H12Y 7833   4.213   0.951   5.060 -2.4930  0.3189  2.0599
   84SOPE  C313 7834   4.100   1.124   5.121 -0.1002 -0.1210  0.0822
   84SOPE  H13X 7835   4.033   1.059   5.180 -0.3869 -0.1308 -0.2489
   84SOPE  H13Y 7836   4.041   1.212   5.086  0.1429  0.1902  0.4547
   84SOPE  C314 7837   4.205   1.167   5.225 -0.3337  0.5629 -0.6195
   84SOPE  H14X 7838   4.279   1.084   5.228 -1.3113 -0.3733 -1.7423
   84SOPE  H14Y 7839   4.153   1.165   5.324  0.0829  0.3212 -0.4016
   84SOPE  C315 7840   4.273   1.299   5.199  0.1018 -0.5739 -0.8678
   84SOPE  H15X 7841   4.191   1.372   5.183 -0.5766 -1.3974 -1.2934
   84SOPE  H15Y 7842   4.324   1.297   5.100 -0.2204 -2.6274 -1.0515
   84SOPE  C316 7843   4.368   1.340   5.314  0.3826 -0.5134  0.0580
   84SOPE  H16X 7844   4.447   1.405   5.271 -0.3837 -0.8555 -1.9764
   84SOPE  H16Y 7845   4.424   1.248   5.342  3.8713  1.8954  1.7323
   84SOPE  C317 7846   4.309   1.388   5.453  0.0555 -0.3315 -0.1042
   84SOPE  H17X 7847   4.388   1.376   5.530  0.4967 -1.2080 -0.6760
   84SOPE  H17Y 7848   4.232   1.313   5.479  1.8331 -2.0263  0.5154
   84SOPE  C318 7849   4.244   1.520   5.462  0.3188 -0.4156  0.4375
   84SOPE  H18X 7850   4.212   1.556   5.361  0.6721 -0.1121  0.4317
   84SOPE  H18Y 7851   4.318   1.603   5.470 -0.3178  0.2156 -0.0977
   84SOPE  H18Z 7852   4.168   1.524   5.542 -2.1222  0.6611 -1.7536
   85SOPE     N 7853   2.959   3.586   3.023 -0.0031  0.2992 -0.3250
   85SOPE   HN1 7854   3.029   3.662   3.008  0.0790  0.4262  0.5975
   85SOPE   HN2 7855   3.011   3.496   3.021  1.0449  0.8267  1.1183
   85SOPE   HN3 7856   2.895   3.583   2.942  0.3632 -1.6548 -0.5972
   85SOPE   C12 7857   2.875   3.600   3.148  0.2362 -0.1355  0.1404
   85SOPE  H12A 7858   2.826   3.501   3.156  1.2197 -0.6653 -0.1491
   85SOPE  H12B 7859   2.798   3.679   3.133 -0.5142 -1.3689 -3.3289
   85SOPE   C11 7860   2.965   3.618   3.270 -0.2162  0.1736  0.2925
   85SOPE  H11A 7861   2.896   3.584   3.351  0.5557 -0.0807  0.8523
   85SOPE  H11B 7862   2.991   3.724   3.290 -0.5530  0.0104  1.6937
   85SOPE     P 7863   3.141   3.472   3.406 -0.1695 -0.0177 -0.0276
   85SOPE   O13 7864   3.288   3.474   3.396 -0.2521  0.5424 -0.0266
   85SOPE   O14 7865   3.076   3.349   3.453 -0.6465  0.9692  0.3075
   85SOPE   O12 7866   3.078   3.530   3.275  0.0574  0.1216 -0.4935
   85SOPE   O11 7867   3.102   3.581   3.509  0.5530 -0.6058  0.2701
   85SOPE    C1 7868   3.201   3.683   3.544 -0.5532  0.2972 -0.1617
   85SOPE    HA 7869   3.210   3.757   3.462 -1.9257  1.5131  0.7319
   85SOPE    HB 7870   3.302   3.637   3.554  0.2106  1.8858 -0.1394
   85SOPE    C2 7871   3.167   3.755   3.672  0.6977  0.7555 -0.9883
   85SOPE    HS 7872   3.226   3.849   3.680 -1.1985  1.9528 -0.0694
   85SOPE   O21 7873   3.183   3.660   3.781 -0.1890  0.0431  0.2188
   85SOPE   C21 7874   3.275   3.691   3.876 -0.6022  0.0836  0.4497
   85SOPE   O22 7875   3.370   3.765   3.854  0.1426 -0.0996  0.3065
   85SOPE   C22 7876   3.246   3.609   3.998  0.5646  0.3488  0.0487
   85SOPE   H2R 7877   3.281   3.506   3.978  1.0692  0.0058  2.3842
   85SOPE   H2S 7878   3.138   3.614   4.024  0.2541  1.1412 -1.2879
   85SOPE    C3 7879   3.020   3.814   3.656  0.6067  0.4131 -1.1823
   85SOPE    HX 7880   2.946   3.736   3.631 -0.7935  0.2691  2.7731
   85SOPE    HY 7881   3.032   3.886   3.572  2.6723  2.2703  0.5251
   85SOPE   O31 7882   2.964   3.865   3.786  0.7883  0.3276 -0.3709
   85SOPE   C31 7883   2.999   3.993   3.806  0.4128 -0.2775  0.5048
   85SOPE   O32 7884   3.053   4.063   3.725  0.5015 -0.0013  0.3656
   85SOPE   C32 7885   2.945   4.040   3.940 -0.5401  0.2849 -0.9115
   85SOPE   H2X 7886   2.848   3.987   3.956  0.4446 -1.4377 -0.3280
   85SOPE   H2Y 7887   2.928   4.149   3.952  0.0503  0.3686 -0.7861
   85SOPE   C23 7888   3.335   3.654   4.117 -0.1774  0.2549  0.0796
   85SOPE   H3R 7889   3.340   3.765   4.117  1.5278  0.2338 -1.8930
   85SOPE   H3S 7890   3.438   3.612   4.111 -0.0625  0.7597 -2.1916
   85SOPE   C24 7891   3.282   3.595   4.250  0.2557  0.0535  0.4890
   85SOPE   H4R 7892   3.200   3.668   4.268  0.4507  1.0166 -2.0780
   85SOPE   H4S 7893   3.253   3.490   4.231  0.3142 -0.0075  0.7297
   85SOPE   C25 7894   3.389   3.599   4.362  0.3392  0.2251 -0.4595
   85SOPE   H5R 7895   3.474   3.530   4.342 -0.8029 -1.9985  1.9591
   85SOPE   H5S 7896   3.423   3.705   4.368  0.3133  0.1719  0.6963
   85SOPE   C26 7897   3.326   3.557   4.491  0.6299  0.1923  0.3949
   85SOPE   H6R 7898   3.237   3.624   4.491  0.7364  0.3331  0.1844
   85SOPE   H6S 7899   3.300   3.450   4.476 -1.3984  0.4899  1.3912
   85SOPE   C27 7900   3.410   3.593   4.613 -0.5306  0.5269 -0.1780
   85SOPE   H7R 7901   3.512   3.550   4.612 -0.4523  0.7044  0.0709
   85SOPE   H7S 7902   3.428   3.702   4.617 -0.9547  0.5616  1.8771
   85SOPE   C28 7903   3.352   3.549   4.753  0.3064  0.4495  0.8642
   85SOPE   H8R 7904   3.365   3.632   4.825 -0.7410  3.3679 -2.0674
   85SOPE   H8S 7905   3.241   3.549   4.752  0.0577 -3.9030 -2.6929
   85SOPE   C29 7906   3.388   3.408   4.790  0.0330 -0.1736 -0.4309
   85SOPE   H91 7907   3.335   3.330   4.735 -2.6033  0.3174  1.2075
   85SOPE  C210 7908   3.482   3.377   4.882 -0.2921 -0.5005 -0.0413
   85SOPE  H101 7909   3.507   3.276   4.920  0.9515  0.2608  1.2695
   85SOPE  C211 7910   3.562   3.483   4.954  0.5579  0.0211 -0.6876
   85SOPE  H11R 7911   3.567   3.575   4.893 -1.4879 -0.2816 -1.3813
   85SOPE  H11S 7912   3.667   3.447   4.947  0.5315  0.2537 -3.1501
   85SOPE  C212 7913   3.521   3.509   5.105  0.0482  0.4550 -0.3602
   85SOPE  H12R 7914   3.498   3.409   5.148 -0.5672  1.0859  0.8501
   85SOPE  H12S 7915   3.417   3.549   5.103 -0.9992 -2.1140 -1.5541
   85SOPE  C213 7916   3.616   3.597   5.184 -0.2756  0.1798 -0.4902
   85SOPE  H13R 7917   3.561   3.641   5.270  0.5501  1.9691 -0.8162
   85SOPE  H13S 7918   3.648   3.671   5.107  1.1811  0.1431  0.0532
   85SOPE  C214 7919   3.735   3.523   5.245 -0.0473  0.5941  0.9075
   85SOPE  H14R 7920   3.774   3.457   5.165 -1.1359  0.9879  0.0340
   85SOPE  H14S 7921   3.683   3.454   5.314 -0.2470 -0.9855 -0.7744
   85SOPE  C215 7922   3.838   3.604   5.331 -0.4781  0.5849  0.4017
   85SOPE  H15R 7923   3.896   3.677   5.272  0.0927  0.9028  1.3277
   85SOPE  H15S 7924   3.908   3.534   5.381 -1.3721  0.2022  1.1591
   85SOPE  C216 7925   3.767   3.680   5.445  0.0263  0.0601  0.0289
   85SOPE  H16R 7926   3.701   3.612   5.504 -0.5561 -0.2748 -0.9935
   85SOPE  H16S 7927   3.706   3.765   5.408  1.2399  1.2441  0.6820
   85SOPE  C217 7928   3.862   3.731   5.555 -0.3470 -0.0706  0.4225
   85SOPE  H17R 7929   3.934   3.788   5.492 -1.8849 -1.7438 -3.1555
   85SOPE  H17S 7930   3.923   3.647   5.594 -0.0566 -0.8860 -1.6462
   85SOPE  C218 7931   3.787   3.810   5.662  0.3347  0.0331 -0.8507
   85SOPE  H18R 7932   3.685   3.775   5.690  1.3484 -1.9772  0.6208
   85SOPE  H18S 7933   3.785   3.914   5.623  2.8953  0.9166  1.0362
   85SOPE  H18T 7934   3.843   3.799   5.757 -1.9364  2.0412  0.8427
   85SOPE   C33 7935   3.033   3.976   4.057 -0.9655 -0.1522 -0.3112
   85SOPE   H3X 7936   3.141   4.001   4.044 -0.6989  0.1739  2.0182
   85SOPE   H3Y 7937   3.028   3.865   4.064  0.8035 -0.2105  0.5725
   85SOPE   C34 7938   2.998   4.037   4.201 -0.7204 -0.2295  0.0424
   85SOPE   H4X 7939   2.892   4.058   4.225 -1.2624 -2.8433  0.2800
   85SOPE   H4Y 7940   3.053   4.132   4.213 -0.2893 -0.5636  0.8353
   85SOPE   C35 7941   3.058   3.964   4.330  0.1006 -0.2072  0.0278
   85SOPE   H5X 7942   3.166   3.989   4.330 -0.0637  0.7877 -2.2970
   85SOPE   H5Y 7943   3.035   3.856   4.329 -1.9896  0.1395 -3.0033
   85SOPE   C36 7944   3.003   4.018   4.458  0.6366  0.2585  1.0688
   85SOPE   H6X 7945   2.892   4.016   4.451  0.7534 -0.2367 -1.7714
   85SOPE   H6Y 7946   3.020   4.127   4.464 -2.1538  0.8336  0.2909
   85SOPE   C37 7947   3.082   3.943   4.570  0.0740  0.1373  0.1653
   85SOPE   H7X 7948   3.137   4.027   4.618  0.6617  0.4564 -1.0124
   85SOPE   H7Y 7949   3.140   3.855   4.536  0.9592  0.8670 -0.2927
   85SOPE   C38 7950   2.985   3.898   4.684 -0.1275 -0.2272  0.7152
   85SOPE   H8X 7951   2.899   3.860   4.625 -0.7592  0.2778  1.2975
   85SOPE   H8Y 7952   2.940   3.985   4.735  1.9252  0.2743  1.7714
   85SOPE   C39 7953   3.048   3.800   4.774  0.2668  0.7925 -0.7174
   85SOPE   H9X 7954   3.152   3.830   4.798  1.1229 -1.5192 -1.2237
   85SOPE   H9Y 7955   3.060   3.703   4.722 -0.2355  0.6722 -0.6170
   85SOPE  C310 7956   2.961   3.780   4.896 -0.2132 -0.3888  0.0043
   85SOPE  H10X 7957   2.864   3.729   4.880 -0.9569 -0.1896  3.1167
   85SOPE  H10Y 7958   2.933   3.882   4.932 -0.2908 -0.4821  0.2149
   85SOPE  C311 7959   3.037   3.712   5.010  0.4303  0.8805 -0.1457
   85SOPE  H11X 7960   3.109   3.648   4.954 -0.0463 -0.4195  0.6812
   85SOPE  H11Y 7961   2.974   3.634   5.057  0.7623 -0.0712 -1.2299
   85SOPE  C312 7962   3.084   3.811   5.117 -0.2921  0.6103 -0.4001
   85SOPE  H12X 7963   2.994   3.868   5.147 -1.3787 -1.6514  0.9364
   85SOPE  H12Y 7964   3.164   3.875   5.073  1.2081 -0.4066  0.7250
   85SOPE  C313 7965   3.127   3.728   5.242 -0.4606 -0.4255  0.0508
   85SOPE  H13X 7966   3.224   3.674   5.232 -0.1456  0.0787  0.3583
   85SOPE  H13Y 7967   3.041   3.659   5.258  0.2731 -1.6112 -0.9132
   85SOPE  C314 7968   3.146   3.824   5.367 -0.2758  0.1380  0.3214
   85SOPE  H14X 7969   3.043   3.864   5.384 -0.9420 -1.6838  0.7716
   85SOPE  H14Y 7970   3.222   3.904   5.359 -2.3148  2.3228  1.5382
   85SOPE  C315 7971   3.179   3.743   5.503 -0.6034  0.1876  0.4913
   85SOPE  H15X 7972   3.264   3.680   5.469 -2.0794 -0.9712 -1.2539
   85SOPE  H15Y 7973   3.098   3.669   5.523 -0.4423  0.0028  0.4621
   85SOPE  C316 7974   3.213   3.827   5.619  0.6283 -0.1149  0.1924
   85SOPE  H16X 7975   3.132   3.896   5.651  0.9468  1.4190 -2.0868
   85SOPE  H16Y 7976   3.303   3.890   5.597  0.5261 -0.4154 -1.1987
   85SOPE  C317 7977   3.243   3.732   5.738 -0.2027 -0.1599 -0.3506
   85SOPE  H17X 7978   3.321   3.770   5.807 -2.3823  1.8620  1.1974
   85SOPE  H17Y 7979   3.286   3.636   5.705 -1.0483 -1.2555  1.5477
   85SOPE  C318 7980   3.128   3.705   5.834  0.2825  0.3709  0.3415
   85SOPE  H18X 7981   3.094   3.801   5.878  1.8609  0.6010  1.1039
   85SOPE  H18Y 7982   3.158   3.636   5.915  0.0335  0.1433  0.2423
   85SOPE  H18Z 7983   3.047   3.675   5.763 -1.3514  1.1577  1.7885
   86SOPE     N 7984   5.515   0.458   4.049  0.3022 -0.1110  1.0023
   86SOPE   HN1 7985   5.437   0.509   4.002  0.0316 -0.0567  1.5016
   86SOPE   HN2 7986   5.498   0.456   4.152 -0.0028  2.4202  1.0852
   86SOPE   HN3 7987   5.605   0.507   4.030  0.7558 -1.8042 -1.6752
   86SOPE   C12 7988   5.519   0.322   4.004 -0.2762  0.3554  0.0101
   86SOPE  H12A 7989   5.487   0.260   4.090  0.8571 -0.0414  0.1661
   86SOPE  H12B 7990   5.624   0.296   3.980 -1.0098 -2.0072 -0.9455
   86SOPE   C11 7991   5.438   0.294   3.878  0.1610 -0.7644 -0.9805
   86SOPE  H11A 7992   5.466   0.191   3.848 -0.3115 -1.8460  1.9466
   86SOPE  H11B 7993   5.466   0.368   3.800 -0.1026 -0.4208 -0.7525
   86SOPE     P 7994   5.215   0.418   3.873  0.1220  0.2943 -0.1702
   86SOPE   O13 7995   5.177   0.425   3.730  0.0909 -0.5962 -0.0951
   86SOPE   O14 7996   5.282   0.533   3.935 -0.1545  0.2414  0.4159
   86SOPE   O12 7997   5.291   0.285   3.897 -0.2873  0.3751 -0.1174
   86SOPE   O11 7998   5.083   0.387   3.950  0.0653 -0.6631 -0.8712
   86SOPE    C1 7999   5.083   0.394   4.094 -0.0702  0.4434 -0.1859
   86SOPE    HA 8000   4.974   0.400   4.116 -0.3514 -1.3908 -0.9439
   86SOPE    HB 8001   5.118   0.488   4.143 -1.7168  1.9041 -1.6688
   86SOPE    C2 8002   5.148   0.281   4.180  0.7332 -1.0805  0.0831
   86SOPE    HS 8003   5.253   0.282   4.142  0.0625 -0.5141 -1.8651
   86SOPE   O21 8004   5.089   0.153   4.174  0.0764 -0.1477  0.2612
   86SOPE   C21 8005   5.175   0.054   4.164  0.2822 -0.1453  0.0729
   86SOPE   O22 8006   5.294   0.061   4.153 -0.1710 -0.5580 -0.2523
   86SOPE   C22 8007   5.097  -0.078   4.161  0.2419  1.1502 -0.5625
   86SOPE   H2R 8008   5.165  -0.166   4.158 -0.0879  0.8323  0.7674
   86SOPE   H2S 8009   5.032  -0.084   4.071  0.3228 -2.4305 -0.5133
   86SOPE    C3 8010   5.155   0.327   4.323 -0.9496  0.6235  0.2879
   86SOPE    HX 8011   5.057   0.304   4.371  0.3882 -0.4537  2.7376
   86SOPE    HY 8012   5.190   0.432   4.332 -0.0210  0.4094 -0.7205
   86SOPE   O31 8013   5.251   0.243   4.388  0.4345  0.2730 -0.7344
   86SOPE   C31 8014   5.378   0.264   4.379 -1.0237  0.1528  0.9608
   86SOPE   O32 8015   5.427   0.348   4.302 -0.0826 -0.3955 -0.1542
   86SOPE   C32 8016   5.454   0.179   4.486  0.5729 -0.5837  0.4693
   86SOPE   H2X 8017   5.542   0.152   4.423 -0.6765 -2.3068 -0.6277
   86SOPE   H2Y 8018   5.395   0.089   4.514 -1.1530  1.5113  4.3522
   86SOPE   C23 8019   5.002  -0.098   4.282  0.2844 -0.6024 -0.3673
   86SOPE   H3R 8020   4.929  -0.180   4.267  0.2083 -0.9896  1.7579
   86SOPE   H3S 8021   4.941  -0.005   4.286 -0.1213 -0.8796  0.0313
   86SOPE   C24 8022   5.075  -0.117   4.420  0.0225  0.0687 -0.2582
   86SOPE   H4R 8023   5.167  -0.172   4.393 -0.6663 -0.2011 -2.2161
   86SOPE   H4S 8024   5.077  -0.020   4.475 -1.4951  0.3230 -0.6131
   86SOPE   C25 8025   5.004  -0.210   4.524 -0.4425 -0.9565 -0.1975
   86SOPE   H5R 8026   4.915  -0.160   4.566 -0.8690 -1.8494 -0.0149
   86SOPE   H5S 8027   4.970  -0.303   4.473  0.0513 -2.2210  1.7079
   86SOPE   C26 8028   5.093  -0.250   4.643  0.8872  0.0900 -0.3921
   86SOPE   H6R 8029   5.045  -0.333   4.699  0.0687  0.6441 -0.2593
   86SOPE   H6S 8030   5.185  -0.292   4.597  1.5072 -2.5344  2.8966
   86SOPE   C27 8031   5.127  -0.129   4.728 -0.7713 -0.8110  0.4083
   86SOPE   H7R 8032   5.203  -0.063   4.681 -0.2195  1.5571  4.2041
   86SOPE   H7S 8033   5.033  -0.071   4.747 -0.7880  0.0128 -1.8193
   86SOPE   C28 8034   5.193  -0.169   4.861 -0.1151  0.0797 -0.2046
   86SOPE   H8R 8035   5.207  -0.076   4.920 -0.5475 -0.0106  0.0424
   86SOPE   H8S 8036   5.119  -0.232   4.916  0.9085 -0.3650  0.7142
   86SOPE   C29 8037   5.321  -0.254   4.849  0.5546  0.0546  0.2924
   86SOPE   H91 8038   5.307  -0.361   4.873  0.1998 -0.4834 -2.0371
   86SOPE  C210 8039   5.444  -0.217   4.802 -0.1429  0.1906  0.8953
   86SOPE  H101 8040   5.523  -0.293   4.800  2.1219  2.4364 -0.6416
   86SOPE  C211 8041   5.478  -0.076   4.759 -0.7004 -0.6124 -0.9255
   86SOPE  H11R 8042   5.392  -0.007   4.742 -1.1392 -0.9054  0.0134
   86SOPE  H11S 8043   5.531  -0.080   4.662 -2.6771 -1.9965 -2.0387
   86SOPE  C212 8044   5.571  -0.009   4.865 -0.4787  0.3652 -0.5337
   86SOPE  H12R 8045   5.592   0.096   4.833 -1.2692  0.2392 -1.5137
   86SOPE  H12S 8046   5.661  -0.073   4.860 -1.8239 -1.9738  2.3752
   86SOPE  C213 8047   5.518  -0.003   5.003  0.5176  0.6188  0.6080
   86SOPE  H13R 8048   5.474  -0.100   5.034  0.6420  0.9248  1.7713
   86SOPE  H13S 8049   5.438   0.075   5.009  0.4620  0.5844  0.3216
   86SOPE  C214 8050   5.624   0.016   5.116  0.5298  0.1079 -0.3956
   86SOPE  H14R 8051   5.686   0.105   5.090  0.7231 -0.3950 -1.7527
   86SOPE  H14S 8052   5.694  -0.070   5.121  1.0715  0.4792 -1.3365
   86SOPE  C215 8053   5.549   0.055   5.239 -1.0029 -0.1083  0.0440
   86SOPE  H15R 8054   5.491  -0.038   5.256 -1.9382  0.3838 -0.3366
   86SOPE  H15S 8055   5.483   0.144   5.227 -0.0893  0.8413  1.6348
   86SOPE  C216 8056   5.649   0.088   5.357 -0.4639  1.0940  0.4907
   86SOPE  H16R 8057   5.752   0.048   5.349 -0.6772  0.6127  0.0867
   86SOPE  H16S 8058   5.605   0.058   5.455 -2.7698  1.1228 -0.4612
   86SOPE  C217 8059   5.661   0.241   5.357 -0.4443 -0.0542  0.1415
   86SOPE  H17R 8060   5.560   0.283   5.377 -0.0827 -0.0848  2.3641
   86SOPE  H17S 8061   5.702   0.271   5.259 -1.2571 -0.7152 -0.4155
   86SOPE  C218 8062   5.759   0.305   5.459  0.1085 -0.4975 -0.2490
   86SOPE  H18R 8063   5.771   0.415   5.454  0.4664 -0.5323 -0.1416
   86SOPE  H18S 8064   5.861   0.263   5.448  0.7736  0.6215  1.2064
   86SOPE  H18T 8065   5.719   0.288   5.562 -1.6863 -0.9800 -0.9836
   86SOPE   C33 8066   5.489   0.278   4.598 -0.0042  0.3353 -0.2853
   86SOPE   H3X 8067   5.534   0.376   4.569  0.5921  0.5086  1.1762
   86SOPE   H3Y 8068   5.556   0.244   4.679  1.5779 -0.1006 -1.7026
   86SOPE   C34 8069   5.363   0.327   4.684  0.2950 -0.1199  0.0386
   86SOPE   H4X 8070   5.283   0.250   4.678  1.3895 -1.4358  1.4744
   86SOPE   H4Y 8071   5.310   0.418   4.649 -1.5840 -1.0380  0.3890
   86SOPE   C35 8072   5.400   0.352   4.834 -0.3055  0.3927 -0.2995
   86SOPE   H5X 8073   5.493   0.413   4.821  1.1950 -1.8934 -0.8754
   86SOPE   H5Y 8074   5.427   0.250   4.869 -4.4262 -1.3108 -1.5050
   86SOPE   C36 8075   5.293   0.423   4.922 -0.2069 -0.4713 -0.2885
   86SOPE   H6X 8076   5.206   0.355   4.933 -0.2357 -0.2061  1.5705
   86SOPE   H6Y 8077   5.250   0.513   4.873  0.8490  0.3477  0.2509
   86SOPE   C37 8078   5.349   0.462   5.060 -0.0170  1.4179 -0.3528
   86SOPE   H7X 8079   5.436   0.530   5.048  1.3987  0.5831  3.5608
   86SOPE   H7Y 8080   5.384   0.371   5.112 -1.9836  0.7153 -0.1669
   86SOPE   C38 8081   5.248   0.527   5.147 -0.2254 -0.5740 -0.0558
   86SOPE   H8X 8082   5.146   0.500   5.111 -0.7038 -0.3933  1.1041
   86SOPE   H8Y 8083   5.243   0.636   5.128 -0.5735 -0.5282  0.2717
   86SOPE   C39 8084   5.248   0.477   5.292 -0.1014  0.0309  0.3116
   86SOPE   H9X 8085   5.335   0.509   5.353  0.1546 -2.2547  1.2542
   86SOPE   H9Y 8086   5.244   0.366   5.288  0.1586  0.0613 -1.2502
   86SOPE  C310 8087   5.122   0.522   5.362  0.3384 -1.0326 -0.6435
   86SOPE  H10X 8088   5.097   0.468   5.456 -0.1235  0.0947 -0.0945
   86SOPE  H10Y 8089   5.030   0.505   5.302  0.2279 -1.3432 -0.3901
   86SOPE  C311 8090   5.117   0.676   5.401 -0.1380 -0.3800 -0.2087
   86SOPE  H11X 8091   5.132   0.739   5.310 -0.8720  0.8282  0.4733
   86SOPE  H11Y 8092   5.205   0.700   5.464 -0.7396  0.9233  0.1708
   86SOPE  C312 8093   4.996   0.714   5.478  0.0096  0.1481 -0.0944
   86SOPE  H12X 8094   4.986   0.640   5.562  0.9405 -1.1668 -1.1062
   86SOPE  H12Y 8095   4.894   0.712   5.434 -0.6710  1.3636  1.3300
   86SOPE  C313 8096   5.005   0.863   5.527 -0.0962 -0.7766 -0.2173
   86SOPE  H13X 8097   4.917   0.925   5.498  0.1857  0.4573  1.4361
   86SOPE  H13Y 8098   5.096   0.909   5.485 -0.0259 -1.1134 -0.4422
   86SOPE  C314 8099   5.020   0.881   5.688 -0.4516  0.1558  0.7711
   86SOPE  H14X 8100   5.100   0.823   5.739  0.2537  0.2687 -0.1947
   86SOPE  H14Y 8101   4.931   0.818   5.712 -0.1704 -0.8823 -0.7895
   86SOPE  C315 8102   5.009   1.021   5.742  0.5715 -0.2305 -0.0707
   86SOPE  H15X 8103   4.934   1.079   5.684  1.1708 -1.4548 -2.1811
   86SOPE  H15Y 8104   5.103   1.080   5.737  0.3271  0.1679 -0.0236
   86SOPE  C316 8105   4.967   1.007   5.890  0.2070 -0.7121  0.0642
   86SOPE  H16X 8106   5.060   0.981   5.946  0.3889  0.8615  0.5588
   86SOPE  H16Y 8107   4.892   0.927   5.908  1.0594 -2.1070 -2.1692
   86SOPE  C317 8108   4.917   1.144   5.952  0.0019 -0.1430 -0.0779
   86SOPE  H17X 8109   4.884   1.141   6.058 -0.9024  1.5944 -0.2853
   86SOPE  H17Y 8110   4.826   1.168   5.893  0.8551  0.5143 -1.1701
   86SOPE  C318 8111   5.015   1.251   5.948 -0.1175 -0.8099  0.0518
   86SOPE  H18X 8112   4.984   1.343   6.004  0.1451  0.0728 -1.2069
   86SOPE  H18Y 8113   5.045   1.284   5.846 -0.2984 -2.9782 -0.7452
   86SOPE  H18Z 8114   5.110   1.221   5.996  0.9981  1.2859 -0.7091
   87SOPE     N 8115   0.128   6.212   3.404  0.4785  0.1961 -0.2448
   87SOPE   HN1 8116   0.098   6.186   3.308 -0.2087 -0.4102  0.1280
   87SOPE   HN2 8117   0.232   6.221   3.403  0.7342 -2.0873 -1.0909
   87SOPE   HN3 8118   0.112   6.126   3.461 -0.9826 -1.2431 -2.6404
   87SOPE   C12 8119   0.053   6.330   3.461 -0.2184 -0.1447  0.0295
   87SOPE  H12A 8120   0.075   6.326   3.570 -0.0618 -1.3996 -0.0347
   87SOPE  H12B 8121  -0.056   6.313   3.454 -0.2377 -0.7993  1.6287
   87SOPE   C11 8122   0.101   6.463   3.398  0.0059 -0.1204 -0.8382
   87SOPE  H11A 8123   0.048   6.549   3.443 -0.9670  1.3598 -4.5023
   87SOPE  H11B 8124   0.058   6.474   3.296  1.0375  0.9038 -1.1766
   87SOPE     P 8125   0.325   6.576   3.486 -0.2088  0.1511 -0.2583
   87SOPE   O13 8126   0.292   6.713   3.454  0.0415  0.2141 -0.2111
   87SOPE   O14 8127   0.466   6.545   3.489  0.3346  0.0471  0.3164
   87SOPE   O12 8128   0.248   6.474   3.389  0.0059 -0.0680 -0.0253
   87SOPE   O11 8129   0.268   6.522   3.623 -0.0686  0.0081 -0.3338
   87SOPE    C1 8130   0.317   6.399   3.682  0.3057 -0.3026  0.8309
   87SOPE    HA 8131   0.379   6.349   3.605 -0.1363  2.6963 -1.6745
   87SOPE    HB 8132   0.227   6.337   3.706  0.0154 -0.0030  0.5300
   87SOPE    C2 8133   0.402   6.422   3.815  0.9288 -0.2790 -0.0195
   87SOPE    HS 8134   0.436   6.322   3.849 -0.1272 -0.4269  0.6487
   87SOPE   O21 8135   0.317   6.483   3.920 -0.0114  0.0058  0.4136
   87SOPE   C21 8136   0.220   6.419   3.969  0.6731 -0.5062 -0.4682
   87SOPE   O22 8137   0.174   6.314   3.938 -0.1123  0.5713  0.2475
   87SOPE   C22 8138   0.165   6.521   4.067  0.4692  0.4084  0.5745
   87SOPE   H2R 8139   0.135   6.609   4.008  0.6240  2.5259  3.4527
   87SOPE   H2S 8140   0.252   6.555   4.127 -0.2733  3.8056 -0.0719
   87SOPE    C3 8141   0.532   6.501   3.795 -0.1778 -0.6477  0.2176
   87SOPE    HX 8142   0.507   6.603   3.759  0.3768 -0.5054  0.2297
   87SOPE    HY 8143   0.595   6.451   3.719  0.9961 -1.5394  1.7290
   87SOPE   O31 8144   0.609   6.510   3.917  0.7359 -0.5964  0.2802
   87SOPE   C31 8145   0.579   6.617   3.997  1.1488 -0.6426 -0.6713
   87SOPE   O32 8146   0.489   6.696   3.986  0.0903  0.1081 -0.4945
   87SOPE   C32 8147   0.686   6.625   4.106 -0.3154 -0.2739  0.5730
   87SOPE   H2X 8148   0.746   6.709   4.064 -1.1241  0.0851  0.1086
   87SOPE   H2Y 8149   0.748   6.533   4.103  0.1216 -0.0093  1.3364
   87SOPE   C23 8150   0.054   6.460   4.157  0.0175  0.4189  0.3969
   87SOPE   H3R 8151   0.083   6.355   4.178  0.4899  0.5408  0.3727
   87SOPE   H3S 8152  -0.044   6.458   4.106  0.0941 -0.7401  0.2814
   87SOPE   C24 8153   0.043   6.543   4.286  0.5985  0.7226  0.4124
   87SOPE   H4R 8154   0.146   6.559   4.326  0.9351  0.9228 -0.4977
   87SOPE   H4S 8155   0.013   6.646   4.258 -3.0299 -0.5127 -0.8022
   87SOPE   C25 8156  -0.068   6.494   4.390 -0.6314 -0.1779  0.7198
   87SOPE   H5R 8157  -0.106   6.573   4.460 -2.8826  0.6393 -1.2986
   87SOPE   H5S 8158  -0.160   6.463   4.336 -0.4090  0.2436  0.0969
   87SOPE   C26 8159  -0.039   6.372   4.478  0.1962  0.1552  0.3348
   87SOPE   H6R 8160  -0.039   6.287   4.406 -0.1811  1.0564 -0.7484
   87SOPE   H6S 8161   0.060   6.388   4.526  1.9197 -0.8228 -2.6612
   87SOPE   C27 8162  -0.142   6.359   4.596  0.2647 -0.7367 -0.3032
   87SOPE   H7R 8163  -0.246   6.393   4.579  0.5337 -0.0917 -0.7192
   87SOPE   H7S 8164  -0.159   6.252   4.619 -1.0799 -0.8131 -1.5246
   87SOPE   C28 8165  -0.081   6.421   4.722  0.1116 -0.7131 -0.2502
   87SOPE   H8R 8166   0.028   6.402   4.737  0.9940  2.4540 -1.5451
   87SOPE   H8S 8167  -0.092   6.531   4.710  1.7272 -0.4788  0.1007
   87SOPE   C29 8168  -0.159   6.388   4.844  0.2091  0.2597 -0.2142
   87SOPE   H91 8169  -0.260   6.349   4.827  1.0191 -0.9479 -2.7983
   87SOPE  C210 8170  -0.116   6.405   4.976  0.1798 -0.1376  0.1954
   87SOPE  H101 8171  -0.168   6.357   5.059  0.8166 -2.1404 -0.5022
   87SOPE  C211 8172   0.012   6.476   5.027  0.4265  0.4964  0.0613
   87SOPE  H11R 8173   0.051   6.536   4.942  0.2195 -1.1452 -1.2394
   87SOPE  H11S 8174   0.090   6.401   5.051 -0.3710 -0.9298 -1.6102
   87SOPE  C212 8175  -0.013   6.558   5.155  0.4540  0.0225 -0.3356
   87SOPE  H12R 8176   0.078   6.572   5.217  0.1500 -3.1363  1.0287
   87SOPE  H12S 8177  -0.074   6.491   5.220 -0.8344 -0.6629 -2.1851
   87SOPE  C213 8178  -0.094   6.685   5.116 -0.8232  0.5174 -0.5868
   87SOPE  H13R 8179  -0.187   6.648   5.068 -1.4477  1.7188 -0.3488
   87SOPE  H13S 8180  -0.040   6.741   5.037  0.1029  0.4422 -0.0307
   87SOPE  C214 8181  -0.104   6.766   5.251 -0.1519 -0.4459  0.5694
   87SOPE  H14R 8182  -0.001   6.792   5.280  1.1808 -0.0502 -3.7517
   87SOPE  H14S 8183  -0.144   6.695   5.327 -1.5743 -0.0187  0.2651
   87SOPE  C215 8184  -0.193   6.891   5.249 -0.2098 -0.2184  0.3276
   87SOPE  H15R 8185  -0.293   6.851   5.222  0.1482 -0.4710 -0.6773
   87SOPE  H15S 8186  -0.164   6.962   5.168  0.5841 -0.9063 -0.0017
   87SOPE  C216 8187  -0.186   6.977   5.379 -0.4481 -0.4140 -0.2972
   87SOPE  H16R 8188  -0.217   6.915   5.466  0.3617 -1.2465 -0.5864
   87SOPE  H16S 8189  -0.255   7.061   5.356 -0.3966 -0.4017 -0.4064
   87SOPE  C217 8190  -0.045   7.038   5.395 -0.5597 -0.7660  0.4015
   87SOPE  H17R 8191  -0.030   7.090   5.297  1.8352 -1.5103  0.3122
   87SOPE  H17S 8192   0.040   6.969   5.411  0.5947  0.1909 -1.2258
   87SOPE  C218 8193  -0.037   7.137   5.518  0.5676 -0.1565  0.1761
   87SOPE  H18R 8194   0.063   7.185   5.515  0.7944 -0.6408 -3.1781
   87SOPE  H18S 8195  -0.059   7.087   5.615 -0.5429  0.2695  0.1607
   87SOPE  H18T 8196  -0.118   7.209   5.493  1.6023  0.4549 -1.6072
   87SOPE   C33 8197   0.617   6.656   4.230  0.4703 -0.2748 -0.6602
   87SOPE   H3X 8198   0.567   6.567   4.273  0.1331  1.1836  2.1730
   87SOPE   H3Y 8199   0.544   6.739   4.219 -0.3891 -1.2136 -2.5026
   87SOPE   C34 8200   0.725   6.692   4.330 -0.5994  0.2976 -0.5556
   87SOPE   H4X 8201   0.809   6.754   4.290  0.5722 -1.1280 -0.3647
   87SOPE   H4Y 8202   0.777   6.603   4.371 -1.1946  1.1137  2.1679
   87SOPE   C35 8203   0.666   6.756   4.450  0.7945 -0.8539  0.3543
   87SOPE   H5X 8204   0.580   6.704   4.497 -0.8662  0.3472 -1.2245
   87SOPE   H5Y 8205   0.628   6.860   4.434  2.6544 -0.0401  0.9380
   87SOPE   C36 8206   0.767   6.782   4.562 -0.1579  0.2906 -0.0936
   87SOPE   H6X 8207   0.848   6.853   4.538 -0.6453  0.4120 -1.4533
   87SOPE   H6Y 8208   0.820   6.685   4.573  0.4219  0.6332  0.1620
   87SOPE   C37 8209   0.702   6.824   4.700  0.2840  0.7142 -0.0130
   87SOPE   H7X 8210   0.612   6.765   4.727 -0.0720  1.3425  0.1980
   87SOPE   H7Y 8211   0.673   6.931   4.693  0.8003  0.7828 -1.4840
   87SOPE   C38 8212   0.804   6.788   4.809 -0.0419 -0.2008 -0.4585
   87SOPE   H8X 8213   0.844   6.684   4.801  1.7747  0.1254  2.7684
   87SOPE   H8Y 8214   0.771   6.787   4.915 -0.4637  0.7507 -0.5715
   87SOPE   C39 8215   0.939   6.867   4.809  0.4965 -0.3030  0.2173
   87SOPE   H9X 8216   0.914   6.974   4.822 -0.2843 -0.5833  1.2016
   87SOPE   H9Y 8217   0.984   6.835   4.713  0.5606  0.3126  0.0416
   87SOPE  C310 8218   1.034   6.829   4.928 -0.4089  0.7421  0.1514
   87SOPE  H10X 8219   1.130   6.876   4.897  0.4009  0.3922  1.9857
   87SOPE  H10Y 8220   1.059   6.721   4.933  1.1552  1.1068  0.7817
   87SOPE  C311 8221   0.997   6.905   5.056 -0.2407 -0.4562 -0.2997
   87SOPE  H11X 8222   0.898   6.867   5.089 -1.3666  0.6537 -2.1624
   87SOPE  H11Y 8223   0.973   7.010   5.028 -1.7533 -0.9549 -0.9940
   87SOPE  C312 8224   1.094   6.887   5.177  0.0989 -0.1993  0.2933
   87SOPE  H12X 8225   1.188   6.931   5.139  0.1005 -0.4038  0.0584
   87SOPE  H12Y 8226   1.118   6.779   5.188 -0.6348 -0.3006  1.0042
   87SOPE  C313 8227   1.046   6.946   5.307 -0.1668 -0.5004 -0.3838
   87SOPE  H13X 8228   0.943   6.910   5.324 -0.0967 -1.2619 -1.4875
   87SOPE  H13Y 8229   1.043   7.056   5.318  1.0048 -0.5874  1.2780
   87SOPE  C314 8230   1.128   6.888   5.428  0.4529 -0.5882 -0.5348
   87SOPE  H14X 8231   1.236   6.910   5.416  0.2043  0.3570 -1.2500
   87SOPE  H14Y 8232   1.118   6.778   5.417 -0.3279 -0.4600 -1.2550
   87SOPE  C315 8233   1.081   6.923   5.566  0.4750  0.4294  0.9160
   87SOPE  H15X 8234   1.105   7.025   5.602  0.9028  1.2835 -1.6103
   87SOPE  H15Y 8235   1.137   6.859   5.638  1.9231 -0.5445 -0.9908
   87SOPE  C316 8236   0.930   6.905   5.587 -0.1410  0.1763  0.7085
   87SOPE  H16X 8237   0.914   6.799   5.560 -1.8767  0.5533  0.1456
   87SOPE  H16Y 8238   0.877   6.962   5.507  3.2208  2.7340  0.0328
   87SOPE  C317 8239   0.873   6.950   5.715 -0.6001 -0.4133  0.4354
   87SOPE  H17X 8240   0.762   6.946   5.709 -0.5729 -0.0501 -0.5338
   87SOPE  H17Y 8241   0.901   7.057   5.731  0.2733 -0.6559  0.6040
   87SOPE  C318 8242   0.925   6.864   5.829  0.2537  0.2252  0.0717
   87SOPE  H18X 8243   1.033   6.838   5.835  0.1568  0.0303  1.3707
   87SOPE  H18Y 8244   0.865   6.772   5.821  0.6130 -0.0594  0.6020
   87SOPE  H18Z 8245   0.905   6.911   5.928 -0.2392 -3.1161  1.6797
   88SOPE     N 8246   2.570   6.765   3.371  0.1776  0.8140 -0.3852
   88SOPE   HN1 8247   2.512   6.821   3.437  2.2685  2.7837 -0.0666
   88SOPE   HN2 8248   2.549   6.664   3.361 -0.5851  1.0343 -1.1435
   88SOPE   HN3 8249   2.671   6.770   3.397  0.0419 -1.7052  0.9231
   88SOPE   C12 8250   2.526   6.814   3.231 -0.9232 -0.1514  0.1691
   88SOPE  H12A 8251   2.614   6.791   3.167 -1.0814 -0.4694  0.0613
   88SOPE  H12B 8252   2.512   6.923   3.242 -0.6786 -0.0204 -0.7559
   88SOPE   C11 8253   2.399   6.742   3.188  0.6299  0.1676 -0.4532
   88SOPE  H11A 8254   2.423   6.634   3.175  0.1734 -0.1404  1.0841
   88SOPE  H11B 8255   2.369   6.789   3.092  0.2480  1.0661  0.1010
   88SOPE     P 8256   2.139   6.709   3.240 -0.2624 -0.2312 -0.4846
   88SOPE   O13 8257   2.151   6.637   3.115  0.0955  0.1900  0.2576
   88SOPE   O14 8258   2.049   6.828   3.241 -0.3527  0.0949 -0.2569
   88SOPE   O12 8259   2.287   6.759   3.277 -0.2368 -0.1905 -0.4762
   88SOPE   O11 8260   2.098   6.610   3.351 -0.9328  0.1167  0.2112
   88SOPE    C1 8261   2.198   6.554   3.430  0.0476 -0.3765 -0.1199
   88SOPE    HA 8262   2.247   6.629   3.496  0.3145  1.3685 -2.2199
   88SOPE    HB 8263   2.282   6.500   3.380  0.2368 -1.7818  1.5942
   88SOPE    C2 8264   2.149   6.438   3.524 -0.2709  0.3011  0.5678
   88SOPE    HS 8265   2.103   6.360   3.460  0.8439  1.9250 -2.4135
   88SOPE   O21 8266   2.060   6.501   3.619 -0.2986 -0.0317  0.0564
   88SOPE   C21 8267   1.963   6.431   3.679  0.2384 -0.5049 -0.4346
   88SOPE   O22 8268   1.936   6.320   3.642 -0.1542  0.2765  0.0723
   88SOPE   C22 8269   1.895   6.512   3.797 -0.1194 -0.7463 -0.6494
   88SOPE   H2R 8270   1.848   6.601   3.750 -0.1388 -0.2408  0.2943
   88SOPE   H2S 8271   1.971   6.539   3.874 -1.4441 -1.4045  0.9375
   88SOPE    C3 8272   2.261   6.362   3.594  1.3101 -0.1284  0.0173
   88SOPE    HX 8273   2.313   6.315   3.508  1.0580  0.2884 -0.3662
   88SOPE    HY 8274   2.219   6.293   3.671  2.3304  1.2446  1.9067
   88SOPE   O31 8275   2.358   6.453   3.650  0.0972  0.0504 -0.9476
   88SOPE   C31 8276   2.342   6.484   3.783  0.2848  0.1910  0.8041
   88SOPE   O32 8277   2.254   6.442   3.858 -0.3643 -0.0687 -0.1180
   88SOPE   C32 8278   2.457   6.577   3.824 -0.2254 -0.0322  0.2411
   88SOPE   H2X 8279   2.428   6.629   3.918 -3.4120 -1.2314  0.0452
   88SOPE   H2Y 8280   2.468   6.647   3.738  0.8744 -0.0550  0.3425
   88SOPE   C23 8281   1.790   6.420   3.865  0.2235  0.3428  0.1266
   88SOPE   H3R 8282   1.828   6.319   3.894 -0.5846 -0.6364 -1.9947
   88SOPE   H3S 8283   1.705   6.404   3.796 -0.1934 -0.3811  0.7818
   88SOPE   C24 8284   1.724   6.496   3.982  0.1201  1.1280 -0.6063
   88SOPE   H4R 8285   1.689   6.598   3.956 -2.3064  0.5100  0.0071
   88SOPE   H4S 8286   1.632   6.444   4.017  0.8350 -0.5082 -1.0704
   88SOPE   C25 8287   1.816   6.504   4.103  0.5984  0.2133 -0.0232
   88SOPE   H5R 8288   1.870   6.407   4.114  0.7386  0.0112 -2.1599
   88SOPE   H5S 8289   1.902   6.574   4.107  1.0471 -0.3509  3.3435
   88SOPE   C26 8290   1.751   6.524   4.238  0.5641 -0.8477 -0.5830
   88SOPE   H6R 8291   1.708   6.626   4.230  1.0555 -0.3970  1.8351
   88SOPE   H6S 8292   1.659   6.462   4.241  0.1116 -0.2241 -1.0932
   88SOPE   C27 8293   1.835   6.519   4.367  0.0946 -0.0399 -0.0752
   88SOPE   H7R 8294   1.864   6.414   4.389  2.4551  0.2427 -1.4582
   88SOPE   H7S 8295   1.935   6.563   4.350  1.3546 -2.3337  0.9405
   88SOPE   C28 8296   1.756   6.580   4.483  0.4138 -0.7859  0.3917
   88SOPE   H8R 8297   1.759   6.690   4.473 -1.7799 -0.9043 -4.1306
   88SOPE   H8S 8298   1.654   6.538   4.466 -0.4354  1.3993 -0.1593
   88SOPE   C29 8299   1.798   6.533   4.620 -0.1264 -0.1564 -0.6483
   88SOPE   H91 8300   1.799   6.425   4.645 -3.7443  0.2057  1.9151
   88SOPE  C210 8301   1.840   6.613   4.720  0.1530  0.2993  0.4710
   88SOPE  H101 8302   1.880   6.564   4.810 -0.2685 -2.8793 -0.9406
   88SOPE  C211 8303   1.851   6.763   4.705 -0.3360  0.4863 -0.1040
   88SOPE  H11R 8304   1.746   6.801   4.708 -0.5971 -0.2110 -0.2596
   88SOPE  H11S 8305   1.895   6.780   4.604  0.1007 -0.5364 -0.0895
   88SOPE  C212 8306   1.942   6.838   4.803 -0.4342  0.1358 -0.0411
   88SOPE  H12R 8307   1.936   6.947   4.782 -0.2760  0.0001 -0.8372
   88SOPE  H12S 8308   2.051   6.818   4.790 -0.3326  1.0238 -0.7372
   88SOPE  C213 8309   1.915   6.828   4.956  0.7070 -0.1076 -0.3643
   88SOPE  H13R 8310   1.804   6.824   4.958  0.7009  0.2347  0.9534
   88SOPE  H13S 8311   1.951   6.918   5.010 -0.0896 -0.3631  0.6302
   88SOPE  C214 8312   1.977   6.703   5.022  0.3259 -0.0966  0.6021
   88SOPE  H14R 8313   2.003   6.629   4.943  1.2392 -0.1555  0.9368
   88SOPE  H14S 8314   1.917   6.660   5.105  0.1602  0.3928  0.7391
   88SOPE  C215 8315   2.108   6.738   5.103  0.3428 -0.2363  0.0165
   88SOPE  H15R 8316   2.064   6.779   5.197 -0.3136  1.1568 -0.8553
   88SOPE  H15S 8317   2.160   6.819   5.046  2.2203 -1.5934 -0.2911
   88SOPE  C216 8318   2.207   6.627   5.129 -0.8640 -0.0722 -0.3511
   88SOPE  H16R 8319   2.236   6.558   5.047 -1.0938 -2.9527  1.8343
   88SOPE  H16S 8320   2.154   6.553   5.193 -0.4529  1.0871  1.3974
   88SOPE  C217 8321   2.335   6.674   5.195  0.5540  0.7146  0.1462
   88SOPE  H17R 8322   2.386   6.585   5.237  1.9735  1.5695  0.2827
   88SOPE  H17S 8323   2.310   6.732   5.286 -0.2357 -1.6018  1.5009
   88SOPE  C218 8324   2.432   6.748   5.105  0.7271  0.6477  0.0552
   88SOPE  H18R 8325   2.527   6.764   5.160  1.1619 -3.8618  0.9970
   88SOPE  H18S 8326   2.393   6.851   5.090 -0.7717  0.0260 -0.4993
   88SOPE  H18T 8327   2.450   6.712   5.001 -1.7916  1.3826 -0.6924
   88SOPE   C33 8328   2.585   6.508   3.837  0.9539  0.4186 -0.2261
   88SOPE   H3X 8329   2.674   6.574   3.833  2.8587 -2.0631 -1.8243
   88SOPE   H3Y 8330   2.601   6.433   3.757  0.0329 -0.1019  0.0682
   88SOPE   C34 8331   2.601   6.435   3.977  0.2616 -0.5476 -0.4095
   88SOPE   H4X 8332   2.694   6.375   3.969  0.4909 -0.1333 -0.9296
   88SOPE   H4Y 8333   2.519   6.364   3.999  0.2357 -0.2745  0.3904
   88SOPE   C35 8334   2.613   6.531   4.103 -0.2204  0.2280  0.3520
   88SOPE   H5X 8335   2.513   6.577   4.115  0.6919  2.0554  1.2428
   88SOPE   H5Y 8336   2.690   6.608   4.081  0.8067 -0.5835  0.9972
   88SOPE   C36 8337   2.661   6.446   4.222 -0.3008  0.7051 -0.4396
   88SOPE   H6X 8338   2.750   6.388   4.189 -0.9557  1.0091 -2.9218
   88SOPE   H6Y 8339   2.573   6.381   4.241  0.3761 -0.2271 -0.4257
   88SOPE   C37 8340   2.682   6.529   4.345  0.2983  0.0692  0.1194
   88SOPE   H7X 8341   2.596   6.598   4.361  0.7201  0.7089 -0.3340
   88SOPE   H7Y 8342   2.771   6.591   4.322  0.3125  1.2910  2.9779
   88SOPE   C38 8343   2.710   6.441   4.465  0.2872  0.6714 -0.1263
   88SOPE   H8X 8344   2.791   6.372   4.432 -1.4926 -1.4287 -0.3164
   88SOPE   H8Y 8345   2.627   6.371   4.487  1.2592  0.1598  2.1824
   88SOPE   C39 8346   2.740   6.511   4.594 -0.3450  0.4132  0.4139
   88SOPE   H9X 8347   2.654   6.570   4.631 -0.3302 -0.1391  1.3379
   88SOPE   H9Y 8348   2.825   6.582   4.594 -0.5861  0.7048  0.3034
   88SOPE  C310 8349   2.760   6.414   4.709 -0.1290  0.0585 -0.0737
   88SOPE  H10X 8350   2.845   6.348   4.681 -0.6128  0.3252 -2.3711
   88SOPE  H10Y 8351   2.667   6.354   4.709 -0.3155  0.3413 -0.7524
   88SOPE  C311 8352   2.783   6.498   4.836  0.1401 -0.2925  0.0064
   88SOPE  H11X 8353   2.700   6.570   4.851 -0.6281 -1.3300  0.9852
   88SOPE  H11Y 8354   2.882   6.547   4.834  0.7042 -1.3709  0.4709
   88SOPE  C312 8355   2.784   6.406   4.957 -0.5669 -0.8249  0.5115
   88SOPE  H12X 8356   2.878   6.348   4.957 -0.9354 -1.4446 -0.2897
   88SOPE  H12Y 8357   2.701   6.335   4.934 -0.1701 -1.3562  0.6937
   88SOPE  C313 8358   2.763   6.477   5.088 -0.7260  0.1117  0.7992
   88SOPE  H13X 8359   2.656   6.503   5.094 -0.3002  1.6098  3.0648
   88SOPE  H13Y 8360   2.814   6.576   5.089  2.0992 -1.2200  0.3123
   88SOPE  C314 8361   2.816   6.400   5.206 -0.2184 -0.3197 -0.2823
   88SOPE  H14X 8362   2.912   6.446   5.239 -0.1958 -1.3080  1.1299
   88SOPE  H14Y 8363   2.837   6.295   5.176  3.2161  0.5549 -1.4641
   88SOPE  C315 8364   2.710   6.390   5.323 -0.0634 -0.3236  1.1278
   88SOPE  H15X 8365   2.624   6.346   5.268  0.4063  1.1906 -0.9517
   88SOPE  H15Y 8366   2.685   6.497   5.342  0.4403 -0.0380  0.2462
   88SOPE  C316 8367   2.751   6.300   5.440  0.8097 -0.1327  0.8631
   88SOPE  H16X 8368   2.793   6.212   5.387 -1.9137  0.0172 -1.8165
   88SOPE  H16Y 8369   2.656   6.266   5.487 -0.4061 -0.1456 -1.4468
   88SOPE  C317 8370   2.851   6.372   5.527  0.6463  0.0713 -0.7167
   88SOPE  H17X 8371   2.826   6.479   5.543 -0.6044  0.0491 -2.2543
   88SOPE  H17Y 8372   2.955   6.383   5.490  1.0441  0.8218  0.5765
   88SOPE  C318 8373   2.850   6.303   5.675 -0.2424 -0.7106 -0.6282
   88SOPE  H18X 8374   2.744   6.304   5.709 -0.3529 -0.2355 -0.9812
   88SOPE  H18Y 8375   2.917   6.362   5.740 -0.8484 -0.2403 -0.4280
   88SOPE  H18Z 8376   2.889   6.199   5.669  0.3261 -0.5240 -0.2222
   89SAPC     N 8377   1.503   1.789   7.537 -0.1250  0.3526  0.2472
   89SAPC   C12 8378   1.422   1.664   7.536 -0.1999  0.5492 -0.4054
   89SAPC  H12A 8379   1.385   1.651   7.435  0.2286 -1.3007 -0.3654
   89SAPC  H12B 8380   1.331   1.668   7.594  0.1451  3.7402  0.1002
   89SAPC   C13 8381   1.600   1.792   7.425  0.2652 -0.1956 -0.1711
   89SAPC  H13A 8382   1.663   1.705   7.438 -1.2183 -1.2116  0.4829
   89SAPC  H13B 8383   1.559   1.764   7.329  0.6433 -0.7948 -0.1673
   89SAPC  H13C 8384   1.668   1.875   7.421 -2.3686  2.0558 -2.4608
   89SAPC   C14 8385   1.410   1.921   7.529 -0.0568  0.3037  0.4131
   89SAPC  H14A 8386   1.339   1.903   7.450  1.3590 -2.6868 -0.3358
   89SAPC  H14B 8387   1.361   1.925   7.625  0.5132 -1.3753  0.8009
   89SAPC  H14C 8388   1.472   2.008   7.510  1.5109 -0.7772  0.3808
   89SAPC   C15 8389   1.581   1.800   7.671  0.1515 -0.3026 -0.3100
   89SAPC  H15A 8390   1.644   1.714   7.689 -0.3944 -0.3831  1.3546
   89SAPC  H15B 8391   1.654   1.880   7.672 -0.9786  0.8052  2.5221
   89SAPC  H15C 8392   1.510   1.810   7.751 -0.4527 -0.7633 -0.7753
   89SAPC   C11 8393   1.492   1.529   7.581  0.2784  0.3538  0.3424
   89SAPC  H11A 8394   1.420   1.445   7.583 -0.0466  0.6347  0.5880
   89SAPC  H11B 8395   1.532   1.539   7.684  0.4356  1.9474  0.1529
   89SAPC     P 8396   1.717   1.414   7.540  0.1380  0.3429  0.1465
   89SAPC   O13 8397   1.787   1.497   7.640  0.0975  0.4482  0.2945
   89SAPC   O14 8398   1.652   1.289   7.588 -0.5737  0.2172  0.1038
   89SAPC   O12 8399   1.598   1.503   7.485 -0.4666 -0.5625  0.5205
   89SAPC   O11 8400   1.814   1.388   7.418  0.5976  0.4302  0.7267
   89SAPC    C1 8401   1.788   1.443   7.291  0.3139 -0.3324  0.2399
   89SAPC    HA 8402   1.740   1.544   7.288 -2.6474 -1.6651 -0.8483
   89SAPC    HB 8403   1.890   1.446   7.246  0.2688  2.3566  0.1154
   89SAPC    C2 8404   1.700   1.345   7.199 -0.0713  0.4821  0.1009
   89SAPC    HS 8405   1.597   1.346   7.242 -0.0602  0.3860  0.1300
   89SAPC   O21 8406   1.771   1.216   7.201 -0.2778  0.0894 -0.0074
   89SAPC   C21 8407   1.685   1.112   7.195  0.1226  1.2807  0.4332
   89SAPC   O22 8408   1.568   1.117   7.177 -0.0867  0.5572 -0.3015
   89SAPC   C22 8409   1.756   0.972   7.204 -0.1238 -0.5021  0.2144
   89SAPC   H2R 8410   1.769   0.955   7.313 -2.8368 -0.0519  0.6721
   89SAPC   H2S 8411   1.690   0.897   7.156 -0.0942  0.0586 -0.7328
   89SAPC    C3 8412   1.697   1.405   7.054 -0.1328 -0.2187  0.1592
   89SAPC    HX 8413   1.804   1.410   7.025  0.1904 -2.3240  0.8207
   89SAPC    HY 8414   1.649   1.505   7.065 -0.9941 -0.7981  2.1033
   89SAPC   O31 8415   1.620   1.321   6.969  0.2241  0.5106  0.0919
   89SAPC   C31 8416   1.486   1.345   6.970  0.4603 -0.4117  0.1266
   89SAPC   O32 8417   1.427   1.431   7.029  0.3688 -0.3395 -0.0837
   89SAPC   C32 8418   1.411   1.250   6.871 -0.1795  0.6274 -0.7044
   89SAPC   H2X 8419   1.379   1.156   6.920 -0.6377 -0.7669 -3.4965
   89SAPC   H2Y 8420   1.480   1.218   6.790  1.1622 -1.2306  1.0695
   89SAPC   C23 8421   1.893   0.964   7.135  0.3283  0.1497 -0.8184
   89SAPC   H3R 8422   1.955   0.876   7.163 -0.5524 -0.4235 -0.6162
   89SAPC   H3S 8423   1.954   1.056   7.152  0.6908 -0.1309 -0.5737
   89SAPC   C24 8424   1.860   0.950   6.992 -0.2305 -0.5704  0.6504
   89SAPC   H4R 8425   1.806   1.043   6.964 -0.1629 -0.9213 -0.7239
   89SAPC   H4S 8426   1.786   0.870   6.974 -0.9896  0.0729  0.8517
   89SAPC   C25 8427   1.980   0.962   6.899 -1.0728  0.4588  0.1740
   89SAPC   H5R 8428   2.058   0.888   6.923 -2.5547 -1.2730 -0.0921
   89SAPC   C26 8429   2.002   1.044   6.793  0.1316  0.8414 -0.1534
   89SAPC   H6R 8430   2.099   1.027   6.744  2.2206  1.8240  3.2655
   89SAPC   C27 8431   1.918   1.159   6.748  0.1943 -0.4481 -0.2205
   89SAPC   H7R 8432   1.900   1.223   6.837  0.7958 -0.3476 -0.1612
   89SAPC   H7S 8433   1.817   1.121   6.723 -0.6433  2.6811 -2.1593
   89SAPC   C28 8434   1.974   1.232   6.634  0.0573 -0.1587 -0.7002
   89SAPC   H8R 8435   2.083   1.247   6.634 -0.2159  2.6336  1.2967
   89SAPC   C29 8436   1.904   1.279   6.539 -0.2326 -1.2237 -0.6607
   89SAPC   H9R 8437   1.952   1.326   6.452  0.7857 -0.3090  0.3847
   89SAPC  C210 8438   1.752   1.283   6.532  0.4376 -0.2183  0.3537
   89SAPC  H10R 8439   1.694   1.311   6.622 -0.5395  1.9761 -0.8712
   89SAPC  H10S 8440   1.711   1.185   6.501 -1.3405 -0.0808  2.0626
   89SAPC  C211 8441   1.701   1.377   6.419 -0.5796 -0.0512 -0.2841
   89SAPC  H11R 8442   1.676   1.478   6.457 -1.7686 -0.7475  0.8567
   89SAPC  C212 8443   1.673   1.351   6.291 -0.0060  0.2537  0.1150
   89SAPC  H12R 8444   1.628   1.432   6.230  1.0814 -0.3929 -1.6255
   89SAPC  C213 8445   1.667   1.210   6.230 -1.1994 -0.2252 -1.0238
   89SAPC  H13R 8446   1.590   1.148   6.279 -1.0286  0.0544 -0.3838
   89SAPC  H13S 8447   1.765   1.163   6.252 -0.2993  1.0596 -2.0836
   89SAPC  C214 8448   1.653   1.215   6.082  0.0583  0.8115 -0.5363
   89SAPC  H14R 8449   1.740   1.254   6.028  0.0713 -0.2121 -1.2756
   89SAPC  C215 8450   1.565   1.149   6.005 -0.1976 -0.3273 -0.2884
   89SAPC  H15R 8451   1.565   1.167   5.897  1.5807 -1.3069 -0.4828
   89SAPC  C216 8452   1.456   1.066   6.064  0.4831  0.3347  0.3703
   89SAPC  H16R 8453   1.482   1.022   6.162 -0.5528 -2.9774 -0.6951
   89SAPC  H16S 8454   1.437   0.978   5.999  0.3000  0.8215 -0.2540
   89SAPC  C217 8455   1.314   1.136   6.074  0.4162  0.4281  0.0735
   89SAPC  H17R 8456   1.329   1.243   6.099 -1.5743  0.0808  3.3034
   89SAPC  H17S 8457   1.256   1.088   6.156 -1.5278  1.0119 -0.9057
   89SAPC  C218 8458   1.230   1.117   5.949  0.5325  0.3356 -0.2882
   89SAPC  H18R 8459   1.190   1.016   5.927 -3.4038  1.6014  0.2942
   89SAPC  H18S 8460   1.295   1.141   5.863 -1.1516 -1.3334 -2.1243
   89SAPC  C219 8461   1.117   1.218   5.951  0.2105 -0.4887  0.5173
   89SAPC  H19R 8462   1.149   1.320   5.979 -0.3322 -0.4364  0.9717
   89SAPC  H19S 8463   1.051   1.196   6.038 -0.5447 -0.5193 -0.0540
   89SAPC  C220 8464   1.036   1.224   5.821 -0.4793 -0.9645  0.4582
   89SAPC  H20R 8465   0.999   1.122   5.796 -4.2437  0.3262  0.2079
   89SAPC  H20S 8466   1.103   1.253   5.738 -2.4171 -0.6077 -1.0541
   89SAPC  H20T 8467   0.946   1.289   5.817 -0.5577 -1.1476 -1.7469
   89SAPC   C33 8468   1.297   1.315   6.800  1.0284 -0.3900 -0.2079
   89SAPC   H3X 8469   1.316   1.423   6.783  0.8742 -0.6022 -1.8510
   89SAPC   H3Y 8470   1.213   1.310   6.873  1.9635 -2.8778  0.7940
   89SAPC   C34 8471   1.267   1.246   6.669  1.0306 -0.0123 -0.2368
   89SAPC   H4X 8472   1.158   1.230   6.677  0.9377  0.7483  0.0160
   89SAPC   H4Y 8473   1.314   1.147   6.649  0.3894 -0.3480 -0.0887
   89SAPC   C35 8474   1.300   1.337   6.548 -0.1572  0.3532 -0.1326
   89SAPC   H5X 8475   1.326   1.267   6.465  1.4790 -0.3212  0.8912
   89SAPC   H5Y 8476   1.392   1.398   6.563 -0.0399  0.0712  0.3034
   89SAPC   C36 8477   1.183   1.431   6.506 -0.6635 -0.2848  0.1853
   89SAPC   H6X 8478   1.153   1.490   6.596 -1.4975 -0.3423 -0.0456
   89SAPC   H6Y 8479   1.098   1.361   6.497 -0.5307 -0.3417 -0.6556
   89SAPC   C37 8480   1.210   1.520   6.391  0.1668 -0.0882 -0.1594
   89SAPC   H7X 8481   1.240   1.452   6.308  0.7743 -2.1639  1.6712
   89SAPC   H7Y 8482   1.291   1.592   6.416 -1.5735  2.4512 -1.2588
   89SAPC   C38 8483   1.083   1.606   6.358  0.1733 -0.3026 -0.3790
   89SAPC   H8X 8484   1.061   1.660   6.452  2.9319  1.1217 -0.4702
   89SAPC   H8Y 8485   0.994   1.545   6.331 -1.8233  2.2384  0.1066
   89SAPC   C39 8486   1.099   1.695   6.235 -0.2519 -0.3174 -0.0964
   89SAPC   H9X 8487   1.159   1.643   6.156  0.5071 -1.5878  1.2673
   89SAPC   H9Y 8488   1.159   1.784   6.263 -0.4417 -0.3202  0.3152
   89SAPC  C310 8489   0.967   1.754   6.175 -0.1051 -0.0769 -0.1580
   89SAPC  H10X 8490   0.948   1.857   6.210  1.7946 -0.2265  1.5025
   89SAPC  H10Y 8491   0.881   1.694   6.212 -1.5703  0.7231 -2.1160
   89SAPC  C311 8492   0.949   1.761   6.017  0.4733 -0.2428 -0.4615
   89SAPC  H11X 8493   0.854   1.815   5.995  1.1255  1.5980  0.9709
   89SAPC  H11Y 8494   0.953   1.661   5.969 -1.5793 -1.2616  1.3218
   89SAPC  C312 8495   1.052   1.852   5.956 -0.4741 -0.5149  0.1530
   89SAPC  H12X 8496   1.147   1.834   6.011 -1.5438  0.0259  2.2408
   89SAPC  H12Y 8497   1.031   1.959   5.975  2.7106  0.2944 -0.3626
   89SAPC  C313 8498   1.083   1.821   5.805  0.1692 -0.4887  0.9699
   89SAPC  H13X 8499   1.101   1.713   5.791  0.4589 -0.4561  1.0769
   89SAPC  H13Y 8500   1.180   1.865   5.772 -0.2601 -0.4512 -0.3026
   89SAPC  C314 8501   0.969   1.860   5.704  0.1034 -0.0648 -0.4726
   89SAPC  H14X 8502   0.927   1.955   5.744 -1.2260 -0.9014  0.2275
   89SAPC  H14Y 8503   0.884   1.788   5.708  0.9457 -1.1496 -1.4521
   89SAPC  C315 8504   1.010   1.880   5.554  0.0774 -0.6192 -0.6248
   89SAPC  H15X 8505   1.055   1.783   5.523  0.6070 -0.2268 -1.0915
   89SAPC  H15Y 8506   1.092   1.954   5.549 -0.2444  0.0820  2.4867
   89SAPC  C316 8507   0.901   1.919   5.454 -0.3444  0.4202 -0.1765
   89SAPC  H16X 8508   0.831   1.994   5.498  1.4622  1.7972  0.4588
   89SAPC  H16Y 8509   0.843   1.830   5.420  1.4026 -0.7101 -0.3308
   89SAPC  C317 8510   0.979   1.978   5.337  0.4941  0.1400 -0.1997
   89SAPC  H17X 8511   1.058   1.904   5.311  2.0097  0.2850  3.4290
   89SAPC  H17Y 8512   1.031   2.067   5.380 -1.8948  0.9272  1.2194
   89SAPC  C318 8513   0.889   2.011   5.214  0.6815  0.1845 -0.6010
   89SAPC  H18X 8514   0.791   2.055   5.242  0.1916  0.1735 -2.1984
   89SAPC  H18Y 8515   0.861   1.918   5.161  0.1119 -2.7681  4.3213
   89SAPC  H18Z 8516   0.947   2.079   5.148  1.0259  0.6476  0.1557
   90SAPC     N 8517   1.279   0.301   7.925 -0.2059  0.4841  0.2626
   90SAPC   C12 8518   1.276   0.164   7.987  0.2379 -0.3593 -0.5590
   90SAPC  H12A 8519   1.285   0.167   8.095 -0.6212 -0.6199 -0.4743
   90SAPC  H12B 8520   1.366   0.112   7.959  1.6589  0.1707  2.5268
   90SAPC   C13 8521   1.165   0.382   7.975 -0.1918  0.5077 -0.1822
   90SAPC  H13A 8522   1.153   0.474   7.920  0.8701  1.3503  0.9466
   90SAPC  H13B 8523   1.073   0.326   7.966  0.3285 -0.6625  1.2951
   90SAPC  H13C 8524   1.180   0.402   8.080  1.1902  0.9527 -0.4532
   90SAPC   C14 8525   1.405   0.380   7.969 -0.6242  0.6995 -0.4031
   90SAPC  H14A 8526   1.403   0.486   7.947  3.0066  0.9246 -0.1591
   90SAPC  H14B 8527   1.405   0.378   8.077 -3.2275  1.5087 -0.3193
   90SAPC  H14C 8528   1.485   0.340   7.909 -1.9285 -1.0022 -1.0909
   90SAPC   C15 8529   1.276   0.278   7.775 -0.5703 -0.3124 -0.4614
   90SAPC  H15A 8530   1.266   0.375   7.729  0.4890  0.3398  0.6211
   90SAPC  H15B 8531   1.372   0.241   7.744  0.1136  1.2392 -0.2869
   90SAPC  H15C 8532   1.193   0.211   7.755 -0.3717 -0.3502 -1.1589
   90SAPC   C11 8533   1.151   0.076   7.957  0.2046  0.1625 -0.0962
   90SAPC  H11A 8534   1.058   0.125   7.992  0.3444  0.1308  0.3241
   90SAPC  H11B 8535   1.172  -0.016   8.016 -0.2055 -1.5913 -2.5220
   90SAPC     P 8536   1.247  -0.084   7.768 -0.3265  0.2849  0.1135
   90SAPC   O13 8537   1.382  -0.034   7.783  0.1744  0.1534  0.3229
   90SAPC   O14 8538   1.216  -0.212   7.829  0.1847  0.3297 -0.3411
   90SAPC   O12 8539   1.140   0.029   7.815 -0.3041  0.3700  0.3582
   90SAPC   O11 8540   1.211  -0.092   7.611  0.1821  0.3949 -0.0586
   90SAPC    C1 8541   1.086  -0.069   7.547  0.4758  0.3656 -0.2089
   90SAPC    HA 8542   1.023   0.004   7.602 -0.8682  0.1489 -1.4359
   90SAPC    HB 8543   1.112  -0.018   7.452  1.1040 -0.0346 -0.2600
   90SAPC    C2 8544   1.010  -0.200   7.528 -0.0679 -0.4667 -0.4483
   90SAPC    HS 8545   0.993  -0.249   7.626  0.4736 -0.3798 -0.3053
   90SAPC   O21 8546   1.081  -0.298   7.442 -0.0416 -0.6419 -0.1013
   90SAPC   C21 8547   1.035  -0.424   7.452  0.2196 -0.2545  0.9395
   90SAPC   O22 8548   0.958  -0.461   7.540  0.2463 -0.1360 -0.3141
   90SAPC   C22 8549   1.090  -0.500   7.335 -0.0656  0.1000  0.5774
   90SAPC   H2R 8550   1.093  -0.439   7.242  1.5967 -0.8844 -0.0612
   90SAPC   H2S 8551   1.193  -0.526   7.365 -0.0078 -1.0133 -0.4607
   90SAPC    C3 8552   0.867  -0.176   7.465  0.0614  0.4324 -0.1564
   90SAPC    HX 8553   0.816  -0.120   7.546 -0.7574 -0.2424 -0.1994
   90SAPC    HY 8554   0.815  -0.272   7.445  0.9582 -0.0007 -0.4959
   90SAPC   O31 8555   0.878  -0.084   7.349 -0.0779  0.1808  0.0015
   90SAPC   C31 8556   0.889  -0.148   7.238  0.0297 -0.0274  0.0501
   90SAPC   O32 8557   0.899  -0.271   7.228  0.2439 -0.5270  0.0947
   90SAPC   C32 8558   0.898  -0.031   7.135 -0.5685 -0.2758 -0.9400
   90SAPC   H2X 8559   0.987   0.026   7.171 -0.8285 -0.2719 -0.3020
   90SAPC   H2Y 8560   0.810   0.034   7.151 -0.0314  0.2227  0.0896
   90SAPC   C23 8561   1.008  -0.632   7.316  0.0087  0.5152  0.3142
   90SAPC   H3R 8562   0.901  -0.615   7.293  0.1145  1.5124  0.5162
   90SAPC   H3S 8563   1.005  -0.700   7.404  1.0430 -0.4952 -0.3976
   90SAPC   C24 8564   1.069  -0.714   7.201 -0.0920  0.0028  0.0252
   90SAPC   H4R 8565   1.019  -0.813   7.193 -0.9808  0.6045 -4.0416
   90SAPC   H4S 8566   1.174  -0.745   7.217 -0.5048 -2.8101 -1.8331
   90SAPC   C25 8567   1.045  -0.643   7.068 -0.0212 -0.4890 -0.0947
   90SAPC   H5R 8568   0.952  -0.669   7.014 -0.8878  0.6008  0.8245
   90SAPC   C26 8569   1.129  -0.559   7.003  0.0497  0.6056 -0.1718
   90SAPC   H6R 8570   1.102  -0.520   6.904  2.3059  1.1337 -0.6400
   90SAPC   C27 8571   1.263  -0.507   7.041  0.1398  0.8398 -0.0684
   90SAPC   H7R 8572   1.340  -0.559   6.979 -2.4987 -1.1750 -1.8746
   90SAPC   H7S 8573   1.286  -0.525   7.148 -1.8869 -0.4910  0.1889
   90SAPC   C28 8574   1.271  -0.358   7.019 -0.4567 -0.9855  0.2182
   90SAPC   H8R 8575   1.230  -0.289   7.094 -1.7116  1.1324 -2.2592
   90SAPC   C29 8576   1.315  -0.297   6.907 -0.7868  1.3411 -0.0896
   90SAPC   H9R 8577   1.317  -0.187   6.912 -1.0823  1.3128  0.7289
   90SAPC  C210 8578   1.352  -0.364   6.774 -0.6726 -0.2353 -0.1559
   90SAPC  H10R 8579   1.264  -0.356   6.707 -2.0105  0.6171  1.6225
   90SAPC  H10S 8580   1.370  -0.473   6.781 -1.4095 -0.3528 -0.0194
   90SAPC  C211 8581   1.470  -0.307   6.707 -1.1402 -0.4432 -0.0142
   90SAPC  H11R 8582   1.560  -0.304   6.769 -1.1290 -1.0102  0.0023
   90SAPC  C212 8583   1.474  -0.253   6.587  0.8108  0.2404  0.0844
   90SAPC  H12R 8584   1.568  -0.206   6.554 -0.8625  2.6406 -1.6137
   90SAPC  C213 8585   1.360  -0.246   6.483 -0.5110  1.1289 -1.0987
   90SAPC  H13R 8586   1.273  -0.225   6.548  0.9229 -2.5932  2.4599
   90SAPC  H13S 8587   1.361  -0.348   6.438  3.4862  0.8814 -0.8108
   90SAPC  C214 8588   1.390  -0.146   6.374 -0.1240  0.4046 -0.3938
   90SAPC  H14R 8589   1.459  -0.065   6.403 -0.5318  0.1544  1.3742
   90SAPC  C215 8590   1.363  -0.153   6.246  0.1889  0.0544 -0.0842
   90SAPC  H15R 8591   1.384  -0.065   6.182 -0.3597  1.1243  1.1665
   90SAPC  C216 8592   1.291  -0.262   6.170 -0.0703  0.2579 -0.0806
   90SAPC  H16R 8593   1.219  -0.217   6.098 -1.9551  0.0100  1.5893
   90SAPC  H16S 8594   1.240  -0.334   6.238 -0.4351  0.6566  0.0739
   90SAPC  C217 8595   1.394  -0.341   6.088 -0.3980 -0.2794  0.8085
   90SAPC  H17R 8596   1.347  -0.437   6.058 -0.5751 -0.4792  1.7167
   90SAPC  H17S 8597   1.489  -0.378   6.132  1.2858  1.3959 -1.2073
   90SAPC  C218 8598   1.426  -0.266   5.954  1.0188 -0.2123 -0.5497
   90SAPC  H18R 8599   1.523  -0.307   5.919  0.0173 -2.2246 -1.1657
   90SAPC  H18S 8600   1.424  -0.158   5.977 -0.8716  0.6204 -4.0223
   90SAPC  C219 8601   1.317  -0.286   5.842 -1.2466  0.1335 -0.5377
   90SAPC  H19R 8602   1.223  -0.245   5.885 -1.0692 -0.2948  0.2753
   90SAPC  H19S 8603   1.304  -0.396   5.829  0.5454 -0.2657  0.6138
   90SAPC  C220 8604   1.362  -0.216   5.712  0.4662 -0.1076  0.1916
   90SAPC  H20R 8605   1.470  -0.241   5.700  0.0949 -1.3115 -0.8214
   90SAPC  H20S 8606   1.353  -0.106   5.726 -2.2567 -0.4321  1.6755
   90SAPC  H20T 8607   1.306  -0.249   5.623 -0.5041  2.6388 -0.3237
   90SAPC   C33 8608   0.903  -0.092   6.996  0.5305  0.2624 -0.0013
   90SAPC   H3X 8609   0.814  -0.158   6.987  0.9600 -0.3917  0.5208
   90SAPC   H3Y 8610   0.997  -0.149   6.982 -0.4292 -1.2388 -0.5108
   90SAPC   C34 8611   0.887   0.015   6.895 -0.1952 -0.6679  0.2579
   90SAPC   H4X 8612   0.960   0.099   6.903  1.7240 -1.4939 -4.9103
   90SAPC   H4Y 8613   0.793   0.072   6.910  0.5692  0.5799  0.5020
   90SAPC   C35 8614   0.900  -0.040   6.752 -0.4996  0.6306  0.0950
   90SAPC   H5X 8615   0.833  -0.129   6.755  1.3114 -0.7643  0.8725
   90SAPC   H5Y 8616   0.998  -0.086   6.725 -0.2751  1.7228 -1.0340
   90SAPC   C36 8617   0.869   0.065   6.651  0.1774  0.1456  0.2490
   90SAPC   H6X 8618   0.933   0.155   6.665  2.1846 -0.8859 -1.6024
   90SAPC   H6Y 8619   0.763   0.096   6.664 -0.2893 -0.9460 -0.7910
   90SAPC   C37 8620   0.890   0.016   6.510 -0.3182 -0.0842 -0.1007
   90SAPC   H7X 8621   0.866  -0.091   6.494 -0.2332 -0.5043  2.2279
   90SAPC   H7Y 8622   0.998   0.026   6.487 -0.4871  0.4188 -0.6960
   90SAPC   C38 8623   0.817   0.102   6.405  0.4791 -0.1077 -0.5667
   90SAPC   H8X 8624   0.796   0.201   6.451 -0.2846 -0.2455 -0.6128
   90SAPC   H8Y 8625   0.723   0.045   6.390  2.2699 -2.9165 -2.1527
   90SAPC   C39 8626   0.877   0.106   6.263  0.2579  0.1107 -0.4343
   90SAPC   H9X 8627   0.805   0.084   6.181  0.0348 -1.6710  0.2039
   90SAPC   H9Y 8628   0.940   0.015   6.261 -2.8167 -2.2318  1.1703
   90SAPC  C310 8629   0.954   0.239   6.235 -0.0005 -0.1705 -0.0606
   90SAPC  H10X 8630   1.002   0.275   6.328 -0.6404  1.0586 -0.1869
   90SAPC  H10Y 8631   0.879   0.320   6.221 -0.2602  0.1303  2.5681
   90SAPC  C311 8632   1.040   0.254   6.107  0.1704 -0.3767 -0.3532
   90SAPC  H11X 8633   1.038   0.363   6.085  0.1055 -0.3877 -0.4042
   90SAPC  H11Y 8634   0.984   0.194   6.031 -1.0397 -0.3570  0.4880
   90SAPC  C312 8635   1.185   0.205   6.111  0.2590  0.8122 -0.1486
   90SAPC  H12X 8636   1.177   0.095   6.120  4.0879  0.3079 -1.0500
   90SAPC  H12Y 8637   1.255   0.246   6.188  0.7101 -1.3664  0.6685
   90SAPC  C313 8638   1.261   0.228   5.975  0.5733  0.4024 -0.4859
   90SAPC  H13X 8639   1.278   0.338   5.970  2.0541  0.2109 -0.1664
   90SAPC  H13Y 8640   1.210   0.190   5.884  2.3131 -1.2858 -0.8283
   90SAPC  C314 8641   1.404   0.172   5.992  0.7286 -0.0683  0.7096
   90SAPC  H14X 8642   1.389   0.062   5.989 -1.1113  0.1609 -2.2739
   90SAPC  H14Y 8643   1.436   0.206   6.093 -2.7354 -1.3782  2.3936
   90SAPC  C315 8644   1.509   0.220   5.896  0.1959 -1.1030 -0.0237
   90SAPC  H15X 8645   1.532   0.328   5.907  2.1871 -1.4627 -0.1675
   90SAPC  H15Y 8646   1.470   0.194   5.795 -0.7062  0.3215 -0.0578
   90SAPC  C316 8647   1.639   0.137   5.908 -0.1038 -0.3326 -0.2631
   90SAPC  H16X 8648   1.624   0.038   5.859 -0.4595 -0.4918  0.1583
   90SAPC  H16Y 8649   1.659   0.117   6.016 -1.0774 -1.0775 -0.2049
   90SAPC  C317 8650   1.760   0.209   5.850  0.1182  0.3107 -0.2247
   90SAPC  H17X 8651   1.846   0.143   5.875  0.2016  0.2551 -0.6551
   90SAPC  H17Y 8652   1.781   0.304   5.905  1.6507 -0.3312  0.3472
   90SAPC  C318 8653   1.739   0.245   5.703 -0.2530  0.0218  0.2860
   90SAPC  H18X 8654   1.718   0.154   5.643  3.0579 -1.1720  0.7483
   90SAPC  H18Y 8655   1.826   0.294   5.654 -1.4031  0.7579 -1.1184
   90SAPC  H18Z 8656   1.656   0.318   5.693  0.5062  0.7810 -0.8291
   91SAPC     N 8657   4.543   6.175   0.076 -0.0981 -0.1131  0.7568
   91SAPC   C12 8658   4.512   6.261  -0.043 -0.1644  0.3489 -0.5676
   91SAPC  H12A 8659   4.553   6.358  -0.023  1.5907 -0.4826  0.0588
   91SAPC  H12B 8660   4.405   6.273  -0.051 -0.2090 -1.0658 -4.1420
   91SAPC   C13 8661   4.462   6.050   0.074 -0.2133  0.2648 -0.3220
   91SAPC  H13A 8662   4.361   6.066   0.040 -0.3082 -1.7619 -1.1402
   91SAPC  H13B 8663   4.497   5.969   0.011 -0.3644 -0.0358 -0.0229
   91SAPC  H13C 8664   4.442   6.012   0.173 -2.6214 -0.0057 -0.8595
   91SAPC   C14 8665   4.687   6.138   0.076 -0.3625  0.2406  0.2217
   91SAPC  H14A 8666   4.740   6.223   0.037  0.5351 -0.9158 -1.2117
   91SAPC  H14B 8667   4.723   6.118   0.176 -0.5173  1.2027  0.4718
   91SAPC  H14C 8668   4.706   6.053   0.012 -2.2614 -0.0329 -0.0271
   91SAPC   C15 8669   4.500   6.238   0.199  0.2256  0.4526 -0.2736
   91SAPC  H15A 8670   4.547   6.333   0.222  0.9686 -0.0277  0.2553
   91SAPC  H15B 8671   4.394   6.258   0.199  0.3955  1.4264  0.3553
   91SAPC  H15C 8672   4.512   6.169   0.282 -0.4103 -0.3379 -0.8223
   91SAPC   C11 8673   4.548   6.222  -0.188  0.6394  0.0740  0.0222
   91SAPC  H11A 8674   4.655   6.194  -0.202  0.5570  0.0742 -0.6190
   91SAPC  H11B 8675   4.523   6.308  -0.253 -1.0945 -0.7743 -0.4882
   91SAPC     P 8676   4.331   6.116  -0.290  0.0996  0.1703 -0.2163
   91SAPC   O13 8677   4.278   5.981  -0.317 -0.1783 -0.1122 -0.3440
   91SAPC   O14 8678   4.249   6.211  -0.221  0.3339  0.0197  0.2940
   91SAPC   O12 8679   4.470   6.109  -0.225  0.3951 -0.5717 -0.6779
   91SAPC   O11 8680   4.367   6.172  -0.432 -0.3633 -0.7338  0.1755
   91SAPC    C1 8681   4.414   6.085  -0.539  0.0171  0.5877 -0.0089
   91SAPC    HA 8682   4.382   5.979  -0.536  0.6693  0.3815 -0.1907
   91SAPC    HB 8683   4.384   6.117  -0.641  1.7879 -1.9609 -1.4301
   91SAPC    C2 8684   4.568   6.088  -0.550  0.7102 -0.9458  0.5168
   91SAPC    HS 8685   4.602   6.085  -0.444  2.8773  2.2114  0.0543
   91SAPC   O21 8686   4.601   6.216  -0.612 -0.1542 -0.3485 -0.1058
   91SAPC   C21 8687   4.706   6.273  -0.561 -0.3003 -0.2663  0.5567
   91SAPC   O22 8688   4.779   6.236  -0.469 -0.9462  0.1126  0.2694
   91SAPC   C22 8689   4.752   6.386  -0.644  0.5733  0.8099  0.0271
   91SAPC   H2R 8690   4.850   6.420  -0.606  0.5082 -0.8085  1.7493
   91SAPC   H2S 8691   4.755   6.354  -0.751 -0.0597 -2.5913  0.9005
   91SAPC    C3 8692   4.626   5.977  -0.638  0.8432  0.0325  0.8801
   91SAPC    HX 8693   4.592   5.881  -0.594  3.1000 -1.9068 -1.3070
   91SAPC    HY 8694   4.737   5.977  -0.634  0.9187  1.1863 -0.4884
   91SAPC   O31 8695   4.579   5.988  -0.777  0.0916  0.2148 -0.2377
   91SAPC   C31 8696   4.660   6.050  -0.860  0.3941 -0.5829  0.7816
   91SAPC   O32 8697   4.776   6.086  -0.834 -0.0293  0.3430  0.2935
   91SAPC   C32 8698   4.575   6.094  -0.983 -0.3591  0.0048 -0.2916
   91SAPC   H2X 8699   4.486   6.142  -0.937  0.6790  2.1531 -0.4369
   91SAPC   H2Y 8700   4.549   6.006  -1.045  0.0082  0.2437 -0.7841
   91SAPC   C23 8701   4.664   6.511  -0.640  0.0920 -0.2677  0.0025
   91SAPC   H3R 8702   4.659   6.560  -0.540  0.2773  3.3022 -1.5776
   91SAPC   H3S 8703   4.562   6.484  -0.674  0.5384  2.1445 -3.8543
   91SAPC   C24 8704   4.713   6.613  -0.746  0.2435  0.0388 -0.6944
   91SAPC   H4R 8705   4.649   6.701  -0.722  0.7187 -0.2631  1.9267
   91SAPC   H4S 8706   4.691   6.568  -0.845 -1.0013 -1.5329  0.2424
   91SAPC   C25 8707   4.857   6.665  -0.738  0.1582 -0.0401  0.5863
   91SAPC   H5R 8708   4.868   6.745  -0.663 -0.0148 -0.2648  0.8536
   91SAPC   C26 8709   4.964   6.628  -0.815  0.3750 -0.1769  0.6612
   91SAPC   H6R 8710   5.060   6.676  -0.795  0.2928  0.2509  0.0563
   91SAPC   C27 8711   4.960   6.529  -0.932 -0.1145  0.5807 -0.4247
   91SAPC   H7R 8712   4.912   6.579  -1.018 -1.1053 -0.3988 -0.4739
   91SAPC   H7S 8713   4.897   6.439  -0.909  0.3720  0.6183  1.1284
   91SAPC   C28 8714   5.099   6.482  -0.967  0.5108  0.6105 -1.1444
   91SAPC   H8R 8715   5.127   6.393  -0.909  0.9250  0.8164 -1.0202
   91SAPC   C29 8716   5.178   6.526  -1.070 -0.1606  0.2441 -0.0601
   91SAPC   H9R 8717   5.269   6.470  -1.092  0.7942  1.4773  0.5880
   91SAPC  C210 8718   5.152   6.633  -1.166  0.6633 -0.0658 -0.0051
   91SAPC  H10R 8719   5.045   6.664  -1.173  0.4497 -1.1076 -2.8951
   91SAPC  H10S 8720   5.176   6.587  -1.264  1.0649  0.9848 -0.4133
   91SAPC  C211 8721   5.228   6.758  -1.166  0.2539 -0.7470 -0.1298
   91SAPC  H11R 8722   5.266   6.783  -1.066 -1.4402 -1.0698  0.6207
   91SAPC  C212 8723   5.263   6.835  -1.269  0.0503 -0.3670  0.3258
   91SAPC  H12R 8724   5.338   6.914  -1.249 -0.0258  0.3638 -1.9317
   91SAPC  C213 8725   5.235   6.825  -1.423  0.2933 -0.1190 -0.5697
   91SAPC  H13R 8726   5.297   6.753  -1.481  1.6764  2.1980 -2.1176
   91SAPC  H13S 8727   5.288   6.915  -1.461  1.0183 -0.4520 -0.3673
   91SAPC  C214 8728   5.094   6.804  -1.480 -0.2218 -0.0620 -0.4872
   91SAPC  H14R 8729   5.033   6.726  -1.431  2.0024 -1.1085  0.7773
   91SAPC  C215 8730   5.038   6.875  -1.576  0.9371 -0.2006  0.5513
   91SAPC  H15R 8731   4.939   6.841  -1.607  0.2779  0.2845  2.0179
   91SAPC  C216 8732   5.098   6.985  -1.652  1.1535 -0.7800  0.6639
   91SAPC  H16R 8733   5.209   6.990  -1.649  1.3777 -2.7455 -1.4743
   91SAPC  H16S 8734   5.064   7.081  -1.608 -0.9599 -1.5406  0.8340
   91SAPC  C217 8735   5.062   6.992  -1.800 -0.0979  0.3226 -0.0965
   91SAPC  H17R 8736   5.071   6.896  -1.854 -0.3092  1.1385 -1.6735
   91SAPC  H17S 8737   5.126   7.063  -1.858 -1.1918  0.9402 -0.5937
   91SAPC  C218 8738   4.917   7.038  -1.827  0.3288 -0.5216  0.7763
   91SAPC  H18R 8739   4.916   7.139  -1.779 -0.7546 -0.2406  0.2128
   91SAPC  H18S 8740   4.836   6.977  -1.782 -0.7486  0.8558  0.7960
   91SAPC  C219 8741   4.883   7.050  -1.978  0.4567  0.2288  0.1595
   91SAPC  H19R 8742   4.864   6.953  -2.029  1.2680  0.7414 -1.1914
   91SAPC  H19S 8743   4.970   7.089  -2.037  0.4023 -1.8187 -1.3995
   91SAPC  C220 8744   4.766   7.144  -2.015 -0.3223 -0.5543 -0.5932
   91SAPC  H20R 8745   4.780   7.250  -1.983 -0.3085 -0.9184  0.6495
   91SAPC  H20S 8746   4.672   7.101  -1.975  1.1795 -1.9281  1.6875
   91SAPC  H20T 8747   4.761   7.143  -2.126 -0.3643  0.7884 -0.6193
   91SAPC   C33 8748   4.645   6.199  -1.071  0.2284 -0.1926 -0.0006
   91SAPC   H3X 8749   4.675   6.286  -1.008 -0.0025 -0.0190 -0.1320
   91SAPC   H3Y 8750   4.562   6.237  -1.134  0.5224  0.1713 -0.1792
   91SAPC   C34 8751   4.774   6.151  -1.150  0.5930  0.2672 -0.6520
   91SAPC   H4X 8752   4.733   6.095  -1.237 -0.2302  1.2272 -0.8939
   91SAPC   H4Y 8753   4.832   6.087  -1.080 -0.5717 -1.1251 -0.9186
   91SAPC   C35 8754   4.874   6.262  -1.195 -0.0316  0.5241 -0.2444
   91SAPC   H5X 8755   4.955   6.196  -1.233  0.8470  0.3644  1.8054
   91SAPC   H5Y 8756   4.928   6.315  -1.114 -0.0200  0.0183  0.0887
   91SAPC   C36 8757   4.820   6.371  -1.290 -0.4880  0.0115 -0.1495
   91SAPC   H6X 8758   4.863   6.470  -1.261 -0.1255  0.3367 -1.6944
   91SAPC   H6Y 8759   4.710   6.381  -1.287 -0.5861 -0.8268 -0.7761
   91SAPC   C37 8760   4.865   6.347  -1.435 -0.6133  0.1437 -0.0295
   91SAPC   H7X 8761   4.808   6.261  -1.476 -1.3033  2.0432 -3.4805
   91SAPC   H7Y 8762   4.974   6.326  -1.440 -0.6313  0.0788 -0.1469
   91SAPC   C38 8763   4.846   6.466  -1.526  0.1669 -0.1201 -0.5212
   91SAPC   H8X 8764   4.870   6.561  -1.474  0.7868 -0.0007 -1.0163
   91SAPC   H8Y 8765   4.738   6.456  -1.550  0.3697 -1.1011 -1.0866
   91SAPC   C39 8766   4.924   6.448  -1.648 -0.2158  0.1854 -0.1825
   91SAPC   H9X 8767   4.894   6.352  -1.694 -2.3509  1.0146 -0.6695
   91SAPC   H9Y 8768   5.032   6.461  -1.629  0.8471 -2.7982 -3.1429
   91SAPC  C310 8769   4.882   6.547  -1.755 -0.5771 -0.5265 -0.0215
   91SAPC  H10X 8770   4.859   6.645  -1.707 -2.0709 -2.0736  2.7139
   91SAPC  H10Y 8771   4.782   6.515  -1.793 -1.2194  3.0972 -1.8013
   91SAPC  C311 8772   4.968   6.550  -1.884 -0.8477 -0.2173  0.5291
   91SAPC  H11X 8773   4.969   6.446  -1.923 -0.4262 -0.6046  1.5313
   91SAPC  H11Y 8774   5.072   6.582  -1.863 -1.2090  0.7298  0.9158
   91SAPC  C312 8775   4.922   6.646  -1.998  0.3390  0.2635 -0.1422
   91SAPC  H12X 8776   4.891   6.745  -1.958  1.1255 -0.1487  1.5708
   91SAPC  H12Y 8777   4.831   6.610  -2.051  0.2002 -1.3980  1.1537
   91SAPC  C313 8778   5.033   6.661  -2.110  0.1375 -0.8258 -0.2142
   91SAPC  H13X 8779   5.063   6.561  -2.149 -1.0852 -2.1324  1.9956
   91SAPC  H13Y 8780   5.124   6.705  -2.064  1.2388 -2.8268 -0.3785
   91SAPC  C314 8781   4.981   6.742  -2.230  0.0426 -0.3759  0.0237
   91SAPC  H14X 8782   4.980   6.849  -2.199  0.6193 -0.3864  0.1003
   91SAPC  H14Y 8783   4.886   6.691  -2.255 -0.2700  0.4383 -0.4832
   91SAPC  C315 8784   5.072   6.726  -2.355  0.3348 -0.1299 -0.1521
   91SAPC  H15X 8785   5.076   6.618  -2.381 -0.2897 -0.5788  1.4800
   91SAPC  H15Y 8786   5.174   6.759  -2.327  0.6677 -2.0755  1.1624
   91SAPC  C316 8787   5.021   6.798  -2.481 -0.7630 -0.3330  0.0189
   91SAPC  H16X 8788   5.021   6.907  -2.460  0.1094 -0.6570  1.9061
   91SAPC  H16Y 8789   4.923   6.763  -2.520 -0.6994 -1.2181  0.6400
   91SAPC  C317 8790   5.114   6.780  -2.602 -0.3996 -0.5895  0.1496
   91SAPC  H17X 8791   5.143   6.674  -2.617  1.3454  0.1600 -2.5479
   91SAPC  H17Y 8792   5.214   6.822  -2.580 -0.6412  0.6610 -0.9750
   91SAPC  C318 8793   5.061   6.826  -2.732  0.1638  0.9908 -0.1271
   91SAPC  H18X 8794   5.118   6.787  -2.820  1.1323  3.2444 -0.5609
   91SAPC  H18Y 8795   5.072   6.936  -2.738  1.9245  0.8098 -1.0658
   91SAPC  H18Z 8796   4.953   6.801  -2.732  0.1683  0.9158  1.1967
   92SAPC     N 8797   5.540   4.519   7.726  0.7159 -0.8325  0.8744
   92SAPC   C12 8798   5.497   4.381   7.770  0.4302  0.5347  0.1643
   92SAPC  H12A 8799   5.496   4.380   7.878 -1.4078  3.4207  0.2714
   92SAPC  H12B 8800   5.569   4.314   7.724  1.8183  2.5698 -0.7474
   92SAPC   C13 8801   5.563   4.523   7.584 -0.4686  0.5839 -0.2805
   92SAPC  H13A 8802   5.475   4.524   7.522  0.2108  2.1500 -1.2897
   92SAPC  H13B 8803   5.605   4.617   7.551  0.7922 -0.2662 -1.1768
   92SAPC  H13C 8804   5.628   4.443   7.553  0.4137  1.7191 -1.5126
   92SAPC   C14 8805   5.431   4.624   7.761  0.7686  0.6109  0.4370
   92SAPC  H14A 8806   5.333   4.593   7.730  0.7732  1.9120 -1.0143
   92SAPC  H14B 8807   5.424   4.654   7.865  0.8259  0.0579  0.6031
   92SAPC  H14C 8808   5.455   4.718   7.714 -0.3714  0.9014  0.4111
   92SAPC   C15 8809   5.674   4.556   7.797  0.3006 -0.3416 -0.7947
   92SAPC  H15A 8810   5.706   4.653   7.763 -0.9323  0.6518  0.7121
   92SAPC  H15B 8811   5.658   4.561   7.904 -0.0383 -0.9273 -0.8158
   92SAPC  H15C 8812   5.754   4.492   7.765  0.3547 -1.2360  0.9961
   92SAPC   C11 8813   5.350   4.330   7.725  0.0577  0.3942 -0.2322
   92SAPC  H11A 8814   5.347   4.224   7.755 -0.1677  0.6635  0.7311
   92SAPC  H11B 8815   5.348   4.335   7.614 -1.2907 -0.9382 -0.2958
   92SAPC     P 8816   5.100   4.414   7.723 -0.3161  0.7108  0.0376
   92SAPC   O13 8817   4.990   4.349   7.803  0.1738  0.4598  0.0937
   92SAPC   O14 8818   5.083   4.556   7.698 -0.0792  0.1691  0.1001
   92SAPC   O12 8819   5.246   4.408   7.790 -0.0909 -0.2877 -0.2929
   92SAPC   O11 8820   5.122   4.342   7.581  0.0318  0.0749  0.2902
   92SAPC    C1 8821   5.012   4.300   7.498  0.5099 -0.1477 -0.1007
   92SAPC    HA 8822   4.918   4.293   7.557  0.2512  1.0912 -0.3396
   92SAPC    HB 8823   4.992   4.374   7.418  2.4347  0.7785  0.2109
   92SAPC    C2 8824   5.046   4.170   7.427 -0.2155  0.0047 -0.1900
   92SAPC    HS 8825   5.028   4.085   7.496 -0.2749 -1.0042 -1.4141
   92SAPC   O21 8826   5.179   4.181   7.374 -0.6579  0.3325  0.3688
   92SAPC   C21 8827   5.276   4.135   7.446  1.1153 -0.6508 -1.3527
   92SAPC   O22 8828   5.267   4.081   7.552 -0.0181  0.3395 -0.6482
   92SAPC   C22 8829   5.408   4.175   7.376 -0.0648 -0.8064  0.0530
   92SAPC   H2R 8830   5.390   4.178   7.266 -2.6346  1.2931  0.4225
   92SAPC   H2S 8831   5.449   4.272   7.411  3.3245 -1.9481 -0.3760
   92SAPC    C3 8832   4.950   4.135   7.304  0.2209 -0.3078  0.9992
   92SAPC    HX 8833   4.988   4.042   7.256  2.1336 -0.5019  2.7391
   92SAPC    HY 8834   4.955   4.222   7.236  2.7046 -1.0070  0.1719
   92SAPC   O31 8835   4.814   4.122   7.351 -0.7244  0.2812  0.3948
   92SAPC   C31 8836   4.779   4.008   7.412 -0.4942  0.8836  0.1118
   92SAPC   O32 8837   4.843   3.904   7.406 -0.0182 -0.2412  0.4151
   92SAPC   C32 8838   4.644   4.030   7.471 -0.4890 -0.0381 -0.1928
   92SAPC   H2X 8839   4.632   4.135   7.507  0.2173  0.0737 -0.2637
   92SAPC   H2Y 8840   4.648   3.964   7.560 -1.8421  0.7350  0.4831
   92SAPC   C23 8841   5.503   4.063   7.419  0.1831  0.2401  0.8799
   92SAPC   H3R 8842   5.488   3.966   7.368  2.6687  0.1791  0.1412
   92SAPC   H3S 8843   5.500   4.034   7.527  0.6576 -0.9675  0.5747
   92SAPC   C24 8844   5.645   4.092   7.385 -0.9796  0.1703  0.5371
   92SAPC   H4R 8845   5.659   4.120   7.278  0.5094  0.0640  0.6946
   92SAPC   H4S 8846   5.706   4.000   7.395 -0.9354 -0.1356 -1.9353
   92SAPC   C25 8847   5.724   4.183   7.472  0.3892  0.3957  0.4265
   92SAPC   H5R 8848   5.729   4.143   7.574 -0.6796  0.7522  0.6305
   92SAPC   C26 8849   5.793   4.298   7.426  0.3184 -0.0068 -0.5858
   92SAPC   H6R 8850   5.844   4.364   7.498  2.0978 -2.2352  0.3711
   92SAPC   C27 8851   5.801   4.353   7.291  0.1631  0.6930  0.0711
   92SAPC   H7R 8852   5.851   4.280   7.224 -0.4337  0.5528 -0.2280
   92SAPC   H7S 8853   5.862   4.446   7.287 -0.4276  1.2677  2.7659
   92SAPC   C28 8854   5.667   4.391   7.223  0.0278  0.0103 -0.1177
   92SAPC   H8R 8855   5.575   4.365   7.276  0.2808  1.3762  1.0425
   92SAPC   C29 8856   5.651   4.453   7.107 -0.3134  0.6869  0.0076
   92SAPC   H9R 8857   5.551   4.473   7.067  0.4311  0.4784 -2.0631
   92SAPC  C210 8858   5.770   4.497   7.021  1.2292 -0.9918  0.1668
   92SAPC  H10R 8859   5.762   4.441   6.925 -2.4901  0.2117 -0.4103
   92SAPC  H10S 8860   5.862   4.479   7.080  0.3858 -1.4344  1.3796
   92SAPC  C211 8861   5.742   4.643   6.979 -0.8588 -0.1171  0.5989
   92SAPC  H11R 8862   5.759   4.724   7.052 -2.9802  2.0028 -1.1207
   92SAPC  C212 8863   5.727   4.687   6.853 -0.1016  0.3121  0.3096
   92SAPC  H12R 8864   5.714   4.795   6.835 -0.3791  0.4641  1.3666
   92SAPC  C213 8865   5.714   4.598   6.731  0.2095  0.0785  0.5295
   92SAPC  H13R 8866   5.622   4.624   6.674  0.9382  1.2608 -0.1529
   92SAPC  H13S 8867   5.705   4.489   6.750  0.4636  0.1394  1.0024
   92SAPC  C214 8868   5.836   4.629   6.641 -0.4785  0.1568 -0.1194
   92SAPC  H14R 8869   5.936   4.607   6.681  1.0270  1.2478 -2.9782
   92SAPC  C215 8870   5.829   4.659   6.509  0.1357  0.4482  0.0787
   92SAPC  H15R 8871   5.924   4.678   6.457  0.6489  1.1069  1.2272
   92SAPC  C216 8872   5.712   4.658   6.414  0.3693 -0.0838 -0.2299
   92SAPC  H16R 8873   5.733   4.701   6.314  0.1754 -0.4054 -0.4096
   92SAPC  H16S 8874   5.640   4.724   6.467 -0.0921 -0.7464 -0.0280
   92SAPC  C217 8875   5.646   4.511   6.407  0.1138 -0.6563 -0.7927
   92SAPC  H17R 8876   5.626   4.470   6.508 -2.9708  0.0200 -1.0471
   92SAPC  H17S 8877   5.722   4.442   6.365 -0.9634 -1.1112 -2.0407
   92SAPC  C218 8878   5.517   4.500   6.327  0.3963  0.1234 -0.1939
   92SAPC  H18R 8879   5.439   4.562   6.376  0.9943  0.0446  0.8868
   92SAPC  H18S 8880   5.479   4.395   6.325  2.1570 -0.5849  1.1225
   92SAPC  C219 8881   5.536   4.549   6.181  0.1010 -0.1995  0.2731
   92SAPC  H19R 8882   5.564   4.656   6.190  1.2452 -0.5963  1.9195
   92SAPC  H19S 8883   5.442   4.529   6.125 -0.3360 -0.6764  1.1422
   92SAPC  C220 8884   5.655   4.474   6.112  0.4790 -0.4564  0.0295
   92SAPC  H20R 8885   5.625   4.371   6.086 -1.6377  0.3384 -0.9210
   92SAPC  H20S 8886   5.746   4.458   6.174  0.3568 -1.1081  0.0406
   92SAPC  H20T 8887   5.682   4.520   6.015  3.2036 -0.1268  0.8311
   92SAPC   C33 8888   4.527   3.992   7.378 -0.1163  0.7344  0.2201
   92SAPC   H3X 8889   4.430   4.014   7.427 -0.9757  0.8771 -1.4906
   92SAPC   H3Y 8890   4.524   3.881   7.388 -1.3342  0.7888  0.6763
   92SAPC   C34 8891   4.531   4.047   7.236  0.0093  0.3117 -0.5452
   92SAPC   H4X 8892   4.631   4.041   7.187  0.2310 -2.3909  0.1240
   92SAPC   H4Y 8893   4.506   4.154   7.255 -0.2711 -0.1360  1.9586
   92SAPC   C35 8894   4.423   3.979   7.152  0.6434  0.2783  0.6356
   92SAPC   H5X 8895   4.333   3.964   7.214  0.4372  1.3577  0.6114
   92SAPC   H5Y 8896   4.441   3.872   7.127  1.3492  0.7358 -0.9554
   92SAPC   C36 8897   4.391   4.064   7.030  0.3950  0.0956  0.4806
   92SAPC   H6X 8898   4.477   4.059   6.959 -0.6525 -0.3396 -0.8007
   92SAPC   H6Y 8899   4.369   4.169   7.059  2.5590  0.9629 -0.7765
   92SAPC   C37 8900   4.265   4.017   6.948 -0.3708 -0.1723  0.4747
   92SAPC   H7X 8901   4.176   4.051   7.005 -0.4204  1.2442 -0.4185
   92SAPC   H7Y 8902   4.275   3.906   6.941 -0.7049 -0.3218  2.0664
   92SAPC   C38 8903   4.258   4.094   6.813  0.5956  0.1737  0.0162
   92SAPC   H8X 8904   4.345   4.061   6.753  0.7765  1.6999 -0.6032
   92SAPC   H8Y 8905   4.265   4.204   6.830 -2.3844  0.7708 -1.9050
   92SAPC   C39 8906   4.142   4.048   6.731  0.4959 -0.4157 -0.1183
   92SAPC   H9X 8907   4.051   4.091   6.781 -1.3315 -1.4442 -2.3854
   92SAPC   H9Y 8908   4.120   3.940   6.728 -0.6751 -0.3856  2.9923
   92SAPC  C310 8909   4.123   4.118   6.598 -0.6315 -0.4701 -0.1362
   92SAPC  H10X 8910   4.120   4.228   6.615 -1.9797 -0.5444  0.2317
   92SAPC  H10Y 8911   4.026   4.090   6.552 -0.7931 -1.4049  0.7304
   92SAPC  C311 8912   4.236   4.081   6.502  0.2705 -0.2626 -0.2435
   92SAPC  H11X 8913   4.257   3.972   6.511 -0.3813 -0.2945  1.2501
   92SAPC  H11Y 8914   4.328   4.127   6.546 -0.4851  0.3053  0.7902
   92SAPC  C312 8915   4.208   4.131   6.362 -0.0723 -0.1871  0.4642
   92SAPC  H12X 8916   4.169   4.235   6.357 -0.7217 -0.4776 -1.2219
   92SAPC  H12Y 8917   4.124   4.066   6.330  0.7013 -1.7969  1.5689
   92SAPC  C313 8918   4.327   4.122   6.273  0.1444  0.7243  0.0350
   92SAPC  H13X 8919   4.384   4.030   6.302 -2.9292 -1.3462  0.0033
   92SAPC  H13Y 8920   4.391   4.212   6.280  1.2288 -0.0394  0.2377
   92SAPC  C314 8921   4.284   4.108   6.127 -0.7382  0.1813  0.5888
   92SAPC  H14X 8922   4.246   4.005   6.108 -2.2147  0.7378  0.4062
   92SAPC  H14Y 8923   4.368   4.112   6.054 -0.4329 -1.6792  0.8022
   92SAPC  C315 8924   4.182   4.219   6.090  0.1376 -0.8400 -0.5248
   92SAPC  H15X 8925   4.212   4.320   6.123 -2.1937 -0.4626  0.7036
   92SAPC  H15Y 8926   4.081   4.202   6.134  1.4124 -0.8611  2.6408
   92SAPC  C316 8927   4.153   4.224   5.939  0.4739 -0.0045 -0.1383
   92SAPC  H16X 8928   4.058   4.275   5.914 -0.0025 -0.2000  1.2238
   92SAPC  H16Y 8929   4.129   4.119   5.912 -1.0315 -0.3752  2.3426
   92SAPC  C317 8930   4.262   4.299   5.859 -0.2334 -0.5709 -0.4873
   92SAPC  H17X 8931   4.352   4.235   5.846 -1.5496 -2.4212 -0.8893
   92SAPC  H17Y 8932   4.283   4.391   5.917  1.2091 -0.6739 -0.8218
   92SAPC  C318 8933   4.217   4.337   5.722  0.0584  0.2184 -0.5485
   92SAPC  H18X 8934   4.139   4.414   5.740  0.8424  0.6057  1.4514
   92SAPC  H18Y 8935   4.163   4.251   5.676 -0.4099  0.3221 -0.2079
   92SAPC  H18Z 8936   4.287   4.386   5.651 -0.7674  0.2146 -1.3875
   93SAPC     N 8937   3.604   3.199   8.145 -0.3118 -0.0744  0.2201
   93SAPC   C12 8938   3.649   3.238   8.009 -0.2396 -0.0290  0.3679
   93SAPC  H12A 8939   3.652   3.346   8.002  0.6101  0.0265  1.3331
   93SAPC  H12B 8940   3.575   3.226   7.930  1.0756  0.9708 -1.0907
   93SAPC   C13 8941   3.625   3.051   8.165 -0.5399 -0.3551 -0.5888
   93SAPC  H13A 8942   3.732   3.034   8.170 -0.6308 -0.6817  0.8272
   93SAPC  H13B 8943   3.573   3.019   8.254  1.1507 -0.9895  0.2231
   93SAPC  H13C 8944   3.597   2.988   8.083  1.1563 -1.2895 -0.4915
   93SAPC   C14 8945   3.670   3.281   8.257 -0.1636 -0.2665 -0.3730
   93SAPC  H14A 8946   3.661   3.237   8.355  1.9647  0.5227  0.2270
   93SAPC  H14B 8947   3.773   3.291   8.226 -1.2037 -0.8929 -4.7547
   93SAPC  H14C 8948   3.624   3.379   8.262 -2.0234 -1.1713  1.2994
   93SAPC   C15 8949   3.453   3.218   8.145 -0.3141  0.3643  0.3797
   93SAPC  H15A 8950   3.412   3.185   8.240 -0.9458 -0.6642 -0.2244
   93SAPC  H15B 8951   3.432   3.323   8.131 -0.9958 -0.0769 -2.3887
   93SAPC  H15C 8952   3.400   3.159   8.071 -0.6857  0.2262  0.7506
   93SAPC   C11 8953   3.780   3.175   7.953 -0.4086  0.2414  0.7162
   93SAPC  H11A 8954   3.782   3.214   7.848  2.6294  1.0858  0.9745
   93SAPC  H11B 8955   3.756   3.066   7.953 -4.2025  0.9333 -0.3313
   93SAPC     P 8956   3.962   3.340   8.031  0.1171 -0.2778  0.1193
   93SAPC   O13 8957   3.905   3.426   7.934  0.2728 -0.3098  0.5893
   93SAPC   O14 8958   3.956   3.385   8.172 -0.2730  0.2590  0.3081
   93SAPC   O12 8959   3.894   3.196   8.030 -0.4419 -0.9852 -0.2570
   93SAPC   O11 8960   4.110   3.304   8.009 -0.0273 -0.3209  0.7341
   93SAPC    C1 8961   4.159   3.221   7.896 -0.0454 -0.3189 -0.9626
   93SAPC    HA 8962   4.205   3.126   7.933 -0.0917  0.0114 -0.0386
   93SAPC    HB 8963   4.074   3.188   7.833 -0.1173 -1.0170 -0.5125
   93SAPC    C2 8964   4.257   3.309   7.815 -0.1667  0.2518  0.3286
   93SAPC    HS 8965   4.348   3.324   7.877  1.0648 -0.7918 -1.1421
   93SAPC   O21 8966   4.197   3.434   7.782  0.0935 -0.1177  0.0717
   93SAPC   C21 8967   4.219   3.536   7.855 -0.0639  0.0712 -0.4543
   93SAPC   O22 8968   4.284   3.543   7.958 -0.0594 -0.8048  0.0121
   93SAPC   C22 8969   4.143   3.655   7.794  0.4696  0.2895 -0.0320
   93SAPC   H2R 8970   4.111   3.630   7.690 -0.6965  3.5845 -0.5902
   93SAPC   H2S 8971   4.048   3.679   7.847  0.0588 -1.5774  0.1525
   93SAPC    C3 8972   4.299   3.227   7.685 -0.6388 -0.4320 -0.2656
   93SAPC    HX 8973   4.213   3.230   7.615  0.8715  0.3109 -2.1857
   93SAPC    HY 8974   4.316   3.119   7.701  2.0725 -0.3750 -2.0399
   93SAPC   O31 8975   4.419   3.279   7.624  0.1176 -0.3005 -0.0963
   93SAPC   C31 8976   4.533   3.237   7.680 -0.1794 -0.1452  0.2840
   93SAPC   O32 8977   4.537   3.163   7.778 -0.6423 -0.2448 -0.4628
   93SAPC   C32 8978   4.658   3.291   7.604 -0.7398  0.0629 -0.2751
   93SAPC   H2X 8979   4.746   3.225   7.619 -0.1512  0.5342 -1.4946
   93SAPC   H2Y 8980   4.682   3.388   7.652 -0.0507 -0.7704  1.1306
   93SAPC   C23 8981   4.238   3.780   7.787 -0.1862 -0.1421  0.2083
   93SAPC   H3R 8982   4.329   3.770   7.849  0.3138 -0.4642 -0.5488
   93SAPC   H3S 8983   4.181   3.870   7.817 -3.0238 -1.5194 -0.6495
   93SAPC   C24 8984   4.303   3.801   7.649  0.8963 -0.1906  0.2239
   93SAPC   H4R 8985   4.359   3.897   7.655  0.9209 -0.0364 -1.6648
   93SAPC   H4S 8986   4.231   3.832   7.570  1.6352  0.7033 -0.1269
   93SAPC   C25 8987   4.378   3.675   7.608  0.1667 -0.4836 -0.2878
   93SAPC   H5R 8988   4.455   3.640   7.678 -0.0007 -1.5412 -0.6204
   93SAPC   C26 8989   4.367   3.610   7.492 -0.3321 -0.4285  0.6790
   93SAPC   H6R 8990   4.440   3.528   7.492 -0.4395 -0.5245  1.0613
   93SAPC   C27 8991   4.288   3.644   7.365  0.3237  0.5248  0.7588
   93SAPC   H7R 8992   4.357   3.666   7.282  0.7328  0.0825  0.9766
   93SAPC   H7S 8993   4.226   3.735   7.379  0.5980  0.9340 -0.5848
   93SAPC   C28 8994   4.190   3.531   7.323 -0.2558 -0.1377 -0.1249
   93SAPC   H8R 8995   4.131   3.485   7.404 -1.9587  1.1370 -0.5755
   93SAPC   C29 8996   4.158   3.507   7.192 -0.3598  0.1095  0.0487
   93SAPC   H9R 8997   4.094   3.421   7.166  1.4249 -0.7342 -1.7838
   93SAPC  C210 8998   4.221   3.572   7.074 -0.0115 -0.5994  0.1703
   93SAPC  H10R 8999   4.252   3.677   7.095 -1.3197  0.0318 -0.9278
   93SAPC  H10S 9000   4.145   3.581   6.994  1.2621  1.6828 -0.8913
   93SAPC  C211 9001   4.343   3.508   7.005 -0.4719  0.1705 -0.6002
   93SAPC  H11R 9002   4.384   3.425   7.065 -1.8385  1.3704  2.1663
   93SAPC  C212 9003   4.402   3.538   6.885  0.7835 -0.0401 -0.6309
   93SAPC  H12R 9004   4.479   3.467   6.851  0.1794 -1.5841  1.0586
   93SAPC  C213 9005   4.351   3.654   6.801  0.1935  0.3279  0.1214
   93SAPC  H13R 9006   4.428   3.733   6.787 -1.7352  2.3819  0.4779
   93SAPC  H13S 9007   4.261   3.710   6.836  0.1651  0.9162 -0.8528
   93SAPC  C214 9008   4.312   3.587   6.669 -0.8704  0.6874  0.4629
   93SAPC  H14R 9009   4.211   3.544   6.657 -0.6349  0.0366  0.7893
   93SAPC  C215 9010   4.377   3.607   6.551 -1.0374 -0.1912 -0.7176
   93SAPC  H15R 9011   4.344   3.556   6.460  0.3284 -0.8782 -0.8605
   93SAPC  C216 9012   4.510   3.677   6.532  0.6016  0.7477  0.3200
   93SAPC  H16R 9013   4.599   3.611   6.534  0.3844  0.4761  1.6194
   93SAPC  H16S 9014   4.526   3.755   6.610 -0.8939  0.6554  0.7510
   93SAPC  C217 9015   4.503   3.766   6.407  0.0517  0.5191  0.5738
   93SAPC  H17R 9016   4.587   3.839   6.410  0.9836 -0.5454  1.6625
   93SAPC  H17S 9017   4.407   3.820   6.419  0.5086  1.6990 -0.7844
   93SAPC  C218 9018   4.495   3.698   6.266 -0.5109  0.9618 -0.3949
   93SAPC  H18R 9019   4.422   3.615   6.256 -0.3822  0.4233  2.3206
   93SAPC  H18S 9020   4.593   3.645   6.262 -0.9232  0.1994 -0.5787
   93SAPC  C219 9021   4.498   3.795   6.147  1.3297  0.1839 -0.5019
   93SAPC  H19R 9022   4.405   3.854   6.133  2.2305  1.9767  0.7443
   93SAPC  H19S 9023   4.495   3.734   6.054  0.0049 -2.0950  0.9193
   93SAPC  C220 9024   4.617   3.885   6.143  0.5621  0.0668 -0.7098
   93SAPC  H20R 9025   4.707   3.822   6.156 -0.6048 -1.4470  0.3525
   93SAPC  H20S 9026   4.606   3.957   6.227 -3.7454  3.8250 -3.9165
   93SAPC  H20T 9027   4.618   3.946   6.050 -1.0205 -0.0062 -0.8164
   93SAPC   C33 9028   4.637   3.311   7.446  0.4698 -0.1824 -0.2597
   93SAPC   H3X 9029   4.528   3.325   7.431  0.3253 -1.2013 -0.1803
   93SAPC   H3Y 9030   4.673   3.218   7.397  0.3414  0.2858 -1.2695
   93SAPC   C34 9031   4.713   3.436   7.404 -0.4297 -0.7228  0.3693
   93SAPC   H4X 9032   4.818   3.400   7.408 -0.6446 -1.2558  2.6061
   93SAPC   H4Y 9033   4.691   3.515   7.478  0.4959 -1.5218  1.5332
   93SAPC   C35 9034   4.673   3.491   7.262 -0.2890 -0.0580  0.2689
   93SAPC   H5X 9035   4.573   3.538   7.264  0.5810  1.9410 -0.6315
   93SAPC   H5Y 9036   4.677   3.416   7.180  1.0377  0.0348  0.2191
   93SAPC   C36 9037   4.768   3.604   7.218  0.8378  0.3117  0.1065
   93SAPC   H6X 9038   4.863   3.565   7.175  1.0170  1.2679 -0.3934
   93SAPC   H6Y 9039   4.796   3.665   7.307 -1.6406  2.6908 -0.6020
   93SAPC   C37 9040   4.701   3.685   7.104  0.2052 -0.0410  0.4549
   93SAPC   H7X 9041   4.622   3.759   7.129  0.7584  0.6478  0.1933
   93SAPC   H7Y 9042   4.671   3.618   7.020  0.1485 -1.2816  1.4342
   93SAPC   C38 9043   4.797   3.795   7.043  1.2799  0.1581  0.0477
   93SAPC   H8X 9044   4.886   3.744   7.002 -0.8655 -1.0266 -3.5187
   93SAPC   H8Y 9045   4.825   3.870   7.121 -1.7712 -0.7926  2.2737
   93SAPC   C39 9046   4.744   3.875   6.920  0.0545  0.3252  0.4805
   93SAPC   H9X 9047   4.660   3.943   6.947 -1.2140 -0.1141 -2.0275
   93SAPC   H9Y 9048   4.706   3.806   6.842  2.5598  1.0489 -1.5104
   93SAPC  C310 9049   4.852   3.957   6.857  0.4557  0.2768 -0.0487
   93SAPC  H10X 9050   4.931   3.889   6.818 -0.5901 -0.6038 -0.7100
   93SAPC  H10Y 9051   4.883   4.028   6.937 -1.0207  1.5204 -0.5280
   93SAPC  C311 9052   4.815   4.048   6.749 -0.5123  0.3698  1.1788
   93SAPC  H11X 9053   4.899   4.120   6.736  1.0810 -1.3521  1.5877
   93SAPC  H11Y 9054   4.735   4.122   6.773 -1.4323  0.0010 -0.6156
   93SAPC  C312 9055   4.766   3.983   6.613 -0.2718 -0.3786  0.4606
   93SAPC  H12X 9056   4.673   3.926   6.633  1.3335 -2.6650  1.8573
   93SAPC  H12Y 9057   4.849   3.922   6.572  0.1961  1.2247 -1.1052
   93SAPC  C313 9058   4.731   4.084   6.495  0.5563 -0.2478  0.1782
   93SAPC  H13X 9059   4.725   4.178   6.553 -0.6336  0.2197 -0.6925
   93SAPC  H13Y 9060   4.627   4.072   6.459  0.6207  1.0021 -0.4608
   93SAPC  C314 9061   4.826   4.080   6.375 -0.3355  0.3494 -0.2498
   93SAPC  H14X 9062   4.812   3.996   6.304  0.6071  0.2846 -0.3705
   93SAPC  H14Y 9063   4.925   4.061   6.422 -0.7884  2.0596  1.5167
   93SAPC  C315 9064   4.827   4.215   6.300  0.6992 -0.4815  0.2085
   93SAPC  H15X 9065   4.923   4.220   6.243 -0.0759  1.5377 -1.0626
   93SAPC  H15Y 9066   4.835   4.302   6.369 -0.5231  2.0269 -2.5738
   93SAPC  C316 9067   4.711   4.227   6.195  0.5328  0.1746 -0.0313
   93SAPC  H16X 9068   4.611   4.198   6.233 -0.8213  2.5659 -1.5034
   93SAPC  H16Y 9069   4.738   4.151   6.118 -1.5265  1.2115 -1.9072
   93SAPC  C317 9070   4.701   4.363   6.131  0.4653 -0.5968 -0.4091
   93SAPC  H17X 9071   4.800   4.385   6.086 -0.2747  1.2834 -1.2320
   93SAPC  H17Y 9072   4.664   4.439   6.203 -1.8847 -1.5730 -0.5079
   93SAPC  C318 9073   4.600   4.350   6.012  0.2935 -0.2321 -0.9465
   93SAPC  H18X 9074   4.504   4.309   6.052  1.8626 -1.7670  1.5061
   93SAPC  H18Y 9075   4.643   4.290   5.930  0.9426 -0.6268 -0.3324
   93SAPC  H18Z 9076   4.577   4.448   5.964  0.1125 -0.1309 -0.6572
   94SAPC     N 9077   5.315   6.023   8.223 -0.1016  0.1118  0.4540
   94SAPC   C12 9078   5.186   5.947   8.223 -0.4125  0.1842 -0.3734
   94SAPC  H12A 9079   5.104   6.012   8.197 -1.1364 -0.3820  0.4521
   94SAPC  H12B 9080   5.161   5.913   8.322 -1.8104 -0.9011 -1.0619
   94SAPC   C13 9081   5.358   6.064   8.087 -0.1725  0.2019  0.3273
   94SAPC  H13A 9082   5.448   6.123   8.077  1.4335 -2.2632 -0.6533
   94SAPC  H13B 9083   5.370   5.971   8.034 -0.5533  0.2966  0.0731
   94SAPC  H13C 9084   5.270   6.113   8.048  0.7136  0.4032 -1.5165
   94SAPC   C14 9085   5.290   6.135   8.313 -0.1518  0.0562 -0.4375
   94SAPC  H14A 9086   5.247   6.103   8.407  1.0578 -0.5945 -0.0785
   94SAPC  H14B 9087   5.382   6.188   8.332  0.1679 -1.2852  2.2199
   94SAPC  H14C 9088   5.229   6.207   8.261 -0.7755 -0.7386 -0.8252
   94SAPC   C15 9089   5.431   5.948   8.274  0.3877  0.1543  0.3623
   94SAPC  H15A 9090   5.411   5.897   8.368  0.3897 -1.8011 -0.6390
   94SAPC  H15B 9091   5.444   5.859   8.215 -1.6404 -0.7478  1.1753
   94SAPC  H15C 9092   5.514   6.015   8.292  1.5009 -0.4658 -2.0952
   94SAPC   C11 9093   5.181   5.825   8.130  1.0467 -0.3651 -0.2169
   94SAPC  H11A 9094   5.172   5.865   8.026 -1.0876 -1.4239 -0.4950
   94SAPC  H11B 9095   5.089   5.768   8.155  0.8341 -0.3980 -1.0397
   94SAPC     P 9096   5.328   5.629   8.041  0.3892  0.0813 -0.0044
   94SAPC   O13 9097   5.471   5.608   8.064  0.3188 -0.1558 -0.3880
   94SAPC   O14 9098   5.244   5.510   8.053  0.4967  0.3637 -0.5313
   94SAPC   O12 9099   5.287   5.734   8.141  0.1680 -0.4324  0.6679
   94SAPC   O11 9100   5.314   5.701   7.906  0.8681  0.5436 -0.3207
   94SAPC    C1 9101   5.222   5.642   7.811  0.0755  0.5157  0.3133
   94SAPC    HA 9102   5.245   5.534   7.806 -1.0158  0.2871  0.0137
   94SAPC    HB 9103   5.118   5.638   7.850  0.5797  0.7327  1.7300
   94SAPC    C2 9104   5.229   5.708   7.676 -0.0844  0.0458 -0.1805
   94SAPC    HS 9105   5.143   5.676   7.612  1.4255 -1.4404 -1.5929
   94SAPC   O21 9106   5.352   5.671   7.611  0.1449 -0.1642  0.6987
   94SAPC   C21 9107   5.343   5.553   7.546  0.8269 -0.5199  0.3042
   94SAPC   O22 9108   5.254   5.471   7.548 -0.3612  0.3579  0.1919
   94SAPC   C22 9109   5.469   5.534   7.454  0.3487 -0.3382  0.0281
   94SAPC   H2R 9110   5.520   5.633   7.453  0.3912 -0.3365 -2.0551
   94SAPC   H2S 9111   5.535   5.466   7.511 -0.1683 -0.1668  0.8460
   94SAPC    C3 9112   5.217   5.864   7.690  0.0379 -0.2677  1.1736
   94SAPC    HX 9113   5.314   5.903   7.728  0.8707 -0.3715 -0.7757
   94SAPC    HY 9114   5.145   5.875   7.774 -1.1027 -2.2499  0.5257
   94SAPC   O31 9115   5.172   5.931   7.576  0.1196  0.1473  0.4296
   94SAPC   C31 9116   5.262   5.981   7.488  0.1880 -0.4331  0.2804
   94SAPC   O32 9117   5.383   5.958   7.496  0.5047 -0.6652 -0.4154
   94SAPC   C32 9118   5.193   6.068   7.378 -0.2811 -0.1934  0.0378
   94SAPC   H2X 9119   5.163   6.163   7.428  3.6722  0.1659  2.1214
   94SAPC   H2Y 9120   5.110   6.003   7.343  0.2452 -0.7160 -0.2488
   94SAPC   C23 9121   5.440   5.477   7.313  0.6127  0.0602  0.5608
   94SAPC   H3R 9122   5.376   5.386   7.314  1.7999 -0.9690 -2.5622
   94SAPC   H3S 9123   5.533   5.449   7.259 -0.8409 -4.2608 -0.1460
   94SAPC   C24 9124   5.366   5.567   7.218 -0.5929  0.9479 -0.3462
   94SAPC   H4R 9125   5.278   5.610   7.271  0.3316  1.0334  1.1673
   94SAPC   H4S 9126   5.345   5.509   7.126  0.5359  1.4131 -0.9166
   94SAPC   C25 9127   5.452   5.694   7.181  1.2020 -0.6334 -0.7950
   94SAPC   H5R 9128   5.515   5.737   7.259  0.2802  1.0741 -0.9502
   94SAPC   C26 9129   5.463   5.753   7.059  0.4539  0.6665 -0.7135
   94SAPC   H6R 9130   5.527   5.842   7.047  1.4315 -0.2228 -2.4540
   94SAPC   C27 9131   5.391   5.702   6.937  0.0882 -0.3123 -0.2079
   94SAPC   H7R 9132   5.300   5.646   6.966 -0.8868  1.9532  1.3646
   94SAPC   H7S 9133   5.450   5.620   6.892  0.2553 -0.4712  0.2887
   94SAPC   C28 9134   5.345   5.818   6.851 -0.1395  0.1267  0.6337
   94SAPC   H8R 9135   5.284   5.888   6.910 -1.2637 -1.0877  0.9606
   94SAPC   C29 9136   5.368   5.836   6.718 -0.3796 -0.4722 -0.1447
   94SAPC   H9R 9137   5.325   5.921   6.663  0.1724 -0.4550 -0.5564
   94SAPC  C210 9138   5.462   5.748   6.630  0.7017  0.6289  0.0670
   94SAPC  H10R 9139   5.528   5.685   6.693 -0.3513  0.1136  0.6899
   94SAPC  H10S 9140   5.525   5.822   6.577  0.4083  0.1982 -0.8959
   94SAPC  C211 9141   5.378   5.664   6.535 -0.1886 -0.3733  0.2594
   94SAPC  H11R 9142   5.371   5.562   6.576  1.3734 -1.5117 -2.1184
   94SAPC  C212 9143   5.321   5.696   6.421  0.0953 -0.3947 -0.1556
   94SAPC  H12R 9144   5.235   5.636   6.386 -0.1749 -0.1487  0.0748
   94SAPC  C213 9145   5.318   5.834   6.350 -0.3954 -0.3774 -1.0758
   94SAPC  H13R 9146   5.362   5.911   6.418 -0.7890 -1.9642  1.0767
   94SAPC  H13S 9147   5.210   5.857   6.355 -0.4047 -0.6117  0.7855
   94SAPC  C214 9148   5.370   5.844   6.212 -0.3110 -0.2134 -0.3711
   94SAPC  H14R 9149   5.478   5.857   6.194 -0.5495  3.2481  0.1015
   94SAPC  C215 9150   5.309   5.807   6.093 -0.0202  0.7128 -0.1210
   94SAPC  H15R 9151   5.369   5.808   6.001  0.0636  2.5755 -0.0730
   94SAPC  C216 9152   5.168   5.756   6.080 -0.0452  0.0326  0.5452
   94SAPC  H16R 9153   5.127   5.763   6.183  0.3544  4.2780  0.5760
   94SAPC  H16S 9154   5.164   5.652   6.041  0.3727  0.3922 -0.5093
   94SAPC  C217 9155   5.086   5.856   5.995 -0.1345  0.4809 -0.2273
   94SAPC  H17R 9156   5.117   5.960   6.019  1.0704  0.7794 -2.7444
   94SAPC  H17S 9157   4.979   5.835   6.014 -0.3421 -1.1563 -2.7566
   94SAPC  C218 9158   5.114   5.847   5.846 -0.1713  0.0320 -0.2392
   94SAPC  H18R 9159   5.090   5.743   5.815  2.3981 -0.6464 -0.2105
   94SAPC  H18S 9160   5.218   5.872   5.815 -0.2352 -1.7993 -2.1390
   94SAPC  C219 9161   5.031   5.943   5.760  0.5180  0.0237 -0.0038
   94SAPC  H19R 9162   5.047   6.044   5.802 -1.5544  0.9855 -1.3888
   94SAPC  H19S 9163   4.922   5.927   5.773  0.4471  0.0311 -0.5473
   94SAPC  C220 9164   5.063   5.931   5.613 -0.3038 -0.3642 -0.3275
   94SAPC  H20R 9165   5.021   5.841   5.562  0.1318 -2.0190  2.0555
   94SAPC  H20S 9166   5.173   5.931   5.599 -0.4345 -0.8589 -1.4697
   94SAPC  H20T 9167   5.031   6.025   5.564  0.1799 -0.4781 -0.8596
   94SAPC   C33 9168   5.289   6.105   7.261  0.6582  0.3312 -0.2552
   94SAPC   H3X 9169   5.304   6.009   7.208 -1.3127  0.7632 -1.7354
   94SAPC   H3Y 9170   5.387   6.137   7.301  0.7278 -0.6762  0.4186
   94SAPC   C34 9171   5.237   6.208   7.154 -0.9951 -0.0580 -0.1665
   94SAPC   H4X 9172   5.193   6.295   7.208  0.9595  1.4709 -0.9198
   94SAPC   H4Y 9173   5.154   6.176   7.087 -0.9713 -0.7959  0.1454
   94SAPC   C35 9174   5.354   6.259   7.063  1.2003 -0.4803  0.0182
   94SAPC   H5X 9175   5.454   6.220   7.094  1.6916  1.3569  0.8290
   94SAPC   H5Y 9176   5.354   6.369   7.069 -0.2458 -0.5392  2.2281
   94SAPC   C36 9177   5.332   6.207   6.919  0.2386  0.1806 -0.6992
   94SAPC   H6X 9178   5.239   6.256   6.882 -0.6869 -1.8078 -1.1763
   94SAPC   H6Y 9179   5.315   6.097   6.919 -0.9647  0.3506 -0.2258
   94SAPC   C37 9180   5.450   6.251   6.822  0.1750 -0.2817 -0.7251
   94SAPC   H7X 9181   5.548   6.209   6.851  1.3345 -0.2982 -4.2593
   94SAPC   H7Y 9182   5.457   6.361   6.835 -0.6107 -0.2420 -0.5265
   94SAPC   C38 9183   5.424   6.207   6.680  0.5861  0.5181  0.2779
   94SAPC   H8X 9184   5.416   6.097   6.678  0.9922  0.4994 -0.7098
   94SAPC   H8Y 9185   5.521   6.226   6.628  0.6047 -0.7989 -0.1897
   94SAPC   C39 9186   5.312   6.286   6.608 -0.0886  0.6488 -0.8592
   94SAPC   H9X 9187   5.326   6.396   6.606  0.0724  0.7006  1.1985
   94SAPC   H9Y 9188   5.219   6.262   6.665 -0.1487  0.0917 -1.1754
   94SAPC  C310 9189   5.274   6.219   6.479  0.9261 -0.6384  0.0726
   94SAPC  H10X 9190   5.243   6.112   6.483 -0.7637 -0.1683  0.8179
   94SAPC  H10Y 9191   5.362   6.215   6.413  1.1372  1.9061  0.0937
   94SAPC  C311 9192   5.158   6.282   6.398 -0.3018  0.0513  0.4438
   94SAPC  H11X 9193   5.193   6.384   6.371  0.0502 -0.3336 -0.5721
   94SAPC  H11Y 9194   5.065   6.283   6.460 -0.5580 -0.4285  0.0675
   94SAPC  C312 9195   5.120   6.212   6.266 -0.2254  0.0183 -0.3166
   94SAPC  H12X 9196   5.059   6.122   6.289 -1.3069  0.6015 -0.8309
   94SAPC  H12Y 9197   5.203   6.186   6.197 -0.4797  0.6056 -0.8486
   94SAPC  C313 9198   5.033   6.315   6.188  0.1907 -0.3614 -0.0221
   94SAPC  H13X 9199   5.090   6.408   6.168  0.1127 -0.5030 -0.9704
   94SAPC  H13Y 9200   4.943   6.348   6.244 -0.7596 -0.7949 -1.2147
   94SAPC  C314 9201   4.974   6.251   6.063  0.5992 -0.7053 -0.2357
   94SAPC  H14X 9202   4.896   6.177   6.093  0.8071 -1.1685 -0.8100
   94SAPC  H14Y 9203   5.054   6.204   6.003  0.4977  0.7909 -1.5972
   94SAPC  C315 9204   4.911   6.352   5.967  0.3025 -0.1689  0.6418
   94SAPC  H15X 9205   4.987   6.427   5.937 -0.4440 -0.3525 -2.0539
   94SAPC  H15Y 9206   4.834   6.410   6.023 -0.7514  0.7347 -1.6055
   94SAPC  C316 9207   4.846   6.304   5.836  0.4490  0.1985  0.0356
   94SAPC  H16X 9208   4.774   6.225   5.866  1.4050 -0.4754  0.6457
   94SAPC  H16Y 9209   4.927   6.260   5.774  1.5123  1.3086  0.5897
   94SAPC  C317 9210   4.764   6.414   5.760 -0.0681  0.0981  0.2359
   94SAPC  H17X 9211   4.759   6.371   5.658  2.1613  0.6564 -0.1555
   94SAPC  H17Y 9212   4.822   6.509   5.755 -0.8098  0.6329  1.3609
   94SAPC  C318 9213   4.624   6.436   5.817 -0.1503  0.2058  0.0182
   94SAPC  H18X 9214   4.568   6.492   5.739  0.3825  2.7914  1.3601
   94SAPC  H18Y 9215   4.640   6.508   5.900  1.2348 -2.2314  2.0116
   94SAPC  H18Z 9216   4.561   6.350   5.846  0.9662 -0.3651  0.8380
   95SAPC     N 9217   5.972   0.102   3.547  0.1329 -0.2319  0.3956
   95SAPC   C12 9218   5.962   0.052   3.692 -0.0583 -0.4961 -0.1475
   95SAPC  H12A 9219   6.049   0.085   3.747 -0.1798 -0.9508  0.3331
   95SAPC  H12B 9220   5.977  -0.055   3.683 -0.9972 -0.5258 -1.7343
   95SAPC   C13 9221   5.871   0.037   3.461 -0.1915 -0.4021  0.0429
   95SAPC  H13A 9222   5.899  -0.067   3.453  2.2385  0.1720  0.4637
   95SAPC  H13B 9223   5.773   0.055   3.504 -0.1946  1.7066 -0.7554
   95SAPC  H13C 9224   5.886   0.078   3.363 -0.1725  0.9613  0.6020
   95SAPC   C14 9225   5.955   0.247   3.541 -0.0461 -0.5049 -0.4303
   95SAPC  H14A 9226   6.039   0.299   3.585  1.2527 -1.4083 -1.7370
   95SAPC  H14B 9227   5.934   0.282   3.441 -1.0202 -2.0168 -0.7880
   95SAPC  H14C 9228   5.870   0.271   3.603  0.4314  0.2786 -0.0667
   95SAPC   C15 9229   6.104   0.064   3.487  0.0218 -0.1636 -0.0457
   95SAPC  H15A 9230   6.123   0.108   3.390  0.2071  1.5493  0.7355
   95SAPC  H15B 9231   6.186   0.092   3.550  0.2860 -0.2866 -0.3287
   95SAPC  H15C 9232   6.100  -0.043   3.471  1.3572 -0.2266 -0.0813
   95SAPC   C11 9233   5.828   0.078   3.763  0.2757 -0.1924  0.1600
   95SAPC  H11A 9234   5.811   0.187   3.759  2.2244  0.1400 -0.3741
   95SAPC  H11B 9235   5.848   0.038   3.865  4.1584 -0.8861 -0.6925
   95SAPC     P 9236   5.675  -0.144   3.745  0.0801  0.0466  0.1271
   95SAPC   O13 9237   5.536  -0.167   3.700  0.1246 -0.5888 -1.2601
   95SAPC   O14 9238   5.777  -0.235   3.696  0.1024 -0.1015 -0.1017
   95SAPC   O12 9239   5.720   0.006   3.700  0.3623  0.1140  0.0093
   95SAPC   O11 9240   5.684  -0.144   3.899  0.1061 -0.2647 -0.2171
   95SAPC    C1 9241   5.621  -0.045   3.983 -0.2344 -0.4727 -0.5401
   95SAPC    HA 9242   5.665   0.056   3.970 -2.1018  0.2562 -1.5002
   95SAPC    HB 9243   5.515  -0.029   3.956 -0.6517 -0.0409  1.1766
   95SAPC    C2 9244   5.616  -0.083   4.130 -0.5148 -0.1050 -0.0260
   95SAPC    HS 9245   5.535  -0.026   4.182  0.1100  0.3742  0.4477
   95SAPC   O21 9246   5.741  -0.064   4.191  0.0961  0.3759 -0.5534
   95SAPC   C21 9247   5.784   0.056   4.221  0.5185  0.0988  0.4992
   95SAPC   O22 9248   5.729   0.161   4.193 -0.0177  0.2311 -0.2461
   95SAPC   C22 9249   5.918   0.042   4.295  0.1554  0.1762 -0.3242
   95SAPC   H2R 9250   5.972  -0.048   4.259 -0.5664 -0.1486 -0.6131
   95SAPC   H2S 9251   5.985   0.124   4.260 -0.2877  1.0046  0.7222
   95SAPC    C3 9252   5.575  -0.225   4.158  0.2762  0.8829  0.5217
   95SAPC    HX 9253   5.645  -0.294   4.106  1.8534  0.0051  3.6023
   95SAPC    HY 9254   5.474  -0.249   4.118 -0.3950 -1.4324  3.2878
   95SAPC   O31 9255   5.583  -0.256   4.300  0.3604  0.5987  0.8174
   95SAPC   C31 9256   5.579  -0.389   4.331  0.1868 -0.3367 -0.1511
   95SAPC   O32 9257   5.584  -0.477   4.253 -0.0552 -0.2749 -0.2930
   95SAPC   C32 9258   5.580  -0.408   4.480  0.0646 -0.2040 -0.4377
   95SAPC   H2X 9259   5.510  -0.330   4.519  0.1599 -0.0323 -0.6105
   95SAPC   H2Y 9260   5.682  -0.391   4.521 -0.9107 -0.5112  2.3767
   95SAPC   C23 9261   5.900   0.053   4.452 -0.2745  0.5030  0.1768
   95SAPC   H3R 9262   5.844   0.148   4.463 -2.4490 -0.5494 -1.2517
   95SAPC   H3S 9263   6.000   0.060   4.501  0.5492 -0.4576 -1.2657
   95SAPC   C24 9264   5.810  -0.056   4.517 -0.0086  0.1023 -0.3757
   95SAPC   H4R 9265   5.707  -0.053   4.476 -0.5983  0.1178  1.0608
   95SAPC   H4S 9266   5.791  -0.022   4.621 -1.8657  2.3563 -1.3641
   95SAPC   C25 9267   5.883  -0.183   4.499  0.2242 -0.3981 -0.3107
   95SAPC   H5R 9268   5.859  -0.240   4.408  0.6420  0.3438 -0.8960
   95SAPC   C26 9269   5.970  -0.242   4.589  0.7190 -0.0062 -0.3158
   95SAPC   H6R 9270   6.020  -0.332   4.549  0.9710  0.1822 -0.4282
   95SAPC   C27 9271   6.006  -0.193   4.727  0.1313  0.3105 -0.0282
   95SAPC   H7R 9272   6.006  -0.082   4.716  0.0934  0.1422 -2.1808
   95SAPC   H7S 9273   6.109  -0.225   4.752  0.2665  0.9674  0.2696
   95SAPC   C28 9274   5.924  -0.226   4.843 -0.3335 -0.1616  0.7856
   95SAPC   H8R 9275   5.837  -0.285   4.811 -0.8779  1.4420 -0.9149
   95SAPC   C29 9276   5.940  -0.197   4.970  0.5267 -0.1650  0.3290
   95SAPC   H9R 9277   5.866  -0.235   5.042  0.7518  0.1474  0.7301
   95SAPC  C210 9278   6.062  -0.130   5.030  0.1011 -0.8087 -0.2425
   95SAPC  H10R 9279   6.135  -0.127   4.947  0.7918  0.1060  0.3915
   95SAPC  H10S 9280   6.116  -0.196   5.101  0.4014  1.6257  1.9008
   95SAPC  C211 9281   6.026  -0.000   5.102 -0.8177  0.9090 -0.0228
   95SAPC  H11R 9282   5.999   0.081   5.032  2.8548  1.3983 -1.0795
   95SAPC  C212 9283   6.039   0.022   5.231  0.1449  0.0389 -0.2128
   95SAPC  H12R 9284   6.024   0.122   5.275  0.5393 -0.5477  1.3044
   95SAPC  C213 9285   6.079  -0.077   5.333  0.0610 -0.2452 -0.2628
   95SAPC  H13R 9286   6.165  -0.033   5.388  0.0428 -0.1161 -0.3365
   95SAPC  H13S 9287   6.127  -0.170   5.297  2.0108 -0.4916  2.6349
   95SAPC  C214 9288   5.978  -0.115   5.436 -0.5103  0.1873  0.3425
   95SAPC  H14R 9289   5.889  -0.164   5.394 -0.4318  0.8531 -0.6283
   95SAPC  C215 9290   5.965  -0.056   5.554  0.4351  0.3984  0.5991
   95SAPC  H15R 9291   5.886  -0.091   5.622 -0.5305 -1.2274 -1.2605
   95SAPC  C216 9292   6.057   0.051   5.611  0.1530 -0.3209  0.0082
   95SAPC  H16R 9293   6.002   0.106   5.690 -1.3219 -2.1292  0.3022
   95SAPC  H16S 9294   6.088   0.132   5.540  0.1151  0.9822  1.4256
   95SAPC  C217 9295   6.193   0.020   5.687  0.0320  0.3425 -0.6396
   95SAPC  H17R 9296   6.256   0.105   5.719  1.0500 -0.5268 -0.2927
   95SAPC  H17S 9297   6.262  -0.055   5.643 -1.5501 -2.1101  0.7971
   95SAPC  C218 9298   6.154  -0.057   5.819  0.2745  0.1714  0.5014
   95SAPC  H18R 9299   6.079  -0.136   5.797  0.9207  0.2242 -2.2926
   95SAPC  H18S 9300   6.116   0.014   5.895  0.9146 -0.8058  1.7648
   95SAPC  C219 9301   6.282  -0.112   5.889 -0.1932  0.3335 -0.7133
   95SAPC  H19R 9302   6.344  -0.031   5.931 -1.0239  0.0946  1.0405
   95SAPC  H19S 9303   6.338  -0.187   5.828  1.0938 -0.0503  0.8954
   95SAPC  C220 9304   6.253  -0.208   6.014 -0.4630  1.0977 -0.0382
   95SAPC  H20R 9305   6.349  -0.249   6.052 -0.7212 -0.2803 -0.8073
   95SAPC  H20S 9306   6.172  -0.279   5.987 -0.6564  1.7621 -1.2713
   95SAPC  H20T 9307   6.208  -0.149   6.097 -0.8543 -0.1202  0.6421
   95SAPC   C33 9308   5.531  -0.550   4.510 -0.6869 -0.0229  0.0050
   95SAPC   H3X 9309   5.600  -0.621   4.460 -2.4615 -1.4134 -0.5937
   95SAPC   H3Y 9310   5.430  -0.590   4.485 -1.0346 -1.3442  3.1154
   95SAPC   C34 9311   5.542  -0.574   4.659  0.5775  0.1476  0.1719
   95SAPC   H4X 9312   5.468  -0.509   4.711 -1.1452  0.3508 -2.2997
   95SAPC   H4Y 9313   5.645  -0.538   4.681  0.4108 -0.1657  1.5058
   95SAPC   C35 9314   5.531  -0.711   4.711  0.5625  0.2886 -0.1946
   95SAPC   H5X 9315   5.593  -0.774   4.643 -2.1193 -2.3368 -0.4021
   95SAPC   H5Y 9316   5.429  -0.754   4.702 -0.2305  1.9522  0.4454
   95SAPC   C36 9317   5.577  -0.707   4.856 -0.0254  0.5208 -0.3858
   95SAPC   H6X 9318   5.532  -0.624   4.916  0.5726  2.2345 -2.2314
   95SAPC   H6Y 9319   5.685  -0.682   4.855  0.3412 -0.9058  0.4129
   95SAPC   C37 9320   5.557  -0.835   4.937 -0.2655 -0.0688  0.3734
   95SAPC   H7X 9321   5.587  -0.926   4.881  0.4052  0.7272 -0.5987
   95SAPC   H7Y 9322   5.448  -0.847   4.951 -0.1871 -0.6822  0.4766
   95SAPC   C38 9323   5.618  -0.835   5.081  0.0871 -0.4127 -0.0161
   95SAPC   H8X 9324   5.566  -0.751   5.133 -1.6953 -1.7782  0.4914
   95SAPC   H8Y 9325   5.724  -0.805   5.066  0.0350  0.0377  0.4813
   95SAPC   C39 9326   5.619  -0.972   5.149 -0.1440 -0.1662  0.5010
   95SAPC   H9X 9327   5.622  -1.054   5.074 -0.4677 -1.5201  1.8998
   95SAPC   H9Y 9328   5.519  -0.975   5.196 -0.6328  0.4488 -0.4810
   95SAPC  C310 9329   5.731  -0.989   5.252  0.6087 -0.3083  0.2483
   95SAPC  H10X 9330   5.828  -0.967   5.201 -0.1058  2.4825 -0.0543
   95SAPC  H10Y 9331   5.726  -1.092   5.293 -0.4830  0.5489  2.3906
   95SAPC  C311 9332   5.722  -0.901   5.378  0.2252  0.0977  0.1451
   95SAPC  H11X 9333   5.621  -0.913   5.422 -0.0792  1.0054 -0.2904
   95SAPC  H11Y 9334   5.732  -0.793   5.358  0.1012 -0.0449 -0.7243
   95SAPC  C312 9335   5.835  -0.945   5.477 -0.0339 -1.0726 -0.5189
   95SAPC  H12X 9336   5.814  -1.053   5.493 -4.5837 -0.1815  1.4782
   95SAPC  H12Y 9337   5.812  -0.898   5.575 -1.5579 -1.1369 -0.8166
   95SAPC  C313 9338   5.978  -0.900   5.444 -0.5721  0.0332 -0.4883
   95SAPC  H13X 9339   5.970  -0.793   5.415 -3.1457 -0.2318 -1.0424
   95SAPC  H13Y 9340   6.011  -0.961   5.357  0.4964  0.7309 -0.5842
   95SAPC  C314 9341   6.078  -0.917   5.564 -0.6651 -0.3302 -0.2299
   95SAPC  H14X 9342   6.082  -1.023   5.596 -0.1113 -0.7557 -1.6357
   95SAPC  H14Y 9343   6.046  -0.854   5.650  1.2042  0.7677 -0.2925
   95SAPC  C315 9344   6.221  -0.867   5.532 -0.7611  0.2965  0.0519
   95SAPC  H15X 9345   6.239  -0.758   5.533  1.6896 -0.0224 -1.3748
   95SAPC  H15Y 9346   6.236  -0.889   5.424 -1.8210  4.2535 -1.0636
   95SAPC  C316 9347   6.334  -0.938   5.611 -0.6796 -0.2501 -0.3363
   95SAPC  H16X 9348   6.431  -0.902   5.569 -1.9073 -1.4840 -4.7700
   95SAPC  H16Y 9349   6.332  -1.047   5.588  0.6920 -0.9346  2.3249
   95SAPC  C317 9350   6.318  -0.915   5.760  0.4107  0.3221 -0.8485
   95SAPC  H17X 9351   6.227  -0.970   5.792 -0.0384  0.4553 -1.8407
   95SAPC  H17Y 9352   6.314  -0.805   5.774  0.9188  0.4351 -1.5516
   95SAPC  C318 9353   6.432  -0.958   5.845  0.0050  0.1651 -0.1894
   95SAPC  H18X 9354   6.411  -0.970   5.954 -1.6905  0.3835 -0.4648
   95SAPC  H18Y 9355   6.527  -0.901   5.839 -0.7515  1.9731  2.8350
   95SAPC  H18Z 9356   6.465  -1.057   5.807 -1.3597 -0.1495 -0.6012
   96SAPC     N 9357   4.781   2.496   2.990 -0.1094 -0.8032 -0.0034
   96SAPC   C12 9358   4.764   2.510   3.146  0.9038 -0.1407  0.6887
   96SAPC  H12A 9359   4.768   2.416   3.200 -1.6259 -1.3610 -1.0889
   96SAPC  H12B 9360   4.663   2.535   3.172  1.2157  2.8985 -0.5983
   96SAPC   C13 9361   4.682   2.400   2.942  0.1989 -0.2897  0.4168
   96SAPC  H13A 9362   4.675   2.405   2.834 -1.0336 -0.0427  0.4942
   96SAPC  H13B 9363   4.698   2.294   2.961 -2.1374 -0.7890 -0.0998
   96SAPC  H13C 9364   4.582   2.411   2.980  0.5459  1.3336  0.9305
   96SAPC   C14 9365   4.750   2.634   2.934  0.3975  0.8203  0.4325
   96SAPC  H14A 9366   4.642   2.642   2.933  0.4891  2.9342  2.0958
   96SAPC  H14B 9367   4.792   2.717   2.987 -0.3901  1.7934 -0.4225
   96SAPC  H14C 9368   4.770   2.637   2.828  0.4512 -0.3760  0.3970
   96SAPC   C15 9369   4.919   2.452   2.947  0.2699  0.1810 -0.1218
   96SAPC  H15A 9370   4.953   2.362   2.994 -1.2277 -1.2117 -1.5718
   96SAPC  H15B 9371   4.916   2.435   2.840 -1.0337 -0.1292 -0.0522
   96SAPC  H15C 9372   4.996   2.520   2.982  1.0609 -0.5442 -0.4211
   96SAPC   C11 9373   4.861   2.602   3.226 -0.0587  0.0961  0.3365
   96SAPC  H11A 9374   4.820   2.608   3.329 -1.0616 -1.2452  0.0400
   96SAPC  H11B 9375   4.860   2.706   3.186 -0.6330  0.5110  1.4201
   96SAPC     P 9376   5.046   2.441   3.320 -0.2237  0.0540  0.0767
   96SAPC   O13 9377   4.936   2.342   3.322  0.2658  0.0003  0.1348
   96SAPC   O14 9378   5.180   2.392   3.279  0.6240 -0.6462  0.7222
   96SAPC   O12 9379   4.998   2.556   3.228  0.8429  0.1513  0.2979
   96SAPC   O11 9380   5.060   2.499   3.469  0.4916  0.5566  0.3274
   96SAPC    C1 9381   5.063   2.637   3.486 -0.5948 -0.1896  0.7679
   96SAPC    HA 9382   5.076   2.697   3.394  2.8316  0.4403  1.5180
   96SAPC    HB 9383   4.962   2.673   3.514 -0.3008  1.0052  0.3544
   96SAPC    C2 9384   5.169   2.675   3.593  0.0382 -0.0610  0.4467
   96SAPC    HS 9385   5.264   2.656   3.539 -0.3053 -0.1266 -0.1397
   96SAPC   O21 9386   5.162   2.597   3.710  0.0175  0.2728 -0.7324
   96SAPC   C21 9387   5.273   2.569   3.768 -0.3305  0.0574 -0.2799
   96SAPC   O22 9388   5.388   2.562   3.717 -0.0404  0.2199  0.2752
   96SAPC   C22 9389   5.248   2.520   3.907 -0.4052 -0.2627 -0.0640
   96SAPC   H2R 9390   5.194   2.604   3.958 -2.7049 -2.0411  0.6161
   96SAPC   H2S 9391   5.196   2.423   3.918 -0.7671  0.1035  2.0104
   96SAPC    C3 9392   5.168   2.826   3.629 -0.9448 -0.3557  0.2848
   96SAPC    HX 9393   5.083   2.846   3.697 -2.2644 -1.2851 -1.0483
   96SAPC    HY 9394   5.162   2.877   3.530  0.9171  0.4646  0.5583
   96SAPC   O31 9395   5.299   2.859   3.675 -0.4751  0.3008  0.2606
   96SAPC   C31 9396   5.314   2.906   3.798 -0.3273  0.6268  0.7854
   96SAPC   O32 9397   5.229   2.906   3.882  0.3047 -0.2113 -0.9134
   96SAPC   C32 9398   5.458   2.961   3.819 -0.5366 -1.1142 -0.1092
   96SAPC   H2X 9399   5.474   3.036   3.740 -0.5758 -1.2562 -0.2526
   96SAPC   H2Y 9400   5.531   2.878   3.808  0.7289  0.1236 -1.4133
   96SAPC   C23 9401   5.385   2.519   3.979  0.0350  0.4869 -0.4658
   96SAPC   H3R 9402   5.444   2.612   3.968  0.9475 -0.1222 -0.8381
   96SAPC   H3S 9403   5.446   2.435   3.939 -1.4554 -2.3479  2.6280
   96SAPC   C24 9404   5.379   2.480   4.128  0.3307  0.3420 -0.1654
   96SAPC   H4R 9405   5.477   2.431   4.148  0.0450  0.2520  1.0797
   96SAPC   H4S 9406   5.301   2.401   4.132 -0.6098  1.2648  0.6133
   96SAPC   C25 9407   5.330   2.579   4.226  0.4323 -0.3237  0.3636
   96SAPC   H5R 9408   5.231   2.623   4.211  0.2612 -0.5907  0.6883
   96SAPC   C26 9409   5.404   2.627   4.328  0.5613  0.1515 -0.2131
   96SAPC   H6R 9410   5.357   2.706   4.389  1.6634  1.8770 -1.5158
   96SAPC   C27 9411   5.543   2.587   4.371 -0.4094  0.9614  0.4802
   96SAPC   H7R 9412   5.624   2.655   4.339 -0.8194  0.3839 -1.9954
   96SAPC   H7S 9413   5.576   2.489   4.331 -2.2341  0.1957  0.7370
   96SAPC   C28 9414   5.531   2.578   4.526  0.2002  0.1144 -0.0601
   96SAPC   H8R 9415   5.431   2.595   4.566 -1.1631 -0.5534 -2.9231
   96SAPC   C29 9416   5.645   2.572   4.607  0.6249  0.8256 -0.2341
   96SAPC   H9R 9417   5.625   2.566   4.715  2.0012 -1.2288 -0.0360
   96SAPC  C210 9418   5.787   2.563   4.553 -0.3376  0.4206 -0.3266
   96SAPC  H10R 9419   5.843   2.613   4.635 -0.5284 -0.4295  0.3348
   96SAPC  H10S 9420   5.794   2.629   4.463 -3.8325  4.2271  1.8322
   96SAPC  C211 9421   5.840   2.425   4.531 -0.3537 -0.0490  0.0897
   96SAPC  H11R 9422   5.808   2.339   4.592  2.5806 -2.1258 -1.0523
   96SAPC  C212 9423   5.910   2.389   4.425  0.0667  0.0497 -0.0567
   96SAPC  H12R 9424   5.938   2.283   4.426  0.3885  0.0832 -1.7927
   96SAPC  C213 9425   5.968   2.469   4.311 -0.1847  0.6427  0.0654
   96SAPC  H13R 9426   6.061   2.425   4.270 -0.2062  1.6232 -1.0769
   96SAPC  H13S 9427   6.011   2.560   4.361  2.2733 -0.3389 -0.1166
   96SAPC  C214 9428   5.893   2.523   4.193  0.2514 -0.1397  0.4193
   96SAPC  H14R 9429   5.924   2.623   4.160  1.7363 -0.3684  1.0448
   96SAPC  C215 9430   5.811   2.450   4.111 -0.2834  0.0517 -0.2217
   96SAPC  H15R 9431   5.743   2.506   4.044  0.7988 -1.2626 -2.5173
   96SAPC  C216 9432   5.776   2.305   4.121 -0.3768  0.3555  0.2820
   96SAPC  H16R 9433   5.684   2.291   4.182 -0.7022 -4.3257 -0.9409
   96SAPC  H16S 9434   5.853   2.244   4.172 -0.7971 -1.9301 -1.6564
   96SAPC  C217 9435   5.758   2.267   3.974  0.8045 -0.5779 -0.6955
   96SAPC  H17R 9436   5.855   2.277   3.919  1.5831 -0.3727  0.6702
   96SAPC  H17S 9437   5.683   2.334   3.927  1.1617 -0.7540 -1.5411
   96SAPC  C218 9438   5.707   2.127   3.944  0.1390 -0.0210  0.6696
   96SAPC  H18R 9439   5.708   2.115   3.834 -0.3926 -2.6805  0.8911
   96SAPC  H18S 9440   5.599   2.128   3.969 -0.1768 -0.5955 -0.5844
   96SAPC  C219 9441   5.777   2.009   4.007 -0.3847  0.0078  0.1901
   96SAPC  H19R 9442   5.768   2.026   4.116  0.8106  2.7573 -0.0641
   96SAPC  H19S 9443   5.881   2.021   3.971  0.1362 -1.6209  1.0733
   96SAPC  C220 9444   5.725   1.868   3.977  0.2664  0.0257  0.3223
   96SAPC  H20R 9445   5.617   1.877   4.002  0.5314  3.4161  0.7754
   96SAPC  H20S 9446   5.770   1.795   4.046  0.9542  0.4946  0.3832
   96SAPC  H20T 9447   5.721   1.835   3.871  0.4822 -0.4141  0.4508
   96SAPC   C33 9448   5.480   3.035   3.951 -0.1736 -0.0500 -0.2257
   96SAPC   H3X 9449   5.386   3.085   3.981 -0.4587 -0.8215  0.2090
   96SAPC   H3Y 9450   5.573   3.095   3.943  0.3082 -0.8623 -0.8799
   96SAPC   C34 9451   5.506   2.928   4.058 -0.0803 -0.2354  0.0246
   96SAPC   H4X 9452   5.611   2.898   4.040  0.4279 -0.0582  2.3939
   96SAPC   H4Y 9453   5.437   2.841   4.053 -0.9997  0.3794  1.2901
   96SAPC   C35 9454   5.512   2.976   4.198  0.1083 -0.3426  0.0935
   96SAPC   H5X 9455   5.570   3.071   4.205 -0.0637 -0.2619  0.4401
   96SAPC   H5Y 9456   5.557   2.893   4.256  0.9973  0.4976  0.6356
   96SAPC   C36 9457   5.372   2.993   4.259 -0.0743  0.4833 -0.1601
   96SAPC   H6X 9458   5.310   2.901   4.251  1.1343 -0.5926  1.7971
   96SAPC   H6Y 9459   5.310   3.070   4.208 -0.5071  0.0014 -0.3691
   96SAPC   C37 9460   5.386   3.040   4.412 -0.3300  0.6419  0.3066
   96SAPC   H7X 9461   5.458   3.124   4.420 -0.1671  0.5044  0.2875
   96SAPC   H7Y 9462   5.428   2.944   4.450 -0.0531  1.3892  1.9589
   96SAPC   C38 9463   5.262   3.058   4.502  0.5549  0.5754 -0.2242
   96SAPC   H8X 9464   5.210   2.962   4.522  1.4437  0.1155 -0.0595
   96SAPC   H8Y 9465   5.195   3.125   4.445 -0.5965 -0.1158  0.2725
   96SAPC   C39 9466   5.298   3.120   4.637 -0.3124 -0.8166  0.0869
   96SAPC   H9X 9467   5.399   3.166   4.636 -1.3260  1.6262  1.6669
   96SAPC   H9Y 9468   5.294   3.039   4.713  0.6822 -0.2639  0.7464
   96SAPC  C310 9469   5.200   3.231   4.664 -1.0180 -0.3382  0.1507
   96SAPC  H10X 9470   5.094   3.202   4.652 -1.9370  2.4721  0.7522
   96SAPC  H10Y 9471   5.206   3.300   4.577  0.7938 -1.7590 -0.9303
   96SAPC  C311 9472   5.205   3.279   4.811 -0.6550  0.2729  0.2339
   96SAPC  H11X 9473   5.144   3.371   4.805  0.7987  1.1942 -1.4728
   96SAPC  H11Y 9474   5.311   3.296   4.840 -1.0243  0.3013  1.6624
   96SAPC  C312 9475   5.138   3.182   4.912 -0.2942  0.1655  0.3248
   96SAPC  H12X 9476   5.205   3.093   4.912  2.0610  1.8448 -0.2542
   96SAPC  H12Y 9477   5.036   3.144   4.888 -1.0565  0.6897  2.5467
   96SAPC  C313 9478   5.139   3.230   5.060 -0.1688 -0.0499  0.6016
   96SAPC  H13X 9479   5.243   3.265   5.075  0.2011 -0.2822 -1.1760
   96SAPC  H13Y 9480   5.128   3.138   5.123 -1.0209  0.5010  1.2714
   96SAPC  C314 9481   5.026   3.340   5.079  0.3504  0.0445 -0.7334
   96SAPC  H14X 9482   4.934   3.308   5.025  0.1674  3.0882 -2.4323
   96SAPC  H14Y 9483   5.054   3.434   5.027 -0.0300 -0.1492 -1.2917
   96SAPC  C315 9484   5.010   3.379   5.225  0.1444  0.2424  0.2822
   96SAPC  H15X 9485   4.959   3.478   5.231 -1.2307 -0.3901 -0.4849
   96SAPC  H15Y 9486   5.117   3.389   5.253  0.4064 -2.0914  0.3239
   96SAPC  C316 9487   4.950   3.275   5.314 -1.0001  0.0584 -0.1392
   96SAPC  H16X 9488   4.978   3.175   5.274  0.1160  0.7581 -1.1614
   96SAPC  H16Y 9489   4.840   3.287   5.315 -1.1790 -1.4189  0.6173
   96SAPC  C317 9490   4.985   3.285   5.460  0.4951  0.8265 -0.0971
   96SAPC  H17X 9491   4.923   3.218   5.523 -0.3085  1.7462  0.1154
   96SAPC  H17Y 9492   4.963   3.391   5.488 -0.4879  0.5925  0.0272
   96SAPC  C318 9493   5.130   3.236   5.495 -1.0286  0.5491 -0.3862
   96SAPC  H18X 9494   5.208   3.282   5.430  0.3155 -1.6628 -0.4455
   96SAPC  H18Y 9495   5.137   3.126   5.493  0.9094  0.6338 -0.2957
   96SAPC  H18Z 9496   5.154   3.271   5.598 -1.0048  0.9408 -0.5206
   97SAPC     N 9497   2.881   4.996   2.847 -0.8439  0.2501 -0.0783
   97SAPC   C12 9498   2.897   4.852   2.808 -0.3642 -0.4695 -0.2037
   97SAPC  H12A 9499   2.955   4.853   2.717 -0.0833  0.9277 -0.0253
   97SAPC  H12B 9500   2.801   4.814   2.774 -0.9461  0.2481  0.5892
   97SAPC   C13 9501   2.794   5.063   2.741 -0.2739 -0.1122  0.2272
   97SAPC  H13A 9502   2.719   5.005   2.690 -0.3638  1.8147 -1.9792
   97SAPC  H13B 9503   2.745   5.146   2.789 -0.0195  0.7008 -0.9053
   97SAPC  H13C 9504   2.853   5.113   2.666 -2.2372  0.9158 -0.6944
   97SAPC   C14 9505   2.811   5.014   2.978 -0.0082  0.6565  0.1492
   97SAPC  H14A 9506   2.791   5.112   3.017 -1.0020  0.2768  0.6483
   97SAPC  H14B 9507   2.718   4.957   2.980  0.5657 -0.2789  0.7952
   97SAPC  H14C 9508   2.871   4.973   3.058 -2.9054 -1.1561  1.5698
   97SAPC   C15 9509   3.013   5.074   2.863 -0.2722 -0.1067  0.0082
   97SAPC  H15A 9510   3.068   5.073   2.770 -0.5227  1.0111 -0.1670
   97SAPC  H15B 9511   2.982   5.173   2.893 -1.4848 -0.5866  0.4058
   97SAPC  H15C 9512   3.073   5.021   2.935  1.3600 -0.7303 -1.7412
   97SAPC   C11 9513   2.957   4.761   2.911  0.4017  0.8315 -0.1024
   97SAPC  H11A 9514   2.987   4.675   2.847  0.4786  1.4738 -0.9552
   97SAPC  H11B 9515   2.877   4.719   2.977  0.2127  0.2401 -0.6881
   97SAPC     P 9516   3.104   4.762   3.119  0.0809  0.2311  0.0102
   97SAPC   O13 9517   3.236   4.800   3.158 -0.7454  0.2904  0.3592
   97SAPC   O14 9518   2.999   4.810   3.208  0.0589 -0.0524 -0.1275
   97SAPC   O12 9519   3.080   4.809   2.975  0.1870  0.0266  0.1101
   97SAPC   O11 9520   3.103   4.608   3.098  0.9090 -0.0232 -0.0469
   97SAPC    C1 9521   3.022   4.512   3.170 -0.6033 -0.1874 -0.0919
   97SAPC    HA 9522   2.929   4.558   3.210  0.2256  1.3720  0.0981
   97SAPC    HB 9523   2.979   4.437   3.100  2.4242 -2.4983  0.3099
   97SAPC    C2 9524   3.099   4.438   3.286 -0.2463 -0.0544  0.2886
   97SAPC    HS 9525   3.032   4.354   3.316 -0.5234 -0.2346 -0.7626
   97SAPC   O21 9526   3.121   4.538   3.383 -0.0032  0.2078  0.1554
   97SAPC   C21 9527   3.072   4.498   3.500 -0.4526  0.2785 -0.8008
   97SAPC   O22 9528   3.000   4.402   3.525  0.1403  0.2348 -0.3335
   97SAPC   C22 9529   3.121   4.591   3.609  0.4194  1.3644  0.0904
   97SAPC   H2R 9530   3.229   4.616   3.593  0.2668  1.3515 -1.0320
   97SAPC   H2S 9531   3.067   4.688   3.608 -0.3705  0.9264 -0.6876
   97SAPC    C3 9532   3.244   4.381   3.248  0.1811 -0.5663 -0.4799
   97SAPC    HX 9533   3.311   4.456   3.200  0.4029 -0.2437  0.3014
   97SAPC    HY 9534   3.213   4.309   3.170 -0.1635  0.1028 -0.9714
   97SAPC   O31 9535   3.311   4.309   3.357  0.5672  0.0465  0.3575
   97SAPC   C31 9536   3.391   4.378   3.436 -0.1568 -0.1069 -0.7035
   97SAPC   O32 9537   3.425   4.494   3.417  0.2783  0.0097 -0.1939
   97SAPC   C32 9538   3.452   4.285   3.542 -0.7912 -0.6839  0.0555
   97SAPC   H2X 9539   3.555   4.260   3.509 -1.2016 -0.2640 -1.6733
   97SAPC   H2Y 9540   3.399   4.187   3.543 -1.0012 -0.5881 -0.8179
   97SAPC   C23 9541   3.082   4.552   3.755  0.0787  0.6497  0.9663
   97SAPC   H3R 9542   3.107   4.444   3.764 -3.4521 -0.5065 -1.0712
   97SAPC   H3S 9543   2.976   4.559   3.786 -0.5349 -3.3210  0.3244
   97SAPC   C24 9544   3.149   4.632   3.867  0.1466 -0.1887 -0.0550
   97SAPC   H4R 9545   3.132   4.587   3.967 -0.7924  0.6743  0.1909
   97SAPC   H4S 9546   3.112   4.737   3.873  1.5246  0.4011 -1.2439
   97SAPC   C25 9547   3.300   4.657   3.859 -0.2844 -0.5252  0.1430
   97SAPC   H5R 9548   3.341   4.716   3.775  0.4251 -1.1761  0.0169
   97SAPC   C26 9549   3.394   4.593   3.931 -0.7418 -0.4192  0.5865
   97SAPC   H6R 9550   3.501   4.620   3.922 -0.6627 -0.0630  2.2037
   97SAPC   C27 9551   3.369   4.488   4.036 -0.0037 -0.3888 -0.1999
   97SAPC   H7R 9552   3.461   4.431   4.062 -0.3794 -0.4665  1.0047
   97SAPC   H7S 9553   3.293   4.414   4.002 -0.6445  0.0734  0.2081
   97SAPC   C28 9554   3.318   4.550   4.164  0.0960 -0.5896 -0.1218
   97SAPC   H8R 9555   3.371   4.645   4.181 -2.6971  1.1260 -0.4662
   97SAPC   C29 9556   3.220   4.511   4.245  0.7411  0.2943 -0.5412
   97SAPC   H9R 9557   3.200   4.569   4.336 -2.4308 -0.4471 -0.6592
   97SAPC  C210 9558   3.125   4.394   4.221 -0.2608  0.4234 -0.2368
   97SAPC  H10R 9559   3.103   4.349   4.321  1.6071 -0.0790 -0.0075
   97SAPC  H10S 9560   3.176   4.308   4.172  2.3714  1.9274 -0.3038
   97SAPC  C211 9561   2.997   4.428   4.159  0.4978 -0.0610  0.1492
   97SAPC  H11R 9562   2.987   4.403   4.052  2.8609  2.3171 -0.7347
   97SAPC  C212 9563   2.890   4.482   4.224 -0.6515 -0.3640  0.3355
   97SAPC  H12R 9564   2.809   4.510   4.154  0.9753 -0.4662 -1.6947
   97SAPC  C213 9565   2.884   4.531   4.367 -0.3852  0.3639 -0.5400
   97SAPC  H13R 9566   2.853   4.637   4.383  0.0307  0.2554  1.2165
   97SAPC  H13S 9567   2.983   4.538   4.417 -1.3812 -1.7449  1.9237
   97SAPC  C214 9568   2.791   4.436   4.446 -0.1676  0.6938  0.0333
   97SAPC  H14R 9569   2.712   4.391   4.384  1.6834 -1.9421 -0.5940
   97SAPC  C215 9570   2.790   4.417   4.581 -0.0119 -0.2570 -0.3023
   97SAPC  H15R 9571   2.715   4.350   4.625 -0.3583  0.2952 -0.0474
   97SAPC  C216 9572   2.895   4.471   4.680  0.2796 -0.0946  0.5684
   97SAPC  H16R 9573   2.839   4.537   4.750 -2.4295 -1.8313  0.2076
   97SAPC  H16S 9574   2.958   4.542   4.622 -1.6703  0.2688 -1.2875
   97SAPC  C217 9575   2.989   4.368   4.749 -0.1433  0.0325  0.0792
   97SAPC  H17R 9576   3.072   4.408   4.811 -1.1444 -1.3385  2.4498
   97SAPC  H17S 9577   3.031   4.297   4.675  1.0685  1.4966 -0.6737
   97SAPC  C218 9578   2.911   4.299   4.854  0.1637 -0.3297 -0.0666
   97SAPC  H18R 9579   2.846   4.217   4.814  0.5761  0.1624 -1.8014
   97SAPC  H18S 9580   2.845   4.368   4.911 -0.9046 -0.2080 -1.3955
   97SAPC  C219 9581   3.001   4.229   4.957 -0.4002  0.0455 -0.2044
   97SAPC  H19R 9582   3.077   4.296   5.001  0.7257 -0.1300 -1.7716
   97SAPC  H19S 9583   3.064   4.153   4.906  1.0224  0.6342  0.6131
   97SAPC  C220 9584   2.917   4.176   5.075 -0.3673  0.5629  0.5547
   97SAPC  H20R 9585   2.837   4.114   5.029 -1.4555  0.2883  2.6596
   97SAPC  H20S 9586   2.872   4.268   5.120  0.2685  0.6414  1.0352
   97SAPC  H20T 9587   2.976   4.115   5.146 -2.5254 -0.6500  1.3926
   97SAPC   C33 9588   3.468   4.367   3.669  0.2803 -0.5877 -0.1750
   97SAPC   H3X 9589   3.372   4.420   3.687 -0.4564 -1.9459  0.0702
   97SAPC   H3Y 9590   3.541   4.450   3.655 -1.0844  0.6064 -0.4051
   97SAPC   C34 9591   3.507   4.274   3.788 -0.7568  0.6379  0.1734
   97SAPC   H4X 9592   3.547   4.321   3.880  3.1601 -2.2690  0.2335
   97SAPC   H4Y 9593   3.591   4.211   3.752  0.2118  1.8627  0.2327
   97SAPC   C35 9594   3.383   4.182   3.827  0.1944  0.4535  0.2506
   97SAPC   H5X 9595   3.339   4.121   3.745 -0.2749 -0.2345  1.0122
   97SAPC   H5Y 9596   3.297   4.235   3.873 -0.1945  0.1137 -0.0756
   97SAPC   C36 9597   3.415   4.082   3.935  0.0982 -1.0766 -0.6024
   97SAPC   H6X 9598   3.511   4.029   3.918 -0.5653 -1.9171 -1.8901
   97SAPC   H6Y 9599   3.337   4.003   3.934  0.4241 -1.4116 -0.2084
   97SAPC   C37 9600   3.426   4.150   4.074 -0.4105  1.1799  0.0427
   97SAPC   H7X 9601   3.339   4.218   4.087  0.3834  2.0738  0.8734
   97SAPC   H7Y 9602   3.525   4.195   4.095  0.7974 -1.6056  0.8118
   97SAPC   C38 9603   3.427   4.041   4.186 -0.1808  0.5074  0.5517
   97SAPC   H8X 9604   3.506   3.963   4.175 -0.5524  0.3151 -0.9633
   97SAPC   H8Y 9605   3.330   3.987   4.180  0.0442  0.2558 -1.5917
   97SAPC   C39 9606   3.451   4.101   4.325  0.7669 -0.6765 -0.1080
   97SAPC   H9X 9607   3.390   4.194   4.331  2.0283  0.1300  0.8997
   97SAPC   H9Y 9608   3.558   4.131   4.329  0.9541 -1.3673  0.2961
   97SAPC  C310 9609   3.439   4.003   4.435 -0.3267 -0.4597  0.4020
   97SAPC  H10X 9610   3.506   3.918   4.412  0.8660  0.1850  1.3761
   97SAPC  H10Y 9611   3.331   3.976   4.431 -0.0439 -1.4473 -1.0700
   97SAPC  C311 9612   3.476   4.063   4.569 -0.6940 -0.2059  0.1032
   97SAPC  H11X 9613   3.446   4.170   4.572  0.8562  0.2764 -0.3342
   97SAPC  H11Y 9614   3.587   4.065   4.581 -0.5163 -1.1094 -1.1400
   97SAPC  C312 9615   3.432   3.979   4.691 -0.3591 -0.7268 -0.2889
   97SAPC  H12X 9616   3.484   3.881   4.679 -0.7090 -1.0016  0.4329
   97SAPC  H12Y 9617   3.323   3.958   4.694 -0.7715  1.3138  0.0135
   97SAPC  C313 9618   3.462   4.048   4.820 -0.1044 -0.0780 -0.8262
   97SAPC  H13X 9619   3.418   4.150   4.827 -0.5057 -0.2796 -0.2794
   97SAPC  H13Y 9620   3.573   4.051   4.827  0.1494 -1.1446 -3.2404
   97SAPC  C314 9621   3.407   3.973   4.939 -0.0488 -0.6429 -0.0106
   97SAPC  H14X 9622   3.454   3.872   4.945 -1.6957 -1.4026  0.6129
   97SAPC  H14Y 9623   3.299   3.952   4.921 -0.0370 -1.5551  0.8844
   97SAPC  C315 9624   3.436   4.049   5.074  0.1450  0.0390  0.0516
   97SAPC  H15X 9625   3.536   4.096   5.076 -0.6005  1.6820  1.9788
   97SAPC  H15Y 9626   3.445   3.967   5.148  2.1727  0.9961  0.9488
   97SAPC  C316 9627   3.327   4.142   5.127  0.3759  0.2465  0.9210
   97SAPC  H16X 9628   3.226   4.101   5.105  1.3535 -2.5523  1.1919
   97SAPC  H16Y 9629   3.347   4.224   5.056 -0.4566 -1.2166 -1.0975
   97SAPC  C317 9630   3.359   4.182   5.270 -0.0504 -0.2140 -0.3591
   97SAPC  H17X 9631   3.456   4.237   5.259  0.3717 -0.7410  0.5693
   97SAPC  H17Y 9632   3.369   4.096   5.339 -0.9617  0.6225  0.8689
   97SAPC  C318 9633   3.260   4.279   5.327  1.1436 -0.2647  0.2787
   97SAPC  H18X 9634   3.243   4.373   5.270 -0.7659 -0.6335  0.1634
   97SAPC  H18Y 9635   3.313   4.309   5.420  0.0724 -1.4346  1.3020
   97SAPC  H18Z 9636   3.158   4.244   5.353  0.3057  1.6198 -0.2767
   98SAPC     N 9637   6.854   0.415   3.360  0.4988 -0.0795  0.0514
   98SAPC   C12 9638   6.885   0.270   3.364 -0.0268  0.3511 -0.0506
   98SAPC  H12A 9639   6.806   0.220   3.311 -0.2404  1.3672 -0.7392
   98SAPC  H12B 9640   6.865   0.232   3.463  0.7354 -2.6916 -0.9595
   98SAPC   C13 9641   6.880   0.468   3.222 -0.3123  1.0278 -1.0257
   98SAPC  H13A 9642   6.985   0.486   3.211 -0.1593  0.7854 -0.1018
   98SAPC  H13B 9643   6.835   0.408   3.144  0.0731  1.1371 -1.3333
   98SAPC  H13C 9644   6.827   0.560   3.203  0.0207  0.9496 -2.3965
   98SAPC   C14 9645   6.711   0.449   3.409 -0.0405 -0.0784 -0.5653
   98SAPC  H14A 9646   6.690   0.402   3.504 -3.2650  1.0489 -0.6228
   98SAPC  H14B 9647   6.699   0.555   3.426  2.1533  0.2591 -0.8114
   98SAPC  H14C 9648   6.637   0.404   3.344  0.5288 -0.2081 -1.1337
   98SAPC   C15 9649   6.948   0.480   3.450  0.7526 -0.1339  0.7281
   98SAPC  H15A 9650   7.053   0.453   3.447  1.0286  0.9579 -0.8587
   98SAPC  H15B 9651   6.943   0.587   3.437  0.2044 -0.2542 -0.1287
   98SAPC  H15C 9652   6.911   0.466   3.550  0.0942 -0.2476  0.4739
   98SAPC   C11 9653   7.011   0.208   3.296 -0.6204 -0.8761 -0.4848
   98SAPC  H11A 9654   7.018   0.256   3.197 -1.7802 -0.0237 -0.1784
   98SAPC  H11B 9655   6.991   0.104   3.265 -0.1648 -1.2060  0.2858
   98SAPC     P 9656   7.253   0.280   3.334  0.0107  0.4238 -0.3932
   98SAPC   O13 9657   7.312   0.201   3.226 -0.1404  0.3509  0.3942
   98SAPC   O14 9658   7.255   0.425   3.316 -0.0723  0.7007  0.4423
   98SAPC   O12 9659   7.120   0.218   3.395 -0.1814  0.1590  0.3842
   98SAPC   O11 9660   7.353   0.257   3.452  0.1794 -0.5282 -0.3027
   98SAPC    C1 9661   7.329   0.166   3.565 -0.1631  0.5629  0.9734
   98SAPC    HA 9662   7.299   0.064   3.534 -1.7781  1.1044  0.6615
   98SAPC    HB 9663   7.421   0.155   3.625 -1.3293  2.3868  3.2501
   98SAPC    C2 9664   7.235   0.216   3.669  0.7855 -0.4436  0.1409
   98SAPC    HS 9665   7.139   0.220   3.614  1.3424 -3.3151 -1.2008
   98SAPC   O21 9666   7.284   0.341   3.717 -0.2428  0.2462 -0.0245
   98SAPC   C21 9667   7.187   0.428   3.748 -0.3540 -0.1521 -0.0623
   98SAPC   O22 9668   7.065   0.405   3.748 -0.3910  0.0785 -0.1620
   98SAPC   C22 9669   7.250   0.568   3.773  0.1581 -0.0416 -0.0616
   98SAPC   H2R 9670   7.341   0.537   3.828  0.0182 -1.5103 -0.6016
   98SAPC   H2S 9671   7.284   0.629   3.687  1.2935 -0.6560 -0.0625
   98SAPC    C3 9672   7.215   0.129   3.793 -0.0852  0.5597  0.0264
   98SAPC    HX 9673   7.148   0.047   3.761 -0.6013 -0.2395  2.9002
   98SAPC    HY 9674   7.163   0.186   3.874  3.1797  2.1774  1.1679
   98SAPC   O31 9675   7.334   0.070   3.848 -0.2092 -0.0023  0.3014
   98SAPC   C31 9676   7.390   0.142   3.948  0.0599 -0.8678  0.1850
   98SAPC   O32 9677   7.352   0.254   3.990  0.7439 -0.0240 -0.0067
   98SAPC   C32 9678   7.524   0.083   3.987 -0.0401  0.2007 -0.4865
   98SAPC   H2X 9679   7.593   0.073   3.900 -0.3900 -2.0146 -0.5629
   98SAPC   H2Y 9680   7.508  -0.016   4.034 -0.0953  0.4792  0.0856
   98SAPC   C23 9681   7.166   0.668   3.860 -0.0500 -0.2754  0.2383
   98SAPC   H3R 9682   7.115   0.615   3.944 -1.2347 -1.7809 -1.3586
   98SAPC   H3S 9683   7.080   0.697   3.796 -1.1336 -0.5019  1.5424
   98SAPC   C24 9684   7.251   0.781   3.914  1.1013  0.3585 -0.1046
   98SAPC   H4R 9685   7.342   0.739   3.962 -0.2906 -2.3883  0.2978
   98SAPC   H4S 9686   7.199   0.830   3.999 -1.1885 -1.2923 -0.4768
   98SAPC   C25 9687   7.283   0.897   3.821  0.1044 -0.4719 -0.0631
   98SAPC   H5R 9688   7.220   0.894   3.731  2.3537 -0.3716 -1.7267
   98SAPC   C26 9689   7.384   0.987   3.826 -0.0712  0.3231  0.0448
   98SAPC   H6R 9690   7.395   1.051   3.738  0.9811 -0.0263 -0.0880
   98SAPC   C27 9691   7.486   0.997   3.935  0.3190 -1.2751  0.1748
   98SAPC   H7R 9692   7.584   1.010   3.885  0.0484 -2.5087 -0.7246
   98SAPC   H7S 9693   7.513   0.903   3.987  0.9358 -1.1027  0.1753
   98SAPC   C28 9694   7.462   1.119   4.024 -0.0580  0.2629  0.0355
   98SAPC   H8R 9695   7.488   1.210   3.967 -1.5894  1.1432  0.6701
   98SAPC   C29 9696   7.447   1.129   4.157  0.1227 -0.4737 -0.4127
   98SAPC   H9R 9697   7.414   1.227   4.193 -2.1980 -1.4944  0.4132
   98SAPC  C210 9698   7.432   1.011   4.253  0.0491  0.7348 -0.2386
   98SAPC  H10R 9699   7.412   0.924   4.188  3.4220 -0.8137  0.6098
   98SAPC  H10S 9700   7.352   1.036   4.327  0.8164  1.5250  0.3469
   98SAPC  C211 9701   7.561   0.977   4.316 -0.7347 -0.2665 -0.7128
   98SAPC  H11R 9702   7.632   0.943   4.240 -1.3234  1.0043 -1.8639
   98SAPC  C212 9703   7.594   0.949   4.445 -0.6168  0.6753  0.4166
   98SAPC  H12R 9704   7.699   0.924   4.464  0.1441  3.9795  1.0672
   98SAPC  C213 9705   7.493   0.969   4.550  0.0681 -0.3186  0.5569
   98SAPC  H13R 9706   7.393   0.931   4.521  1.6371 -3.1067 -1.6836
   98SAPC  H13S 9707   7.475   1.079   4.556  0.4245 -0.3359  2.6731
   98SAPC  C214 9708   7.541   0.914   4.682  0.2343 -0.4888 -0.0649
   98SAPC  H14R 9709   7.489   0.819   4.701  2.7410 -2.7246 -3.3986
   98SAPC  C215 9710   7.599   0.981   4.783 -0.6492  0.5448 -0.4629
   98SAPC  H15R 9711   7.606   0.935   4.882  0.1496 -1.1386 -1.2622
   98SAPC  C216 9712   7.660   1.119   4.777  0.4343  0.9060  0.0860
   98SAPC  H16R 9713   7.678   1.139   4.669  1.9235 -2.9975 -0.5475
   98SAPC  H16S 9714   7.760   1.114   4.825  0.2380  1.6667  0.5909
   98SAPC  C217 9715   7.582   1.229   4.836 -0.6111 -0.1988  0.1441
   98SAPC  H17R 9716   7.562   1.204   4.942  1.3579  1.4812  0.9891
   98SAPC  H17S 9717   7.484   1.250   4.789 -0.5586  2.6191  1.1071
   98SAPC  C218 9718   7.665   1.361   4.836 -0.4319 -0.2264 -0.0485
   98SAPC  H18R 9719   7.648   1.417   4.742  1.7919 -0.5239 -0.6981
   98SAPC  H18S 9720   7.770   1.326   4.840  0.1842  1.1709 -2.0332
   98SAPC  C219 9721   7.626   1.462   4.948 -0.2214 -0.4126  0.2092
   98SAPC  H19R 9722   7.683   1.417   5.032 -0.5361 -0.4875  0.3836
   98SAPC  H19S 9723   7.515   1.457   4.959 -0.2866 -2.1794 -0.9449
   98SAPC  C220 9724   7.666   1.609   4.916 -0.1747  0.2715  0.2901
   98SAPC  H20R 9725   7.603   1.646   4.833 -1.5275 -0.1497  1.1043
   98SAPC  H20S 9726   7.774   1.620   4.891  0.1309 -1.2198  0.8661
   98SAPC  H20T 9727   7.642   1.682   4.997 -1.0582  0.3006  0.0149
   98SAPC   C33 9728   7.588   0.169   4.095 -0.0854  0.2757 -0.4914
   98SAPC   H3X 9729   7.542   0.134   4.189  1.2975  0.3565  0.2352
   98SAPC   H3Y 9730   7.577   0.279   4.079 -0.4358  0.2787 -0.2159
   98SAPC   C34 9731   7.737   0.134   4.127 -0.1023 -0.2059 -0.1499
   98SAPC   H4X 9732   7.803   0.159   4.041  0.4645  0.8224  0.5634
   98SAPC   H4Y 9733   7.747   0.024   4.137  0.1217 -0.1280  0.5408
   98SAPC   C35 9734   7.782   0.201   4.256 -0.2758 -0.1907 -0.1974
   98SAPC   H5X 9735   7.708   0.184   4.337  0.3727  1.6916  0.8597
   98SAPC   H5Y 9736   7.787   0.311   4.241  0.2871 -0.1076  0.5238
   98SAPC   C36 9737   7.924   0.150   4.291  0.1849  0.0776  0.5024
   98SAPC   H6X 9738   8.001   0.166   4.212  0.3520 -0.2345  0.5957
   98SAPC   H6Y 9739   7.918   0.039   4.302 -1.8331  0.0752 -0.1746
   98SAPC   C37 9740   7.967   0.216   4.418 -0.3770 -0.1728  0.0153
   98SAPC   H7X 9741   7.897   0.189   4.500  1.2283  0.3172  1.5940
   98SAPC   H7Y 9742   7.956   0.326   4.406  1.5471 -0.0352 -0.7310
   98SAPC   C38 9743   8.109   0.194   4.468  0.4573 -0.3323  0.1179
   98SAPC   H8X 9744   8.180   0.216   4.385  1.7707 -0.1131  1.2478
   98SAPC   H8Y 9745   8.122   0.086   4.491 -1.0139 -0.3469  1.0061
   98SAPC   C39 9746   8.139   0.278   4.595 -0.5426 -0.0028 -0.6851
   98SAPC   H9X 9747   8.114   0.385   4.580  0.9050  0.5252  0.3957
   98SAPC   H9Y 9748   8.248   0.268   4.615 -0.4382  1.0824 -0.6714
   98SAPC  C310 9749   8.053   0.220   4.714 -0.3087 -0.4528  0.3889
   98SAPC  H10X 9750   8.035   0.112   4.694  0.1954 -0.5740  0.5714
   98SAPC  H10Y 9751   7.953   0.267   4.710  0.6663  1.6350 -3.2903
   98SAPC  C311 9752   8.110   0.252   4.854  0.3068 -0.0028 -0.4838
   98SAPC  H11X 9753   8.200   0.191   4.880 -0.0848 -1.7666 -2.9049
   98SAPC  H11Y 9754   8.035   0.226   4.931  2.5794  0.2751  1.9505
   98SAPC  C312 9755   8.136   0.397   4.888 -0.0136 -0.5909  0.0129
   98SAPC  H12X 9756   8.047   0.460   4.871  0.2263 -0.3918 -0.5515
   98SAPC  H12Y 9757   8.229   0.431   4.837 -0.4428 -0.1232 -0.4678
   98SAPC  C313 9758   8.142   0.412   5.050 -0.3510  0.0874  0.7223
   98SAPC  H13X 9759   8.056   0.353   5.089 -0.6924 -0.8979 -1.3683
   98SAPC  H13Y 9760   8.139   0.520   5.073  3.1100  0.0601  1.8532
   98SAPC  C314 9761   8.269   0.348   5.116  0.3895 -0.2171 -0.2895
   98SAPC  H14X 9762   8.351   0.390   5.053 -0.5904 -0.2733 -1.6545
   98SAPC  H14Y 9763   8.273   0.239   5.097  0.7630 -0.1968 -0.3464
   98SAPC  C315 9764   8.284   0.385   5.262 -0.3485 -0.2973 -0.2616
   98SAPC  H15X 9765   8.275   0.496   5.266  0.4796 -0.2210 -0.5046
   98SAPC  H15Y 9766   8.386   0.361   5.297  0.7167  2.3052 -1.2856
   98SAPC  C316 9767   8.173   0.321   5.349  0.3347  0.0805 -0.8909
   98SAPC  H16X 9768   8.183   0.212   5.330  0.6637  0.1754 -1.2832
   98SAPC  H16Y 9769   8.075   0.360   5.316 -1.1524  1.2326  4.0253
   98SAPC  C317 9770   8.185   0.359   5.494  0.3388 -0.0540 -0.1434
   98SAPC  H17X 9771   8.093   0.335   5.551  0.0823  0.6133 -0.2734
   98SAPC  H17Y 9772   8.195   0.470   5.493 -2.4868  0.3248  1.5739
   98SAPC  C318 9773   8.305   0.300   5.558 -0.7202  1.0927  0.4898
   98SAPC  H18X 9774   8.392   0.369   5.547 -0.2159  0.8227  2.4241
   98SAPC  H18Y 9775   8.321   0.201   5.510 -0.3170  1.1655  0.4687
   98SAPC  H18Z 9776   8.278   0.290   5.665 -2.4836  0.3147  0.0029
   99SAPC     N 9777   4.642   4.857   3.132  0.1953 -0.5200  0.0124
   99SAPC   C12 9778   4.650   4.960   3.242 -0.0466  0.3747  0.7808
   99SAPC  H12A 9779   4.616   5.056   3.206 -4.1691 -1.8422 -2.0516
   99SAPC  H12B 9780   4.750   4.967   3.282  0.7203  0.3042 -0.9993
   99SAPC   C13 9781   4.673   4.718   3.183 -0.8726  0.3398 -0.0406
   99SAPC  H13A 9782   4.777   4.690   3.198 -0.5856  0.4317 -1.7577
   99SAPC  H13B 9783   4.612   4.701   3.271  0.5275 -1.1812  0.7013
   99SAPC  H13C 9784   4.637   4.642   3.116 -0.6656  1.3212 -1.2953
   99SAPC   C14 9785   4.510   4.852   3.068 -0.3229 -0.0979 -0.4620
   99SAPC  H14A 9786   4.427   4.812   3.124 -0.3919  1.5391  0.6856
   99SAPC  H14B 9787   4.481   4.954   3.050 -4.1226 -0.5797  1.8388
   99SAPC  H14C 9788   4.519   4.793   2.978  0.7202  0.3414 -0.6571
   99SAPC   C15 9789   4.736   4.898   3.030  0.4613 -0.2073  0.0624
   99SAPC  H15A 9790   4.832   4.922   3.074  0.1767  0.1518  0.4926
   99SAPC  H15B 9791   4.750   4.820   2.957 -2.8251 -1.0570  0.2106
   99SAPC  H15C 9792   4.699   4.991   2.989 -0.6131  0.3640  2.1485
   99SAPC   C11 9793   4.555   4.947   3.366 -0.6146 -0.2706  0.0397
   99SAPC  H11A 9794   4.577   5.027   3.439  1.3732 -0.1345 -0.6564
   99SAPC  H11B 9795   4.587   4.848   3.405 -0.0399  0.2046  0.8009
   99SAPC     P 9796   4.348   5.078   3.279  0.1021  0.1161  0.4186
   99SAPC   O13 9797   4.457   5.169   3.231 -0.3704  0.4817  0.3037
   99SAPC   O14 9798   4.241   5.050   3.177 -0.4925 -0.2275 -0.2712
   99SAPC   O12 9799   4.412   4.942   3.329  0.0358 -0.6194 -0.1988
   99SAPC   O11 9800   4.267   5.132   3.406  0.1061 -0.5562  0.2365
   99SAPC    C1 9801   4.267   5.055   3.528  0.2656  0.2774  0.6172
   99SAPC    HA 9802   4.278   4.946   3.513  1.0640  0.4870 -0.4745
   99SAPC    HB 9803   4.358   5.083   3.585 -0.9867  0.6518  2.5217
   99SAPC    C2 9804   4.144   5.092   3.621 -0.0133  0.2490  0.7186
   99SAPC    HS 9805   4.054   5.033   3.593  0.6224  0.2708 -1.5446
   99SAPC   O21 9806   4.117   5.235   3.605 -0.4961 -0.0024  0.6279
   99SAPC   C21 9807   4.001   5.271   3.659  0.1418 -0.2833  0.5596
   99SAPC   O22 9808   3.926   5.195   3.716 -0.3087 -1.0106 -0.1278
   99SAPC   C22 9809   3.984   5.424   3.643 -0.0540 -0.1110 -0.8668
   99SAPC   H2R 9810   4.070   5.467   3.699  0.9538 -2.3057 -0.6191
   99SAPC   H2S 9811   4.003   5.450   3.537  1.5962  0.4121 -0.4791
   99SAPC    C3 9812   4.160   5.058   3.774 -0.2773  0.6847  0.3527
   99SAPC    HX 9813   4.072   5.078   3.840  0.1333 -2.1640  1.9096
   99SAPC    HY 9814   4.242   5.128   3.803  2.4004 -1.6420 -1.1592
   99SAPC   O31 9815   4.198   4.923   3.796  0.5062  0.2252 -0.9239
   99SAPC   C31 9816   4.107   4.825   3.771 -0.3494 -0.0245  0.5921
   99SAPC   O32 9817   4.000   4.842   3.715  0.5177  0.6084  0.5460
   99SAPC   C32 9818   4.174   4.691   3.812  0.1529  0.3306  0.1518
   99SAPC   H2X 9819   4.285   4.696   3.814  0.3220 -1.6451 -1.3982
   99SAPC   H2Y 9820   4.160   4.623   3.726  2.6979 -2.5464  1.7992
   99SAPC   C23 9821   3.850   5.475   3.698 -0.5058  0.5592  0.2957
   99SAPC   H3R 9822   3.763   5.407   3.686 -0.4483  0.5249  0.0861
   99SAPC   H3S 9823   3.821   5.563   3.636  0.5161  1.1275  0.5911
   99SAPC   C24 9824   3.860   5.513   3.846 -0.2921 -0.6380 -0.6513
   99SAPC   H4R 9825   3.774   5.579   3.870  0.9054  0.9530 -0.5710
   99SAPC   H4S 9826   3.943   5.582   3.872 -0.2788 -1.0803  0.5399
   99SAPC   C25 9827   3.859   5.390   3.936 -0.3596 -0.4921 -0.3325
   99SAPC   H5R 9828   3.781   5.317   3.910 -0.5263 -0.9502  1.3790
   99SAPC   C26 9829   3.937   5.374   4.050  0.3566  0.4919 -0.0885
   99SAPC   H6R 9830   3.941   5.272   4.092 -1.9427 -0.5112 -2.0357
   99SAPC   C27 9831   4.036   5.479   4.101 -0.6282  1.2487  0.1910
   99SAPC   H7R 9832   3.984   5.575   4.119  0.1414  1.0065  4.9428
   99SAPC   H7S 9833   4.112   5.482   4.020 -1.4935  1.3904 -0.6344
   99SAPC   C28 9834   4.097   5.429   4.230 -0.4380 -0.6046 -0.3932
   99SAPC   H8R 9835   4.159   5.339   4.215 -0.3637 -0.7104  0.4847
   99SAPC   C29 9836   4.084   5.492   4.350  0.6905 -0.1273  0.0905
   99SAPC   H9R 9837   4.125   5.441   4.439 -0.6691 -0.6103  0.4630
   99SAPC  C210 9838   3.994   5.606   4.377  0.5789 -0.2536 -0.6080
   99SAPC  H10R 9839   3.931   5.639   4.292 -0.2692  0.7583  0.3796
   99SAPC  H10S 9840   4.048   5.694   4.417 -0.9274  1.2728 -1.7950
   99SAPC  C211 9841   3.892   5.560   4.479  0.5032  0.0445  0.2142
   99SAPC  H11R 9842   3.788   5.539   4.450  0.6584  0.3177 -0.5688
   99SAPC  C212 9843   3.922   5.547   4.614 -0.6504 -0.2906 -0.6610
   99SAPC  H12R 9844   3.835   5.523   4.676 -0.1607  2.3349  1.2234
   99SAPC  C213 9845   4.052   5.581   4.685 -0.4072  1.4037  0.5732
   99SAPC  H13R 9846   4.031   5.668   4.750 -1.8121  0.2770  1.7003
   99SAPC  H13S 9847   4.135   5.601   4.614  2.7270 -1.9971  2.8836
   99SAPC  C214 9848   4.092   5.455   4.763  0.4878  0.0210  0.3234
   99SAPC  H14R 9849   4.147   5.376   4.709 -0.3583  1.7995 -3.4500
   99SAPC  C215 9850   4.067   5.447   4.898 -0.1446  0.1174 -0.1375
   99SAPC  H15R 9851   4.091   5.353   4.950  0.7982  0.3343 -0.1656
   99SAPC  C216 9852   3.989   5.542   4.979  0.2355  0.1940 -0.5236
   99SAPC  H16R 9853   4.003   5.648   4.949 -0.1556  0.8710  1.5715
   99SAPC  H16S 9854   4.041   5.550   5.077  1.1101 -0.7156 -0.8854
   99SAPC  C217 9855   3.836   5.507   4.999  0.4435 -1.3501  0.3778
   99SAPC  H17R 9856   3.822   5.398   5.010  0.7655 -1.4974 -0.5675
   99SAPC  H17S 9857   3.776   5.527   4.908  0.2158 -0.8361  0.6398
   99SAPC  C218 9858   3.775   5.580   5.116 -0.4473 -0.0188 -0.0340
   99SAPC  H18R 9859   3.667   5.598   5.102 -0.6436 -0.5885  0.6694
   99SAPC  H18S 9860   3.818   5.682   5.115 -3.0474  1.1516 -0.6018
   99SAPC  C219 9861   3.784   5.509   5.251  0.2867 -0.2325  0.0477
   99SAPC  H19R 9862   3.876   5.446   5.257 -0.3931 -1.1431  1.4272
   99SAPC  H19S 9863   3.699   5.440   5.266 -0.3511  0.8284  1.5529
   99SAPC  C220 9864   3.807   5.600   5.370  0.8832 -0.3835  0.1784
   99SAPC  H20R 9865   3.906   5.648   5.387  0.0860  1.2919  0.2870
   99SAPC  H20S 9866   3.784   5.538   5.459 -0.3100  1.6086  1.3295
   99SAPC  H20T 9867   3.728   5.678   5.377 -0.5842 -1.7462 -0.6474
   99SAPC   C33 9868   4.124   4.633   3.943  0.5515  0.8029  0.0058
   99SAPC   H3X 9869   4.139   4.524   3.956 -1.0695  0.6563  0.8376
   99SAPC   H3Y 9870   4.013   4.632   3.952  0.3972 -0.9209 -1.5102
   99SAPC   C34 9871   4.175   4.696   4.071 -0.2130 -0.2023 -0.2969
   99SAPC   H4X 9872   4.196   4.805   4.063  0.8173 -0.2819  0.9257
   99SAPC   H4Y 9873   4.274   4.649   4.089 -0.5395 -0.4329  0.9636
   99SAPC   C35 9874   4.090   4.653   4.196  0.4929 -0.2130 -0.4593
   99SAPC   H5X 9875   4.074   4.543   4.199 -0.6705 -0.0523 -0.2333
   99SAPC   H5Y 9876   3.985   4.685   4.175 -0.8705 -4.0581 -0.3826
   99SAPC   C36 9877   4.147   4.707   4.323 -0.0511  1.0497 -0.1728
   99SAPC   H6X 9878   4.140   4.818   4.319  0.3254  1.0434 -1.7544
   99SAPC   H6Y 9879   4.252   4.673   4.327 -1.1027 -2.5053  2.3906
   99SAPC   C37 9880   4.082   4.656   4.448  1.0556  0.5148  0.2135
   99SAPC   H7X 9881   4.079   4.545   4.446  0.5471  0.4927  1.4163
   99SAPC   H7Y 9882   3.975   4.682   4.461  0.4317 -2.2192  1.3636
   99SAPC   C38 9883   4.159   4.691   4.577 -0.5179  0.0226  0.7642
   99SAPC   H8X 9884   4.151   4.800   4.594  0.0078  0.4019 -1.2178
   99SAPC   H8Y 9885   4.267   4.664   4.570 -0.2211  1.4674 -0.7878
   99SAPC   C39 9886   4.106   4.627   4.702  0.3753  0.4872 -0.0328
   99SAPC   H9X 9887   4.086   4.519   4.684  2.2781 -0.2859  1.9955
   99SAPC   H9Y 9888   4.008   4.673   4.728  0.1586 -0.5812  1.1621
   99SAPC  C310 9889   4.194   4.653   4.826 -0.3566 -0.3940 -0.3840
   99SAPC  H10X 9890   4.224   4.759   4.830 -1.9762  0.0652  0.3668
   99SAPC  H10Y 9891   4.277   4.583   4.799 -0.4134  0.2373 -2.3613
   99SAPC  C311 9892   4.128   4.608   4.958  0.3125  0.3417 -1.1222
   99SAPC  H11X 9893   4.080   4.509   4.944 -3.0963  1.8506 -1.1452
   99SAPC  H11Y 9894   4.058   4.681   5.003  1.5169  1.1060 -0.4091
   99SAPC  C312 9895   4.238   4.599   5.068 -0.0037 -0.3941  0.6257
   99SAPC  H12X 9896   4.307   4.524   5.023  0.5815 -0.9996  2.4329
   99SAPC  H12Y 9897   4.194   4.559   5.162 -0.5418 -2.2855 -0.3655
   99SAPC  C313 9898   4.320   4.733   5.095  0.8218  0.3877  0.2533
   99SAPC  H13X 9899   4.252   4.808   5.139  0.6627  1.9371 -2.4376
   99SAPC  H13Y 9900   4.352   4.780   4.999  0.9153 -1.4044 -0.6535
   99SAPC  C314 9901   4.445   4.714   5.183 -0.6043  0.2061  0.7430
   99SAPC  H14X 9902   4.509   4.805   5.187  3.8096 -2.6401  0.7886
   99SAPC  H14Y 9903   4.507   4.638   5.132 -2.1858 -2.0645  2.0293
   99SAPC  C315 9904   4.404   4.678   5.323 -0.3415 -0.0906  0.3438
   99SAPC  H15X 9905   4.361   4.575   5.322 -1.1420  0.2398  0.0230
   99SAPC  H15Y 9906   4.340   4.750   5.378 -0.0970 -0.7418  1.5397
   99SAPC  C316 9907   4.526   4.684   5.419 -0.5886  0.0807 -0.4100
   99SAPC  H16X 9908   4.568   4.787   5.422  0.2122 -0.2564  1.1956
   99SAPC  H16Y 9909   4.601   4.622   5.365 -0.0364  1.3836 -1.1818
   99SAPC  C317 9910   4.492   4.623   5.554 -0.4852 -0.2201  0.7110
   99SAPC  H17X 9911   4.455   4.521   5.531 -0.6998  0.2136 -1.0150
   99SAPC  H17Y 9912   4.417   4.681   5.611  1.9726  1.2465  2.6466
   99SAPC  C318 9913   4.613   4.620   5.649  0.2919 -0.3519 -0.6384
   99SAPC  H18X 9914   4.645   4.724   5.668 -0.8782  0.2936 -1.9659
   99SAPC  H18Y 9915   4.691   4.558   5.600  1.1658  1.1031 -1.1264
   99SAPC  H18Z 9916   4.578   4.573   5.744  0.4011 -2.2409 -1.4740
  100SAPC     N 9917   1.100   3.173   3.030  0.4452 -0.3060  0.8721
  100SAPC   C12 9918   1.149   3.196   3.170  0.5937 -0.2356  0.1569
  100SAPC  H12A 9919   1.236   3.137   3.195 -0.1841 -2.2281 -1.5560
  100SAPC  H12B 9920   1.077   3.161   3.242 -1.6089 -0.5137 -2.0625
  100SAPC   C13 9921   1.060   3.030   3.005  0.3247 -0.4234  0.0097
  100SAPC  H13A 9922   1.148   2.973   3.028  0.5782 -0.3393 -0.7248
  100SAPC  H13B 9923   0.991   3.008   3.085  1.1975  0.4008  1.0054
  100SAPC  H13C 9924   1.023   3.018   2.904  0.8177  0.6848 -0.3191
  100SAPC   C14 9925   0.973   3.251   3.012 -0.1900 -0.1588  0.0423
  100SAPC  H14A 9926   0.893   3.216   3.075 -1.1068 -0.1969 -1.0957
  100SAPC  H14B 9927   1.000   3.353   3.032  0.8622 -0.4788  0.2932
  100SAPC  H14C 9928   0.934   3.246   2.911  2.1194 -0.8671 -0.8767
  100SAPC   C15 9929   1.213   3.211   2.943 -0.0256 -0.0316  0.3378
  100SAPC  H15A 9930   1.290   3.136   2.940 -0.0580 -0.0933 -3.1023
  100SAPC  H15B 9931   1.180   3.222   2.841 -1.4088 -3.0187  0.3843
  100SAPC  H15C 9932   1.256   3.304   2.979 -0.5850  0.6960 -0.7780
  100SAPC   C11 9933   1.173   3.344   3.217  0.2679  0.0377 -0.0368
  100SAPC  H11A 9934   1.181   3.343   3.328 -0.0643  1.2557  0.0125
  100SAPC  H11B 9935   1.089   3.414   3.193  0.3136 -0.6872 -2.6020
  100SAPC     P 9936   1.421   3.433   3.199 -0.4803 -0.3029 -0.3054
  100SAPC   O13 9937   1.501   3.310   3.163 -0.0414 -0.0622 -0.8628
  100SAPC   O14 9938   1.473   3.557   3.143 -0.2563  0.1091 -0.1047
  100SAPC   O12 9939   1.275   3.414   3.148 -0.3122  0.2026 -0.1022
  100SAPC   O11 9940   1.396   3.441   3.352  0.1137  0.6779 -0.0588
  100SAPC    C1 9941   1.415   3.335   3.447  0.1282 -0.3906 -0.2456
  100SAPC    HA 9942   1.332   3.261   3.446 -0.0398 -0.1939 -1.4710
  100SAPC    HB 9943   1.517   3.293   3.433  0.2283  0.5125 -2.6837
  100SAPC    C2 9944   1.403   3.387   3.600  0.2981 -0.9942  0.2246
  100SAPC    HS 9945   1.441   3.302   3.661  0.7434 -1.1641 -0.2849
  100SAPC   O21 9946   1.257   3.405   3.631  0.5469 -0.9217  0.2067
  100SAPC   C21 9947   1.220   3.395   3.753 -0.0815 -0.0706 -0.2752
  100SAPC   O22 9948   1.289   3.358   3.852 -0.5170 -0.2621  0.6698
  100SAPC   C22 9949   1.072   3.424   3.765  0.7409  0.1074 -0.0033
  100SAPC   H2R 9950   1.049   3.522   3.718  0.6721  0.6695  1.1696
  100SAPC   H2S 9951   1.011   3.341   3.723 -3.0553 -0.0163  4.8710
  100SAPC    C3 9952   1.473   3.521   3.622 -0.0801  0.1501 -0.7072
  100SAPC    HX 9953   1.418   3.603   3.569 -0.0318  1.3654  1.0512
  100SAPC    HY 9954   1.570   3.510   3.570  0.3798 -0.3156  0.2491
  100SAPC   O31 9955   1.491   3.552   3.761  0.4053  0.3037 -0.1714
  100SAPC   C31 9956   1.583   3.478   3.826 -0.1369 -0.1918 -0.3779
  100SAPC   O32 9957   1.658   3.394   3.784 -0.0627 -0.3360  0.3662
  100SAPC   C32 9958   1.558   3.508   3.975  0.3224 -0.9837  0.5259
  100SAPC   H2X 9959   1.448   3.516   3.986  0.4625 -1.3666  2.6071
  100SAPC   H2Y 9960   1.617   3.599   3.999  2.2317 -2.3669  1.3341
  100SAPC   C23 9961   1.018   3.431   3.913 -0.4454  0.2747 -0.0654
  100SAPC   H3R 9962   1.008   3.332   3.962 -2.0093 -1.1254 -2.9117
  100SAPC   H3S 9963   0.909   3.447   3.897 -0.5144 -0.2544 -0.1580
  100SAPC   C24 9964   1.051   3.553   3.997  0.2367  0.1932 -0.8913
  100SAPC   H4R 9965   1.041   3.644   3.934  1.4010 -0.7496 -2.5364
  100SAPC   H4S 9966   1.159   3.548   4.022  0.0566  1.0664  0.1493
  100SAPC   C25 9967   0.980   3.556   4.128  0.2956 -0.2695  0.2420
  100SAPC   H5R 9968   0.871   3.563   4.118  0.1957 -0.3753  1.2475
  100SAPC   C26 9969   1.021   3.541   4.257  0.1187 -0.1447 -0.1851
  100SAPC   H6R 9970   0.946   3.521   4.335  1.1042  2.3676  1.5163
  100SAPC   C27 9971   1.164   3.525   4.297  0.1773 -0.0868  0.5089
  100SAPC   H7R 9972   1.227   3.541   4.207 -1.8395 -1.1302 -1.1421
  100SAPC   H7S 9973   1.191   3.420   4.322 -0.4625 -0.6084 -0.9104
  100SAPC   C28 9974   1.204   3.600   4.427 -0.4737  0.1544  0.6875
  100SAPC   H8R 9975   1.293   3.662   4.411  0.5107 -1.3295  0.1292
  100SAPC   C29 9976   1.184   3.554   4.554 -0.6265 -0.5311 -0.0277
  100SAPC   H9R 9977   1.233   3.621   4.626  0.1436 -1.4126  0.2869
  100SAPC  C210 9978   1.100   3.444   4.613 -0.0097  0.3975 -0.4019
  100SAPC  H10R 9979   1.008   3.434   4.552 -1.0685 -0.7910  1.2914
  100SAPC  H10S 9980   1.063   3.490   4.708  1.2596 -0.7457  0.6819
  100SAPC  C211 9981   1.166   3.308   4.604 -0.3772  0.1023  0.2141
  100SAPC  H11R 9982   1.183   3.260   4.506  2.6951  1.6048 -0.0975
  100SAPC  C212 9983   1.204   3.232   4.714 -0.2939  0.2725  0.4978
  100SAPC  H12R 9984   1.253   3.135   4.697 -0.1524  0.3898  0.2241
  100SAPC  C213 9985   1.213   3.284   4.854 -0.1342  0.4449  0.2788
  100SAPC  H13R 9986   1.126   3.246   4.913  1.1924 -0.1090  1.9517
  100SAPC  H13S 9987   1.223   3.395   4.857  3.3145  0.2267  1.0385
  100SAPC  C214 9988   1.336   3.229   4.925 -0.7861 -0.1916 -0.4822
  100SAPC  H14R 9989   1.407   3.305   4.963 -0.0099 -0.8781 -0.5324
  100SAPC  C215 9990   1.349   3.111   4.976  0.2173  0.0256 -0.1322
  100SAPC  H15R 9991   1.440   3.097   5.036  1.1315  0.8791 -1.2830
  100SAPC  C216 9992   1.258   2.996   4.963  0.2415 -0.2266  0.2070
  100SAPC  H16R 9993   1.320   2.917   4.916 -0.3689 -0.5589 -0.0595
  100SAPC  H16S 9994   1.183   3.010   4.881 -0.9704  1.7122  1.5494
  100SAPC  C217 9995   1.193   2.934   5.087 -0.0137 -0.0725  0.1431
  100SAPC  H17R 9996   1.153   2.833   5.063  1.7008 -1.1086  1.3642
  100SAPC  H17S 9997   1.112   3.001   5.123 -0.3018  0.4884 -1.5119
  100SAPC  C218 9998   1.295   2.907   5.197 -0.8279 -0.1435  0.4402
  100SAPC  H18R 9999   1.249   2.869   5.290  1.7094  1.0908  2.3114
  100SAPC  H18S10000   1.358   2.995   5.220  1.2408 -1.5867  0.5470
  100SAPC  C21910001   1.382   2.781   5.156  0.2399 -0.7171 -0.6185
  100SAPC  H19R10002   1.465   2.816   5.092  0.9706 -1.0951  0.0973
  100SAPC  H19S10003   1.315   2.705   5.110 -2.2641 -0.0293  1.6146
  100SAPC  C22010004   1.448   2.702   5.276 -0.2104 -0.7995 -0.1886
  100SAPC  H20R10005   1.544   2.756   5.291 -0.9369  0.8268 -1.1045
  100SAPC  H20S10006   1.460   2.595   5.251 -0.2069 -0.7906 -0.2245
  100SAPC  H20T10007   1.382   2.724   5.363 -1.1628 -1.2710 -0.7717
  100SAPC   C3310008   1.625   3.401   4.065 -0.1850 -0.2576  0.9203
  100SAPC   H3X10009   1.731   3.409   4.033 -1.0760  1.2931 -2.0363
  100SAPC   H3Y10010   1.601   3.297   4.035  0.6764 -0.4926  1.0308
  100SAPC   C3410011   1.594   3.414   4.208 -0.5859 -0.4019 -0.4864
  100SAPC   H4X10012   1.492   3.457   4.214 -0.2294  0.4411 -0.3218
  100SAPC   H4Y10013   1.672   3.487   4.242  0.8844 -3.1927  2.7364
  100SAPC   C3510014   1.596   3.282   4.292 -0.0387  0.1501  0.5664
  100SAPC   H5X10015   1.691   3.228   4.271 -0.7844 -0.5242 -1.3045
  100SAPC   H5Y10016   1.520   3.215   4.245  1.6424 -2.4458  1.3279
  100SAPC   C3610017   1.574   3.299   4.440 -0.7126 -0.3304 -0.8606
  100SAPC   H6X10018   1.550   3.201   4.487 -1.2352 -0.8001 -2.0677
  100SAPC   H6Y10019   1.486   3.364   4.461 -1.4857 -1.4400 -0.5849
  100SAPC   C3710020   1.693   3.349   4.510  0.0999  0.4190 -0.7554
  100SAPC   H7X10021   1.745   3.443   4.485 -1.5385  1.6274  0.1679
  100SAPC   H7Y10022   1.780   3.287   4.481 -0.1743 -0.0545 -0.5802
  100SAPC   C3810023   1.680   3.337   4.660 -0.3632 -1.1066  0.3133
  100SAPC   H8X10024   1.658   3.231   4.686  0.3556 -1.4972 -0.6051
  100SAPC   H8Y10025   1.591   3.398   4.686  1.9778  2.0420  1.6007
  100SAPC   C3910026   1.787   3.404   4.744  0.0764  0.1327  0.1226
  100SAPC   H9X10027   1.800   3.506   4.703  1.8487  0.0082  0.2959
  100SAPC   H9Y10028   1.880   3.343   4.735 -0.3267 -0.5305  0.3131
  100SAPC  C31010029   1.742   3.409   4.892  0.4320 -0.1821  0.1318
  100SAPC  H10X10030   1.739   3.301   4.921  1.8278 -0.3785 -0.3796
  100SAPC  H10Y10031   1.636   3.441   4.902  0.3350 -0.6108  0.5417
  100SAPC  C31110032   1.852   3.472   4.988 -0.4167  0.7541 -0.0561
  100SAPC  H11X10033   1.892   3.564   4.941  1.5980  0.5299  1.0897
  100SAPC  H11Y10034   1.938   3.403   5.004 -1.8512 -0.5087  3.0307
  100SAPC  C31210035   1.781   3.495   5.119  0.9489  0.3638  0.2235
  100SAPC  H12X10036   1.863   3.497   5.194  2.8461  0.6019 -1.7598
  100SAPC  H12Y10037   1.716   3.408   5.140  2.7359 -1.1808 -0.3743
  100SAPC  C31310038   1.705   3.628   5.132  0.0051  0.3826  0.0716
  100SAPC  H13X10039   1.640   3.632   5.043 -0.0720  0.7256  0.1410
  100SAPC  H13Y10040   1.777   3.711   5.117  0.6736 -0.2888 -0.5336
  100SAPC  C31410041   1.623   3.632   5.264 -0.2243 -0.2718 -0.2366
  100SAPC  H14X10042   1.681   3.572   5.338 -0.8295 -2.7817 -1.6916
  100SAPC  H14Y10043   1.534   3.571   5.239  1.0708 -1.5583 -1.9269
  100SAPC  C31510044   1.577   3.771   5.311  0.8362  0.4440  0.7882
  100SAPC  H15X10045   1.544   3.757   5.416 -0.0962  0.6197  0.5238
  100SAPC  H15Y10046   1.488   3.797   5.250  0.8598  1.3610  1.1313
  100SAPC  C31610047   1.663   3.893   5.304 -0.2669 -0.4041  0.9768
  100SAPC  H16X10048   1.690   3.914   5.198 -2.6543 -0.6314  0.2603
  100SAPC  H16Y10049   1.760   3.875   5.354 -0.2295 -0.8695  0.7402
  100SAPC  C31710050   1.588   4.017   5.360 -0.0822  0.3759 -0.8040
  100SAPC  H17X10051   1.581   4.001   5.470 -0.0439  3.6835 -0.2344
  100SAPC  H17Y10052   1.488   4.020   5.311 -0.5757 -2.6106 -0.2067
  100SAPC  C31810053   1.669   4.148   5.346 -0.2800 -0.5670  0.0737
  100SAPC  H18X10054   1.679   4.165   5.236 -1.6176  0.6128  0.1015
  100SAPC  H18Y10055   1.763   4.120   5.399 -1.1187 -3.2411  0.2670
  100SAPC  H18Z10056   1.607   4.230   5.387  0.9293  0.0193  0.8072
  101OSM      N10057   6.743   2.164   7.959  0.1336 -0.0695  0.9155
  101OSM    C1510058   6.847   2.051   7.951 -0.0699  0.0448  0.3988
  101OSM   H15A10059   6.875   2.026   7.850 -0.1468 -1.1059  0.6453
  101OSM   H15B10060   6.791   1.967   7.989 -3.0243  1.1001 -1.2585
  101OSM   H15C10061   6.922   2.074   8.025 -0.0024 -0.5977  0.5315
  101OSM    C1410062   6.608   2.120   7.906 -0.4045 -0.2134 -0.1819
  101OSM   H14A10063   6.547   2.209   7.905  1.4721  1.1269 -1.1753
  101OSM   H14B10064   6.560   2.050   7.973  0.7638 -0.7033  0.1776
  101OSM   H14C10065   6.617   2.074   7.809  0.8597  2.0596 -1.2332
  101OSM    C1310066   6.721   2.185   8.105 -0.1856  0.4764  0.4659
  101OSM   H13A10067   6.817   2.212   8.146  0.3520  1.0013 -1.0748
  101OSM   H13B10068   6.691   2.092   8.151  1.2327 -0.4538 -0.4297
  101OSM   H13C10069   6.649   2.263   8.129 -2.1923 -1.0787 -0.2229
  101OSM    C1210070   6.789   2.284   7.886 -0.0251  0.1158 -0.5531
  101OSM   H12A10071   6.887   2.305   7.925  0.4690 -2.3107 -0.2901
  101OSM   H12B10072   6.716   2.363   7.893 -2.3261 -1.8545 -0.9866
  101OSM    C1110073   6.820   2.268   7.739 -0.3149 -0.1781  0.1413
  101OSM   H11A10074   6.831   2.372   7.704  2.8568  0.4351  2.4447
  101OSM   H11B10075   6.729   2.229   7.689 -1.4467 -1.4844  2.9772
  101OSM      P10076   7.075   2.242   7.710 -0.1029 -0.1122  0.1599
  101OSM    O1310077   7.092   2.322   7.833 -0.1127  0.3315  0.0628
  101OSM    O1410078   7.172   2.135   7.682 -0.2031 -0.1010  0.5768
  101OSM    O1110079   7.082   2.347   7.587  0.5495 -0.4153  0.2418
  101OSM    O1210080   6.927   2.180   7.714 -0.5990  0.2229  0.1733
  101OSM    C1S10081   7.010   2.300   7.466 -0.2640  0.0825 -0.7337
  101OSM    H1S10082   6.899   2.306   7.472 -0.3467 -0.6488 -1.2626
  101OSM    H1T10083   7.034   2.192   7.452  0.4635  0.1320  0.0751
  101OSM     NF10084   6.978   2.341   7.230  0.3630  0.1935  0.4416
  101OSM    HNF10085   7.021   2.283   7.162 -1.9799  0.1787 -1.1541
  101OSM    C2S10086   7.059   2.384   7.348  0.5151 -0.0224  0.8214
  101OSM    H2S10087   7.043   2.493   7.363 -0.4536 -0.0644  0.2068
  101OSM    C3S10088   7.206   2.378   7.327 -0.1205 -0.4262 -0.2078
  101OSM    H3S10089   7.236   2.279   7.287 -3.2180 -0.8843 -1.6975
  101OSM     O310090   7.293   2.398   7.442 -0.1831  0.6547  0.1521
  101OSM    HO310091   7.228   2.393   7.513 -0.7680 -1.5574 -0.4915
  101OSM    C4S10092   7.243   2.469   7.212 -0.1682 -0.1088 -0.1589
  101OSM    H4S10093   7.222   2.419   7.117 -0.2153  0.4492 -0.4444
  101OSM    C5S10094   7.292   2.592   7.222  0.1432  1.0662 -0.7388
  101OSM    H5S10095   7.310   2.626   7.326  1.3813 -0.6836 -0.3383
  101OSM    C6S10096   7.348   2.675   7.115 -0.5406 -0.7867  0.2624
  101OSM    H6S10097   7.405   2.764   7.151 -0.5584  0.1894 -1.9709
  101OSM    H6T10098   7.258   2.718   7.066  0.3950  0.7954 -0.1518
  101OSM    C7S10099   7.434   2.591   7.017  0.0787 -0.2768  1.4324
  101OSM    H7S10100   7.381   2.496   6.993  1.3968 -0.9817  1.2311
  101OSM    H7T10101   7.530   2.576   7.069  0.7173  2.3764  1.1685
  101OSM    C8S10102   7.460   2.680   6.886  0.1799  0.3879  0.1276
  101OSM    H8S10103   7.531   2.760   6.915  1.0400  0.0347 -0.9341
  101OSM    H8T10104   7.364   2.725   6.853 -0.9937 -2.9820 -1.4905
  101OSM    C9S10105   7.502   2.606   6.761  0.3566 -0.0199 -0.2663
  101OSM    H9S10106   7.422   2.535   6.730 -0.1129 -0.5748  2.0937
  101OSM    H9T10107   7.590   2.540   6.772  0.5531  0.2241 -0.3612
  101OSM   C10S10108   7.508   2.703   6.649 -0.1042 -0.0201  0.2745
  101OSM   H10S10109   7.580   2.781   6.682  0.6954 -0.4767 -0.3697
  101OSM   H10T10110   7.407   2.746   6.630  0.1521  1.0804  1.2984
  101OSM   C11S10111   7.547   2.651   6.511  0.1504  0.4522 -0.4831
  101OSM   H11S10112   7.479   2.570   6.478  1.1881 -0.6701  0.0253
  101OSM   H11T10113   7.645   2.599   6.520  0.2750  0.9759  1.9747
  101OSM   C12S10114   7.543   2.778   6.418  0.0719 -0.1928  0.8789
  101OSM   H12S10115   7.622   2.851   6.448 -0.0264  1.0390 -1.5880
  101OSM   H12T10116   7.448   2.834   6.426  0.5888  0.7178  0.8553
  101OSM   C13S10117   7.540   2.724   6.274  0.0619 -0.2294 -0.4651
  101OSM   H13S10118   7.465   2.645   6.251 -0.4558  0.5579 -1.6092
  101OSM   H13T10119   7.638   2.673   6.268  0.2964  0.1039  0.4542
  101OSM   C14S10120   7.553   2.835   6.164 -0.2615  0.2128  0.0867
  101OSM   H14S10121   7.638   2.899   6.195  0.3741 -0.7248  0.2972
  101OSM   H14T10122   7.465   2.904   6.164 -1.2097 -0.9615 -0.5259
  101OSM   C15S10123   7.566   2.776   6.021 -0.3800 -0.3229  0.1698
  101OSM   H15S10124   7.480   2.708   6.002  0.6011 -1.6892  0.4934
  101OSM   H15T10125   7.661   2.720   6.024  0.3351  0.8701  0.4820
  101OSM   C16S10126   7.563   2.880   5.904  0.3013 -0.0172 -0.6198
  101OSM   H16S10127   7.459   2.920   5.909  0.8439  1.3119  0.5107
  101OSM   H16T10128   7.570   2.817   5.813  1.5080 -0.8030 -0.0072
  101OSM   C17S10129   7.682   2.983   5.910  0.3069 -0.6056 -0.0420
  101OSM   H17S10130   7.768   2.913   5.921 -2.0447 -3.5347  0.9442
  101OSM   H17T10131   7.678   3.048   5.999  0.2533  0.0943 -0.5496
  101OSM   C18S10132   7.686   3.072   5.784 -0.0323 -0.4258 -1.3849
  101OSM   H18S10133   7.686   3.007   5.693  0.5949 -1.3888 -0.7163
  101OSM   H18T10134   7.783   3.125   5.794  0.5391 -1.9452  5.3478
  101OSM   H18U10135   7.604   3.146   5.780 -1.2585 -1.6097  0.6621
  101OSM    C1F10136   6.847   2.383   7.213 -0.0119  0.5110 -0.1198
  101OSM     OF10137   6.798   2.448   7.305  0.6285 -0.4949  0.5288
  101OSM    C2F10138   6.780   2.350   7.085  0.1603  0.1113 -0.3510
  101OSM    H2F10139   6.690   2.286   7.102 -0.6992  0.8665 -1.8597
  101OSM    H2G10140   6.848   2.279   7.034  1.9166  2.3097 -1.2305
  101OSM    C3F10141   6.756   2.475   6.998  0.4399  0.0138  0.5596
  101OSM    H3F10142   6.848   2.520   6.954 -1.0709  1.2000 -1.5869
  101OSM    H3G10143   6.696   2.550   7.052 -0.5247 -1.1880  1.2066
  101OSM    C4F10144   6.667   2.427   6.878  0.7129 -0.4271  0.0961
  101OSM    H4F10145   6.569   2.396   6.920 -0.8704  0.5584 -2.6182
  101OSM    H4G10146   6.711   2.338   6.829  1.4201 -0.2891  0.4765
  101OSM    C5F10147   6.639   2.541   6.770 -0.3339  0.1277 -0.3049
  101OSM    H5F10148   6.731   2.563   6.713 -0.3785  3.0974  0.6185
  101OSM    H5G10149   6.600   2.632   6.820 -1.5553  0.4612 -1.7690
  101OSM    C6F10150   6.531   2.482   6.672  0.2616 -0.7570  0.0510
  101OSM    H6F10151   6.438   2.440   6.718 -1.3259  0.5829 -1.7775
  101OSM    H6G10152   6.589   2.401   6.623  1.1733 -0.1867  0.1793
  101OSM    C7F10153   6.495   2.590   6.566 -0.1386 -0.0834 -0.0508
  101OSM    H7F10154   6.585   2.635   6.518 -0.0898 -0.0884  0.0364
  101OSM    H7G10155   6.422   2.667   6.598 -1.8935 -2.1825  1.3508
  101OSM    C8F10156   6.416   2.528   6.451  0.1414 -0.1813 -0.2102
  101OSM    H8F10157   6.331   2.470   6.495  0.2738  0.3219  0.7333
  101OSM    H8G10158   6.474   2.445   6.406 -1.5232 -1.5336  0.0066
  101OSM    C9F10159   6.364   2.623   6.347 -0.6019 -0.1746 -0.4313
  101OSM    H9F10160   6.266   2.664   6.373 -2.1959 -3.1933 -1.2442
  101OSM   C10F10161   6.428   2.672   6.240 -0.3168 -0.0564 -0.3180
  101OSM   H10F10162   6.374   2.740   6.172  0.6181 -0.9732 -2.0133
  101OSM   C11F10163   6.575   2.636   6.213  0.2223 -0.9277  0.3272
  101OSM   H11F10164   6.600   2.528   6.204  1.0816 -0.6873 -0.4691
  101OSM   H11G10165   6.635   2.669   6.301 -2.9659  0.8107  2.0148
  101OSM   C12F10166   6.632   2.698   6.082  0.0527  0.6336  0.5454
  101OSM   H12F10167   6.742   2.684   6.078 -0.2098 -1.3154 -1.9518
  101OSM   H12G10168   6.609   2.807   6.074 -1.1629  0.3877  0.4285
  101OSM   C13F10169   6.599   2.622   5.954 -1.3124 -0.0901 -0.2657
  101OSM   H13F10170   6.488   2.626   5.958 -1.3253 -0.1731 -0.5653
  101OSM   H13G10171   6.626   2.515   5.954 -0.6756  0.0627 -1.1951
  101OSM   C14F10172   6.667   2.692   5.837  0.0326 -1.2946 -0.0552
  101OSM   H14F10173   6.776   2.711   5.843  0.0667 -1.5588  0.1586
  101OSM   H14G10174   6.634   2.798   5.841  0.7515 -1.0473 -0.4168
  101OSM   C15F10175   6.625   2.643   5.693  0.4955  0.1626 -0.2401
  101OSM   H15F10176   6.514   2.644   5.690  0.3311  1.1122  2.9460
  101OSM   H15G10177   6.648   2.537   5.672 -0.1380  0.1066 -0.6840
  101OSM   C16F10178   6.678   2.730   5.582  0.2040  0.3670 -0.1516
  101OSM   H16F10179   6.647   2.832   5.612  1.9299  0.6590  0.7169
  101OSM   H16G10180   6.625   2.698   5.489 -0.6153 -2.7823  1.2681
  101OSM   C17F10181   6.825   2.721   5.549  0.4603  0.5491  0.1331
  101OSM   H17F10182   6.858   2.616   5.531  0.8460  0.7050 -0.0794
  101OSM   H17G10183   6.895   2.744   5.632  0.3102 -0.4190  0.5486
  101OSM   C18F10184   6.867   2.802   5.425 -0.0616 -0.2155 -0.3048
  101OSM   H18F10185   6.968   2.770   5.390 -0.0425 -1.5871  0.8874
  101OSM   H18G10186   6.854   2.911   5.441 -1.8190 -0.2637 -1.1812
  101OSM   H18H10187   6.800   2.778   5.340  0.7532  0.5917 -1.2080
  102OSM      N10188   2.014   0.257   7.919 -0.1037  0.7677  0.7319
  102OSM    C1510189   2.083   0.387   7.953  0.3295 -0.4347 -0.4163
  102OSM   H15A10190   2.051   0.436   8.043  0.7436 -1.2264  0.1727
  102OSM   H15B10191   2.084   0.461   7.874 -0.9449  3.3416  2.7969
  102OSM   H15C10192   2.190   0.375   7.959  0.6196  1.7948 -0.4294
  102OSM    C1410193   2.050   0.176   8.035  0.1588  0.2435  0.3614
  102OSM   H14A10194   2.008   0.077   8.038 -2.3754  1.2372 -0.1691
  102OSM   H14B10195   2.012   0.224   8.124 -2.6245 -0.2863 -0.4691
  102OSM   H14C10196   2.157   0.163   8.042  0.3168  0.4856 -1.1932
  102OSM    C1310197   1.865   0.273   7.915  0.1631  0.5802 -0.0371
  102OSM   H13A10198   1.807   0.183   7.900  0.0317  0.3612  1.5211
  102OSM   H13B10199   1.845   0.342   7.834 -3.1007  0.0765  0.2174
  102OSM   H13C10200   1.832   0.319   8.007 -1.0591 -1.4943  0.6135
  102OSM    C1210201   2.072   0.200   7.790 -0.1497 -0.0434 -0.9789
  102OSM   H12A10202   2.032   0.103   7.763  0.7555 -0.3205 -1.3699
  102OSM   H12B10203   2.179   0.192   7.801 -0.0896 -0.2261 -1.6367
  102OSM    C1110204   2.046   0.282   7.658 -0.3213 -0.7937 -0.1588
  102OSM   H11A10205   1.943   0.316   7.633 -0.4441 -0.6983  0.4537
  102OSM   H11B10206   2.080   0.217   7.575  0.2691 -0.9161  0.1785
  102OSM      P10207   2.123   0.531   7.592  0.0547 -0.0826  0.3485
  102OSM    O1310208   2.049   0.616   7.686 -0.5223 -0.7179  0.1551
  102OSM    O1410209   2.256   0.575   7.545 -0.2363 -0.0850  1.1075
  102OSM    O1110210   2.026   0.500   7.468  0.5491  0.2693 -0.0636
  102OSM    O1210211   2.140   0.388   7.659 -0.1464  0.2969 -0.7526
  102OSM    C1S10212   2.053   0.401   7.365 -0.4255  0.1761 -0.2266
  102OSM    H1S10213   1.991   0.312   7.387 -0.5993  0.8835  2.6453
  102OSM    H1T10214   2.158   0.366   7.373 -0.4117  0.0565 -0.9057
  102OSM     NF10215   2.137   0.502   7.161  0.2274 -0.0747  0.2603
  102OSM    HNF10216   2.149   0.600   7.146  2.4328 -0.2809  0.3477
  102OSM    C2S10217   2.023   0.451   7.220 -0.3812 -0.1638 -1.3127
  102OSM    H2S10218   2.003   0.356   7.166  1.2423 -0.9707 -0.5668
  102OSM    C3S10219   1.901   0.543   7.219  0.3332  1.0078  0.3681
  102OSM    H3S10220   1.938   0.638   7.263  0.5992  0.3160  1.6867
  102OSM     O310221   1.789   0.507   7.309  0.3371  0.7945 -0.6068
  102OSM    HO310222   1.835   0.461   7.379 -0.1994 -0.2082 -0.8901
  102OSM    C4S10223   1.859   0.566   7.072 -0.1622 -0.2778 -0.9845
  102OSM    H4S10224   1.855   0.670   7.036 -3.0647  1.5551  3.7465
  102OSM    C5S10225   1.820   0.461   6.992  0.2521 -0.2123  0.0855
  102OSM    H5S10226   1.815   0.360   7.035  2.3019 -0.1925  0.4602
  102OSM    C6S10227   1.798   0.465   6.843 -0.0016  0.4286 -0.1314
  102OSM    H6S10228   1.763   0.568   6.817 -2.1058 -0.0551  0.6004
  102OSM    H6T10229   1.717   0.393   6.818  2.4937 -2.1240 -1.4113
  102OSM    C7S10230   1.916   0.429   6.747  0.8782  0.4458 -0.1265
  102OSM    H7S10231   1.877   0.445   6.645 -4.3428 -0.3106  1.4827
  102OSM    H7T10232   1.932   0.320   6.765  0.3937  0.6283  1.6881
  102OSM    C8S10233   2.048   0.515   6.754  0.5050 -0.5817 -0.0390
  102OSM    H8S10234   2.075   0.524   6.861 -0.6125 -2.4903  0.4449
  102OSM    H8T10235   2.013   0.616   6.721 -1.0506  0.0664  3.2003
  102OSM    C9S10236   2.155   0.467   6.663  0.7607  0.4382 -0.2318
  102OSM    H9S10237   2.106   0.448   6.564  0.4925 -1.0600  0.1580
  102OSM    H9T10238   2.208   0.378   6.702  1.7732  1.1752  0.1037
  102OSM   C10S10239   2.262   0.578   6.635 -0.2497  0.4242  0.1680
  102OSM   H10S10240   2.295   0.626   6.730 -1.7086  1.1158  0.3513
  102OSM   H10T10241   2.221   0.661   6.574  0.4700 -0.8819 -2.2318
  102OSM   C11S10242   2.376   0.516   6.552 -0.2188  0.4528  0.1794
  102OSM   H11S10243   2.331   0.465   6.464 -0.5819 -0.7844  1.0561
  102OSM   H11T10244   2.421   0.433   6.610  0.0138 -0.2425 -0.9616
  102OSM   C12S10245   2.477   0.625   6.518 -0.7343 -0.6408 -0.0755
  102OSM   H12S10246   2.505   0.663   6.618 -1.8555 -3.3687  1.3636
  102OSM   H12T10247   2.421   0.708   6.468 -1.3660 -0.6514  0.6042
  102OSM   C13S10248   2.598   0.599   6.428 -0.1476  0.5876  0.4173
  102OSM   H13S10249   2.660   0.522   6.476  0.6032 -0.0336 -1.4607
  102OSM   H13T10250   2.660   0.691   6.422  0.2275  0.3089  0.0207
  102OSM   C14S10251   2.568   0.566   6.284  0.2816  0.0520 -0.7442
  102OSM   H14S10252   2.500   0.478   6.281 -1.6656  1.4849 -0.5323
  102OSM   H14T10253   2.664   0.556   6.229  0.9841  3.8542 -0.4639
  102OSM   C15S10254   2.494   0.678   6.207 -0.4934 -0.6132 -0.3949
  102OSM   H15S10255   2.546   0.766   6.249 -1.0945  0.5871 -2.0704
  102OSM   H15T10256   2.386   0.687   6.232 -0.8973 -0.4239 -2.0745
  102OSM   C16S10257   2.501   0.663   6.054 -0.5542 -0.7267 -0.0935
  102OSM   H16S10258   2.609   0.661   6.031 -0.3201 -0.0027  0.8795
  102OSM   H16T10259   2.452   0.745   5.997  1.9035  1.2742  0.4963
  102OSM   C17S10260   2.446   0.526   5.996  0.1212  0.1786 -0.0764
  102OSM   H17S10261   2.337   0.511   6.011  0.2164  0.5220  1.0659
  102OSM   H17T10262   2.485   0.446   6.063  0.0146  0.4089  0.2647
  102OSM   C18S10263   2.488   0.493   5.853  0.0095 -0.1970  0.5584
  102OSM   H18S10264   2.483   0.388   5.816  2.0318  0.6244 -2.4907
  102OSM   H18T10265   2.593   0.529   5.846 -0.4102  0.8586 -0.7022
  102OSM   H18U10266   2.428   0.554   5.782  1.3503 -0.7399 -1.1115
  102OSM    C1F10267   2.250   0.444   7.140 -0.0312  0.0538  0.1287
  102OSM     OF10268   2.269   0.325   7.158  0.7411  0.1978  0.1559
  102OSM    C2F10269   2.352   0.532   7.088 -0.5197 -0.6967 -0.0303
  102OSM    H2F10270   2.399   0.592   7.169  0.2024  0.8128 -1.5246
  102OSM    H2G10271   2.304   0.596   7.012 -1.4157 -0.4771  0.7015
  102OSM    C3F10272   2.469   0.464   7.015  0.5417  0.8440 -0.6437
  102OSM    H3F10273   2.427   0.411   6.927 -1.1519 -1.9458  1.6959
  102OSM    H3G10274   2.525   0.395   7.082  1.5716  2.2933  0.0439
  102OSM    C4F10275   2.568   0.562   6.948 -0.1205 -0.2472  0.5862
  102OSM    H4F10276   2.608   0.629   7.028 -0.0729 -0.0310  0.3847
  102OSM    H4G10277   2.515   0.630   6.878  1.8724  0.8474  0.0561
  102OSM    C5F10278   2.677   0.487   6.874  0.5878  0.5213  0.5843
  102OSM    H5F10279   2.632   0.441   6.782 -2.1019  1.2835  1.4358
  102OSM    H5G10280   2.709   0.408   6.945  1.2599  0.1091 -0.1575
  102OSM    C6F10281   2.805   0.561   6.836 -0.3086 -0.1921 -0.2193
  102OSM    H6F10282   2.850   0.605   6.929 -2.4598 -1.7954  1.6951
  102OSM    H6G10283   2.776   0.649   6.775 -1.8077 -0.5964 -0.1344
  102OSM    C7F10284   2.913   0.492   6.752  0.3233 -0.1633  0.3131
  102OSM    H7F10285   2.880   0.437   6.661 -1.1955 -1.5336  1.6173
  102OSM    H7G10286   2.939   0.406   6.818  2.8878  0.5188  0.2728
  102OSM    C8F10287   3.025   0.589   6.711 -0.3241 -0.2936 -0.4377
  102OSM    H8F10288   3.080   0.631   6.798 -0.5852 -0.2003 -0.3187
  102OSM    H8G10289   2.980   0.683   6.674 -0.8090  0.2775  1.5253
  102OSM    C9F10290   3.123   0.538   6.608  0.1844 -0.9025  0.0833
  102OSM    H9F10291   3.213   0.497   6.657  1.4736  1.2509 -0.3557
  102OSM   C10F10292   3.108   0.552   6.473 -0.9978  0.0708  0.3170
  102OSM   H10F10293   3.186   0.510   6.409  0.1190  0.7098  1.2245
  102OSM   C11F10294   2.992   0.609   6.402  0.2550  0.7432  0.3243
  102OSM   H11F10295   2.940   0.691   6.455 -1.8607  0.8503 -1.7721
  102OSM   H11G10296   2.911   0.533   6.395  2.8382 -2.1489 -0.5468
  102OSM   C12F10297   3.040   0.656   6.265 -0.1320 -0.1855 -0.2465
  102OSM   H12F10298   3.112   0.582   6.223  2.2494  1.0590  1.3742
  102OSM   H12G10299   3.092   0.754   6.274  2.6106 -1.6578  1.4496
  102OSM   C13F10300   2.924   0.670   6.166 -0.8187 -0.1879 -0.5553
  102OSM   H13F10301   2.856   0.749   6.204 -0.3294 -0.5862  1.2557
  102OSM   H13G10302   2.860   0.579   6.158  1.1310 -1.6538 -0.2078
  102OSM   C14F10303   2.963   0.704   6.021  1.1190  0.0466 -0.3456
  102OSM   H14F10304   3.031   0.627   5.978 -0.5589 -0.0379 -3.0721
  102OSM   H14G10305   3.015   0.801   6.034 -1.5720  1.9345 -2.3453
  102OSM   C15F10306   2.842   0.721   5.934 -0.0642  0.4296 -0.5722
  102OSM   H15F10307   2.775   0.794   5.984  1.0559  1.3446 -0.3733
  102OSM   H15G10308   2.790   0.623   5.925 -0.9071  0.9472 -1.5338
  102OSM   C16F10309   2.876   0.764   5.797  1.0168 -0.1788  0.3644
  102OSM   H16F10310   2.932   0.681   5.750  0.4018  0.2509 -1.1971
  102OSM   H16G10311   2.944   0.852   5.793 -0.5671  1.0745 -0.3208
  102OSM   C17F10312   2.743   0.789   5.704 -0.1992  0.1386 -1.1430
  102OSM   H17F10313   2.711   0.895   5.719 -0.0353  0.2475 -1.5509
  102OSM   H17G10314   2.653   0.728   5.725  0.9474 -0.2645  3.7740
  102OSM   C18F10315   2.783   0.767   5.564 -0.8109  0.0341  0.6066
  102OSM   H18F10316   2.838   0.857   5.530 -1.1305  0.5122  1.3119
  102OSM   H18G10317   2.693   0.764   5.499  0.6559  1.1901 -1.6006
  102OSM   H18H10318   2.833   0.673   5.531  0.5474 -0.4301  3.6235
  103OSM      N10319   1.629   4.449   7.879  0.7661 -0.2590 -0.1311
  103OSM    C1510320   1.513   4.353   7.847  0.0110  0.3783  0.5421
  103OSM   H15A10321   1.531   4.251   7.878  0.5016 -0.6600 -2.6937
  103OSM   H15B10322   1.495   4.347   7.740 -1.0594 -0.7293  0.7673
  103OSM   H15C10323   1.423   4.387   7.894  0.3075 -0.6637  1.9289
  103OSM    C1410324   1.569   4.586   7.860 -0.8292 -0.1855 -0.7600
  103OSM   H14A10325   1.477   4.603   7.913  0.2163  2.0220  0.4995
  103OSM   H14B10326   1.548   4.594   7.754  1.5737 -0.5481 -1.3285
  103OSM   H14C10327   1.631   4.661   7.907 -0.6549 -0.0070 -1.2654
  103OSM    C1310328   1.663   4.434   8.020  0.6794  0.0826  0.1545
  103OSM   H13A10329   1.574   4.417   8.079  0.3366 -0.9033 -0.6121
  103OSM   H13B10330   1.712   4.526   8.049  1.2356  0.1747 -1.0239
  103OSM   H13C10331   1.728   4.349   8.031 -1.4758 -1.7279 -0.4397
  103OSM    C1210332   1.746   4.418   7.789 -0.1156 -0.0832  0.1314
  103OSM   H12A10333   1.773   4.317   7.815 -1.3462 -0.4300  0.0931
  103OSM   H12B10334   1.829   4.484   7.811 -0.1479 -0.0931  0.2835
  103OSM    C1110335   1.730   4.434   7.633  0.2751 -0.4627 -0.0088
  103OSM   H11A10336   1.633   4.385   7.608  0.3036  0.3708 -1.9048
  103OSM   H11B10337   1.813   4.378   7.585 -0.0062 -2.3323  1.5714
  103OSM      P10338   1.846   4.653   7.599  0.2805 -0.2805  0.1507
  103OSM    O1310339   1.837   4.789   7.548  0.0779  0.5085  0.1398
  103OSM    O1410340   1.904   4.640   7.731  0.5578 -0.5170  0.0615
  103OSM    O1110341   1.947   4.575   7.513  0.6613 -0.1221  0.4014
  103OSM    O1210342   1.715   4.571   7.583 -0.4420 -0.8371 -0.7145
  103OSM    C1S10343   1.919   4.537   7.377 -0.3901 -0.9255  0.4160
  103OSM    H1S10344   1.821   4.490   7.353  0.0350 -1.8336  0.4414
  103OSM    H1T10345   1.987   4.454   7.349  0.0279 -0.0220 -1.4115
  103OSM     NF10346   1.933   4.591   7.139  0.5578  0.0678 -0.2045
  103OSM    HNF10347   2.010   4.566   7.080  0.0216 -2.1371 -0.0537
  103OSM    C2S10348   1.954   4.646   7.267  0.1968 -0.0710 -0.1065
  103OSM    H2S10349   1.881   4.729   7.283 -0.9229 -1.1091  0.3005
  103OSM    C3S10350   2.101   4.695   7.283 -0.2347 -0.1426  0.1556
  103OSM    H3S10351   2.156   4.599   7.281  2.8654  1.5077 -0.1797
  103OSM     O310352   2.130   4.755   7.408  0.3455  0.3162  0.2145
  103OSM    HO310353   2.051   4.740   7.461  0.9844  1.3438  1.5103
  103OSM    C4S10354   2.158   4.772   7.162 -0.3742  0.2830  0.0051
  103OSM    H4S10355   2.215   4.715   7.087  3.6665  2.0727  1.4482
  103OSM    C5S10356   2.140   4.901   7.141 -0.2339 -1.4164 -0.8051
  103OSM    H5S10357   2.084   4.957   7.217 -0.4482 -3.1992  0.4053
  103OSM    C6S10358   2.181   4.967   7.006 -0.4646  1.0261 -0.7024
  103OSM    H6S10359   2.273   5.024   7.027  0.6379 -0.0566 -2.3866
  103OSM    H6T10360   2.096   5.030   6.971 -0.3712 -0.0672 -3.1421
  103OSM    C7S10361   2.209   4.876   6.887 -0.0664  0.2632  0.4846
  103OSM    H7S10362   2.122   4.808   6.876 -0.2679  0.3985  1.1917
  103OSM    H7T10363   2.297   4.812   6.909  0.4231  1.0363  0.8210
  103OSM    C8S10364   2.224   4.967   6.766  0.2467  0.1139 -0.2723
  103OSM    H8S10365   2.306   5.034   6.798 -0.7883  0.7124  1.2548
  103OSM    H8T10366   2.137   5.032   6.744  0.7985  1.0130  0.1624
  103OSM    C9S10367   2.267   4.886   6.643  0.2884  0.2700  0.5847
  103OSM    H9S10368   2.177   4.842   6.595 -0.1357  0.1040  1.5073
  103OSM    H9T10369   2.331   4.803   6.682  0.2872 -0.4176 -0.8168
  103OSM   C10S10370   2.344   4.973   6.541 -0.7364 -0.3684  0.1085
  103OSM   H10S10371   2.444   5.011   6.571  0.7930 -1.6583 -2.8762
  103OSM   H10T10372   2.286   5.067   6.526  1.2420  0.7862 -0.6437
  103OSM   C11S10373   2.355   4.916   6.402 -0.1425 -0.3993 -0.5070
  103OSM   H11S10374   2.394   4.812   6.409 -0.3663 -0.4822 -0.5053
  103OSM   H11T10375   2.429   4.970   6.339  1.0580 -1.5742 -0.1467
  103OSM   C12S10376   2.224   4.925   6.320 -0.3320 -0.4125  0.9073
  103OSM   H12S10377   2.175   5.023   6.334 -2.7348 -1.5911  1.3253
  103OSM   H12T10378   2.147   4.848   6.345 -0.1918 -1.6175 -1.9628
  103OSM   C13S10379   2.253   4.902   6.163 -0.1188  0.0180 -0.1421
  103OSM   H13S10380   2.298   4.801   6.155  0.9068  0.4767 -0.2569
  103OSM   H13T10381   2.310   4.995   6.141 -0.1167 -0.1815 -1.0072
  103OSM   C14S10382   2.130   4.913   6.079 -0.0606 -0.2002  0.4062
  103OSM   H14S10383   2.068   4.996   6.120  2.4455  0.6227  2.8360
  103OSM   H14T10384   2.065   4.823   6.088 -2.6315  1.6614  2.1255
  103OSM   C15S10385   2.163   4.932   5.924  0.0139  0.3826 -0.5111
  103OSM   H15S10386   2.206   4.836   5.888  1.1471  0.7057 -0.0663
  103OSM   H15T10387   2.242   5.009   5.911  0.5408 -0.0464  0.0962
  103OSM   C16S10388   2.038   4.965   5.832 -0.5950 -0.2511 -0.3262
  103OSM   H16S10389   1.991   5.061   5.861 -1.0369 -1.0259  1.6771
  103OSM   H16T10390   1.956   4.894   5.852  0.2034 -1.0450  0.1577
  103OSM   C17S10391   2.075   4.950   5.683 -0.2298 -0.3849  0.4015
  103OSM   H17S10392   1.983   4.957   5.621  0.3081 -0.3861 -0.4113
  103OSM   H17T10393   2.125   4.852   5.669  0.9541 -0.2246  2.9185
  103OSM   C18S10394   2.171   5.061   5.622  0.3944 -0.1406 -0.0572
  103OSM   H18S10395   2.120   5.160   5.619  0.1337 -0.2815 -1.9818
  103OSM   H18T10396   2.212   5.040   5.521  2.2078 -2.6714  1.0878
  103OSM   H18U10397   2.259   5.072   5.689  0.8414  0.5652 -0.7386
  103OSM    C1F10398   1.820   4.556   7.086 -0.1302  0.4065  0.7577
  103OSM     OF10399   1.712   4.551   7.147 -0.4293  0.5850 -0.0503
  103OSM    C2F10400   1.829   4.514   6.940  0.7288 -0.1406  1.0950
  103OSM    H2F10401   1.732   4.467   6.914 -0.2806  2.2936  0.0892
  103OSM    H2G10402   1.906   4.434   6.935  0.0619 -1.2266  4.9216
  103OSM    C3F10403   1.885   4.626   6.847 -0.0696 -0.0713 -1.2525
  103OSM    H3F10404   1.995   4.632   6.865  0.2252 -5.0106  0.0409
  103OSM    H3G10405   1.833   4.722   6.865 -2.0421 -0.7120 -3.0902
  103OSM    C4F10406   1.850   4.584   6.702 -0.4252  0.2081  0.3474
  103OSM    H4F10407   1.740   4.592   6.712 -0.3267  1.7472  0.4371
  103OSM    H4G10408   1.883   4.481   6.676  1.6870  0.4418  1.7834
  103OSM    C5F10409   1.896   4.690   6.597 -0.4851  0.0679  0.3041
  103OSM    H5F10410   2.001   4.672   6.565 -0.0653  1.9201  0.5460
  103OSM    H5G10411   1.894   4.788   6.650 -0.7118 -0.9155  2.2191
  103OSM    C6F10412   1.798   4.710   6.473  0.1267 -0.6512 -0.3811
  103OSM    H6F10413   1.733   4.796   6.500 -1.9520 -2.4528  0.6874
  103OSM    H6G10414   1.736   4.618   6.464 -0.5345 -0.2134 -0.3961
  103OSM    C7F10415   1.882   4.742   6.351 -0.2270  0.0480  0.0450
  103OSM    H7F10416   1.955   4.819   6.385  0.3848 -1.1330  1.5366
  103OSM    H7G10417   1.819   4.791   6.274 -2.8928  0.7752  2.5014
  103OSM    C8F10418   1.953   4.619   6.291 -0.1382 -0.1537  0.1892
  103OSM    H8F10419   2.010   4.564   6.369 -0.6848 -2.3384 -0.8673
  103OSM    H8G10420   2.028   4.670   6.227  1.7934 -0.4148  2.1126
  103OSM    C9F10421   1.865   4.517   6.230 -0.5076  0.8734  0.3244
  103OSM    H9F10422   1.795   4.469   6.300  0.2277  0.7751  1.0052
  103OSM   C10F10423   1.873   4.475   6.105  0.5967  0.2307 -0.4210
  103OSM   H10F10424   1.809   4.390   6.076  0.2425 -0.6114  2.5530
  103OSM   C11F10425   1.960   4.516   5.992 -0.0527 -0.9034  0.0225
  103OSM   H11F10426   2.022   4.445   5.934 -1.1540  0.2152 -2.7151
  103OSM   H11G10427   2.030   4.600   6.014  1.3666 -2.1762  0.5349
  103OSM   C12F10428   1.863   4.566   5.888 -0.4076 -0.3780 -0.5958
  103OSM   H12F10429   1.794   4.642   5.931  0.7676 -0.3300  1.3123
  103OSM   H12G10430   1.795   4.484   5.856  0.2378 -0.7876 -0.9290
  103OSM   C13F10431   1.929   4.620   5.757 -0.5830 -0.5431  0.3988
  103OSM   H13F10432   2.032   4.651   5.784 -1.0798  1.2563  0.3170
  103OSM   H13G10433   1.874   4.710   5.724  0.6315  0.2293  0.4134
  103OSM   C14F10434   1.941   4.520   5.639 -1.1869  0.0805 -0.1564
  103OSM   H14F10435   1.839   4.499   5.600 -1.2170 -0.8408  0.3668
  103OSM   H14G10436   1.988   4.426   5.677  2.0911  1.8389  0.4959
  103OSM   C15F10437   2.028   4.565   5.527  0.4454 -0.1452 -0.0349
  103OSM   H15F10438   2.001   4.671   5.505  0.9703  0.4158  1.8177
  103OSM   H15G10439   2.014   4.506   5.434 -0.2055  0.3591 -0.2679
  103OSM   C16F10440   2.178   4.585   5.558  0.3571 -0.1648  0.0755
  103OSM   H16F10441   2.214   4.483   5.583 -0.7046 -1.0634 -1.8378
  103OSM   H16G10442   2.202   4.664   5.632  3.5936  0.7815 -1.7518
  103OSM   C17F10443   2.252   4.631   5.433  0.0350 -0.7263 -0.3499
  103OSM   H17F10444   2.341   4.692   5.458  1.6909 -2.1888 -2.2765
  103OSM   H17G10445   2.188   4.698   5.372  1.0253  0.5910  0.0252
  103OSM   C18F10446   2.307   4.515   5.342  0.4708  0.1351  0.4178
  103OSM   H18F10447   2.224   4.456   5.296 -1.0731  3.0038 -0.7594
  103OSM   H18G10448   2.370   4.445   5.401 -0.9277 -2.4707 -0.9928
  103OSM   H18H10449   2.373   4.549   5.260  0.9048 -0.7374  0.3996
  104OSM      N10450   1.878   1.052   7.671  0.2610  0.3972  0.0103
  104OSM    C1510451   1.866   1.157   7.772  0.2203 -0.3256 -0.2418
  104OSM   H15A10452   1.823   1.116   7.863 -1.0779 -0.4402 -0.8813
  104OSM   H15B10453   1.800   1.239   7.748 -2.5436 -1.4151  2.7418
  104OSM   H15C10454   1.967   1.189   7.793  0.7597 -1.6566 -0.6903
  104OSM    C1410455   1.970   0.941   7.711  0.0261 -0.6297 -1.0473
  104OSM   H14A10456   1.921   0.884   7.789 -0.2308 -1.1611 -1.5864
  104OSM   H14B10457   2.062   0.985   7.747 -0.2907 -1.6978  1.2846
  104OSM   H14C10458   1.989   0.869   7.633 -1.9820 -3.6063  0.9935
  104OSM    C1310459   1.748   1.004   7.630  0.2001 -0.0754  0.4112
  104OSM   H13A10460   1.690   0.965   7.712  0.0281 -1.5885 -0.4013
  104OSM   H13B10461   1.769   0.922   7.563 -1.9170 -0.1118 -0.3020
  104OSM   H13C10462   1.687   1.080   7.582 -3.5513 -2.6165  0.6673
  104OSM    C1210463   1.929   1.122   7.546  0.0514  0.0557 -0.2163
  104OSM   H12A10464   1.855   1.193   7.513 -0.6972 -0.6676 -0.1339
  104OSM   H12B10465   1.933   1.045   7.470  2.1605  0.6192 -0.7509
  104OSM    C1110466   2.065   1.194   7.542  0.2998 -0.0207 -0.4690
  104OSM   H11A10467   2.055   1.275   7.618 -2.4304  1.0638 -1.8503
  104OSM   H11B10468   2.070   1.251   7.447 -0.4399  0.9051  0.0271
  104OSM      P10469   2.230   1.022   7.449  0.0259  0.3950  0.0454
  104OSM    O1310470   2.361   0.963   7.488 -0.3687 -0.2328  0.0784
  104OSM    O1410471   2.127   0.934   7.386  0.6726 -0.0885  0.0269
  104OSM    O1110472   2.263   1.144   7.350  0.7053  0.2087 -0.0361
  104OSM    O1210473   2.173   1.103   7.568 -0.3346 -0.0160  0.1122
  104OSM    C1S10474   2.352   1.136   7.240 -0.0747 -0.2462 -0.0263
  104OSM    H1S10475   2.404   1.038   7.239 -1.3070 -0.9347  1.3172
  104OSM    H1T10476   2.436   1.206   7.260 -1.4243  1.4992 -0.1870
  104OSM     NF10477   2.393   1.133   6.998  0.1629 -1.0831 -0.5911
  104OSM    HNF10478   2.447   1.207   6.958 -1.3702  0.1743 -0.4217
  104OSM    C2S10479   2.295   1.175   7.099  0.3868 -0.2310 -0.5047
  104OSM    H2S10480   2.205   1.111   7.087  0.5046 -0.4843 -0.0471
  104OSM    C3S10481   2.255   1.318   7.094 -0.3113  0.2102  0.4456
  104OSM    H3S10482   2.349   1.377   7.109  1.2634 -1.4132 -2.1664
  104OSM     O310483   2.180   1.362   7.210  0.2873 -0.3969  0.4313
  104OSM    HO310484   2.199   1.294   7.274 -0.9065 -2.6908 -1.4736
  104OSM    C4S10485   2.188   1.363   6.976  0.4105  0.0877  0.3000
  104OSM    H4S10486   2.087   1.321   6.967 -0.1454  1.2758  0.7654
  104OSM    C5S10487   2.235   1.458   6.887 -1.0155  0.1935 -0.4817
  104OSM    H5S10488   2.318   1.521   6.922 -0.1290 -0.8701 -0.6401
  104OSM    C6S10489   2.173   1.500   6.759 -0.1576 -0.7661  0.6496
  104OSM    H6S10490   2.064   1.522   6.764  0.4073  2.3600  1.4159
  104OSM    H6T10491   2.200   1.434   6.674  0.6133 -0.2685  0.4992
  104OSM    C7S10492   2.249   1.617   6.697  0.5555  0.1467 -0.0309
  104OSM    H7S10493   2.355   1.593   6.673  2.0390  2.0070  3.9137
  104OSM    H7T10494   2.248   1.708   6.760  0.2844  1.2506 -1.5817
  104OSM    C8S10495   2.185   1.665   6.565  0.2979  0.7606 -0.6735
  104OSM    H8S10496   2.079   1.688   6.588 -0.2135 -1.7020 -0.2923
  104OSM    H8T10497   2.199   1.583   6.492 -0.2536  0.4109 -0.3916
  104OSM    C9S10498   2.250   1.791   6.496 -0.7126  0.3431  0.2654
  104OSM    H9S10499   2.360   1.781   6.485 -0.9450 -0.5217 -2.0318
  104OSM    H9T10500   2.240   1.885   6.554  0.1380  0.6859 -0.1206
  104OSM   C10S10501   2.200   1.820   6.354  0.4425  0.7107  0.1281
  104OSM   H10S10502   2.229   1.730   6.295 -1.1082 -0.7985  1.5682
  104OSM   H10T10503   2.258   1.905   6.314  2.6599 -1.0174 -0.5591
  104OSM   C11S10504   2.045   1.851   6.332  0.0661  0.1990 -0.4621
  104OSM   H11S10505   2.024   1.937   6.400  1.7663  0.3924 -0.1405
  104OSM   H11T10506   1.974   1.770   6.362 -1.1377  0.9680 -1.1287
  104OSM   C12S10507   2.002   1.886   6.195 -0.3522 -0.1709 -0.0382
  104OSM   H12S10508   2.031   1.987   6.158 -1.3223  1.0919  2.4325
  104OSM   H12T10509   1.891   1.890   6.190 -0.3002  2.0538 -0.4203
  104OSM   C13S10510   2.066   1.785   6.092 -0.3062 -0.0951 -0.5935
  104OSM   H13S10511   2.048   1.682   6.128 -2.4941  0.1021 -1.0055
  104OSM   H13T10512   2.177   1.794   6.096 -0.1347 -2.0103 -0.4638
  104OSM   C14S10513   2.009   1.792   5.948  0.1211 -0.1548  1.2546
  104OSM   H14S10514   1.900   1.770   5.950  0.3282 -1.5705 -0.8972
  104OSM   H14T10515   2.047   1.711   5.883 -0.7076  1.6200 -1.6163
  104OSM   C15S10516   2.049   1.930   5.883 -1.1575  0.4127  0.0404
  104OSM   H15S10517   2.160   1.938   5.886 -1.2192  0.9826  2.0652
  104OSM   H15T10518   1.989   2.016   5.920 -2.4594  0.1486 -1.3332
  104OSM   C16S10519   2.004   1.931   5.734 -0.1834 -0.2074 -0.1133
  104OSM   H16S10520   2.028   2.029   5.688 -1.0159  0.2227  0.3462
  104OSM   H16T10521   1.893   1.925   5.729 -0.3461  2.6051 -2.4673
  104OSM   C17S10522   2.063   1.840   5.630 -0.3680 -0.4600 -0.1565
  104OSM   H17S10523   2.033   1.737   5.659 -0.6420 -0.1859  0.5380
  104OSM   H17T10524   2.172   1.862   5.625 -0.2873 -1.0748 -2.0186
  104OSM   C18S10525   1.995   1.858   5.495 -0.0638 -0.1139  0.0413
  104OSM   H18S10526   2.046   1.783   5.431  0.8968 -1.9192  2.7332
  104OSM   H18T10527   1.992   1.964   5.463 -3.6842  0.6158  2.2239
  104OSM   H18U10528   1.884   1.848   5.495 -0.0931  0.1630 -0.8104
  104OSM    C1F10529   2.422   1.007   6.972  0.1175  0.2105  1.0098
  104OSM     OF10530   2.378   0.916   7.041  0.3904  0.1929  0.1937
  104OSM    C2F10531   2.522   0.988   6.863 -0.0969  0.0292  0.2351
  104OSM    H2F10532   2.595   0.910   6.894 -1.2391 -1.4962 -0.7412
  104OSM    H2G10533   2.580   1.082   6.860  0.2638 -0.2006 -0.1980
  104OSM    C3F10534   2.455   0.955   6.724  0.0840  0.6514 -0.2527
  104OSM    H3F10535   2.369   0.885   6.730 -0.9039  1.6854 -1.7123
  104OSM    H3G10536   2.538   0.909   6.666 -0.7628 -0.6607 -0.4804
  104OSM    C4F10537   2.419   1.081   6.642 -0.2869  0.8591  0.7935
  104OSM    H4F10538   2.511   1.142   6.652 -0.7973  1.2546  4.6339
  104OSM    H4G10539   2.329   1.126   6.689 -0.3599  1.3113  0.2225
  104OSM    C5F10540   2.391   1.061   6.490 -0.3641 -0.4289 -0.0843
  104OSM    H5F10541   2.322   0.974   6.479 -0.9056 -0.1853  1.1858
  104OSM    H5G10542   2.492   1.045   6.449  0.1803  1.3052  0.5021
  104OSM    C6F10543   2.328   1.182   6.417  0.0412 -0.7546 -0.0947
  104OSM    H6F10544   2.404   1.255   6.451 -2.0594  0.9158  1.2908
  104OSM    H6G10545   2.236   1.230   6.456 -1.2998 -1.8254 -1.7898
  104OSM    C7F10546   2.316   1.163   6.262  0.2418 -0.3561 -0.0877
  104OSM    H7F10547   2.256   1.074   6.233  1.7364 -0.8946 -1.7209
  104OSM    H7G10548   2.417   1.138   6.223  1.3623  0.6417  2.0249
  104OSM    C8F10549   2.270   1.284   6.179  0.0008 -0.2487 -0.1895
  104OSM    H8F10550   2.290   1.266   6.071  0.8432 -0.2412 -0.0378
  104OSM    H8G10551   2.333   1.367   6.216 -2.6066  1.7421  0.0456
  104OSM    C9F10552   2.129   1.325   6.210  0.8882 -0.5680 -0.2227
  104OSM    H9F10553   2.124   1.395   6.295  1.0839 -0.7213 -0.0827
  104OSM   C10F10554   2.019   1.294   6.133 -0.2418  0.4415  0.4360
  104OSM   H10F10555   1.924   1.340   6.164 -0.4784 -0.2240  0.7009
  104OSM   C11F10556   2.000   1.216   6.005  0.1975  0.2056  0.0233
  104OSM   H11F10557   1.927   1.135   6.026  0.8906 -0.7479 -1.0889
  104OSM   H11G10558   2.092   1.156   5.984  0.1574 -0.8273  2.4565
  104OSM   C12F10559   1.956   1.307   5.892 -0.0080  0.3702  0.2004
  104OSM   H12F10560   2.042   1.375   5.876 -1.0284  1.8368  0.7654
  104OSM   H12G10561   1.863   1.360   5.922  0.3104  0.6760  0.6674
  104OSM   C13F10562   1.936   1.218   5.772 -0.0492  0.6082 -0.3400
  104OSM   H13F10563   1.866   1.136   5.801  1.8077 -1.0377 -0.2809
  104OSM   H13G10564   2.029   1.161   5.747 -0.5163  0.2922 -1.4391
  104OSM   C14F10565   1.917   1.304   5.643  0.0094  0.4984  0.3597
  104OSM   H14F10566   2.003   1.373   5.653  1.3833 -0.8552 -1.4113
  104OSM   H14G10567   1.821   1.359   5.650 -1.6118 -1.7834 -2.0864
  104OSM   C15F10568   1.941   1.227   5.515 -0.0418 -0.2307  0.3853
  104OSM   H15F10569   1.864   1.147   5.515 -2.0975  1.6412  1.6990
  104OSM   H15G10570   2.048   1.198   5.515 -0.8782 -3.7249  1.0876
  104OSM   C16F10571   1.920   1.308   5.390 -0.7748 -0.1544  0.6162
  104OSM   H16F10572   1.982   1.400   5.387 -0.4297 -0.3318  1.9888
  104OSM   H16G10573   1.813   1.335   5.380 -1.5260 -2.7182  0.9787
  104OSM   C17F10574   1.949   1.233   5.260 -0.1361  0.2989 -0.0727
  104OSM   H17F10575   1.877   1.148   5.255  0.2230  0.0597 -1.5759
  104OSM   H17G10576   2.049   1.185   5.255 -0.4956 -0.3435 -2.4099
  104OSM   C18F10577   1.934   1.320   5.141 -0.1539 -0.2826  0.9430
  104OSM   H18F10578   1.958   1.265   5.047  1.5492  1.3001  0.3977
  104OSM   H18G10579   2.012   1.399   5.143  0.5814 -0.9933  1.9492
  104OSM   H18H10580   1.834   1.365   5.127 -0.8786 -1.5971  1.7089
  105OSM      N10581   3.116   2.707   7.752  0.4468  0.2598 -0.2800
  105OSM    C1510582   3.234   2.735   7.664  1.0003  0.1983 -0.1983
  105OSM   H15A10583   3.320   2.677   7.695  0.4320 -0.1526  0.7943
  105OSM   H15B10584   3.257   2.841   7.661  0.2355  0.3552 -0.8509
  105OSM   H15C10585   3.215   2.698   7.565 -0.4015 -0.7761  0.4010
  105OSM    C1410586   3.150   2.768   7.877 -0.4876  0.1117 -0.1847
  105OSM   H14A10587   3.165   2.874   7.859 -0.8579  0.2123  0.0781
  105OSM   H14B10588   3.237   2.718   7.914  0.6659  0.8122 -1.8175
  105OSM   H14C10589   3.070   2.759   7.949 -0.4978  0.5282 -0.1381
  105OSM    C1310590   3.002   2.792   7.695 -0.1830  0.3917  0.6855
  105OSM   H13A10591   2.925   2.815   7.766  0.9655  1.7411  1.5432
  105OSM   H13B10592   2.947   2.746   7.614 -0.8964  0.2366  1.2497
  105OSM   H13C10593   3.055   2.876   7.652  1.3882 -0.7049  0.3593
  105OSM    C1210594   3.084   2.556   7.762 -0.8094  0.6640  0.3444
  105OSM   H12A10595   3.042   2.516   7.670 -0.7278  1.8897 -0.2438
  105OSM   H12B10596   3.009   2.544   7.838 -1.5799  1.8626 -0.1997
  105OSM    C1110597   3.199   2.455   7.806  0.2315  0.8713 -0.4808
  105OSM   H11A10598   3.269   2.507   7.875  2.0492 -0.0792 -1.5279
  105OSM   H11B10599   3.269   2.432   7.722  0.3076 -0.8656  0.0301
  105OSM      P10600   3.066   2.226   7.773  0.0183  0.0721  0.2161
  105OSM    O1310601   3.090   2.099   7.842  0.3015 -0.7234  0.1043
  105OSM    O1410602   2.929   2.282   7.760  0.3772  0.1463 -0.5601
  105OSM    O1110603   3.146   2.230   7.638 -0.0001  0.1099 -0.1408
  105OSM    O1210604   3.135   2.338   7.863 -0.3443  0.0844 -0.6579
  105OSM    C1S10605   3.108   2.151   7.524  0.1856  0.2695  0.2552
  105OSM    H1S10606   3.000   2.142   7.499  0.0769  0.2451  0.7312
  105OSM    H1T10607   3.156   2.051   7.537 -0.1107  0.0879 -0.0030
  105OSM     NF10608   3.111   2.146   7.282 -0.1422 -0.1916  0.2741
  105OSM    HNF10609   3.166   2.073   7.242  0.4027  0.3596 -0.0005
  105OSM    C2S10610   3.167   2.207   7.394 -1.0298  0.2724 -0.2199
  105OSM    H2S10611   3.128   2.311   7.393 -0.7143  0.3958  0.3896
  105OSM    C3S10612   3.325   2.216   7.403  0.2545  0.3384 -0.1657
  105OSM    H3S10613   3.347   2.107   7.404  0.5063  0.3790 -0.8236
  105OSM     O310614   3.387   2.250   7.528 -0.3564 -0.3775 -0.2442
  105OSM    HO310615   3.316   2.238   7.591 -0.3714  0.4280 -0.0917
  105OSM    C4S10616   3.378   2.259   7.277  0.0593  0.2513  0.9123
  105OSM    H4S10617   3.390   2.177   7.204  2.6763  0.9112  0.4900
  105OSM    C5S10618   3.416   2.384   7.239 -0.0835 -0.3309  0.2155
  105OSM    H5S10619   3.403   2.458   7.319 -2.5815  2.0967 -2.2166
  105OSM    C6S10620   3.476   2.440   7.115  0.4575 -0.1402  0.5382
  105OSM    H6S10621   3.574   2.479   7.151  1.0974  0.0848 -1.3206
  105OSM    H6T10622   3.417   2.526   7.077  2.5113  1.0887 -0.0324
  105OSM    C7S10623   3.512   2.337   7.010 -0.1344 -0.6499  0.6502
  105OSM    H7S10624   3.427   2.284   6.961  1.9422 -2.2214 -1.4667
  105OSM    H7T10625   3.583   2.260   7.048 -1.5083 -1.7379  1.1026
  105OSM    C8S10626   3.570   2.406   6.890  0.1326  0.0045 -0.8414
  105OSM    H8S10627   3.647   2.480   6.921  0.8130 -1.5592  1.4649
  105OSM    H8T10628   3.490   2.468   6.843  0.5358  0.6238 -0.7139
  105OSM    C9S10629   3.647   2.307   6.798 -1.0194 -0.0102 -0.2171
  105OSM    H9S10630   3.577   2.225   6.773 -4.2258  2.0104  1.5038
  105OSM    H9T10631   3.736   2.268   6.852 -1.8209  1.5594  2.4409
  105OSM   C10S10632   3.678   2.381   6.667 -0.3216 -0.2553 -0.4094
  105OSM   H10S10633   3.757   2.458   6.679 -0.6654  0.2306 -1.2174
  105OSM   H10T10634   3.585   2.432   6.636  0.4630  1.9502  0.5981
  105OSM   C11S10635   3.720   2.288   6.543 -0.9106 -0.0577 -0.6507
  105OSM   H11S10636   3.657   2.315   6.455 -1.0673 -1.0804 -0.8576
  105OSM   H11T10637   3.706   2.185   6.582  1.5918  0.7440  2.8820
  105OSM   C12S10638   3.863   2.309   6.502 -0.6226 -0.1584 -0.3885
  105OSM   H12S10639   3.870   2.418   6.481  2.5327  0.1452  1.5616
  105OSM   H12T10640   3.902   2.268   6.407  0.9784  1.0851 -0.3115
  105OSM   C13S10641   3.963   2.285   6.617  0.6866 -0.3477  0.0097
  105OSM   H13S10642   3.939   2.181   6.648 -0.8083 -0.0364 -0.0193
  105OSM   H13T10643   3.953   2.355   6.703 -2.3518  0.6306 -1.0100
  105OSM   C14S10644   4.114   2.283   6.571  0.3237 -0.2093 -0.0668
  105OSM   H14S10645   4.125   2.230   6.473  1.8786  2.5361 -1.4798
  105OSM   H14T10646   4.164   2.234   6.657 -2.5771 -0.4654  1.5928
  105OSM   C15S10647   4.161   2.425   6.561 -0.5796 -0.7225  1.0948
  105OSM   H15S10648   4.154   2.483   6.655  1.2058 -1.1852  1.5528
  105OSM   H15T10649   4.097   2.472   6.482  1.4313  0.0633 -0.1539
  105OSM   C16S10650   4.312   2.433   6.519 -0.4511  0.7882  0.1376
  105OSM   H16S10651   4.382   2.368   6.578 -0.1714  2.1975  1.4195
  105OSM   H16T10652   4.355   2.535   6.523  0.7445  0.2890  0.6011
  105OSM   C17S10653   4.332   2.396   6.373 -0.7348  0.4221 -0.7185
  105OSM   H17S10654   4.292   2.295   6.347  2.2975 -0.4720 -2.4364
  105OSM   H17T10655   4.440   2.376   6.352 -1.1564 -0.8583 -1.8077
  105OSM   C18S10656   4.279   2.502   6.278 -0.6054  0.2784 -0.0487
  105OSM   H18S10657   4.321   2.490   6.175 -1.0052 -0.0762 -0.1699
  105OSM   H18T10658   4.307   2.606   6.308  1.1533 -0.2443  0.2637
  105OSM   H18U10659   4.169   2.496   6.266 -0.5080 -1.5704 -0.1880
  105OSM    C1F10660   2.991   2.163   7.238  0.9609  0.2063 -0.4492
  105OSM     OF10661   2.916   2.239   7.303 -0.4545 -0.0180  0.2646
  105OSM    C2F10662   2.942   2.084   7.119  0.6318 -0.4587 -0.2609
  105OSM    H2F10663   2.862   2.016   7.155 -0.4291  0.4215 -0.8731
  105OSM    H2G10664   3.026   2.020   7.085 -0.0626 -1.7812  0.4335
  105OSM    C3F10665   2.881   2.189   7.018  0.1419 -0.8979 -0.6049
  105OSM    H3F10666   2.779   2.223   7.047  1.0961  1.0709  0.6458
  105OSM    H3G10667   2.863   2.142   6.919  0.4220 -1.4474 -0.4017
  105OSM    C4F10668   2.962   2.322   6.987  0.6705  0.1015 -0.9826
  105OSM    H4F10669   2.967   2.384   7.079 -2.7904 -0.7412 -0.1072
  105OSM    H4G10670   2.907   2.379   6.909  0.8472 -1.3642 -2.2396
  105OSM    C5F10671   3.102   2.302   6.940  0.0208  0.1036 -0.0548
  105OSM    H5F10672   3.131   2.199   6.970 -0.4536 -0.2958 -0.9328
  105OSM    H5G10673   3.172   2.368   6.996  1.8874 -1.0445 -0.9449
  105OSM    C6F10674   3.133   2.342   6.794 -0.5336  0.3470 -0.0253
  105OSM    H6F10675   3.048   2.317   6.726 -0.1195  1.5930 -1.0353
  105OSM    H6G10676   3.219   2.278   6.764 -0.4135  0.5772 -0.1772
  105OSM    C7F10677   3.160   2.490   6.776 -0.3237 -0.0836  0.7195
  105OSM    H7F10678   3.250   2.519   6.834  0.3046 -0.5796  0.0136
  105OSM    H7G10679   3.077   2.535   6.835  0.8157  0.5459  1.8978
  105OSM    C8F10680   3.174   2.540   6.631 -0.0201 -0.1729  0.2385
  105OSM    H8F10681   3.172   2.651   6.628  0.4657 -0.1768 -0.5293
  105OSM    H8G10682   3.091   2.494   6.571 -0.2562  0.6320 -0.0688
  105OSM    C9F10683   3.307   2.499   6.574  0.2137  0.1436 -0.4052
  105OSM    H9F10684   3.383   2.523   6.650 -0.5898 -0.0947  0.5059
  105OSM   C10F10685   3.343   2.444   6.460  0.4354  0.2863  0.1767
  105OSM   H10F10686   3.449   2.434   6.433  0.1400  0.7445 -1.2381
  105OSM   C11F10687   3.245   2.416   6.346 -0.5549 -0.0085  0.2526
  105OSM   H11F10688   3.147   2.464   6.367 -0.0834  2.4429 -2.4794
  105OSM   H11G10689   3.238   2.306   6.329 -1.2632  0.2035 -0.8967
  105OSM   C12F10690   3.278   2.482   6.216 -0.3623  0.0538  0.4771
  105OSM   H12F10691   3.343   2.411   6.160 -0.9328 -0.1122  0.0105
  105OSM   H12G10692   3.330   2.580   6.213  0.1832 -0.1959  1.5208
  105OSM   C13F10693   3.160   2.493   6.127  0.5489  0.2629  0.1709
  105OSM   H13F10694   3.087   2.411   6.137  0.0264 -0.0155 -4.0444
  105OSM   H13G10695   3.184   2.488   6.018 -0.1178 -1.2224  0.0819
  105OSM   C14F10696   3.090   2.628   6.159  0.6964 -0.3090 -0.7748
  105OSM   H14F10697   3.152   2.715   6.127  0.8625 -0.5618 -1.1345
  105OSM   H14G10698   3.068   2.651   6.265  1.1408  1.0497 -0.9543
  105OSM   C15F10699   2.960   2.645   6.076  0.1124  0.0416  0.0426
  105OSM   H15F10700   2.899   2.552   6.076  0.8745 -0.4730  0.7493
  105OSM   H15G10701   2.992   2.666   5.972 -0.4019  2.0184  0.2372
  105OSM   C16F10702   2.882   2.760   6.124 -0.0395 -0.1006 -0.5767
  105OSM   H16F10703   2.951   2.846   6.125  1.9989 -1.6704 -1.0333
  105OSM   H16G10704   2.836   2.750   6.225 -0.7880  2.1305 -0.6359
  105OSM   C17F10705   2.773   2.810   6.028  0.0538  0.2664 -0.0200
  105OSM   H17F10706   2.693   2.733   6.023 -0.7189  1.1190 -1.3270
  105OSM   H17G10707   2.815   2.829   5.927  1.7027  1.1202  0.7816
  105OSM   C18F10708   2.711   2.936   6.092 -1.0086 -0.1048  0.0922
  105OSM   H18F10709   2.628   2.971   6.027 -0.9552 -2.0393 -1.1259
  105OSM   H18G10710   2.775   3.024   6.112 -1.1305 -0.4468  2.2120
  105OSM   H18H10711   2.674   2.910   6.193  0.0181  1.6173  0.9412
  106OSM      N10712   6.752   3.106   7.763  0.8003  0.3694  1.1341
  106OSM    C1510713   6.885   3.038   7.772  0.4316  0.3811 -0.3327
  106OSM   H15A10714   6.930   3.036   7.871  1.4804 -1.6281 -0.8006
  106OSM   H15B10715   6.958   3.091   7.712  1.2156 -1.0784 -0.7373
  106OSM   H15C10716   6.888   2.934   7.744  2.7700  0.3857 -0.3135
  106OSM    C1410717   6.783   3.246   7.748  0.3444 -0.8534 -0.6388
  106OSM   H14A10718   6.859   3.262   7.673  1.7326 -1.8502  0.5105
  106OSM   H14B10719   6.809   3.305   7.835 -2.5313  2.1678 -1.5811
  106OSM   H14C10720   6.694   3.303   7.725 -1.1098 -2.7693  0.0808
  106OSM    C1310721   6.678   3.055   7.638 -0.5520 -0.1074  0.5179
  106OSM   H13A10722   6.729   3.078   7.546  1.0272  0.8080  1.5764
  106OSM   H13B10723   6.577   3.093   7.631 -0.3390  0.4016  0.1460
  106OSM   H13C10724   6.680   2.947   7.646  3.2017 -0.1666  0.3350
  106OSM    C1210725   6.673   3.073   7.890 -0.2099  0.8673  0.2966
  106OSM   H12A10726   6.583   3.131   7.900 -1.3994  0.0060 -3.7357
  106OSM   H12B10727   6.731   3.099   7.978 -0.4752  1.1015  0.4011
  106OSM    C1110728   6.616   2.930   7.910 -0.9544  0.2221 -0.3358
  106OSM   H11A10729   6.553   2.895   7.826 -0.0423 -0.8224 -0.6180
  106OSM   H11B10730   6.549   2.943   7.998  1.7356  2.6039  1.5387
  106OSM      P10731   6.749   2.713   7.867  0.3378  0.4995 -0.2491
  106OSM    O1310732   6.874   2.644   7.894 -0.1610 -0.1433  0.1703
  106OSM    O1410733   6.629   2.626   7.870 -0.0092 -0.1125 -0.5134
  106OSM    O1110734   6.769   2.766   7.718 -0.3488 -0.2130 -0.9442
  106OSM    O1210735   6.722   2.840   7.950 -0.2473 -0.5365  0.6310
  106OSM    C1S10736   6.693   2.708   7.615  0.5084  0.1804 -0.7742
  106OSM    H1S10737   6.591   2.750   7.629  1.4924  3.3378 -2.2458
  106OSM    H1T10738   6.691   2.597   7.618  0.9078  0.1611 -1.2358
  106OSM     NF10739   6.649   2.661   7.372 -0.0085  0.0602 -0.2260
  106OSM    HNF10740   6.689   2.576   7.341 -2.0239 -0.8717 -0.3951
  106OSM    C2S10741   6.732   2.736   7.468 -0.5944 -0.1722 -0.2796
  106OSM    H2S10742   6.710   2.845   7.462  2.0399  0.4901  0.6790
  106OSM    C3S10743   6.890   2.725   7.458 -0.4573 -0.3614 -0.0822
  106OSM    H3S10744   6.922   2.620   7.475 -1.0165 -0.4189  0.6433
  106OSM     O310745   6.963   2.811   7.552  0.3794  0.2405  0.5067
  106OSM    HO310746   6.896   2.816   7.621  0.2036 -0.9400  0.4460
  106OSM    C4S10747   6.927   2.758   7.311 -0.0476 -0.5123 -0.1268
  106OSM    H4S10748   6.955   2.677   7.242  1.3422 -1.0167  0.9733
  106OSM    C5S10749   6.961   2.880   7.262 -0.0994  0.7654 -0.5553
  106OSM    H5S10750   6.968   2.959   7.339 -0.3250  0.0826  0.1870
  106OSM    C6S10751   7.004   2.902   7.118 -0.7843 -0.2490 -0.3802
  106OSM    H6S10752   7.112   2.928   7.115 -0.8130 -0.0601  0.1345
  106OSM    H6T10753   6.935   2.985   7.091 -0.0992  0.6600  0.5596
  106OSM    C7S10754   6.989   2.788   7.014  0.0940 -0.0759  0.0701
  106OSM    H7S10755   6.881   2.766   7.006  0.3632 -1.3743 -0.1149
  106OSM    H7T10756   7.034   2.696   7.055 -1.4578 -0.2241  1.5478
  106OSM    C8S10757   7.038   2.830   6.873 -0.3584  0.1928  0.1624
  106OSM    H8S10758   7.136   2.879   6.889 -0.2794 -0.2771  1.2006
  106OSM    H8T10759   6.961   2.898   6.831 -0.0267  0.4853  0.0182
  106OSM    C9S10760   7.064   2.706   6.786 -0.4748 -0.1619 -0.3103
  106OSM    H9S10761   6.981   2.649   6.739  0.3832 -0.5998 -1.3221
  106OSM    H9T10762   7.122   2.639   6.853 -0.8819  0.2153  0.4293
  106OSM   C10S10763   7.153   2.733   6.665 -0.1967 -0.0205  0.7961
  106OSM   H10S10764   7.195   2.636   6.631  1.1675  1.1643 -1.1055
  106OSM   H10T10765   7.235   2.800   6.699  0.3133 -0.0472 -0.3423
  106OSM   C11S10766   7.067   2.798   6.559 -1.1824 -0.4928  0.3394
  106OSM   H11S10767   7.043   2.897   6.604  2.1142 -0.1792  1.6393
  106OSM   H11T10768   6.980   2.731   6.545 -0.8216 -0.7699 -0.6024
  106OSM   C12S10769   7.140   2.828   6.427 -0.1577 -0.3282 -0.0907
  106OSM   H12S10770   7.183   2.736   6.382  0.8765  0.2201 -0.2437
  106OSM   H12T10771   7.224   2.901   6.435 -1.0029  0.7357 -0.6440
  106OSM   C13S10772   7.037   2.868   6.318 -0.3485  0.2619  0.2663
  106OSM   H13S10773   6.994   2.969   6.336  0.2016  0.4314  0.6630
  106OSM   H13T10774   6.951   2.799   6.310 -1.7670  1.8449  1.0966
  106OSM   C14S10775   7.122   2.862   6.190  0.1408 -0.0571  0.0184
  106OSM   H14S10776   7.162   2.760   6.174 -2.0005 -1.0466  0.5113
  106OSM   H14T10777   7.201   2.938   6.208 -1.4599  1.2830  1.7888
  106OSM   C15S10778   7.045   2.910   6.062 -0.1945  0.1230 -0.7713
  106OSM   H15S10779   6.993   3.004   6.088 -0.2366 -0.3767  1.1068
  106OSM   H15T10780   6.974   2.831   6.031 -1.1253  1.0135 -0.9405
  106OSM   C16S10781   7.139   2.924   5.944 -0.1997  0.0269 -0.2667
  106OSM   H16S10782   7.207   2.836   5.937  0.0686  0.2636 -0.7501
  106OSM   H16T10783   7.201   3.012   5.971 -0.9069 -0.1286  2.0865
  106OSM   C17S10784   7.063   2.942   5.816 -0.3349  0.3094  0.5781
  106OSM   H17S10785   7.025   3.046   5.812 -2.2177 -0.3805 -2.5880
  106OSM   H17T10786   6.971   2.880   5.813  0.1930 -0.4633 -0.5338
  106OSM   C18S10787   7.155   2.902   5.704 -0.3559 -0.4731  0.0892
  106OSM   H18S10788   7.102   2.914   5.607 -0.1839  3.2346  0.3030
  106OSM   H18T10789   7.197   2.799   5.708 -0.3841 -0.4583  0.9959
  106OSM   H18U10790   7.247   2.963   5.704 -1.0693  0.6295 -0.4706
  106OSM    C1F10791   6.520   2.688   7.356 -1.0156  0.4559  0.3040
  106OSM     OF10792   6.474   2.786   7.416 -0.3680  0.1586  0.0365
  106OSM    C2F10793   6.454   2.598   7.259  0.7686  0.6983  0.1789
  106OSM    H2F10794   6.377   2.539   7.313  1.1336 -0.1255 -0.1962
  106OSM    H2G10795   6.521   2.523   7.213  0.5717  0.9177 -0.4770
  106OSM    C3F10796   6.394   2.674   7.141  0.6252 -0.2118  0.1673
  106OSM    H3F10797   6.475   2.728   7.088 -1.0807  1.9433 -0.4161
  106OSM    H3G10798   6.329   2.756   7.178  2.8908  2.1751 -0.8666
  106OSM    C4F10799   6.316   2.584   7.045  1.1544  0.2913  0.4787
  106OSM    H4F10800   6.232   2.533   7.096  2.3649 -1.7787  0.4919
  106OSM    H4G10801   6.381   2.502   7.008 -1.0222 -0.4482 -2.0152
  106OSM    C5F10802   6.262   2.666   6.922  0.7437 -0.0460  0.1846
  106OSM    H5F10803   6.341   2.714   6.862 -1.7208  3.0372 -0.8936
  106OSM    H5G10804   6.200   2.752   6.954  1.4151  0.7070 -0.5175
  106OSM    C6F10805   6.177   2.588   6.824 -0.0023 -0.1697  0.5148
  106OSM    H6F10806   6.091   2.549   6.882 -2.3463 -0.6232 -2.9759
  106OSM    H6G10807   6.237   2.505   6.780 -0.0469  0.4633 -0.7768
  106OSM    C7F10808   6.126   2.678   6.702  0.1116  0.2944 -0.3241
  106OSM    H7F10809   6.209   2.682   6.629  0.3624  0.5949 -0.0200
  106OSM    H7G10810   6.094   2.779   6.736  3.1750  1.3598 -0.3583
  106OSM    C8F10811   6.005   2.609   6.629  0.6225  0.0912  0.8414
  106OSM    H8F10812   5.946   2.694   6.589  1.6508  0.5697  0.3140
  106OSM    H8G10813   5.943   2.558   6.706  1.2824 -0.6300  0.9053
  106OSM    C9F10814   6.034   2.512   6.519  0.1494 -0.0039 -0.2285
  106OSM    H9F10815   6.063   2.413   6.559 -0.2823  0.7618  2.1365
  106OSM   C10F10816   5.996   2.516   6.389  0.2057  0.2498 -0.3045
  106OSM   H10F10817   6.003   2.427   6.326 -0.6739  0.8407 -1.2565
  106OSM   C11F10818   5.952   2.633   6.307 -0.3692  0.2767  0.0552
  106OSM   H11F10819   5.975   2.724   6.366  0.6074 -0.8324  1.4519
  106OSM   H11G10820   5.841   2.631   6.299 -0.2400 -1.0994 -3.4145
  106OSM   C12F10821   6.010   2.632   6.164 -0.2589  0.2454  0.0108
  106OSM   H12F10822   6.120   2.625   6.177 -0.2206  0.5578 -0.1211
  106OSM   H12G10823   5.987   2.728   6.114  0.5208  1.4088  1.7756
  106OSM   C13F10824   5.954   2.527   6.068 -0.6293 -0.0109  0.2807
  106OSM   H13F10825   5.953   2.423   6.109 -1.4847 -0.0955  0.0646
  106OSM   H13G10826   6.027   2.534   5.984 -0.6816 -1.2437  0.1073
  106OSM   C14F10827   5.804   2.550   6.033  1.0676 -0.7249 -0.4407
  106OSM   H14F10828   5.790   2.659   6.019 -0.5054 -0.5783  1.7506
  106OSM   H14G10829   5.748   2.518   6.123  0.4177 -0.5549 -0.7748
  106OSM   C15F10830   5.754   2.478   5.908 -0.0690  0.5769  0.7609
  106OSM   H15F10831   5.643   2.475   5.906 -0.0946  1.0731 -1.6476
  106OSM   H15G10832   5.785   2.372   5.924  0.8351  1.0701  2.6715
  106OSM   C16F10833   5.801   2.539   5.779 -0.3656  0.3978  0.4186
  106OSM   H16F10834   5.909   2.561   5.793 -0.6287  1.1430  1.3312
  106OSM   H16G10835   5.748   2.634   5.757 -0.2991  0.1749 -0.8020
  106OSM   C17F10836   5.776   2.457   5.651 -0.0510 -0.3837 -0.5003
  106OSM   H17F10837   5.833   2.364   5.669 -0.3279  0.0182  3.1663
  106OSM   H17G10838   5.830   2.510   5.570 -1.1309 -1.2268 -1.8060
  106OSM   C18F10839   5.628   2.437   5.608  0.4482  0.5080  0.2125
  106OSM   H18F10840   5.575   2.395   5.695 -0.7062  2.6291  0.6048
  106OSM   H18G10841   5.635   2.367   5.522  2.1906  0.0978  0.6540
  106OSM   H18H10842   5.591   2.532   5.562  0.2226  0.9963  1.3682
  107OSM      N10843   4.906   5.045   8.054 -0.0456 -0.2827 -0.2663
  107OSM    C1510844   4.923   5.162   8.148  0.3405 -0.3763  0.6927
  107OSM   H15A10845   4.830   5.215   8.165 -0.5124 -1.5786 -0.0144
  107OSM   H15B10846   4.990   5.230   8.099 -1.2918 -0.2538 -1.5459
  107OSM   H15C10847   4.952   5.133   8.249  0.3735  1.0997  1.1229
  107OSM    C1410848   5.030   4.966   8.043  0.8404 -0.3109 -0.0045
  107OSM   H14A10849   5.105   5.037   8.008 -0.8059  1.2053 -0.6093
  107OSM   H14B10850   5.039   4.884   7.972 -1.1195  0.5454 -1.3312
  107OSM   H14C10851   5.077   4.941   8.137 -1.3260 -0.6362  1.0488
  107OSM    C1310852   4.795   4.953   8.108 -0.1966  0.8826  0.5816
  107OSM   H13A10853   4.805   4.857   8.061 -0.9679  0.2017  1.7356
  107OSM   H13B10854   4.697   4.998   8.102 -0.0196  1.0473 -1.5896
  107OSM   H13C10855   4.819   4.930   8.211  0.7708 -0.8499  0.0191
  107OSM    C1210856   4.862   5.109   7.919  0.1864  0.2322 -0.6075
  107OSM   H12A10857   4.831   5.028   7.854  0.0929  0.3051 -0.6548
  107OSM   H12B10858   4.946   5.156   7.871 -1.6671  2.1938 -2.1331
  107OSM    C1110859   4.768   5.223   7.929  0.5637  1.1279 -0.4655
  107OSM   H11A10860   4.751   5.267   7.829 -1.5520  0.8446 -0.2630
  107OSM   H11B10861   4.806   5.310   7.986 -0.3935  1.5575 -0.4642
  107OSM      P10862   4.524   5.252   8.057  0.4587 -0.1880 -0.3594
  107OSM    O1310863   4.450   5.148   8.137  0.2941  0.1791 -0.4761
  107OSM    O1410864   4.572   5.362   8.142 -0.8019 -0.7515  0.3909
  107OSM    O1110865   4.426   5.321   7.950  0.4632 -0.3002 -0.7785
  107OSM    O1210866   4.637   5.177   7.975 -0.1559 -0.1745 -0.2229
  107OSM    C1S10867   4.463   5.423   7.854 -0.3732  0.5189 -0.1638
  107OSM    H1S10868   4.565   5.460   7.879 -0.0212  0.2738 -1.1698
  107OSM    H1T10869   4.397   5.510   7.867 -1.0291 -0.1434  1.1584
  107OSM     NF10870   4.512   5.477   7.614  0.0391 -0.7917  0.1177
  107OSM    HNF10871   4.450   5.525   7.553 -0.8453 -0.7658  1.0048
  107OSM    C2S10872   4.457   5.375   7.702  0.2789 -0.2791 -0.6348
  107OSM    H2S10873   4.522   5.287   7.684  1.0570  0.6360 -2.4840
  107OSM    C3S10874   4.308   5.344   7.663  0.3126 -0.3875 -0.6767
  107OSM    H3S10875   4.242   5.433   7.665 -0.2407 -0.7822  2.1133
  107OSM     O310876   4.232   5.261   7.761  0.2960  0.1960 -0.0893
  107OSM    HO310877   4.299   5.257   7.829  0.8625  0.7548 -0.5975
  107OSM    C4S10878   4.304   5.295   7.522  0.9773  0.0008 -0.2303
  107OSM    H4S10879   4.317   5.380   7.454  0.2398  0.5159  0.2671
  107OSM    C5S10880   4.306   5.165   7.467 -0.1106 -0.1134 -0.1333
  107OSM    H5S10881   4.316   5.072   7.525  1.0186 -0.8820 -1.4956
  107OSM    C6S10882   4.314   5.129   7.321 -0.0210 -0.0486 -0.1016
  107OSM    H6S10883   4.206   5.113   7.301  0.5197 -0.2769 -3.3936
  107OSM    H6T10884   4.375   5.037   7.307  1.2494  0.5041  1.4692
  107OSM    C7S10885   4.368   5.235   7.223 -0.1593 -0.4399  0.2497
  107OSM    H7S10886   4.472   5.258   7.255  0.1330 -0.7386 -0.4583
  107OSM    H7T10887   4.321   5.334   7.236  2.5256  0.7053  2.0885
  107OSM    C8S10888   4.381   5.187   7.076  0.1351  0.1333  0.0796
  107OSM    H8S10889   4.424   5.084   7.073 -0.5492 -0.3580  3.3447
  107OSM    H8T10890   4.448   5.258   7.024  0.0656  1.7849  2.1045
  107OSM    C9S10891   4.240   5.181   7.008  0.1690 -0.2041 -0.2773
  107OSM    H9S10892   4.205   5.286   7.015  0.0489 -0.2075 -0.7997
  107OSM    H9T10893   4.176   5.113   7.068 -1.6179  1.6563  0.0413
  107OSM   C10S10894   4.251   5.140   6.860 -0.2225 -0.1102 -0.7847
  107OSM   H10S10895   4.152   5.115   6.815  0.4701 -0.2663 -2.2737
  107OSM   H10T10896   4.324   5.057   6.857  1.4345  1.2964 -0.4722
  107OSM   C11S10897   4.306   5.241   6.757 -0.5033 -0.2157 -0.2056
  107OSM   H11S10898   4.399   5.288   6.795 -0.4082  0.9427 -1.7492
  107OSM   H11T10899   4.231   5.323   6.759 -1.2283 -0.8492  1.9667
  107OSM   C12S10900   4.327   5.182   6.618  0.1155  0.2926  0.5169
  107OSM   H12S10901   4.248   5.106   6.603  0.1401  0.7142 -2.2019
  107OSM   H12T10902   4.419   5.120   6.607 -0.7692 -0.9260 -0.2357
  107OSM   C13S10903   4.326   5.286   6.506  0.1959  0.2801 -0.8186
  107OSM   H13S10904   4.402   5.366   6.515 -0.6336  1.3353 -2.5617
  107OSM   H13T10905   4.230   5.343   6.512 -0.2742 -0.6467  2.0892
  107OSM   C14S10906   4.320   5.219   6.365 -0.1634  0.2328  0.1960
  107OSM   H14S10907   4.241   5.140   6.360 -0.8172  0.9244 -0.6114
  107OSM   H14T10908   4.417   5.170   6.344  0.1148 -0.3975  2.6577
  107OSM   C15S10909   4.292   5.319   6.251  0.5711  0.6812 -0.1908
  107OSM   H15S10910   4.372   5.396   6.252  2.3355 -1.0674 -1.4320
  107OSM   H15T10911   4.206   5.380   6.287  0.6171 -0.8665  2.9411
  107OSM   C16S10912   4.272   5.257   6.114 -0.3207  0.4764 -0.3811
  107OSM   H16S10913   4.195   5.177   6.112  0.9542 -0.7771 -1.7454
  107OSM   H16T10914   4.366   5.207   6.082  0.2306 -0.1494  2.0208
  107OSM   C17S10915   4.230   5.369   6.010 -0.7893  0.2908  0.4501
  107OSM   H17S10916   4.307   5.449   6.002  0.0264 -0.4682  0.4275
  107OSM   H17T10917   4.139   5.428   6.032  0.1502  1.4350  1.3605
  107OSM   C18S10918   4.210   5.307   5.872  0.4525  0.0744 -0.5382
  107OSM   H18S10919   4.140   5.224   5.898 -0.3146  0.3803 -1.5482
  107OSM   H18T10920   4.312   5.278   5.840  0.8631  1.6488 -0.7385
  107OSM   H18U10921   4.167   5.374   5.794 -0.8143 -1.6517 -1.3819
  107OSM    C1F10922   4.645   5.499   7.608  0.3727 -0.3492  0.0668
  107OSM     OF10923   4.730   5.417   7.657  1.3386 -0.4410  0.2402
  107OSM    C2F10924   4.700   5.618   7.519  0.0270 -0.0156 -0.7158
  107OSM    H2F10925   4.613   5.685   7.506 -0.9946 -0.3323  3.1639
  107OSM    H2G10926   4.722   5.558   7.428 -2.4485 -4.8823  1.5040
  107OSM    C3F10927   4.815   5.680   7.596  0.2833  0.2822  0.1658
  107OSM    H3F10928   4.897   5.606   7.605 -1.1616 -1.7676 -2.2446
  107OSM    H3G10929   4.783   5.695   7.701  0.6729  2.2029  0.0479
  107OSM    C4F10930   4.875   5.794   7.526 -0.4194 -0.4113 -0.2716
  107OSM    H4F10931   4.948   5.837   7.598  0.1175  0.6400 -1.4118
  107OSM    H4G10932   4.811   5.882   7.505  0.4401  0.1353 -0.6481
  107OSM    C5F10933   4.966   5.743   7.407 -0.0731 -0.1780 -0.0927
  107OSM    H5F10934   4.939   5.635   7.408 -0.1341 -0.1613  0.5556
  107OSM    H5G10935   5.074   5.749   7.432  0.1889  0.0084 -1.1992
  107OSM    C6F10936   4.915   5.798   7.275  0.1773 -0.1517 -0.5867
  107OSM    H6F10937   4.893   5.906   7.284 -1.4618 -0.3768 -1.5432
  107OSM    H6G10938   4.818   5.757   7.240 -1.1024  0.6398  1.7790
  107OSM    C7F10939   5.006   5.784   7.155 -0.9061 -0.2937 -0.1944
  107OSM    H7F10940   5.067   5.693   7.167 -0.0913  0.4189  1.4839
  107OSM    H7G10941   5.087   5.860   7.147  1.0451 -2.2529  0.2743
  107OSM    C8F10942   4.929   5.787   7.020 -0.1532  0.0503  0.6896
  107OSM    H8F10943   4.840   5.721   7.020 -0.7536  0.7220 -1.9751
  107OSM    H8G10944   4.992   5.754   6.935 -0.8309  1.7064 -0.5174
  107OSM    C9F10945   4.877   5.926   6.991  0.0396  0.7319 -0.9926
  107OSM    H9F10946   4.824   5.978   7.073 -0.2218  0.2042 -0.8175
  107OSM   C10F10947   4.911   6.001   6.883 -0.6903  0.0121 -0.8223
  107OSM   H10F10948   4.864   6.100   6.870 -1.3783 -0.3780 -1.3804
  107OSM   C11F10949   4.985   5.963   6.758  0.0207  0.1313  0.2615
  107OSM   H11F10950   5.048   5.876   6.783  0.3150  0.4738  0.7340
  107OSM   H11G10951   5.044   6.042   6.705  0.0339  0.8888  1.3749
  107OSM   C12F10952   4.891   5.895   6.651 -0.2920  0.5289 -0.1747
  107OSM   H12F10953   4.812   5.966   6.620 -2.0214 -0.9660  0.6537
  107OSM   H12G10954   4.844   5.805   6.696  1.6002 -1.3876 -1.7757
  107OSM   C13F10955   4.967   5.849   6.526  0.3186  0.6413  0.1586
  107OSM   H13F10956   5.040   5.775   6.564 -1.4804 -0.4841  1.6348
  107OSM   H13G10957   5.008   5.942   6.482 -4.0610  1.8968 -1.8732
  107OSM   C14F10958   4.879   5.765   6.430 -0.0370 -0.2267  0.1059
  107OSM   H14F10959   4.818   5.681   6.469 -0.7067  0.2712  0.1469
  107OSM   H14G10960   4.964   5.717   6.376  1.9059  1.7305  1.2763
  107OSM   C15F10961   4.809   5.853   6.328 -0.4313  0.2629 -0.3101
  107OSM   H15F10962   4.879   5.916   6.269 -1.3691  1.7266  0.0794
  107OSM   H15G10963   4.742   5.927   6.377  1.1626  1.3833  0.2745
  107OSM   C16F10964   4.731   5.775   6.213  0.0767 -0.3705  0.1965
  107OSM   H16F10965   4.670   5.697   6.263  1.6189 -1.7226  0.0456
  107OSM   H16G10966   4.805   5.717   6.154  0.2871  0.5312 -0.4443
  107OSM   C17F10967   4.647   5.867   6.123  0.1797  0.1464 -0.5067
  107OSM   H17F10968   4.598   5.939   6.192 -1.9315 -2.8512  1.3432
  107OSM   H17G10969   4.566   5.811   6.071 -0.5727  0.6182  0.1500
  107OSM   C18F10970   4.732   5.938   6.022  0.4628  0.0836 -0.2675
  107OSM   H18F10971   4.682   6.024   5.974 -1.4676 -1.5594 -1.3908
  107OSM   H18G10972   4.749   5.864   5.941  0.4010  0.9051 -1.0310
  107OSM   H18H10973   4.827   5.964   6.075 -1.2384  1.3403  2.4000
  108OSM      N10974   6.791   6.323   8.006  0.2520 -0.4244  0.4342
  108OSM    C1510975   6.781   6.419   7.887 -0.2462  0.2071  0.3288
  108OSM   H15A10976   6.861   6.490   7.898  1.5314 -1.7238  0.2794
  108OSM   H15B10977   6.686   6.472   7.891 -1.3531 -1.7194  3.3209
  108OSM   H15C10978   6.788   6.357   7.799  1.1526 -0.3998  0.8414
  108OSM    C1410979   6.923   6.247   7.989 -0.4259  0.6532 -0.2992
  108OSM   H14A10980   6.943   6.187   8.076  1.8293  1.5927 -0.1090
  108OSM   H14B10981   7.012   6.308   7.983 -0.3359  0.7281  1.2889
  108OSM   H14C10982   6.917   6.181   7.904 -0.4012 -1.8952  1.5667
  108OSM    C1310983   6.801   6.409   8.129 -0.7419  0.5099 -0.2060
  108OSM   H13A10984   6.892   6.467   8.121 -1.1354  1.5688  2.1048
  108OSM   H13B10985   6.828   6.364   8.223  0.6124 -0.2806 -0.9470
  108OSM   H13C10986   6.722   6.481   8.149  0.3603  2.1400 -1.4073
  108OSM    C1210987   6.675   6.232   8.007 -0.4605 -0.5306  0.0954
  108OSM   H12A10988   6.587   6.279   8.048  1.1581  3.1041 -0.2994
  108OSM   H12B10989   6.684   6.155   8.083  2.4088  0.6815  1.0998
  108OSM    C1110990   6.632   6.173   7.876  0.3828 -0.3655  0.6098
  108OSM   H11A10991   6.626   6.258   7.805  1.8011 -0.0574  0.8428
  108OSM   H11B10992   6.527   6.136   7.887  0.1857  0.4816  1.8167
  108OSM      P10993   6.728   5.926   7.887 -0.3584  0.1045 -0.0207
  108OSM    O1310994   6.863   5.902   7.945 -0.1333  0.4318 -0.2524
  108OSM    O1410995   6.614   5.903   7.972  0.3105  0.0675  0.0210
  108OSM    O1110996   6.710   5.833   7.758 -0.1593  0.0736  0.4681
  108OSM    O1210997   6.723   6.072   7.829  0.3436  0.3488  0.3767
  108OSM    C1S10998   6.608   5.846   7.664  0.0872  0.8675 -0.1451
  108OSM    H1S10999   6.574   5.952   7.666 -1.1632  0.5176 -1.5372
  108OSM    H1T11000   6.528   5.775   7.695  0.3579 -0.1785 -1.7710
  108OSM     NF11001   6.557   5.860   7.427 -0.4517  0.0373 -0.2643
  108OSM    HNF11002   6.499   5.793   7.381 -0.8389 -0.3344  0.7366
  108OSM    C2S11003   6.652   5.807   7.520  0.4870 -0.4980 -0.3436
  108OSM    H2S11004   6.748   5.855   7.493  0.0019  0.1469 -0.9387
  108OSM    C3S11005   6.676   5.657   7.492 -0.2823  0.6114  0.0602
  108OSM    H3S11006   6.576   5.616   7.516 -0.4418  0.6641 -0.5190
  108OSM     O311007   6.771   5.608   7.590  0.0489  0.1932  0.6038
  108OSM    HO311008   6.788   5.683   7.648 -0.8780  0.8718  0.0089
  108OSM    C4S11009   6.715   5.630   7.355 -0.5607 -0.0872 -0.0987
  108OSM    H4S11010   6.625   5.613   7.294 -0.7348  2.2222 -0.5902
  108OSM    C5S11011   6.829   5.650   7.293 -0.1417 -1.1737  0.2441
  108OSM    H5S11012   6.918   5.687   7.345 -0.3780  1.5634 -1.1047
  108OSM    C6S11013   6.857   5.626   7.147 -0.1728 -0.2842 -0.6201
  108OSM    H6S11014   6.902   5.526   7.131  4.2306  1.6939 -2.0579
  108OSM    H6T11015   6.931   5.703   7.116  0.7483 -1.0174 -0.2835
  108OSM    C7S11016   6.743   5.649   7.044 -0.4678  1.3185  0.1752
  108OSM    H7S11017   6.720   5.757   7.033 -0.5474  1.2719 -0.1320
  108OSM    H7T11018   6.651   5.590   7.064  1.4905 -1.5590  1.4025
  108OSM    C8S11019   6.779   5.610   6.899  1.1822  0.2767  0.5139
  108OSM    H8S11020   6.789   5.500   6.888 -3.7209 -0.5713  2.0598
  108OSM    H8T11021   6.862   5.680   6.875  0.6991  0.6397 -0.1343
  108OSM    C9S11022   6.663   5.649   6.805  0.1322 -0.2247  0.7270
  108OSM    H9S11023   6.628   5.750   6.835 -1.5963 -0.4666 -0.3237
  108OSM    H9T11024   6.587   5.569   6.822 -0.9771  0.5807 -0.3185
  108OSM   C10S11025   6.714   5.648   6.656 -0.4320  0.5193 -0.6722
  108OSM   H10S11026   6.787   5.566   6.647  0.6435  1.1548  1.5744
  108OSM   H10T11027   6.765   5.745   6.640  0.2075  0.5460  1.3503
  108OSM   C11S11028   6.601   5.616   6.550 -0.2496  0.4257  0.0377
  108OSM   H11S11029   6.507   5.639   6.606  1.0728  1.1616  2.0874
  108OSM   H11T11030   6.590   5.509   6.523 -1.5804  0.6065 -0.2344
  108OSM   C12S11031   6.609   5.707   6.427 -0.1642 -0.4881 -0.3750
  108OSM   H12S11032   6.710   5.706   6.382  0.7304  0.5690  1.4828
  108OSM   H12T11033   6.604   5.811   6.465 -0.3376 -0.7823  0.4382
  108OSM   C13S11034   6.508   5.655   6.326 -0.2096  0.3559 -0.0765
  108OSM   H13S11035   6.407   5.688   6.358 -0.6524 -0.5476 -0.5259
  108OSM   H13T11036   6.508   5.544   6.331  0.9316  0.3500  0.2802
  108OSM   C14S11037   6.536   5.702   6.179  1.0347  0.6946 -0.6894
  108OSM   H14S11038   6.646   5.707   6.167  1.0507  0.4417 -0.6506
  108OSM   H14T11039   6.495   5.805   6.175  2.3460  1.2185 -1.2986
  108OSM   C15S11040   6.467   5.605   6.077 -0.5421  0.3184 -0.0362
  108OSM   H15S11041   6.367   5.578   6.116 -0.1139 -0.8057  0.3218
  108OSM   H15T11042   6.529   5.513   6.071 -1.5073 -0.4486  1.1771
  108OSM   C16S11043   6.456   5.665   5.937 -0.0259  0.3877 -0.2588
  108OSM   H16S11044   6.550   5.715   5.909  0.8096 -1.3799 -0.7728
  108OSM   H16T11045   6.380   5.746   5.928  2.2687  2.5220 -1.3882
  108OSM   C17S11046   6.419   5.556   5.838  0.1682 -0.0329 -0.7922
  108OSM   H17S11047   6.326   5.507   5.874  0.4152  1.8803  2.9022
  108OSM   H17T11048   6.491   5.471   5.835 -0.6577 -0.7524 -0.8506
  108OSM   C18S11049   6.406   5.612   5.701  0.2655  0.3217 -0.2240
  108OSM   H18S11050   6.335   5.697   5.704 -0.8263 -0.5803  0.4046
  108OSM   H18T11051   6.382   5.540   5.619  1.1937 -2.5983  1.8996
  108OSM   H18U11052   6.509   5.648   5.681  1.2368 -1.2509  1.5966
  108OSM    C1F11053   6.538   5.987   7.402 -0.7884 -1.2048 -0.1336
  108OSM     OF11054   6.614   6.074   7.446 -0.5233  0.0363 -0.1334
  108OSM    C2F11055   6.431   6.026   7.306  0.6670  0.1071  0.8663
  108OSM    H2F11056   6.351   6.072   7.368  1.1973  2.6054 -0.1753
  108OSM    H2G11057   6.388   5.934   7.263  0.5428  0.3342  0.5005
  108OSM    C3F11058   6.484   6.123   7.199 -0.0351 -0.4644 -0.6313
  108OSM    H3F11059   6.516   6.221   7.241  2.7017 -0.1956 -3.0483
  108OSM    H3G11060   6.406   6.145   7.123 -0.8064 -0.2845  0.1944
  108OSM    C4F11061   6.594   6.062   7.117 -1.2658  0.3822 -0.3782
  108OSM    H4F11062   6.547   5.966   7.086 -3.9640  0.7395  2.1518
  108OSM    H4G11063   6.686   6.054   7.178 -0.9081  0.3135 -0.9262
  108OSM    C5F11064   6.623   6.152   6.993 -0.3109  0.8326 -0.6158
  108OSM    H5F11065   6.631   6.260   7.020  0.0209  0.5237  0.5459
  108OSM    H5G11066   6.533   6.133   6.931 -1.3837  0.4926  1.0048
  108OSM    C6F11067   6.740   6.099   6.913 -0.7630 -0.4761  0.9632
  108OSM    H6F11068   6.727   5.995   6.876  1.0328  0.3498 -2.4021
  108OSM    H6G11069   6.832   6.091   6.974 -0.4352  0.2293  0.5661
  108OSM    C7F11070   6.759   6.181   6.785  0.6743  0.1398  0.3094
  108OSM    H7F11071   6.756   6.290   6.806 -0.1169  0.8270 -2.9380
  108OSM    H7G11072   6.669   6.162   6.723  0.9516  1.4481 -0.5121
  108OSM    C8F11073   6.889   6.142   6.705  0.2371 -0.0871  0.5518
  108OSM    H8F11074   6.968   6.153   6.783  1.0752 -1.1921 -0.1230
  108OSM    H8G11075   6.900   6.228   6.636 -1.7586 -0.2298 -0.0244
  108OSM    C9F11076   6.881   6.015   6.626  0.5865 -0.5254  0.1973
  108OSM    H9F11077   6.936   5.929   6.668 -1.1160 -1.3657  0.8229
  108OSM   C10F11078   6.810   5.994   6.515 -0.4150 -0.3710  0.5026
  108OSM   H10F11079   6.804   5.898   6.461 -2.7151  0.5710 -1.0926
  108OSM   C11F11080   6.737   6.110   6.444  0.5088  0.2653  0.1217
  108OSM   H11F11081   6.791   6.207   6.445  0.0723  0.5355  2.4579
  108OSM   H11G11082   6.634   6.127   6.483  0.2935  0.3457 -0.4729
  108OSM   C12F11083   6.711   6.067   6.297  0.1634 -1.1361 -0.2435
  108OSM   H12F11084   6.685   6.165   6.254  1.1493  0.0020  1.6321
  108OSM   H12G11085   6.629   5.992   6.305  0.0345 -1.1802 -1.6266
  108OSM   C13F11086   6.838   6.017   6.224 -0.1923  0.1913 -0.2319
  108OSM   H13F11087   6.899   5.942   6.279 -1.0988  0.4194  1.1328
  108OSM   H13G11088   6.903   6.107   6.212 -0.6977  0.3123 -2.5154
  108OSM   C14F11089   6.809   5.954   6.081  0.5261  0.6873 -0.5873
  108OSM   H14F11090   6.736   6.023   6.033  1.1787  0.9559 -1.2313
  108OSM   H14G11091   6.751   5.861   6.094  0.3987  0.9876  1.1379
  108OSM   C15F11092   6.925   5.924   5.987 -0.2615  0.5541  0.0293
  108OSM   H15F11093   6.888   5.896   5.886 -1.4834 -0.6070  0.7584
  108OSM   H15G11094   6.978   5.834   6.025  0.8900 -0.0282 -2.7022
  108OSM   C16F11095   7.021   6.043   5.964 -1.1777 -0.6298  0.7655
  108OSM   H16F11096   7.095   6.024   5.883  1.6761 -0.0114  3.0238
  108OSM   H16G11097   7.083   6.048   6.056 -0.3514  0.7046  0.1703
  108OSM   C17F11098   6.957   6.181   5.945  0.2246  1.2609  0.1164
  108OSM   H17F11099   7.039   6.255   5.949 -0.0556  1.5817 -0.0976
  108OSM   H17G11100   6.881   6.197   6.024  1.4217  0.9388  1.3731
  108OSM   C18F11101   6.895   6.198   5.803 -0.5559  0.5016  0.0427
  108OSM   H18F11102   6.865   6.305   5.795  1.8773  1.2067 -0.3111
  108OSM   H18G11103   6.816   6.122   5.784  1.5490 -1.2809 -2.2950
  108OSM   H18H11104   6.973   6.177   5.727  1.8161  0.4164  2.3713
  109OSM      N11105   0.038   1.647   7.293 -0.4842 -0.3921  0.4128
  109OSM    C1511106   0.181   1.624   7.257  0.4602  0.2123  0.5385
  109OSM   H15A11107   0.234   1.716   7.241 -2.6114  2.8112  3.6503
  109OSM   H15B11108   0.185   1.570   7.164  2.0532  0.8578  0.2037
  109OSM   H15C11109   0.235   1.567   7.332 -0.1570  0.3866  1.1261
  109OSM    C1411110  -0.033   1.514   7.318 -0.4431 -0.0218 -1.3565
  109OSM   H14A11111   0.020   1.470   7.401 -0.4616  0.4060 -1.1164
  109OSM   H14B11112  -0.018   1.452   7.231  1.7690 -1.5728  0.0495
  109OSM   H14C11113  -0.138   1.531   7.337 -0.5378 -1.8773  0.0679
  109OSM    C1311114   0.024   1.740   7.410  0.2872  0.0028 -0.2508
  109OSM   H13A11115   0.085   1.829   7.407  1.5877 -0.7980  1.0775
  109OSM   H13B11116   0.055   1.695   7.503 -4.7285 -0.5320  1.4727
  109OSM   H13C11117  -0.081   1.765   7.416  0.4315  1.1689 -1.9173
  109OSM    C1211118  -0.018   1.705   7.162  0.1116 -0.5185 -0.2339
  109OSM   H12A11119   0.013   1.639   7.083  0.5542  0.6868 -1.1017
  109OSM   H12B11120   0.037   1.797   7.150  0.7529 -0.8903 -0.1836
  109OSM    C1111121  -0.170   1.738   7.147 -0.6529  0.3557  0.1440
  109OSM   H11A11122  -0.232   1.648   7.161 -0.3856  0.2363  0.5752
  109OSM   H11B11123  -0.187   1.758   7.039  0.1754  1.4987  0.1986
  109OSM      P11124  -0.178   2.007   7.205  0.0250 -0.1165 -0.4324
  109OSM    O1311125  -0.249   2.082   7.309 -0.7079 -0.0300 -0.0643
  109OSM    O1411126  -0.032   2.016   7.203 -0.6940  0.2328 -0.2702
  109OSM    O1111127  -0.247   2.041   7.069 -0.3792  0.5514 -0.2440
  109OSM    O1211128  -0.213   1.849   7.229 -0.2569  0.1866  0.1888
  109OSM    C1S11129  -0.385   2.012   7.053  0.2257  0.5053 -0.0302
  109OSM    H1S11130  -0.444   2.061   7.133 -0.2633 -0.2330  0.0727
  109OSM    H1T11131  -0.407   1.903   7.050  2.2940 -0.0101  1.1985
  109OSM     NF11132  -0.589   2.055   6.911  0.9375  0.1272  0.8784
  109OSM    HNF11133  -0.618   1.987   6.844 -0.6074  1.1502  0.4532
  109OSM    C2S11134  -0.443   2.071   6.922  0.1601  0.1455 -0.1031
  109OSM    H2S11135  -0.421   2.179   6.932  0.0648  0.1346  0.2353
  109OSM    C3S11136  -0.368   2.009   6.799  0.8302 -0.0331 -0.4488
  109OSM    H3S11137  -0.391   1.900   6.802  0.9927 -0.0749 -0.6415
  109OSM     O311138  -0.227   2.009   6.810 -0.2174 -0.1512 -0.4536
  109OSM    HO311139  -0.220   2.028   6.904  0.3827  1.2706 -0.7684
  109OSM    C4S11140  -0.418   2.062   6.664  0.2627  0.6986 -1.1085
  109OSM    H4S11141  -0.480   2.153   6.660 -0.7390  0.0681 -0.3961
  109OSM    C5S11142  -0.409   1.992   6.554  0.8421 -0.1744  1.0248
  109OSM    H5S11143  -0.340   1.907   6.557  0.8156 -0.2542 -0.1509
  109OSM    C6S11144  -0.470   2.019   6.416 -0.2442  0.3041 -0.6598
  109OSM    H6S11145  -0.538   1.933   6.401 -0.3519  0.2205  0.2628
  109OSM    H6T11146  -0.390   1.992   6.343 -0.8098  0.4255 -1.3318
  109OSM    C7S11147  -0.538   2.145   6.362  0.4894  0.0871 -0.2287
  109OSM    H7S11148  -0.464   2.227   6.350  1.5634 -0.5663  1.6090
  109OSM    H7T11149  -0.617   2.181   6.432 -0.1541 -1.2069 -0.2768
  109OSM    C8S11150  -0.608   2.121   6.226 -0.1259  0.4591  0.5366
  109OSM    H8S11151  -0.654   2.219   6.199 -0.4959  0.1591  0.0527
  109OSM    H8T11152  -0.688   2.044   6.230 -0.1240  0.4675  0.7568
  109OSM    C9S11153  -0.514   2.075   6.110  0.9719 -0.0588  0.8008
  109OSM    H9S11154  -0.480   1.970   6.123  2.5287  0.3603  0.3160
  109OSM    H9T11155  -0.426   2.143   6.110  0.6294  0.3828  0.6139
  109OSM   C10S11156  -0.577   2.086   5.973  0.4153  0.0143 -0.6475
  109OSM   H10S11157  -0.680   2.043   5.978  0.2139  0.5013 -0.4640
  109OSM   H10T11158  -0.514   2.031   5.901  0.6765  1.6077 -1.6995
  109OSM   C11S11159  -0.598   2.227   5.918  0.6490  0.3339 -0.3763
  109OSM   H11S11160  -0.500   2.267   5.884 -0.0579  1.2557 -1.3821
  109OSM   H11T11161  -0.639   2.295   5.996 -1.8987 -2.1200  0.5981
  109OSM   C12S11162  -0.696   2.216   5.803 -0.3759  0.0678 -0.6157
  109OSM   H12S11163  -0.802   2.187   5.824  0.1323 -2.8819 -1.5796
  109OSM   H12T11164  -0.658   2.133   5.739 -0.9325 -0.9269  0.2886
  109OSM   C13S11165  -0.708   2.340   5.718 -0.4882 -0.0517 -0.2449
  109OSM   H13S11166  -0.608   2.358   5.673  0.8693  1.2633  2.9733
  109OSM   H13T11167  -0.721   2.426   5.787  4.0682 -0.0820  0.9626
  109OSM   C14S11168  -0.803   2.338   5.603  0.1952 -0.0529 -0.3165
  109OSM   H14S11169  -0.801   2.436   5.552 -1.6366 -0.4312 -1.2047
  109OSM   H14T11170  -0.903   2.324   5.649  0.0754 -0.0394 -0.5751
  109OSM   C15S11171  -0.775   2.234   5.490 -0.3099 -0.4190 -0.0539
  109OSM   H15S11172  -0.774   2.131   5.532 -1.0395 -1.0474 -1.5053
  109OSM   H15T11173  -0.671   2.254   5.457  1.4033 -2.1691  3.6696
  109OSM   C16S11174  -0.878   2.241   5.379  0.4945 -0.9273 -0.0511
  109OSM   H16S11175  -0.881   2.343   5.335  2.9828 -0.1119  1.4080
  109OSM   H16T11176  -0.977   2.206   5.416  0.3537 -1.5505 -1.0086
  109OSM   C17S11177  -0.837   2.146   5.269  0.7141  0.2218  1.2185
  109OSM   H17S11178  -0.828   2.041   5.307 -0.4648 -0.8499 -1.2259
  109OSM   H17T11179  -0.740   2.187   5.234  0.8317  0.0199  1.3041
  109OSM   C18S11180  -0.941   2.130   5.153  0.1371  0.8003  0.3481
  109OSM   H18S11181  -0.919   2.198   5.068  1.0619 -0.1572 -0.2006
  109OSM   H18T11182  -1.042   2.159   5.189  0.1332  2.5627 -0.8950
  109OSM   H18U11183  -0.952   2.027   5.114 -1.9091  0.9875  0.2808
  109OSM    C1F11184  -0.675   2.107   7.000  0.1016 -0.2334  0.2441
  109OSM     OF11185  -0.642   2.205   7.062  0.4654 -0.7438  0.1826
  109OSM    C2F11186  -0.813   2.047   7.023 -0.2897  0.1889  0.2250
  109OSM    H2F11187  -0.793   2.010   7.125  2.0455  2.4506  0.6870
  109OSM    H2G11188  -0.818   1.956   6.959  2.6448  1.0996 -1.4765
  109OSM    C3F11189  -0.936   2.144   7.013  0.1620  0.1639 -0.3875
  109OSM    H3F11190  -0.919   2.228   7.085  0.6064  0.2303 -0.5633
  109OSM    H3G11191  -1.031   2.091   7.032 -0.9933  2.2695  0.0025
  109OSM    C4F11192  -0.957   2.204   6.874 -0.2212 -0.2214 -0.0602
  109OSM    H4F11193  -0.859   2.250   6.845 -0.9784  1.4318 -0.1070
  109OSM    H4G11194  -1.035   2.282   6.882  0.8367  0.8069  0.6726
  109OSM    C5F11195  -1.001   2.106   6.765  0.1550 -0.7278 -0.4255
  109OSM    H5F11196  -1.108   2.081   6.779  0.3332 -0.7976  0.9966
  109OSM    H5G11197  -0.930   2.020   6.765  0.9372 -0.1411  1.6679
  109OSM    C6F11198  -0.995   2.174   6.626 -0.0436 -0.2212 -0.2348
  109OSM    H6F11199  -0.892   2.184   6.585  0.1596 -2.7744 -0.4964
  109OSM    H6G11200  -1.043   2.274   6.629  1.2228  0.3850  0.8845
  109OSM    C7F11201  -1.084   2.091   6.527  0.0076 -0.7048  0.4313
  109OSM    H7F11202  -1.183   2.105   6.574  0.4877  2.1618  0.8054
  109OSM    H7G11203  -1.059   1.983   6.520 -0.2597 -0.8139  1.0673
  109OSM    C8F11204  -1.087   2.165   6.392  0.0431  0.1676  0.9982
  109OSM    H8F11205  -1.120   2.270   6.412 -1.3989 -0.2752  1.0719
  109OSM    H8G11206  -1.176   2.119   6.345  0.3054  1.3817 -0.7927
  109OSM    C9F11207  -0.961   2.161   6.309 -0.1894  0.3725 -0.5859
  109OSM    H9F11208  -0.872   2.177   6.371 -0.0751 -0.1708 -0.5996
  109OSM   C10F11209  -0.958   2.134   6.180  0.0545  0.5602  0.0353
  109OSM   H10F11210  -0.857   2.131   6.136  0.1677 -1.2827  0.3446
  109OSM   C11F11211  -1.071   2.115   6.079 -0.0708  0.1402  0.2110
  109OSM   H11F11212  -1.093   2.214   6.033 -2.7445  0.1153  1.2475
  109OSM   H11G11213  -1.165   2.082   6.128  1.5381 -1.3121  2.5234
  109OSM   C12F11214  -1.040   1.995   5.980  0.4333  0.1518  0.6790
  109OSM   H12F11215  -1.026   1.900   6.037  0.2450  0.6888  1.6518
  109OSM   H12G11216  -0.950   2.030   5.925 -0.7548  0.5737 -1.0801
  109OSM   C13F11217  -1.140   1.974   5.868  0.4800  0.1415 -0.3206
  109OSM   H13F11218  -1.152   2.072   5.818 -0.7551 -0.2429 -0.8101
  109OSM   H13G11219  -1.236   1.947   5.917  1.1227 -1.2807  0.2318
  109OSM   C14F11220  -1.100   1.868   5.772 -0.5383 -0.0005 -0.4203
  109OSM   H14F11221  -0.991   1.870   5.749 -0.1211 -0.3962  1.3529
  109OSM   H14G11222  -1.156   1.890   5.679 -0.5937  0.3425 -0.3063
  109OSM   C15F11223  -1.138   1.722   5.814  0.1151 -0.5758 -0.1257
  109OSM   H15F11224  -1.102   1.703   5.917 -0.1653 -0.4402 -0.0020
  109OSM   H15G11225  -1.094   1.644   5.748  0.0423 -0.0569 -0.8068
  109OSM   C16F11226  -1.283   1.683   5.801  0.3423 -0.2505  0.4571
  109OSM   H16F11227  -1.334   1.724   5.712 -2.3331  0.6282  2.2695
  109OSM   H16G11228  -1.339   1.720   5.890  0.6352 -1.8023  1.3311
  109OSM   C17F11229  -1.293   1.525   5.797  0.1079  0.1035 -0.2689
  109OSM   H17F11230  -1.226   1.476   5.872 -0.7060 -1.1214 -0.3205
  109OSM   H17G11231  -1.260   1.492   5.696  0.9570  0.9852 -0.2995
  109OSM   C18F11232  -1.435   1.479   5.833  0.1081  0.7076  0.6806
  109OSM   H18F11233  -1.459   1.379   5.792  0.2893  0.9219  0.0335
  109OSM   H18G11234  -1.499   1.547   5.772 -1.0146 -1.1981 -0.3868
  109OSM   H18H11235  -1.463   1.502   5.938 -1.3586  4.6476 -0.3839
  110OSM      N11236   4.012   6.300   7.969  0.2285  0.2023 -0.0697
  110OSM    C1511237   3.873   6.318   7.929  0.0851  0.3477 -0.4243
  110OSM   H15A11238   3.822   6.223   7.918 -2.9790  1.7442  0.4063
  110OSM   H15B11239   3.868   6.367   7.833 -0.9115  0.2843 -0.4203
  110OSM   H15C11240   3.819   6.368   8.008  1.4575  1.4010 -0.1230
  110OSM    C1411241   4.079   6.428   8.002 -0.1971 -0.0305  0.3383
  110OSM   H14A11242   4.183   6.426   8.032 -0.5787 -2.5026  1.7149
  110OSM   H14B11243   4.026   6.487   8.075 -0.5454  2.2007 -1.6020
  110OSM   H14C11244   4.086   6.489   7.913  1.4700  1.6493  1.5284
  110OSM    C1311245   3.991   6.210   8.092 -0.8376  0.0472 -0.5387
  110OSM   H13A11246   3.925   6.249   8.168 -0.8195 -1.1458  0.1233
  110OSM   H13B11247   4.083   6.178   8.139 -1.2967 -1.9591 -0.8869
  110OSM   H13C11248   3.952   6.112   8.068  0.5908 -1.0594  1.3592
  110OSM    C1211249   4.095   6.222   7.864 -0.2314  0.2579 -0.1679
  110OSM   H12A11250   4.188   6.208   7.917  1.0171  1.8770 -1.8077
  110OSM   H12B11251   4.115   6.293   7.785  0.7637 -0.3220 -0.4479
  110OSM    C1111252   4.021   6.100   7.801 -0.1567 -0.1827 -0.4253
  110OSM   H11A11253   3.927   6.144   7.762  0.3789  1.4306  0.0268
  110OSM   H11B11254   4.005   6.032   7.888 -2.5612  0.1598 -0.5447
  110OSM      P11255   4.092   5.901   7.646  0.2085  0.0836  0.0895
  110OSM    O1311256   4.175   5.900   7.523  0.4918  0.0940 -0.9794
  110OSM    O1411257   4.126   5.797   7.747 -0.8304  0.6131  0.0462
  110OSM    O1111258   3.940   5.884   7.607 -0.4909  0.4195 -0.6172
  110OSM    O1211259   4.107   6.042   7.703 -0.4256  0.1105 -0.1030
  110OSM    C1S11260   3.869   5.971   7.529 -0.4595  0.0340 -0.0842
  110OSM    H1S11261   3.915   6.072   7.519  0.0129 -0.1665  0.0280
  110OSM    H1T11262   3.767   5.977   7.573 -0.1431 -1.4865  0.9617
  110OSM     NF11263   3.805   6.027   7.302  0.4056  0.2408 -0.4823
  110OSM    HNF11264   3.705   6.034   7.304  0.4782  1.8685  1.4935
  110OSM    C2S11265   3.867   5.926   7.372  0.0373  0.0527 -0.5617
  110OSM    H2S11266   3.974   5.917   7.343  0.2320 -0.9476  0.3745
  110OSM    C3S11267   3.803   5.799   7.341  0.2373  0.2139 -0.6053
  110OSM    H3S11268   3.692   5.799   7.353  0.2851 -0.6172 -0.1191
  110OSM     O311269   3.864   5.693   7.422 -0.1264 -0.3246 -0.1142
  110OSM    HO311270   3.917   5.743   7.484 -1.4946 -0.9072  1.6382
  110OSM    C4S11271   3.815   5.773   7.192 -0.0456 -0.0429  0.1304
  110OSM    H4S11272   3.907   5.818   7.153 -1.0106 -0.1092 -2.3923
  110OSM    C5S11273   3.722   5.715   7.114  0.5322 -0.1777  0.2304
  110OSM    H5S11274   3.621   5.713   7.157  0.7225 -0.0603  0.6870
  110OSM    C6S11275   3.741   5.701   6.965  0.9819  1.0370 -0.1883
  110OSM    H6S11276   3.668   5.628   6.924  3.0056 -1.7197  0.8039
  110OSM    H6T11277   3.842   5.659   6.945  0.3369 -0.3756 -0.5728
  110OSM    C7S11278   3.730   5.831   6.869  0.1259  0.2111  0.4079
  110OSM    H7S11279   3.797   5.908   6.913 -0.9133  1.9213 -0.8733
  110OSM    H7T11280   3.627   5.869   6.860  0.1189  0.4516  1.3962
  110OSM    C8S11281   3.769   5.790   6.726  0.5107 -0.1858 -0.5694
  110OSM    H8S11282   3.835   5.701   6.733  1.5926  0.6557  0.1453
  110OSM    H8T11283   3.836   5.869   6.688 -1.5539  2.0003  0.0883
  110OSM    C9S11284   3.648   5.773   6.631 -0.8183  0.1503  0.9014
  110OSM    H9S11285   3.596   5.871   6.629  0.2473  0.7152  0.4693
  110OSM    H9T11286   3.576   5.695   6.667 -0.0924 -0.3148  1.3755
  110OSM   C10S11287   3.699   5.740   6.485 -0.2303  0.5290 -0.2075
  110OSM   H10S11288   3.756   5.644   6.488  3.4372  2.5397  0.2409
  110OSM   H10T11289   3.763   5.819   6.442 -2.2320  1.0334 -2.4808
  110OSM   C11S11290   3.578   5.718   6.389 -0.2499  0.1816 -0.1493
  110OSM   H11S11291   3.521   5.813   6.383 -0.8917 -0.1213  0.8026
  110OSM   H11T11292   3.520   5.627   6.416 -1.2482  0.6270 -0.7042
  110OSM   C12S11293   3.630   5.691   6.245 -0.0981  0.0047 -0.7005
  110OSM   H12S11294   3.711   5.615   6.246  1.6787  1.8132  0.6837
  110OSM   H12T11295   3.682   5.783   6.212  1.4807  0.7854  3.4665
  110OSM   C13S11296   3.517   5.657   6.146 -0.7031  0.0357  0.5554
  110OSM   H13S11297   3.441   5.738   6.147 -3.4621 -2.3986  0.0570
  110OSM   H13T11298   3.457   5.577   6.194  0.9857 -1.7474 -0.1663
  110OSM   C14S11299   3.544   5.639   5.999  0.1361  0.4755  0.1733
  110OSM   H14S11300   3.549   5.530   5.977 -0.4796  0.4984 -0.1213
  110OSM   H14T11301   3.640   5.691   5.980 -0.4466  2.4417  2.1857
  110OSM   C15S11302   3.434   5.698   5.912 -0.3642 -0.2937 -0.6615
  110OSM   H15S11303   3.474   5.702   5.809 -0.8362 -0.0920 -0.8437
  110OSM   H15T11304   3.419   5.805   5.939  3.1554  0.8321 -2.5996
  110OSM   C16S11305   3.296   5.624   5.921 -0.3272  0.4168  0.1323
  110OSM   H16S11306   3.262   5.643   6.025  0.6516  0.1109  0.5183
  110OSM   H16T11307   3.301   5.516   5.895 -0.3118  0.3393  0.4573
  110OSM   C17S11308   3.195   5.690   5.825  0.2791  0.2608 -0.1868
  110OSM   H17S11309   3.228   5.676   5.719  1.3603 -2.0610  0.3786
  110OSM   H17T11310   3.173   5.797   5.842  1.3787  0.8679 -2.1793
  110OSM   C18S11311   3.058   5.614   5.833 -0.0124 -0.0088 -0.5829
  110OSM   H18S11312   3.070   5.528   5.764  0.0609 -0.6287  0.1809
  110OSM   H18T11313   2.974   5.678   5.798 -0.7990 -1.2570 -1.0321
  110OSM   H18U11314   3.028   5.578   5.934 -0.6673 -0.5437 -0.9594
  110OSM    C1F11315   3.865   6.135   7.258 -0.1161  0.4818 -0.0410
  110OSM     OF11316   3.986   6.148   7.280  0.1964 -0.4767 -0.1044
  110OSM    C2F11317   3.779   6.243   7.193 -0.2006  0.6499  0.5020
  110OSM    H2F11318   3.765   6.329   7.262 -0.1895  1.8200 -0.9161
  110OSM    H2G11319   3.680   6.198   7.172 -0.2553 -0.7251  3.1607
  110OSM    C3F11320   3.848   6.309   7.064 -0.9247  0.1842  0.0655
  110OSM    H3F11321   3.931   6.373   7.101 -0.7021  1.4194 -2.3669
  110OSM    H3G11322   3.769   6.367   7.011 -0.1349  0.9436 -0.3179
  110OSM    C4F11323   3.903   6.214   6.962 -0.3382  0.0305 -0.0237
  110OSM    H4F11324   3.826   6.149   6.916 -0.6411 -1.0130  1.8369
  110OSM    H4G11325   3.973   6.144   7.012  1.1650  0.7433 -1.0589
  110OSM    C5F11326   3.978   6.286   6.854 -0.2255  0.0239 -0.0247
  110OSM    H5F11327   4.066   6.328   6.905 -1.2883  1.0071  1.0521
  110OSM    H5G11328   3.910   6.369   6.824  0.0976  0.9053  1.5627
  110OSM    C6F11329   4.010   6.203   6.729 -0.1607 -0.9612  0.1944
  110OSM    H6F11330   3.926   6.171   6.663  2.3367  0.0018 -3.7776
  110OSM    H6G11331   4.053   6.105   6.757  1.1819 -0.6702 -0.7287
  110OSM    C7F11332   4.105   6.269   6.634  0.4304 -0.3554  0.4545
  110OSM    H7F11333   4.206   6.291   6.674  1.8354 -0.5561 -2.6975
  110OSM    H7G11334   4.063   6.369   6.613 -0.4587 -0.8560 -0.2305
  110OSM    C8F11335   4.129   6.202   6.489  0.0976 -0.8335 -0.3590
  110OSM    H8F11336   4.031   6.187   6.438  0.5838 -2.4873 -0.8671
  110OSM    H8G11337   4.188   6.108   6.487  1.8787  0.1334  2.2496
  110OSM    C9F11338   4.221   6.303   6.421 -0.8008  0.4264 -0.7540
  110OSM    H9F11339   4.314   6.326   6.475 -1.1629  2.4791 -0.9265
  110OSM   C10F11340   4.204   6.367   6.310 -0.5298 -0.8001 -0.2536
  110OSM   H10F11341   4.289   6.421   6.265 -1.8600  2.0215  0.3658
  110OSM   C11F11342   4.075   6.357   6.224 -0.5819 -0.6244 -0.2427
  110OSM   H11F11343   4.027   6.453   6.195  0.9753  0.3947  0.4408
  110OSM   H11G11344   3.991   6.307   6.277 -0.5175 -1.6802 -1.0727
  110OSM   C12F11345   4.107   6.275   6.098  0.5891  0.1412 -0.0189
  110OSM   H12F11346   4.013   6.237   6.052  1.1049 -0.9368 -0.2263
  110OSM   H12G11347   4.170   6.186   6.120 -0.1652 -0.7196 -1.1939
  110OSM   C13F11348   4.170   6.357   5.987 -0.4516  0.1885 -0.7715
  110OSM   H13F11349   4.177   6.287   5.902  0.7111  0.3459 -0.8223
  110OSM   H13G11350   4.275   6.378   6.019 -0.6692  2.0345 -1.1447
  110OSM   C14F11351   4.099   6.486   5.935 -0.3649  0.7010  0.0821
  110OSM   H14F11352   4.154   6.518   5.844  0.2352 -2.0831 -0.6325
  110OSM   H14G11353   4.110   6.554   6.021  2.1149  0.2955  0.1817
  110OSM   C15F11354   3.955   6.453   5.881  0.0190 -0.2921 -0.5011
  110OSM   H15F11355   3.902   6.399   5.963 -1.6130  0.9873 -0.6622
  110OSM   H15G11356   3.946   6.381   5.798 -2.0289 -0.3448 -0.2737
  110OSM   C16F11357   3.881   6.577   5.835 -0.2110 -0.3508  0.0225
  110OSM   H16F11358   3.935   6.636   5.758  1.0986 -1.1679  0.2770
  110OSM   H16G11359   3.876   6.640   5.926 -0.5378  1.1079 -0.9717
  110OSM   C17F11360   3.736   6.539   5.788 -0.2183 -0.2097 -0.4044
  110OSM   H17F11361   3.736   6.492   5.687  1.6368 -0.6213 -0.2538
  110OSM   H17G11362   3.683   6.635   5.773 -0.3168 -0.5205 -2.3859
  110OSM   C18F11363   3.666   6.457   5.899 -0.0128  0.6920  0.2427
  110OSM   H18F11364   3.701   6.351   5.889 -1.5544  0.2929 -1.7893
  110OSM   H18G11365   3.556   6.448   5.888 -0.4151  1.6463  2.8257
  110OSM   H18H11366   3.698   6.512   5.990  0.5312  0.3089  0.2883
  111OSM      N11367   2.090   5.088   7.605  0.2434  0.1208  0.3128
  111OSM    C1511368   2.131   5.214   7.676  0.3807  0.3076  0.0602
  111OSM   H15A11369   2.229   5.247   7.642 -0.4710  0.5211 -2.3891
  111OSM   H15B11370   2.122   5.200   7.782  0.1216 -6.8532 -0.4318
  111OSM   H15C11371   2.056   5.286   7.648 -1.1368 -1.5351 -0.8011
  111OSM    C1411372   2.074   5.126   7.462  0.3876 -0.4867  0.1862
  111OSM   H14A11373   2.167   5.166   7.426 -0.7091  0.2211 -2.0356
  111OSM   H14B11374   2.003   5.205   7.443  0.9633 -0.1844 -0.7862
  111OSM   H14C11375   2.054   5.036   7.406  2.3938 -0.1928 -1.1109
  111OSM    C1311376   2.197   4.985   7.606 -0.5067  0.3449  0.4005
  111OSM   H13A11377   2.177   4.903   7.538 -0.6639 -0.4886  1.4246
  111OSM   H13B11378   2.200   4.929   7.698  0.9505 -2.0261 -0.9624
  111OSM   H13C11379   2.301   5.004   7.584 -0.6521 -0.1324 -0.7964
  111OSM    C1211380   1.960   5.032   7.656 -0.3311  0.0649 -0.2515
  111OSM   H12A11381   1.944   4.933   7.614  0.0218  0.0437 -0.3400
  111OSM   H12B11382   1.882   5.095   7.616 -0.9568  1.7672  3.3157
  111OSM    C1111383   1.947   5.014   7.806 -0.4977 -0.3409  0.6253
  111OSM   H11A11384   2.044   4.984   7.850 -0.2750  1.7150  1.6354
  111OSM   H11B11385   1.882   4.927   7.830  1.0170 -2.0814 -1.2270
  111OSM      P11386   1.758   5.184   7.838 -0.1814 -0.2523  0.0573
  111OSM    O1311387   1.679   5.150   7.956  0.4627 -0.3319  0.6420
  111OSM    O1411388   1.773   5.334   7.811  0.1816  0.0396 -0.3144
  111OSM    O1111389   1.707   5.105   7.714  0.0166 -0.1672  0.1498
  111OSM    O1211390   1.907   5.136   7.860 -0.3663  0.3628 -0.2461
  111OSM    C1S11391   1.641   5.177   7.610 -0.3117  0.0869  0.5203
  111OSM    H1S11392   1.716   5.224   7.543 -0.1404 -3.0558 -1.6925
  111OSM    H1T11393   1.579   5.258   7.654 -0.9980 -0.2099  0.1119
  111OSM     NF11394   1.486   5.164   7.412  0.2863 -0.5609  0.0266
  111OSM    HNF11395   1.407   5.212   7.449  1.2832 -0.3996  2.1277
  111OSM    C2S11396   1.553   5.086   7.515  0.2512  0.2560  0.1454
  111OSM    H2S11397   1.628   5.026   7.457 -0.1491  0.4189 -0.5544
  111OSM    C3S11398   1.452   5.005   7.602  1.0409 -0.0928  0.2051
  111OSM    H3S11399   1.368   5.077   7.617 -0.3737 -1.6561  0.1724
  111OSM     O311400   1.491   4.945   7.718  0.2459  0.4364  0.3479
  111OSM    HO311401   1.579   4.980   7.736  0.3044 -0.8263  2.9040
  111OSM    C4S11402   1.384   4.893   7.517  0.1999 -0.0439 -0.1435
  111OSM    H4S11403   1.447   4.857   7.435  0.8025  1.5948 -0.4443
  111OSM    C5S11404   1.254   4.866   7.517  0.4032  1.0248 -0.2053
  111OSM    H5S11405   1.202   4.907   7.604  0.8314 -1.7221  1.4894
  111OSM    C6S11406   1.191   4.779   7.424  0.7542  0.7051  0.1460
  111OSM    H6S11407   1.258   4.739   7.345  0.4342  0.9467 -0.2561
  111OSM    H6T11408   1.107   4.831   7.373  1.0265  0.4578 -0.5727
  111OSM    C7S11409   1.136   4.650   7.485  0.1365 -0.2088  0.3953
  111OSM    H7S11410   1.060   4.667   7.565 -0.3031 -0.0805 -0.0407
  111OSM    H7T11411   1.223   4.595   7.526  0.6536 -1.1628 -1.8550
  111OSM    C8S11412   1.059   4.559   7.387  0.4854  0.3306  0.2184
  111OSM    H8S11413   1.018   4.474   7.445  0.0446 -1.2213 -2.2132
  111OSM    H8T11414   1.117   4.514   7.303 -0.9451 -2.4381  0.5977
  111OSM    C9S11415   0.926   4.612   7.328  0.1111  0.0443 -0.2377
  111OSM    H9S11416   0.881   4.689   7.394  0.0723 -0.5301  0.4209
  111OSM    H9T11417   0.852   4.529   7.316 -1.4229  1.5703 -1.9590
  111OSM   C10S11418   0.964   4.669   7.186  0.5689 -0.3044  0.0792
  111OSM   H10S11419   1.016   4.579   7.148  1.3146 -0.8770  2.2939
  111OSM   H10T11420   1.029   4.759   7.187 -2.5615  2.3698 -3.6411
  111OSM   C11S11421   0.841   4.691   7.092  0.6174  0.8201  0.7223
  111OSM   H11S11422   0.772   4.774   7.119  1.2666  1.3175  0.8847
  111OSM   H11T11423   0.778   4.600   7.095  1.9061 -0.3862 -2.9971
  111OSM   C12S11424   0.866   4.718   6.944  0.5558  0.2258  0.0310
  111OSM   H12S11425   0.918   4.633   6.896 -0.9642  0.4499 -2.1259
  111OSM   H12T11426   0.945   4.796   6.935 -0.5816  1.1857 -2.5069
  111OSM   C13S11427   0.750   4.766   6.857  0.6673 -0.7353 -0.2731
  111OSM   H13S11428   0.697   4.856   6.896  0.3489  1.4476 -5.1303
  111OSM   H13T11429   0.681   4.679   6.870  1.9662 -1.4087  3.5787
  111OSM   C14S11430   0.780   4.799   6.710 -0.0061  0.3411 -0.2611
  111OSM   H14S11431   0.808   4.703   6.663  0.7420  0.6658 -0.5052
  111OSM   H14T11432   0.867   4.867   6.700 -0.5804  1.0565 -0.4556
  111OSM   C15S11433   0.657   4.857   6.638  0.0276 -0.2168 -0.4741
  111OSM   H15S11434   0.612   4.940   6.697 -1.8073 -0.9868 -0.7300
  111OSM   H15T11435   0.575   4.782   6.635  1.0437 -1.5761  2.2544
  111OSM   C16S11436   0.683   4.922   6.495  0.2221  0.8700  0.2970
  111OSM   H16S11437   0.742   4.854   6.431 -1.3770 -1.2513  0.9515
  111OSM   H16T11438   0.745   5.014   6.504  0.7803  0.5461 -0.1727
  111OSM   C17S11439   0.565   4.969   6.413  0.7602  0.5361 -0.1408
  111OSM   H17S11440   0.595   5.007   6.313  1.2043  0.7193  0.0634
  111OSM   H17T11441   0.514   5.049   6.471 -0.6586  0.2996 -1.0073
  111OSM   C18S11442   0.463   4.861   6.389  0.7061  0.3066 -0.4349
  111OSM   H18S11443   0.492   4.778   6.322  0.7607 -0.4571  0.5212
  111OSM   H18T11444   0.365   4.901   6.354 -0.4291  1.2715  3.3033
  111OSM   H18U11445   0.444   4.817   6.490  1.4563  2.8751  0.9259
  111OSM    C1F11446   1.551   5.204   7.305  0.4025  0.2615  0.6730
  111OSM     OF11447   1.676   5.202   7.296  0.4872  0.4649 -0.3530
  111OSM    C2F11448   1.462   5.246   7.186 -0.3797  0.1306  0.3712
  111OSM    H2F11449   1.393   5.320   7.230 -0.7901 -1.5771  2.7949
  111OSM    H2G11450   1.405   5.157   7.151 -1.4329  0.3406  1.4909
  111OSM    C3F11451   1.538   5.305   7.066 -0.6524 -0.0088  0.2679
  111OSM    H3F11452   1.606   5.230   7.019 -0.9466 -1.8960  2.6676
  111OSM    H3G11453   1.597   5.399   7.068 -0.3756 -0.1284 -1.1208
  111OSM    C4F11454   1.431   5.339   6.963  0.5703 -0.7323  0.2513
  111OSM    H4F11455   1.366   5.414   7.013 -2.2811 -2.1116 -1.1526
  111OSM    H4G11456   1.371   5.251   6.931 -0.2318 -0.4421  0.9303
  111OSM    C5F11457   1.507   5.390   6.830 -0.0612  0.1388  0.2145
  111OSM    H5F11458   1.560   5.306   6.782 -1.8053 -0.1438 -1.3239
  111OSM    H5G11459   1.575   5.469   6.867  0.4069 -1.0316  1.9699
  111OSM    C6F11460   1.416   5.455   6.732 -0.1752 -0.2216 -0.2767
  111OSM    H6F11461   1.346   5.528   6.777  1.4852  1.6161 -0.5320
  111OSM    H6G11462   1.343   5.390   6.679 -0.5708  1.4372 -1.8282
  111OSM    C7F11463   1.497   5.535   6.633 -0.7701  0.1124  0.8527
  111OSM    H7F11464   1.573   5.479   6.576 -2.0291 -0.1093 -0.6663
  111OSM    H7G11465   1.544   5.621   6.685 -2.5419  0.7464  1.4926
  111OSM    C8F11466   1.406   5.585   6.522 -0.4713 -0.6600  0.2550
  111OSM    H8F11467   1.336   5.504   6.491 -0.7861 -0.2340 -0.1621
  111OSM    H8G11468   1.468   5.583   6.429 -1.9824 -0.9518 -0.7853
  111OSM    C9F11469   1.331   5.720   6.531 -0.1330  0.5176 -0.1395
  111OSM    H9F11470   1.380   5.797   6.593  0.5544  0.6347 -0.8091
  111OSM   C10F11471   1.220   5.749   6.461  0.0350 -0.0716 -0.4764
  111OSM   H10F11472   1.181   5.851   6.462 -0.9336 -0.4076  2.1063
  111OSM   C11F11473   1.160   5.658   6.355  0.1937 -0.6044  0.6206
  111OSM   H11F11474   1.060   5.621   6.387  0.6619 -0.9428  1.7481
  111OSM   H11G11475   1.219   5.567   6.334  0.7700  0.1500 -1.2582
  111OSM   C12F11476   1.143   5.734   6.224  0.9110 -0.3736 -0.2192
  111OSM   H12F11477   1.099   5.834   6.247  0.1258 -1.2095  2.2379
  111OSM   H12G11478   1.067   5.681   6.163 -0.9022  3.7009 -1.8650
  111OSM   C13F11479   1.264   5.740   6.137  0.3243  0.1235 -0.6371
  111OSM   H13F11480   1.293   5.635   6.113 -3.7257 -1.3255  0.1244
  111OSM   H13G11481   1.347   5.788   6.195  0.4567  0.0099 -0.7306
  111OSM   C14F11482   1.238   5.821   6.012  0.5643  0.0706 -0.5985
  111OSM   H14F11483   1.256   5.927   6.039 -1.4808 -0.2436  2.5185
  111OSM   H14G11484   1.129   5.821   5.988  0.0622  0.6063  1.4629
  111OSM   C15F11485   1.315   5.772   5.893 -0.6089  0.1711  0.0920
  111OSM   H15F11486   1.284   5.666   5.877 -2.0647  0.3213  1.6744
  111OSM   H15G11487   1.421   5.790   5.920 -1.3220 -0.9945  4.3548
  111OSM   C16F11488   1.278   5.835   5.753  0.1246 -0.4331  0.1363
  111OSM   H16F11489   1.250   5.943   5.760 -0.6061 -0.3691 -2.6938
  111OSM   H16G11490   1.186   5.784   5.717 -1.5353  1.6732  1.1151
  111OSM   C17F11491   1.399   5.807   5.666  0.3532  0.2328 -0.6231
  111OSM   H17F11492   1.421   5.699   5.655 -0.1598  0.3294 -3.5919
  111OSM   H17G11493   1.487   5.850   5.719  1.6470 -1.5072 -1.2660
  111OSM   C18F11494   1.406   5.874   5.525 -0.4525  0.4311 -0.5354
  111OSM   H18F11495   1.362   5.808   5.447  0.4588 -0.4117 -0.3654
  111OSM   H18G11496   1.513   5.879   5.494 -0.5277  1.0486 -0.7000
  111OSM   H18H11497   1.361   5.975   5.528  0.1392  0.7481 -1.5991
  112OSM      N11498   1.580   6.609   7.892 -0.1928  0.2139 -0.5140
  112OSM    C1511499   1.547   6.477   7.827 -0.1377 -0.1807  0.0202
  112OSM   H15A11500   1.455   6.495   7.775 -0.5661  1.1304  1.1797
  112OSM   H15B11501   1.533   6.398   7.899 -3.7948 -0.1697 -0.5151
  112OSM   H15C11502   1.616   6.445   7.750 -0.3175 -2.0156  0.5612
  112OSM    C1411503   1.465   6.638   7.981 -0.4675  0.2002 -0.1602
  112OSM   H14A11504   1.370   6.633   7.929  0.2415  0.1293 -1.5008
  112OSM   H14B11505   1.472   6.738   8.020 -0.2470 -0.6132  1.9930
  112OSM   H14C11506   1.471   6.561   8.056 -0.1790 -0.1224 -0.5099
  112OSM    C1311507   1.702   6.600   7.980  0.1188 -0.8750 -0.1142
  112OSM   H13A11508   1.726   6.695   8.026 -0.0212 -0.9176  0.0469
  112OSM   H13B11509   1.785   6.584   7.912  0.4851  1.7209 -0.4050
  112OSM   H13C11510   1.694   6.529   8.060  0.8651  0.3084  1.0463
  112OSM    C1211511   1.590   6.714   7.783 -0.3941  0.8720  0.5724
  112OSM   H12A11512   1.587   6.815   7.823  1.8185  0.6338  1.4369
  112OSM   H12B11513   1.504   6.707   7.718  0.7121 -0.6699 -0.7839
  112OSM    C1111514   1.715   6.704   7.690  0.3148  0.1925  0.2430
  112OSM   H11A11515   1.714   6.786   7.615  1.9793 -1.3605 -1.5812
  112OSM   H11B11516   1.702   6.612   7.629 -0.9717  0.5559 -0.0708
  112OSM      P11517   1.894   6.847   7.814 -0.1929  0.2940  0.0668
  112OSM    O1311518   1.789   6.923   7.892 -0.0004 -0.0704  0.4771
  112OSM    O1411519   2.028   6.822   7.875  0.1022  0.0878 -0.0143
  112OSM    O1111520   1.927   6.924   7.683  0.2994  0.2222  0.2535
  112OSM    O1211521   1.842   6.700   7.761  0.4375  0.8410  0.4447
  112OSM    C1S11522   2.025   6.875   7.593 -0.9923 -0.6330  0.0463
  112OSM    H1S11523   2.084   6.787   7.627  0.4068  1.0775  2.3711
  112OSM    H1T11524   2.107   6.951   7.590  0.2717 -1.9465  0.2900
  112OSM     NF11525   2.078   6.796   7.359  0.3301 -0.4690  0.0886
  112OSM    HNF11526   2.136   6.853   7.302 -1.7526 -1.2134 -3.0168
  112OSM    C2S11527   1.979   6.862   7.442  0.0228 -0.3249  0.2095
  112OSM    H2S11528   1.890   6.796   7.448 -0.1027 -0.2850 -0.8809
  112OSM    C3S11529   1.924   6.995   7.384  0.6657 -0.1735 -0.5456
  112OSM    H3S11530   2.016   7.051   7.355  1.4202 -1.7011 -1.2374
  112OSM     O311531   1.848   7.079   7.464  0.3968 -0.2000 -0.7437
  112OSM    HO311532   1.838   7.037   7.550 -2.0501  1.0503 -0.3067
  112OSM    C4S11533   1.862   6.969   7.251  0.0403 -0.4263 -0.4471
  112OSM    H4S11534   1.937   6.956   7.172  1.1874  1.2972  0.3059
  112OSM    C5S11535   1.732   6.952   7.214 -0.1118  0.7029 -0.6486
  112OSM    H5S11536   1.650   6.941   7.287  2.0919 -2.0070  1.6615
  112OSM    C6S11537   1.694   6.925   7.072 -1.2412 -0.3268  0.2039
  112OSM    H6S11538   1.592   6.888   7.049 -0.9884  0.4164 -2.5110
  112OSM    H6T11539   1.762   6.844   7.035  0.6746  1.7102 -0.9855
  112OSM    C7S11540   1.720   7.039   6.979  0.4895 -0.5022  0.2768
  112OSM    H7S11541   1.827   7.069   6.992  0.5525 -1.6298  3.1286
  112OSM    H7T11542   1.667   7.133   7.003 -2.5686 -1.7305 -1.1533
  112OSM    C8S11543   1.697   7.007   6.835 -0.2167 -0.0161  0.0570
  112OSM    H8S11544   1.709   7.098   6.772  1.9334 -0.4387 -0.2087
  112OSM    H8T11545   1.599   6.954   6.831  1.5054 -3.4324 -0.3264
  112OSM    C9S11546   1.802   6.912   6.773 -0.4116 -0.4802  0.3544
  112OSM    H9S11547   1.774   6.806   6.794 -0.7624 -1.2106 -3.1563
  112OSM    H9T11548   1.901   6.935   6.818 -0.2590  0.0766 -0.2570
  112OSM   C10S11549   1.805   6.922   6.619  0.4903  0.4412  0.1904
  112OSM   H10S11550   1.842   7.022   6.588 -2.0137  1.4518  0.1615
  112OSM   H10T11551   1.701   6.915   6.581  1.7292 -1.0786 -3.3588
  112OSM   C11S11552   1.897   6.824   6.550  0.0980  0.6711  1.1512
  112OSM   H11S11553   1.866   6.720   6.574  0.2645 -0.3179 -2.3985
  112OSM   H11T11554   1.998   6.823   6.597  0.7102 -4.3065  0.2937
  112OSM   C12S11555   1.911   6.840   6.400  0.4595  0.5202  0.5795
  112OSM   H12S11556   1.986   6.767   6.363 -0.5593 -0.8116  1.0636
  112OSM   H12T11557   1.941   6.946   6.386  0.8828  0.4275  0.7999
  112OSM   C13S11558   1.779   6.797   6.321  0.2482 -0.4321 -0.2893
  112OSM   H13S11559   1.697   6.859   6.364  1.1153 -0.3063  1.2716
  112OSM   H13T11560   1.756   6.691   6.343 -3.4448  0.3310  0.0403
  112OSM   C14S11561   1.792   6.833   6.177 -0.1556  0.5876  0.2163
  112OSM   H14S11562   1.850   6.926   6.165  2.9607 -1.3688 -1.1491
  112OSM   H14T11563   1.697   6.849   6.120  0.3763  0.0610 -0.8510
  112OSM   C15S11564   1.865   6.721   6.096 -0.6305  0.0132 -0.5379
  112OSM   H15S11565   1.826   6.622   6.130 -0.7468  0.9659  2.3631
  112OSM   H15T11566   1.974   6.724   6.115 -0.5485 -0.3553 -0.9277
  112OSM   C16S11567   1.847   6.740   5.949 -0.3512  1.2328 -0.0382
  112OSM   H16S11568   1.902   6.833   5.921  1.1387  0.3879 -0.0164
  112OSM   H16T11569   1.740   6.754   5.921 -0.5333  0.5370  0.2939
  112OSM   C17S11570   1.907   6.630   5.864 -0.2597 -0.0516 -0.4984
  112OSM   H17S11571   1.995   6.584   5.913 -0.0507 -0.6163 -1.3681
  112OSM   H17T11572   1.947   6.684   5.775 -0.3240 -1.0336 -1.1393
  112OSM   C18S11573   1.815   6.513   5.830 -0.2627  0.2076 -0.4387
  112OSM   H18S11574   1.757   6.476   5.918  2.2962 -2.9380  0.1340
  112OSM   H18T11575   1.873   6.431   5.781  0.6159  0.1913  0.5900
  112OSM   H18U11576   1.741   6.565   5.766 -0.2245  1.7662  0.7369
  112OSM    C1F11577   2.106   6.664   7.368  0.3566 -0.7042 -0.1115
  112OSM     OF11578   2.029   6.589   7.428 -0.1970 -0.6480  0.0086
  112OSM    C2F11579   2.229   6.624   7.293 -0.0891  0.2883 -0.1353
  112OSM    H2F11580   2.285   6.541   7.341 -0.4380  0.3124  0.3202
  112OSM    H2G11581   2.307   6.702   7.287 -1.0103  1.2684  0.3755
  112OSM    C3F11582   2.197   6.567   7.152 -0.0435 -0.1368 -0.2095
  112OSM    H3F11583   2.133   6.644   7.103  0.1478 -0.4018 -0.8897
  112OSM    H3G11584   2.132   6.477   7.150 -1.5365  0.8293  1.7139
  112OSM    C4F11585   2.319   6.522   7.073 -0.3623 -0.2827 -0.3608
  112OSM    H4F11586   2.379   6.443   7.122  1.2106  0.1029 -1.5756
  112OSM    H4G11587   2.374   6.617   7.058 -3.1158  1.3658 -0.8764
  112OSM    C5F11588   2.261   6.482   6.934 -0.2985 -0.1004 -0.0149
  112OSM    H5F11589   2.214   6.565   6.877  1.7184 -0.1683 -1.8777
  112OSM    H5G11590   2.182   6.406   6.950 -2.0713  2.0471  2.3384
  112OSM    C6F11591   2.378   6.434   6.841  0.2879  0.3573  0.2237
  112OSM    H6F11592   2.459   6.510   6.839  0.4421  0.3488  2.9221
  112OSM    H6G11593   2.335   6.417   6.740  2.5865 -1.5194 -0.5470
  112OSM    C7F11594   2.429   6.292   6.888  0.4270 -0.0718 -0.6763
  112OSM    H7F11595   2.351   6.223   6.925  0.0833  0.1550 -0.9755
  112OSM    H7G11596   2.501   6.307   6.971 -1.5191  1.2833  0.8572
  112OSM    C8F11597   2.503   6.226   6.785  0.8827  0.1638  0.7862
  112OSM    H8F11598   2.537   6.132   6.834 -1.3590 -0.5792  1.0491
  112OSM    H8G11599   2.597   6.278   6.758  0.4633 -0.1428 -1.5413
  112OSM    C9F11600   2.429   6.184   6.655 -0.2120  0.5922  0.0569
  112OSM    H9F11601   2.320   6.176   6.671 -0.3461  1.8978 -0.1509
  112OSM   C10F11602   2.477   6.157   6.532 -0.1519 -0.0954 -0.6516
  112OSM   H10F11603   2.408   6.138   6.448  0.1846 -1.5904 -0.6063
  112OSM   C11F11604   2.614   6.190   6.495 -0.2848 -0.0569  0.1382
  112OSM   H11F11605   2.679   6.114   6.543 -0.5589 -0.4697 -0.1406
  112OSM   H11G11606   2.645   6.288   6.537 -1.6415  0.7533 -0.6848
  112OSM   C12F11607   2.635   6.169   6.343  0.3527 -0.1061 -0.4692
  112OSM   H12F11608   2.564   6.240   6.295  0.4257  0.5291  0.3311
  112OSM   H12G11609   2.613   6.064   6.315  0.1275 -0.1422 -0.1683
  112OSM   C13F11610   2.775   6.227   6.312 -0.1736 -0.1790  0.9256
  112OSM   H13F11611   2.853   6.165   6.362  1.3073  1.4255  0.7066
  112OSM   H13G11612   2.801   6.330   6.344  3.9364  0.0025 -2.1165
  112OSM   C14F11613   2.800   6.239   6.164 -0.0641  0.4792  0.5152
  112OSM   H14F11614   2.708   6.270   6.110  2.2924  1.2555 -3.4929
  112OSM   H14G11615   2.833   6.141   6.125 -0.1054  1.2009 -1.4699
  112OSM   C15F11616   2.914   6.342   6.124  0.3413  0.0819  0.4324
  112OSM   H15F11617   2.963   6.310   6.030 -1.0407  1.6427 -0.8742
  112OSM   H15G11618   3.003   6.341   6.191  0.1791 -1.2693  0.6585
  112OSM   C16F11619   2.864   6.489   6.102 -0.7108 -0.2132  0.5030
  112OSM   H16F11620   2.854   6.540   6.201  1.0132  1.9602 -0.3507
  112OSM   H16G11621   2.764   6.489   6.054 -1.4122 -1.0135  1.9113
  112OSM   C17F11622   2.957   6.577   6.014  0.0475 -0.0364 -0.2716
  112OSM   H17F11623   2.946   6.549   5.907 -0.6295  1.2540 -0.5648
  112OSM   H17G11624   3.065   6.573   6.042  0.1797 -0.0332 -0.7752
  112OSM   C18F11625   2.915   6.721   6.025 -1.1023 -0.2833 -0.0259
  112OSM   H18F11626   2.816   6.719   5.975 -0.9645  0.3180 -0.3326
  112OSM   H18G11627   2.975   6.783   5.956 -0.3439  0.0171  0.8913
  112OSM   H18H11628   2.897   6.754   6.130 -2.9167  1.7123 -0.8740
  113OSM      N11629   6.467   1.057   8.323 -0.5428  0.4024  0.9504
  113OSM    C1511630   6.395   1.074   8.450 -0.3392  0.5517 -0.6484
  113OSM   H15A11631   6.339   1.165   8.461  1.7622  2.1918 -2.4919
  113OSM   H15B11632   6.467   1.079   8.530  0.3595 -3.0036 -0.8902
  113OSM   H15C11633   6.339   0.983   8.465 -0.2589  0.7743  1.2319
  113OSM    C1411634   6.548   1.183   8.298 -0.6763  0.3418 -0.0414
  113OSM   H14A11635   6.486   1.268   8.316 -1.1309  0.3967 -1.7101
  113OSM   H14B11636   6.581   1.189   8.195  1.8991 -0.9249  0.6061
  113OSM   H14C11637   6.632   1.200   8.364 -1.3722  0.6226  0.7923
  113OSM    C1311638   6.568   0.944   8.327  0.2585  1.4429  0.1984
  113OSM   H13A11639   6.644   0.952   8.403  0.1284 -2.3843  0.8957
  113OSM   H13B11640   6.598   0.923   8.225 -0.5628  0.3190  0.1828
  113OSM   H13C11641   6.515   0.853   8.348  1.4426  0.4503 -0.9496
  113OSM    C1211642   6.369   1.033   8.209  0.1248 -0.3485  0.0304
  113OSM   H12A11643   6.319   1.127   8.191  2.1398  0.2682 -3.0634
  113OSM   H12B11644   6.291   0.964   8.237 -0.4584  0.4815  0.4939
  113OSM    C1111645   6.413   0.984   8.069  0.1211  0.0499  0.1717
  113OSM   H11A11646   6.498   1.049   8.038 -0.7780  1.5230  0.7249
  113OSM   H11B11647   6.322   1.003   8.008 -1.4084  1.5880  2.7554
  113OSM      P11648   6.340   0.736   8.027  0.1057  0.2105  0.3502
  113OSM    O1311649   6.397   0.599   8.048  0.3047  0.2722 -0.4860
  113OSM    O1411650   6.210   0.789   8.078 -0.0247 -0.2372 -0.2306
  113OSM    O1111651   6.321   0.759   7.871  0.3665 -0.0128  0.0045
  113OSM    O1211652   6.455   0.845   8.075 -0.5407  0.1041 -0.2573
  113OSM    C1S11653   6.435   0.751   7.786 -0.5467  0.2408 -0.3027
  113OSM    H1S11654   6.456   0.643   7.772 -4.4695 -0.6447 -0.3637
  113OSM    H1T11655   6.521   0.806   7.829 -0.9424  0.9101 -0.3595
  113OSM     NF11656   6.536   0.776   7.567 -0.5923  0.5232 -0.4368
  113OSM    HNF11657   6.610   0.842   7.567  0.7026 -0.5933  4.2578
  113OSM    C2S11658   6.419   0.808   7.643  0.5559 -0.8186 -0.4323
  113OSM    H2S11659   6.328   0.759   7.600  0.2571 -1.6050  1.0242
  113OSM    C3S11660   6.374   0.962   7.648  0.1937  0.0674 -0.8202
  113OSM    H3S11661   6.458   1.009   7.703  0.4762  1.0029 -2.0117
  113OSM     O311662   6.271   1.001   7.740 -0.1676  0.6157  0.5653
  113OSM    HO311663   6.263   0.930   7.804 -1.1613  1.8382  1.8459
  113OSM    C4S11664   6.368   1.024   7.513 -0.7167 -0.0889 -0.1328
  113OSM    H4S11665   6.466   1.070   7.495  0.3537 -2.2978 -0.2560
  113OSM    C5S11666   6.265   1.037   7.436  0.0467 -0.6990  0.1624
  113OSM    H5S11667   6.165   0.996   7.457  0.3510 -1.2063  0.6235
  113OSM    C6S11668   6.272   1.113   7.304 -0.3437 -0.2189 -0.0258
  113OSM    H6S11669   6.365   1.171   7.285  1.1739 -1.9473  1.7147
  113OSM    H6T11670   6.187   1.179   7.328  0.8786  0.4081  2.9814
  113OSM    C7S11671   6.246   1.020   7.178 -0.1768 -0.7976 -0.1297
  113OSM    H7S11672   6.145   0.976   7.185 -0.5959  0.3524  1.5320
  113OSM    H7T11673   6.330   0.948   7.188 -0.1126 -0.3447  4.6238
  113OSM    C8S11674   6.263   1.086   7.039  0.0573 -0.1363  0.1392
  113OSM    H8S11675   6.364   1.130   7.036  0.2190 -0.4526  0.7516
  113OSM    H8T11676   6.181   1.161   7.032 -1.0467 -1.3857 -1.1192
  113OSM    C9S11677   6.238   0.990   6.916  0.0228  0.8744 -0.6013
  113OSM    H9S11678   6.162   0.913   6.940  3.1884 -2.3230 -0.0025
  113OSM    H9T11679   6.339   0.949   6.897 -0.4860 -0.3513 -0.7026
  113OSM   C10S11680   6.209   1.064   6.785  0.5580 -0.2676 -0.1250
  113OSM   H10S11681   6.239   0.999   6.700  0.8860  0.3039 -0.4552
  113OSM   H10T11682   6.273   1.155   6.784 -0.8571  0.9758 -4.5486
  113OSM   C11S11683   6.067   1.114   6.767  0.1132  0.4569  0.0789
  113OSM   H11S11684   6.041   1.200   6.832 -1.9887 -1.1882  1.6009
  113OSM   H11T11685   6.004   1.030   6.805  2.1679 -1.0702  0.2962
  113OSM   C12S11686   6.044   1.139   6.618 -0.8738 -0.0389 -0.0951
  113OSM   H12S11687   6.042   1.041   6.567 -0.6583 -0.2672  0.3265
  113OSM   H12T11688   6.125   1.198   6.571 -0.9046 -0.2506 -0.4137
  113OSM   C13S11689   5.917   1.225   6.589  0.2534  0.3027 -0.8571
  113OSM   H13S11690   5.915   1.297   6.674  0.0519  0.1664 -0.7436
  113OSM   H13T11691   5.830   1.155   6.592 -0.2205  0.8969 -0.3412
  113OSM   C14S11692   5.920   1.302   6.466  0.5741 -0.4787 -0.0773
  113OSM   H14S11693   5.942   1.234   6.381 -2.6264 -2.8292  0.7858
  113OSM   H14T11694   5.994   1.386   6.467  0.4905 -0.4000  1.5025
  113OSM   C15S11695   5.777   1.364   6.437  0.1245 -0.1412  0.2137
  113OSM   H15S11696   5.729   1.390   6.534  1.0811  1.4846  0.2831
  113OSM   H15T11697   5.714   1.294   6.379  0.7412  0.2961 -1.0098
  113OSM   C16S11698   5.779   1.499   6.362 -0.0894  0.0888  0.8785
  113OSM   H16S11699   5.849   1.574   6.403  0.3980  0.6220 -0.8912
  113OSM   H16T11700   5.677   1.542   6.351 -0.2260 -0.5492 -0.6028
  113OSM   C17S11701   5.856   1.474   6.226  0.2007 -0.3075  0.2593
  113OSM   H17S11702   5.958   1.435   6.249  0.9844  0.2142 -2.0318
  113OSM   H17T11703   5.870   1.571   6.175 -1.8687 -0.1041 -0.0023
  113OSM   C18S11704   5.778   1.389   6.123 -0.2936  0.0975 -0.4582
  113OSM   H18S11705   5.749   1.285   6.149  2.8548 -0.8010 -0.0932
  113OSM   H18T11706   5.844   1.376   6.034 -1.0861 -0.1544 -1.0146
  113OSM   H18U11707   5.689   1.445   6.088  0.1077  1.5111  0.6630
  113OSM    C1F11708   6.565   0.658   7.533 -0.1829  0.3278  0.8717
  113OSM     OF11709   6.483   0.570   7.537  0.8636 -0.0671 -0.5027
  113OSM    C2F11710   6.708   0.629   7.476 -0.1779  0.1795 -0.4711
  113OSM    H2F11711   6.738   0.553   7.551 -2.0368  1.6462  1.9187
  113OSM    H2G11712   6.772   0.719   7.479 -0.4975  0.4061 -0.2754
  113OSM    C3F11713   6.705   0.583   7.332 -0.5714  0.4596  0.2920
  113OSM    H3F11714   6.693   0.673   7.269  1.3837  1.3731  1.1458
  113OSM    H3G11715   6.621   0.514   7.307 -0.9989  1.8045 -2.4268
  113OSM    C4F11716   6.834   0.513   7.298  0.3966  0.0802  0.7797
  113OSM    H4F11717   6.835   0.410   7.341 -1.2554 -0.4591 -0.3932
  113OSM    H4G11718   6.928   0.564   7.329  1.6786 -1.3460 -0.5768
  113OSM    C5F11719   6.854   0.499   7.146  0.4682 -0.0771  0.5630
  113OSM    H5F11720   6.756   0.488   7.096  1.1124  1.2103 -1.0924
  113OSM    H5G11721   6.915   0.406   7.140 -1.5554 -1.4638  0.6934
  113OSM    C6F11722   6.937   0.609   7.076  0.0291 -0.1877 -0.0240
  113OSM    H6F11723   6.899   0.707   7.112 -1.1846 -0.5511 -0.2726
  113OSM    H6G11724   6.918   0.600   6.967  0.2378 -3.1733  0.1064
  113OSM    C7F11725   7.092   0.598   7.087  0.2429  0.4567 -0.2660
  113OSM    H7F11726   7.121   0.500   7.044  1.0076  0.4093  0.3324
  113OSM    H7G11727   7.118   0.601   7.195 -1.6430  3.6266  0.2493
  113OSM    C8F11728   7.160   0.714   7.016 -0.5360 -1.3816  0.1118
  113OSM    H8F11729   7.129   0.802   7.076  0.5531  0.2310 -1.6064
  113OSM    H8G11730   7.120   0.727   6.913 -0.8821 -0.0242  0.3931
  113OSM    C9F11731   7.306   0.709   7.008 -0.4472  0.4385  0.0910
  113OSM    H9F11732   7.362   0.730   7.100  0.5243 -0.5396 -0.2555
  113OSM   C10F11733   7.386   0.672   6.905 -0.0654  0.7723 -0.1280
  113OSM   H10F11734   7.492   0.695   6.924 -0.4634  1.4329  1.4296
  113OSM   C11F11735   7.342   0.629   6.769 -0.7736  0.6147  0.0263
  113OSM   H11F11736   7.234   0.643   6.750 -0.7235 -0.8520 -1.6379
  113OSM   H11G11737   7.354   0.519   6.762 -2.1774  0.1086  3.5034
  113OSM   C12F11738   7.429   0.696   6.654  0.3599 -0.2490  0.1742
  113OSM   H12F11739   7.390   0.641   6.565 -2.3179 -1.5148  1.9679
  113OSM   H12G11740   7.532   0.667   6.684  0.3999  0.4447  0.7530
  113OSM   C13F11741   7.409   0.842   6.612  0.0775 -0.0735 -0.1202
  113OSM   H13F11742   7.411   0.899   6.707  1.6248  0.1935 -0.2788
  113OSM   H13G11743   7.313   0.867   6.563 -0.7528 -0.0497  1.4638
  113OSM   C14F11744   7.510   0.891   6.508 -0.2097  0.2788 -0.1343
  113OSM   H14F11745   7.484   0.986   6.457 -1.7602 -0.4632 -0.7776
  113OSM   H14G11746   7.521   0.828   6.417 -0.2835  0.3263 -0.1762
  113OSM   C15F11747   7.654   0.912   6.569  0.3921 -0.2886 -1.4900
  113OSM   H15F11748   7.683   0.823   6.629  0.7888  1.5688  1.2314
  113OSM   H15G11749   7.639   0.999   6.637 -0.0370  0.2577 -2.2646
  113OSM   C16F11750   7.771   0.946   6.476  0.2626  0.0343  0.2075
  113OSM   H16F11751   7.738   1.009   6.391  1.3111 -0.5454 -0.6523
  113OSM   H16G11752   7.806   0.856   6.421  1.0570 -0.1033  0.9239
  113OSM   C17F11753   7.901   1.013   6.543  0.2894 -0.3615  0.3552
  113OSM   H17F11754   7.944   0.936   6.610  1.1471  0.2566  0.5414
  113OSM   H17G11755   7.876   1.098   6.610  1.9220 -0.1078  0.6893
  113OSM   C18F11756   8.010   1.049   6.434  0.0722 -0.6684  0.6553
  113OSM   H18F11757   8.108   1.057   6.486 -0.3043 -1.3472  1.4744
  113OSM   H18G11758   7.974   1.143   6.386 -2.2484 -1.4049  0.8490
  113OSM   H18H11759   8.032   0.975   6.354 -1.1190  1.5112 -1.8502
  114OSM      N11760   5.596   0.639   7.733  0.0704  0.5959  0.1180
  114OSM    C1511761   5.614   0.525   7.647 -0.3294 -0.1819  0.2821
  114OSM   H15A11762   5.636   0.559   7.547  0.5761  0.7368  0.7686
  114OSM   H15B11763   5.528   0.460   7.645  0.9433 -1.8947 -0.9090
  114OSM   H15C11764   5.701   0.470   7.679 -0.7487  0.8077  3.5641
  114OSM    C1411765   5.722   0.727   7.717 -0.3900  0.8191 -0.0722
  114OSM   H14A11766   5.698   0.824   7.758  0.8348 -0.2585  3.5818
  114OSM   H14B11767   5.760   0.746   7.618 -0.1183  1.4571  0.1522
  114OSM   H14C11768   5.798   0.683   7.779 -0.6270  0.3890 -0.0822
  114OSM    C1311769   5.481   0.710   7.692  0.0711 -0.2650  0.3939
  114OSM   H13A11770   5.474   0.810   7.734 -0.3655 -0.3578  0.5433
  114OSM   H13B11771   5.396   0.653   7.726  1.3182 -1.8846  0.9267
  114OSM   H13C11772   5.476   0.727   7.586  0.1572  0.9662  0.5645
  114OSM    C1211773   5.580   0.602   7.883  0.0376  0.0786 -0.0861
  114OSM   H12A11774   5.480   0.564   7.902  0.6504 -1.4296  0.2842
  114OSM   H12B11775   5.596   0.694   7.936  0.8281  0.0692 -0.3028
  114OSM    C1111776   5.684   0.502   7.936 -0.0292  0.5807 -0.4655
  114OSM   H11A11777   5.668   0.401   7.891  0.3109  0.1747  0.2944
  114OSM   H11B11778   5.666   0.480   8.044  0.3899  0.0186 -0.5023
  114OSM      P11779   5.943   0.438   7.923 -0.1994  0.1332 -0.1799
  114OSM    O1311780   6.021   0.432   8.041  0.5558  0.0883  0.0148
  114OSM    O1411781   5.892   0.307   7.877  0.3434 -0.2793 -0.2114
  114OSM    O1111782   6.026   0.488   7.804 -0.6703 -0.7807 -0.3883
  114OSM    O1211783   5.822   0.544   7.917  0.1705  0.1123  0.1672
  114OSM    C1S11784   6.154   0.441   7.765  0.1931  1.3661 -0.4993
  114OSM    H1S11785   6.194   0.351   7.817 -2.3460 -0.2731 -1.2405
  114OSM    H1T11786   6.226   0.525   7.781  0.9283  0.5318  0.7448
  114OSM     NF11787   6.299   0.377   7.582 -0.7614 -0.1265 -0.4260
  114OSM    HNF11788   6.358   0.445   7.540  1.5213 -2.2673 -0.8769
  114OSM    C2S11789   6.160   0.415   7.610  1.1124  0.0976  0.2396
  114OSM    H2S11790   6.091   0.331   7.586  0.6258 -0.3098  2.8022
  114OSM    C3S11791   6.113   0.554   7.532  0.5311  0.0673  0.1488
  114OSM    H3S11792   6.165   0.635   7.587 -2.8732  2.3357  0.2933
  114OSM     O311793   5.977   0.596   7.547  0.0564 -0.5383 -0.3181
  114OSM    HO311794   5.953   0.547   7.626  4.1336  0.7560  1.9847
  114OSM    C4S11795   6.153   0.550   7.387 -0.5145 -0.3235 -0.0076
  114OSM    H4S11796   6.125   0.457   7.335  2.4543 -1.3418  0.0357
  114OSM    C5S11797   6.235   0.637   7.328  0.8061  0.0805 -0.4074
  114OSM    H5S11798   6.257   0.732   7.378  0.6656  0.0811 -0.3468
  114OSM    C6S11799   6.285   0.632   7.194  0.2638 -0.2119  0.0046
  114OSM    H6S11800   6.383   0.684   7.200 -0.2336  0.6349  1.2416
  114OSM    H6T11801   6.221   0.693   7.126  0.4930  1.4791  1.2252
  114OSM    C7S11802   6.310   0.486   7.133 -1.0061  0.2845  0.1130
  114OSM    H7S11803   6.219   0.423   7.130 -1.2393  0.6516 -1.3548
  114OSM    H7T11804   6.388   0.440   7.198  0.1991 -0.7029 -1.9073
  114OSM    C8S11805   6.390   0.491   7.002  0.3580  0.6299  0.0823
  114OSM    H8S11806   6.481   0.554   7.008 -1.6628  3.9347 -1.2066
  114OSM    H8T11807   6.325   0.542   6.927 -1.3941  1.0223  1.7865
  114OSM    C9S11808   6.441   0.354   6.953  0.6504  0.5526 -0.3535
  114OSM    H9S11809   6.356   0.282   6.943 -1.0112  2.2304  0.8701
  114OSM    H9T11810   6.507   0.313   7.032  0.5913 -0.3467 -0.7608
  114OSM   C10S11811   6.515   0.354   6.822 -0.0240  0.6878  0.4893
  114OSM   H10S11812   6.598   0.428   6.832  0.3110  0.4503 -0.3947
  114OSM   H10T11813   6.447   0.394   6.745  1.5296 -1.7085 -2.3272
  114OSM   C11S11814   6.567   0.217   6.763  0.3521  0.0250  0.4259
  114OSM   H11S11815   6.481   0.147   6.756  0.6587 -0.2225 -1.3876
  114OSM   H11T11816   6.638   0.165   6.832  2.2903  1.0679 -0.6822
  114OSM   C12S11817   6.626   0.233   6.618 -0.1473  0.7899 -0.5621
  114OSM   H12S11818   6.675   0.136   6.595  1.5201  1.2281  0.9002
  114OSM   H12T11819   6.709   0.307   6.629 -0.6355  1.5058 -1.5821
  114OSM   C13S11820   6.523   0.280   6.507  0.3191 -0.1449 -0.7271
  114OSM   H13S11821   6.454   0.362   6.537 -1.6677 -0.9023 -2.8868
  114OSM   H13T11822   6.446   0.200   6.494 -0.8975  0.7149  0.8064
  114OSM   C14S11823   6.598   0.301   6.376 -0.2672  0.5336 -0.5860
  114OSM   H14S11824   6.676   0.377   6.401 -0.1913 -0.3124  2.1120
  114OSM   H14T11825   6.520   0.328   6.303 -0.0168  0.6343 -0.8189
  114OSM   C15S11826   6.663   0.171   6.320  0.3824 -0.1791  0.4427
  114OSM   H15S11827   6.744   0.143   6.391  0.3300  2.9833  1.9310
  114OSM   H15T11828   6.703   0.209   6.224 -4.2938  0.8224 -1.3905
  114OSM   C16S11829   6.561   0.062   6.292  0.8344  0.2841  0.2421
  114OSM   H16S11830   6.471   0.093   6.234  0.7807  2.0898  1.2180
  114OSM   H16T11831   6.517   0.031   6.389 -1.0914 -2.1383 -1.2814
  114OSM   C17S11832   6.631  -0.055   6.219  0.2536 -0.5855  0.5237
  114OSM   H17S11833   6.579  -0.153   6.229 -0.4499 -0.4193 -1.1237
  114OSM   H17T11834   6.731  -0.066   6.265 -0.3061  0.7125  2.1469
  114OSM   C18S11835   6.639  -0.032   6.068 -0.1566 -0.1962 -0.5405
  114OSM   H18S11836   6.543  -0.054   6.016  1.1508 -1.1865 -2.6615
  114OSM   H18T11837   6.707  -0.105   6.020 -2.8243 -1.9287 -1.9387
  114OSM   H18U11838   6.655   0.075   6.043 -0.0360 -0.4660 -1.6477
  114OSM    C1F11839   6.342   0.257   7.610 -0.2072 -0.4908 -0.0426
  114OSM     OF11840   6.271   0.167   7.639 -0.2854 -0.1021  0.3848
  114OSM    C2F11841   6.490   0.244   7.586  0.3805  0.5614  0.6041
  114OSM    H2F11842   6.526   0.152   7.639 -2.2942 -0.2880  1.1047
  114OSM    H2G11843   6.550   0.330   7.623 -0.3066  0.3576  2.3081
  114OSM    C3F11844   6.523   0.226   7.437  0.6183  0.7142  0.2813
  114OSM    H3F11845   6.633   0.217   7.429  0.6604  1.8478 -0.8108
  114OSM    H3G11846   6.507   0.316   7.373  1.5973 -0.4160 -1.6355
  114OSM    C4F11847   6.457   0.098   7.370 -0.3539 -0.2903 -0.5112
  114OSM    H4F11848   6.348   0.083   7.382 -0.4773 -1.3459 -2.5375
  114OSM    H4G11849   6.483   0.009   7.432 -2.6221  0.2745  1.3730
  114OSM    C5F11850   6.510   0.078   7.222  0.2889 -0.4975 -0.1701
  114OSM    H5F11851   6.621   0.089   7.225  0.4232 -1.5718 -0.5582
  114OSM    H5G11852   6.454   0.158   7.170 -0.6873 -2.5374 -2.5071
  114OSM    C6F11853   6.477  -0.054   7.158  0.0673 -0.4696 -0.4747
  114OSM    H6F11854   6.371  -0.080   7.177  0.2608 -0.3022  0.9616
  114OSM    H6G11855   6.535  -0.133   7.210 -1.6553 -1.2585  0.3125
  114OSM    C7F11856   6.507  -0.050   7.011 -0.1954 -0.5145  0.0478
  114OSM    H7F11857   6.611  -0.019   6.988 -0.4152  0.4272  0.2550
  114OSM    H7G11858   6.440   0.032   6.976  0.8623  0.4937  0.2976
  114OSM    C8F11859   6.458  -0.172   6.941 -0.2150 -0.2491  0.5477
  114OSM    H8F11860   6.427  -0.160   6.835 -1.2939 -1.9242  0.6423
  114OSM    H8G11861   6.362  -0.189   6.994  0.0749  2.3645  2.1442
  114OSM    C9F11862   6.553  -0.281   6.929  0.6917  0.2938 -0.1532
  114OSM    H9F11863   6.644  -0.282   6.992  0.5968 -0.8175 -0.0168
  114OSM   C10F11864   6.536  -0.388   6.859  0.4212  0.5231  0.2425
  114OSM   H10F11865   6.607  -0.471   6.871 -2.1161 -1.7496  0.4636
  114OSM   C11F11866   6.433  -0.414   6.750 -0.4963  0.4289 -0.5101
  114OSM   H11F11867   6.340  -0.356   6.768  0.4593  2.6438 -2.2340
  114OSM   H11G11868   6.407  -0.522   6.749  1.2624 -0.0305 -1.2732
  114OSM   C12F11869   6.496  -0.380   6.612 -0.1423 -0.1189 -0.0978
  114OSM   H12F11870   6.598  -0.423   6.603  1.0650  2.4682  0.4132
  114OSM   H12G11871   6.506  -0.270   6.624  0.1412 -0.1332 -0.1951
  114OSM   C13F11872   6.408  -0.403   6.484  0.0468 -0.1224 -0.2316
  114OSM   H13F11873   6.454  -0.350   6.398  0.6613 -3.7218 -2.3348
  114OSM   H13G11874   6.304  -0.367   6.499  0.2114 -0.2026  1.2548
  114OSM   C14F11875   6.388  -0.550   6.434 -0.1331 -0.3364 -0.8703
  114OSM   H14F11876   6.317  -0.595   6.508  0.9996  0.0542  0.4975
  114OSM   H14G11877   6.487  -0.600   6.436  0.3745  0.6478  0.4843
  114OSM   C15F11878   6.317  -0.567   6.294 -0.8595  0.0668  0.2840
  114OSM   H15F11879   6.235  -0.492   6.290  0.5327  1.5916 -2.9747
  114OSM   H15G11880   6.281  -0.672   6.291  1.3290 -0.8567 -5.4121
  114OSM   C16F11881   6.416  -0.544   6.177 -0.8197 -0.0863  1.2526
  114OSM   H16F11882   6.515  -0.594   6.188 -1.3286 -1.6217 -0.6241
  114OSM   H16G11883   6.441  -0.436   6.170 -0.2137 -0.2302  1.0566
  114OSM   C17F11884   6.361  -0.575   6.034  0.2746  0.3331 -0.3941
  114OSM   H17F11885   6.261  -0.528   6.020 -0.7145 -0.4433  3.1485
  114OSM   H17G11886   6.332  -0.682   6.023 -2.8765  1.0456 -0.1116
  114OSM   C18F11887   6.455  -0.541   5.917 -0.1809 -0.0386  0.2744
  114OSM   H18F11888   6.446  -0.607   5.828  0.1282 -1.4933  1.2917
  114OSM   H18G11889   6.560  -0.552   5.951 -0.2510  0.9715  0.8664
  114OSM   H18H11890   6.438  -0.434   5.893 -1.5378  0.3742  2.7190
  115OSM      N11891   3.926   2.744   7.821  0.1800 -0.9282  0.2371
  115OSM    C1511892   3.885   2.845   7.925 -0.0692  0.0169 -0.0427
  115OSM   H15A11893   3.961   2.863   7.999 -0.4312  0.3887  0.2488
  115OSM   H15B11894   3.806   2.794   7.979  1.2552 -1.0053  1.0247
  115OSM   H15C11895   3.863   2.943   7.885 -0.8130  0.2436  0.8783
  115OSM    C1411896   3.966   2.621   7.888  0.0501  0.3877  0.7013
  115OSM   H14A11897   3.965   2.538   7.818  1.7237  2.2246 -1.6598
  115OSM   H14B11898   3.902   2.593   7.971 -0.2938 -1.6340 -0.1816
  115OSM   H14C11899   4.063   2.630   7.934  1.4360 -0.1107 -1.9217
  115OSM    C1311900   3.820   2.715   7.722  0.5274 -0.1908  0.2542
  115OSM   H13A11901   3.745   2.649   7.762  0.3078  0.7678  1.4821
  115OSM   H13B11902   3.857   2.673   7.630  2.6875  1.0353  0.5081
  115OSM   H13C11903   3.776   2.812   7.704  0.5891  0.1139  1.6826
  115OSM    C1211904   4.049   2.797   7.738  0.4100 -0.0660 -0.5008
  115OSM   H12A11905   4.026   2.877   7.669 -0.4803 -0.2712 -0.4524
  115OSM   H12B11906   4.065   2.720   7.664 -1.3263 -1.2020  0.2433
  115OSM    C1111907   4.180   2.844   7.818 -0.0312 -0.0218  0.2395
  115OSM   H11A11908   4.137   2.907   7.898 -1.9277 -2.5589  1.3378
  115OSM   H11B11909   4.246   2.891   7.742 -2.8590  2.1538 -1.0450
  115OSM      P11910   4.331   2.638   7.787 -0.3603  0.0915 -0.0208
  115OSM    O1311911   4.466   2.638   7.848 -0.0410 -0.1115 -0.0206
  115OSM    O1411912   4.262   2.505   7.775  0.0859 -0.7829 -0.2789
  115OSM    O1111913   4.343   2.708   7.644 -0.2638  0.0285 -0.0584
  115OSM    O1211914   4.244   2.733   7.876 -0.2908 -0.2014 -0.3021
  115OSM    C1S11915   4.406   2.644   7.530 -0.7140  0.1827 -0.1388
  115OSM    H1S11916   4.345   2.555   7.503 -0.0796 -0.0224 -0.9205
  115OSM    H1T11917   4.511   2.614   7.546 -1.1347 -1.7189 -0.6608
  115OSM     NF11918   4.405   2.686   7.286 -0.2773  0.0927  0.2565
  115OSM    HNF11919   4.483   2.725   7.236 -0.2278 -0.6750 -0.2836
  115OSM    C2S11920   4.385   2.748   7.421 -0.0420  0.5652  0.7481
  115OSM    H2S11921   4.277   2.772   7.421 -0.2571 -0.3182 -0.2315
  115OSM    C3S11922   4.463   2.883   7.439  0.1897  0.0268 -0.0633
  115OSM    H3S11923   4.570   2.870   7.412 -0.1035 -0.7506 -0.9016
  115OSM     O311924   4.470   2.923   7.574  0.6424 -0.5739 -0.1188
  115OSM    HO311925   4.410   2.867   7.624 -0.2546 -0.3434 -0.9197
  115OSM    C4S11926   4.404   2.981   7.345  0.0594 -0.3586 -0.0160
  115OSM    H4S11927   4.448   2.986   7.244 -1.6919 -0.7719 -0.8375
  115OSM    C5S11928   4.299   3.061   7.371 -0.4104 -0.2363 -0.2832
  115OSM    H5S11929   4.249   3.067   7.469  0.8470  3.0664  0.2847
  115OSM    C6S11930   4.243   3.152   7.260  0.2109  0.3657 -0.1904
  115OSM    H6S11931   4.293   3.125   7.165  0.1037 -1.0231  0.1234
  115OSM    H6T11932   4.266   3.260   7.271  0.8875  0.2088 -0.0499
  115OSM    C7S11933   4.098   3.119   7.232 -0.2806  0.7447 -0.1663
  115OSM    H7S11934   4.051   3.187   7.156 -1.1846  2.6304  1.9634
  115OSM    H7T11935   4.036   3.138   7.322  0.2944  1.4910  0.0831
  115OSM    C8S11936   4.066   2.974   7.183 -0.0102  0.3364  0.2360
  115OSM    H8S11937   3.961   2.972   7.148  0.7500 -1.0448 -2.1559
  115OSM    H8T11938   4.070   2.891   7.257 -3.0593  0.2997  0.4768
  115OSM    C9S11939   4.138   2.938   7.051 -0.0909 -0.3683 -0.6475
  115OSM    H9S11940   4.245   2.932   7.079 -0.4673 -0.8761  0.7940
  115OSM    H9T11941   4.145   3.034   6.997  1.0224  0.2932  0.6219
  115OSM   C10S11942   4.088   2.816   6.976  0.2116 -0.1619  0.2326
  115OSM   H10S11943   4.073   2.741   7.056  0.9866  1.1964  1.7048
  115OSM   H10T11944   4.161   2.773   6.904 -0.0408 -1.2138  0.5928
  115OSM   C11S11945   3.962   2.833   6.892 -0.1259 -0.0369 -0.3848
  115OSM   H11S11946   3.882   2.883   6.951  0.4597 -0.6326  0.9558
  115OSM   H11T11947   3.917   2.732   6.878 -2.5144  0.3675  2.8983
  115OSM   C12S11948   3.985   2.905   6.761  0.4408 -0.6837 -0.2938
  115OSM   H12S11949   4.029   3.005   6.782 -2.2015  0.3512  0.6898
  115OSM   H12T11950   3.883   2.941   6.738  0.2564 -1.4479 -0.7078
  115OSM   C13S11951   4.047   2.829   6.644 -0.1217  0.2692 -0.3501
  115OSM   H13S11952   4.014   2.723   6.655 -0.7716  0.6234  1.6690
  115OSM   H13T11953   4.156   2.836   6.660  0.2328 -0.7122 -2.0866
  115OSM   C14S11954   3.997   2.893   6.512 -0.8836  0.3270 -0.1435
  115OSM   H14S11955   4.010   3.003   6.514  1.6361  0.1129  3.0543
  115OSM   H14T11956   3.890   2.864   6.497 -1.3497  1.4299  0.9006
  115OSM   C15S11957   4.075   2.853   6.388 -0.5153  0.2245 -0.0623
  115OSM   H15S11958   4.058   2.746   6.363 -1.4511  0.1217  0.9253
  115OSM   H15T11959   4.184   2.869   6.402 -0.9798  1.7048  2.5284
  115OSM   C16S11960   4.033   2.921   6.261 -0.1460  0.0799 -0.2014
  115OSM   H16S11961   4.042   3.028   6.288  1.8904  0.2861 -1.5209
  115OSM   H16T11962   3.925   2.913   6.233  0.2517  0.1800 -1.8569
  115OSM   C17S11963   4.116   2.891   6.136 -0.6370 -0.4566 -0.2786
  115OSM   H17S11964   4.116   2.784   6.106  1.1333 -0.5876  0.1050
  115OSM   H17T11965   4.224   2.901   6.159 -0.5849 -1.8364  0.2157
  115OSM   C18S11966   4.086   2.975   6.007 -0.3351  0.4843 -0.2737
  115OSM   H18S11967   4.070   3.078   6.043 -2.6507  0.0374  0.1250
  115OSM   H18T11968   3.997   2.933   5.956  0.4466 -2.0218  0.2473
  115OSM   H18U11969   4.169   2.981   5.933  0.4108  0.9463  0.5758
  115OSM    C1F11970   4.340   2.571   7.238 -0.0036 -0.5047  0.0679
  115OSM     OF11971   4.231   2.537   7.280  0.0591  0.2474  0.1376
  115OSM    C2F11972   4.405   2.492   7.132 -0.8151  0.3697  0.2472
  115OSM    H2F11973   4.440   2.396   7.175 -1.5517 -0.8292 -1.6511
  115OSM    H2G11974   4.499   2.546   7.109 -1.2622  1.5018  0.9880
  115OSM    C3F11975   4.318   2.464   7.007  0.2668  0.0505  0.3204
  115OSM    H3F11976   4.266   2.558   6.980  1.0513 -0.0110 -1.4871
  115OSM    H3G11977   4.248   2.381   7.032 -1.0822  1.0348 -0.1113
  115OSM    C4F11978   4.405   2.409   6.893 -0.2540  0.4927 -0.0139
  115OSM    H4F11979   4.486   2.481   6.869  0.2270  0.4599  1.4038
  115OSM    H4G11980   4.336   2.400   6.807 -0.1183 -1.0918  0.0152
  115OSM    C5F11981   4.467   2.273   6.917  0.0997 -0.5540 -0.1377
  115OSM    H5F11982   4.395   2.199   6.958  1.9990 -0.7376  3.2246
  115OSM    H5G11983   4.545   2.273   6.996  0.9877  0.3991 -0.9925
  115OSM    C6F11984   4.531   2.220   6.789 -0.4516  0.7012  0.2953
  115OSM    H6F11985   4.610   2.292   6.758  1.2180 -0.8302  0.7940
  115OSM    H6G11986   4.450   2.211   6.714 -0.1722 -0.4013  0.1124
  115OSM    C7F11987   4.595   2.075   6.816  0.2017 -0.4635 -0.4978
  115OSM    H7F11988   4.510   2.005   6.834 -1.0280  0.6735 -1.5889
  115OSM    H7G11989   4.657   2.071   6.907 -0.8473 -1.6447  0.2038
  115OSM    C8F11990   4.686   2.032   6.694 -0.2630 -0.0693 -0.6929
  115OSM    H8F11991   4.622   2.031   6.603 -3.3534 -1.7011  1.3217
  115OSM    H8G11992   4.720   1.929   6.719 -0.6920  0.0166  0.2981
  115OSM    C9F11993   4.812   2.109   6.675  0.2691  0.4760  0.5231
  115OSM    H9F11994   4.875   2.108   6.765 -0.6322 -1.2844  1.1721
  115OSM   C10F11995   4.853   2.173   6.566  0.5287 -0.1099 -0.3508
  115OSM   H10F11996   4.943   2.235   6.579  0.5814 -0.4741  1.2215
  115OSM   C11F11997   4.781   2.186   6.432 -0.1011 -0.6267 -0.7056
  115OSM   H11F11998   4.692   2.250   6.450  0.9722  1.1674 -1.5956
  115OSM   H11G11999   4.733   2.091   6.397 -1.3059  0.0785 -1.0317
  115OSM   C12F12000   4.857   2.259   6.316 -0.0034 -0.2357 -0.1391
  115OSM   H12F12001   4.929   2.182   6.280  1.6750  0.1334  2.2041
  115OSM   H12G12002   4.913   2.347   6.353  2.1366 -1.7901  0.5129
  115OSM   C13F12003   4.749   2.295   6.210 -0.2996 -0.4447  0.4271
  115OSM   H13F12004   4.676   2.372   6.243 -0.5088 -0.0449 -0.8911
  115OSM   H13G12005   4.694   2.202   6.187 -1.5690  0.6542 -1.2582
  115OSM   C14F12006   4.809   2.344   6.074  0.1643 -0.7135 -0.6932
  115OSM   H14F12007   4.860   2.261   6.021  1.7774 -0.6333  0.6230
  115OSM   H14G12008   4.885   2.423   6.093 -0.1826 -0.1163 -1.6794
  115OSM   C15F12009   4.690   2.402   5.980 -0.1868 -0.0027 -0.9421
  115OSM   H15F12010   4.624   2.315   5.961  1.1949 -2.0653  2.7392
  115OSM   H15G12011   4.740   2.433   5.885 -1.4237  0.7935 -1.3599
  115OSM   C16F12012   4.624   2.532   6.030  0.0137  0.0686  0.3852
  115OSM   H16F12013   4.697   2.606   6.069 -0.0857  1.8174 -2.3948
  115OSM   H16G12014   4.559   2.488   6.108  0.8467 -1.3261  0.3221
  115OSM   C17F12015   4.525   2.611   5.930  0.1558  0.6468 -0.1992
  115OSM   H17F12016   4.440   2.549   5.896  0.3697  1.8323 -3.1781
  115OSM   H17G12017   4.598   2.628   5.847  0.6326 -0.4660 -0.0257
  115OSM   C18F12018   4.472   2.749   5.987 -0.9408  0.0542  0.3038
  115OSM   H18F12019   4.557   2.804   6.031 -0.5388 -0.7555  0.5576
  115OSM   H18G12020   4.378   2.744   6.047 -0.7666 -2.5804  0.4537
  115OSM   H18H12021   4.445   2.803   5.894 -1.5339 -1.1871 -0.2715
  116OSM      N12022   0.162   6.857   8.206  0.6367  0.4461  0.3871
  116OSM    C1512023   0.240   6.980   8.219  0.0989  0.2936 -0.2098
  116OSM   H15A12024   0.180   7.062   8.183 -3.4487 -0.7837  2.6466
  116OSM   H15B12025   0.343   6.978   8.185  0.5531 -1.4224  1.1685
  116OSM   H15C12026   0.240   7.002   8.325 -0.7634  0.0735 -0.1603
  116OSM    C1412027   0.236   6.752   8.283  0.7049  0.1681  0.1882
  116OSM   H14A12028   0.342   6.742   8.268  0.9220  1.3446  0.8073
  116OSM   H14B12029   0.191   6.656   8.263 -2.0753  1.4316 -0.0169
  116OSM   H14C12030   0.220   6.777   8.387 -2.0163  1.4543 -0.4583
  116OSM    C1312031   0.030   6.863   8.283  0.0179 -0.3988 -0.2131
  116OSM   H13A12032   0.051   6.900   8.383 -0.5698  1.2340 -0.6702
  116OSM   H13B12033  -0.007   6.762   8.290  0.1410 -0.4497 -0.2914
  116OSM   H13C12034  -0.048   6.927   8.244  0.4699  1.2818  1.4741
  116OSM    C1212035   0.142   6.825   8.058  0.2154  0.1052  0.7459
  116OSM   H12A12036   0.237   6.797   8.015  0.2564 -1.5415  1.8314
  116OSM   H12B12037   0.102   6.910   8.004 -0.8714 -1.3630 -0.8822
  116OSM    C1112038   0.055   6.701   8.018 -0.0499 -0.2340  0.3793
  116OSM   H11A12039   0.036   6.711   7.909  1.3454 -1.3870  0.0006
  116OSM   H11B12040  -0.041   6.713   8.074  0.1525 -0.8414  0.8619
  116OSM      P12041   0.248   6.524   7.982 -0.5428 -0.5525 -0.1867
  116OSM    O1312042   0.376   6.561   8.044 -0.2639  0.3669  0.1726
  116OSM    O1412043   0.238   6.378   7.961 -0.3303  0.9416  0.4382
  116OSM    O1112044   0.244   6.603   7.848  0.0606 -0.5156 -0.1291
  116OSM    O1212045   0.119   6.577   8.049  0.1138  0.6167  0.0436
  116OSM    C1S12046   0.166   6.561   7.738 -0.1577 -0.2249  1.3059
  116OSM    H1S12047   0.079   6.627   7.723  1.0376  0.6965 -2.6074
  116OSM    H1T12048   0.132   6.455   7.740 -0.9570 -0.0651 -1.1137
  116OSM     NF12049   0.176   6.493   7.507  0.4264 -0.4025 -0.0898
  116OSM    HNF12050   0.181   6.394   7.513  2.0516 -0.2918  0.8445
  116OSM    C2S12051   0.248   6.562   7.603 -0.5744 -1.2825 -0.2169
  116OSM    H2S12052   0.258   6.665   7.564 -1.3838 -0.7492  0.9049
  116OSM    C3S12053   0.395   6.512   7.625  0.3386  0.1591  0.1932
  116OSM    H3S12054   0.391   6.408   7.663  1.6892 -0.0064 -0.0547
  116OSM     O312055   0.480   6.592   7.708 -0.2282  0.0290  0.4377
  116OSM    HO312056   0.424   6.624   7.779 -0.2529 -0.5546  0.6928
  116OSM    C4S12057   0.468   6.520   7.497  0.4288 -0.3719  0.3191
  116OSM    H4S12058   0.443   6.604   7.431 -0.6030 -1.0509 -0.1631
  116OSM    C5S12059   0.568   6.445   7.453  0.1007  0.3722  0.4330
  116OSM    H5S12060   0.615   6.369   7.518 -0.9784 -0.5293  0.1964
  116OSM    C6S12061   0.623   6.458   7.315 -0.2261 -0.5836  0.2160
  116OSM    H6S12062   0.733   6.454   7.326 -0.1623 -0.6442 -0.4372
  116OSM    H6T12063   0.591   6.553   7.267  1.8361  1.2040  2.1213
  116OSM    C7S12064   0.588   6.349   7.231  0.2879  0.6856 -0.2135
  116OSM    H7S12065   0.480   6.328   7.218  0.7254 -2.2067  0.2180
  116OSM    H7T12066   0.631   6.257   7.275  1.1501  1.9227  1.6464
  116OSM    C8S12067   0.637   6.361   7.085  0.0143 -0.0059 -0.2653
  116OSM    H8S12068   0.605   6.267   7.035  0.3211  0.1516 -0.7712
  116OSM    H8T12069   0.746   6.341   7.090 -0.4331 -3.0334 -0.5394
  116OSM    C9S12070   0.590   6.486   7.014  0.1123 -0.2128  0.0066
  116OSM    H9S12071   0.666   6.564   7.036 -0.8389  0.7824 -0.1525
  116OSM    H9T12072   0.492   6.522   7.049 -0.5868  0.4678 -2.4671
  116OSM   C10S12073   0.576   6.457   6.858 -0.1527 -0.4346 -0.8365
  116OSM   H10S12074   0.532   6.548   6.811 -0.4303 -0.3500 -0.4202
  116OSM   H10T12075   0.497   6.379   6.855 -1.0900  0.5101 -3.1313
  116OSM   C11S12076   0.701   6.409   6.786  0.1231  0.1993  0.3097
  116OSM   H11S12077   0.671   6.402   6.679  0.7988 -0.3313  0.1483
  116OSM   H11T12078   0.711   6.301   6.810 -1.1298  0.2707  1.2649
  116OSM   C12S12079   0.815   6.510   6.811  0.5564  0.8328 -0.6608
  116OSM   H12S12080   0.845   6.522   6.917  1.2709  0.7944 -0.8530
  116OSM   H12T12081   0.783   6.610   6.776 -0.4289  0.1793 -1.6755
  116OSM   C13S12082   0.932   6.490   6.712 -0.4089  0.1806 -0.0936
  116OSM   H13S12083   0.964   6.384   6.700 -0.4897  0.0101  1.0858
  116OSM   H13T12084   1.020   6.551   6.740 -1.0525  1.7418 -1.3495
  116OSM   C14S12085   0.903   6.564   6.574  0.4491  0.4608 -0.1230
  116OSM   H14S12086   0.874   6.671   6.583 -0.8712  0.0097  1.4285
  116OSM   H14T12087   0.813   6.514   6.530  0.3838 -0.6107  1.1577
  116OSM   C15S12088   1.019   6.556   6.474 -0.3106 -0.1969  0.1956
  116OSM   H15S12089   1.089   6.476   6.507 -1.6147 -0.6192  2.1123
  116OSM   H15T12090   1.076   6.652   6.476 -2.1219  1.2135 -4.0157
  116OSM   C16S12091   0.979   6.530   6.326 -0.6868  0.2355  0.2820
  116OSM   H16S12092   0.904   6.449   6.316  1.2071 -1.7983  1.6873
  116OSM   H16T12093   1.070   6.494   6.274  1.2566  0.1233  3.4587
  116OSM   C17S12094   0.941   6.659   6.263 -0.4706 -0.3165  1.0748
  116OSM   H17S12095   1.031   6.722   6.273 -0.6829 -0.1601  2.0899
  116OSM   H17T12096   0.856   6.697   6.324  0.0974 -0.4688  1.9583
  116OSM   C18S12097   0.881   6.654   6.117 -0.4059 -0.1476  0.1182
  116OSM   H18S12098   0.956   6.609   6.048 -1.0715  1.5329 -1.7781
  116OSM   H18T12099   0.851   6.757   6.088 -1.0847  0.0871  1.5785
  116OSM   H18U12100   0.796   6.582   6.114 -0.2117 -0.5224  2.2617
  116OSM    C1F12101   0.068   6.539   7.440 -0.1224  0.1900 -0.1304
  116OSM     OF12102   0.022   6.649   7.454 -0.1280  0.0524 -0.2455
  116OSM    C2F12103  -0.010   6.444   7.350  0.3765  0.0965 -1.0472
  116OSM    H2F12104  -0.114   6.429   7.387  0.0568 -0.5652 -2.1742
  116OSM    H2G12105   0.036   6.343   7.359 -0.8840 -0.7111 -3.0403
  116OSM    C3F12106   0.001   6.477   7.200  0.6580 -0.1322 -0.3732
  116OSM    H3F12107  -0.043   6.578   7.186  0.5117 -0.1015  0.2543
  116OSM    H3G12108  -0.038   6.394   7.137 -1.8914  0.4206  0.3644
  116OSM    C4F12109   0.150   6.490   7.160  1.2069  0.2967 -0.6074
  116OSM    H4F12110   0.185   6.385   7.145 -0.5534 -0.3295 -0.5979
  116OSM    H4G12111   0.209   6.534   7.244 -1.2841  3.1758 -0.2290
  116OSM    C5F12112   0.171   6.578   7.034 -0.0557 -0.3438 -0.0208
  116OSM    H5F12113   0.280   6.589   7.020 -0.0349  0.2752  0.5514
  116OSM    H5G12114   0.146   6.685   7.051 -2.0503 -1.1267  2.7901
  116OSM    C6F12115   0.094   6.522   6.909 -0.0687  0.4120 -0.0984
  116OSM    H6F12116  -0.017   6.528   6.914 -0.0825 -0.1820  4.0742
  116OSM    H6G12117   0.134   6.418   6.911  1.6048  1.0084 -1.0951
  116OSM    C7F12118   0.147   6.591   6.777  0.1522 -0.2383 -1.1269
  116OSM    H7F12119   0.134   6.525   6.689  0.4985  0.1399 -1.4612
  116OSM    H7G12120   0.256   6.598   6.795 -0.4018  0.5587  3.0095
  116OSM    C8F12121   0.095   6.739   6.764 -0.4065 -0.3080  0.9474
  116OSM    H8F12122   0.144   6.785   6.675 -2.0093  0.6087  0.4961
  116OSM    H8G12123   0.106   6.801   6.854  1.3674 -0.5261  0.9068
  116OSM    C9F12124  -0.052   6.736   6.724  0.3305  0.2903 -0.7595
  116OSM    H9F12125  -0.121   6.716   6.807  2.3397 -1.2358  0.6431
  116OSM   C10F12126  -0.111   6.749   6.599 -0.5607 -0.1100  0.2334
  116OSM   H10F12127  -0.220   6.752   6.611 -0.4087  0.3875  1.6645
  116OSM   C11F12128  -0.036   6.758   6.463  0.1601 -0.5845 -0.0072
  116OSM   H11F12129   0.074   6.761   6.478 -0.1919  0.9549  3.3700
  116OSM   H11G12130  -0.059   6.848   6.402  2.5969 -1.2748 -2.1245
  116OSM   C12F12131  -0.068   6.629   6.380  0.4633 -0.1465  0.3256
  116OSM   H12F12132  -0.176   6.626   6.354  0.2776  1.1369  0.8669
  116OSM   H12G12133  -0.059   6.542   6.449 -0.2429 -0.5441 -0.0755
  116OSM   C13F12134   0.029   6.593   6.263 -0.8672 -0.1158 -0.8206
  116OSM   H13F12135  -0.017   6.503   6.217 -0.4396 -0.2142 -1.0682
  116OSM   H13G12136   0.130   6.571   6.304 -1.8114 -1.8264  0.6684
  116OSM   C14F12137   0.043   6.699   6.153 -0.3612  0.5244 -0.3042
  116OSM   H14F12138   0.119   6.773   6.188 -0.5667  1.5545 -1.9025
  116OSM   H14G12139  -0.060   6.738   6.136 -0.7223 -1.1265 -2.2115
  116OSM   C15F12140   0.097   6.652   6.018  0.7999  0.7329 -0.9227
  116OSM   H15F12141   0.062   6.549   5.998 -1.8682  1.3902 -0.1283
  116OSM   H15G12142   0.207   6.664   6.024  1.1785 -0.6796 -3.7830
  116OSM   C16F12143   0.044   6.747   5.910 -0.2385  0.8137  0.0637
  116OSM   H16F12144   0.125   6.789   5.847 -0.0220 -1.3808 -1.1844
  116OSM   H16G12145   0.005   6.834   5.967 -2.6513 -0.7629  0.9920
  116OSM   C17F12146  -0.063   6.679   5.817 -0.0291  0.0352  0.3605
  116OSM   H17F12147  -0.144   6.636   5.880 -0.0943  1.4468  1.3126
  116OSM   H17G12148  -0.012   6.591   5.774 -0.7662 -0.7213  1.0111
  116OSM   C18F12149  -0.118   6.783   5.716  1.2469 -0.0799 -0.4422
  116OSM   H18F12150  -0.150   6.873   5.772 -3.1483 -1.6622 -0.0113
  116OSM   H18G12151  -0.209   6.739   5.669  0.8449 -0.5560  0.7469
  116OSM   H18H12152  -0.042   6.807   5.639  0.6582  0.9037 -0.7311
  117OSM      N12153   5.926   5.086   8.238 -0.2210  0.0168 -0.0262
  117OSM    C1512154   6.027   5.035   8.338  0.6784  0.0324 -0.1372
  117OSM   H15A12155   6.045   4.929   8.332 -0.0706 -0.2358  1.8713
  117OSM   H15B12156   6.013   5.061   8.442  3.7990 -1.4508  0.7643
  117OSM   H15C12157   6.125   5.073   8.310 -0.6514  1.8615 -2.8637
  117OSM    C1412158   5.786   5.052   8.274 -0.1202  0.1403  0.0134
  117OSM   H14A12159   5.776   4.945   8.269 -1.9140  0.2285  1.0408
  117OSM   H14B12160   5.713   5.106   8.215 -0.5897  1.3931  1.6755
  117OSM   H14C12161   5.771   5.084   8.376  0.1896 -0.0546  0.1224
  117OSM    C1312162   5.952   5.235   8.244 -0.6166  0.0132 -0.2579
  117OSM   H13A12163   6.058   5.255   8.230 -0.4191 -1.5259 -1.1891
  117OSM   H13B12164   5.922   5.267   8.343  0.4750 -1.7163  0.6896
  117OSM   H13C12165   5.894   5.285   8.168 -1.1370  2.1955  1.4901
  117OSM    C1212166   5.972   5.025   8.106  0.1212 -0.2987  0.4937
  117OSM   H12A12167   5.955   4.918   8.104 -0.2528 -0.3272  2.7011
  117OSM   H12B12168   6.078   5.042   8.092 -0.0075  1.7233  1.5724
  117OSM    C1112169   5.908   5.088   7.976  0.2004 -0.1736 -0.2568
  117OSM   H11A12170   5.800   5.059   7.976  0.4493 -1.1487 -0.7553
  117OSM   H11B12171   5.954   5.036   7.890  1.1857 -0.6383  0.5287
  117OSM      P12172   5.805   5.311   7.888 -0.2820 -0.2911  0.2654
  117OSM    O1312173   5.671   5.285   7.949  0.6244  0.4446 -0.1094
  117OSM    O1412174   5.845   5.455   7.898 -0.2731 -0.3186 -0.3912
  117OSM    O1112175   5.808   5.273   7.741  0.3364  0.2471 -0.0372
  117OSM    O1212176   5.918   5.229   7.963 -0.1146 -0.4365 -0.0134
  117OSM    C1S12177   5.895   5.188   7.670 -0.3300  0.1206 -0.0888
  117OSM    H1S12178   5.868   5.082   7.689 -0.3184 -0.1570 -1.5253
  117OSM    H1T12179   6.001   5.203   7.699 -0.3804 -0.8851  0.6587
  117OSM     NF12180   5.939   5.130   7.420 -0.4275  0.5052 -0.0219
  117OSM    HNF12181   5.996   5.179   7.355  2.1951  1.2561  2.6066
  117OSM    C2S12182   5.881   5.222   7.516  0.3577 -0.0274  0.3775
  117OSM    H2S12183   5.778   5.207   7.479  0.3875 -2.4610  1.0918
  117OSM    C3S12184   5.915   5.374   7.483  0.8125 -0.2950  0.0320
  117OSM    H3S12185   6.021   5.400   7.503  0.0778  1.1415  2.3628
  117OSM     O312186   5.851   5.473   7.565 -0.0682  0.8853 -0.6125
  117OSM    HO312187   5.808   5.413   7.627  2.5245  0.1336  0.6099
  117OSM    C4S12188   5.873   5.393   7.338 -0.4140  0.1368 -0.1860
  117OSM    H4S12189   5.765   5.396   7.317 -0.3572  0.2744 -0.4646
  117OSM    C5S12190   5.960   5.385   7.234  0.7080  0.3303 -0.5341
  117OSM    H5S12191   6.065   5.362   7.255  0.1916 -1.5713  0.1155
  117OSM    C6S12192   5.920   5.404   7.089 -0.1718  0.7060 -0.2465
  117OSM    H6S12193   5.992   5.479   7.050  0.4655 -0.6280 -1.7566
  117OSM    H6T12194   5.816   5.441   7.074 -0.3764 -0.3471 -1.6297
  117OSM    C7S12195   5.924   5.270   7.013  0.0242 -0.1866  0.0691
  117OSM    H7S12196   5.861   5.199   7.071  1.5929 -3.2496 -1.7319
  117OSM    H7T12197   6.021   5.218   7.000  0.5730  0.6397  0.7392
  117OSM    C8S12198   5.880   5.296   6.867  0.3114  0.8212  0.8348
  117OSM    H8S12199   5.936   5.373   6.811  0.5760  0.3519  0.4436
  117OSM    H8T12200   5.774   5.327   6.856  0.2240  0.1600 -0.3645
  117OSM    C9S12201   5.874   5.160   6.788  0.2062  0.0735 -0.3352
  117OSM    H9S12202   5.785   5.103   6.820 -1.2232  1.6015 -1.4057
  117OSM    H9T12203   5.967   5.103   6.810 -1.0023 -1.8634 -0.0323
  117OSM   C10S12204   5.854   5.182   6.635 -0.2858  0.2523 -1.0632
  117OSM   H10S12205   5.935   5.254   6.609 -0.4130  0.1300 -1.8199
  117OSM   H10T12206   5.753   5.226   6.621  0.2632  0.7137 -4.2031
  117OSM   C11S12207   5.862   5.065   6.540 -0.7212  0.3531 -0.2556
  117OSM   H11S12208   5.769   5.005   6.527 -1.8136  1.8596  0.3151
  117OSM   H11T12209   5.947   5.001   6.569  0.6923  2.3078  0.1195
  117OSM   C12S12210   5.877   5.120   6.400  0.6140 -0.2802 -0.4484
  117OSM   H12S12211   5.987   5.135   6.397  0.7359 -0.9366  0.2621
  117OSM   H12T12212   5.818   5.213   6.386  0.1820 -0.0233  2.3732
  117OSM   C13S12213   5.846   5.024   6.285  0.2637 -0.4383  0.0385
  117OSM   H13S12214   5.742   4.986   6.283 -0.0023  0.1938  1.2148
  117OSM   H13T12215   5.910   4.934   6.277 -0.5195 -0.8572 -1.9640
  117OSM   C14S12216   5.853   5.102   6.154  0.2707 -0.9352  0.1090
  117OSM   H14S12217   5.951   5.155   6.148  0.0523 -0.2489  1.9435
  117OSM   H14T12218   5.774   5.179   6.148  1.9708  0.7837 -1.6040
  117OSM   C15S12219   5.852   5.017   6.028 -0.1138  0.1934 -0.1934
  117OSM   H15S12220   5.752   4.971   6.013  0.0280 -0.0993 -0.2505
  117OSM   H15T12221   5.924   4.932   6.035 -0.9842 -0.4624  1.3700
  117OSM   C16S12222   5.902   5.079   5.893 -0.9427  0.2602 -0.0730
  117OSM   H16S12223   5.891   4.997   5.818  0.7579  1.1486 -1.3785
  117OSM   H16T12224   6.009   5.104   5.909 -1.1757  2.6652 -1.6911
  117OSM   C17S12225   5.820   5.199   5.848  0.5284  0.7069 -0.2784
  117OSM   H17S12226   5.825   5.268   5.935 -0.1580  1.4141 -0.7818
  117OSM   H17T12227   5.710   5.186   5.836  0.1324  2.3862  1.1234
  117OSM   C18S12228   5.867   5.268   5.728 -0.6529 -0.7059 -0.2973
  117OSM   H18S12229   5.977   5.252   5.724 -0.4303  0.8313 -2.7340
  117OSM   H18T12230   5.837   5.376   5.728  0.7401 -0.3006 -1.1959
  117OSM   H18U12231   5.828   5.226   5.633 -1.0724 -1.1397  0.0644
  117OSM    C1F12232   5.932   5.001   7.436  0.4410  0.6950  0.1767
  117OSM     OF12233   5.837   4.957   7.504  0.1008  0.0164  0.3490
  117OSM    C2F12234   6.030   4.911   7.368 -0.1618 -0.0994 -0.6001
  117OSM    H2F12235   6.118   4.873   7.424  1.0901 -0.9703 -3.0297
  117OSM    H2G12236   6.075   4.976   7.291 -1.2317  0.0695 -1.1030
  117OSM    C3F12237   5.969   4.783   7.307 -0.1480 -0.6267  0.1932
  117OSM    H3F12238   5.886   4.804   7.237 -0.6132 -0.3816  0.8115
  117OSM    H3G12239   5.934   4.708   7.381  0.6931 -2.5194 -1.2438
  117OSM    C4F12240   6.065   4.696   7.219  0.7591  0.2208  0.4592
  117OSM    H4F12241   6.014   4.598   7.205  0.6554  0.3516 -0.1051
  117OSM    H4G12242   6.160   4.676   7.273 -0.2165 -3.8747  1.0076
  117OSM    C5F12243   6.093   4.766   7.083  0.5585 -0.0505 -0.7491
  117OSM    H5F12244   6.142   4.861   7.111 -0.1617  0.0761  0.1354
  117OSM    H5G12245   5.998   4.781   7.028 -0.0875  2.0666  0.8307
  117OSM    C6F12246   6.172   4.678   6.981  0.6775  0.5533  0.4297
  117OSM    H6F12247   6.112   4.599   6.932 -0.2736  2.8640 -2.4283
  117OSM    H6G12248   6.259   4.636   7.037  0.0412  2.6108  3.1925
  117OSM    C7F12249   6.231   4.764   6.870  0.0698 -0.0857 -0.2047
  117OSM    H7F12250   6.300   4.838   6.917  1.0198  0.1248 -1.8422
  117OSM    H7G12251   6.144   4.814   6.822  1.6547  1.7204 -1.3636
  117OSM    C8F12252   6.320   4.696   6.765  0.6957  0.2586 -0.6125
  117OSM    H8F12253   6.378   4.620   6.821  0.8191 -0.8493 -2.1727
  117OSM    H8G12254   6.384   4.771   6.714  0.7242  0.0084 -0.9540
  117OSM    C9F12255   6.230   4.619   6.672  0.0451 -0.3387  0.2737
  117OSM    H9F12256   6.170   4.541   6.723 -0.3229  1.2863  2.4624
  117OSM   C10F12257   6.222   4.635   6.538 -0.1032 -0.4499  0.4225
  117OSM   H10F12258   6.152   4.568   6.485 -0.4576 -0.6541  1.1359
  117OSM   C11F12259   6.298   4.742   6.458 -0.1262 -0.0725  0.0675
  117OSM   H11F12260   6.319   4.704   6.356  0.6407 -1.5072  0.7218
  117OSM   H11G12261   6.393   4.764   6.511 -2.0736  0.1447  3.8151
  117OSM   C12F12262   6.215   4.868   6.453  0.1793 -0.0482  0.3867
  117OSM   H12F12263   6.191   4.884   6.560  0.5376 -2.2003  0.8436
  117OSM   H12G12264   6.126   4.842   6.391  0.4391 -1.8203  0.7207
  117OSM   C13F12265   6.294   4.987   6.392  0.4520  0.6666  0.5252
  117OSM   H13F12266   6.397   4.985   6.433  0.1639 -1.8461  1.3047
  117OSM   H13G12267   6.243   5.079   6.428 -2.5817 -1.1091  1.1322
  117OSM   C14F12268   6.284   4.975   6.239  0.0067 -0.5266 -0.3909
  117OSM   H14F12269   6.174   4.977   6.220 -0.2822  2.2723  0.9966
  117OSM   H14G12270   6.326   4.879   6.202  3.3527 -0.1685  2.0489
  117OSM   C15F12271   6.346   5.099   6.162  0.8502 -0.3138 -0.1759
  117OSM   H15F12272   6.450   5.116   6.199  0.9060  0.4022 -0.6394
  117OSM   H15G12273   6.281   5.186   6.186 -0.8312 -1.5619 -0.0856
  117OSM   C16F12274   6.337   5.067   6.007  0.3766 -0.3729 -0.5470
  117OSM   H16F12275   6.229   5.053   5.983  0.3188 -0.8163 -0.0437
  117OSM   H16G12276   6.397   4.979   5.977  0.1618 -0.1431 -1.6810
  117OSM   C17F12277   6.397   5.181   5.924 -0.0654 -0.1596  0.2711
  117OSM   H17F12278   6.505   5.180   5.950 -0.5288  0.1324  2.4053
  117OSM   H17G12279   6.345   5.278   5.940  0.0436 -0.0040 -0.2978
  117OSM   C18F12280   6.380   5.152   5.770 -0.5841 -0.1366 -0.3746
  117OSM   H18F12281   6.473   5.107   5.729 -1.9617 -1.7719 -1.8255
  117OSM   H18G12282   6.353   5.239   5.707 -2.9194 -2.5069 -2.8597
  117OSM   H18H12283   6.296   5.083   5.750 -2.5222  1.8705  0.4349
  118OSM      N12284   4.648   0.924   8.176  0.4476  0.7919  0.7568
  118OSM    C1512285   4.523   0.943   8.093 -0.0126 -0.4401 -1.2756
  118OSM   H15A12286   4.479   0.847   8.071  0.7052 -0.9194 -0.6434
  118OSM   H15B12287   4.549   0.985   7.997 -1.1032 -1.8991 -2.2446
  118OSM   H15C12288   4.452   1.002   8.149  1.0837  0.1493 -0.4527
  118OSM    C1412289   4.695   1.051   8.233 -0.2168 -0.1700 -0.1311
  118OSM   H14A12290   4.723   1.121   8.155  2.0296  0.9440  1.5275
  118OSM   H14B12291   4.788   1.036   8.287  0.8881  0.2977 -1.7916
  118OSM   H14C12292   4.619   1.097   8.293  0.7992 -0.5987  1.5329
  118OSM    C1312293   4.621   0.828   8.294 -0.6922 -0.3124  0.8399
  118OSM   H13A12294   4.712   0.819   8.352  2.3110  1.6085 -3.0981
  118OSM   H13B12295   4.584   0.734   8.257 -1.2711  0.4373 -0.5529
  118OSM   H13C12296   4.535   0.863   8.350 -0.7565  1.4109 -0.2666
  118OSM    C1212297   4.753   0.867   8.084 -0.2536  0.0583  0.3670
  118OSM   H12A12298   4.724   0.765   8.065  0.1605  0.1542 -0.8714
  118OSM   H12B12299   4.845   0.863   8.141  0.8880  0.7399 -1.3588
  118OSM    C1112300   4.783   0.948   7.957  0.0116 -0.0043  0.8185
  118OSM   H11A12301   4.691   0.964   7.897  0.9249 -1.1990 -1.0193
  118OSM   H11B12302   4.860   0.897   7.895  0.2985  0.6809  0.6078
  118OSM      P12303   4.933   1.163   7.900 -0.1842 -0.3249 -0.3174
  118OSM    O1312304   4.880   1.301   7.903  0.1807 -0.4109 -0.4969
  118OSM    O1412305   5.069   1.141   7.942  0.0427 -0.5831 -0.0462
  118OSM    O1112306   4.916   1.103   7.761 -0.5308  0.4696 -0.1490
  118OSM    O1212307   4.835   1.078   7.994 -0.0157  0.1217  0.5287
  118OSM    C1S12308   4.956   1.171   7.635  0.4423 -0.0445 -0.2661
  118OSM    H1S12309   5.062   1.204   7.632  0.9131 -1.4795 -2.9782
  118OSM    H1T12310   4.890   1.256   7.608  2.8629  1.6271 -1.2317
  118OSM     NF12311   4.975   1.168   7.388  0.1920  0.5041 -0.3765
  118OSM    HNF12312   4.896   1.209   7.345  0.5039 -0.0042 -1.4666
  118OSM    C2S12313   4.957   1.079   7.507  0.0468 -0.4578  0.5769
  118OSM    H2S12314   5.041   1.006   7.509  1.6141  1.2526  0.2645
  118OSM    C3S12315   4.826   0.997   7.500 -0.4655 -0.8707 -0.8264
  118OSM    H3S12316   4.740   1.067   7.500  1.0470  1.1704  1.4864
  118OSM     O312317   4.814   0.917   7.612 -0.2169  0.1778  0.7004
  118OSM    HO312318   4.881   0.943   7.675 -1.5099  2.0972  1.3778
  118OSM    C4S12319   4.814   0.918   7.378 -0.1554 -0.6632 -0.5203
  118OSM    H4S12320   4.889   0.840   7.354  0.1259  0.3188 -3.1889
  118OSM    C5S12321   4.717   0.927   7.288  0.3751  0.1222 -0.4336
  118OSM    H5S12322   4.637   0.999   7.306  0.7818  0.3714  0.4271
  118OSM    C6S12323   4.697   0.837   7.174 -0.4108  0.3152  0.2493
  118OSM    H6S12324   4.595   0.794   7.180  0.7126 -2.3734  2.1423
  118OSM    H6T12325   4.765   0.749   7.184  0.5122  1.0589  0.6995
  118OSM    C7S12326   4.729   0.901   7.038  0.0610  0.2460 -0.7178
  118OSM    H7S12327   4.656   0.982   7.017  0.3897  1.3230  1.8999
  118OSM    H7T12328   4.719   0.830   6.952 -1.3471 -0.2880 -0.1348
  118OSM    C8S12329   4.862   0.963   7.029 -0.2462 -0.3269  0.1719
  118OSM    H8S12330   4.933   0.879   7.050  0.8317  0.2671 -0.9873
  118OSM    H8T12331   4.869   1.040   7.109 -1.1420  0.9837 -0.9750
  118OSM    C9S12332   4.899   1.018   6.887  0.1130 -0.0834 -0.3107
  118OSM    H9S12333   4.992   1.079   6.892  0.5453 -0.6169 -1.4432
  118OSM    H9T12334   4.828   1.100   6.866 -0.9299 -1.1315 -1.0238
  118OSM   C10S12335   4.919   0.924   6.764  0.5223 -0.1368 -1.1661
  118OSM   H10S12336   4.835   0.855   6.744  0.2907 -0.5058  0.8506
  118OSM   H10T12337   4.999   0.850   6.785 -1.0861 -1.3020  1.3995
  118OSM   C11S12338   4.951   1.012   6.645  0.2018 -0.2863 -0.5936
  118OSM   H11S12339   5.021   1.094   6.672 -1.4472  1.0246 -0.1116
  118OSM   H11T12340   4.860   1.069   6.616  0.5984  1.2879  1.0116
  118OSM   C12S12341   4.999   0.931   6.519 -0.5326 -0.7210  0.9740
  118OSM   H12S12342   4.919   0.855   6.506 -0.4799 -1.1161  2.6855
  118OSM   H12T12343   5.095   0.881   6.542 -0.5732 -2.2042 -1.6964
  118OSM   C13S12344   5.012   1.019   6.388  0.1001  0.3083 -0.7223
  118OSM   H13S12345   5.079   1.105   6.406 -2.6538  2.1587  1.4981
  118OSM   H13T12346   4.911   1.062   6.372 -0.9015 -1.2741  0.9861
  118OSM   C14S12347   5.071   0.947   6.262 -0.0672 -0.0988 -0.9789
  118OSM   H14S12348   5.070   1.023   6.181  1.9234  1.3177  0.2560
  118OSM   H14T12349   5.005   0.867   6.222 -1.4032 -0.3343  1.4710
  118OSM   C15S12350   5.213   0.891   6.279  0.0319  0.5056  0.1633
  118OSM   H15S12351   5.209   0.797   6.339 -1.3674  0.1943 -0.3700
  118OSM   H15T12352   5.285   0.959   6.329 -1.1285  0.6691  1.6916
  118OSM   C16S12353   5.289   0.860   6.152 -0.3721 -0.3449 -0.0901
  118OSM   H16S12354   5.391   0.848   6.193 -1.1371  0.3821  2.1568
  118OSM   H16T12355   5.281   0.951   6.088  0.4245 -0.9029 -1.0168
  118OSM   C17S12356   5.254   0.736   6.064 -0.7347  0.0853 -0.0197
  118OSM   H17S12357   5.145   0.744   6.044 -1.4034 -1.8945  2.3353
  118OSM   H17T12358   5.260   0.658   6.143  1.5810 -1.3217 -1.4797
  118OSM   C18S12359   5.341   0.699   5.945  0.4988 -0.6740  0.0287
  118OSM   H18S12360   5.447   0.684   5.974  0.2112 -0.6398  1.1112
  118OSM   H18T12361   5.334   0.770   5.860  0.2812 -1.9233 -1.0306
  118OSM   H18U12362   5.305   0.608   5.892  0.5888 -1.3870  1.1697
  118OSM    C1F12363   5.089   1.228   7.367 -0.1870 -0.5117  0.3893
  118OSM     OF12364   5.195   1.187   7.414 -0.3769  0.1658 -0.2180
  118OSM    C2F12365   5.085   1.354   7.278  0.1142  0.9029  0.2894
  118OSM    H2F12366   5.108   1.439   7.347  2.2148 -0.1973  1.0582
  118OSM    H2G12367   4.989   1.356   7.223  0.1703  1.6546  0.2043
  118OSM    C3F12368   5.180   1.364   7.155 -0.3124 -0.4593  0.0608
  118OSM    H3F12369   5.287   1.378   7.183 -0.2704 -1.1103  0.2621
  118OSM    H3G12370   5.145   1.448   7.093 -0.7306 -0.0754  0.8064
  118OSM    C4F12371   5.157   1.237   7.065 -0.1230 -0.3533 -0.2314
  118OSM    H4F12372   5.051   1.226   7.032 -0.0838  0.1949 -0.5486
  118OSM    H4G12373   5.179   1.147   7.127  2.3015  0.1557 -0.2586
  118OSM    C5F12374   5.244   1.236   6.940 -0.3076  0.8773  0.2086
  118OSM    H5F12375   5.247   1.135   6.893  1.1300  0.3977  1.2594
  118OSM    H5G12376   5.348   1.248   6.975  0.1934 -1.2329 -0.4308
  118OSM    C6F12377   5.213   1.347   6.839  0.1315  0.9099  0.4062
  118OSM    H6F12378   5.211   1.444   6.893 -3.1847  1.0147  0.2780
  118OSM    H6G12379   5.111   1.331   6.798 -0.5246  0.0701  2.2879
  118OSM    C7F12380   5.320   1.352   6.730 -0.2952  0.1155 -0.0569
  118OSM    H7F12381   5.406   1.331   6.797 -1.0305  1.5223  1.3835
  118OSM    H7G12382   5.334   1.454   6.688 -3.5377  0.1136 -1.3917
  118OSM    C8F12383   5.295   1.256   6.618 -0.8599  0.5408  0.3673
  118OSM    H8F12384   5.212   1.277   6.547 -0.2411  1.2928 -0.1521
  118OSM    H8G12385   5.271   1.165   6.677 -2.1536  0.1508 -0.7144
  118OSM    C9F12386   5.423   1.239   6.531 -0.5578 -0.1656 -0.1822
  118OSM    H9F12387   5.514   1.217   6.587 -0.7141 -0.5791 -0.0855
  118OSM   C10F12388   5.417   1.258   6.395  0.9961 -0.4371 -0.4588
  118OSM   H10F12389   5.511   1.257   6.338  0.3735 -0.5147 -1.5007
  118OSM   C11F12390   5.305   1.294   6.305  0.3361  0.8055 -0.2504
  118OSM   H11F12391   5.203   1.287   6.347  0.5106 -1.1135 -0.0691
  118OSM   H11G12392   5.307   1.223   6.220 -0.3311 -1.8448  1.8183
  118OSM   C12F12393   5.310   1.434   6.255 -0.4480 -0.0366  0.3512
  118OSM   H12F12394   5.391   1.471   6.188 -0.1610 -0.7669  0.2876
  118OSM   H12G12395   5.308   1.499   6.345 -1.9131  1.6581 -0.8299
  118OSM   C13F12396   5.168   1.471   6.195 -0.8301 -0.5770  0.2171
  118OSM   H13F12397   5.084   1.469   6.267 -1.6704  0.2936 -0.6998
  118OSM   H13G12398   5.155   1.393   6.116  2.8782 -1.4897  0.3376
  118OSM   C14F12399   5.176   1.606   6.128 -0.0865  0.3327  0.2259
  118OSM   H14F12400   5.241   1.584   6.040 -0.7776 -1.3937  0.1150
  118OSM   H14G12401   5.229   1.677   6.195  0.3507 -1.0624  1.3859
  118OSM   C15F12402   5.038   1.664   6.094 -0.0717  0.4227  0.8036
  118OSM   H15F12403   4.960   1.667   6.174 -2.1803 -0.2579 -1.1223
  118OSM   H15G12404   4.987   1.602   6.017  1.3285 -0.6969  0.7386
  118OSM   C16F12405   5.045   1.801   6.030  0.0329  0.1219  0.1607
  118OSM   H16F12406   5.105   1.798   5.936 -1.3682  1.4709 -0.8364
  118OSM   H16G12407   5.097   1.872   6.098 -1.5586 -0.2496  1.8365
  118OSM   C17F12408   4.909   1.848   5.966 -0.0340 -0.3044 -0.2634
  118OSM   H17F12409   4.831   1.848   6.044  1.0414 -0.0857  0.8398
  118OSM   H17G12410   4.871   1.781   5.886 -1.7667  1.2199 -0.7715
  118OSM   C18F12411   4.915   1.987   5.896 -0.3019 -0.3435  0.2448
  118OSM   H18F12412   4.824   2.019   5.841  0.3303 -0.9713 -1.2225
  118OSM   H18G12413   5.002   1.982   5.827 -0.5870  0.9278 -0.2499
  118OSM   H18H12414   4.938   2.061   5.976 -1.3363 -0.3698  0.5722
  119OSM      N12415   3.131   5.210   8.145 -0.0471  0.3167  0.2434
  119OSM    C1512416   3.111   5.319   8.045  0.1497 -0.6009  0.6864
  119OSM   H15A12417   3.181   5.401   8.047 -0.6915  0.5745 -4.3008
  119OSM   H15B12418   3.010   5.353   8.058  1.5577  3.6253  2.4667
  119OSM   H15C12419   3.102   5.285   7.943 -1.7074  0.8702  0.3102
  119OSM    C1412420   3.256   5.139   8.101 -0.0790  0.3757 -0.6198
  119OSM   H14A12421   3.251   5.116   7.996  1.8638  0.3600 -0.7510
  119OSM   H14B12422   3.272   5.044   8.152 -0.6306  0.6800  0.1361
  119OSM   H14C12423   3.344   5.202   8.101 -0.8385  1.4998 -2.4466
  119OSM    C1312424   3.150   5.270   8.277 -0.0495  0.0395  0.2609
  119OSM   H13A12425   3.062   5.297   8.334 -1.0246 -0.0264 -1.1818
  119OSM   H13B12426   3.211   5.359   8.279 -2.2324  1.6372 -1.2870
  119OSM   H13C12427   3.206   5.200   8.338  1.2027  0.6948 -0.0922
  119OSM    C1212428   3.011   5.112   8.152  0.8407  0.0445 -0.2309
  119OSM   H12A12429   2.920   5.155   8.192 -0.1833 -2.1255 -0.0908
  119OSM   H12B12430   3.038   5.032   8.219 -3.2042 -1.5995 -0.2919
  119OSM    C1112431   2.972   5.037   8.018 -0.0791  0.4403  0.4596
  119OSM   H11A12432   2.962   5.121   7.945 -0.5817  1.9349  2.1850
  119OSM   H11B12433   2.871   4.995   8.040 -1.3578  1.8914 -2.1318
  119OSM      P12434   3.102   4.913   7.828  0.2170  0.1060 -0.0381
  119OSM    O1312435   3.199   4.806   7.802  0.2454 -0.1970  0.2985
  119OSM    O1412436   2.978   4.898   7.750 -0.2036 -0.0981  0.4094
  119OSM    O1112437   3.162   5.054   7.789 -0.5373 -0.3447 -0.5671
  119OSM    O1212438   3.065   4.930   7.980  0.3725 -0.1636 -0.4240
  119OSM    C1S12439   3.215   5.066   7.654 -0.2022  0.1751  0.4505
  119OSM    H1S12440   3.275   4.983   7.612  0.1456  0.2485  0.8028
  119OSM    H1T12441   3.295   5.142   7.643 -0.4921  0.2378 -1.4923
  119OSM     NF12442   3.171   5.112   7.421  0.3928  0.1315  0.3400
  119OSM    HNF12443   3.214   5.201   7.410 -1.5423  1.6090  3.3951
  119OSM    C2S12444   3.107   5.114   7.552 -0.3672 -0.0614 -0.5075
  119OSM    H2S12445   3.018   5.049   7.552 -1.6104  1.5210  2.0738
  119OSM    C3S12446   3.056   5.256   7.589  0.5570 -0.1711  0.0503
  119OSM    H3S12447   3.142   5.326   7.582 -0.5819  1.2394 -0.4443
  119OSM     O312448   2.999   5.264   7.716 -0.1184  0.3097  0.7772
  119OSM    HO312449   3.010   5.179   7.759  1.2720  0.1701  0.1868
  119OSM    C4S12450   2.960   5.296   7.487  0.1854 -0.1544 -0.9596
  119OSM    H4S12451   2.880   5.224   7.470  0.2168  0.0173 -1.8561
  119OSM    C5S12452   2.960   5.403   7.412 -0.1191 -0.2691 -0.7699
  119OSM    H5S12453   3.035   5.483   7.422  0.4270 -0.9855  1.4075
  119OSM    C6S12454   2.854   5.418   7.309 -0.5108  0.5206  0.4194
  119OSM    H6S12455   2.795   5.512   7.309 -0.8957  0.2909  1.4543
  119OSM    H6T12456   2.785   5.333   7.288  0.5432  0.4379 -3.3948
  119OSM    C7S12457   2.946   5.418   7.183 -0.4059  0.4100 -0.5121
  119OSM    H7S12458   2.993   5.320   7.159 -1.0758 -0.2561  0.7743
  119OSM    H7T12459   3.037   5.481   7.189 -0.8339  0.9414  0.7830
  119OSM    C8S12460   2.857   5.438   7.066 -0.3653 -0.3572  0.5416
  119OSM    H8S12461   2.822   5.543   7.061 -0.4608 -0.3958  0.3568
  119OSM    H8T12462   2.771   5.369   7.078 -0.9076  0.5515  2.1309
  119OSM    C9S12463   2.931   5.407   6.931 -0.5360  0.8496  0.5069
  119OSM    H9S12464   2.962   5.301   6.925  0.8550  1.1266  1.9806
  119OSM    H9T12465   3.022   5.471   6.932  1.8524 -2.3046  2.6911
  119OSM   C10S12466   2.857   5.438   6.800  0.0346  1.1246 -0.5417
  119OSM   H10S12467   2.815   5.539   6.823  1.5224  1.3905  1.2423
  119OSM   H10T12468   2.770   5.370   6.790 -0.6831  1.7915  0.8751
  119OSM   C11S12469   2.934   5.418   6.667 -0.0794 -0.1207 -0.2046
  119OSM   H11S12470   2.977   5.316   6.676  0.6414  0.2278  0.4194
  119OSM   H11T12471   3.007   5.501   6.666 -0.5830  0.4492 -3.6246
  119OSM   C12S12472   2.844   5.425   6.534  0.1478 -0.6977 -0.4666
  119OSM   H12S12473   2.777   5.513   6.537  0.2008 -0.6740  1.7565
  119OSM   H12T12474   2.779   5.336   6.548 -0.5703 -0.0398  0.4935
  119OSM   C13S12475   2.927   5.408   6.396  0.1476  0.2808 -0.3838
  119OSM   H13S12476   2.996   5.322   6.406  2.2164  1.8426 -0.3911
  119OSM   H13T12477   2.997   5.495   6.396 -0.1562  0.5559 -2.2630
  119OSM   C14S12478   2.835   5.404   6.273 -0.1809 -0.2056 -0.1582
  119OSM   H14S12479   2.888   5.447   6.185 -0.7484 -1.1123 -0.9591
  119OSM   H14T12480   2.746   5.466   6.299 -0.4513  0.2408 -2.0095
  119OSM   C15S12481   2.783   5.252   6.254  0.4113 -0.0134 -0.3489
  119OSM   H15S12482   2.731   5.221   6.348  0.3115  0.7835 -0.1348
  119OSM   H15T12483   2.871   5.187   6.234 -0.6387 -1.1524 -1.4281
  119OSM   C16S12484   2.694   5.236   6.141 -0.0535  0.3556 -0.0115
  119OSM   H16S12485   2.729   5.283   6.047  0.9953  1.3601  0.8486
  119OSM   H16T12486   2.600   5.286   6.171  0.4652  2.5107 -1.7205
  119OSM   C17S12487   2.669   5.088   6.100 -0.8962  0.0795  0.0703
  119OSM   H17S12488   2.597   5.048   6.174 -1.0748 -0.3110 -0.3114
  119OSM   H17T12489   2.763   5.029   6.100 -1.0850 -0.2296 -0.4533
  119OSM   C18S12490   2.605   5.083   5.963 -0.2104  0.2913 -0.4267
  119OSM   H18S12491   2.670   5.119   5.880  0.9214  0.2314  0.4169
  119OSM   H18T12492   2.510   5.139   5.977 -0.8483 -1.0143  0.6566
  119OSM   H18U12493   2.574   4.977   5.954 -0.3053  0.2437  0.4131
  119OSM    C1F12494   3.200   5.004   7.348  0.1370 -0.4474 -0.3839
  119OSM     OF12495   3.172   4.892   7.384  0.0481 -0.4220  0.6072
  119OSM    C2F12496   3.296   5.035   7.232  0.9267 -0.3329 -0.2408
  119OSM    H2F12497   3.368   5.115   7.260  0.2091  0.0541  0.5695
  119OSM    H2G12498   3.229   5.081   7.157 -1.3848 -1.6980  0.8698
  119OSM    C3F12499   3.374   4.911   7.176 -0.4750 -0.9874 -0.4923
  119OSM    H3F12500   3.310   4.821   7.169  1.2555 -2.1481 -2.1449
  119OSM    H3G12501   3.454   4.889   7.250  1.0083  0.0025 -1.7628
  119OSM    C4F12502   3.441   4.924   7.039  0.0824  0.9792 -0.0803
  119OSM    H4F12503   3.534   4.979   7.064 -0.9655  2.3303  0.9846
  119OSM    H4G12504   3.373   4.986   6.977  0.1589  2.3939  1.2110
  119OSM    C5F12505   3.459   4.793   6.959 -0.3290  0.5040  0.0309
  119OSM    H5F12506   3.362   4.741   6.944 -0.3720  0.5640  0.1008
  119OSM    H5G12507   3.521   4.722   7.017  0.4520  0.3062 -1.0202
  119OSM    C6F12508   3.516   4.827   6.819  0.2558 -0.1478 -0.7350
  119OSM    H6F12509   3.550   4.730   6.778 -0.8760 -0.0501 -1.9689
  119OSM    H6G12510   3.597   4.903   6.824  1.8449 -1.7578 -1.1803
  119OSM    C7F12511   3.409   4.868   6.718 -0.2844 -0.3491  0.2760
  119OSM    H7F12512   3.361   4.958   6.763 -0.8910  0.2668 -1.5305
  119OSM    H7G12513   3.336   4.785   6.709 -0.3775 -0.0956 -1.5279
  119OSM    C8F12514   3.473   4.928   6.584 -0.0196  0.4858  0.3978
  119OSM    H8F12515   3.530   5.020   6.610  0.6937 -0.2270  1.4289
  119OSM    H8G12516   3.385   4.954   6.521 -0.7345 -0.7208  0.8635
  119OSM    C9F12517   3.561   4.831   6.510 -0.4990  0.4120 -0.0078
  119OSM    H9F12518   3.645   4.794   6.570 -0.0213 -0.3126 -1.0981
  119OSM   C10F12519   3.543   4.789   6.382 -0.0689 -0.2891 -0.0160
  119OSM   H10F12520   3.626   4.724   6.348  0.9758  0.7716  0.4354
  119OSM   C11F12521   3.437   4.832   6.286  0.3910  0.3689  0.2455
  119OSM   H11F12522   3.369   4.913   6.319 -0.4692  0.1878 -1.0060
  119OSM   H11G12523   3.365   4.751   6.262  1.4087  0.0502 -2.0150
  119OSM   C12F12524   3.500   4.884   6.161 -0.4140 -0.1489 -0.0488
  119OSM   H12F12525   3.572   4.966   6.182  0.2334 -0.1821 -1.9647
  119OSM   H12G12526   3.427   4.928   6.090 -0.8029 -1.2712 -0.3779
  119OSM   C13F12527   3.579   4.770   6.079 -1.1096 -0.1164 -0.3554
  119OSM   H13F12528   3.652   4.717   6.143 -1.2821  1.3906  1.1424
  119OSM   H13G12529   3.632   4.825   5.998  2.1388 -1.3371  0.8025
  119OSM   C14F12530   3.497   4.671   6.013  0.2253 -0.7540 -0.3645
  119OSM   H14F12531   3.435   4.725   5.939 -0.6709 -0.1040  0.8223
  119OSM   H14G12532   3.415   4.651   6.086 -0.3810 -1.3400 -1.1826
  119OSM   C15F12533   3.562   4.533   5.971  0.6362  0.2390 -1.0995
  119OSM   H15F12534   3.620   4.505   6.062 -0.5916 -0.5688 -0.5280
  119OSM   H15G12535   3.633   4.548   5.888 -0.0820  2.1249 -1.4208
  119OSM   C16F12536   3.464   4.423   5.946  0.1363  0.0522 -0.0280
  119OSM   H16F12537   3.406   4.418   6.041  0.0342  0.4047 -0.0713
  119OSM   H16G12538   3.509   4.323   5.930 -0.2812  0.0971 -1.6393
  119OSM   C17F12539   3.363   4.457   5.836  0.9062  0.1757  0.4104
  119OSM   H17F12540   3.409   4.445   5.736 -0.5350  2.3809 -0.5966
  119OSM   H17G12541   3.331   4.563   5.843  2.2368  0.5916  0.4742
  119OSM   C18F12542   3.234   4.369   5.836 -0.6284 -0.2477  0.0273
  119OSM   H18F12543   3.265   4.263   5.828 -1.4613 -0.3596 -2.3082
  119OSM   H18G12544   3.176   4.399   5.746 -0.8151  2.6394  1.0000
  119OSM   H18H12545   3.170   4.384   5.926 -1.4783 -1.2401 -0.3899
  120OSM      N12546   3.849   5.523   7.779 -0.5068  0.7660  0.3924
  120OSM    C1512547   3.980   5.510   7.855  0.1949 -0.7952  0.0981
  120OSM   H15A12548   3.952   5.506   7.959  2.5184  1.1720  0.8961
  120OSM   H15B12549   4.052   5.588   7.841  0.3886 -1.1492 -0.9902
  120OSM   H15C12550   4.026   5.414   7.835  0.1120 -1.3856  2.4114
  120OSM    C1412551   3.883   5.488   7.640  0.1591 -0.4777  0.3227
  120OSM   H14A12552   3.804   5.513   7.571  1.5153  2.7159 -0.2314
  120OSM   H14B12553   3.926   5.391   7.621  0.5302 -0.3618  0.5590
  120OSM   H14C12554   3.959   5.554   7.602  0.7421 -1.9135 -1.1140
  120OSM    C1312555   3.754   5.419   7.817 -0.2790 -0.0033 -0.6809
  120OSM   H13A12556   3.792   5.332   7.766 -0.5794 -0.1575 -0.6421
  120OSM   H13B12557   3.655   5.440   7.779 -0.3142  0.6984 -0.2212
  120OSM   H13C12558   3.751   5.406   7.925  0.6681 -0.8194 -0.7358
  120OSM    C1212559   3.795   5.662   7.782  0.4338 -0.3419  0.0045
  120OSM   H12A12560   3.706   5.657   7.721 -0.3758  0.9511  1.0337
  120OSM   H12B12561   3.863   5.718   7.720 -0.4890 -0.9020 -1.5666
  120OSM    C1112562   3.757   5.716   7.919 -0.3680  0.3912 -0.0466
  120OSM   H11A12563   3.746   5.822   7.889  0.3603  0.2333 -0.9004
  120OSM   H11B12564   3.844   5.705   7.987  0.4682 -0.2175 -1.2011
  120OSM      P12565   3.502   5.705   7.925 -0.3617  0.0651  0.5793
  120OSM    O1312566   3.403   5.606   7.963  0.5162  0.1170 -0.7721
  120OSM    O1412567   3.481   5.846   7.962 -0.0072  0.3540 -0.1273
  120OSM    O1112568   3.520   5.690   7.765 -0.0330 -0.6465  0.1760
  120OSM    O1212569   3.639   5.657   7.977 -0.0688  0.7554 -0.3842
  120OSM    C1S12570   3.458   5.793   7.689 -0.1513 -0.5177 -0.2120
  120OSM    H1S12571   3.502   5.894   7.704  1.4251 -1.2364  0.1247
  120OSM    H1T12572   3.348   5.793   7.709 -0.3117  0.1589 -1.0332
  120OSM     NF12573   3.376   5.865   7.470 -0.2562 -0.5076  0.5748
  120OSM    HNF12574   3.278   5.850   7.469 -0.4703  0.6414  1.8601
  120OSM    C2S12575   3.463   5.768   7.537  0.2437  0.4528 -0.9634
  120OSM    H2S12576   3.568   5.766   7.501  0.7883  0.4272  0.5361
  120OSM    C3S12577   3.416   5.619   7.511 -0.0751  0.2081 -0.2999
  120OSM    H3S12578   3.314   5.606   7.554  0.3601  1.7829  1.3302
  120OSM     O312579   3.486   5.510   7.578  0.5660 -0.6013 -0.0881
  120OSM    HO312580   3.542   5.554   7.643  1.2837  0.6398 -1.5063
  120OSM    C4S12581   3.437   5.596   7.363  0.2857 -0.1701 -0.4631
  120OSM    H4S12582   3.536   5.583   7.317 -0.2419 -0.8180 -1.4493
  120OSM    C5S12583   3.340   5.593   7.274  0.2398 -0.7468 -0.2222
  120OSM    H5S12584   3.238   5.606   7.313  0.6185 -2.3963  1.4683
  120OSM    C6S12585   3.358   5.554   7.128  0.0866 -0.3253 -0.5047
  120OSM    H6S12586   3.413   5.638   7.082  0.0329 -1.0152 -1.8809
  120OSM    H6T12587   3.262   5.548   7.073  1.7544 -3.2055 -3.4084
  120OSM    C7S12588   3.431   5.426   7.124  0.0346  0.3357  0.6302
  120OSM    H7S12589   3.371   5.350   7.177 -1.6391  0.0999 -1.4794
  120OSM    H7T12590   3.529   5.442   7.175  0.5044  2.4873 -0.7979
  120OSM    C8S12591   3.451   5.356   6.986 -0.3286 -0.2099  0.3648
  120OSM    H8S12592   3.514   5.269   7.013 -2.4602 -1.6063  1.1415
  120OSM    H8T12593   3.518   5.426   6.933 -1.1130  1.8929  1.9850
  120OSM    C9S12594   3.320   5.324   6.916  0.8648 -0.8231 -0.5592
  120OSM    H9S12595   3.255   5.412   6.929 -0.1910 -1.6971  0.2889
  120OSM    H9T12596   3.260   5.246   6.967 -1.6790  0.5176 -1.3140
  120OSM   C10S12597   3.325   5.294   6.768 -0.3465 -0.6108  0.2314
  120OSM   H10S12598   3.244   5.233   6.722 -0.3003 -1.4176  1.1990
  120OSM   H10T12599   3.416   5.230   6.759  0.3962  0.4167  0.1972
  120OSM   C11S12600   3.349   5.426   6.683 -0.0089  0.6370 -0.9955
  120OSM   H11S12601   3.426   5.490   6.732  0.7801 -0.1515 -1.1876
  120OSM   H11T12602   3.259   5.491   6.685  0.9357  1.9852  0.0328
  120OSM   C12S12603   3.385   5.415   6.532  0.2949  0.5695 -0.1414
  120OSM   H12S12604   3.492   5.386   6.523  0.0858  0.2324 -1.7441
  120OSM   H12T12605   3.365   5.516   6.491 -1.1167  0.5882  0.5393
  120OSM   C13S12606   3.300   5.308   6.444 -0.2457 -0.3147 -0.5438
  120OSM   H13S12607   3.192   5.322   6.462 -0.1531 -1.7583  1.5141
  120OSM   H13T12608   3.319   5.205   6.481  2.2521  0.2597 -0.0110
  120OSM   C14S12609   3.326   5.334   6.296 -0.3142  0.8338  0.2517
  120OSM   H14S12610   3.435   5.330   6.275 -0.1852  1.9491  0.6725
  120OSM   H14T12611   3.281   5.431   6.268 -3.9294 -0.1841  1.9269
  120OSM   C15S12612   3.250   5.235   6.204 -0.1832 -0.0472  0.1742
  120OSM   H15S12613   3.141   5.248   6.219 -0.0231 -0.6392  2.1327
  120OSM   H15T12614   3.276   5.135   6.245  2.7895 -0.1193 -1.5804
  120OSM   C16S12615   3.283   5.246   6.056 -0.2548  0.2873 -0.0134
  120OSM   H16S12616   3.393   5.255   6.046 -0.3170 -0.1630 -1.1931
  120OSM   H16T12617   3.245   5.342   6.016  0.2459  0.4567 -0.0813
  120OSM   C17S12618   3.223   5.133   5.976  0.2657  0.6020 -0.0584
  120OSM   H17S12619   3.116   5.114   5.999  0.2781  0.4709 -0.1048
  120OSM   H17T12620   3.276   5.042   6.013 -0.7728 -0.2073 -0.4924
  120OSM   C18S12621   3.240   5.149   5.829 -0.4860  0.2489 -1.0781
  120OSM   H18S12622   3.347   5.144   5.797 -0.1187 -1.8770  0.2891
  120OSM   H18T12623   3.189   5.239   5.788 -4.4584 -0.7355  1.2821
  120OSM   H18U12624   3.189   5.070   5.771 -0.8317 -0.3252  0.0021
  120OSM    C1F12625   3.429   5.981   7.451 -0.0033 -0.4534 -0.0864
  120OSM     OF12626   3.549   5.999   7.440 -0.1723 -0.2916 -0.2811
  120OSM    C2F12627   3.331   6.103   7.423  0.0388  0.7725  0.6229
  120OSM    H2F12628   3.382   6.201   7.437  1.4308  0.3028 -0.9416
  120OSM    H2G12629   3.247   6.092   7.495 -1.7967  2.1753 -1.1996
  120OSM    C3F12630   3.272   6.103   7.277 -0.6650 -0.1045 -0.5045
  120OSM    H3F12631   3.190   6.178   7.275  0.4701  1.1949  0.1012
  120OSM    H3G12632   3.224   6.003   7.271  0.1629 -0.9214  3.3911
  120OSM    C4F12633   3.389   6.129   7.173 -0.0274  0.6499 -0.0763
  120OSM    H4F12634   3.465   6.049   7.182  0.5307  0.8025 -2.6593
  120OSM    H4G12635   3.436   6.227   7.196  0.5572  0.2567  0.4274
  120OSM    C5F12636   3.329   6.143   7.031 -0.0610  0.2858  0.2450
  120OSM    H5F12637   3.258   6.228   7.028 -0.9793 -0.4935 -0.8837
  120OSM    H5G12638   3.265   6.058   6.999  0.8335 -1.2346  2.2954
  120OSM    C6F12639   3.438   6.157   6.919 -0.0380 -0.0980 -0.5037
  120OSM    H6F12640   3.501   6.066   6.912  1.3967  0.8494 -0.3026
  120OSM    H6G12641   3.516   6.229   6.952  0.1923 -1.7343  2.9508
  120OSM    C7F12642   3.379   6.182   6.780 -0.2474 -0.2546  0.0048
  120OSM    H7F12643   3.300   6.260   6.793  0.8059  0.7555  0.5723
  120OSM    H7G12644   3.327   6.092   6.742  1.0154 -0.4421 -1.3634
  120OSM    C8F12645   3.486   6.217   6.677 -0.1971 -0.1098 -0.0704
  120OSM    H8F12646   3.564   6.138   6.667 -0.4022 -0.3796  0.4290
  120OSM    H8G12647   3.535   6.304   6.726 -1.9754  0.7933  0.1595
  120OSM    C9F12648   3.422   6.254   6.553 -0.1499 -0.0100  0.5098
  120OSM    H9F12649   3.338   6.323   6.565  0.1143  0.3913  0.1206
  120OSM   C10F12650   3.434   6.202   6.436 -0.5473 -0.2012 -0.4047
  120OSM   H10F12651   3.363   6.228   6.356  2.8751  1.6096 -3.1150
  120OSM   C11F12652   3.530   6.098   6.391  0.2666 -0.0805 -0.1662
  120OSM   H11F12653   3.480   6.039   6.311  2.1841  0.4832 -1.8659
  120OSM   H11G12654   3.548   6.021   6.470 -2.3384 -1.1732 -0.5271
  120OSM   C12F12655   3.657   6.146   6.318 -0.4183  1.0009  0.0050
  120OSM   H12F12656   3.726   6.060   6.303  0.3360  1.8408 -1.7256
  120OSM   H12G12657   3.715   6.210   6.388  0.2451 -1.4575  1.8170
  120OSM   C13F12658   3.639   6.224   6.182  0.3726 -0.9964 -0.1957
  120OSM   H13F12659   3.721   6.295   6.158  0.6021 -0.9760  0.6291
  120OSM   H13G12660   3.552   6.288   6.205  2.0830  1.4855 -0.1824
  120OSM   C14F12661   3.616   6.131   6.063  0.4541  0.8539  0.3059
  120OSM   H14F12662   3.579   6.202   5.985  0.1054  0.9109  0.5215
  120OSM   H14G12663   3.535   6.058   6.081  2.1106 -1.8341 -2.2796
  120OSM   C15F12664   3.739   6.061   6.006  0.0970 -0.0842 -0.0362
  120OSM   H15F12665   3.771   5.980   6.075  0.7276  1.3086  1.3534
  120OSM   H15G12666   3.830   6.122   5.987  0.5295 -1.0662 -1.3038
  120OSM   C16F12667   3.710   5.993   5.873 -0.0534  0.7527  0.4879
  120OSM   H16F12668   3.613   5.940   5.872  0.6018 -0.4580 -0.5588
  120OSM   H16G12669   3.779   5.908   5.857 -1.9250 -0.5994 -0.8370
  120OSM   C17F12670   3.725   6.090   5.753  0.5992 -0.4098 -0.3041
  120OSM   H17F12671   3.824   6.138   5.742 -0.1872  1.4415  0.2670
  120OSM   H17G12672   3.653   6.173   5.770  0.7395  0.0580 -1.8673
  120OSM   C18F12673   3.701   6.016   5.619 -0.2126 -0.0652 -0.8473
  120OSM   H18F12674   3.783   5.943   5.607 -1.3239 -1.5999  0.3781
  120OSM   H18G12675   3.718   6.100   5.548  1.7050  0.6373  0.3677
  120OSM   H18H12676   3.594   5.983   5.621  0.7616 -4.0051 -2.8674
  121OSM      N12677   6.352   0.243   8.158 -0.6647 -0.1660 -0.2031
  121OSM    C1512678   6.219   0.211   8.101  1.0329 -1.0135 -0.5551
  121OSM   H15A12679   6.148   0.193   8.181 -0.2009 -2.1181 -1.8400
  121OSM   H15B12680   6.214   0.120   8.043  1.1579 -1.2300 -0.2263
  121OSM   H15C12681   6.177   0.285   8.034  0.0033 -1.3285 -0.2891
  121OSM    C1412682   6.340   0.366   8.239 -0.2387 -0.5779 -0.5311
  121OSM   H14A12683   6.428   0.383   8.299 -1.7229  2.2533  1.0520
  121OSM   H14B12684   6.261   0.366   8.312  0.4402 -0.0494  0.2234
  121OSM   H14C12685   6.318   0.455   8.181  0.0113  0.6160  1.1312
  121OSM    C1312686   6.392   0.128   8.247  0.2803  0.0193 -0.3612
  121OSM   H13A12687   6.304   0.099   8.303 -1.1336  0.4124 -2.2746
  121OSM   H13B12688   6.461   0.148   8.328  0.9600 -0.6608 -0.7678
  121OSM   H13C12689   6.427   0.047   8.186  0.6450  0.4466 -0.7292
  121OSM    C1212690   6.454   0.275   8.047 -0.4961 -0.4780  0.4278
  121OSM   H12A12691   6.544   0.298   8.102 -0.1921 -2.1250  0.6680
  121OSM   H12B12692   6.434   0.370   7.999  2.1998  0.3978  0.8813
  121OSM    C1112693   6.487   0.165   7.942  0.5070 -0.5916 -0.1087
  121OSM   H11A12694   6.559   0.193   7.863  1.7835 -0.4349  1.0768
  121OSM   H11B12695   6.386   0.147   7.898 -0.4747  0.7151  1.4642
  121OSM      P12696   6.669   0.011   8.040 -0.2085  0.2497 -0.2591
  121OSM    O1312697   6.731   0.126   8.097 -0.0071  0.2391  0.1760
  121OSM    O1412698   6.667  -0.116   8.117  0.3845 -0.0688  0.0125
  121OSM    O1112699   6.736  -0.012   7.903 -0.2160 -0.0951  0.5952
  121OSM    O1212700   6.519   0.040   7.998 -0.2482  0.4418 -0.6759
  121OSM    C1S12701   6.715  -0.121   7.813  0.1360 -0.3774 -0.4610
  121OSM    H1S12702   6.606  -0.143   7.814  0.1653 -0.6057 -1.4229
  121OSM    H1T12703   6.767  -0.210   7.854  1.4765  0.9987  0.9965
  121OSM     NF12704   6.718  -0.201   7.559 -0.5426  0.5276 -0.3625
  121OSM    HNF12705   6.796  -0.235   7.507 -1.1311  0.2188 -1.0647
  121OSM    C2S12706   6.743  -0.090   7.652 -0.3044 -0.0479  0.6215
  121OSM    H2S12707   6.677  -0.004   7.626 -0.9532 -0.2583  1.5142
  121OSM    C3S12708   6.896  -0.040   7.650  0.0559 -0.1785  0.5386
  121OSM    H3S12709   6.959  -0.127   7.681 -3.2474 -2.7552  0.6411
  121OSM     O312710   6.931   0.056   7.747 -0.5585  0.1187 -0.4420
  121OSM    HO312711   6.863   0.038   7.811  0.3881 -0.6358  0.3954
  121OSM    C4S12712   6.947  -0.003   7.510  0.0437  0.2192 -0.2399
  121OSM    H4S12713   7.007  -0.082   7.462  0.9071  0.9346 -0.3621
  121OSM    C5S12714   6.945   0.121   7.454  0.6860  0.2414  0.1957
  121OSM    H5S12715   6.899   0.200   7.515 -1.1879  0.8644 -1.8641
  121OSM    C6S12716   7.009   0.162   7.326 -0.1850 -0.0458 -0.0245
  121OSM    H6S12717   7.105   0.210   7.353 -0.5867 -0.1806  1.7511
  121OSM    H6T12718   6.944   0.237   7.276 -0.3929 -0.2361 -0.0454
  121OSM    C7S12719   7.048   0.054   7.225 -0.6275  0.1723  0.4537
  121OSM    H7S12720   7.085  -0.041   7.269 -0.4979  0.5642  1.1988
  121OSM    H7T12721   7.136   0.098   7.174  0.0514 -0.4293  1.0866
  121OSM    C8S12722   6.942   0.013   7.123  0.0373 -0.9086  0.8168
  121OSM    H8S12723   6.852  -0.023   7.178  0.3065 -1.8563  0.6497
  121OSM    H8T12724   6.988  -0.069   7.065  2.2003 -0.8631  2.3579
  121OSM    C9S12725   6.888   0.112   7.012  0.5849 -0.8144 -0.6338
  121OSM    H9S12726   6.850   0.201   7.066  2.0574 -0.1983 -0.5954
  121OSM    H9T12727   6.800   0.069   6.959 -3.2478 -0.5518  4.6910
  121OSM   C10S12728   7.006   0.155   6.921  1.1431 -0.4313 -0.3376
  121OSM   H10S12729   7.039   0.077   6.850  1.9052  0.4485 -0.9695
  121OSM   H10T12730   7.097   0.175   6.981  0.4896  1.6356  0.0512
  121OSM   C11S12731   6.977   0.285   6.837 -0.2693 -0.4065  0.1373
  121OSM   H11S12732   6.974   0.363   6.917  3.1408 -0.0759  0.1129
  121OSM   H11T12733   6.880   0.286   6.785 -0.0166  0.3049 -0.3371
  121OSM   C12S12734   7.088   0.338   6.745 -0.2266  0.1682 -0.3984
  121OSM   H12S12735   7.180   0.327   6.808 -0.1752 -5.1381 -0.9421
  121OSM   H12T12736   7.067   0.445   6.724 -0.5126 -0.1374 -1.7691
  121OSM   C13S12737   7.116   0.270   6.610  0.1458 -0.0947 -1.0254
  121OSM   H13S12738   7.026   0.283   6.547 -0.3459 -1.3674 -0.6052
  121OSM   H13T12739   7.124   0.160   6.620  1.0946  0.1348  1.4067
  121OSM   C14S12740   7.236   0.332   6.537 -0.0988  0.5230  0.3044
  121OSM   H14S12741   7.319   0.353   6.608 -0.0085  0.6779  0.1550
  121OSM   H14T12742   7.208   0.436   6.510 -0.5371 -0.0544 -1.6166
  121OSM   C15S12743   7.296   0.259   6.412 -0.2902  0.2467  0.1734
  121OSM   H15S12744   7.221   0.261   6.330  0.5854  2.2926 -0.6517
  121OSM   H15T12745   7.305   0.153   6.443  1.2041  0.6013  1.0382
  121OSM   C16S12746   7.418   0.326   6.353  0.0714 -0.4860  0.1689
  121OSM   H16S12747   7.505   0.257   6.360  0.3437 -0.3009 -1.1313
  121OSM   H16T12748   7.449   0.414   6.413 -2.2382  2.5177 -2.7118
  121OSM   C17S12749   7.410   0.353   6.201 -0.0375  0.5333  0.4703
  121OSM   H17S12750   7.326   0.419   6.173 -0.3633 -0.3657 -0.7817
  121OSM   H17T12751   7.396   0.253   6.154  0.2416  1.3789 -1.5023
  121OSM   C18S12752   7.541   0.407   6.142 -0.4054  0.3399  0.0088
  121OSM   H18S12753   7.611   0.322   6.156  0.1622  1.1414  2.3932
  121OSM   H18T12754   7.570   0.505   6.185  0.0763  1.0472 -1.8246
  121OSM   H18U12755   7.535   0.423   6.032  0.6016 -0.1418 -0.1303
  121OSM    C1F12756   6.599  -0.247   7.527 -0.6495  0.8786  0.2192
  121OSM     OF12757   6.509  -0.200   7.597  0.0163  0.4412  0.0435
  121OSM    C2F12758   6.585  -0.337   7.412  0.0470 -0.5011  0.3282
  121OSM    H2F12759   6.648  -0.426   7.434  0.9957 -0.3901 -1.7021
  121OSM    H2G12760   6.623  -0.285   7.322  1.1874 -0.6695  0.6888
  121OSM    C3F12761   6.438  -0.382   7.387  0.1533 -0.1528 -0.2132
  121OSM    H3F12762   6.368  -0.303   7.421  1.7355 -0.6386  4.9105
  121OSM    H3G12763   6.418  -0.474   7.446 -2.7411  0.2731 -0.3756
  121OSM    C4F12764   6.417  -0.423   7.247  0.3725 -0.3754  0.3232
  121OSM    H4F12765   6.510  -0.468   7.206 -0.4379 -3.1070  1.3129
  121OSM    H4G12766   6.397  -0.336   7.180  1.6000 -1.1763 -1.1433
  121OSM    C5F12767   6.295  -0.521   7.226  0.3441  0.1355 -0.0305
  121OSM    H5F12768   6.313  -0.600   7.302  0.1848 -0.4746 -0.6297
  121OSM    H5G12769   6.317  -0.582   7.136  1.0079 -2.2931  1.6748
  121OSM    C6F12770   6.148  -0.458   7.250 -1.0549  0.3373 -0.5675
  121OSM    H6F12771   6.152  -0.406   7.349 -1.1217 -0.3247 -0.2113
  121OSM    H6G12772   6.079  -0.544   7.257 -1.2369  0.5786  1.0110
  121OSM    C7F12773   6.102  -0.356   7.151 -0.3714 -0.3725 -0.6199
  121OSM    H7F12774   6.153  -0.259   7.171  1.6303 -1.2821 -1.1027
  121OSM    H7G12775   5.996  -0.329   7.172  0.5709  1.4611  2.6544
  121OSM    C8F12776   6.118  -0.394   7.006 -0.0779  0.1408 -0.5195
  121OSM    H8F12777   6.051  -0.481   6.986  0.4807  0.2657 -3.4090
  121OSM    H8G12778   6.219  -0.429   6.976  0.6560  2.5990 -1.1790
  121OSM    C9F12779   6.090  -0.283   6.908 -0.0950 -0.0055 -0.1577
  121OSM    H9F12780   6.095  -0.184   6.955  0.1054  0.3900 -0.9906
  121OSM   C10F12781   6.055  -0.303   6.776 -0.8703  0.4072  0.3129
  121OSM   H10F12782   6.044  -0.216   6.710  2.5891  3.2763  3.0338
  121OSM   C11F12783   6.058  -0.437   6.715 -0.2587 -0.5584 -0.2348
  121OSM   H11F12784   6.120  -0.511   6.770  0.6297  0.9036  0.7948
  121OSM   H11G12785   6.112  -0.429   6.619 -1.3106 -1.0881 -0.8850
  121OSM   C12F12786   5.918  -0.487   6.701  0.0376  0.3412 -0.4540
  121OSM   H12F12787   5.854  -0.410   6.654 -2.4838 -0.3770  1.5388
  121OSM   H12G12788   5.877  -0.512   6.802  0.9225 -3.3510 -0.8366
  121OSM   C13F12789   5.893  -0.622   6.631  0.5466 -0.2326 -0.6827
  121OSM   H13F12790   5.782  -0.635   6.632  0.5943 -0.6187 -0.0414
  121OSM   H13G12791   5.942  -0.709   6.679 -0.6081 -1.7593 -2.1161
  121OSM   C14F12792   5.927  -0.621   6.481 -0.7271 -0.1951  0.4423
  121OSM   H14F12793   6.036  -0.609   6.464 -0.7724 -0.9533 -0.4486
  121OSM   H14G12794   5.887  -0.521   6.455  3.2191  1.4690  0.1020
  121OSM   C15F12795   5.869  -0.729   6.392 -0.4280  0.3681  0.2199
  121OSM   H15F12796   5.911  -0.828   6.420 -0.3221  0.4324  0.2887
  121OSM   H15G12797   5.907  -0.708   6.290 -3.0120  0.6253 -0.7708
  121OSM   C16F12798   5.715  -0.741   6.375 -0.0680 -0.4761 -0.3544
  121OSM   H16F12799   5.674  -0.639   6.360  0.3611 -0.0810  0.9972
  121OSM   H16G12800   5.681  -0.791   6.468  0.2761 -0.8081 -0.4039
  121OSM   C17F12801   5.670  -0.845   6.269 -0.1309  0.4665  0.5228
  121OSM   H17F12802   5.724  -0.820   6.175 -0.7058 -0.6779 -0.1338
  121OSM   H17G12803   5.561  -0.836   6.254 -0.2086 -0.6412  0.3031
  121OSM   C18F12804   5.719  -0.986   6.283 -0.5306  0.2963  0.3106
  121OSM   H18F12805   5.675  -1.023   6.377 -2.2119  0.7691 -0.2513
  121OSM   H18G12806   5.830  -0.989   6.282 -0.5386 -0.8853 -1.4938
  121OSM   H18H12807   5.698  -1.040   6.188  1.1728  2.7267 -1.5958
  122OSM      N12808   5.459   3.268   7.909  0.0175 -0.6108  0.8608
  122OSM    C1512809   5.528   3.340   7.795 -0.1260  0.4304 -0.0152
  122OSM   H15A12810   5.490   3.312   7.698  1.9659  0.5293 -0.9156
  122OSM   H15B12811   5.635   3.330   7.800 -0.0184  1.1502 -0.6924
  122OSM   H15C12812   5.495   3.443   7.793  0.2474  0.5836  0.9912
  122OSM    C1412813   5.472   3.351   8.027  0.5642 -0.0147 -0.2755
  122OSM   H14A12814   5.575   3.356   8.059  0.5643 -2.0764  0.1935
  122OSM   H14B12815   5.413   3.315   8.110  3.8505 -0.0080  2.2630
  122OSM   H14C12816   5.449   3.453   8.000 -1.9279 -0.7671 -1.3273
  122OSM    C1312817   5.309   3.274   7.884  0.6872  0.3764 -0.1045
  122OSM   H13A12818   5.275   3.232   7.790 -2.1498 -0.5803  1.2304
  122OSM   H13B12819   5.270   3.375   7.879 -0.2821  0.1558  1.9507
  122OSM   H13C12820   5.258   3.209   7.954  2.5018  0.1355  1.0641
  122OSM    C1212821   5.517   3.136   7.935 -0.2804 -0.2099 -0.6515
  122OSM   H12A12822   5.463   3.104   8.023  0.5077 -1.1755 -0.4919
  122OSM   H12B12823   5.625   3.141   7.945 -0.2219 -1.9379 -0.0630
  122OSM    C1112824   5.496   3.025   7.831 -0.3593 -1.1526  0.0203
  122OSM   H11A12825   5.554   2.939   7.870  1.8006  0.5843  0.8334
  122OSM   H11B12826   5.535   3.055   7.731 -0.1524  0.9145  0.6717
  122OSM      P12827   5.270   2.937   7.934  0.0501 -0.1591  0.1482
  122OSM    O1312828   5.346   2.903   8.050  0.0491  0.1392 -0.0128
  122OSM    O1412829   5.165   3.034   7.963 -0.9358 -0.5663  0.2363
  122OSM    O1112830   5.212   2.804   7.863  0.0269 -0.3062 -0.3496
  122OSM    O1212831   5.362   2.995   7.818  0.2435 -0.4518 -0.7086
  122OSM    C1S12832   5.116   2.816   7.760 -0.6258 -0.4436  0.1811
  122OSM    H1S12833   5.053   2.907   7.769  1.7905  1.4475 -0.9264
  122OSM    H1T12834   5.045   2.731   7.772  0.7603 -1.8058 -0.8974
  122OSM     NF12835   5.101   2.832   7.511 -0.7680  0.0221 -0.3532
  122OSM    HNF12836   5.050   2.765   7.457  0.6512 -0.7749 -0.7716
  122OSM    C2S12837   5.191   2.803   7.623 -0.3198 -0.0522 -0.2364
  122OSM    H2S12838   5.266   2.886   7.619 -1.8509  1.3759 -0.4530
  122OSM    C3S12839   5.263   2.665   7.604  0.1637  0.2549 -0.7930
  122OSM    H3S12840   5.185   2.588   7.586  0.3536 -0.2735  0.5775
  122OSM     O312841   5.334   2.620   7.719  0.0904 -0.5648 -0.5081
  122OSM    HO312842   5.319   2.681   7.791  1.4150 -1.5551  0.6669
  122OSM    C4S12843   5.349   2.659   7.483 -0.0121  0.3413 -0.4801
  122OSM    H4S12844   5.406   2.753   7.480 -0.4350  0.8643  3.3452
  122OSM    C5S12845   5.349   2.565   7.383  0.6735 -0.3501 -0.2652
  122OSM    H5S12846   5.274   2.487   7.363  0.9930 -0.5554 -0.6976
  122OSM    C6S12847   5.422   2.578   7.258  0.2390 -0.2780 -0.3235
  122OSM    H6S12848   5.503   2.503   7.246  0.2894 -0.6014  1.6765
  122OSM    H6T12849   5.477   2.674   7.259 -0.2604  0.0291  1.2807
  122OSM    C7S12850   5.328   2.592   7.135  0.7824 -0.3568 -0.0206
  122OSM    H7S12851   5.249   2.514   7.140  0.6431 -0.1926  0.3803
  122OSM    H7T12852   5.382   2.567   7.042  0.4660 -1.1362 -0.0053
  122OSM    C8S12853   5.268   2.733   7.103  0.3628  0.0202 -0.1416
  122OSM    H8S12854   5.355   2.800   7.081  0.1435  0.0960 -0.7949
  122OSM    H8T12855   5.219   2.773   7.194  0.3629 -1.0300  0.3319
  122OSM    C9S12856   5.153   2.733   7.003  0.4826  0.2175 -0.3804
  122OSM    H9S12857   5.077   2.812   7.021  0.1907 -0.3306  0.8452
  122OSM    H9T12858   5.098   2.637   7.014  0.6756 -0.1429 -2.2890
  122OSM   C10S12859   5.206   2.758   6.862  0.0050  0.8364 -0.1532
  122OSM   H10S12860   5.210   2.655   6.821 -1.2882  0.8715 -0.3837
  122OSM   H10T12861   5.313   2.787   6.868 -0.1205  1.0781  1.3909
  122OSM   C11S12862   5.132   2.868   6.789 -0.2223  0.1535 -0.5762
  122OSM   H11S12863   5.121   2.956   6.856  1.6087 -0.6514  0.8616
  122OSM   H11T12864   5.027   2.839   6.769 -0.6463  2.5282 -2.2300
  122OSM   C12S12865   5.191   2.893   6.652 -0.6053  0.0742  0.2470
  122OSM   H12S12866   5.174   2.822   6.568  0.3922  1.1424 -0.8996
  122OSM   H12T12867   5.299   2.892   6.678 -1.1056  2.0539  2.7699
  122OSM   C13S12868   5.143   3.023   6.604  0.3229  0.2135  0.0687
  122OSM   H13S12869   5.142   3.092   6.691 -0.5753 -0.1573  0.3627
  122OSM   H13T12870   5.040   3.023   6.563  0.9254 -2.3675 -1.7440
  122OSM   C14S12871   5.237   3.087   6.500 -0.1046 -0.6033 -0.3907
  122OSM   H14S12872   5.343   3.055   6.514 -0.0044  0.0476  0.3993
  122OSM   H14T12873   5.232   3.198   6.506 -1.2783 -0.7248  1.3552
  122OSM   C15S12874   5.180   3.033   6.371 -0.1435  0.0184  0.3473
  122OSM   H15S12875   5.078   3.071   6.349  0.2997  0.9656 -0.1341
  122OSM   H15T12876   5.187   2.923   6.355  1.6809  0.3596 -1.7571
  122OSM   C16S12877   5.259   3.088   6.242  0.6572 -0.2472 -0.2196
  122OSM   H16S12878   5.364   3.055   6.253  1.0486  1.2190  0.7570
  122OSM   H16T12879   5.261   3.199   6.244 -0.7794 -0.1701  2.8452
  122OSM   C17S12880   5.205   3.040   6.113  0.0431  0.2466  0.1979
  122OSM   H17S12881   5.097   3.061   6.100 -0.7809 -4.0461 -1.4636
  122OSM   H17T12882   5.207   2.929   6.115  0.8611  0.2655  1.5624
  122OSM   C18S12883   5.286   3.075   5.989  0.0030 -0.4661  0.2210
  122OSM   H18S12884   5.269   3.177   5.948  1.1764  0.3522  1.7037
  122OSM   H18T12885   5.252   3.010   5.905  0.8925  0.6377 -1.0460
  122OSM   H18U12886   5.396   3.073   6.007  0.1833  1.1609 -0.5555
  122OSM    C1F12887   5.065   2.958   7.492 -0.0843  0.2627 -0.5862
  122OSM     OF12888   5.106   3.049   7.562 -0.7720 -0.1082 -0.2887
  122OSM    C2F12889   4.982   2.991   7.374 -0.1810  0.6792  0.3616
  122OSM    H2F12890   4.874   2.969   7.392 -0.1685  0.8554  0.6565
  122OSM    H2G12891   5.024   2.935   7.288 -0.6229  0.1676  0.4786
  122OSM    C3F12892   4.987   3.139   7.341 -0.2650 -0.2339 -0.5959
  122OSM    H3F12893   5.097   3.157   7.345 -0.1983 -0.6389 -0.5548
  122OSM    H3G12894   4.943   3.203   7.421 -0.2489  3.0658 -2.9980
  122OSM    C4F12895   4.937   3.169   7.196  0.9350 -0.2587 -0.6334
  122OSM    H4F12896   4.829   3.192   7.199  0.7144 -1.3052 -0.0388
  122OSM    H4G12897   4.946   3.079   7.132 -2.1573 -1.8541  0.9332
  122OSM    C5F12898   5.002   3.296   7.125  0.2643 -0.0785  0.6691
  122OSM    H5F12899   5.113   3.296   7.130  0.2515  2.2273  2.5916
  122OSM    H5G12900   4.972   3.393   7.170  2.0148  1.9085 -2.0989
  122OSM    C6F12901   4.978   3.303   6.971  0.1613  0.0277 -0.3183
  122OSM    H6F12902   4.868   3.317   6.963  0.0839  0.5112  1.2538
  122OSM    H6G12903   5.003   3.207   6.922 -2.8701 -1.2523  0.3671
  122OSM    C7F12904   5.053   3.409   6.901 -0.1914  0.1229 -0.6025
  122OSM    H7F12905   5.157   3.402   6.940  0.6145 -3.7364 -2.9466
  122OSM    H7G12906   5.003   3.502   6.937  0.4665 -0.0800  0.9341
  122OSM    C8F12907   5.033   3.398   6.746  0.6515  0.3849 -0.6377
  122OSM    H8F12908   4.926   3.405   6.720  0.5717  1.7367 -0.0371
  122OSM    H8G12909   5.069   3.298   6.713  1.8769  0.0905  1.4143
  122OSM    C9F12910   5.118   3.507   6.688 -0.5157 -0.6981 -0.3372
  122OSM    H9F12911   5.225   3.504   6.710 -0.0056  0.1350 -2.4587
  122OSM   C10F12912   5.070   3.590   6.596 -0.6057 -0.1265  0.1062
  122OSM   H10F12913   5.136   3.668   6.555  2.2785 -1.7795  1.3304
  122OSM   C11F12914   4.928   3.597   6.543 -0.1984 -0.3016 -0.1595
  122OSM   H11F12915   4.889   3.701   6.536  1.5468  0.6180  2.3761
  122OSM   H11G12916   4.849   3.550   6.606 -3.4060  1.2657 -2.6580
  122OSM   C12F12917   4.919   3.521   6.413  0.2873 -0.2975 -0.0654
  122OSM   H12F12918   4.814   3.520   6.377 -0.0250 -2.1670  0.7392
  122OSM   H12G12919   4.949   3.415   6.429 -0.2135 -0.4477 -0.0914
  122OSM   C13F12920   4.996   3.580   6.292  0.3615  0.6989  0.0021
  122OSM   H13F12921   5.102   3.592   6.323  0.3580  0.2662  0.1901
  122OSM   H13G12922   4.960   3.683   6.274 -0.3658  0.2865 -0.9454
  122OSM   C14F12923   4.971   3.502   6.159 -0.2520 -0.2199  0.6587
  122OSM   H14F12924   4.863   3.492   6.138 -0.0074 -1.9269  0.0268
  122OSM   H14G12925   5.011   3.398   6.168 -1.4865 -0.5917  2.1970
  122OSM   C15F12926   5.026   3.568   6.028 -0.0807  0.0348 -0.0976
  122OSM   H15F12927   4.956   3.650   6.000 -0.0047 -0.6820 -2.6557
  122OSM   H15G12928   5.018   3.487   5.952 -0.0801 -2.2402  2.2044
  122OSM   C16F12929   5.172   3.627   6.037  0.2813  0.7369  0.1531
  122OSM   H16F12930   5.188   3.692   6.126  0.0834  1.9146 -0.6526
  122OSM   H16G12931   5.181   3.688   5.945  1.1029 -1.4953 -1.3267
  122OSM   C17F12932   5.281   3.519   6.046 -0.5918  0.1795  0.3181
  122OSM   H17F12933   5.258   3.444   5.968  1.1015 -1.3831  1.2258
  122OSM   H17G12934   5.276   3.457   6.138  0.3774 -1.9839 -1.0006
  122OSM   C18F12935   5.430   3.564   6.026  0.1117 -0.1278  0.1304
  122OSM   H18F12936   5.495   3.474   6.037 -0.3652 -0.3082  1.8639
  122OSM   H18G12937   5.461   3.636   6.105 -2.0135  1.2116 -0.1917
  122OSM   H18H12938   5.451   3.620   5.933  0.4914 -3.5920 -2.0316
  123OSM      N12939   4.296   0.573   2.872  0.3640 -0.5411  0.0645
  123OSM    C1512940   4.284   0.635   2.738 -0.4094 -0.2833 -0.1519
  123OSM   H15A12941   4.348   0.578   2.672  1.7421  0.5486  1.1136
  123OSM   H15B12942   4.322   0.735   2.753 -2.6134  0.4808  0.7465
  123OSM   H15C12943   4.186   0.635   2.692 -0.1831 -0.7473 -0.6531
  123OSM    C1412944   4.221   0.449   2.879  0.1636  0.4380  0.1119
  123OSM   H14A12945   4.239   0.388   2.966  0.8210 -0.9725 -0.9723
  123OSM   H14B12946   4.245   0.390   2.792  0.2542  2.2201 -1.1377
  123OSM   H14C12947   4.116   0.473   2.888  0.7880  3.5562  0.5091
  123OSM    C1312948   4.439   0.537   2.891 -0.2344  0.8032 -0.1775
  123OSM   H13A12949   4.504   0.620   2.868 -0.5090  1.8445  2.4648
  123OSM   H13B12950   4.461   0.468   2.811 -2.5425 -0.8865  0.5215
  123OSM   H13C12951   4.465   0.491   2.984 -0.6623  0.9737  0.0318
  123OSM    C1212952   4.245   0.669   2.978  0.6682  0.4614 -0.5516
  123OSM   H12A12953   4.137   0.666   2.971  0.4242  0.8026  2.0857
  123OSM   H12B12954   4.272   0.772   2.958  0.2327  0.4918 -1.0141
  123OSM    C1112955   4.267   0.642   3.129  0.0681 -0.0937 -0.4731
  123OSM   H11A12956   4.230   0.725   3.192  0.1191  0.8365 -1.6243
  123OSM   H11B12957   4.376   0.624   3.140  0.5321  0.9284 -2.8275
  123OSM      P12958   4.257   0.409   3.260 -0.1491 -0.5457  0.4359
  123OSM    O1312959   4.153   0.302   3.281  0.3011 -0.7801 -0.3849
  123OSM    O1412960   4.388   0.366   3.190  0.4402 -0.9900 -0.5692
  123OSM    O1112961   4.287   0.476   3.392 -0.7914 -0.2255 -0.7054
  123OSM    O1212962   4.184   0.531   3.168 -0.9636 -0.1825 -0.5355
  123OSM    C1S12963   4.402   0.552   3.437 -0.4028  0.5397  0.3943
  123OSM    H1S12964   4.423   0.638   3.371 -0.5015  1.4891  1.5558
  123OSM    H1T12965   4.491   0.486   3.436 -2.1677 -1.9749  0.1134
  123OSM     NF12966   4.483   0.702   3.613  1.0753 -0.3754 -0.8465
  123OSM    HNF12967   4.557   0.671   3.673  1.6865 -0.2159 -1.4965
  123OSM    C2S12968   4.381   0.608   3.582  0.4748  0.3101 -0.5738
  123OSM    H2S12969   4.283   0.659   3.590  0.0726 -0.5698  0.4580
  123OSM    C3S12970   4.376   0.485   3.679 -0.1745 -0.5155  0.1888
  123OSM    H3S12971   4.471   0.427   3.669 -0.1805 -0.6316  0.7583
  123OSM     O312972   4.266   0.398   3.652  0.0830  0.2874  0.2692
  123OSM    HO312973   4.256   0.398   3.556  2.6980 -0.0839 -0.0945
  123OSM    C4S12974   4.353   0.547   3.814  0.4785  0.6116 -0.0809
  123OSM    H4S12975   4.261   0.608   3.824 -0.3511 -0.4110 -1.2309
  123OSM    C5S12976   4.422   0.521   3.923 -0.4813 -0.2826 -0.1698
  123OSM    H5S12977   4.508   0.454   3.910 -0.3884 -0.1301 -0.3479
  123OSM    C6S12978   4.410   0.570   4.062  0.2019  0.9761  0.1920
  123OSM    H6S12979   4.396   0.680   4.075  1.4411  1.2366 -0.4383
  123OSM    H6T12980   4.503   0.555   4.122 -0.0128  0.7001  0.4571
  123OSM    C7S12981   4.288   0.495   4.119 -0.0050 -0.2160  0.3396
  123OSM    H7S12982   4.296   0.385   4.113 -1.3104 -0.3649  0.9607
  123OSM    H7T12983   4.197   0.518   4.060  0.2319 -0.2759 -0.0558
  123OSM    C8S12984   4.266   0.544   4.262 -0.0779  0.0940 -0.0403
  123OSM    H8S12985   4.177   0.490   4.300 -0.5227  2.1783  2.0826
  123OSM    H8T12986   4.229   0.648   4.253 -1.0673 -0.2193  0.2338
  123OSM    C9S12987   4.381   0.531   4.368  0.2341  0.5649  0.3597
  123OSM    H9S12988   4.470   0.584   4.329  1.1036 -0.9939  0.1296
  123OSM    H9T12989   4.400   0.423   4.391  0.6035  0.7280  0.8393
  123OSM   C10S12990   4.351   0.576   4.507 -0.0148  0.1396 -0.7223
  123OSM   H10S12991   4.256   0.525   4.532 -0.4599  0.4283 -1.7507
  123OSM   H10T12992   4.322   0.683   4.497  1.8039  0.7677  0.4147
  123OSM   C11S12993   4.449   0.537   4.618  0.4586 -0.7627  0.0628
  123OSM   H11S12994   4.552   0.568   4.592  0.1531  0.1346 -0.1195
  123OSM   H11T12995   4.445   0.426   4.630 -0.2364 -0.6584  0.8929
  123OSM   C12S12996   4.393   0.591   4.752  0.2092 -0.3386 -0.3620
  123OSM   H12S12997   4.290   0.548   4.761 -0.6373  1.4138 -1.1067
  123OSM   H12T12998   4.379   0.701   4.752 -0.4380 -0.4177 -0.9014
  123OSM   C13S12999   4.492   0.554   4.869 -0.5345  0.4606  0.1999
  123OSM   H13S13000   4.597   0.576   4.840  0.5305 -1.8164  2.0272
  123OSM   H13T13001   4.495   0.445   4.891  0.0448  0.7310  1.5781
  123OSM   C14S13002   4.472   0.621   5.008 -1.1186 -0.0814  0.5480
  123OSM   H14S13003   4.374   0.599   5.057  0.2947 -0.2013  3.4836
  123OSM   H14T13004   4.487   0.731   5.007  1.0904 -0.3480  0.9132
  123OSM   C15S13005   4.569   0.564   5.111 -0.4613 -0.3489  0.3606
  123OSM   H15S13006   4.673   0.591   5.083 -0.9315 -0.3613 -1.5577
  123OSM   H15T13007   4.557   0.454   5.099  1.1248 -0.5121  0.0683
  123OSM   C16S13008   4.538   0.602   5.252 -0.7396  0.5282  0.0933
  123OSM   H16S13009   4.431   0.585   5.280 -1.1629  2.6905  0.0275
  123OSM   H16T13010   4.551   0.712   5.267 -0.0346  0.3555  0.8078
  123OSM   C17S13011   4.637   0.523   5.348  0.9735 -0.2149 -0.2810
  123OSM   H17S13012   4.730   0.502   5.291  1.0873 -1.5622  0.3529
  123OSM   H17T13013   4.609   0.419   5.374  1.8133 -0.0576  1.3480
  123OSM   C18S13014   4.651   0.604   5.474  0.6406  0.3966 -0.3324
  123OSM   H18S13015   4.740   0.557   5.520  0.1178 -0.6984 -0.4016
  123OSM   H18T13016   4.568   0.606   5.548 -2.3598  4.0406 -3.3659
  123OSM   H18U13017   4.676   0.711   5.457 -1.3815  0.7399 -1.5621
  123OSM    C1F13018   4.485   0.830   3.577  0.4314 -0.4537  0.4178
  123OSM     OF13019   4.402   0.879   3.500 -0.0181  0.2740 -0.1683
  123OSM    C2F13020   4.595   0.914   3.624  0.0150  0.0760  0.3479
  123OSM    H2F13021   4.670   0.915   3.543  0.3291 -0.9684  0.6133
  123OSM    H2G13022   4.632   0.865   3.716 -2.2183 -0.7573  0.8756
  123OSM    C3F13023   4.564   1.061   3.659 -0.0391 -0.1246  0.7498
  123OSM    H3F13024   4.510   1.113   3.576  0.0248 -0.5518  0.4387
  123OSM    H3G13025   4.656   1.123   3.666  0.3013 -0.4978 -0.2024
  123OSM    C4F13026   4.462   1.074   3.774 -0.0897 -0.2581  0.0648
  123OSM    H4F13027   4.369   1.018   3.750 -0.5180 -0.2245  1.5519
  123OSM    H4G13028   4.438   1.182   3.787 -0.3084 -0.3831  0.7802
  123OSM    C5F13029   4.498   1.040   3.919  0.0429  0.5079  0.3195
  123OSM    H5F13030   4.587   1.098   3.951 -0.9682  0.6155  3.2072
  123OSM    H5G13031   4.538   0.937   3.933 -2.6710 -0.4446  1.8118
  123OSM    C6F13032   4.378   1.072   4.007  0.3366  0.3070 -0.1829
  123OSM    H6F13033   4.294   1.005   3.975  1.9659 -1.0405 -1.8468
  123OSM    H6G13034   4.340   1.176   4.000 -2.1099 -0.5074 -0.1303
  123OSM    C7F13035   4.422   1.043   4.149 -0.4709 -0.2772  0.3156
  123OSM    H7F13036   4.481   1.133   4.175  0.0105 -0.5716  0.2548
  123OSM    H7G13037   4.491   0.956   4.144 -0.3271 -0.2127  1.0980
  123OSM    C8F13038   4.301   1.006   4.233 -0.5909 -0.5269  0.9681
  123OSM    H8F13039   4.297   0.895   4.239  0.0015 -0.5571  0.8828
  123OSM    H8G13040   4.212   1.020   4.168  1.2721 -0.9029 -1.8081
  123OSM    C9F13041   4.288   1.065   4.368 -0.0236  0.8130  0.8823
  123OSM    H9F13042   4.187   1.108   4.381 -0.7715 -0.0380 -1.6298
  123OSM   C10F13043   4.376   1.070   4.471  0.3489  0.6748  0.5950
  123OSM   H10F13044   4.355   1.115   4.570  0.1630  2.0917 -0.0555
  123OSM   C11F13045   4.503   0.985   4.472 -0.2306 -0.1306 -0.1555
  123OSM   H11F13046   4.590   1.047   4.501 -0.8243 -0.8726  3.7978
  123OSM   H11G13047   4.513   0.926   4.378 -1.7814  2.5926 -2.1964
  123OSM   C12F13048   4.492   0.877   4.586  0.2336 -0.5606 -0.0107
  123OSM   H12F13049   4.558   0.797   4.546  2.5205  0.3991  1.6389
  123OSM   H12G13050   4.387   0.848   4.606  0.1619 -0.3449 -0.0729
  123OSM   C13F13051   4.555   0.925   4.721  0.4386  0.2647 -0.3756
  123OSM   H13F13052   4.648   0.979   4.694 -0.0533  0.8402 -0.9309
  123OSM   H13G13053   4.572   0.835   4.784  1.9706 -0.8316 -2.2047
  123OSM   C14F13054   4.467   1.006   4.817 -1.0258  0.3054  0.5885
  123OSM   H14F13055   4.380   0.959   4.867 -0.7728  0.8014  1.5138
  123OSM   H14G13056   4.439   1.091   4.752  1.7059  0.4782 -0.4881
  123OSM   C15F13057   4.552   1.079   4.915 -0.2664  0.4181 -0.6143
  123OSM   H15F13058   4.489   1.159   4.959  0.3797  1.4095 -1.4334
  123OSM   H15G13059   4.643   1.121   4.867 -0.8289  0.6453 -1.5050
  123OSM   C16F13060   4.594   0.984   5.027 -0.1956  0.0485  0.0068
  123OSM   H16F13061   4.665   0.905   4.996 -0.2595 -0.9455  2.2492
  123OSM   H16G13062   4.505   0.930   5.066  1.3678 -0.7963  2.6146
  123OSM   C17F13063   4.646   1.067   5.151 -0.5207 -0.3787 -0.2685
  123OSM   H17F13064   4.563   1.119   5.204 -0.4174 -1.5398  1.1165
  123OSM   H17G13065   4.722   1.141   5.119  1.5727 -1.2303  2.3163
  123OSM   C18F13066   4.726   0.985   5.250 -0.0500  0.6064 -0.5227
  123OSM   H18F13067   4.656   0.906   5.285  1.8103 -0.4605  0.9649
  123OSM   H18G13068   4.766   1.048   5.332  0.7351 -0.8538  0.2434
  123OSM   H18H13069   4.812   0.935   5.202  1.4046  0.3980  2.1281
  124OSM      N13070   0.974   4.014   3.338  0.5758 -0.8284 -0.6737
  124OSM    C1513071   1.025   4.025   3.199 -0.1206 -0.6211 -0.2738
  124OSM   H15A13072   1.052   3.933   3.148 -0.7201 -0.9324 -0.0361
  124OSM   H15B13073   1.110   4.092   3.198 -0.4270 -0.2272 -0.2101
  124OSM   H15C13074   0.945   4.058   3.134  0.6832  0.0868 -0.9369
  124OSM    C1413075   0.858   3.922   3.348 -0.2712 -0.2066  0.3586
  124OSM   H14A13076   0.764   3.973   3.339  0.8810  1.7366 -1.9119
  124OSM   H14B13077   0.860   3.876   3.446  0.4092 -1.2339 -0.1136
  124OSM   H14C13078   0.868   3.850   3.269 -0.5589  0.3712 -0.2077
  124OSM    C1313079   1.085   3.952   3.422  0.0799  0.6643 -0.0955
  124OSM   H13A13080   1.109   3.852   3.389  2.3737  0.6595  1.4011
  124OSM   H13B13081   1.064   3.943   3.527  1.6263 -2.9916  0.0567
  124OSM   H13C13082   1.177   4.008   3.419 -0.0432  0.9716  1.3035
  124OSM    C1213083   0.942   4.155   3.393  0.0994  0.0051  0.1530
  124OSM   H12A13084   1.029   4.218   3.376  0.0584 -0.4615 -2.0628
  124OSM   H12B13085   0.928   4.149   3.500 -1.5784  0.6211 -0.0108
  124OSM    C1113086   0.815   4.216   3.333  0.3168 -0.1887  0.4016
  124OSM   H11A13087   0.833   4.218   3.224  0.2673  2.4410  0.3784
  124OSM   H11B13088   0.807   4.325   3.352  1.5694  0.0997 -0.5982
  124OSM      P13089   0.595   4.193   3.477 -0.0536 -0.1588  0.1401
  124OSM    O1313090   0.517   4.304   3.420 -0.7105 -0.0206 -0.0737
  124OSM    O1413091   0.518   4.069   3.523 -0.1854  0.1949  0.1377
  124OSM    O1113092   0.685   4.248   3.595 -0.3270 -0.2988  0.0849
  124OSM    O1213093   0.698   4.144   3.369 -0.1444 -0.3614  0.4531
  124OSM    C1S13094   0.674   4.379   3.649 -0.3946  0.1940  0.3264
  124OSM    H1S13095   0.573   4.423   3.635  0.9720  3.3252 -0.4698
  124OSM    H1T13096   0.730   4.454   3.591 -1.4647  0.7044 -0.0724
  124OSM     NF13097   0.674   4.521   3.849  0.3552  0.1866  0.7793
  124OSM    HNF13098   0.735   4.597   3.826 -1.3734  2.4479  3.1100
  124OSM    C2S13099   0.709   4.395   3.802 -0.4238 -0.0216  0.5420
  124OSM    H2S13100   0.642   4.321   3.851 -1.4448  0.7129  0.2851
  124OSM    C3S13101   0.865   4.352   3.807  0.8031 -0.5545 -0.2801
  124OSM    H3S13102   0.914   4.434   3.749  1.9473 -1.6509 -0.9126
  124OSM     O313103   0.905   4.229   3.749 -0.1833  0.8504 -0.1598
  124OSM    HO313104   0.829   4.197   3.700 -0.1419 -0.5174  0.6123
  124OSM    C4S13105   0.908   4.368   3.954 -0.5631  0.4209 -0.4266
  124OSM    H4S13106   0.847   4.325   4.034  0.6506 -0.3267  0.1231
  124OSM    C5S13107   0.995   4.464   3.978  0.1449  0.9137  0.0258
  124OSM    H5S13108   1.036   4.524   3.895  1.5566 -1.6298 -1.2115
  124OSM    C6S13109   1.019   4.524   4.122  0.0115  0.2960  0.4753
  124OSM    H6S13110   0.966   4.619   4.140  0.9787  1.0192 -0.3793
  124OSM    H6T13111   1.127   4.549   4.133  0.0137  0.4871  0.0410
  124OSM    C7S13112   0.961   4.431   4.235 -0.1670  0.0409  0.6472
  124OSM    H7S13113   1.009   4.331   4.235  0.4399  0.2811  2.5220
  124OSM    H7T13114   0.851   4.417   4.242 -0.0567 -1.3818  0.0245
  124OSM    C8S13115   0.988   4.489   4.378  0.5772  0.1166 -0.5140
  124OSM    H8S13116   0.928   4.581   4.394  1.4673  0.6643 -0.2873
  124OSM    H8T13117   1.094   4.521   4.382  1.1570 -1.5836 -1.0311
  124OSM    C9S13118   0.962   4.386   4.488  0.4895 -0.5534  0.3646
  124OSM    H9S13119   1.039   4.305   4.492 -0.6970 -1.7454 -0.1330
  124OSM    H9T13120   0.872   4.328   4.461  2.1673 -3.7961  1.1702
  124OSM   C10S13121   0.952   4.451   4.629 -0.5102  0.8753 -0.0555
  124OSM   H10S13122   0.847   4.483   4.644 -0.1529  1.8366  0.4455
  124OSM   H10T13123   1.020   4.537   4.646  1.5255 -1.1364  3.5907
  124OSM   C11S13124   0.973   4.353   4.753 -0.4436  0.3393  0.1328
  124OSM   H11S13125   1.078   4.320   4.770 -0.6579 -0.0267  0.7576
  124OSM   H11T13126   0.917   4.261   4.727 -0.5533 -0.8549  3.9774
  124OSM   C12S13127   0.901   4.407   4.879 -0.8554  0.6671  0.3869
  124OSM   H12S13128   0.793   4.414   4.855 -1.0532  0.3842  1.1430
  124OSM   H12T13129   0.944   4.507   4.900  1.6919 -0.1464 -0.6010
  124OSM   C13S13130   0.909   4.312   4.998  0.1720  0.0309 -0.2103
  124OSM   H13S13131   0.912   4.205   4.968  0.0678 -0.0849  0.1770
  124OSM   H13T13132   0.815   4.324   5.057  1.9533 -2.4776  3.5799
  124OSM   C14S13133   1.010   4.356   5.106 -0.2048  0.2687 -0.1415
  124OSM   H14S13134   0.996   4.459   5.145  1.4521 -0.1594  1.7845
  124OSM   H14T13135   1.114   4.349   5.066 -0.0351 -0.2685  0.3660
  124OSM   C15S13136   0.998   4.252   5.217 -0.6918  0.2626  0.2532
  124OSM   H15S13137   1.016   4.153   5.170  1.2180  0.5280  0.3498
  124OSM   H15T13138   0.896   4.250   5.262 -0.0969  1.3533  1.7435
  124OSM   C16S13139   1.110   4.270   5.325  0.1710  0.4614  0.7564
  124OSM   H16S13140   1.114   4.379   5.341 -2.0428  1.2832 -3.0150
  124OSM   H16T13141   1.209   4.246   5.280 -0.4920 -2.1227  0.4799
  124OSM   C17S13142   1.089   4.181   5.441  0.0387 -0.0924  0.5789
  124OSM   H17S13143   1.045   4.083   5.410 -0.6628 -0.0445  1.3965
  124OSM   H17T13144   1.016   4.221   5.514  1.6110 -0.8280  2.6581
  124OSM   C18S13145   1.227   4.158   5.500  0.0726 -0.0600  0.1559
  124OSM   H18S13146   1.267   4.257   5.533  0.6906  0.0087 -0.7596
  124OSM   H18T13147   1.291   4.115   5.420  0.9304  4.6902 -2.1134
  124OSM   H18U13148   1.220   4.081   5.579 -0.9545 -0.3877 -0.2313
  124OSM    C1F13149   0.548   4.556   3.879 -0.3197  0.3154  0.2594
  124OSM     OF13150   0.458   4.474   3.874 -0.7539 -0.3574  0.5116
  124OSM    C2F13151   0.529   4.700   3.881  0.2645 -0.5342  0.0568
  124OSM    H2F13152   0.543   4.744   3.779  0.8239 -2.5461 -0.7830
  124OSM    H2G13153   0.597   4.749   3.954 -0.2230 -0.4173  0.4349
  124OSM    C3F13154   0.385   4.741   3.914  0.1718 -1.0112 -0.1148
  124OSM    H3F13155   0.319   4.707   3.831  0.7857 -0.3661 -0.8855
  124OSM    H3G13156   0.392   4.852   3.905 -0.1636 -0.9164  0.7215
  124OSM    C4F13157   0.340   4.703   4.057 -0.3147 -0.2442 -0.4236
  124OSM    H4F13158   0.339   4.595   4.082  0.4538 -0.7342 -2.3629
  124OSM    H4G13159   0.237   4.743   4.060  1.0518  3.6768  0.9506
  124OSM    C5F13160   0.419   4.757   4.170 -0.0139  0.2700 -0.2431
  124OSM    H5F13161   0.413   4.866   4.152 -2.0111  0.6555  2.1276
  124OSM    H5G13162   0.527   4.736   4.162  0.2155  0.9449  0.8341
  124OSM    C6F13163   0.374   4.713   4.305  0.2904  0.1865 -0.0358
  124OSM    H6F13164   0.344   4.606   4.302  1.2401 -0.1016 -3.1657
  124OSM    H6G13165   0.278   4.765   4.325  0.5317  0.4735  0.3767
  124OSM    C7F13166   0.474   4.742   4.417  0.2050  0.0988 -0.0721
  124OSM    H7F13167   0.498   4.850   4.408  1.8172 -0.1205  1.1200
  124OSM    H7G13168   0.563   4.681   4.389 -0.8708 -1.4580 -0.1870
  124OSM    C8F13169   0.422   4.708   4.556 -0.5002 -0.4457 -0.3468
  124OSM    H8F13170   0.358   4.618   4.544 -0.6404 -0.3521 -0.2972
  124OSM    H8G13171   0.351   4.783   4.595 -0.7483 -1.2817  0.8585
  124OSM    C9F13172   0.529   4.688   4.658  0.4447  0.2478 -0.0570
  124OSM    H9F13173   0.552   4.768   4.730  1.3991 -0.0258 -0.0532
  124OSM   C10F13174   0.594   4.568   4.662 -0.0518 -0.5805 -0.5280
  124OSM   H10F13175   0.671   4.554   4.740 -0.0634  0.2853 -0.3494
  124OSM   C11F13176   0.576   4.451   4.572  0.5519  0.1736 -0.5549
  124OSM   H11F13177   0.675   4.404   4.561  0.6514  0.1924  0.2191
  124OSM   H11G13178   0.535   4.485   4.475 -2.3866  0.3824  0.6457
  124OSM   C12F13179   0.488   4.351   4.649  0.3895 -0.0041 -0.2187
  124OSM   H12F13180   0.477   4.279   4.566  1.9286  0.3312 -0.7415
  124OSM   H12G13181   0.386   4.384   4.681 -0.4998  0.9942 -3.6150
  124OSM   C13F13182   0.561   4.294   4.769  0.4268 -0.9819  1.3632
  124OSM   H13F13183   0.583   4.368   4.849 -2.1404  1.3849  0.0277
  124OSM   H13G13184   0.663   4.265   4.736  0.1410  1.4048 -2.0145
  124OSM   C14F13185   0.490   4.167   4.821 -0.8904  0.1463 -0.3283
  124OSM   H14F13186   0.470   4.100   4.735  0.9715 -2.2492  1.0177
  124OSM   H14G13187   0.391   4.200   4.861 -0.8947  1.7768 -1.5851
  124OSM   C15F13188   0.563   4.102   4.934 -0.2962  0.0588  0.1887
  124OSM   H15F13189   0.591   4.189   4.998 -2.7772 -0.4559  2.1579
  124OSM   H15G13190   0.651   4.053   4.889 -1.1680 -1.8267  0.4461
  124OSM   C16F13191   0.477   4.000   5.014 -0.4338 -0.3812  0.4001
  124OSM   H16F13192   0.466   3.916   4.943  0.7094  0.9618 -1.4695
  124OSM   H16G13193   0.376   4.037   5.041 -0.3204 -0.7463  1.4054
  124OSM   C17F13194   0.536   3.955   5.147 -0.0911  1.3653 -0.5840
  124OSM   H17F13195   0.514   4.044   5.210 -3.9788  0.0655  0.1325
  124OSM   H17G13196   0.646   3.937   5.141  0.1346  2.2896  0.4244
  124OSM   C18F13197   0.455   3.833   5.195  0.3024  0.8116 -0.0265
  124OSM   H18F13198   0.496   3.741   5.147  0.5205  0.6246  0.5018
  124OSM   H18G13199   0.347   3.842   5.172  0.5115  2.0206 -0.5720
  124OSM   H18H13200   0.474   3.822   5.304  1.4241  1.0374 -0.1879
  125OSM      N13201   4.277   5.779   2.806  0.1991  0.1183 -0.8654
  125OSM    C1513202   4.198   5.860   2.702 -0.1232  0.3092 -0.4616
  125OSM   H15A13203   4.129   5.793   2.653  1.3456 -1.6378 -0.0454
  125OSM   H15B13204   4.260   5.891   2.620  0.9750  1.5425  0.7743
  125OSM   H15C13205   4.149   5.950   2.736  1.6704  0.2515  2.7247
  125OSM    C1413206   4.178   5.710   2.900  0.0799  0.1825 -0.1140
  125OSM   H14A13207   4.127   5.791   2.951  1.4693  0.3374  1.1200
  125OSM   H14B13208   4.228   5.651   2.975  0.1712  1.7323  1.1205
  125OSM   H14C13209   4.107   5.652   2.843  2.4011 -1.7284 -1.1835
  125OSM    C1313210   4.355   5.679   2.737  0.3709 -0.3472  0.3674
  125OSM   H13A13211   4.426   5.730   2.675 -0.9357  2.3809  0.9319
  125OSM   H13B13212   4.288   5.620   2.676  0.3894  1.0995 -1.1109
  125OSM   H13C13213   4.403   5.612   2.807  0.0609 -0.1271  0.8032
  125OSM    C1213214   4.361   5.874   2.889 -0.4814  0.4258  0.5833
  125OSM   H12A13215   4.405   5.949   2.825  1.2779  0.2043  1.4942
  125OSM   H12B13216   4.449   5.819   2.918  0.2595  0.0602 -2.0914
  125OSM    C1113217   4.295   5.937   3.015 -0.0721  0.5185  0.6899
  125OSM   H11A13218   4.368   6.001   3.069  1.1198  1.5620 -1.9986
  125OSM   H11B13219   4.281   5.855   3.088  0.2505 -1.0145 -0.9109
  125OSM      P13220   4.074   6.035   3.091  0.2216 -0.3303 -0.3236
  125OSM    O1313221   4.008   6.168   3.062  0.1724  0.0844  1.5034
  125OSM    O1413222   3.987   5.916   3.106 -0.2082  0.0529 -0.4253
  125OSM    O1113223   4.160   6.042   3.229 -0.2109  0.0127 -0.0554
  125OSM    O1213224   4.175   6.009   2.977  0.0114  0.5817 -0.4215
  125OSM    C1S13225   4.089   6.062   3.346  0.0273 -0.3775 -0.2555
  125OSM    H1S13226   3.997   6.002   3.358 -1.1142  1.2761 -0.3270
  125OSM    H1T13227   4.060   6.169   3.355  0.6562 -0.0285 -1.9083
  125OSM     NF13228   4.084   6.070   3.594 -0.2824  0.7214 -0.6436
  125OSM    HNF13229   4.088   6.166   3.623  0.7194  0.9064 -1.3700
  125OSM    C2S13230   4.169   6.042   3.479 -0.5691  0.7859  0.4977
  125OSM    H2S13231   4.210   5.939   3.485 -0.3561  0.7664 -0.9027
  125OSM    C3S13232   4.285   6.142   3.479 -0.2073  0.2478  0.1527
  125OSM    H3S13233   4.234   6.241   3.472 -1.2836 -0.3930 -1.7716
  125OSM     O313234   4.356   6.157   3.357 -0.2502  0.1139  0.1234
  125OSM    HO313235   4.304   6.109   3.291  0.6371  0.9626 -1.2272
  125OSM    C4S13236   4.375   6.154   3.601  0.7807  0.1607 -0.5237
  125OSM    H4S13237   4.324   6.181   3.694  0.6385  0.0051 -0.5548
  125OSM    C5S13238   4.507   6.118   3.601 -0.4112 -0.3275  0.6427
  125OSM    H5S13239   4.548   6.070   3.511 -0.1890  0.9127  0.0576
  125OSM    C6S13240   4.606   6.125   3.714 -0.3848 -0.4309  0.6052
  125OSM    H6S13241   4.663   6.220   3.714  0.1131 -0.7134  1.3945
  125OSM    H6T13242   4.684   6.049   3.694 -0.4079  0.3146 -3.0715
  125OSM    C7S13243   4.545   6.098   3.849  0.2395  0.1731  0.1117
  125OSM    H7S13244   4.504   5.995   3.846 -0.1359  0.3383 -1.1683
  125OSM    H7T13245   4.452   6.155   3.870 -0.3210 -0.8205  0.3467
  125OSM    C8S13246   4.646   6.124   3.957  0.9382 -0.1533 -0.0202
  125OSM    H8S13247   4.685   6.227   3.943 -1.9706  0.8983 -1.2315
  125OSM    H8T13248   4.727   6.048   3.958  0.0157 -1.1939 -1.4171
  125OSM    C9S13249   4.590   6.126   4.095  0.0556 -0.1756 -0.1409
  125OSM    H9S13250   4.577   6.017   4.110 -0.6359 -0.6507 -3.4211
  125OSM    H9T13251   4.491   6.178   4.095  0.1786  0.0737 -1.0986
  125OSM   C10S13252   4.694   6.167   4.208  0.0612  0.8020 -0.1752
  125OSM   H10S13253   4.732   6.271   4.200  1.3752  0.3509 -0.0512
  125OSM   H10T13254   4.782   6.100   4.200  0.2658  0.5839  2.8239
  125OSM   C11S13255   4.621   6.153   4.344  0.2663 -0.2900  0.1641
  125OSM   H11S13256   4.597   6.045   4.345  0.3153 -0.3025  0.7446
  125OSM   H11T13257   4.524   6.208   4.351 -0.5892 -1.7037 -0.3222
  125OSM   C12S13258   4.711   6.189   4.466 -0.7388 -0.0129  0.1862
  125OSM   H12S13259   4.742   6.296   4.461 -0.4075 -0.1510 -1.5619
  125OSM   H12T13260   4.803   6.128   4.459  1.2486  2.8123 -0.4996
  125OSM   C13S13261   4.639   6.174   4.595  0.2747  0.0287  0.3854
  125OSM   H13S13262   4.591   6.074   4.601  0.9470 -0.2441  1.3657
  125OSM   H13T13263   4.565   6.257   4.594  1.1131  0.7913 -0.3204
  125OSM   C14S13264   4.730   6.176   4.719 -0.0293  0.9730  0.4124
  125OSM   H14S13265   4.758   6.283   4.729 -2.6360  1.7489  0.1413
  125OSM   H14T13266   4.822   6.116   4.702 -0.5180  0.1443  0.6514
  125OSM   C15S13267   4.661   6.153   4.850 -0.3655 -0.0748 -0.7603
  125OSM   H15S13268   4.646   6.044   4.866  2.7549 -0.8042 -2.0268
  125OSM   H15T13269   4.557   6.192   4.846 -0.6166 -0.7418 -0.9657
  125OSM   C16S13270   4.741   6.214   4.959 -0.4734  0.0071 -0.1784
  125OSM   H16S13271   4.775   6.320   4.955 -2.4715  0.7317  0.4906
  125OSM   H16T13272   4.834   6.158   4.981 -1.6550 -1.2859  1.9068
  125OSM   C17S13273   4.681   6.205   5.104 -0.0006  0.3695 -0.2607
  125OSM   H17S13274   4.626   6.108   5.105  1.2878 -0.4435 -1.9849
  125OSM   H17T13275   4.605   6.286   5.107 -0.0622  0.2840  0.6992
  125OSM   C18S13276   4.774   6.210   5.222  0.5189  0.1043 -0.2580
  125OSM   H18S13277   4.875   6.179   5.187  0.6129  2.5763 -2.4514
  125OSM   H18T13278   4.741   6.143   5.305 -2.6788  1.0204 -0.6611
  125OSM   H18U13279   4.792   6.313   5.258  1.7276 -0.3461  0.5137
  125OSM    C1F13280   4.001   5.976   3.635 -0.0532  0.1753 -0.1560
  125OSM     OF13281   4.006   5.856   3.600 -0.4736 -0.0714  0.0563
  125OSM    C2F13282   3.893   6.015   3.736  0.0323  0.2617 -0.0543
  125OSM    H2F13283   3.809   6.074   3.693 -0.4635 -1.1448 -1.1003
  125OSM    H2G13284   3.941   6.068   3.821 -0.7503 -0.6300  0.9777
  125OSM    C3F13285   3.822   5.887   3.785  0.4583 -0.0238  0.2443
  125OSM    H3F13286   3.894   5.808   3.815 -1.6989 -1.5633  1.5623
  125OSM    H3G13287   3.766   5.855   3.694  0.2607 -0.7732  0.6232
  125OSM    C4F13288   3.717   5.908   3.893 -0.2098  0.6821  0.3215
  125OSM    H4F13289   3.667   5.810   3.905  0.7378  0.1591  0.1008
  125OSM    H4G13290   3.635   5.980   3.871 -0.8626 -0.2738 -0.4310
  125OSM    C5F13291   3.765   5.929   4.036 -0.1209  0.2831  0.4745
  125OSM    H5F13292   3.811   6.028   4.058  1.0963 -0.6264  2.2219
  125OSM    H5G13293   3.850   5.862   4.060 -0.9109 -2.2971 -3.1347
  125OSM    C6F13294   3.653   5.915   4.143 -0.2949  0.9111 -0.2454
  125OSM    H6F13295   3.587   5.833   4.107  1.2611  0.0809 -1.3111
  125OSM    H6G13296   3.586   6.002   4.160 -0.3833  0.6151  1.0079
  125OSM    C7F13297   3.725   5.898   4.282  0.7746  0.0744 -0.8040
  125OSM    H7F13298   3.795   5.984   4.293  0.3688  0.2447  0.6149
  125OSM    H7G13299   3.790   5.808   4.291 -1.7549 -1.7404  0.8051
  125OSM    C8F13300   3.624   5.908   4.388 -0.0115  0.7000 -0.3560
  125OSM    H8F13301   3.540   5.838   4.368  1.7427 -2.2824  1.8743
  125OSM    H8G13302   3.584   6.012   4.393 -1.6787  0.0595  0.1367
  125OSM    C9F13303   3.699   5.861   4.513 -0.0141 -0.2647 -0.1184
  125OSM    H9F13304   3.804   5.894   4.517 -0.4688  1.4565 -1.3799
  125OSM   C10F13305   3.656   5.795   4.620 -0.3142  0.1515 -0.2957
  125OSM   H10F13306   3.726   5.764   4.700  1.0705 -0.1186 -1.5680
  125OSM   C11F13307   3.525   5.727   4.635  0.6306 -0.2314 -0.3240
  125OSM   H11F13308   3.539   5.634   4.694  1.5483 -0.6366 -1.1496
  125OSM   H11G13309   3.488   5.700   4.534 -1.1572 -1.4347  0.5969
  125OSM   C12F13310   3.424   5.818   4.715 -0.1475  0.3412 -0.3440
  125OSM   H12F13311   3.425   5.911   4.654  0.8885 -0.1298 -1.0775
  125OSM   H12G13312   3.472   5.852   4.810 -0.4762  0.9539 -0.3900
  125OSM   C13F13313   3.286   5.753   4.739  0.0617 -0.8203  0.2466
  125OSM   H13F13314   3.243   5.708   4.647  0.7584 -2.5882  0.7540
  125OSM   H13G13315   3.224   5.836   4.779 -1.2271 -0.4125 -2.3872
  125OSM   C14F13316   3.284   5.648   4.859 -0.7622  0.2562 -0.1812
  125OSM   H14F13317   3.342   5.560   4.825  1.1387 -0.1749  3.7094
  125OSM   H14G13318   3.179   5.613   4.873  0.0024 -2.8322 -1.3084
  125OSM   C15F13319   3.324   5.708   4.998  0.1906  0.1573  0.6844
  125OSM   H15F13320   3.283   5.810   5.015 -0.2467  0.0224  0.4586
  125OSM   H15G13321   3.433   5.730   5.002  0.1095  0.7982 -0.3262
  125OSM   C16F13322   3.278   5.613   5.106 -0.1163  0.2292  0.1689
  125OSM   H16F13323   3.327   5.518   5.077  0.8969  0.3150  1.5458
  125OSM   H16G13324   3.168   5.600   5.107  0.0128 -0.8803  0.4551
  125OSM   C17F13325   3.325   5.657   5.237 -0.2043  0.2001  0.2935
  125OSM   H17F13326   3.294   5.759   5.267  0.2050  0.8636 -1.4370
  125OSM   H17G13327   3.436   5.653   5.246 -0.2543 -0.4091  0.7703
  125OSM   C18F13328   3.277   5.562   5.339  0.6967 -0.3947  0.0659
  125OSM   H18F13329   3.316   5.596   5.437 -1.0808 -2.4980  1.6127
  125OSM   H18G13330   3.309   5.459   5.314  1.1176  0.0500 -1.3536
  125OSM   H18H13331   3.166   5.566   5.352  0.8138 -1.2212  1.4611
  126OSM      N13332   4.455   0.038   3.372  0.5873  0.1718  0.1674
  126OSM    C1513333   4.310   0.030   3.343  0.3462 -0.3563 -0.6009
  126OSM   H15A13334   4.256   0.100   3.406  2.1187  0.8223 -0.3143
  126OSM   H15B13335   4.274  -0.070   3.361  0.4854  0.0121  2.1294
  126OSM   H15C13336   4.285   0.062   3.243 -1.7370  2.2393  0.6218
  126OSM    C1413337   4.482   0.175   3.420 -0.0964  0.2771 -0.2852
  126OSM   H14A13338   4.446   0.200   3.519  0.2956  0.1068 -0.0964
  126OSM   H14B13339   4.437   0.241   3.347 -1.9188  1.2417  1.6042
  126OSM   H14C13340   4.590   0.185   3.426 -0.1128  0.8942 -0.8929
  126OSM    C1313341   4.480  -0.047   3.485 -0.1684 -0.4192  0.1756
  126OSM   H13A13342   4.465  -0.148   3.451  0.1819 -0.1457 -0.8519
  126OSM   H13B13343   4.412  -0.036   3.568 -0.5346 -2.8826  0.2611
  126OSM   H13C13344   4.579  -0.040   3.528 -0.5321  1.3646  0.8456
  126OSM    C1213345   4.540   0.011   3.250 -0.1872 -0.1118 -0.3768
  126OSM   H12A13346   4.637   0.053   3.273  0.3339 -0.4549 -1.8443
  126OSM   H12B13347   4.498   0.068   3.169 -2.0701  0.5093  0.9574
  126OSM    C1113348   4.555  -0.133   3.204  0.6005 -0.3134  0.0921
  126OSM   H11A13349   4.586  -0.137   3.097 -1.5365  0.3310 -0.6045
  126OSM   H11B13350   4.450  -0.170   3.197  0.6431 -0.9820  2.2268
  126OSM      P13351   4.667  -0.351   3.275 -0.0200 -0.0740 -0.0963
  126OSM    O1313352   4.539  -0.425   3.251  0.2847 -0.0700 -0.9967
  126OSM    O1413353   4.772  -0.360   3.174  0.5987  0.2504 -0.1376
  126OSM    O1113354   4.728  -0.394   3.403 -0.2507 -0.0205 -0.0395
  126OSM    O1213355   4.629  -0.202   3.302 -0.3539  0.5770 -0.3980
  126OSM    C1S13356   4.704  -0.324   3.523 -0.3639 -0.3093 -0.5530
  126OSM    H1S13357   4.597  -0.327   3.550 -0.2146  1.7689  0.4282
  126OSM    H1T13358   4.719  -0.215   3.511 -0.9304 -0.3842 -2.0715
  126OSM     NF13359   4.747  -0.292   3.752 -1.0007  0.4483 -0.5644
  126OSM    HNF13360   4.825  -0.251   3.800 -0.1344 -1.4805 -0.2147
  126OSM    C2S13361   4.780  -0.382   3.646 -0.7799 -0.1508 -0.1551
  126OSM    H2S13362   4.751  -0.487   3.670 -3.1543 -0.3130 -3.1734
  126OSM    C3S13363   4.932  -0.392   3.619  0.0505 -0.6515 -0.9340
  126OSM    H3S13364   4.988  -0.299   3.597  0.2689 -0.7670 -0.8721
  126OSM     O313365   4.969  -0.472   3.507  0.2264  0.0081  0.2246
  126OSM    HO313366   4.882  -0.490   3.470  1.1687 -0.6161 -1.8024
  126OSM    C4S13367   4.992  -0.446   3.750  0.0628 -0.0354  0.3184
  126OSM    H4S13368   5.083  -0.395   3.784  1.3437 -1.4816 -0.7471
  126OSM    C5S13369   4.956  -0.553   3.823  0.2453  0.1281 -0.9397
  126OSM    H5S13370   4.883  -0.621   3.777 -1.6228  2.0178 -0.9256
  126OSM    C6S13371   5.015  -0.604   3.953  0.0958 -0.0911  0.2436
  126OSM    H6S13372   5.074  -0.696   3.933 -2.1594 -2.0540  2.0558
  126OSM    H6T13373   4.934  -0.637   4.022  0.6328 -3.1311 -0.4710
  126OSM    C7S13374   5.097  -0.507   4.040 -0.1022 -0.1158  0.6975
  126OSM    H7S13375   5.028  -0.425   4.069  0.8085 -0.3691  3.8962
  126OSM    H7T13376   5.177  -0.456   3.982 -0.9001  0.7425  0.3260
  126OSM    C8S13377   5.152  -0.575   4.164  0.2051 -0.0483 -0.6421
  126OSM    H8S13378   5.257  -0.540   4.174  1.1823 -1.9158 -3.2977
  126OSM    H8T13379   5.160  -0.680   4.128  1.2115 -0.0914 -0.3136
  126OSM    C9S13380   5.069  -0.566   4.289  0.1705 -0.3966  0.0345
  126OSM    H9S13381   4.963  -0.576   4.259 -0.3513  1.3625  1.1514
  126OSM    H9T13382   5.073  -0.470   4.343 -0.1390 -1.4036  1.9123
  126OSM   C10S13383   5.114  -0.667   4.398  0.1342 -0.4307 -0.0449
  126OSM   H10S13384   5.225  -0.668   4.403  0.1559 -0.1785 -0.4396
  126OSM   H10T13385   5.083  -0.768   4.365 -0.7423  0.1604 -1.1018
  126OSM   C11S13386   5.069  -0.628   4.537 -0.7091 -0.5597 -0.0143
  126OSM   H11S13387   4.958  -0.615   4.544 -1.0404 -2.6451 -0.5664
  126OSM   H11T13388   5.107  -0.526   4.557 -2.9196 -0.0468  2.1785
  126OSM   C12S13389   5.113  -0.722   4.644  0.3344  0.3469 -1.1699
  126OSM   H12S13390   5.212  -0.769   4.622  1.8831  0.7910  3.7060
  126OSM   H12T13391   5.038  -0.804   4.651 -0.6342  1.3480  1.4642
  126OSM   C13S13392   5.114  -0.654   4.783 -0.6184 -1.0788  0.5173
  126OSM   H13S13393   5.013  -0.608   4.791 -0.0255  0.2423  0.6293
  126OSM   H13T13394   5.183  -0.567   4.786 -2.7678  0.6998  2.0022
  126OSM   C14S13395   5.147  -0.737   4.910  0.7353  0.5688 -0.0164
  126OSM   H14S13396   5.241  -0.786   4.877 -0.0013 -1.1562  0.3394
  126OSM   H14T13397   5.071  -0.816   4.924  1.0570  0.2303 -0.1694
  126OSM   C15S13398   5.149  -0.653   5.037  0.2006 -0.3867 -0.0448
  126OSM   H15S13399   5.046  -0.637   5.076 -0.8537  0.2884 -2.8910
  126OSM   H15T13400   5.206  -0.559   5.021  1.7030 -0.8185  2.1825
  126OSM   C16S13401   5.222  -0.732   5.147  0.8132 -0.0283 -0.1199
  126OSM   H16S13402   5.309  -0.783   5.100  1.5370  1.8509 -0.8991
  126OSM   H16T13403   5.161  -0.814   5.190 -1.5709  2.6442  1.9946
  126OSM   C17S13404   5.268  -0.637   5.254 -0.0738  0.0450 -0.2040
  126OSM   H17S13405   5.172  -0.602   5.298 -0.1898  0.8608 -1.0790
  126OSM   H17T13406   5.323  -0.550   5.211 -0.7480  1.0615  0.8932
  126OSM   C18S13407   5.355  -0.705   5.368 -0.5178  0.5188  0.0337
  126OSM   H18S13408   5.346  -0.648   5.463 -2.5499  1.3665 -0.6147
  126OSM   H18T13409   5.459  -0.714   5.330 -0.8623  2.0217 -1.3655
  126OSM   H18U13410   5.321  -0.810   5.376  1.9525 -0.4149 -0.7724
  126OSM    C1F13411   4.633  -0.281   3.811  0.5521 -0.3190 -0.2119
  126OSM     OF13412   4.533  -0.351   3.781  0.0035 -0.9294  0.0405
  126OSM    C2F13413   4.627  -0.174   3.915  0.4845 -0.2991  0.5996
  126OSM    H2F13414   4.552  -0.102   3.876 -0.9087  0.2812  3.9481
  126OSM    H2G13415   4.721  -0.115   3.921  0.0712  0.6277 -1.3381
  126OSM    C3F13416   4.578  -0.233   4.050 -0.3356  0.9000  0.3500
  126OSM    H3F13417   4.483  -0.287   4.035 -1.2367  2.3604  0.5502
  126OSM    H3G13418   4.562  -0.148   4.120  1.6436  0.2838  1.6374
  126OSM    C4F13419   4.681  -0.321   4.125  0.3101  0.6525 -0.5842
  126OSM    H4F13420   4.750  -0.246   4.169 -0.6581  2.8649 -2.6089
  126OSM    H4G13421   4.727  -0.397   4.059 -0.3160  0.8962 -1.3220
  126OSM    C5F13422   4.606  -0.384   4.245 -0.4550 -0.3425 -0.6240
  126OSM    H5F13423   4.573  -0.485   4.213 -0.9749 -1.0716  1.9628
  126OSM    H5G13424   4.522  -0.319   4.277  1.4279  2.5691 -1.1961
  126OSM    C6F13425   4.700  -0.407   4.363  0.5406 -0.1471 -0.3725
  126OSM    H6F13426   4.778  -0.328   4.355  1.8099 -1.3125 -0.0725
  126OSM    H6G13427   4.738  -0.511   4.350 -0.4258 -1.0991  3.2021
  126OSM    C7F13428   4.609  -0.401   4.491  0.4232 -0.9298 -0.7916
  126OSM    H7F13429   4.532  -0.481   4.488  1.1757 -1.8102  1.2327
  126OSM    H7G13430   4.566  -0.299   4.478  2.3984 -0.2187 -2.1942
  126OSM    C8F13431   4.690  -0.421   4.624  0.9305 -0.1409 -0.0270
  126OSM    H8F13432   4.766  -0.340   4.626  0.4483  0.3093  1.1539
  126OSM    H8G13433   4.755  -0.510   4.613 -0.3177 -1.0138 -0.6006
  126OSM    C9F13434   4.605  -0.412   4.747 -0.5213 -0.9736  0.1407
  126OSM    H9F13435   4.500  -0.442   4.735 -1.1402  1.6062 -1.7160
  126OSM   C10F13436   4.643  -0.363   4.869 -0.3968  0.0881  1.0168
  126OSM   H10F13437   4.572  -0.351   4.952 -2.1162  2.2208 -0.6483
  126OSM   C11F13438   4.789  -0.324   4.891 -0.5940 -0.2043 -0.3885
  126OSM   H11F13439   4.827  -0.247   4.819 -0.0066 -1.8002 -1.8615
  126OSM   H11G13440   4.865  -0.405   4.886  1.3496  1.5017  0.2114
  126OSM   C12F13441   4.816  -0.256   5.032  0.2146 -0.1693 -0.8368
  126OSM   H12F13442   4.752  -0.167   5.050  1.6266  0.6527  0.2876
  126OSM   H12G13443   4.924  -0.234   5.033 -0.0171  1.0395  0.2427
  126OSM   C13F13444   4.799  -0.360   5.145 -0.0535 -0.0916 -0.0917
  126OSM   H13F13445   4.885  -0.429   5.136  0.7292  1.0533 -2.0400
  126OSM   H13G13446   4.707  -0.421   5.135 -0.1150  0.3524 -2.7227
  126OSM   C14F13447   4.806  -0.296   5.298  1.1683  0.3642  0.8236
  126OSM   H14F13448   4.761  -0.383   5.350 -1.1999  0.2962 -1.1504
  126OSM   H14G13449   4.736  -0.212   5.278 -0.6381 -1.7685 -2.8886
  126OSM   C15F13450   4.940  -0.245   5.337 -1.0089 -0.5949 -0.4193
  126OSM   H15F13451   4.948  -0.210   5.442  0.8819  1.5756 -1.2155
  126OSM   H15G13452   4.967  -0.167   5.264  0.9893 -0.8195  0.0030
  126OSM   C16F13453   5.054  -0.342   5.312 -0.0274  0.3403  0.1335
  126OSM   H16F13454   5.064  -0.367   5.205  0.0412 -1.1292  0.4611
  126OSM   H16G13455   5.031  -0.431   5.374 -0.1357  0.8236  0.8072
  126OSM   C17F13456   5.201  -0.303   5.351  1.2758  0.6009 -0.1644
  126OSM   H17F13457   5.262  -0.395   5.338 -0.1563 -0.1179 -2.3173
  126OSM   H17G13458   5.201  -0.272   5.458  0.0381  1.6729 -0.4517
  126OSM   C18F13459   5.268  -0.192   5.278  0.2315  0.5495 -0.6230
  126OSM   H18F13460   5.253  -0.198   5.169 -3.1762  0.1848 -0.2451
  126OSM   H18G13461   5.376  -0.190   5.304 -0.1043  0.0298  0.9629
  126OSM   H18H13462   5.224  -0.094   5.306 -0.4083  0.3892 -1.0664
  127OSM      N13463   4.029   3.195   3.284  0.2442  0.1229 -0.6034
  127OSM    C1513464   4.065   3.334   3.242 -0.0049  0.0620  0.2627
  127OSM   H15A13465   4.045   3.414   3.312  0.8419  1.1453 -0.6768
  127OSM   H15B13466   3.996   3.353   3.161 -2.2462 -1.1335  1.7827
  127OSM   H15C13467   4.170   3.348   3.218  0.7337 -2.1120  1.9953
  127OSM    C1413468   4.121   3.139   3.384  0.5098  0.0922  0.4286
  127OSM   H14A13469   4.121   3.209   3.466 -3.9620  2.4556 -1.2548
  127OSM   H14B13470   4.220   3.145   3.340  0.6529  1.7796  0.9459
  127OSM   H14C13471   4.109   3.036   3.414  1.2599  0.6849  2.9713
  127OSM    C1313472   3.892   3.202   3.344 -0.2718  0.3176 -0.3959
  127OSM   H13A13473   3.831   3.249   3.268  2.2856  4.5529 -0.1377
  127OSM   H13B13474   3.886   3.268   3.429 -0.1215  1.7928 -1.4833
  127OSM   H13C13475   3.843   3.110   3.372  2.1280 -1.1641 -0.8137
  127OSM    C1213476   4.047   3.106   3.162  0.3672 -0.0099  0.9888
  127OSM   H12A13477   4.139   3.133   3.112 -1.2269  2.2906 -0.8861
  127OSM   H12B13478   3.971   3.134   3.091 -0.7611 -1.5269  1.5369
  127OSM    C1113479   4.036   2.953   3.169  0.1927  0.7757  0.3803
  127OSM   H11A13480   4.028   2.913   3.066  0.5419 -1.4555  1.1515
  127OSM   H11B13481   3.938   2.934   3.217 -0.7866  3.9953 -0.0878
  127OSM      P13482   4.160   2.732   3.239 -0.3376  0.0152  0.1476
  127OSM    O1313483   4.163   2.674   3.106  0.0670 -0.4382 -0.0064
  127OSM    O1413484   4.291   2.704   3.308 -0.1851 -0.2663 -0.0656
  127OSM    O1113485   4.040   2.678   3.341  0.5850  0.3832  0.2854
  127OSM    O1213486   4.137   2.887   3.233  0.0400  0.0252  0.7815
  127OSM    C1S13487   4.035   2.743   3.468 -0.5287 -0.6047 -0.7195
  127OSM    H1S13488   4.008   2.850   3.464  3.7723  0.6848 -0.8038
  127OSM    H1T13489   4.130   2.740   3.526 -0.6730 -2.3048 -0.4980
  127OSM     NF13490   3.939   2.710   3.707 -0.1521 -0.1090  0.0686
  127OSM    HNF13491   3.996   2.662   3.774 -0.0091  0.3240  0.2656
  127OSM    C2S13492   3.951   2.658   3.570  0.2394 -0.1379 -0.2866
  127OSM    H2S13493   3.850   2.641   3.526 -0.2803 -1.1578  1.2186
  127OSM    C3S13494   4.006   2.511   3.579  0.7165  0.3518 -0.5450
  127OSM    H3S13495   4.112   2.526   3.607  0.5643  0.7610 -0.1783
  127OSM     O313496   4.009   2.438   3.459  0.3518  0.5913 -0.1598
  127OSM    HO313497   3.986   2.509   3.399  1.8399  0.9620 -0.3181
  127OSM    C4S13498   3.949   2.427   3.695  0.4164 -0.6455  0.5691
  127OSM    H4S13499   4.015   2.443   3.781 -0.2393  3.1074  0.5340
  127OSM    C5S13500   3.844   2.346   3.691  0.2483 -0.2381  0.5355
  127OSM    H5S13501   3.781   2.355   3.601  2.3290  3.5977 -0.7904
  127OSM    C6S13502   3.799   2.263   3.804 -0.2053  0.3993 -0.0151
  127OSM    H6S13503   3.867   2.263   3.892 -0.5046  2.2117  0.2551
  127OSM    H6T13504   3.795   2.156   3.776  3.5115 -0.0538  0.6252
  127OSM    C7S13505   3.656   2.311   3.855 -0.7639  0.6642  0.2279
  127OSM    H7S13506   3.591   2.304   3.765 -1.5887 -0.7113  0.8805
  127OSM    H7T13507   3.665   2.418   3.883  0.0635  1.2352 -1.9808
  127OSM    C8S13508   3.595   2.221   3.963  0.3585  0.0786  0.4738
  127OSM    H8S13509   3.631   2.116   3.960  1.7702  0.5602 -0.4360
  127OSM    H8T13510   3.486   2.233   3.944 -0.1507 -1.2790  2.2799
  127OSM    C9S13511   3.621   2.275   4.100  0.6617  0.6202  0.4436
  127OSM    H9S13512   3.609   2.385   4.089  0.7701  0.7376  1.3725
  127OSM    H9T13513   3.716   2.233   4.140  1.4560  3.2668  1.5686
  127OSM   C10S13514   3.507   2.233   4.193  0.3815 -0.1407  0.4314
  127OSM   H10S13515   3.512   2.122   4.194 -0.0990 -0.1886 -0.8692
  127OSM   H10T13516   3.408   2.239   4.144 -1.0638 -0.4729  3.1012
  127OSM   C11S13517   3.508   2.296   4.329 -0.0308 -0.1067  0.1024
  127OSM   H11S13518   3.407   2.272   4.369 -0.2485  0.6418  0.0134
  127OSM   H11T13519   3.531   2.404   4.317 -0.8329  0.0852  0.2634
  127OSM   C12S13520   3.612   2.233   4.426 -0.0118  0.3928 -0.3010
  127OSM   H12S13521   3.711   2.269   4.391 -0.6404  1.1893 -1.3207
  127OSM   H12T13522   3.613   2.122   4.428  2.2241  0.3747  1.0037
  127OSM   C13S13523   3.593   2.272   4.576 -0.7176  0.3067  0.4567
  127OSM   H13S13524   3.615   2.381   4.587 -0.0543  0.1414  0.7872
  127OSM   H13T13525   3.661   2.220   4.646 -1.0429 -0.4101  0.2456
  127OSM   C14S13526   3.451   2.249   4.631 -1.1542 -0.3554  0.2930
  127OSM   H14S13527   3.424   2.141   4.626  1.3813 -0.9956 -2.1390
  127OSM   H14T13528   3.380   2.322   4.588  0.0490  1.0766  0.6306
  127OSM   C15S13529   3.448   2.270   4.782 -0.1917 -1.5053  0.4527
  127OSM   H15S13530   3.498   2.188   4.837  1.4827 -1.4112 -0.8406
  127OSM   H15T13531   3.339   2.267   4.802 -0.3646  1.3793  0.4331
  127OSM   C16S13532   3.509   2.403   4.816 -0.2036  0.0681  0.0248
  127OSM   H16S13533   3.473   2.490   4.756 -1.9607 -0.1059  0.7767
  127OSM   H16T13534   3.620   2.398   4.814 -0.2316 -1.9218  1.2219
  127OSM   C17S13535   3.480   2.449   4.962  0.0543  0.1781  0.1214
  127OSM   H17S13536   3.501   2.360   5.024  0.5004  0.3496  0.2229
  127OSM   H17T13537   3.370   2.463   4.963 -0.1429 -1.2456  1.0754
  127OSM   C18S13538   3.555   2.578   4.992  0.7377 -0.2984  0.1570
  127OSM   H18S13539   3.665   2.570   5.004  0.5662  0.3117  2.7005
  127OSM   H18T13540   3.521   2.623   5.087 -0.6040 -0.3528 -0.2700
  127OSM   H18U13541   3.537   2.656   4.914 -0.9383  0.2323  1.0297
  127OSM    C1F13542   3.881   2.826   3.739 -1.0315 -0.7343 -0.2545
  127OSM     OF13543   3.821   2.897   3.660  0.9709  0.3528  0.0215
  127OSM    C2F13544   3.890   2.861   3.881  0.1877  0.7785 -0.5513
  127OSM    H2F13545   3.871   2.772   3.945  0.8353  2.0620  1.5550
  127OSM    H2G13546   3.804   2.930   3.899 -1.4597 -1.5494  1.2461
  127OSM    C3F13547   4.020   2.941   3.920  0.8428  0.1275  1.0270
  127OSM    H3F13548   4.018   3.034   3.859 -0.9924  0.6312  1.7820
  127OSM    H3G13549   4.113   2.892   3.886  1.2608 -0.4088  2.8617
  127OSM    C4F13550   4.029   2.970   4.065 -0.0898  0.1778  0.0780
  127OSM    H4F13551   4.127   3.021   4.082  1.2415 -1.6793 -1.6474
  127OSM    H4G13552   4.027   2.883   4.134 -1.3310  0.7858  0.8499
  127OSM    C5F13553   3.914   3.061   4.106  0.2275 -0.6543  0.1956
  127OSM    H5F13554   3.818   3.006   4.096 -0.5724  0.3599  1.7525
  127OSM    H5G13555   3.909   3.141   4.029 -2.0228 -2.0376 -1.2064
  127OSM    C6F13556   3.924   3.133   4.235 -0.2840 -0.4869 -0.1943
  127OSM    H6F13557   3.924   3.067   4.325 -1.3000  2.1577  1.8625
  127OSM    H6G13558   3.837   3.202   4.239  0.1727  0.1730 -1.4983
  127OSM    C7F13559   4.051   3.220   4.240  0.2557 -0.5847 -0.2195
  127OSM    H7F13560   4.055   3.295   4.158  2.1539  1.7152  1.8249
  127OSM    H7G13561   4.144   3.159   4.237  0.4817 -0.1972 -1.8870
  127OSM    C8F13562   4.062   3.288   4.380 -0.2163  0.4466  0.9625
  127OSM    H8F13563   4.168   3.314   4.400 -1.1788  2.1573  4.7727
  127OSM    H8G13564   4.048   3.211   4.460  4.0524  0.1786  1.6930
  127OSM    C9F13565   3.967   3.405   4.409 -0.2390  0.2605 -0.2914
  127OSM    H9F13566   3.983   3.490   4.341 -1.0701 -0.1847 -1.0619
  127OSM   C10F13567   3.860   3.407   4.497 -0.0395 -0.3794  0.5692
  127OSM   H10F13568   3.789   3.491   4.495  1.9382  1.3511 -1.2005
  127OSM   C11F13569   3.822   3.297   4.594  0.2295  0.4336 -0.2005
  127OSM   H11F13570   3.859   3.317   4.697 -1.9948 -1.0808  0.9763
  127OSM   H11G13571   3.874   3.201   4.577 -1.1818 -0.5261  0.7173
  127OSM   C12F13572   3.671   3.266   4.590 -0.0656 -0.3241 -0.3229
  127OSM   H12F13573   3.611   3.353   4.623 -0.3237 -1.5501  2.7593
  127OSM   H12G13574   3.661   3.176   4.655 -1.2019  0.2364  0.3012
  127OSM   C13F13575   3.616   3.219   4.455 -0.3102 -0.3054 -0.1394
  127OSM   H13F13576   3.685   3.141   4.415 -0.7458 -0.7005 -0.1332
  127OSM   H13G13577   3.617   3.315   4.400  2.2815  0.4732  1.0955
  127OSM   C14F13578   3.476   3.160   4.466  0.0161 -0.4458 -0.3833
  127OSM   H14F13579   3.413   3.245   4.499  0.0347 -0.3927 -0.4842
  127OSM   H14G13580   3.480   3.084   4.547  3.8108 -1.9771 -1.7411
  127OSM   C15F13581   3.414   3.113   4.326 -0.1472  0.7585  0.0693
  127OSM   H15F13582   3.322   3.053   4.343 -0.2414  0.4273 -1.4153
  127OSM   H15G13583   3.466   3.029   4.274 -0.3205  0.8210 -0.2050
  127OSM   C16F13584   3.376   3.226   4.227 -0.6363 -0.3489  0.2935
  127OSM   H16F13585   3.373   3.319   4.289 -3.3950 -2.7464  4.1975
  127OSM   H16G13586   3.281   3.213   4.171 -1.0079  1.1421  0.5418
  127OSM   C17F13587   3.479   3.257   4.116 -0.3689  0.0399  0.4955
  127OSM   H17F13588   3.570   3.293   4.168  0.3361  1.5440 -1.6218
  127OSM   H17G13589   3.438   3.339   4.053 -1.5456 -1.5260 -0.8977
  127OSM   C18F13590   3.512   3.132   4.031  0.3933  0.7832  0.2132
  127OSM   H18F13591   3.564   3.152   3.935  1.5827 -0.4162  0.5733
  127OSM   H18G13592   3.422   3.067   4.028  2.0487 -1.6591  0.6696
  127OSM   H18H13593   3.580   3.066   4.089 -1.3593 -2.0850 -0.8341
  128OSM      N13594   3.432   0.376   3.095 -0.8607 -0.0101 -0.2442
  128OSM    C1513595   3.400   0.250   3.030 -1.4480  0.2939  0.2377
  128OSM   H15A13596   3.445   0.164   3.078 -0.0713  1.1684  0.5807
  128OSM   H15B13597   3.425   0.252   2.925  1.5129  1.9379  0.8491
  128OSM   H15C13598   3.295   0.227   3.038 -1.0603 -1.2753  1.4844
  128OSM    C1413599   3.574   0.420   3.070 -0.1358  0.0655 -0.9519
  128OSM   H14A13600   3.647   0.343   3.093  1.1852  1.4177 -0.4430
  128OSM   H14B13601   3.600   0.503   3.134 -2.7583  2.5425 -2.8946
  128OSM   H14C13602   3.588   0.454   2.968  1.9015 -0.0331 -0.7600
  128OSM    C1313603   3.356   0.492   3.038  0.1755  0.8676 -0.1364
  128OSM   H13A13604   3.253   0.461   3.055  0.2589 -2.2183 -3.9285
  128OSM   H13B13605   3.373   0.505   2.933 -0.2064  0.1760 -0.2916
  128OSM   H13C13606   3.385   0.582   3.089  0.5072 -1.0910  3.5635
  128OSM    C1213607   3.416   0.365   3.250 -0.0415 -0.4977  0.4056
  128OSM   H12A13608   3.311   0.342   3.260 -0.0365 -0.9524 -0.4853
  128OSM   H12B13609   3.410   0.459   3.301 -3.5200 -0.9070  0.9472
  128OSM    C1113610   3.502   0.266   3.330 -0.4080 -0.3295 -0.1356
  128OSM   H11A13611   3.488   0.272   3.440  1.0778 -0.1074  0.0493
  128OSM   H11B13612   3.608   0.298   3.326 -0.4797 -0.1557 -0.7566
  128OSM      P13613   3.443   0.010   3.389  0.1038 -0.2493 -0.0621
  128OSM    O1313614   3.299   0.001   3.414 -0.6828 -0.3622  0.1494
  128OSM    O1413615   3.501  -0.111   3.325 -0.8749 -0.0675  0.1749
  128OSM    O1113616   3.510   0.030   3.534 -0.1640  0.5196  0.2482
  128OSM    O1213617   3.482   0.131   3.293 -0.4463  0.9850 -0.3204
  128OSM    C1S13618   3.647   0.052   3.571  0.0935 -0.2386  0.1692
  128OSM    H1S13619   3.662   0.160   3.551 -0.6467 -0.1058  0.3279
  128OSM    H1T13620   3.721  -0.002   3.506 -1.1182  0.0339 -1.5093
  128OSM     NF13621   3.795   0.073   3.762 -0.0801  0.2528 -0.4632
  128OSM    HNF13622   3.870   0.008   3.750  1.3229  1.5546  0.7610
  128OSM    C2S13623   3.663   0.029   3.722 -0.4975  0.1248 -0.5859
  128OSM    H2S13624   3.595   0.098   3.777 -0.8694  1.4619 -2.6181
  128OSM    C3S13625   3.628  -0.112   3.762  0.1983  0.0476 -1.2383
  128OSM    H3S13626   3.684  -0.185   3.701  2.5192  0.4328  0.3002
  128OSM     O313627   3.496  -0.146   3.733  0.1350 -0.4281  0.1393
  128OSM    HO313628   3.473  -0.082   3.664 -1.0143 -1.0140 -0.0541
  128OSM    C4S13629   3.651  -0.135   3.915 -1.1767 -0.7100 -0.4278
  128OSM    H4S13630   3.621  -0.049   3.976  0.4918 -0.6612  0.3950
  128OSM    C5S13631   3.713  -0.239   3.974  0.2808 -0.2029 -0.1937
  128OSM    H5S13632   3.754  -0.318   3.908 -0.6988  0.6520 -1.8937
  128OSM    C6S13633   3.735  -0.255   4.124 -0.0305 -0.1334  0.1332
  128OSM    H6S13634   3.826  -0.314   4.149 -0.8927 -1.6478 -0.2498
  128OSM    H6T13635   3.652  -0.320   4.156 -0.0587 -0.5568 -0.7732
  128OSM    C7S13636   3.744  -0.120   4.213 -0.3368  0.1683  0.6607
  128OSM    H7S13637   3.640  -0.082   4.206 -1.3313 -2.4673 -0.0534
  128OSM    H7T13638   3.811  -0.046   4.164  0.0206 -0.7967 -0.3627
  128OSM    C8S13639   3.780  -0.139   4.362 -0.6326  0.1983  0.2193
  128OSM    H8S13640   3.774  -0.044   4.420  2.1411  0.3803  0.3088
  128OSM    H8T13641   3.883  -0.180   4.361 -0.3386  0.9127  0.3949
  128OSM    C9S13642   3.695  -0.248   4.431  0.2481  0.1092 -0.4177
  128OSM    H9S13643   3.675  -0.335   4.365 -0.9935  0.8417 -1.0553
  128OSM    H9T13644   3.596  -0.211   4.465 -0.1090 -0.0611 -1.2419
  128OSM   C10S13645   3.770  -0.298   4.554 -0.5880 -0.0088 -0.2831
  128OSM   H10S13646   3.851  -0.364   4.519 -2.0357 -2.3582  0.5516
  128OSM   H10T13647   3.703  -0.369   4.609 -0.0376  0.1771  0.6550
  128OSM   C11S13648   3.806  -0.180   4.652  0.4100 -0.1373  0.5959
  128OSM   H11S13649   3.716  -0.117   4.668 -0.2745 -1.2782  1.4192
  128OSM   H11T13650   3.892  -0.122   4.614  0.7086 -0.2558  1.0911
  128OSM   C12S13651   3.844  -0.241   4.788 -0.5145  0.4434 -0.3556
  128OSM   H12S13652   3.747  -0.267   4.834 -2.4491  4.1549 -1.9252
  128OSM   H12T13653   3.877  -0.152   4.845 -1.7844  0.1907  0.8325
  128OSM   C13S13654   3.963  -0.338   4.772  0.2716  0.6689  0.2559
  128OSM   H13S13655   4.030  -0.300   4.691 -1.9441  0.8587 -1.5851
  128OSM   H13T13656   3.912  -0.430   4.735 -1.3120  1.3791  0.5832
  128OSM   C14S13657   4.017  -0.359   4.908  0.3212 -0.6195 -0.1032
  128OSM   H14S13658   4.076  -0.281   4.960  1.3123 -0.6733 -1.0979
  128OSM   H14T13659   4.099  -0.434   4.901  1.3916  0.4511  0.6979
  128OSM   C15S13660   3.915  -0.427   5.000  0.3876 -0.4694  0.2631
  128OSM   H15S13661   3.845  -0.489   4.941  1.6910 -0.5840 -1.2198
  128OSM   H15T13662   3.859  -0.351   5.060 -0.4777  0.8819 -2.1482
  128OSM   C16S13663   3.978  -0.519   5.109  0.0566 -0.4354  0.2657
  128OSM   H16S13664   4.073  -0.468   5.136  0.2612  0.0541 -1.2596
  128OSM   H16T13665   4.000  -0.624   5.081  1.1063 -0.2058  0.1902
  128OSM   C17S13666   3.904  -0.509   5.242  0.5300  0.1119  0.5592
  128OSM   H17S13667   3.903  -0.402   5.273  0.6886  0.0756  0.6926
  128OSM   H17T13668   3.950  -0.567   5.325  0.4432  1.1251  1.3379
  128OSM   C18S13669   3.761  -0.560   5.227 -0.2417 -0.1710 -0.3116
  128OSM   H18S13670   3.755  -0.660   5.179 -1.6371  0.0570 -0.6483
  128OSM   H18T13671   3.707  -0.491   5.160 -0.5640 -0.7584 -0.6722
  128OSM   H18U13672   3.702  -0.552   5.321  0.0677  1.2075 -0.2207
  128OSM    C1F13673   3.828   0.202   3.771 -0.2915 -0.6629  0.1596
  128OSM     OF13674   3.750   0.296   3.752 -0.3015  0.2643  0.0295
  128OSM    C2F13675   3.975   0.221   3.800 -0.5299  0.1864 -0.3121
  128OSM    H2F13676   4.013   0.272   3.709 -0.5661  1.1984  0.2218
  128OSM    H2G13677   4.028   0.124   3.811 -0.0661  0.5096  0.3882
  128OSM    C3F13678   3.999   0.310   3.925 -0.7663 -0.1501  0.4060
  128OSM    H3F13679   3.969   0.416   3.909  0.7594  0.1214 -0.9172
  128OSM    H3G13680   4.109   0.315   3.943 -0.4386  2.5851 -1.7026
  128OSM    C4F13681   3.932   0.261   4.050 -0.1796 -1.1241  0.0600
  128OSM    H4F13682   3.921   0.152   4.038 -0.3044 -1.1077  0.0194
  128OSM    H4G13683   3.836   0.317   4.041 -0.1588 -1.2239 -0.9870
  128OSM    C5F13684   4.004   0.294   4.185 -0.1424 -0.3886 -0.3067
  128OSM    H5F13685   4.012   0.403   4.203  2.8640 -1.1122  4.8891
  128OSM    H5G13686   4.109   0.262   4.169 -0.1942 -0.8441  0.2475
  128OSM    C6F13687   3.945   0.246   4.315  0.5033 -0.5682 -0.2298
  128OSM    H6F13688   3.924   0.138   4.300  2.5483 -1.3462  1.7895
  128OSM    H6G13689   3.855   0.306   4.338  1.6921  0.6294  1.5743
  128OSM    C7F13690   4.054   0.261   4.430  0.3806 -0.0405 -0.3123
  128OSM    H7F13691   4.067   0.371   4.428  0.9568 -0.1075 -0.3548
  128OSM    H7G13692   4.149   0.213   4.401  0.4797 -0.4326  0.6402
  128OSM    C8F13693   3.999   0.215   4.573 -0.6823 -0.0813  0.3404
  128OSM    H8F13694   4.006   0.104   4.567 -0.9817 -0.0493 -0.8886
  128OSM    H8G13695   3.891   0.243   4.574 -0.2514  2.0543 -1.7806
  128OSM    C9F13696   4.084   0.266   4.685 -0.0597  0.2743  0.6207
  128OSM    H9F13697   4.151   0.351   4.669  1.1492 -0.2633  2.5340
  128OSM   C10F13698   4.094   0.209   4.806  0.1047 -0.3880 -0.1069
  128OSM   H10F13699   4.161   0.253   4.881 -2.0148  0.6138  1.2856
  128OSM   C11F13700   4.005   0.092   4.850 -0.1721 -0.2582  0.6371
  128OSM   H11F13701   4.065   0.001   4.828 -0.8516 -0.9301  1.4876
  128OSM   H11G13702   3.901   0.083   4.813 -0.3079 -2.0284  1.3513
  128OSM   C12F13703   3.989   0.119   4.999  0.0620 -0.0068 -0.2018
  128OSM   H12F13704   3.921   0.204   5.023  1.8907  1.0339  1.6465
  128OSM   H12G13705   4.086   0.146   5.047 -0.3489  0.4549  0.3919
  128OSM   C13F13706   3.928  -0.002   5.072  0.3874 -0.2485  0.4510
  128OSM   H13F13707   3.998  -0.088   5.082  0.8726  0.3213  2.4206
  128OSM   H13G13708   3.838  -0.031   5.014  0.2747 -0.2986  0.6517
  128OSM   C14F13709   3.881   0.035   5.212  0.2207  0.2867 -0.9609
  128OSM   H14F13710   3.815   0.124   5.215 -0.9925 -0.4684  4.2659
  128OSM   H14G13711   3.970   0.054   5.274  0.6505 -0.3567 -1.3646
  128OSM   C15F13712   3.791  -0.082   5.271 -0.2819  0.2491  0.4771
  128OSM   H15F13713   3.834  -0.175   5.230  2.5134  0.8480  1.8406
  128OSM   H15G13714   3.692  -0.076   5.220  0.1818  1.6108 -0.3428
  128OSM   C16F13715   3.791  -0.093   5.423  0.0175 -0.2123  0.0520
  128OSM   H16F13716   3.752  -0.000   5.471  2.3875  0.8375  0.1199
  128OSM   H16G13717   3.897  -0.115   5.449  1.0520  1.2881 -2.4973
  128OSM   C17F13718   3.715  -0.207   5.471 -0.2033 -0.1809 -0.3868
  128OSM   H17F13719   3.712  -0.213   5.582 -0.4197 -0.4307 -0.4057
  128OSM   H17G13720   3.761  -0.299   5.430  0.4458 -0.0302 -0.0139
  128OSM   C18F13721   3.567  -0.223   5.439  0.4475 -0.3950  0.1225
  128OSM   H18F13722   3.551  -0.229   5.329  0.9275 -1.5279  0.1086
  128OSM   H18G13723   3.519  -0.137   5.491  2.8702 -1.4195  4.4592
  128OSM   H18H13724   3.533  -0.316   5.488  0.2981 -0.5658 -0.3037
  129OSM      N13725   2.665   5.767   2.875  1.1951 -0.3499 -0.0493
  129OSM    C1513726   2.796   5.834   2.899 -0.8252  0.1674 -0.0798
  129OSM   H15A13727   2.824   5.889   2.810  0.2370  0.6736  0.5436
  129OSM   H15B13728   2.871   5.758   2.918  0.4100  1.3295 -0.1926
  129OSM   H15C13729   2.792   5.910   2.975 -0.7027  2.1892 -1.9835
  129OSM    C1413730   2.569   5.880   2.840 -0.5726 -0.4349 -0.5979
  129OSM   H14A13731   2.470   5.841   2.823 -0.1799 -1.2893 -1.0129
  129OSM   H14B13732   2.598   5.936   2.752 -0.5191 -2.5860 -2.0197
  129OSM   H14C13733   2.567   5.941   2.929  1.5050 -1.6583  0.3553
  129OSM    C1313734   2.670   5.675   2.757  0.0022  0.0375  1.0831
  129OSM   H13A13735   2.708   5.724   2.669 -0.8461 -4.0664 -1.8442
  129OSM   H13B13736   2.576   5.631   2.728  1.6990 -1.9973 -1.7846
  129OSM   H13C13737   2.741   5.593   2.758  0.6430  0.5003 -1.2938
  129OSM    C1213738   2.621   5.698   3.009 -0.8013 -0.1919  0.6848
  129OSM   H12A13739   2.672   5.604   3.027  0.3724 -0.0416 -1.5350
  129OSM   H12B13740   2.515   5.677   3.001 -0.6149 -0.5547 -1.5177
  129OSM    C1113741   2.649   5.774   3.138 -0.1405  0.5087 -0.4703
  129OSM   H11A13742   2.752   5.808   3.161 -0.3972  1.3010 -0.4441
  129OSM   H11B13743   2.631   5.694   3.213  3.2326  0.8301  0.8354
  129OSM      P13744   2.415   5.862   3.211 -0.2516  0.0664  0.2493
  129OSM    O1313745   2.330   5.980   3.208 -0.2966 -0.3512  0.0586
  129OSM    O1413746   2.356   5.752   3.140  0.0272 -0.5673  0.3177
  129OSM    O1113747   2.436   5.807   3.357 -0.3511 -0.3585  0.1773
  129OSM    O1213748   2.563   5.889   3.157  0.0156  0.8196  0.4512
  129OSM    C1S13749   2.536   5.877   3.439 -0.0447 -0.2412  0.6687
  129OSM    H1S13750   2.494   5.975   3.472  3.7593  1.4845  0.8525
  129OSM    H1T13751   2.620   5.915   3.377 -0.6654  2.1655  1.1775
  129OSM     NF13752   2.697   5.860   3.630 -0.4839  0.0479 -0.3770
  129OSM    HNF13753   2.783   5.812   3.644 -0.8308 -0.1325  1.4768
  129OSM    C2S13754   2.596   5.792   3.562 -0.0133  0.1275 -0.0037
  129OSM    H2S13755   2.508   5.771   3.627 -1.2021 -2.1913 -2.1827
  129OSM    C3S13756   2.642   5.651   3.517  0.0661  0.2477  0.4090
  129OSM    H3S13757   2.727   5.664   3.448  1.3475 -0.0316  1.8781
  129OSM     O313758   2.554   5.571   3.442  0.2032 -0.2412  0.2836
  129OSM    HO313759   2.507   5.644   3.403  1.2306  0.8498  1.0165
  129OSM    C4S13760   2.680   5.570   3.643  0.0576  0.5832  0.4097
  129OSM    H4S13761   2.596   5.535   3.703 -0.0458  0.5675  0.2566
  129OSM    C5S13762   2.805   5.542   3.686 -0.7028  0.3323  0.0642
  129OSM    H5S13763   2.895   5.570   3.628 -2.6283  3.1807 -1.8038
  129OSM    C6S13764   2.829   5.471   3.817  1.0240 -0.3274 -0.2203
  129OSM    H6S13765   2.912   5.401   3.795  0.7837 -0.9237  0.7392
  129OSM    H6T13766   2.743   5.409   3.849  0.6179 -0.5965 -1.7673
  129OSM    C7S13767   2.873   5.572   3.926 -0.4081 -0.2203 -0.1503
  129OSM    H7S13768   2.812   5.666   3.923  0.0535  0.1243  1.0130
  129OSM    H7T13769   2.974   5.599   3.887 -1.1734 -1.1561 -3.0409
  129OSM    C8S13770   2.882   5.516   4.071  0.1402  0.3562  0.5638
  129OSM    H8S13771   2.968   5.448   4.054 -1.8010 -1.7786 -1.2563
  129OSM    H8T13772   2.789   5.464   4.102  0.0464  0.2648  0.1297
  129OSM    C9S13773   2.907   5.620   4.173  0.5917 -0.3424 -0.2627
  129OSM    H9S13774   2.813   5.680   4.176 -0.3141 -1.5495 -2.4720
  129OSM    H9T13775   2.995   5.679   4.141  2.2799 -2.3617  0.5066
  129OSM   C10S13776   2.943   5.558   4.312  0.3370 -0.3087 -0.0331
  129OSM   H10S13777   2.970   5.633   4.389  0.3612 -0.2934 -0.0571
  129OSM   H10T13778   3.035   5.500   4.289 -0.8244 -1.6089 -1.7482
  129OSM   C11S13779   2.837   5.469   4.382 -0.1546  0.6377 -0.3964
  129OSM   H11S13780   2.857   5.365   4.351 -1.3849 -0.7337  2.9217
  129OSM   H11T13781   2.733   5.501   4.357 -0.1538 -0.7911 -2.3731
  129OSM   C12S13782   2.842   5.468   4.537 -0.4335  0.1921 -0.0630
  129OSM   H12S13783   2.749   5.420   4.574 -0.7840 -0.5097 -1.7341
  129OSM   H12T13784   2.849   5.575   4.568  1.8884  1.1202 -3.2458
  129OSM   C13S13785   2.969   5.394   4.597  0.4527  0.6479  0.2433
  129OSM   H13S13786   3.052   5.401   4.523  0.8065 -3.3515  0.0430
  129OSM   H13T13787   2.942   5.287   4.607 -0.8588  1.0734  1.8282
  129OSM   C14S13788   2.997   5.436   4.739  0.6575  0.0899  0.7195
  129OSM   H14S13789   3.017   5.546   4.735  0.4543  0.0982 -1.0469
  129OSM   H14T13790   3.095   5.385   4.755  1.1117  0.4705 -0.6547
  129OSM   C15S13791   2.892   5.399   4.840  0.1956 -1.0353  0.2059
  129OSM   H15S13792   2.857   5.298   4.811  2.2432 -1.6233 -0.3086
  129OSM   H15T13793   2.815   5.479   4.831  1.1277 -0.1658 -0.2517
  129OSM   C16S13794   2.943   5.408   4.989  0.4454  0.7129  0.6711
  129OSM   H16S13795   2.988   5.510   4.990 -0.3249  1.1527 -2.1181
  129OSM   H16T13796   3.012   5.329   5.023 -0.9353 -0.7214  0.2591
  129OSM   C17S13797   2.832   5.421   5.094 -0.0926 -0.4133  0.1993
  129OSM   H17S13798   2.756   5.492   5.056 -0.0257 -0.6805 -0.4393
  129OSM   H17T13799   2.869   5.451   5.195  0.8128 -1.7149  0.2771
  129OSM   C18S13800   2.756   5.289   5.110 -0.2489 -0.3639  0.1534
  129OSM   H18S13801   2.833   5.210   5.124  0.0461  0.2088  2.0801
  129OSM   H18T13802   2.706   5.261   5.015  1.5098 -0.5119 -0.7853
  129OSM   H18U13803   2.689   5.293   5.198  0.3903  2.9199  0.6264
  129OSM    C1F13804   2.699   5.979   3.682  0.3246 -0.1668  0.0605
  129OSM     OF13805   2.603   6.061   3.673 -0.0430 -0.0638  0.7037
  129OSM    C2F13806   2.827   6.038   3.730 -0.2387 -0.6934  0.1771
  129OSM    H2F13807   2.867   6.095   3.644  0.2300  1.2636  1.6386
  129OSM    H2G13808   2.900   5.955   3.744 -0.4509 -1.3383 -2.2049
  129OSM    C3F13809   2.806   6.126   3.859 -0.2894 -0.4808  0.7896
  129OSM    H3F13810   2.726   6.202   3.847 -1.8108 -2.1068  0.2601
  129OSM    H3G13811   2.896   6.192   3.862  0.3744 -1.4088  1.7406
  129OSM    C4F13812   2.785   6.037   3.985  0.2569  0.1373 -0.5322
  129OSM    H4F13813   2.876   5.975   3.997  0.0261  0.0003  0.5852
  129OSM    H4G13814   2.702   5.965   3.969 -0.3349  0.5947  0.3579
  129OSM    C5F13815   2.756   6.109   4.117  0.5217  0.6284  0.1230
  129OSM    H5F13816   2.666   6.173   4.115  0.4137  0.4703 -0.1993
  129OSM    H5G13817   2.842   6.176   4.140  0.4687  0.5990  0.4084
  129OSM    C6F13818   2.723   6.006   4.231 -0.2652  0.0256 -0.1455
  129OSM    H6F13819   2.809   5.937   4.248  0.8429  1.8150  2.0237
  129OSM    H6G13820   2.637   5.947   4.194  0.5063 -1.4367  0.2810
  129OSM    C7F13821   2.682   6.085   4.356  0.1335 -0.4404  0.4134
  129OSM    H7F13822   2.606   6.160   4.324  0.3178 -0.4519 -0.0576
  129OSM    H7G13823   2.775   6.136   4.388  0.8254 -1.7300  0.5507
  129OSM    C8F13824   2.617   5.984   4.457  0.3775  0.7638 -0.4765
  129OSM    H8F13825   2.696   5.907   4.473  0.4313  0.3545 -2.3819
  129OSM    H8G13826   2.532   5.931   4.410  1.9138 -1.0203 -1.3768
  129OSM    C9F13827   2.571   6.063   4.577  0.5655  0.2135  0.0960
  129OSM    H9F13828   2.476   6.115   4.557 -0.2830 -1.9421 -2.0762
  129OSM   C10F13829   2.611   6.060   4.707  0.3019 -0.3033  0.5307
  129OSM   H10F13830   2.557   6.125   4.777 -0.2273 -0.3546  0.1732
  129OSM   C11F13831   2.715   5.966   4.765 -0.0573 -0.6920  0.0386
  129OSM   H11F13832   2.807   6.027   4.776 -0.3610 -0.2060 -0.0688
  129OSM   H11G13833   2.726   5.875   4.702 -0.3153 -0.8908  0.2803
  129OSM   C12F13834   2.695   5.919   4.910 -0.0111  0.0853  0.0729
  129OSM   H12F13835   2.622   5.836   4.913  1.5027 -1.3943 -1.4269
  129OSM   H12G13836   2.657   6.007   4.965 -3.3576 -1.6135  0.7023
  129OSM   C13F13837   2.819   5.871   4.988  0.1326  0.3298 -0.3792
  129OSM   H13F13838   2.906   5.933   4.956  0.5815  0.5088  1.1377
  129OSM   H13G13839   2.827   5.761   4.978  1.2603  0.4575 -1.0042
  129OSM   C14F13840   2.796   5.886   5.144  0.1775 -0.1821 -0.0999
  129OSM   H14F13841   2.712   5.827   5.186 -0.6928  1.2243  0.1942
  129OSM   H14G13842   2.780   5.993   5.169  0.9544  0.8614 -3.4850
  129OSM   C15F13843   2.920   5.838   5.218  0.6801  0.9094 -0.1916
  129OSM   H15F13844   3.008   5.849   5.151  0.9312 -1.2469 -0.2691
  129OSM   H15G13845   2.913   5.728   5.230  1.4028  1.0528  2.1388
  129OSM   C16F13846   2.940   5.905   5.356  0.1617  0.7434  0.5496
  129OSM   H16F13847   2.850   5.876   5.414  0.0350  1.4081  0.6924
  129OSM   H16G13848   2.935   6.015   5.344  1.0434  0.8614  1.1878
  129OSM   C17F13849   3.067   5.862   5.431 -0.0269 -0.4731  0.2385
  129OSM   H17F13850   3.153   5.897   5.371 -1.9296  0.9050 -1.8208
  129OSM   H17G13851   3.070   5.751   5.441 -0.0421 -0.4646  0.3366
  129OSM   C18F13852   3.089   5.917   5.570 -0.6829 -0.0913 -0.4834
  129OSM   H18F13853   3.025   5.883   5.654  1.6137  0.0635  1.4273
  129OSM   H18G13854   3.078   6.027   5.558 -0.6911 -0.1932 -1.5513
  129OSM   H18H13855   3.190   5.891   5.608 -0.9653 -2.5823 -1.2198
  130OSM      N13856   5.333   3.718   3.538 -0.5856 -0.2638  0.2823
  130OSM    C1513857   5.374   3.855   3.593 -0.0181  0.2583  0.2033
  130OSM   H15A13858   5.297   3.930   3.584  0.7142  1.5592  3.5443
  130OSM   H15B13859   5.463   3.900   3.551 -0.1202  1.2585  1.0203
  130OSM   H15C13860   5.393   3.858   3.699 -0.4941  2.1139  0.2717
  130OSM    C1413861   5.344   3.735   3.387  0.1538  0.0164  0.0991
  130OSM   H14A13862   5.305   3.642   3.349  2.8988 -2.5593  2.9482
  130OSM   H14B13863   5.445   3.733   3.350 -0.6322 -0.7069 -2.1191
  130OSM   H14C13864   5.290   3.822   3.351 -0.9720 -1.7487 -2.7882
  130OSM    C1313865   5.431   3.619   3.580 -0.0289  0.9881 -0.1777
  130OSM   H13A13866   5.431   3.610   3.687 -1.4160 -0.7308 -0.2759
  130OSM   H13B13867   5.532   3.626   3.542 -0.9343 -0.0796 -3.0929
  130OSM   H13C13868   5.397   3.522   3.547  1.3191  0.3033  0.3687
  130OSM    C1213869   5.190   3.681   3.586  0.4939  0.6533  0.0106
  130OSM   H12A13870   5.134   3.773   3.573  2.7878  1.9753 -1.1197
  130OSM   H12B13871   5.205   3.667   3.692 -0.2421  1.3432  0.2183
  130OSM    C1113872   5.118   3.558   3.534 -0.2164  0.7763  0.0658
  130OSM   H11A13873   5.092   3.564   3.426  0.3160  1.7014 -0.0222
  130OSM   H11B13874   5.023   3.547   3.590  1.1220  2.8461  2.9587
  130OSM      P13875   5.214   3.352   3.688  0.3447 -0.1644 -0.1535
  130OSM    O1313876   5.080   3.299   3.727  0.5587  0.6642 -0.0466
  130OSM    O1413877   5.322   3.257   3.657  0.2507 -0.2434 -0.6015
  130OSM    O1113878   5.265   3.462   3.784  0.0467 -0.1838 -0.3575
  130OSM    O1213879   5.197   3.439   3.556 -0.0697 -0.1531  0.1338
  130OSM    C1S13880   5.211   3.484   3.914  0.0226  0.2387 -0.4104
  130OSM    H1S13881   5.110   3.440   3.929 -1.0937  2.1821 -1.7763
  130OSM    H1T13882   5.215   3.595   3.911  2.8637  0.2070 -2.9195
  130OSM     NF13883   5.238   3.453   4.167  0.8140  0.0748  0.5993
  130OSM    HNF13884   5.237   3.549   4.193  1.3702 -0.0179  0.9871
  130OSM    C2S13885   5.302   3.438   4.038  0.1780  0.0121  0.0945
  130OSM    H2S13886   5.320   3.329   4.027 -0.2590  0.1266 -2.4034
  130OSM    C3S13887   5.440   3.503   4.026 -0.2279 -0.2025  0.2358
  130OSM    H3S13888   5.425   3.612   4.037 -1.9533 -0.4048  0.0666
  130OSM     O313889   5.499   3.480   3.897  0.4046  0.0266  0.3116
  130OSM    HO313890   5.423   3.449   3.848 -0.1924  0.5706  0.8500
  130OSM    C4S13891   5.533   3.464   4.141  0.1185 -0.1682  0.1989
  130OSM    H4S13892   5.520   3.361   4.179 -0.1158 -0.1774  0.0990
  130OSM    C5S13893   5.632   3.534   4.194  0.2170  0.1987  0.2998
  130OSM    H5S13894   5.653   3.630   4.145  2.4403  0.1636  1.0603
  130OSM    C6S13895   5.733   3.495   4.301  0.4931 -0.4510 -0.2610
  130OSM    H6S13896   5.741   3.573   4.380 -1.0308  0.6134 -1.0974
  130OSM    H6T13897   5.833   3.478   4.258 -0.1851 -1.4991 -1.5010
  130OSM    C7S13898   5.703   3.364   4.377  0.5139 -0.0243 -0.5147
  130OSM    H7S13899   5.787   3.321   4.435  0.8313  0.1208 -0.8653
  130OSM    H7T13900   5.670   3.286   4.306 -1.5445  0.9091 -0.6532
  130OSM    C8S13901   5.590   3.386   4.478 -0.3306  0.1688 -0.2282
  130OSM    H8S13902   5.567   3.279   4.500 -2.4724  0.5707 -0.2763
  130OSM    H8T13903   5.495   3.428   4.439 -1.0146 -1.5670 -0.5073
  130OSM    C9S13904   5.625   3.453   4.610 -0.6829 -0.3498 -0.7188
  130OSM    H9S13905   5.620   3.564   4.608 -1.3293 -0.2054  2.7466
  130OSM    H9T13906   5.733   3.436   4.629 -0.6722  1.6343  1.5336
  130OSM   C10S13907   5.538   3.396   4.730 -0.9947  0.2867  0.3439
  130OSM   H10S13908   5.563   3.288   4.740  0.5373  0.5492 -0.3763
  130OSM   H10T13909   5.429   3.407   4.708 -1.0051 -0.7622 -0.2082
  130OSM   C11S13910   5.566   3.473   4.864 -0.2865  0.0082 -0.1681
  130OSM   H11S13911   5.558   3.578   4.830  1.0991 -0.5121 -2.3196
  130OSM   H11T13912   5.668   3.443   4.896 -0.7460 -1.2801  0.1360
  130OSM   C12S13913   5.487   3.423   4.989  0.2208 -0.0998  0.6852
  130OSM   H12S13914   5.504   3.313   4.982  1.2133  0.0162  1.0672
  130OSM   H12T13915   5.379   3.445   4.976  0.1946 -0.6057 -0.0253
  130OSM   C13S13916   5.549   3.468   5.124  0.9109 -0.4324 -1.0603
  130OSM   H13S13917   5.560   3.578   5.107  0.0921 -0.1345  0.2450
  130OSM   H13T13918   5.656   3.437   5.128  0.2416 -2.7943  0.7567
  130OSM   C14S13919   5.464   3.432   5.249  0.5309  0.1161 -0.1063
  130OSM   H14S13920   5.453   3.323   5.269 -2.3918  0.1865 -0.8900
  130OSM   H14T13921   5.358   3.455   5.228  0.4414 -1.3497 -1.4586
  130OSM   C15S13922   5.515   3.508   5.373 -0.2796  0.5203  0.7022
  130OSM   H15S13923   5.504   3.614   5.341 -0.5054  0.4065  0.3996
  130OSM   H15T13924   5.620   3.478   5.388 -0.2772 -0.2249 -0.6941
  130OSM   C16S13925   5.432   3.490   5.502  0.5392 -0.3367 -0.1816
  130OSM   H16S13926   5.445   3.383   5.529  2.7364 -0.6646 -2.1286
  130OSM   H16T13927   5.325   3.514   5.483  0.5543 -0.7986 -0.9041
  130OSM   C17S13928   5.470   3.582   5.610  0.2028 -0.5165 -0.2804
  130OSM   H17S13929   5.415   3.566   5.705  2.5548  0.4406  1.3421
  130OSM   H17T13930   5.452   3.688   5.584  0.7094 -0.2852  0.2766
  130OSM   C18S13931   5.614   3.570   5.642 -0.3390  0.5039 -0.1566
  130OSM   H18S13932   5.678   3.599   5.556  0.0081 -0.7690 -0.3481
  130OSM   H18T13933   5.648   3.468   5.669  1.7654  0.4694 -2.5743
  130OSM   H18U13934   5.633   3.643   5.725  0.3808 -0.3256  0.4273
  130OSM    C1F13935   5.134   3.365   4.200 -0.1176  0.2301 -0.0682
  130OSM     OF13936   5.105   3.269   4.127 -0.6301 -0.1278  0.2216
  130OSM    C2F13937   5.050   3.406   4.317 -0.1764  0.0091 -0.2883
  130OSM    H2F13938   4.998   3.497   4.280  3.5187  1.4121 -2.6384
  130OSM    H2G13939   5.122   3.433   4.397 -0.9149 -0.3722  0.5254
  130OSM    C3F13940   4.952   3.303   4.353  0.0569 -0.0903 -0.0052
  130OSM    H3F13941   5.009   3.220   4.401 -1.3797 -1.2015 -0.1663
  130OSM    H3G13942   4.897   3.262   4.266 -0.3410 -0.7186  0.5366
  130OSM    C4F13943   4.845   3.364   4.449  0.5147 -0.0683 -0.1418
  130OSM    H4F13944   4.771   3.284   4.469 -0.7699  0.7483 -1.4061
  130OSM    H4G13945   4.788   3.444   4.397  0.8412  0.8329  0.8619
  130OSM    C5F13946   4.883   3.404   4.596 -0.5136 -0.3526  0.1346
  130OSM    H5F13947   4.935   3.502   4.592  0.4921 -0.9105 -1.6688
  130OSM    H5G13948   4.941   3.327   4.652  0.0583  0.2059  0.3142
  130OSM    C6F13949   4.754   3.427   4.679 -0.5750 -0.3280  0.2286
  130OSM    H6F13950   4.686   3.342   4.658 -0.5242 -0.1975 -0.4932
  130OSM    H6G13951   4.706   3.522   4.648  1.1990  0.1450 -1.2784
  130OSM    C7F13952   4.792   3.446   4.832  0.2534 -0.8335  0.4506
  130OSM    H7F13953   4.851   3.539   4.845  1.6974 -1.7519  0.7080
  130OSM    H7G13954   4.871   3.372   4.855  0.0123 -1.5856 -1.0161
  130OSM    C8F13955   4.672   3.446   4.920 -0.3256 -0.2348 -1.0278
  130OSM    H8F13956   4.611   3.536   4.899  0.9162  0.8980  0.0214
  130OSM    H8G13957   4.703   3.454   5.026 -0.8558 -1.2644 -0.7760
  130OSM    C9F13958   4.588   3.318   4.917 -0.1151  0.8178  0.6506
  130OSM    H9F13959   4.594   3.266   4.820  0.5935  0.8040  0.6960
  130OSM   C10F13960   4.510   3.281   5.018  0.7235  0.4554  1.2694
  130OSM   H10F13961   4.457   3.186   5.000  3.1470 -1.1472  2.1176
  130OSM   C11F13962   4.484   3.356   5.144  0.0415 -0.7332  0.4386
  130OSM   H11F13963   4.374   3.371   5.152 -0.2352 -0.9805 -2.0409
  130OSM   H11G13964   4.536   3.453   5.128  1.5009 -1.1711  2.1948
  130OSM   C12F13965   4.526   3.297   5.283 -0.4895 -0.6202 -0.5590
  130OSM   H12F13966   4.518   3.371   5.366  0.9689  0.0725 -1.0010
  130OSM   H12G13967   4.635   3.277   5.269 -0.1151  0.0538  1.0991
  130OSM   C13F13968   4.459   3.172   5.330 -0.2559  0.0050  0.6668
  130OSM   H13F13969   4.445   3.108   5.240 -0.4357  1.4455 -0.3497
  130OSM   H13G13970   4.361   3.177   5.381  0.1941 -0.1952  1.5837
  130OSM   C14F13971   4.536   3.105   5.440  0.0990 -0.1780 -0.4483
  130OSM   H14F13972   4.564   3.176   5.521 -1.3407  1.1026 -1.0181
  130OSM   H14G13973   4.630   3.065   5.398  0.4277 -0.5695  0.6058
  130OSM   C15F13974   4.464   2.979   5.485 -0.1543 -0.2517 -0.6254
  130OSM   H15F13975   4.415   2.947   5.391  2.7309  0.7231 -2.5910
  130OSM   H15G13976   4.377   3.004   5.549 -0.7332  0.6587 -1.7579
  130OSM   C16F13977   4.547   2.876   5.554  0.6868  0.1037 -0.0195
  130OSM   H16F13978   4.475   2.795   5.579 -1.4941  1.6458 -1.0038
  130OSM   H16G13979   4.597   2.915   5.645  1.5390 -1.0642  0.0381
  130OSM   C17F13980   4.664   2.831   5.470  0.4424 -0.3192  0.3751
  130OSM   H17F13981   4.647   2.855   5.363  2.9821  0.9597  0.1760
  130OSM   H17G13982   4.661   2.720   5.481  2.1932 -0.6539 -1.8540
  130OSM   C18F13983   4.799   2.889   5.507  0.3780  0.7039 -0.2949
  130OSM   H18F13984   4.821   2.879   5.615  0.8431  1.8715 -0.2652
  130OSM   H18G13985   4.799   2.999   5.490 -0.6112  0.8810  0.7705
  130OSM   H18H13986   4.876   2.824   5.460 -1.1812 -0.7316 -0.9790
  131OSM      N13987   2.230   0.198   3.155 -0.5407 -0.5050 -0.4380
  131OSM    C1513988   2.299   0.146   3.283  0.2460 -0.1190 -0.7078
  131OSM   H15A13989   2.290   0.040   3.303  1.3500  0.1525  1.3920
  131OSM   H15B13990   2.242   0.186   3.366 -1.6285 -1.8587 -1.0562
  131OSM   H15C13991   2.403   0.171   3.277  0.1582  0.4115 -0.1136
  131OSM    C1413992   2.294   0.132   3.037  0.0571  0.4967 -0.1156
  131OSM   H14A13993   2.399   0.157   3.039  0.0836  0.4538 -0.7436
  131OSM   H14B13994   2.259   0.158   2.938  0.4834  0.5659 -0.2531
  131OSM   H14C13995   2.288   0.025   3.050  1.2686  0.2529 -1.2879
  131OSM    C1313996   2.094   0.164   3.161  0.1433 -0.5604  0.7414
  131OSM   H13A13997   2.047   0.200   3.071  0.5427 -0.2263  0.6654
  131OSM   H13B13998   2.041   0.216   3.239  0.0424  0.6866 -0.1266
  131OSM   H13C13999   2.073   0.058   3.164 -0.6343 -0.5092 -1.0772
  131OSM    C1214000   2.242   0.351   3.157 -1.9506 -0.2397  0.6018
  131OSM   H12A14001   2.177   0.395   3.231  1.0454  0.7696  2.8435
  131OSM   H12B14002   2.200   0.385   3.064  1.9474 -0.9220 -1.5942
  131OSM    C1114003   2.378   0.413   3.176 -0.5500 -0.3547 -0.9725
  131OSM   H11A14004   2.410   0.410   3.283  0.3935 -1.8184 -1.2745
  131OSM   H11B14005   2.363   0.521   3.155 -1.1936  0.1023  1.4886
  131OSM      P14006   2.613   0.406   3.091  0.0378  0.2864  0.2828
  131OSM    O1314007   2.711   0.330   3.008  0.6840 -0.5119 -0.4470
  131OSM    O1414008   2.620   0.553   3.068  0.1838  0.1958  0.0272
  131OSM    O1114009   2.637   0.389   3.241 -0.1957 -0.7882 -0.5956
  131OSM    O1214010   2.469   0.358   3.080  0.4862  0.5495  0.5153
  131OSM    C1S14011   2.766   0.413   3.297 -0.0103 -0.0553  0.9912
  131OSM    H1S14012   2.763   0.522   3.318 -1.5793  0.0539  0.2992
  131OSM    H1T14013   2.854   0.393   3.232 -1.1835  1.3094 -1.1335
  131OSM     NF14014   2.888   0.390   3.502  0.2082 -0.3314  0.1186
  131OSM    HNF14015   2.976   0.342   3.501  1.3272  1.5860  1.3147
  131OSM    C2S14016   2.780   0.334   3.427  0.1710 -0.0283 -0.2297
  131OSM    H2S14017   2.684   0.354   3.479 -0.3475 -0.1964 -1.0891
  131OSM    C3S14018   2.794   0.181   3.413 -0.1829 -0.6382  0.3107
  131OSM    H3S14019   2.880   0.157   3.346  0.5753 -0.3897  1.1722
  131OSM     O314020   2.682   0.130   3.345 -0.0981 -0.4398  0.6051
  131OSM    HO314021   2.661   0.203   3.286  0.9775 -0.7291 -0.1754
  131OSM    C4S14022   2.821   0.115   3.547  0.0779  0.0913 -0.2945
  131OSM    H4S14023   2.742   0.104   3.623  1.3854 -3.9243  0.7171
  131OSM    C5S14024   2.938   0.057   3.581 -0.0036 -0.5086  0.3753
  131OSM    H5S14025   3.019   0.053   3.507  0.5269  1.8286  0.7541
  131OSM    C6S14026   2.958  -0.004   3.711 -0.6698  0.2509  0.2478
  131OSM    H6S14027   2.998  -0.107   3.695 -0.8982  0.2582 -0.3704
  131OSM    H6T14028   2.864  -0.008   3.771  0.5069 -0.1643  2.1821
  131OSM    C7S14029   3.064   0.065   3.799  0.5015  0.8527  0.3145
  131OSM    H7S14030   3.052   0.026   3.902 -2.5677 -2.1147 -0.9854
  131OSM    H7T14031   3.033   0.172   3.801 -3.4170 -0.1442  0.0248
  131OSM    C8S14032   3.206   0.069   3.751  0.4480 -0.0767  0.2938
  131OSM    H8S14033   3.222   0.109   3.649 -1.8405  1.2215  0.3729
  131OSM    H8T14034   3.262  -0.027   3.746  2.3851  0.9344  1.3470
  131OSM    C9S14035   3.289   0.155   3.847 -0.1445  0.0630 -0.9012
  131OSM    H9S14036   3.237   0.253   3.856  0.9205  0.5437  0.2863
  131OSM    H9T14037   3.390   0.178   3.808  0.7005 -0.0927  1.0568
  131OSM   C10S14038   3.302   0.110   4.000  0.0001 -0.4913 -0.0117
  131OSM   H10S14039   3.351   0.011   3.994 -1.5487 -1.5630  3.0079
  131OSM   H10T14040   3.200   0.114   4.045  0.2490  0.2922  0.5027
  131OSM   C11S14041   3.392   0.202   4.084  0.3674 -0.2320  0.0500
  131OSM   H11S14042   3.349   0.304   4.093  1.9945  0.4912 -0.0411
  131OSM   H11T14043   3.488   0.222   4.031  0.8441 -1.1565  0.5435
  131OSM   C12S14044   3.418   0.133   4.224  0.4199  0.0477  0.3804
  131OSM   H12S14045   3.449   0.027   4.210 -1.1471 -0.1950 -1.8054
  131OSM   H12T14046   3.320   0.136   4.278 -0.2439 -1.4589 -0.6629
  131OSM   C13S14047   3.511   0.206   4.317 -0.5984 -0.1221 -0.5809
  131OSM   H13S14048   3.474   0.311   4.325 -0.9603 -0.2069 -1.0678
  131OSM   H13T14049   3.612   0.209   4.270  0.8223 -0.3945  2.2504
  131OSM   C14S14050   3.524   0.134   4.447  0.1390  0.1483 -0.1676
  131OSM   H14S14051   3.574   0.035   4.441 -1.8863 -1.1462  2.2360
  131OSM   H14T14052   3.422   0.105   4.477  0.2036 -0.6936 -0.7511
  131OSM   C15S14053   3.584   0.222   4.559  0.1072 -0.5317 -0.2603
  131OSM   H15S14054   3.503   0.294   4.584 -1.4641 -2.0428 -0.8480
  131OSM   H15T14055   3.676   0.285   4.551  0.3668 -0.8980 -0.1910
  131OSM   C16S14056   3.617   0.146   4.690  0.4680 -1.0036  0.2390
  131OSM   H16S14057   3.717   0.099   4.680  0.8540  0.1033 -1.5725
  131OSM   H16T14058   3.535   0.075   4.715 -0.1024 -0.5646 -0.3408
  131OSM   C17S14059   3.637   0.235   4.806  0.0687 -0.1491 -0.6251
  131OSM   H17S14060   3.713   0.314   4.786  0.2925 -0.6655 -1.9150
  131OSM   H17T14061   3.691   0.171   4.880 -0.6581 -1.1024 -0.9020
  131OSM   C18S14062   3.515   0.303   4.876  0.2973 -0.1054  0.0978
  131OSM   H18S14063   3.432   0.231   4.892 -1.7751  2.3227  0.9411
  131OSM   H18T14064   3.476   0.380   4.806 -0.9719  0.8410  1.7738
  131OSM   H18U14065   3.552   0.344   4.972 -0.6708  1.2759 -0.0861
  131OSM    C1F14066   2.874   0.515   3.559  0.5318  0.1821  0.1125
  131OSM     OF14067   2.783   0.593   3.545  0.4369  0.2180  0.1366
  131OSM    C2F14068   2.985   0.553   3.646 -0.5690  0.1569 -0.0159
  131OSM    H2F14069   3.017   0.659   3.644 -0.6528  0.2310  1.3825
  131OSM    H2G14070   3.076   0.490   3.637 -1.0576 -0.8978  1.8264
  131OSM    C3F14071   2.938   0.519   3.794  0.0813  0.2383  0.5084
  131OSM    H3F14072   2.891   0.419   3.795 -1.2046  0.7974  2.1441
  131OSM    H3G14073   2.871   0.601   3.829 -0.6783  0.3045 -1.0148
  131OSM    C4F14074   3.059   0.522   3.886  0.3848  0.7494 -0.1700
  131OSM    H4F14075   3.101   0.624   3.897  0.5567  0.5913  0.7054
  131OSM    H4G14076   3.141   0.458   3.848  0.0185  0.9054 -1.2705
  131OSM    C5F14077   3.021   0.480   4.025 -0.7228  0.5137 -0.1257
  131OSM    H5F14078   3.001   0.371   4.019  0.3602  0.2409  0.9352
  131OSM    H5G14079   2.922   0.519   4.055 -1.2318 -0.9964  0.2396
  131OSM    C6F14080   3.124   0.518   4.128  0.5544 -0.9353 -0.0288
  131OSM    H6F14081   3.105   0.620   4.168 -0.7707 -1.4321  0.6999
  131OSM    H6G14082   3.230   0.504   4.100  0.9720 -2.2176  1.9866
  131OSM    C7F14083   3.106   0.431   4.259  0.4698  0.1546 -0.5729
  131OSM    H7F14084   3.141   0.328   4.235  1.1858  0.6371 -1.6594
  131OSM    H7G14085   2.996   0.422   4.271  0.3922  1.6186  0.0061
  131OSM    C8F14086   3.165   0.490   4.390 -0.0988  0.1478  0.5267
  131OSM    H8F14087   3.120   0.591   4.400 -1.9478 -0.4851 -0.8055
  131OSM    H8G14088   3.271   0.502   4.362 -0.3797  0.3285 -0.5011
  131OSM    C9F14089   3.150   0.395   4.506 -0.4895  0.4286 -0.3385
  131OSM    H9F14090   3.219   0.310   4.504 -1.7805 -0.6858  0.7058
  131OSM   C10F14091   3.057   0.394   4.600  0.0565  0.2929 -0.1772
  131OSM   H10F14092   3.059   0.310   4.671  1.6055 -0.7621 -1.3860
  131OSM   C11F14093   2.957   0.509   4.611 -0.9413  0.2826 -0.5397
  131OSM   H11F14094   2.890   0.503   4.522 -0.2113  0.0186 -1.0848
  131OSM   H11G14095   3.008   0.607   4.604  0.5337 -0.0684  3.2377
  131OSM   C12F14096   2.898   0.527   4.746 -0.0334 -0.0368 -0.1167
  131OSM   H12F14097   2.834   0.440   4.774 -1.1824  0.3956 -1.2862
  131OSM   H12G14098   2.834   0.616   4.731  1.2110  0.9898  0.5223
  131OSM   C13F14099   2.998   0.564   4.856  1.0833 -0.2273 -0.1334
  131OSM   H13F14100   3.058   0.654   4.830  1.2610 -0.5662 -0.8998
  131OSM   H13G14101   3.068   0.479   4.868  0.4599 -0.8003 -0.5238
  131OSM   C14F14102   2.935   0.604   4.993  0.1477 -0.0389 -0.0335
  131OSM   H14F14103   2.840   0.548   5.009 -0.5605  0.7218 -1.4017
  131OSM   H14G14104   2.902   0.710   4.988 -0.2867  0.0540  2.9154
  131OSM   C15F14105   3.022   0.594   5.122 -0.3726  0.4377 -0.2305
  131OSM   H15F14106   3.122   0.630   5.087 -0.4034  1.4008  0.6609
  131OSM   H15G14107   3.038   0.485   5.142 -0.2363  0.5766  0.4256
  131OSM   C16F14108   2.966   0.683   5.237  0.2180 -0.2806  0.3908
  131OSM   H16F14109   2.862   0.660   5.265  0.1562  0.2849  0.6334
  131OSM   H16G14110   2.965   0.784   5.190 -1.1791 -1.7427 -3.0593
  131OSM   C17F14111   3.050   0.662   5.363  0.3250  0.4142  0.0311
  131OSM   H17F14112   3.026   0.735   5.444  0.3975 -0.7220  1.0923
  131OSM   H17G14113   3.155   0.681   5.333 -0.7129  2.0832 -3.0612
  131OSM   C18F14114   3.036   0.516   5.430 -0.7440 -0.0344  0.1579
  131OSM   H18F14115   2.932   0.479   5.441 -0.0770 -1.6792  1.4238
  131OSM   H18G14116   3.076   0.527   5.533  0.5068 -0.8735 -0.2018
  131OSM   H18H14117   3.102   0.435   5.391  0.2910 -0.0089  1.7833
  132OSM      N14118   1.699   0.781   3.534 -0.5717 -0.0164  0.1388
  132OSM    C1514119   1.638   0.793   3.670 -0.1201  0.0401 -0.1883
  132OSM   H15A14120   1.704   0.849   3.736 -0.8942 -0.5998  1.1751
  132OSM   H15B14121   1.628   0.695   3.713  0.2306  0.2908  0.4789
  132OSM   H15C14122   1.543   0.842   3.657 -1.4359 -2.1642  0.6976
  132OSM    C1414123   1.840   0.733   3.545 -0.4938  0.6314  0.1895
  132OSM   H14A14124   1.843   0.631   3.581 -1.4739  0.0711 -1.1942
  132OSM   H14B14125   1.900   0.800   3.604  1.0300 -1.2352  0.8638
  132OSM   H14C14126   1.887   0.734   3.447 -0.4086  0.1957  0.2250
  132OSM    C1314127   1.623   0.682   3.451  0.4704  0.0307  0.7405
  132OSM   H13A14128   1.612   0.593   3.511 -0.0282  0.1821  0.8717
  132OSM   H13B14129   1.682   0.649   3.366  0.6663  0.1733  0.8209
  132OSM   H13C14130   1.535   0.731   3.412  0.5140 -0.1722  0.3749
  132OSM    C1214131   1.696   0.914   3.458  0.4695  0.7535  0.1222
  132OSM   H12A14132   1.748   0.986   3.520  0.4891  0.2369  0.7204
  132OSM   H12B14133   1.595   0.952   3.452 -0.8440 -2.5745 -1.9302
  132OSM    C1114134   1.752   0.908   3.307 -0.5134  0.5320  0.1423
  132OSM   H11A14135   1.700   0.837   3.240  0.7022 -1.1805  0.9455
  132OSM   H11B14136   1.858   0.874   3.313 -0.3324  1.1934  0.8495
  132OSM      P14137   1.875   1.115   3.187 -0.0405 -0.0471 -0.1450
  132OSM    O1314138   1.906   1.046   3.061 -0.9069  0.1601  0.3092
  132OSM    O1414139   1.841   1.255   3.165  0.6591  0.0667  0.2275
  132OSM    O1114140   1.993   1.085   3.292 -0.2868 -0.4086 -0.0308
  132OSM    O1214141   1.746   1.035   3.246 -0.1668 -0.3589  0.0903
  132OSM    C1S14142   1.990   1.145   3.421  0.3827  1.2426  0.4502
  132OSM    H1S14143   1.891   1.141   3.472  0.6272 -0.9958  0.8804
  132OSM    H1T14144   2.034   1.246   3.411 -0.0857  1.1996 -3.2690
  132OSM     NF14145   2.080   1.097   3.653  0.4908  0.2633  0.0159
  132OSM    HNF14146   2.134   1.175   3.685  0.0272  0.3215  0.6694
  132OSM    C2S14147   2.081   1.060   3.513  0.1022  0.3275 -0.5085
  132OSM    H2S14148   2.038   0.958   3.501  0.5096  0.1758 -0.6928
  132OSM    C3S14149   2.224   1.053   3.458 -0.3663 -0.5443 -0.0063
  132OSM    H3S14150   2.278   1.150   3.460  0.2044 -0.7800 -1.7588
  132OSM     O314151   2.239   1.001   3.325 -0.0063 -0.1789  0.0323
  132OSM    HO314152   2.157   1.002   3.274  0.2811 -1.8195 -0.4900
  132OSM    C4S14153   2.310   0.956   3.531  0.2925  0.4642  0.9340
  132OSM    H4S14154   2.277   0.851   3.522  0.2709  0.5577 -0.3856
  132OSM    C5S14155   2.433   0.979   3.584  0.4864  1.0036 -0.2810
  132OSM    H5S14156   2.479   1.075   3.611  1.6971  0.4954 -0.4676
  132OSM    C6S14157   2.519   0.866   3.631  0.5394  0.9333 -0.3602
  132OSM    H6S14158   2.627   0.866   3.606  0.4671  1.9392 -0.7126
  132OSM    H6T14159   2.479   0.769   3.593  2.2193  0.0562  0.0270
  132OSM    C7S14160   2.525   0.854   3.787  0.1121 -0.4065 -0.5558
  132OSM    H7S14161   2.426   0.851   3.838  0.7194 -1.7517  0.6078
  132OSM    H7T14162   2.584   0.933   3.839  0.2829 -0.3730 -0.7988
  132OSM    C8S14163   2.590   0.724   3.830 -0.1015 -0.0082  0.1617
  132OSM    H8S14164   2.685   0.718   3.773 -0.2516  1.6613 -0.2935
  132OSM    H8T14165   2.527   0.634   3.810  0.9942 -0.8104  0.2507
  132OSM    C9S14166   2.609   0.722   3.983  0.4273 -0.2847 -0.4176
  132OSM    H9S14167   2.688   0.799   4.001  3.1849 -2.9692 -0.2988
  132OSM    H9T14168   2.656   0.625   4.010  0.5132  0.1686  1.1745
  132OSM   C10S14169   2.478   0.747   4.061 -0.7012  0.3797 -0.3367
  132OSM   H10S14170   2.408   0.662   4.047  0.9480 -1.1544  0.2971
  132OSM   H10T14171   2.428   0.842   4.034  0.7703  1.7338  1.4241
  132OSM   C11S14172   2.493   0.747   4.214 -0.1496 -0.1575 -0.1606
  132OSM   H11S14173   2.575   0.814   4.249  0.0310 -0.3494 -0.2137
  132OSM   H11T14174   2.520   0.643   4.241 -0.6456  0.0253  1.1227
  132OSM   C12S14175   2.365   0.788   4.295  0.1699  0.0525  0.0236
  132OSM   H12S14176   2.278   0.721   4.282  1.1713 -1.9674  2.7271
  132OSM   H12T14177   2.338   0.894   4.273 -0.4709 -0.2479 -0.6397
  132OSM   C13S14178   2.412   0.798   4.448  0.4019  0.2783 -0.0012
  132OSM   H13S14179   2.342   0.869   4.495 -0.8395 -0.0963 -1.2028
  132OSM   H13T14180   2.511   0.849   4.450  1.3691 -1.5432  0.8807
  132OSM   C14S14181   2.404   0.668   4.518 -0.1870 -0.7571  0.0558
  132OSM   H14S14182   2.460   0.588   4.466 -0.1295  1.2303 -3.2365
  132OSM   H14T14183   2.304   0.627   4.543 -0.4211 -0.1166  0.1896
  132OSM   C15S14184   2.459   0.675   4.663  0.6330  0.1993 -0.4246
  132OSM   H15S14185   2.439   0.778   4.697 -1.1211 -0.2153 -0.1098
  132OSM   H15T14186   2.569   0.672   4.679  0.2344  1.5243  3.3882
  132OSM   C16S14187   2.402   0.562   4.756 -0.1271  0.0553 -0.1893
  132OSM   H16S14188   2.437   0.462   4.723  3.0551  1.3196 -1.0140
  132OSM   H16T14189   2.291   0.567   4.755 -0.2307 -1.6987 -2.3860
  132OSM   C17S14190   2.449   0.585   4.901  1.1218 -0.2683  0.0308
  132OSM   H17S14191   2.404   0.685   4.918  1.6937  0.4499 -2.3336
  132OSM   H17T14192   2.560   0.594   4.906  1.2605 -1.6111 -0.2682
  132OSM   C18S14193   2.406   0.476   5.006  0.3976 -1.0023  0.0076
  132OSM   H18S14194   2.296   0.460   5.015 -0.0304  0.5464 -1.6697
  132OSM   H18T14195   2.457   0.502   5.101  0.2288 -1.0414  0.1093
  132OSM   H18U14196   2.452   0.382   4.969  1.3956 -0.3000 -0.5869
  132OSM    C1F14197   1.972   1.082   3.717 -0.1716  0.6165  0.0666
  132OSM     OF14198   1.902   0.984   3.689 -0.0399  0.5676 -0.1378
  132OSM    C2F14199   1.927   1.179   3.823  0.3305  0.1088 -1.2803
  132OSM    H2F14200   1.955   1.280   3.787  0.6077  0.4592 -0.1331
  132OSM    H2G14201   1.978   1.143   3.916 -1.1958  0.5083 -0.2468
  132OSM    C3F14202   1.772   1.164   3.861 -0.4753  0.2097  0.7112
  132OSM    H3F14203   1.755   1.061   3.899 -0.9340  0.5645  1.4881
  132OSM    H3G14204   1.714   1.170   3.767 -2.5749  1.4753  2.0245
  132OSM    C4F14205   1.718   1.262   3.966 -0.0284  0.8021 -0.9342
  132OSM    H4F14206   1.621   1.222   4.002  0.8748 -2.3074 -1.6338
  132OSM    H4G14207   1.707   1.365   3.926 -1.2840  1.2550  0.4800
  132OSM    C5F14208   1.820   1.265   4.086  0.1678  0.2583 -0.0758
  132OSM    H5F14209   1.925   1.289   4.057  0.0809 -0.3107 -0.8971
  132OSM    H5G14210   1.825   1.164   4.131  1.8766  0.2838 -0.1196
  132OSM    C6F14211   1.786   1.350   4.201 -0.6524 -0.2790 -0.4049
  132OSM    H6F14212   1.676   1.351   4.187 -0.5262  0.1655 -1.4635
  132OSM    H6G14213   1.809   1.456   4.176 -0.3975  0.0107  0.9403
  132OSM    C7F14214   1.832   1.309   4.344 -0.3938  0.1146  0.6479
  132OSM    H7F14215   1.943   1.318   4.352 -0.4479  1.9366 -0.1858
  132OSM    H7G14216   1.798   1.204   4.355  0.4314 -0.3781 -1.0880
  132OSM    C8F14217   1.774   1.404   4.454 -0.0359 -0.2291 -0.4946
  132OSM    H8F14218   1.806   1.355   4.548  0.6269 -0.4352 -0.8184
  132OSM    H8G14219   1.663   1.400   4.461  0.0483 -1.4544  0.3667
  132OSM    C9F14220   1.820   1.548   4.442 -0.2939 -0.1992 -0.4988
  132OSM    H9F14221   1.773   1.616   4.369 -1.3054 -0.1244  0.2066
  132OSM   C10F14222   1.930   1.594   4.507 -0.5880 -0.1041  0.7087
  132OSM   H10F14223   1.967   1.697   4.493 -1.0383 -0.1017 -0.6455
  132OSM   C11F14224   2.008   1.517   4.606  0.0395  0.6699 -0.2858
  132OSM   H11F14225   2.114   1.547   4.611  0.6609 -1.2975 -0.9288
  132OSM   H11G14226   2.014   1.412   4.572  0.9823  0.5853  0.1244
  132OSM   C12F14227   1.955   1.532   4.745  0.3348  0.1571  0.4355
  132OSM   H12F14228   2.001   1.459   4.815  1.4006  1.8016  1.5296
  132OSM   H12G14229   1.844   1.521   4.747  0.2814  0.5052 -0.2167
  132OSM   C13F14230   2.011   1.655   4.809 -0.2644 -0.1487 -0.2939
  132OSM   H13F14231   1.956   1.745   4.774 -0.0763  0.4150  0.8107
  132OSM   H13G14232   2.119   1.665   4.786  0.3372 -1.6539  1.5726
  132OSM   C14F14233   2.002   1.649   4.966 -0.9264 -0.1717 -0.8144
  132OSM   H14F14234   2.026   1.549   5.010  1.1165  1.7509  2.9376
  132OSM   H14G14235   1.897   1.672   4.993 -0.9251  1.2248 -1.8967
  132OSM   C15F14236   2.078   1.757   5.045 -0.8187  0.5259 -0.7569
  132OSM   H15F14237   2.038   1.773   5.147  0.5467 -1.5289  0.1565
  132OSM   H15G14238   2.085   1.858   4.999  0.0598  0.7301 -0.2126
  132OSM   C16F14239   2.231   1.722   5.053 -0.4222 -0.4831  0.0146
  132OSM   H16F14240   2.287   1.733   4.958  0.2425  0.0969  0.4629
  132OSM   H16G14241   2.241   1.616   5.082 -0.2183  0.3361  3.4083
  132OSM   C17F14242   2.311   1.809   5.150  0.0676  0.2401  0.0442
  132OSM   H17F14243   2.399   1.753   5.186 -0.8038  0.0569  2.0294
  132OSM   H17G14244   2.246   1.831   5.238 -0.5318 -1.0143 -0.0614
  132OSM   C18F14245   2.365   1.938   5.090 -0.3483  0.0472  0.0678
  132OSM   H18F14246   2.287   1.989   5.029  1.3781  0.1733 -2.1761
  132OSM   H18G14247   2.448   1.919   5.018  0.2081 -1.6808  1.1168
  132OSM   H18H14248   2.407   2.007   5.166 -0.5899  2.6651 -1.9936
  133OSM      N14249   0.794   6.789   3.158 -0.3465  0.0127 -0.0466
  133OSM    C1514250   0.898   6.859   3.080  0.0197 -0.6779 -0.5857
  133OSM   H15A14251   0.893   6.841   2.974  1.6018 -3.0611 -0.3267
  133OSM   H15B14252   0.998   6.827   3.102  0.2485  0.3291 -0.1024
  133OSM   H15C14253   0.890   6.965   3.101  2.5005 -0.3482 -1.0395
  133OSM    C1414254   0.657   6.844   3.142  0.8950 -0.2850  0.5124
  133OSM   H14A14255   0.582   6.815   3.215 -0.8017 -0.5058 -1.2398
  133OSM   H14B14256   0.616   6.824   3.044 -1.7778 -0.2987  1.5565
  133OSM   H14C14257   0.656   6.951   3.149  2.2254 -0.3307  2.1110
  133OSM    C1314258   0.788   6.643   3.125 -0.3700 -0.0479  0.3934
  133OSM   H13A14259   0.874   6.583   3.153 -1.0068 -0.9433  0.4784
  133OSM   H13B14260   0.773   6.621   3.021 -2.7033  1.1241  0.4253
  133OSM   H13C14261   0.699   6.604   3.173 -1.1224  0.4388 -0.5821
  133OSM    C1214262   0.829   6.784   3.309  0.1634 -0.0873  0.2271
  133OSM   H12A14263   0.764   6.717   3.364  1.1094 -0.5542  0.7899
  133OSM   H12B14264   0.807   6.884   3.343  0.1000  1.4194 -3.6906
  133OSM    C1114265   0.971   6.747   3.357 -0.0503  0.4143 -0.3270
  133OSM   H11A14266   0.969   6.738   3.467  0.3504  0.3828 -0.3197
  133OSM   H11B14267   1.036   6.833   3.328 -0.8740  1.6802  1.3861
  133OSM      P14268   0.991   6.486   3.357 -0.1605  0.1872 -0.0348
  133OSM    O1314269   0.847   6.489   3.397 -0.1347 -0.1783  0.5299
  133OSM    O1414270   1.037   6.387   3.258 -0.1049 -0.2360 -0.0758
  133OSM    O1114271   1.077   6.484   3.489  0.3019  0.3089  0.1431
  133OSM    O1214272   1.026   6.630   3.299 -0.1339  0.5672  0.4883
  133OSM    C1S14273   1.207   6.550   3.506 -0.4964 -0.3513 -0.8814
  133OSM    H1S14274   1.197   6.660   3.502 -0.3903 -0.1783  1.5854
  133OSM    H1T14275   1.276   6.533   3.421  1.3402 -0.8928  0.6460
  133OSM     NF14276   1.411   6.579   3.629 -0.3126 -0.1239 -0.4913
  133OSM    HNF14277   1.487   6.514   3.624 -0.3767 -0.2625  0.2628
  133OSM    C2S14278   1.286   6.512   3.638 -0.4871 -0.2709 -0.6736
  133OSM    H2S14279   1.226   6.550   3.723  0.8343 -0.4715  0.3759
  133OSM    C3S14280   1.300   6.355   3.651  0.7916 -1.3426 -0.4348
  133OSM    H3S14281   1.341   6.312   3.558  0.5280  0.1300 -1.2538
  133OSM     O314282   1.179   6.282   3.652  0.1550 -0.8172  0.2815
  133OSM    HO314283   1.125   6.349   3.610 -0.4054 -1.6788 -0.4148
  133OSM    C4S14284   1.381   6.315   3.776  0.4802  0.9396 -0.1179
  133OSM    H4S14285   1.490   6.312   3.765  0.5062 -2.8437  0.1313
  133OSM    C5S14286   1.325   6.274   3.893  0.5537 -0.7424  0.5931
  133OSM    H5S14287   1.216   6.259   3.894  0.4432 -0.7343 -2.1033
  133OSM    C6S14288   1.398   6.222   4.009 -0.1509  0.0239  0.7069
  133OSM    H6S14289   1.505   6.244   3.986 -1.0707  0.1240 -4.8440
  133OSM    H6T14290   1.375   6.115   4.028  1.8641 -0.8535 -1.3596
  133OSM    C7S14291   1.359   6.294   4.137 -0.0516 -0.0980  0.2973
  133OSM    H7S14292   1.253   6.269   4.160 -1.1735  3.1502 -0.7841
  133OSM    H7T14293   1.376   6.402   4.121  0.3125 -0.0246  1.1350
  133OSM    C8S14294   1.453   6.248   4.244  0.5290  0.2710 -0.5751
  133OSM    H8S14295   1.560   6.270   4.226  1.0255 -1.7946 -0.4215
  133OSM    H8T14296   1.449   6.138   4.262 -0.7000  0.1859 -1.2531
  133OSM    C9S14297   1.417   6.292   4.384  0.8621  0.1575  0.3314
  133OSM    H9S14298   1.314   6.254   4.403  1.4498 -0.4461  2.5811
  133OSM    H9T14299   1.420   6.402   4.395 -0.4370  0.2647 -0.1877
  133OSM   C10S14300   1.511   6.226   4.480 -0.2587  0.5895 -0.4655
  133OSM   H10S14301   1.619   6.231   4.452  0.4648  2.5372  2.2790
  133OSM   H10T14302   1.489   6.117   4.471  0.4162  0.4286 -0.2146
  133OSM   C11S14303   1.498   6.273   4.628  0.5490  0.0921 -0.1221
  133OSM   H11S14304   1.390   6.264   4.654  0.6325 -0.7247 -0.0412
  133OSM   H11T14305   1.516   6.383   4.636 -1.2767  0.4408 -0.3273
  133OSM   C12S14306   1.601   6.202   4.710 -0.3923  0.2661 -0.1146
  133OSM   H12S14307   1.700   6.210   4.659 -0.5399  3.1446 -0.1361
  133OSM   H12T14308   1.584   6.092   4.706  1.2180 -0.1187  1.8173
  133OSM   C13S14309   1.623   6.273   4.847  1.4393 -0.5228 -0.2381
  133OSM   H13S14310   1.542   6.257   4.921  1.8042  0.6453  0.4296
  133OSM   H13T14311   1.616   6.382   4.826  0.1980 -0.4950  0.2679
  133OSM   C14S14312   1.749   6.253   4.921 -0.2753 -0.4540  0.2928
  133OSM   H14S14313   1.830   6.280   4.849 -2.4566  2.1759 -1.3385
  133OSM   H14T14314   1.768   6.149   4.956  0.8385  0.0353  1.2015
  133OSM   C15S14315   1.752   6.336   5.044 -0.5679  0.3931 -0.2567
  133OSM   H15S14316   1.658   6.322   5.102 -1.3872  1.0200 -1.3915
  133OSM   H15T14317   1.754   6.444   5.020 -0.7402  0.4881  0.1402
  133OSM   C16S14318   1.881   6.297   5.124 -0.5970 -0.0911 -0.4707
  133OSM   H16S14319   1.980   6.331   5.087  0.0718 -1.9373 -0.5007
  133OSM   H16T14320   1.878   6.187   5.137 -1.8742  0.1750  1.8490
  133OSM   C17S14321   1.883   6.346   5.270 -0.0600 -0.5079  0.4663
  133OSM   H17S14322   1.785   6.314   5.310 -1.0110  3.3615  1.6306
  133OSM   H17T14323   1.896   6.456   5.274  1.0392 -0.5650 -0.8970
  133OSM   C18S14324   2.004   6.301   5.355 -0.7234 -0.0912  0.0385
  133OSM   H18S14325   2.030   6.194   5.345 -1.2585 -0.2257  0.0508
  133OSM   H18T14326   1.990   6.328   5.462 -2.3327 -0.2392 -0.1120
  133OSM   H18U14327   2.090   6.366   5.327  0.7078 -1.8006  0.2793
  133OSM    C1F14328   1.431   6.709   3.622  1.0257 -0.6302  0.8703
  133OSM     OF14329   1.338   6.789   3.604  0.5265 -0.1450 -0.0974
  133OSM    C2F14330   1.572   6.746   3.621  0.5032 -0.2366 -0.7454
  133OSM    H2F14331   1.610   6.717   3.520  0.2644 -0.4373 -0.7789
  133OSM    H2G14332   1.624   6.682   3.695  0.9866  0.5540 -0.3820
  133OSM    C3F14333   1.611   6.900   3.647 -0.0465  0.3948  0.5538
  133OSM    H3F14334   1.553   6.955   3.569  0.7686 -0.4509 -0.6955
  133OSM    H3G14335   1.719   6.905   3.622 -0.7017  0.6692 -2.6854
  133OSM    C4F14336   1.576   6.962   3.784  0.1345  0.0281 -0.1712
  133OSM    H4F14337   1.465   6.957   3.782  0.1315 -1.2262  1.5388
  133OSM    H4G14338   1.588   7.072   3.769 -1.8208 -0.0112 -2.8921
  133OSM    C5F14339   1.630   6.887   3.908  0.1290 -0.0988  0.5843
  133OSM    H5F14340   1.741   6.878   3.911  0.2177  0.8046  0.4589
  133OSM    H5G14341   1.589   6.784   3.907  1.2719 -0.5654  0.0188
  133OSM    C6F14342   1.609   6.952   4.041  0.2479 -0.2828 -0.7013
  133OSM    H6F14343   1.630   7.061   4.029  2.9482 -0.7991 -1.1950
  133OSM    H6G14344   1.689   6.921   4.111  0.8895 -0.0864 -1.3419
  133OSM    C7F14345   1.471   6.921   4.100  0.0570  0.0746 -0.1116
  133OSM    H7F14346   1.442   6.814   4.090 -3.3587  0.8179  0.4554
  133OSM    H7G14347   1.397   6.955   4.024  0.7106  2.0059  0.0561
  133OSM    C8F14348   1.458   6.977   4.244  0.0104  0.5949  0.4076
  133OSM    H8F14349   1.357   6.955   4.283 -0.4763 -0.6025 -1.3988
  133OSM    H8G14350   1.468   7.086   4.222 -3.6629  0.9258 -0.2624
  133OSM    C9F14351   1.576   6.923   4.329 -0.0820 -0.5307 -0.3825
  133OSM    H9F14352   1.598   6.815   4.325  2.3312 -0.3438  3.2507
  133OSM   C10F14353   1.662   6.994   4.406  0.2697 -0.6310  0.2467
  133OSM   H10F14354   1.743   6.941   4.459 -0.7526 -2.5905 -0.0904
  133OSM   C11F14355   1.660   7.144   4.424  0.1755  0.0151 -0.3501
  133OSM   H11F14356   1.592   7.194   4.352 -1.6150 -1.7283  0.0514
  133OSM   H11G14357   1.762   7.188   4.416  0.9574 -1.0545  2.4418
  133OSM   C12F14358   1.621   7.185   4.569  1.0166 -0.1820  0.8398
  133OSM   H12F14359   1.518   7.151   4.591  0.7798  1.3497  2.3406
  133OSM   H12G14360   1.616   7.296   4.571 -1.0736 -0.1813 -0.5940
  133OSM   C13F14361   1.723   7.155   4.681 -0.0132  0.3712  0.3911
  133OSM   H13F14362   1.827   7.169   4.646  0.1362 -0.9870  0.2204
  133OSM   H13G14363   1.724   7.045   4.699 -1.0053  0.4947  1.2847
  133OSM   C14F14364   1.694   7.238   4.807  0.3767  0.6484  0.1771
  133OSM   H14F14365   1.589   7.209   4.831  0.4820 -0.9399 -1.1018
  133OSM   H14G14366   1.701   7.347   4.789  0.7749  0.7105  0.6856
  133OSM   C15F14367   1.788   7.200   4.925 -0.4568  0.8921  0.3968
  133OSM   H15F14368   1.894   7.232   4.922 -0.0664 -0.3044  0.7615
  133OSM   H15G14369   1.788   7.088   4.926 -1.6044  0.8690  1.9980
  133OSM   C16F14370   1.732   7.231   5.059 -0.0331  1.0687 -0.0174
  133OSM   H16F14371   1.628   7.195   5.052 -0.2641  1.5341  0.8442
  133OSM   H16G14372   1.733   7.341   5.067 -0.1492  0.9524  2.8016
  133OSM   C17F14373   1.811   7.172   5.181 -0.0661  0.4172 -0.4670
  133OSM   H17F14374   1.913   7.214   5.174 -0.0950  0.8069  1.0104
  133OSM   H17G14375   1.829   7.063   5.171 -1.4270 -0.0968  1.8773
  133OSM   C18F14376   1.755   7.199   5.325 -0.2951  0.2410  0.0651
  133OSM   H18F14377   1.747   7.307   5.351 -4.5623  0.1978 -0.2389
  133OSM   H18G14378   1.796   7.134   5.405 -2.0609  0.7461  1.4691
  133OSM   H18H14379   1.649   7.165   5.320  0.1168 -1.1147  0.2418
  134OSM      N14380   6.249   5.531   3.552  0.3433  0.3361  0.0429
  134OSM    C1514381   6.142   5.568   3.450  0.4803 -0.4515 -0.6943
  134OSM   H15A14382   6.150   5.674   3.431 -2.5783  0.5949  2.7603
  134OSM   H15B14383   6.046   5.552   3.498  1.6067 -0.7570  1.6182
  134OSM   H15C14384   6.135   5.508   3.361  0.2452  0.6962 -1.4631
  134OSM    C1414385   6.368   5.497   3.469  0.4729  0.1168  0.5624
  134OSM   H14A14386   6.450   5.472   3.535  1.7136  0.3180 -0.8255
  134OSM   H14B14387   6.397   5.582   3.409 -2.6968  0.7787 -0.2091
  134OSM   H14C14388   6.336   5.423   3.397 -3.5047  4.0261 -2.2191
  134OSM    C1314389   6.270   5.643   3.646  1.1111 -1.0540  0.3811
  134OSM   H13A14390   6.293   5.735   3.594  3.9495 -0.7343  1.9789
  134OSM   H13B14391   6.336   5.617   3.728 -0.7861  0.1787  2.4058
  134OSM   H13C14392   6.183   5.666   3.706  1.6698 -0.6001  1.0403
  134OSM    C1214393   6.195   5.411   3.628  0.3412  0.0624 -0.3745
  134OSM   H12A14394   6.120   5.447   3.697  1.4419  0.1505  0.7896
  134OSM   H12B14395   6.271   5.381   3.698 -0.7111  1.2043  1.3151
  134OSM    C1114396   6.144   5.289   3.542 -0.5038 -0.1575 -0.1656
  134OSM   H11A14397   6.064   5.326   3.475  0.7486  1.3301 -0.9254
  134OSM   H11B14398   6.106   5.201   3.599  3.2280 -1.8407  0.0354
  134OSM      P14399   6.354   5.122   3.490  0.1414  0.1346 -0.0080
  134OSM    O1314400   6.297   4.985   3.455  0.4543  0.0731  0.1000
  134OSM    O1414401   6.479   5.156   3.423  0.2050  0.1145 -0.1062
  134OSM    O1114402   6.383   5.137   3.650 -0.3986 -0.1785 -0.1436
  134OSM    O1214403   6.242   5.234   3.458  0.0327  0.0749 -0.3742
  134OSM    C1S14404   6.499   5.220   3.689  0.8955 -0.0771 -0.1147
  134OSM    H1S14405   6.483   5.323   3.653  2.0097  0.7190  1.5323
  134OSM    H1T14406   6.592   5.185   3.639 -0.0629 -2.5561 -0.3420
  134OSM     NF14407   6.589   5.347   3.871  0.3616 -0.0799 -0.6809
  134OSM    HNF14408   6.686   5.352   3.847  0.7385  3.3092  0.9431
  134OSM    C2S14409   6.518   5.222   3.842  0.1158 -0.3889  0.7876
  134OSM    H2S14410   6.423   5.216   3.900 -1.5932 -0.6242 -1.8860
  134OSM    C3S14411   6.586   5.085   3.877 -0.4330 -0.1027  0.1056
  134OSM    H3S14412   6.684   5.076   3.824 -0.9742 -1.1414 -0.7480
  134OSM     O314413   6.506   4.977   3.831 -0.2156 -0.2075  0.1546
  134OSM    HO314414   6.434   5.023   3.786  0.3663  0.1757 -0.4038
  134OSM    C4S14415   6.606   5.078   4.025  0.1249 -0.5306 -0.2114
  134OSM    H4S14416   6.691   5.136   4.063 -1.6856  1.5712  0.8901
  134OSM    C5S14417   6.534   5.022   4.126 -0.2267 -0.3164  0.3927
  134OSM    H5S14418   6.445   4.966   4.094 -0.1332 -0.7133  0.8165
  134OSM    C6S14419   6.581   5.030   4.271  0.4536 -0.4471  0.3599
  134OSM    H6S14420   6.679   5.083   4.281  0.3695 -0.1352 -0.3769
  134OSM    H6T14421   6.593   4.932   4.321  0.7999 -0.0490  1.0801
  134OSM    C7S14422   6.480   5.097   4.366 -0.0723  0.4260 -0.2020
  134OSM    H7S14423   6.397   5.023   4.368  1.6074 -1.5746 -1.0541
  134OSM    H7T14424   6.450   5.199   4.333  1.0612  1.6059  2.0995
  134OSM    C8S14425   6.543   5.116   4.512 -0.3914 -0.5733 -0.1133
  134OSM    H8S14426   6.636   5.176   4.511 -0.3966 -0.0840  4.6306
  134OSM    H8T14427   6.587   5.017   4.535  1.0582 -0.2581 -1.3771
  134OSM    C9S14428   6.457   5.162   4.628 -0.2197  0.5800 -0.1936
  134OSM    H9S14429   6.387   5.079   4.653  2.1016 -1.0820  1.2113
  134OSM    H9T14430   6.399   5.254   4.605  0.0178  0.2739 -2.1475
  134OSM   C10S14431   6.534   5.192   4.759  0.7518  0.5317 -0.4184
  134OSM   H10S14432   6.580   5.293   4.757  0.5266  0.6718  0.9297
  134OSM   H10T14433   6.612   5.116   4.779 -0.8798 -0.6982  1.6265
  134OSM   C11S14434   6.443   5.194   4.884  0.1647  0.1358  0.3869
  134OSM   H11S14435   6.392   5.096   4.892 -0.4198  0.3131 -1.0204
  134OSM   H11T14436   6.361   5.269   4.877  0.3937  0.3006 -0.7505
  134OSM   C12S14437   6.520   5.231   5.008 -0.3385  0.0097  0.1504
  134OSM   H12S14438   6.625   5.199   4.993 -0.2283 -0.6987  2.1401
  134OSM   H12T14439   6.486   5.160   5.087 -0.7089  0.5970  0.5222
  134OSM   C13S14440   6.501   5.374   5.050 -0.0649 -0.1640  0.2425
  134OSM   H13S14441   6.394   5.395   5.074 -0.5761  1.5442 -2.9412
  134OSM   H13T14442   6.526   5.433   4.959 -0.7350 -1.8749 -1.1252
  134OSM   C14S14443   6.592   5.412   5.170 -0.9261  0.7620 -0.0392
  134OSM   H14S14444   6.696   5.415   5.132 -1.2942  1.9675 -1.0030
  134OSM   H14T14445   6.582   5.343   5.257  1.1470  0.8474  0.3056
  134OSM   C15S14446   6.568   5.558   5.219  0.0004  0.1821  0.2596
  134OSM   H15S14447   6.487   5.552   5.295 -0.0813 -2.9273  0.0407
  134OSM   H15T14448   6.534   5.617   5.131  0.6162  1.2538  0.7138
  134OSM   C16S14449   6.698   5.609   5.280 -0.6179  0.5214 -0.5769
  134OSM   H16S14450   6.696   5.715   5.315  1.3185 -0.2734  2.2811
  134OSM   H16T14451   6.774   5.599   5.199  1.2094  1.7986  0.8942
  134OSM   C17S14452   6.749   5.540   5.411  0.4886  0.0529  0.0230
  134OSM   H17S14453   6.751   5.429   5.408  1.0461  0.0728 -0.9592
  134OSM   H17T14454   6.675   5.568   5.489  0.5307  0.8477 -0.2108
  134OSM   C18S14455   6.882   5.603   5.460  0.2193  0.3701 -0.3472
  134OSM   H18S14456   6.959   5.609   5.381  0.4879 -0.4231 -0.1613
  134OSM   H18T14457   6.925   5.543   5.544  0.5735  0.2103 -0.6417
  134OSM   H18U14458   6.863   5.707   5.495 -0.6801  0.8255 -2.1097
  134OSM    C1F14459   6.518   5.459   3.879  0.4449  0.1776 -0.3976
  134OSM     OF14460   6.398   5.446   3.867  0.2403 -0.3569  0.3833
  134OSM    C2F14461   6.592   5.586   3.900  0.5351  0.6393  0.7558
  134OSM    H2F14462   6.629   5.621   3.801  1.4948 -1.7795  0.1867
  134OSM    H2G14463   6.683   5.575   3.961  0.2270  0.4241  1.1827
  134OSM    C3F14464   6.518   5.692   3.987 -0.7888 -0.0190  0.0771
  134OSM    H3F14465   6.426   5.719   3.930 -1.8695  0.1627  1.8272
  134OSM    H3G14466   6.588   5.778   3.998  0.1396 -0.7992  0.3483
  134OSM    C4F14467   6.485   5.645   4.126 -0.4448  0.1041 -0.5341
  134OSM    H4F14468   6.533   5.548   4.149 -2.5260 -0.7396  0.5399
  134OSM    H4G14469   6.374   5.639   4.127 -0.4869  0.8617 -0.2487
  134OSM    C5F14470   6.506   5.738   4.243  0.0464 -0.0579 -0.0229
  134OSM    H5F14471   6.473   5.839   4.209 -2.3184 -0.8052 -0.1374
  134OSM    H5G14472   6.610   5.768   4.265  0.4131 -2.0860  1.2629
  134OSM    C6F14473   6.431   5.695   4.371 -0.3992 -0.4973 -0.2128
  134OSM    H6F14474   6.329   5.661   4.343 -0.4190  1.1159 -2.3237
  134OSM    H6G14475   6.412   5.783   4.435 -3.1391 -2.1063  1.3755
  134OSM    C7F14476   6.508   5.602   4.461  0.0004  0.1416  0.3382
  134OSM    H7F14477   6.612   5.637   4.478 -0.1171  0.7809 -0.2199
  134OSM    H7G14478   6.522   5.502   4.415 -2.7746  0.7108 -2.0111
  134OSM    C8F14479   6.462   5.578   4.605 -0.4305 -0.2756  0.0453
  134OSM    H8F14480   6.446   5.680   4.646  2.8448  1.0551 -1.5982
  134OSM    H8G14481   6.529   5.512   4.663  0.6017  0.6154 -0.1001
  134OSM    C9F14482   6.331   5.512   4.607  0.4233  0.1506  0.5812
  134OSM    H9F14483   6.308   5.455   4.516  0.0468 -0.9507  1.3437
  134OSM   C10F14484   6.239   5.550   4.696 -0.5007  0.0200 -0.2363
  134OSM   H10F14485   6.139   5.506   4.697  0.0134 -1.1897 -0.4081
  134OSM   C11F14486   6.264   5.638   4.815 -0.4545  0.1244 -0.3847
  134OSM   H11F14487   6.220   5.733   4.777 -1.0980  0.3250  0.7814
  134OSM   H11G14488   6.371   5.639   4.842 -0.3040  0.4079 -0.9853
  134OSM   C12F14489   6.178   5.603   4.934  0.9078 -0.6205  0.1176
  134OSM   H12F14490   6.206   5.497   4.951 -3.8729 -2.0658  0.4382
  134OSM   H12G14491   6.069   5.608   4.913  0.7852 -0.6846  0.7139
  134OSM   C13F14492   6.203   5.686   5.060 -0.7732  0.1655  0.0268
  134OSM   H13F14493   6.170   5.789   5.036  0.7016  0.5658 -0.3918
  134OSM   H13G14494   6.314   5.690   5.061 -0.8019  1.7981  0.9269
  134OSM   C14F14495   6.130   5.631   5.189  0.2034 -0.5615  0.4350
  134OSM   H14F14496   6.142   5.521   5.180 -1.0250 -0.7343  0.8351
  134OSM   H14G14497   6.023   5.658   5.183  0.4702  0.7444  1.1099
  134OSM   C15F14498   6.204   5.674   5.314  0.2356 -0.7037 -0.2405
  134OSM   H15F14499   6.208   5.785   5.314  1.6673 -0.7160 -1.8469
  134OSM   H15G14500   6.309   5.639   5.320  0.0194 -1.6731 -1.7373
  134OSM   C16F14501   6.143   5.614   5.445  0.5818  0.5612  0.1206
  134OSM   H16F14502   6.206   5.656   5.527 -0.6177  0.5276  1.0821
  134OSM   H16G14503   6.157   5.504   5.450 -0.2282  0.4785  0.7541
  134OSM   C17F14504   5.996   5.653   5.456 -0.1068  0.0271  0.2464
  134OSM   H17F14505   5.931   5.611   5.377 -1.5548 -2.5112  2.6291
  134OSM   H17G14506   5.979   5.763   5.446  2.7212  0.6144  0.9474
  134OSM   C18F14507   5.926   5.612   5.585  0.6127  0.3268 -0.2549
  134OSM   H18F14508   5.970   5.517   5.622 -0.7587  0.9272  3.3388
  134OSM   H18G14509   5.816   5.597   5.586  0.9129 -2.5773 -1.0313
  134OSM   H18H14510   5.957   5.682   5.665  0.6622 -1.2090  1.1112
  135OSM      N14511   2.264   1.188   2.955  0.0875 -0.1829  0.3338
  135OSM    C1514512   2.113   1.208   2.924  0.0659 -0.3700 -0.0937
  135OSM   H15A14513   2.049   1.145   2.983 -1.3351  0.7576 -0.3467
  135OSM   H15B14514   2.093   1.190   2.820 -3.0373 -1.2328  0.5499
  135OSM   H15C14515   2.091   1.310   2.952  0.3944 -0.8030  1.8601
  135OSM    C1414516   2.305   1.052   2.915  0.0604 -1.1799  0.9108
  135OSM   H14A14517   2.309   1.043   2.808  2.1567 -3.3270  1.0779
  135OSM   H14B14518   2.229   0.983   2.947 -1.7487 -0.0086 -0.6941
  135OSM   H14C14519   2.405   1.040   2.956  1.9882  1.6618 -2.4229
  135OSM    C1314520   2.347   1.291   2.876  0.2921  0.1434  0.1793
  135OSM   H13A14521   2.337   1.393   2.907 -0.2540  0.4985 -1.1035
  135OSM   H13B14522   2.329   1.272   2.771  1.9271  1.6798 -0.4263
  135OSM   H13C14523   2.455   1.285   2.883  0.6614  2.7771 -1.8458
  135OSM    C1214524   2.288   1.210   3.102  0.0131  0.1640 -0.2224
  135OSM   H12A14525   2.386   1.174   3.129  0.0756  0.8290  0.4780
  135OSM   H12B14526   2.212   1.153   3.155 -0.9935  0.8202 -0.9136
  135OSM    C1114527   2.277   1.353   3.163 -0.2190 -0.5756  0.3542
  135OSM   H11A14528   2.253   1.352   3.271 -1.2550  0.1818  0.1436
  135OSM   H11B14529   2.182   1.397   3.126 -1.1174 -3.4355 -0.9916
  135OSM      P14530   2.526   1.426   3.202 -0.3462 -0.0115  0.0600
  135OSM    O1314531   2.579   1.294   3.168 -0.0297 -0.0223  0.1738
  135OSM    O1414532   2.604   1.551   3.160  0.3333  0.1478  0.4929
  135OSM    O1114533   2.498   1.424   3.358  0.2634 -0.4514  0.3018
  135OSM    O1214534   2.393   1.435   3.130  0.7398 -0.2549  0.6875
  135OSM    C1S14535   2.476   1.555   3.420 -0.0951 -0.3781 -0.0849
  135OSM    H1S14536   2.367   1.571   3.402 -0.1894 -0.4631  0.3987
  135OSM    H1T14537   2.537   1.638   3.378 -1.3133  0.3421 -0.4928
  135OSM     NF14538   2.465   1.660   3.642  0.7488 -0.1954 -0.8635
  135OSM    HNF14539   2.536   1.726   3.665  1.4763 -1.2150 -0.1118
  135OSM    C2S14540   2.508   1.540   3.573  0.1552  0.3551  0.3291
  135OSM    H2S14541   2.444   1.454   3.602 -0.3610  0.4466 -0.5028
  135OSM    C3S14542   2.655   1.491   3.590 -0.6593 -0.3953 -0.1541
  135OSM    H3S14543   2.723   1.559   3.534  0.6262 -1.5661 -0.0519
  135OSM     O314544   2.690   1.363   3.541 -0.3662  0.2827 -0.1885
  135OSM    HO314545   2.628   1.354   3.468  0.4636 -3.9425 -0.5987
  135OSM    C4S14546   2.702   1.501   3.734 -0.0049 -0.6844 -0.2332
  135OSM    H4S14547   2.736   1.604   3.746  1.3471 -0.8842 -1.9139
  135OSM    C5S14548   2.671   1.420   3.844  0.4787 -0.2744  1.0977
  135OSM    H5S14549   2.599   1.339   3.829  0.4901 -0.3245  1.3081
  135OSM    C6S14550   2.699   1.440   3.989  0.6321 -0.4564  0.1509
  135OSM    H6S14551   2.771   1.367   4.033  0.4217 -0.5642  0.3251
  135OSM    H6T14552   2.596   1.438   4.031  0.2491  0.0582 -0.7438
  135OSM    C7S14553   2.770   1.577   4.028  0.8874 -0.0166  0.1626
  135OSM    H7S14554   2.684   1.647   4.029 -0.9333 -2.0495 -1.9845
  135OSM    H7T14555   2.847   1.607   3.954  1.6924 -1.0382  0.5523
  135OSM    C8S14556   2.832   1.585   4.167 -0.3795  0.0943  0.4291
  135OSM    H8S14557   2.884   1.682   4.179 -0.9446  0.0535  4.2618
  135OSM    H8T14558   2.910   1.505   4.160 -0.3108  0.3025 -2.1091
  135OSM    C9S14559   2.731   1.563   4.280  0.2713 -0.1475 -0.3430
  135OSM    H9S14560   2.666   1.479   4.249 -0.3242  0.8164 -1.7860
  135OSM    H9T14561   2.666   1.652   4.288  1.2685  0.9511 -3.1386
  135OSM   C10S14562   2.802   1.521   4.409  0.3866  0.6869  0.0045
  135OSM   H10S14563   2.846   1.423   4.380 -1.1506  0.3553 -1.3393
  135OSM   H10T14564   2.724   1.512   4.487  2.8180  0.2290  2.5348
  135OSM   C11S14565   2.904   1.618   4.464  0.3501 -0.0497  0.0990
  135OSM   H11S14566   2.835   1.704   4.475  0.2851 -0.1237  0.2634
  135OSM   H11T14567   2.976   1.650   4.385 -0.0808 -0.8748 -0.6541
  135OSM   C12S14568   2.968   1.576   4.590 -0.4448 -0.2636  0.2513
  135OSM   H12S14569   2.888   1.552   4.664  0.5159  0.4048  1.5446
  135OSM   H12T14570   3.022   1.660   4.637 -1.5146  0.1490  0.7815
  135OSM   C13S14571   3.078   1.473   4.573  0.3516 -0.1724 -0.2538
  135OSM   H13S14572   3.147   1.512   4.495 -1.1062  2.2563 -0.4306
  135OSM   H13T14573   3.015   1.391   4.534 -0.9472  1.4220 -1.6551
  135OSM   C14S14574   3.144   1.423   4.705 -0.0016  0.2886 -0.6801
  135OSM   H14S14575   3.077   1.382   4.784 -0.2864  2.5056  0.2908
  135OSM   H14T14576   3.212   1.501   4.742  0.0946 -0.6514  1.2309
  135OSM   C15S14577   3.229   1.302   4.665 -0.6846  0.3804 -0.3984
  135OSM   H15S14578   3.292   1.324   4.576  0.0710 -0.3634 -0.0595
  135OSM   H15T14579   3.164   1.216   4.635 -0.3616  0.7838 -2.4286
  135OSM   C16S14580   3.324   1.259   4.779  0.1871  0.2435  0.7367
  135OSM   H16S14581   3.370   1.161   4.753  0.2977 -0.1641  2.3448
  135OSM   H16T14582   3.260   1.258   4.870 -1.5587  3.8393 -0.2910
  135OSM   C17S14583   3.437   1.356   4.790  0.5065 -0.1513 -0.3657
  135OSM   H17S14584   3.401   1.461   4.796  1.5883  0.3019 -1.3763
  135OSM   H17T14585   3.500   1.366   4.699 -0.7594  1.0260 -1.1604
  135OSM   C18S14586   3.544   1.328   4.900  0.4789 -0.0091  0.2244
  135OSM   H18S14587   3.598   1.232   4.882  1.4225  0.4814  0.3635
  135OSM   H18T14588   3.488   1.307   4.994  1.9449  1.9306  1.6336
  135OSM   H18U14589   3.620   1.408   4.915  1.2458 -0.7761  0.4997
  135OSM    C1F14590   2.335   1.697   3.669 -0.2784 -0.5103 -0.7816
  135OSM     OF14591   2.247   1.612   3.681  0.6144 -0.2241  0.9424
  135OSM    C2F14592   2.306   1.841   3.690  0.6059  0.4250  0.1332
  135OSM    H2F14593   2.287   1.890   3.592 -1.3833  3.0961  1.7064
  135OSM    H2G14594   2.391   1.895   3.737  0.9208  0.3716 -0.3649
  135OSM    C3F14595   2.184   1.878   3.783  0.2593 -0.0640  0.8129
  135OSM    H3F14596   2.096   1.829   3.736  0.4557 -0.3480  0.7376
  135OSM    H3G14597   2.176   1.989   3.776  0.3132 -0.1425 -0.8236
  135OSM    C4F14598   2.199   1.827   3.927 -0.5744 -0.2056  0.7964
  135OSM    H4F14599   2.212   1.717   3.917 -0.5783 -0.1450  0.0428
  135OSM    H4G14600   2.109   1.855   3.986 -1.1352  1.5828 -0.8041
  135OSM    C5F14601   2.329   1.864   4.013  0.7888  1.1067  0.0530
  135OSM    H5F14602   2.328   1.974   4.031  1.7817  0.9703  1.0654
  135OSM    H5G14603   2.418   1.848   3.948  0.1082 -0.4580 -0.5299
  135OSM    C6F14604   2.349   1.797   4.147  0.6422  0.3624  0.0753
  135OSM    H6F14605   2.353   1.689   4.122  0.9329  0.4866 -0.4483
  135OSM    H6G14606   2.266   1.807   4.220 -0.5138 -0.0423 -1.1419
  135OSM    C7F14607   2.476   1.831   4.222  0.1160  0.0513 -0.3968
  135OSM    H7F14608   2.569   1.844   4.164  1.2751  0.0656  1.4026
  135OSM    H7G14609   2.491   1.751   4.297  0.1564 -0.1278 -0.5953
  135OSM    C8F14610   2.456   1.962   4.311 -0.6434  0.3368  0.3873
  135OSM    H8F14611   2.369   1.952   4.378 -1.0380  1.9813  0.1777
  135OSM    H8G14612   2.444   2.044   4.237  1.5639 -0.9700 -1.5487
  135OSM    C9F14613   2.582   1.989   4.388  0.5202 -0.6848  0.7332
  135OSM    H9F14614   2.649   2.066   4.347 -0.2059 -0.5061 -0.1429
  135OSM   C10F14615   2.632   1.929   4.490  0.0405  0.6036  0.2091
  135OSM   H10F14616   2.722   1.970   4.537  0.5376 -0.2540  0.0322
  135OSM   C11F14617   2.558   1.825   4.573 -0.4165 -0.4697 -0.1134
  135OSM   H11F14618   2.585   1.719   4.552 -0.9313 -0.4050 -1.1452
  135OSM   H11G14619   2.450   1.829   4.547 -0.5223  1.4065  0.4461
  135OSM   C12F14620   2.569   1.866   4.718 -0.6734 -0.1943 -0.9656
  135OSM   H12F14621   2.495   1.799   4.766 -1.6787  0.3033 -1.7797
  135OSM   H12G14622   2.539   1.971   4.740 -0.1150  0.4771 -3.1352
  135OSM   C13F14623   2.703   1.804   4.784  0.1660 -0.6121 -0.8431
  135OSM   H13F14624   2.788   1.874   4.764  2.1328 -2.3866  0.8046
  135OSM   H13G14625   2.731   1.717   4.721 -0.8447 -0.5746 -1.3615
  135OSM   C14F14626   2.685   1.772   4.937 -0.5565 -0.5457 -0.3712
  135OSM   H14F14627   2.597   1.709   4.961 -0.2479 -0.9064 -0.1745
  135OSM   H14G14628   2.681   1.866   4.995  0.9722 -2.1516  2.6016
  135OSM   C15F14629   2.811   1.691   4.984 -0.3599  0.7882 -0.3915
  135OSM   H15F14630   2.797   1.590   4.941  0.1961  0.4609  0.1677
  135OSM   H15G14631   2.797   1.684   5.094  0.8196 -1.0884 -0.3293
  135OSM   C16F14632   2.939   1.749   4.940  0.8249  0.4975 -0.6425
  135OSM   H16F14633   2.960   1.845   4.992  3.9284  1.0847 -2.7087
  135OSM   H16G14634   2.952   1.768   4.831  1.3139 -1.5505 -0.9891
  135OSM   C17F14635   3.053   1.654   4.961  0.3687  0.9209  0.3731
  135OSM   H17F14636   3.138   1.702   4.907  1.5565  0.7148  2.0089
  135OSM   H17G14637   3.034   1.556   4.912 -0.1394 -0.0975  2.5239
  135OSM   C18F14638   3.092   1.624   5.102  0.9394  0.0366  0.6489
  135OSM   H18F14639   3.136   1.717   5.145  1.5945  0.4076 -0.7682
  135OSM   H18G14640   3.177   1.552   5.100  2.6166  1.8524 -2.8047
  135OSM   H18H14641   3.013   1.575   5.163 -0.4019  2.0208  0.6092
  136OSM      N14642   1.878   3.414   2.448 -0.7434  0.3806  0.1972
  136OSM    C1514643   1.894   3.278   2.386  0.5881  0.0688 -0.0583
  136OSM   H15A14644   1.998   3.258   2.364  0.1804 -1.4701 -0.6705
  136OSM   H15B14645   1.826   3.266   2.304 -0.5056 -0.0083  0.8402
  136OSM   H15C14646   1.848   3.211   2.457  4.4903 -0.5110  2.2405
  136OSM    C1414647   1.885   3.527   2.350  0.0883  0.7243  0.2396
  136OSM   H14A14648   1.981   3.528   2.301  0.4363  0.7171  0.9173
  136OSM   H14B14649   1.870   3.626   2.392 -1.3460  0.9054 -0.6275
  136OSM   H14C14650   1.807   3.506   2.278 -2.2278 -2.1700  3.2912
  136OSM    C1314651   1.750   3.408   2.519  0.6882 -0.1661 -0.1184
  136OSM   H13A14652   1.764   3.350   2.610 -0.0228 -0.6462 -0.3058
  136OSM   H13B14653   1.681   3.366   2.448  0.0982  0.8039 -0.1269
  136OSM   H13C14654   1.712   3.505   2.547  2.2102  1.1799 -2.4236
  136OSM    C1214655   1.992   3.428   2.548  0.1131 -0.6398  0.0416
  136OSM   H12A14656   2.084   3.430   2.492 -0.5826 -0.1111 -1.1079
  136OSM   H12B14657   2.012   3.338   2.604 -0.9139 -1.5832 -1.0657
  136OSM    C1114658   1.989   3.528   2.665  0.6957  0.0052 -0.6527
  136OSM   H11A14659   1.910   3.511   2.741  0.3698  4.5151  0.3219
  136OSM   H11B14660   1.971   3.631   2.627  0.3501 -0.2744 -1.2659
  136OSM      P14661   2.208   3.646   2.746  0.4684 -0.2258 -0.2965
  136OSM    O1314662   2.338   3.611   2.803  0.4123 -0.0275 -0.1139
  136OSM    O1414663   2.222   3.713   2.614  0.5164  0.2084 -0.1664
  136OSM    O1114664   2.113   3.733   2.843  0.1593  0.1586 -0.0344
  136OSM    O1214665   2.122   3.515   2.728 -0.9335 -0.6310 -0.4349
  136OSM    C1S14666   2.079   3.687   2.976  0.4123 -0.2823 -0.0770
  136OSM    H1S14667   2.082   3.576   2.983  0.8572 -0.4215 -1.8885
  136OSM    H1T14668   1.974   3.709   3.004 -0.2942 -0.3847 -2.4005
  136OSM     NF14669   2.176   3.667   3.207 -0.0259 -0.3510 -0.1002
  136OSM    HNF14670   2.113   3.698   3.277  0.1693  2.3107 -0.9910
  136OSM    C2S14671   2.180   3.742   3.082  0.4438  0.0009  0.1396
  136OSM    H2S14672   2.277   3.725   3.030 -0.2802  0.2967 -1.3603
  136OSM    C3S14673   2.162   3.901   3.092  0.5424  0.8009  0.0614
  136OSM    H3S14674   2.077   3.919   3.162 -0.0777  0.1837 -0.5241
  136OSM     O314675   2.119   3.973   2.976 -0.2116 -0.0540  0.3715
  136OSM    HO314676   2.115   3.908   2.905  0.1948  0.3665 -0.0451
  136OSM    C4S14677   2.289   3.957   3.158  0.0629  0.3633  0.1077
  136OSM    H4S14678   2.267   3.990   3.261  0.1857  1.2148 -0.1282
  136OSM    C5S14679   2.415   3.995   3.110  0.5129 -0.3416  0.4099
  136OSM    H5S14680   2.424   3.991   3.001 -3.2098 -4.6533 -0.0612
  136OSM    C6S14681   2.519   4.068   3.192 -0.3772  0.8983  0.4794
  136OSM    H6S14682   2.486   4.114   3.288 -1.1286 -0.1078  0.7175
  136OSM    H6T14683   2.553   4.151   3.127 -0.3393 -0.0670 -0.7805
  136OSM    C7S14684   2.650   3.990   3.220  0.2009 -0.7852 -0.2397
  136OSM    H7S14685   2.714   4.061   3.277  0.5868 -0.2563 -1.3106
  136OSM    H7T14686   2.703   3.978   3.123  0.0382  0.2459 -0.4680
  136OSM    C8S14687   2.623   3.857   3.292 -0.0134  0.0488 -0.2370
  136OSM    H8S14688   2.721   3.808   3.309  0.8221  2.0904  1.3664
  136OSM    H8T14689   2.573   3.792   3.217 -2.3966  0.4783  0.8680
  136OSM    C9S14690   2.546   3.854   3.426 -0.1882 -0.6911  0.3997
  136OSM    H9S14691   2.438   3.875   3.411 -0.0951 -1.1890 -1.1218
  136OSM    H9T14692   2.589   3.930   3.495 -0.3633  1.1026 -1.3622
  136OSM   C10S14693   2.548   3.712   3.491  0.0902  0.7847  0.4203
  136OSM   H10S14694   2.650   3.673   3.509 -0.5599 -2.5666 -2.2353
  136OSM   H10T14695   2.502   3.647   3.414 -1.1831 -1.0136  2.5510
  136OSM   C11S14696   2.470   3.705   3.621 -0.6249 -1.0262 -0.4982
  136OSM   H11S14697   2.411   3.613   3.639 -0.1169 -1.1408  0.7013
  136OSM   H11T14698   2.393   3.784   3.619 -0.9769 -1.3212  0.5382
  136OSM   C12S14699   2.561   3.721   3.747  0.5860  0.2063  1.2940
  136OSM   H12S14700   2.607   3.821   3.730  1.1801 -0.3350 -0.5601
  136OSM   H12T14701   2.637   3.640   3.748 -1.3815 -1.7489 -0.5433
  136OSM   C13S14702   2.477   3.719   3.870  0.8852  0.0399 -0.6849
  136OSM   H13S14703   2.387   3.783   3.864  0.2977 -0.7285 -0.3382
  136OSM   H13T14704   2.526   3.770   3.955  0.6455 -2.3945  1.0224
  136OSM   C14S14705   2.452   3.572   3.921 -0.6988  0.3040  0.2093
  136OSM   H14S14706   2.551   3.522   3.928 -0.5409  0.8369  3.4795
  136OSM   H14T14707   2.397   3.507   3.851  0.1603  2.0373 -2.2147
  136OSM   C15S14708   2.410   3.567   4.068  0.1669 -0.9653  0.0833
  136OSM   H15S14709   2.311   3.618   4.074 -0.4136 -1.3452 -3.6729
  136OSM   H15T14710   2.486   3.622   4.128  1.9647 -2.1270 -1.0393
  136OSM   C16S14711   2.405   3.427   4.124 -0.2894  0.2227 -0.4302
  136OSM   H16S14712   2.492   3.369   4.088 -0.2356 -0.3023  0.5168
  136OSM   H16T14713   2.320   3.371   4.079 -0.3939  1.3586 -1.7137
  136OSM   C17S14714   2.405   3.418   4.276  0.0027  0.0007 -0.2931
  136OSM   H17S14715   2.302   3.452   4.300  1.0659  1.7972  2.1731
  136OSM   H17T14716   2.489   3.484   4.307 -1.1209  2.3055 -1.9165
  136OSM   C18S14717   2.425   3.280   4.324  0.6748  0.2078 -0.2603
  136OSM   H18S14718   2.391   3.268   4.429 -1.5867 -0.0951 -0.9863
  136OSM   H18T14719   2.531   3.247   4.323  0.2587 -1.3380  1.4114
  136OSM   H18U14720   2.366   3.207   4.265 -0.6607  0.2993  0.9071
  136OSM    C1F14721   2.216   3.542   3.217 -0.3773 -0.4192 -0.0897
  136OSM     OF14722   2.266   3.483   3.124  0.1562 -0.0228  0.5137
  136OSM    C2F14723   2.195   3.482   3.354  0.8709  0.2887 -0.0108
  136OSM    H2F14724   2.103   3.522   3.402  1.1337  0.5132  0.3128
  136OSM    H2G14725   2.280   3.526   3.410  0.9516  0.8899 -0.5932
  136OSM    C3F14726   2.197   3.328   3.347 -0.6421  0.2025 -0.4621
  136OSM    H3F14727   2.303   3.299   3.329 -0.3297 -3.6382  4.9187
  136OSM    H3G14728   2.120   3.283   3.280 -1.0679  1.4163 -0.8071
  136OSM    C4F14729   2.196   3.271   3.490 -0.0452  0.2660  0.2190
  136OSM    H4F14730   2.231   3.167   3.479  0.6909  0.3116  1.8636
  136OSM    H4G14731   2.092   3.257   3.529 -1.4664 -1.0079 -3.5984
  136OSM    C5F14732   2.289   3.343   3.595  0.2296  0.3421 -0.3559
  136OSM    H5F14733   2.244   3.442   3.618  1.5600  0.6750  0.9610
  136OSM    H5G14734   2.388   3.356   3.547  0.1551  0.3225 -0.5144
  136OSM    C6F14735   2.304   3.267   3.725 -0.7524  0.7652 -0.7892
  136OSM    H6F14736   2.201   3.250   3.761 -0.7528  1.5888 -0.3815
  136OSM    H6G14737   2.367   3.309   3.806 -1.1693  0.5687 -0.3581
  136OSM    C7F14738   2.377   3.127   3.715 -0.3751  0.6849  0.4140
  136OSM    H7F14739   2.475   3.134   3.664  0.1278 -0.1461  1.2343
  136OSM    H7G14740   2.319   3.047   3.664  1.0188  0.1962 -0.4833
  136OSM    C8F14741   2.410   3.067   3.853 -0.3883  0.0697 -0.2285
  136OSM    H8F14742   2.314   3.037   3.902  0.3841 -1.6486  0.3311
  136OSM    H8G14743   2.461   3.143   3.915  0.2374 -0.6877  0.2094
  136OSM    C9F14744   2.493   2.943   3.848  0.1533 -0.2010  0.2426
  136OSM    H9F14745   2.513   2.919   3.743 -2.0196  1.1383 -0.5390
  136OSM   C10F14746   2.550   2.874   3.949  0.0279  0.3176 -0.8878
  136OSM   H10F14747   2.602   2.781   3.922  0.4415 -0.1522  1.3658
  136OSM   C11F14748   2.525   2.907   4.098 -0.3142 -0.4748  0.5746
  136OSM   H11F14749   2.452   2.989   4.112  1.6777  1.7514 -1.3322
  136OSM   H11G14750   2.626   2.935   4.136  0.6642 -1.4059 -1.1874
  136OSM   C12F14751   2.478   2.774   4.171  0.5928 -0.4864 -0.4305
  136OSM   H12F14752   2.561   2.703   4.154  3.0942  2.0762  0.2844
  136OSM   H12G14753   2.381   2.730   4.139 -0.1531  0.3041  0.6617
  136OSM   C13F14754   2.455   2.796   4.318  0.5857 -0.0550 -0.0534
  136OSM   H13F14755   2.395   2.706   4.347  0.9254 -0.5166 -0.7617
  136OSM   H13G14756   2.396   2.888   4.338  0.2427 -0.3571  0.3475
  136OSM   C14F14757   2.586   2.787   4.400  0.4613 -0.4154  0.9866
  136OSM   H14F14758   2.658   2.854   4.348 -2.3074 -0.3692 -3.2666
  136OSM   H14G14759   2.637   2.689   4.398  0.8207 -0.2953  2.6031
  136OSM   C15F14760   2.568   2.809   4.548 -0.4821 -0.3419  0.5584
  136OSM   H15F14761   2.472   2.775   4.595 -0.2060  0.7158  1.9390
  136OSM   H15G14762   2.565   2.917   4.571  0.4941  0.5687 -3.0269
  136OSM   C16F14763   2.675   2.745   4.635 -0.1652  0.2860  0.2120
  136OSM   H16F14764   2.775   2.774   4.598  0.4486 -2.6332 -0.6032
  136OSM   H16G14765   2.676   2.635   4.642  0.0966  0.1940 -1.0696
  136OSM   C17F14766   2.650   2.784   4.789  0.0799 -0.1032 -0.4768
  136OSM   H17F14767   2.547   2.751   4.817  0.7265 -1.9822 -0.1506
  136OSM   H17G14768   2.650   2.895   4.792 -2.4853 -0.0564  1.3431
  136OSM   C18F14769   2.767   2.728   4.871 -0.0951  0.4066  0.5909
  136OSM   H18F14770   2.773   2.618   4.854 -3.9910  0.2763 -1.0141
  136OSM   H18G14771   2.749   2.741   4.980 -1.5389  0.0064  0.4244
  136OSM   H18H14772   2.866   2.763   4.834 -0.9136  1.4507 -0.7161
  137OSM      N14773   6.088   4.068   3.296 -0.3062 -0.2463  0.7792
  137OSM    C1514774   5.996   3.953   3.315 -0.1349 -0.3828  0.2943
  137OSM   H15A14775   6.031   3.872   3.252 -1.5772 -0.5806 -0.2733
  137OSM   H15B14776   5.897   3.971   3.278 -1.5735 -3.0878  2.5135
  137OSM   H15C14777   5.968   3.925   3.415 -0.7883 -1.3968 -0.1631
  137OSM    C1414778   6.060   4.125   3.162 -0.2858 -1.0522  0.0694
  137OSM   H14A14779   6.064   4.052   3.083 -0.0053  0.7371 -1.6401
  137OSM   H14B14780   6.138   4.189   3.123 -1.5587  0.8983  0.5595
  137OSM   H14C14781   5.970   4.183   3.152 -0.4643 -1.3758 -0.2274
  137OSM    C1314782   6.065   4.174   3.398 -0.0490 -0.3458  0.5429
  137OSM   H13A14783   6.097   4.145   3.497  1.8182 -0.1657  0.0450
  137OSM   H13B14784   5.962   4.205   3.407  0.0310  0.2113 -0.3438
  137OSM   H13C14785   6.128   4.261   3.385  0.6110 -0.4172  2.8417
  137OSM    C1214786   6.234   4.022   3.296  0.1888  0.0784 -0.3343
  137OSM   H12A14787   6.250   3.955   3.213  0.3942 -1.6863  1.0621
  137OSM   H12B14788   6.246   3.956   3.381  0.8954  2.9238  1.9284
  137OSM    C1114789   6.351   4.130   3.299  0.0894  0.3105  0.7474
  137OSM   H11A14790   6.442   4.067   3.303  0.7946  1.3331  1.2987
  137OSM   H11B14791   6.346   4.195   3.389 -1.4364 -1.3937  1.9766
  137OSM      P14792   6.459   4.316   3.140 -0.3564  0.0292  0.2117
  137OSM    O1314793   6.570   4.247   3.073  0.4592  0.1120 -0.8423
  137OSM    O1414794   6.405   4.431   3.064  0.5695 -0.2807  0.3002
  137OSM    O1114795   6.500   4.362   3.279  0.1774 -0.0998  0.2797
  137OSM    O1214796   6.345   4.211   3.180  0.2864  0.3723  0.3737
  137OSM    C1S14797   6.447   4.476   3.343 -0.5408  0.0666  0.0106
  137OSM    H1S14798   6.347   4.452   3.387 -0.6357  2.3520  1.1998
  137OSM    H1T14799   6.433   4.555   3.267  2.1441 -1.1266 -1.8727
  137OSM     NF14800   6.475   4.628   3.550  0.3198 -0.6035 -0.8162
  137OSM    HNF14801   6.492   4.723   3.526  0.0079 -0.9555 -2.5866
  137OSM    C2S14802   6.528   4.521   3.470  0.3287 -0.6283  0.1982
  137OSM    H2S14803   6.531   4.425   3.526  1.1080  0.4141  2.0343
  137OSM    C3S14804   6.682   4.544   3.428 -0.0351  0.1812  0.4170
  137OSM    H3S14805   6.671   4.632   3.360 -4.7998 -0.6512 -0.2413
  137OSM     O314806   6.734   4.429   3.356 -0.2373 -0.0897 -0.6304
  137OSM    HO314807   6.660   4.383   3.315  1.0888 -2.1332 -0.8872
  137OSM    C4S14808   6.783   4.568   3.547  0.5993  0.1134 -0.0388
  137OSM    H4S14809   6.776   4.506   3.637  0.6140  1.2582  0.7722
  137OSM    C5S14810   6.862   4.677   3.557  0.2448  0.7517  0.5557
  137OSM    H5S14811   6.866   4.747   3.472 -0.7846  0.5862  0.3606
  137OSM    C6S14812   6.960   4.711   3.660 -0.5678  0.2209  0.1538
  137OSM    H6S14813   6.986   4.819   3.652 -1.9370  0.4330 -2.0040
  137OSM    H6T14814   7.054   4.653   3.647 -0.7771  0.0196 -0.4604
  137OSM    C7S14815   6.924   4.685   3.809 -0.1748  0.6713 -0.6852
  137OSM    H7S14816   7.011   4.730   3.861 -0.5784 -1.8313  2.4578
  137OSM    H7T14817   6.935   4.576   3.825  0.1282  0.8581  0.5010
  137OSM    C8S14818   6.792   4.745   3.857  0.4425 -0.1351  0.5997
  137OSM    H8S14819   6.718   4.706   3.784 -1.1718  2.2125  0.8613
  137OSM    H8T14820   6.790   4.856   3.859 -1.1409 -0.1129 -0.7466
  137OSM    C9S14821   6.759   4.695   3.994  1.0333 -0.2895 -0.2518
  137OSM    H9S14822   6.768   4.585   3.999 -2.4552 -0.6888 -0.3963
  137OSM    H9T14823   6.652   4.709   4.019  1.0611 -0.8478  0.1770
  137OSM   C10S14824   6.841   4.758   4.107 -0.2491  0.0610  0.4362
  137OSM   H10S14825   6.795   4.857   4.126  0.0516 -0.0874  2.0863
  137OSM   H10T14826   6.948   4.758   4.077 -0.0522 -2.6133  0.8795
  137OSM   C11S14827   6.844   4.666   4.232  0.1624 -0.3057  0.0087
  137OSM   H11S14828   6.925   4.590   4.229  0.0984 -0.3461 -2.2418
  137OSM   H11T14829   6.751   4.605   4.234  0.2707 -0.4946 -0.4725
  137OSM   C12S14830   6.853   4.748   4.369 -0.4996 -1.1590  0.1716
  137OSM   H12S14831   6.747   4.773   4.393 -0.2850  2.2243 -1.7488
  137OSM   H12T14832   6.911   4.841   4.350  0.1110 -1.2608  1.4383
  137OSM   C13S14833   6.925   4.673   4.478  0.2299 -0.3200  0.6985
  137OSM   H13S14834   7.030   4.649   4.448 -0.1103 -0.0447 -0.8204
  137OSM   H13T14835   6.879   4.573   4.479  0.6775 -0.5294  2.0208
  137OSM   C14S14836   6.924   4.742   4.610 -0.1000 -0.9308 -0.5352
  137OSM   H14S14837   6.821   4.782   4.621  0.3811  0.1581  0.1390
  137OSM   H14T14838   6.995   4.825   4.628 -0.6895 -0.4057 -0.6093
  137OSM   C15S14839   6.952   4.647   4.731  0.1482  0.1165  0.2351
  137OSM   H15S14840   7.051   4.598   4.715 -0.7957 -1.6622 -0.4129
  137OSM   H15T14841   6.872   4.571   4.742 -0.3626  0.9266  2.6580
  137OSM   C16S14842   6.954   4.708   4.871 -0.2422 -0.4287  0.2693
  137OSM   H16S14843   6.871   4.780   4.889  0.1437  0.0250  0.2543
  137OSM   H16T14844   7.046   4.770   4.869 -1.2286  1.0974  0.8874
  137OSM   C17S14845   6.957   4.612   4.986  0.4306 -0.0003  0.1832
  137OSM   H17S14846   6.862   4.554   4.991 -0.3170  1.2181  0.5623
  137OSM   H17T14847   6.975   4.669   5.080  0.3669 -2.5902  1.8722
  137OSM   C18S14848   7.069   4.509   4.976  0.5130 -0.4652  0.1300
  137OSM   H18S14849   7.068   4.448   5.069 -1.6475 -1.0820 -0.2568
  137OSM   H18T14850   7.164   4.566   4.967  0.7110 -0.4777  1.7555
  137OSM   H18U14851   7.057   4.435   4.894  1.8494 -1.5847  0.8907
  137OSM    C1F14852   6.360   4.598   3.620 -0.2174  0.2147 -0.7488
  137OSM     OF14853   6.310   4.486   3.623  0.1709 -1.0290  0.5590
  137OSM    C2F14854   6.292   4.713   3.676 -0.4914  0.4661  0.7342
  137OSM    H2F14855   6.187   4.711   3.639 -0.4656  1.0289  0.6231
  137OSM    H2G14856   6.341   4.811   3.656 -0.7830  1.1747  3.1947
  137OSM    C3F14857   6.280   4.717   3.829  0.3111  0.4975  0.1266
  137OSM    H3F14858   6.209   4.797   3.857 -0.3233 -0.6025  1.8142
  137OSM    H3G14859   6.377   4.748   3.873 -0.1370  2.3060 -0.0768
  137OSM    C4F14860   6.209   4.596   3.897  0.3096 -0.2436  0.2871
  137OSM    H4F14861   6.250   4.495   3.877  0.7076  0.2869 -1.8407
  137OSM    H4G14862   6.105   4.602   3.858  0.9607  2.7193 -1.2092
  137OSM    C5F14863   6.205   4.613   4.049 -0.6779  0.3159 -0.4853
  137OSM    H5F14864   6.154   4.520   4.081 -2.0724 -0.0558 -3.4125
  137OSM    H5G14865   6.159   4.709   4.081  2.6667  2.4384 -1.4542
  137OSM    C6F14866   6.344   4.623   4.114 -0.5643  0.6766  0.0900
  137OSM    H6F14867   6.373   4.728   4.092 -1.3387  0.7843 -0.4913
  137OSM    H6G14868   6.423   4.560   4.067  0.2824  1.0123  1.0374
  137OSM    C7F14869   6.341   4.602   4.266 -0.4973  0.4070 -0.8215
  137OSM    H7F14870   6.295   4.501   4.277 -1.3979  0.8566 -0.3072
  137OSM    H7G14871   6.275   4.679   4.309 -1.5727 -0.9823  0.1194
  137OSM    C8F14872   6.484   4.613   4.336 -0.0381  0.2958 -0.0043
  137OSM    H8F14873   6.547   4.661   4.258 -0.9590  0.0528 -0.9317
  137OSM    H8G14874   6.525   4.513   4.362  2.3965  1.5817  1.4178
  137OSM    C9F14875   6.484   4.696   4.459 -0.4529  0.3813 -0.6885
  137OSM    H9F14876   6.426   4.789   4.457 -0.4218  0.4542  0.7614
  137OSM   C10F14877   6.530   4.657   4.582  0.6638 -0.1027 -0.2468
  137OSM   H10F14878   6.527   4.729   4.665  2.4476 -0.9113  0.5701
  137OSM   C11F14879   6.581   4.527   4.632 -0.1328 -0.6618 -0.9870
  137OSM   H11F14880   6.680   4.513   4.583  0.1666 -1.1618 -0.2574
  137OSM   H11G14881   6.511   4.446   4.602 -0.9356 -0.1939 -0.4258
  137OSM   C12F14882   6.573   4.525   4.790 -0.3353  0.2476 -0.1466
  137OSM   H12F14883   6.483   4.582   4.823 -0.0615  0.1510  0.7955
  137OSM   H12G14884   6.666   4.563   4.836 -0.7993  2.4850 -0.9248
  137OSM   C13F14885   6.543   4.389   4.848  0.3257  0.4150  0.4069
  137OSM   H13F14886   6.581   4.309   4.782  0.8022 -2.0016  3.3582
  137OSM   H13G14887   6.434   4.366   4.855  0.4367  0.1737  1.6056
  137OSM   C14F14888   6.588   4.371   4.994 -0.5741 -0.1223 -0.0339
  137OSM   H14F14889   6.695   4.396   5.003 -0.5175 -0.8072  1.3947
  137OSM   H14G14890   6.574   4.265   5.025 -2.2971 -0.5653 -2.0224
  137OSM   C15F14891   6.511   4.468   5.080 -0.0398 -0.5287  0.7514
  137OSM   H15F14892   6.407   4.481   5.044 -0.3350  2.1162  2.2937
  137OSM   H15G14893   6.561   4.566   5.061  2.2140 -1.7411 -0.0255
  137OSM   C16F14894   6.519   4.449   5.227 -0.3581  0.8004 -0.3048
  137OSM   H16F14895   6.493   4.343   5.252 -0.6805  0.8817 -0.2877
  137OSM   H16G14896   6.439   4.508   5.277 -2.6420  0.4781 -3.3102
  137OSM   C17F14897   6.659   4.477   5.287  0.3915  0.7247  0.4198
  137OSM   H17F14898   6.693   4.570   5.237  1.9333  0.8757  1.6387
  137OSM   H17G14899   6.718   4.388   5.256 -0.5169  0.4706 -0.6226
  137OSM   C18F14900   6.660   4.501   5.436 -0.2709 -0.0492  0.3035
  137OSM   H18F14901   6.607   4.597   5.454  0.0245 -0.1560  1.9428
  137OSM   H18G14902   6.764   4.513   5.473 -0.0517  0.8554 -0.5467
  137OSM   H18H14903   6.613   4.428   5.505 -0.7559  0.4017  0.4613
  138OSM      N14904   5.090   6.835   3.286  0.3868  0.3760  0.3494
  138OSM    C1514905   5.185   6.722   3.291  0.5087 -0.4906 -0.0823
  138OSM   H15A14906   5.217   6.707   3.189 -0.4633 -1.4151 -0.2641
  138OSM   H15B14907   5.138   6.633   3.330 -0.3272  1.2243  3.1770
  138OSM   H15C14908   5.272   6.740   3.352  1.4171 -1.7755 -0.9438
  138OSM    C1414909   5.155   6.961   3.243 -0.3040 -0.3534  0.1916
  138OSM   H14A14910   5.076   7.033   3.233 -0.2092 -0.1397  0.8883
  138OSM   H14B14911   5.195   6.941   3.145 -1.4667  0.4749 -0.4699
  138OSM   H14C14912   5.233   6.997   3.309  0.6685 -0.5742 -0.8142
  138OSM    C1314913   4.993   6.799   3.178  0.1072 -0.0685 -0.3080
  138OSM   H13A14914   4.942   6.705   3.192 -0.7404  0.3849 -0.2586
  138OSM   H13B14915   5.042   6.789   3.083  0.5555  0.1489 -0.1068
  138OSM   H13C14916   4.913   6.871   3.174  0.8809  0.8440  0.0495
  138OSM    C1214917   5.019   6.846   3.416  0.0743 -0.4769  0.3991
  138OSM   H12A14918   5.091   6.864   3.494 -0.4138  0.7325  0.5815
  138OSM   H12B14919   4.976   6.749   3.437 -1.6665 -0.4223 -2.4363
  138OSM    C1114920   4.909   6.957   3.423 -0.0293  0.0268 -0.1207
  138OSM   H11A14921   4.874   6.952   3.528  3.7309 -1.4070  1.2062
  138OSM   H11B14922   4.830   6.933   3.348  0.5021  1.0165 -1.0336
  138OSM      P14923   4.859   7.210   3.360  0.1654  0.6032 -0.2887
  138OSM    O1314924   4.931   7.339   3.327 -0.2311 -0.2528  0.5195
  138OSM    O1414925   4.766   7.160   3.260  0.0567 -0.2968 -0.4517
  138OSM    O1114926   4.777   7.238   3.498  0.2080 -0.0887 -0.0397
  138OSM    O1214927   4.952   7.092   3.401 -0.0429 -0.3065  0.2806
  138OSM    C1S14928   4.838   7.326   3.588  0.1641  0.5332 -0.3539
  138OSM    H1S14929   4.826   7.429   3.549 -0.8604  0.3971 -0.4217
  138OSM    H1T14930   4.947   7.309   3.594  0.2331  1.0263 -0.1290
  138OSM     NF14931   4.847   7.409   3.819  0.2043  0.6793 -0.2034
  138OSM    HNF14932   4.931   7.386   3.867 -1.8078 -2.6407  2.1729
  138OSM    C2S14933   4.782   7.308   3.735 -0.2235 -0.7225 -0.1203
  138OSM    H2S14934   4.673   7.324   3.722  0.2797  3.3467 -0.6910
  138OSM    C3S14935   4.804   7.165   3.785 -0.0558  1.1267 -0.2395
  138OSM    H3S14936   4.912   7.139   3.787 -0.6101 -1.5028 -1.1784
  138OSM     O314937   4.757   7.064   3.697 -0.3187  0.1528  0.0724
  138OSM    HO314938   4.776   7.103   3.611  1.2378  0.6101  0.5818
  138OSM    C4S14939   4.738   7.160   3.921 -0.3022  0.5951  0.4711
  138OSM    H4S14940   4.817   7.178   3.995  1.4807  1.5355 -1.5380
  138OSM    C5S14941   4.605   7.140   3.944  0.6301 -0.6941  0.0772
  138OSM    H5S14942   4.541   7.113   3.859  0.8843  0.9128 -0.6510
  138OSM    C6S14943   4.538   7.122   4.077 -0.0571  0.1401 -0.4045
  138OSM    H6S14944   4.522   7.013   4.091  1.2996 -0.2111 -1.3915
  138OSM    H6T14945   4.433   7.158   4.077 -0.9542 -2.2584  1.1427
  138OSM    C7S14946   4.610   7.183   4.208  0.2693  0.4008 -0.0108
  138OSM    H7S14947   4.602   7.291   4.185  0.3396  0.1733 -1.1767
  138OSM    H7T14948   4.715   7.148   4.219  0.4430  0.8573 -0.2026
  138OSM    C8S14949   4.542   7.118   4.329 -0.4074 -0.0572 -0.0001
  138OSM    H8S14950   4.538   7.008   4.312  0.2354  0.0716 -1.0951
  138OSM    H8T14951   4.436   7.151   4.337 -0.4337 -0.3221  0.8436
  138OSM    C9S14952   4.611   7.153   4.463 -0.6905 -0.5093 -1.1184
  138OSM    H9S14953   4.537   7.149   4.546 -1.6239 -0.1271 -1.9227
  138OSM    H9T14954   4.642   7.259   4.457  2.0411 -1.1293  0.1445
  138OSM   C10S14955   4.737   7.074   4.501  0.0426  0.1490 -0.4897
  138OSM   H10S14956   4.793   7.053   4.407 -0.1211  0.4050 -0.6444
  138OSM   H10T14957   4.687   6.981   4.534 -1.0141  1.1665  0.8393
  138OSM   C11S14958   4.825   7.135   4.605  0.0113  0.2029  0.0291
  138OSM   H11S14959   4.813   7.245   4.598 -1.4349  0.1929  1.5190
  138OSM   H11T14960   4.933   7.120   4.587 -0.3530  1.0284 -3.6096
  138OSM   C12S14961   4.789   7.091   4.747 -0.2001 -0.6575  0.5164
  138OSM   H12S14962   4.812   6.985   4.769  0.3498 -0.0214  3.5530
  138OSM   H12T14963   4.686   7.121   4.776  0.1816 -0.5141  1.7878
  138OSM   C13S14964   4.880   7.169   4.845  0.0570 -0.7855  0.2223
  138OSM   H13S14965   4.866   7.277   4.825 -1.2714 -0.3230  3.0900
  138OSM   H13T14966   4.989   7.150   4.839  0.2799  0.8090 -2.5582
  138OSM   C14S14967   4.837   7.135   4.992  0.4390 -0.0028 -0.7233
  138OSM   H14S14968   4.885   7.042   5.030  0.9823  0.5105 -0.1154
  138OSM   H14T14969   4.728   7.124   5.004  0.6028 -0.0458  0.9782
  138OSM   C15S14970   4.880   7.244   5.093  0.3868  0.3876  0.2043
  138OSM   H15S14971   4.808   7.325   5.071 -0.5355 -0.2872  0.6371
  138OSM   H15T14972   4.984   7.280   5.084  0.1870  0.8173 -0.4094
  138OSM   C16S14973   4.875   7.199   5.239 -0.1947 -0.2120 -0.3844
  138OSM   H16S14974   4.778   7.150   5.263 -0.7014  1.3991  1.0940
  138OSM   H16T14975   4.876   7.293   5.299 -1.1816  0.1711 -0.9399
  138OSM   C17S14976   4.977   7.094   5.285 -0.8111 -0.0824  0.8103
  138OSM   H17S14977   5.076   7.118   5.239 -2.4802  0.8756 -2.5995
  138OSM   H17T14978   4.935   7.006   5.232 -1.0673  0.7814 -0.4675
  138OSM   C18S14979   5.014   7.075   5.431  0.8195  0.0910  0.7466
  138OSM   H18S14980   5.093   6.997   5.437  0.2714 -0.5935 -0.5390
  138OSM   H18T14981   4.926   7.028   5.482  0.1396  0.1414 -0.3510
  138OSM   H18U14982   5.039   7.171   5.481  0.1265 -0.9160  3.1714
  138OSM    C1F14983   4.811   7.540   3.814 -0.2678  0.3663  0.1700
  138OSM     OF14984   4.720   7.573   3.745 -0.0505 -0.6823  0.1354
  138OSM    C2F14985   4.898   7.641   3.879  0.1647 -0.1757  0.3014
  138OSM    H2F14986   4.948   7.702   3.801  3.1532 -0.4074  1.8756
  138OSM    H2G14987   4.979   7.602   3.946  0.3911  0.2895  0.3004
  138OSM    C3F14988   4.823   7.754   3.959  0.0335 -0.3260  0.3898
  138OSM    H3F14989   4.774   7.821   3.885  0.1459  0.2980  0.8730
  138OSM    H3G14990   4.903   7.810   4.011 -1.1317  2.2556 -0.4479
  138OSM    C4F14991   4.731   7.710   4.077  0.4737  0.8457  0.3165
  138OSM    H4F14992   4.654   7.650   4.023  1.2334  0.6293 -0.5615
  138OSM    H4G14993   4.682   7.793   4.131  0.1081 -0.9279  2.9083
  138OSM    C5F14994   4.805   7.614   4.176  0.2873  0.4372  0.1449
  138OSM    H5F14995   4.857   7.529   4.127 -0.2153  0.1872  0.0372
  138OSM    H5G14996   4.724   7.579   4.244 -0.3074  0.4159 -0.5612
  138OSM    C6F14997   4.899   7.690   4.266  0.2113  0.6382  0.1885
  138OSM    H6F14998   4.837   7.768   4.314  0.8871  0.9612  0.5659
  138OSM    H6G14999   4.979   7.745   4.211  1.6334 -0.3508  1.2028
  138OSM    C7F15000   4.971   7.615   4.374 -0.0443  0.1323  0.1266
  138OSM    H7F15001   5.043   7.681   4.427  1.4219 -2.0942  1.0819
  138OSM    H7G15002   5.043   7.551   4.319  0.9149  0.7890  0.5938
  138OSM    C8F15003   4.881   7.538   4.474  0.6518  0.7037  0.5810
  138OSM    H8F15004   4.939   7.457   4.525  0.3041 -1.9672 -2.8607
  138OSM    H8G15005   4.806   7.482   4.414  1.2244  3.3414 -2.9607
  138OSM    C9F15006   4.814   7.630   4.573 -0.2230  1.2820  0.4250
  138OSM    H9F15007   4.755   7.705   4.518  0.3750  1.2621 -0.2706
  138OSM   C10F15008   4.820   7.628   4.707 -0.1344  0.5743  0.1008
  138OSM   H10F15009   4.778   7.714   4.761  1.0242  0.7724  0.7307
  138OSM   C11F15010   4.900   7.542   4.801  0.0326  0.2107  0.8526
  138OSM   H11F15011   4.976   7.476   4.753  0.1156  1.3399 -0.6355
  138OSM   H11G15012   4.824   7.468   4.837 -2.7519  2.6617  0.3567
  138OSM   C12F15013   4.963   7.608   4.926  0.4901  0.8044 -0.0242
  138OSM   H12F15014   5.012   7.544   5.002 -0.3859 -0.0204 -0.1316
  138OSM   H12G15015   4.876   7.663   4.969 -1.5252 -2.1320 -0.0301
  138OSM   C13F15016   5.071   7.711   4.908 -0.4958  0.2116 -0.1778
  138OSM   H13F15017   5.065   7.747   4.803  1.5398  0.7228 -0.1739
  138OSM   H13G15018   5.170   7.666   4.931 -0.3977  1.9273  3.2784
  138OSM   C14F15019   5.069   7.834   5.004  0.2717 -0.0898 -0.2041
  138OSM   H14F15020   5.066   7.783   5.102 -1.0640  0.4990  0.0796
  138OSM   H14G15021   4.976   7.894   4.996  1.2038  1.4643  0.1703
  138OSM   C15F15022   5.191   7.925   4.999 -0.0464 -0.4333  0.0023
  138OSM   H15F15023   5.194   7.973   4.899 -3.0468 -1.7404 -0.8454
  138OSM   H15G15024   5.275   7.856   5.022  0.3388  0.4485  1.3402
  138OSM   C16F15025   5.191   8.033   5.107 -0.2382  0.0707  0.1585
  138OSM   H16F15026   5.125   8.000   5.190 -0.3264  0.3192  0.1875
  138OSM   H16G15027   5.134   8.120   5.067 -1.0860 -1.7784 -2.9474
  138OSM   C17F15028   5.332   8.059   5.159  0.8689 -0.9198 -0.6390
  138OSM   H17F15029   5.408   8.075   5.079  2.9721 -0.5980  1.2928
  138OSM   H17G15030   5.362   7.966   5.213 -0.6515 -0.9601  0.1850
  138OSM   C18F15031   5.330   8.169   5.273  0.0693 -0.3605 -0.3284
  138OSM   H18F15032   5.434   8.184   5.309 -0.5699  1.6918  0.8036
  138OSM   H18G15033   5.265   8.152   5.363  1.5381  1.9020  1.2518
  138OSM   H18H15034   5.296   8.264   5.227 -0.4879 -1.5751 -2.5687
  139OSM      N15035   3.434   1.187   2.964  0.3114 -0.1083  0.6137
  139OSM    C1515036   3.558   1.102   2.967 -0.2708  0.0975 -0.1981
  139OSM   H15A15037   3.544   0.997   2.991  0.4735 -0.8424 -3.4071
  139OSM   H15B15038   3.626   1.155   3.032  0.3986  0.5445 -1.2334
  139OSM   H15C15039   3.605   1.107   2.870  1.6759  2.6822  0.7645
  139OSM    C1415040   3.458   1.310   2.884 -0.1708  0.4426 -0.2226
  139OSM   H14A15041   3.525   1.371   2.944 -1.5109  2.4271 -0.6335
  139OSM   H14B15042   3.367   1.367   2.871 -1.7963 -2.0024 -0.1724
  139OSM   H14C15043   3.507   1.288   2.791 -1.9019  0.3951 -1.1474
  139OSM    C1315044   3.337   1.104   2.893  0.3735 -0.0266 -1.0176
  139OSM   H13A15045   3.241   1.151   2.879 -0.3508 -1.1789 -0.0242
  139OSM   H13B15046   3.304   1.025   2.958 -0.2529 -0.3104 -1.6666
  139OSM   H13C15047   3.381   1.062   2.803 -2.0782  0.2279 -2.4242
  139OSM    C1215048   3.385   1.222   3.100 -0.3429  0.2312  0.0682
  139OSM   H12A15049   3.461   1.288   3.139  0.1044  0.0602 -0.5093
  139OSM   H12B15050   3.385   1.131   3.159  1.0493 -0.5723 -1.1050
  139OSM    C1115051   3.251   1.289   3.122  0.2653  0.2521 -0.2461
  139OSM   H11A15052   3.251   1.390   3.076 -3.0772 -0.6330 -2.5932
  139OSM   H11B15053   3.251   1.300   3.233 -0.4768  1.3808 -0.3510
  139OSM      P15054   2.997   1.278   3.076  0.0078  0.1141  0.0646
  139OSM    O1315055   3.014   1.401   2.989  0.7385  0.0815  0.6976
  139OSM    O1415056   2.889   1.190   3.044  0.4941 -0.0648 -0.7473
  139OSM    O1115057   2.990   1.328   3.226  0.1705 -0.2123  0.2565
  139OSM    O1215058   3.141   1.204   3.082  0.2562 -0.5078  0.1789
  139OSM    C1S15059   2.932   1.242   3.329  0.0008  0.2021  0.7891
  139OSM    H1S15060   2.940   1.134   3.301 -0.2601  0.3536  0.1296
  139OSM    H1T15061   2.828   1.273   3.352 -0.4083 -0.9761  0.6063
  139OSM     NF15062   2.971   1.158   3.556  0.4650  0.1900 -0.1443
  139OSM    HNF15063   2.920   1.206   3.627  1.9874  1.2890  0.2635
  139OSM    C2S15064   3.024   1.250   3.457 -0.8016  0.5904 -0.3235
  139OSM    H2S15065   3.125   1.216   3.426  0.2702  3.2557  0.0343
  139OSM    C3S15066   3.044   1.400   3.496 -0.2839  0.8168 -0.1996
  139OSM    H3S15067   2.949   1.444   3.531 -0.6090 -1.0944  1.5172
  139OSM     O315068   3.098   1.484   3.399 -0.2133 -0.2208 -0.4278
  139OSM    HO315069   3.104   1.426   3.323 -0.7193  0.5465 -1.0720
  139OSM    C4S15070   3.147   1.412   3.614 -1.3156  0.3595  0.5078
  139OSM    H4S15071   3.246   1.375   3.585 -0.2652  2.9292  0.4993
  139OSM    C5S15072   3.129   1.446   3.731 -0.5149 -0.5655 -0.3323
  139OSM    H5S15073   3.034   1.486   3.771  0.5360 -0.4833  2.2565
  139OSM    C6S15074   3.237   1.443   3.835 -0.6553 -0.2782 -0.3577
  139OSM    H6S15075   3.335   1.413   3.793  0.4337 -2.1677  3.1286
  139OSM    H6T15076   3.216   1.369   3.914 -0.8811 -0.5546 -0.6743
  139OSM    C7S15077   3.255   1.578   3.908  0.6204 -0.3795 -0.3932
  139OSM    H7S15078   3.161   1.616   3.955  0.7196 -1.0983  0.4028
  139OSM    H7T15079   3.288   1.656   3.835 -0.9070  1.9014  1.1883
  139OSM    C8S15080   3.356   1.577   4.025 -0.8822 -0.4542 -0.2122
  139OSM    H8S15081   3.390   1.682   4.038 -0.2617 -0.5650 -0.8638
  139OSM    H8T15082   3.448   1.526   3.988 -0.2503  0.4919  0.0069
  139OSM    C9S15083   3.295   1.519   4.160 -0.0790  0.1345 -0.1683
  139OSM    H9S15084   3.379   1.481   4.222  0.1304 -2.0297 -1.6854
  139OSM    H9T15085   3.237   1.430   4.128 -0.0986  0.3178 -0.6490
  139OSM   C10S15086   3.212   1.619   4.236  0.0967  0.3666  0.3948
  139OSM   H10S15087   3.138   1.566   4.300  0.7237 -1.3520 -0.2383
  139OSM   H10T15088   3.155   1.682   4.164  0.1369  1.2545  1.1111
  139OSM   C11S15089   3.305   1.710   4.310  0.1034 -0.2000  0.0150
  139OSM   H11S15090   3.395   1.731   4.249 -1.5839  0.7130 -2.3122
  139OSM   H11T15091   3.339   1.652   4.398  2.2973  0.1563 -0.5466
  139OSM   C12S15092   3.239   1.838   4.349 -0.1962  0.2064 -0.0522
  139OSM   H12S15093   3.158   1.812   4.420 -1.3888  1.2049 -1.0013
  139OSM   H12T15094   3.185   1.890   4.267  1.0815 -0.3162 -1.2556
  139OSM   C13S15095   3.338   1.937   4.416  0.3781 -0.3830  0.0350
  139OSM   H13S15096   3.290   2.030   4.454  0.0140 -1.2185  1.7363
  139OSM   H13T15097   3.411   1.969   4.339  1.9526 -0.4752  1.4319
  139OSM   C14S15098   3.409   1.872   4.536  0.5118  0.2529 -0.3760
  139OSM   H14S15099   3.497   1.936   4.555  0.5471  0.8546 -2.4060
  139OSM   H14T15100   3.438   1.765   4.527  0.0526 -0.0334  1.2592
  139OSM   C15S15101   3.319   1.881   4.668 -0.3886  0.0881 -0.0944
  139OSM   H15S15102   3.236   1.808   4.657 -0.5587  0.2762 -0.0552
  139OSM   H15T15103   3.272   1.981   4.661  2.0356  1.3434  0.4839
  139OSM   C16S15104   3.389   1.873   4.805 -0.2688  0.3585 -0.2018
  139OSM   H16S15105   3.492   1.914   4.802 -0.3224  0.4403 -1.3394
  139OSM   H16T15106   3.389   1.769   4.843  0.9820  0.6006  0.5282
  139OSM   C17S15107   3.306   1.951   4.905 -0.0716  0.6440  0.6679
  139OSM   H17S15108   3.203   1.911   4.916  0.5200 -0.6339  1.7756
  139OSM   H17T15109   3.296   2.055   4.865  1.1031  0.4344 -0.2408
  139OSM   C18S15110   3.369   1.947   5.041  0.0315 -0.5838  0.4857
  139OSM   H18S15111   3.317   1.997   5.125 -1.9348 -0.7731 -0.5540
  139OSM   H18T15112   3.470   1.994   5.036 -0.8361  1.2428 -0.8996
  139OSM   H18U15113   3.382   1.841   5.071 -0.3923 -0.6918  0.3000
  139OSM    C1F15114   2.979   1.019   3.555 -0.6300  0.1001 -0.8271
  139OSM     OF15115   3.049   0.952   3.478 -0.0803  1.3793 -0.3390
  139OSM    C2F15116   2.901   0.956   3.662  0.4130  0.1294  0.1140
  139OSM    H2F15117   2.875   0.856   3.620  0.9750 -0.1306  0.3766
  139OSM    H2G15118   2.802   1.006   3.663  0.8451  1.0659 -1.0865
  139OSM    C3F15119   2.957   0.946   3.805  0.2560  0.0889  0.0056
  139OSM    H3F15120   3.058   0.899   3.805  0.7118  1.0442 -0.0773
  139OSM    H3G15121   2.889   0.870   3.850  1.2122 -0.9568 -0.2682
  139OSM    C4F15122   2.952   1.079   3.882 -0.1959  0.4687  0.4240
  139OSM    H4F15123   2.847   1.116   3.876  0.5085  2.5273  0.2533
  139OSM    H4G15124   3.011   1.160   3.835  0.9859  1.6057  3.5841
  139OSM    C5F15125   2.986   1.066   4.028 -0.1830  0.4093 -0.2276
  139OSM    H5F15126   3.086   1.018   4.028 -0.0592  0.6530 -1.0230
  139OSM    H5G15127   2.920   0.999   4.086 -2.6519  1.5229 -1.5831
  139OSM    C6F15128   3.004   1.190   4.119 -0.6762  0.2272 -0.5976
  139OSM    H6F15129   2.910   1.243   4.142 -1.1682 -0.4982 -0.9055
  139OSM    H6G15130   3.050   1.264   4.050  0.1852 -0.7590 -1.1215
  139OSM    C7F15131   3.098   1.164   4.238 -0.2629  0.0588 -0.2140
  139OSM    H7F15132   3.129   1.260   4.284  0.4044 -1.1198  1.8937
  139OSM    H7G15133   3.190   1.117   4.198  0.0624 -0.2588  0.8853
  139OSM    C8F15134   3.042   1.072   4.344 -0.0450  0.1215 -0.5604
  139OSM    H8F15135   2.977   1.001   4.291 -2.5851  0.9143  1.3038
  139OSM    H8G15136   2.980   1.128   4.418  0.5717 -1.4977  1.2732
  139OSM    C9F15137   3.138   1.008   4.434  0.0568 -0.2428 -0.3347
  139OSM    H9F15138   3.238   1.045   4.408 -1.2579  3.2393 -1.0251
  139OSM   C10F15139   3.125   0.928   4.545  0.3453 -0.2937 -0.1180
  139OSM   H10F15140   3.213   0.886   4.595 -0.3293 -1.3173  0.2457
  139OSM   C11F15141   2.996   0.886   4.620  0.2387  0.0047  0.1978
  139OSM   H11F15142   2.987   0.781   4.656 -0.9630 -0.2701 -0.8277
  139OSM   H11G15143   2.907   0.899   4.555 -0.1763 -1.1981  0.4855
  139OSM   C12F15144   2.967   0.977   4.738 -0.1799  0.5239 -0.8941
  139OSM   H12F15145   2.867   0.955   4.780  0.7102  1.2496  1.7699
  139OSM   H12G15146   2.948   1.080   4.703  0.7292  1.0893  0.2233
  139OSM   C13F15147   3.060   0.967   4.857  0.1185  0.1099 -0.1857
  139OSM   H13F15148   3.158   1.008   4.824 -1.0097  2.6220 -0.6286
  139OSM   H13G15149   3.078   0.858   4.866  0.7143  0.1508 -0.7790
  139OSM   C14F15150   3.007   1.023   4.987  0.7774  0.1809  0.8646
  139OSM   H14F15151   2.909   0.979   5.016  0.8172  0.0978  0.8742
  139OSM   H14G15152   2.988   1.131   4.970 -1.9825 -0.5317 -1.2517
  139OSM   C15F15153   3.100   1.014   5.099  0.1262  0.2109 -0.2020
  139OSM   H15F15154   3.197   1.065   5.079  2.4815 -3.3061  1.2647
  139OSM   H15G15155   3.121   0.906   5.116  3.2362  0.7746  0.0923
  139OSM   C16F15156   3.040   1.053   5.238 -0.0711 -0.6135 -0.3148
  139OSM   H16F15157   2.943   0.999   5.251  0.3146 -1.2117  0.1451
  139OSM   H16G15158   3.020   1.162   5.235  1.6884 -0.2945 -1.4341
  139OSM   C17F15159   3.147   1.036   5.346  0.4188 -0.2500 -0.0457
  139OSM   H17F15160   3.171   0.928   5.348 -0.7024 -0.5625 -1.4111
  139OSM   H17G15161   3.085   1.069   5.432  2.7097  0.6375  1.3520
  139OSM   C18F15162   3.271   1.135   5.331 -0.5548 -0.2494  0.0472
  139OSM   H18F15163   3.329   1.142   5.426  0.7368  1.7639 -0.8379
  139OSM   H18G15164   3.229   1.234   5.303  0.0777 -0.9187 -3.8354
  139OSM   H18H15165   3.337   1.108   5.246  0.4597 -0.1516  0.7827
  140OSM      N15166   1.512   0.127   3.153  0.5302  0.1927 -0.0343
  140OSM    C1515167   1.562   0.023   3.246 -0.3616  0.6128 -0.3806
  140OSM   H15A15168   1.492  -0.014   3.320  1.9399 -1.3893  0.9178
  140OSM   H15B15169   1.639   0.061   3.311  0.6665 -1.5482 -0.2698
  140OSM   H15C15170   1.602  -0.067   3.202  1.6959  1.3983 -0.2247
  140OSM    C1415171   1.623   0.137   3.052 -0.4175  0.5116  0.3676
  140OSM   H14A15172   1.647   0.037   3.019 -1.0680  0.7102 -0.7375
  140OSM   H14B15173   1.705   0.187   3.102 -0.2818 -1.6167  2.4728
  140OSM   H14C15174   1.587   0.184   2.962 -1.7324 -2.6929 -0.9038
  140OSM    C1315175   1.386   0.081   3.093  0.4103 -0.5223 -0.6621
  140OSM   H13A15176   1.304   0.084   3.164  0.7587 -0.6273 -0.2459
  140OSM   H13B15177   1.392  -0.020   3.055 -0.3341 -0.7511 -0.2087
  140OSM   H13C15178   1.357   0.137   3.006  2.6917  2.2475  0.2035
  140OSM    C1215179   1.491   0.253   3.229 -0.4796  0.1946  0.0415
  140OSM   H12A15180   1.445   0.331   3.170 -1.4710  1.5970  2.5456
  140OSM   H12B15181   1.586   0.299   3.249 -0.8476  0.1660  2.0458
  140OSM    C1115182   1.409   0.247   3.359 -0.2952 -0.2964 -0.5501
  140OSM   H11A15183   1.419   0.345   3.411  1.3273  0.5724 -2.3417
  140OSM   H11B15184   1.446   0.160   3.417  0.7430 -0.8926 -2.0553
  140OSM      P15185   1.150   0.294   3.327 -0.2599  0.0014 -0.0107
  140OSM    O1315186   1.191   0.419   3.262  0.5315  0.1789  1.0681
  140OSM    O1415187   1.042   0.230   3.257 -0.0636  0.5226  0.7629
  140OSM    O1115188   1.113   0.332   3.478 -0.3877  0.4371 -0.0897
  140OSM    O1215189   1.274   0.204   3.340  0.2869 -0.2992 -0.3598
  140OSM    C1S15190   1.105   0.240   3.579  0.2290 -0.4330  0.1067
  140OSM    H1S15191   1.202   0.221   3.629  0.6659  0.6090 -0.3153
  140OSM    H1T15192   1.081   0.139   3.540 -0.0348 -0.4468  0.3075
  140OSM     NF15193   0.977   0.166   3.765 -0.6426 -0.1723  0.5913
  140OSM    HNF15194   0.889   0.120   3.756 -0.0586 -1.6547  1.8792
  140OSM    C2S15195   1.008   0.283   3.689  0.0238 -0.3454  0.3983
  140OSM    H2S15196   1.052   0.361   3.754 -3.1741  2.6488 -0.7163
  140OSM    C3S15197   0.874   0.349   3.643 -0.6197 -0.2289  1.2479
  140OSM    H3S15198   0.818   0.257   3.615  0.8601 -0.7865 -0.0262
  140OSM     O315199   0.871   0.410   3.515 -0.1878 -0.0238  0.4899
  140OSM    HO315200   0.955   0.382   3.479 -1.5696 -1.4551 -1.8647
  140OSM    C4S15201   0.798   0.418   3.753  0.5685 -0.3039  0.3122
  140OSM    H4S15202   0.735   0.346   3.807 -0.2394  0.9214  1.0480
  140OSM    C5S15203   0.777   0.547   3.791 -0.3095  0.1961  0.3506
  140OSM    H5S15204   0.818   0.629   3.731 -2.6385  0.2195 -1.3298
  140OSM    C6S15205   0.690   0.585   3.908 -0.1321 -0.2159 -0.0536
  140OSM    H6S15206   0.609   0.513   3.929  0.7780 -1.5141 -0.8866
  140OSM    H6T15207   0.638   0.682   3.892 -0.1193 -0.1481  0.2986
  140OSM    C7S15208   0.772   0.596   4.039 -0.2312  0.5546  0.0402
  140OSM    H7S15209   0.811   0.496   4.069  1.6643  0.1830 -3.2250
  140OSM    H7T15210   0.703   0.635   4.117 -0.8417 -1.1633  0.4044
  140OSM    C8S15211   0.887   0.692   4.045  0.1752 -0.2001 -0.0061
  140OSM    H8S15212   0.857   0.781   3.987 -0.3431  0.4896  1.2788
  140OSM    H8T15213   0.976   0.641   4.002  0.0041 -0.5601  0.0594
  140OSM    C9S15214   0.931   0.715   4.189  0.4787 -0.2286 -0.0671
  140OSM    H9S15215   0.878   0.804   4.231 -0.0988 -1.1903  1.3442
  140OSM    H9T15216   1.036   0.749   4.183 -0.1204  1.4022 -3.7776
  140OSM   C10S15217   0.901   0.607   4.288  0.8356  0.4222  1.3020
  140OSM   H10S15218   0.959   0.517   4.257  0.4513  1.2835 -2.4534
  140OSM   H10T15219   0.798   0.566   4.292  1.5579 -1.4162  2.9248
  140OSM   C11S15220   0.940   0.636   4.430  0.3089 -0.0832  0.2936
  140OSM   H11S15221   0.935   0.745   4.452 -0.7575 -0.4364  2.0241
  140OSM   H11T15222   1.048   0.611   4.441 -0.5451 -3.5413  2.6048
  140OSM   C12S15223   0.873   0.552   4.535  0.1562  0.7705  0.1312
  140OSM   H12S15224   0.880   0.446   4.502  1.4648  1.2805 -1.4064
  140OSM   H12T15225   0.769   0.585   4.556 -0.2843 -0.4451 -0.0956
  140OSM   C13S15226   0.941   0.574   4.666  0.2808 -0.3776 -0.1061
  140OSM   H13S15227   1.049   0.570   4.641  0.1321 -1.9593 -0.6578
  140OSM   H13T15228   0.911   0.492   4.736  0.5045  0.9639  1.6161
  140OSM   C14S15229   0.884   0.691   4.754  0.1449  0.4420  0.8359
  140OSM   H14S15230   0.779   0.668   4.783 -0.0537 -3.4790 -2.1035
  140OSM   H14T15231   0.884   0.782   4.690 -1.0577  0.9503  1.5362
  140OSM   C15S15232   0.981   0.721   4.865 -0.1254 -0.5647 -0.4227
  140OSM   H15S15233   1.085   0.744   4.834  0.9737  0.1155  3.2608
  140OSM   H15T15234   0.988   0.639   4.940  2.6102  1.9084  2.2961
  140OSM   C16S15235   0.935   0.843   4.952  0.2634  0.3159 -0.1793
  140OSM   H16S15236   0.835   0.825   4.997 -0.7294  1.9747 -1.6083
  140OSM   H16T15237   0.930   0.932   4.886 -0.8879  0.8113  0.5398
  140OSM   C17S15238   1.029   0.878   5.065 -0.5532  0.5212 -0.8623
  140OSM   H17S15239   1.124   0.908   5.015  0.8045  0.9115  1.7953
  140OSM   H17T15240   1.057   0.786   5.122  1.1023  0.6571 -1.3917
  140OSM   C18S15241   0.986   0.992   5.151 -0.0936  0.8310  0.6221
  140OSM   H18S15242   0.959   1.082   5.091 -1.4866 -1.0207 -1.6733
  140OSM   H18T15243   1.052   1.008   5.240 -0.6254 -0.2688  1.2298
  140OSM   H18U15244   0.890   0.959   5.196  0.4149 -2.0162 -0.2199
  140OSM    C1F15245   1.067   0.099   3.831  0.5295 -0.7382 -0.1373
  140OSM     OF15246   1.167   0.157   3.876 -0.0790 -0.1747 -0.4472
  140OSM    C2F15247   1.037  -0.048   3.857  0.0867 -0.3011 -0.7247
  140OSM    H2F15248   1.031  -0.098   3.758 -3.0222 -1.1012 -0.2377
  140OSM    H2G15249   0.932  -0.054   3.893  0.1424 -0.6530 -0.6205
  140OSM    C3F15250   1.137  -0.121   3.952  0.4110 -1.0185 -1.1201
  140OSM    H3F15251   1.134  -0.072   4.052  0.4100 -1.6425 -0.8148
  140OSM    H3G15252   1.241  -0.115   3.915  0.3855 -2.2405 -1.4301
  140OSM    C4F15253   1.101  -0.269   3.967 -0.1813  0.1641  0.3759
  140OSM    H4F15254   1.131  -0.327   3.878 -0.8929 -0.3190  0.4383
  140OSM    H4G15255   0.991  -0.285   3.959 -0.0569 -1.5529  1.5566
  140OSM    C5F15256   1.154  -0.346   4.087 -0.3445  0.3048  0.5410
  140OSM    H5F15257   1.263  -0.331   4.099 -0.6317  2.7097  0.5925
  140OSM    H5G15258   1.146  -0.456   4.076  0.7180  0.2373  0.3944
  140OSM    C6F15259   1.077  -0.301   4.220 -0.1037  0.4925  0.4996
  140OSM    H6F15260   0.973  -0.314   4.182  0.7221 -0.2194 -1.6798
  140OSM    H6G15261   1.096  -0.194   4.240  1.7466 -0.0650  2.0224
  140OSM    C7F15262   1.118  -0.392   4.337  0.7169  0.2712  0.2151
  140OSM    H7F15263   1.122  -0.499   4.309 -1.1242 -0.1714  1.5186
  140OSM    H7G15264   1.049  -0.387   4.424 -1.0078  0.1003 -1.0837
  140OSM    C8F15265   1.253  -0.331   4.385  0.6117 -0.9903  1.1371
  140OSM    H8F15266   1.253  -0.221   4.369 -0.3665 -1.0650  0.6170
  140OSM    H8G15267   1.331  -0.372   4.318 -0.2301 -1.1776  0.2591
  140OSM    C9F15268   1.282  -0.360   4.529 -0.3528 -0.0100 -0.6063
  140OSM    H9F15269   1.245  -0.460   4.556 -2.7167  0.5623 -1.4843
  140OSM   C10F15270   1.336  -0.283   4.627  0.1065  0.2064 -0.0338
  140OSM   H10F15271   1.351  -0.324   4.727  3.1036  2.8763  0.7825
  140OSM   C11F15272   1.387  -0.143   4.609 -0.9988 -0.4356 -0.1614
  140OSM   H11F15273   1.328  -0.090   4.531 -1.3557  0.5271  0.7446
  140OSM   H11G15274   1.489  -0.134   4.567 -1.4601  0.4806 -1.1555
  140OSM   C12F15275   1.377  -0.069   4.739  0.5356 -0.2825  0.2153
  140OSM   H12F15276   1.270  -0.040   4.750  0.3735 -0.7189 -0.1759
  140OSM   H12G15277   1.431   0.028   4.727  1.3358 -0.7600 -0.0763
  140OSM   C13F15278   1.443  -0.136   4.853 -0.3976 -0.0895 -0.2274
  140OSM   H13F15279   1.535  -0.189   4.821  0.1720  1.7488 -1.8599
  140OSM   H13G15280   1.360  -0.205   4.880 -0.4372  0.5771  1.4936
  140OSM   C14F15281   1.460  -0.044   4.973  0.1471  0.1343 -0.0115
  140OSM   H14F15282   1.360  -0.003   4.998  0.8528  2.3346 -0.5513
  140OSM   H14G15283   1.524   0.042   4.943  0.7883 -0.5348 -0.6036
  140OSM   C15F15284   1.514  -0.117   5.096 -0.0781  0.2307 -0.4099
  140OSM   H15F15285   1.618  -0.152   5.077  0.3948  1.2237  0.2882
  140OSM   H15G15286   1.449  -0.203   5.122 -1.8878  0.8731 -2.4907
  140OSM   C16F15287   1.518  -0.039   5.226 -0.6495 -0.4586 -0.1564
  140OSM   H16F15288   1.417   0.001   5.250  0.5242  3.3900 -0.9228
  140OSM   H16G15289   1.573   0.056   5.205  3.3109 -2.8361 -1.6922
  140OSM   C17F15290   1.584  -0.110   5.343  0.3489 -0.2417 -0.4709
  140OSM   H17F15291   1.518  -0.195   5.368 -0.3354  0.5285  0.4458
  140OSM   H17G15292   1.582  -0.038   5.428 -0.4680 -0.4325 -0.3262
  140OSM   C18F15293   1.729  -0.158   5.332 -0.1075 -0.0021 -0.1984
  140OSM   H18F15294   1.789  -0.072   5.295  0.5227 -0.1668  0.4147
  140OSM   H18G15295   1.746  -0.237   5.256  2.9276  0.7469 -0.4409
  140OSM   H18H15296   1.770  -0.194   5.429 -0.7766 -1.4388 -0.4172
  141OSM      N15297   0.997   1.952   3.121  0.4457  0.0720  0.4926
  141OSM    C1515298   1.038   2.011   2.994  0.3774 -0.5203  0.6581
  141OSM   H15A15299   1.074   1.943   2.918 -1.4504 -1.1653  0.3181
  141OSM   H15B15300   1.106   2.094   3.010 -2.1022  1.2924  2.6380
  141OSM   H15C15301   0.948   2.053   2.952 -1.3261 -0.7310  3.8582
  141OSM    C1415302   0.927   2.056   3.210  0.0859  0.1507 -0.0165
  141OSM   H14A15303   0.849   2.109   3.158 -0.2421  1.2964  1.5721
  141OSM   H14B15304   1.003   2.119   3.253 -0.0597 -1.2111  2.4939
  141OSM   H14C15305   0.883   2.014   3.299 -1.0936  0.6549 -0.3430
  141OSM    C1315306   0.903   1.842   3.087  0.2847 -0.1045  0.6007
  141OSM   H13A15307   0.884   1.787   3.177  0.1557 -0.6299  0.2561
  141OSM   H13B15308   0.945   1.770   3.018  0.2801 -1.3513  1.8586
  141OSM   H13C15309   0.816   1.885   3.039 -0.0473 -1.4111 -0.0130
  141OSM    C1215310   1.117   1.891   3.199  0.6858 -0.0453 -0.1041
  141OSM   H12A15311   1.198   1.963   3.199  1.0681 -0.4696 -0.2089
  141OSM   H12B15312   1.148   1.796   3.156 -0.2039 -0.6232  0.5215
  141OSM    C1115313   1.105   1.844   3.346  0.3402  0.2280  0.4717
  141OSM   H11A15314   1.187   1.775   3.376  0.1876 -0.6046 -0.9433
  141OSM   H11B15315   1.012   1.782   3.352 -0.9321  2.1642  2.4325
  141OSM      P15316   1.204   2.043   3.470 -0.0433 -0.2462  0.2828
  141OSM    O1315317   1.327   1.993   3.411 -0.2092 -0.4075  0.0474
  141OSM    O1415318   1.166   2.181   3.421 -0.1204 -0.0608  0.5941
  141OSM    O1115319   1.212   2.032   3.625  0.0593  0.1024  0.6254
  141OSM    O1215320   1.085   1.939   3.445 -0.2158  0.4817 -0.4712
  141OSM    C1S15321   1.101   2.080   3.704  0.1015  0.1332  0.6321
  141OSM    H1S15322   1.010   2.024   3.673  0.7535  0.5178 -2.2402
  141OSM    H1T15323   1.085   2.188   3.685  1.0495 -0.1009 -1.8280
  141OSM     NF15324   1.004   2.137   3.923 -0.0866  0.2300 -0.2447
  141OSM    HNF15325   1.025   2.223   3.968  1.2483 -1.2101  2.1354
  141OSM    C2S15326   1.117   2.067   3.855 -0.3241 -1.2646  0.2917
  141OSM    H2S15327   1.113   1.959   3.881  0.7506 -1.8873 -1.8723
  141OSM    C3S15328   1.254   2.122   3.909 -0.1479  0.4370  1.7713
  141OSM    H3S15329   1.243   2.232   3.917 -0.7344  0.3418  2.3577
  141OSM     O315330   1.363   2.074   3.830  0.3105  0.8652 -0.5327
  141OSM    HO315331   1.330   2.015   3.761  2.4945 -0.5596 -0.4512
  141OSM    C4S15332   1.278   2.071   4.050 -1.3197  0.6852  0.0821
  141OSM    H4S15333   1.267   1.962   4.052  1.5436  0.2748 -1.6137
  141OSM    C5S15334   1.296   2.151   4.156  0.6195 -0.0511 -0.1837
  141OSM    H5S15335   1.277   2.259   4.146 -0.1895 -0.0682  0.9206
  141OSM    C6S15336   1.295   2.085   4.294  0.3981  0.6049 -0.2452
  141OSM    H6S15337   1.354   2.147   4.365  0.0309 -1.9972  2.5498
  141OSM    H6T15338   1.337   1.982   4.290 -0.8076 -0.0559  2.0897
  141OSM    C7S15339   1.154   2.055   4.348 -0.6363 -0.1701 -0.3728
  141OSM    H7S15340   1.096   1.986   4.283 -3.0279  0.1069  1.3315
  141OSM    H7T15341   1.095   2.147   4.363 -0.2639  0.3137 -1.6758
  141OSM    C8S15342   1.152   1.983   4.485  0.3733 -0.1177  0.0113
  141OSM    H8S15343   1.210   1.893   4.459  0.1687 -0.2553  0.0326
  141OSM    H8T15344   1.045   1.962   4.507  0.1067  1.9239  0.9341
  141OSM    C9S15345   1.223   2.049   4.605  0.1402 -0.1001 -0.3538
  141OSM    H9S15346   1.158   2.138   4.623 -0.5052 -1.0250  2.5069
  141OSM    H9T15347   1.327   2.084   4.589  0.3559 -0.5750 -0.0220
  141OSM   C10S15348   1.206   1.957   4.732 -0.0920 -0.9462 -0.4409
  141OSM   H10S15349   1.283   1.880   4.710  1.5879  0.0958  1.4770
  141OSM   H10T15350   1.106   1.909   4.735 -0.8656  0.5267 -1.2859
  141OSM   C11S15351   1.249   2.034   4.857  0.1294  0.5760 -0.3623
  141OSM   H11S15352   1.181   2.117   4.886  1.0399  0.7968  1.2700
  141OSM   H11T15353   1.352   2.077   4.848  0.8775 -0.8422  1.0531
  141OSM   C12S15354   1.254   1.942   4.978 -0.3102  0.8712  0.0220
  141OSM   H12S15355   1.317   1.851   4.965 -3.5122 -1.6980  1.2454
  141OSM   H12T15356   1.151   1.904   4.991  0.0051 -0.5201 -1.3054
  141OSM   C13S15357   1.314   2.015   5.095  0.5223 -0.5241  0.3049
  141OSM   H13S15358   1.255   2.095   5.144  0.3341 -0.4677 -0.0105
  141OSM   H13T15359   1.412   2.056   5.062  0.4296 -1.0885 -0.7158
  141OSM   C14S15360   1.349   1.922   5.215  0.7184 -0.2760 -0.5487
  141OSM   H14S15361   1.432   1.848   5.208 -0.3874 -1.8217  1.4883
  141OSM   H14T15362   1.259   1.858   5.225  0.3135  0.2125 -1.0270
  141OSM   C15S15363   1.353   2.000   5.348 -0.3430 -0.1966 -0.7630
  141OSM   H15S15364   1.355   1.930   5.434 -0.9426 -0.0100 -0.5914
  141OSM   H15T15365   1.261   2.060   5.363  0.1632  0.4810 -0.3401
  141OSM   C16S15366   1.476   2.091   5.350 -0.2750 -0.2697  0.3364
  141OSM   H16S15367   1.487   2.157   5.261 -1.6466 -0.7376 -0.2113
  141OSM   H16T15368   1.555   2.013   5.343 -0.8826 -1.2355  3.0796
  141OSM   C17S15369   1.504   2.186   5.469 -0.4635 -0.3772 -0.6783
  141OSM   H17S15370   1.553   2.125   5.548 -1.9388  0.4921  0.9942
  141OSM   H17T15371   1.423   2.230   5.532 -1.4633 -1.6596 -1.0134
  141OSM   C18S15372   1.607   2.295   5.438 -0.0397 -0.2043  0.9966
  141OSM   H18S15373   1.703   2.260   5.394  0.1549  2.3345 -0.7909
  141OSM   H18T15374   1.627   2.369   5.519 -0.5973  0.9896  0.0771
  141OSM   H18U15375   1.567   2.365   5.362  2.9949  0.5461 -0.0318
  141OSM    C1F15376   0.876   2.081   3.924 -0.5315 -0.1869  0.0405
  141OSM     OF15377   0.840   1.977   3.865  0.0169 -0.2507  0.4831
  141OSM    C2F15378   0.778   2.157   4.011 -0.1480 -0.7153  0.3259
  141OSM    H2F15379   0.673   2.125   3.994 -0.7680  0.9195  0.8842
  141OSM    H2G15380   0.769   2.267   3.998 -2.6853 -0.7580  1.1180
  141OSM    C3F15381   0.805   2.139   4.167  0.4900 -0.3142  0.4147
  141OSM    H3F15382   0.913   2.142   4.194  0.1391 -0.8632  2.0126
  141OSM    H3G15383   0.768   2.036   4.187  2.0409 -0.7824  1.0857
  141OSM    C4F15384   0.730   2.235   4.252  0.3161  0.1802 -0.2033
  141OSM    H4F15385   0.621   2.237   4.229  0.5925 -0.4215 -1.6894
  141OSM    H4G15386   0.754   2.337   4.213 -0.8955  0.9174  0.8958
  141OSM    C5F15387   0.754   2.220   4.399  0.2380  0.0244 -0.2731
  141OSM    H5F15388   0.705   2.309   4.444  0.1608  0.2228 -0.7489
  141OSM    H5G15389   0.862   2.228   4.425  0.7851  0.8491 -2.5954
  141OSM    C6F15390   0.691   2.090   4.446 -0.4312  0.1767  0.1613
  141OSM    H6F15391   0.747   1.995   4.428 -1.8808 -0.5982 -0.4280
  141OSM    H6G15392   0.587   2.070   4.410 -0.4472  1.2876 -0.4617
  141OSM    C7F15393   0.668   2.074   4.595  0.2432 -0.0549 -0.8696
  141OSM    H7F15394   0.593   2.148   4.631  3.2730  3.0839 -0.4098
  141OSM    H7G15395   0.752   2.116   4.655 -0.8380  0.5913  0.2516
  141OSM    C8F15396   0.620   1.932   4.636 -0.8233 -0.1087 -0.0709
  141OSM    H8F15397   0.715   1.881   4.611 -0.0288  1.4088 -0.1945
  141OSM    H8G15398   0.550   1.909   4.553  0.5074 -0.0458 -1.2389
  141OSM    C9F15399   0.571   1.909   4.780 -0.0874 -0.6636 -0.0675
  141OSM    H9F15400   0.644   1.926   4.860 -2.8986 -0.5878  2.6781
  141OSM   C10F15401   0.452   1.866   4.820 -0.1599  0.7550 -0.1459
  141OSM   H10F15402   0.433   1.853   4.928  1.2860  1.4683  0.2166
  141OSM   C11F15403   0.337   1.836   4.735  0.6235  0.2063  0.0313
  141OSM   H11F15404   0.349   1.894   4.641 -1.8407  2.4966  1.0156
  141OSM   H11G15405   0.248   1.878   4.786  1.9716  0.5058  2.2437
  141OSM   C12F15406   0.315   1.686   4.704  0.5863  0.7723 -0.3277
  141OSM   H12F15407   0.398   1.650   4.640  0.0115  1.1737 -1.3310
  141OSM   H12G15408   0.209   1.685   4.668  1.3016 -0.2485 -2.5677
  141OSM   C13F15409   0.301   1.607   4.835 -0.4742  0.4372  0.2686
  141OSM   H13F15410   0.245   1.661   4.913  1.1866 -1.6348  3.1046
  141OSM   H13G15411   0.401   1.599   4.881 -1.0707 -0.2705  1.4860
  141OSM   C14F15412   0.234   1.466   4.816 -0.6681 -0.2239 -0.0643
  141OSM   H14F15413   0.311   1.402   4.769  3.0201  1.9804  2.4160
  141OSM   H14G15414   0.138   1.453   4.762 -0.8061 -2.6127  0.6774
  141OSM   C15F15415   0.204   1.414   4.956 -0.1498  0.8212  0.7451
  141OSM   H15F15416   0.276   1.453   5.032 -0.5965 -1.8163  2.6285
  141OSM   H15G15417   0.220   1.305   4.956  0.3104  0.8844  0.4707
  141OSM   C16F15418   0.064   1.444   5.011 -0.3025  0.0507  0.6024
  141OSM   H16F15419  -0.017   1.391   4.956 -0.1084  0.4680 -0.0944
  141OSM   H16G15420   0.045   1.553   4.998  3.1208  0.8145  1.2011
  141OSM   C17F15421   0.049   1.397   5.156 -0.3446 -0.3019  0.2721
  141OSM   H17F15422   0.146   1.406   5.209  1.7305 -1.0551 -3.0460
  141OSM   H17G15423   0.015   1.291   5.155 -0.1780 -0.4160 -2.6872
  141OSM   C18F15424  -0.044   1.482   5.236  0.7612 -0.0734 -0.2262
  141OSM   H18F15425  -0.017   1.589   5.222  1.2378 -0.0907  0.5235
  141OSM   H18G15426  -0.035   1.469   5.346  0.4471  1.7357  0.0314
  141OSM   H18H15427  -0.148   1.462   5.201  0.7987  1.5662 -1.3702
  142OSM      N15428   4.257   6.540   2.960  0.2315 -0.1291  0.5298
  142OSM    C1515429   4.228   6.517   2.814  0.6584  0.9100  0.4058
  142OSM   H15A15430   4.235   6.412   2.789 -0.5636  0.4091  1.9840
  142OSM   H15B15431   4.297   6.566   2.747  1.6125 -0.8473  0.0363
  142OSM   H15C15432   4.129   6.554   2.791  1.0115  0.9471 -1.1190
  142OSM    C1415433   4.405   6.487   2.981  0.1519 -0.9594 -0.5573
  142OSM   H14A15434   4.419   6.480   3.087  1.3799  0.5732 -0.5780
  142OSM   H14B15435   4.482   6.557   2.951 -0.3428  0.0737  0.4760
  142OSM   H14C15436   4.419   6.386   2.946  0.5662 -1.1669  0.1901
  142OSM    C1315437   4.253   6.684   2.997 -0.3522  0.0557  0.0597
  142OSM   H13A15438   4.150   6.717   2.993 -0.2232  0.4216 -0.3939
  142OSM   H13B15439   4.316   6.749   2.937  2.7454 -2.5521  0.1829
  142OSM   H13C15440   4.288   6.697   3.098 -0.5116  1.5988 -0.0522
  142OSM    C1215441   4.162   6.449   3.042 -0.0004 -1.0177  0.0851
  142OSM   H12A15442   4.163   6.348   3.005 -0.6277 -1.0411  0.1260
  142OSM   H12B15443   4.067   6.493   3.015  0.9241  0.0783 -1.5517
  142OSM    C1115444   4.173   6.461   3.200  0.5787  0.5633 -0.4682
  142OSM   H11A15445   4.277   6.434   3.230  0.3379 -1.1007 -1.0181
  142OSM   H11B15446   4.114   6.381   3.249  3.4865 -2.3330 -1.3258
  142OSM      P15447   4.008   6.662   3.240  0.5862 -0.1352 -0.1904
  142OSM    O1315448   4.031   6.807   3.266 -0.2633 -0.0464  0.0618
  142OSM    O1415449   3.925   6.628   3.123 -0.2635  0.4366 -0.3984
  142OSM    O1115450   3.944   6.583   3.366  0.3416  0.0911  0.5098
  142OSM    O1215451   4.147   6.592   3.245 -0.2969 -0.2254 -0.3470
  142OSM    C1S15452   4.015   6.578   3.493 -0.6383  0.0583 -0.2126
  142OSM    H1S15453   4.073   6.672   3.506 -1.8650  1.0627 -1.6930
  142OSM    H1T15454   4.080   6.488   3.495 -1.1737 -0.3285 -0.2328
  142OSM     NF15455   3.990   6.581   3.745 -0.8816  0.0672 -0.5658
  142OSM    HNF15456   4.005   6.504   3.807 -0.1050  1.3256  0.8903
  142OSM    C2S15457   3.925   6.553   3.617  0.7913  0.0385 -0.2831
  142OSM    H2S15458   3.848   6.632   3.609  0.7649 -0.0451 -0.9824
  142OSM    C3S15459   3.859   6.411   3.608 -0.7104  0.6559 -0.2367
  142OSM    H3S15460   3.936   6.332   3.617 -0.6485  0.7002 -0.3806
  142OSM     O315461   3.792   6.380   3.483 -0.2078  0.2816  0.2289
  142OSM    HO315462   3.792   6.464   3.437 -0.7689  1.1551  1.7715
  142OSM    C4S15463   3.763   6.385   3.723 -0.1863 -0.1298 -0.3667
  142OSM    H4S15464   3.793   6.305   3.791 -0.8882 -0.4168 -0.3892
  142OSM    C5S15465   3.648   6.454   3.752 -0.1100  0.3080  0.1549
  142OSM    H5S15466   3.605   6.525   3.680 -0.4338 -0.1369 -0.0952
  142OSM    C6S15467   3.555   6.423   3.869 -0.0002 -0.0107  0.4087
  142OSM    H6S15468   3.461   6.372   3.840  1.4280 -2.5330 -0.0272
  142OSM    H6T15469   3.521   6.521   3.910 -1.1230  0.1879 -0.9116
  142OSM    C7S15470   3.615   6.343   3.991  0.0507  0.2429 -0.1123
  142OSM    H7S15471   3.715   6.386   4.013  0.5223 -0.7499 -0.2987
  142OSM    H7T15472   3.629   6.236   3.966 -0.1103 -0.1752  1.4753
  142OSM    C8S15473   3.545   6.366   4.121  0.1481  0.7046 -0.4505
  142OSM    H8S15474   3.442   6.323   4.119  0.0294  0.9728 -2.0513
  142OSM    H8T15475   3.519   6.474   4.128 -0.4707  0.5870 -0.7970
  142OSM    C9S15476   3.617   6.310   4.245 -0.4507  0.2977 -0.4086
  142OSM    H9S15477   3.711   6.368   4.232 -0.2502 -0.2590 -1.6187
  142OSM    H9T15478   3.639   6.201   4.247 -1.2343  0.1267  1.9335
  142OSM   C10S15479   3.550   6.350   4.375 -0.4486 -0.4243  0.4148
  142OSM   H10S15480   3.443   6.322   4.367 -0.6497  0.6512 -1.0540
  142OSM   H10T15481   3.546   6.460   4.388  0.4239  0.0759 -2.7106
  142OSM   C11S15482   3.615   6.297   4.499 -0.3921 -0.4778 -1.0290
  142OSM   H11S15483   3.702   6.365   4.510  0.4441 -1.8155  1.5155
  142OSM   H11T15484   3.645   6.190   4.497  0.7078 -0.2653  0.9908
  142OSM   C12S15485   3.516   6.316   4.612  0.0688 -0.4027 -0.4369
  142OSM   H12S15486   3.432   6.244   4.621  0.7329 -1.0332  1.1048
  142OSM   H12T15487   3.471   6.417   4.602  1.1368  0.2068  0.6063
  142OSM   C13S15488   3.573   6.303   4.753 -0.1254  0.6948 -0.7003
  142OSM   H13S15489   3.496   6.303   4.833  2.1137 -0.1732  1.5801
  142OSM   H13T15490   3.644   6.380   4.788  0.9016 -0.8043  0.6623
  142OSM   C14S15491   3.641   6.162   4.769 -0.2186 -0.0976 -0.1777
  142OSM   H14S15492   3.722   6.161   4.693 -0.7145 -0.1615 -0.7100
  142OSM   H14T15493   3.569   6.080   4.749 -1.7247  1.1232  0.0313
  142OSM   C15S15494   3.688   6.146   4.917 -0.2286  0.1382 -0.0948
  142OSM   H15S15495   3.610   6.168   4.993 -2.0876 -0.8137 -1.6293
  142OSM   H15T15496   3.770   6.221   4.921 -1.3825  1.4407 -0.0659
  142OSM   C16S15497   3.748   6.011   4.957  0.3548  0.5089 -0.1132
  142OSM   H16S15498   3.838   5.984   4.898 -0.4188 -1.7022 -0.4046
  142OSM   H16T15499   3.673   5.932   4.932  1.1933 -0.4043  0.1888
  142OSM   C17S15500   3.809   6.011   5.098  0.6417  0.2010 -0.1441
  142OSM   H17S15501   3.876   6.098   5.116  0.0064  0.7052 -0.1883
  142OSM   H17T15502   3.872   5.921   5.111  2.7045  1.8116  1.9991
  142OSM   C18S15503   3.701   6.003   5.206 -0.1306  0.2150 -0.6238
  142OSM   H18S15504   3.629   5.921   5.185  0.4814 -0.7137  0.7991
  142OSM   H18T15505   3.647   6.099   5.218  0.2557  0.1695  2.1593
  142OSM   H18U15506   3.744   5.970   5.303 -0.1249 -0.6358 -0.9070
  142OSM    C1F15507   4.035   6.704   3.785 -0.4471 -0.6863  0.6281
  142OSM     OF15508   3.996   6.806   3.724 -0.5226 -0.2085  0.0717
  142OSM    C2F15509   4.118   6.723   3.912  0.5822  0.3348  0.1968
  142OSM    H2F15510   4.210   6.662   3.898  0.1913 -0.0751 -0.6487
  142OSM    H2G15511   4.052   6.671   3.984  1.1839 -0.2875  0.3108
  142OSM    C3F15512   4.143   6.869   3.955  0.2605  0.7100 -0.4106
  142OSM    H3F15513   4.044   6.918   3.970 -0.7785 -0.7393 -2.1034
  142OSM    H3G15514   4.209   6.920   3.880  0.3556 -1.8840 -2.2326
  142OSM    C4F15515   4.214   6.889   4.089 -0.1105 -0.2913 -0.3136
  142OSM    H4F15516   4.235   6.998   4.102  0.6430 -0.4142 -0.4708
  142OSM    H4G15517   4.312   6.836   4.084  0.1341  0.0187  0.8174
  142OSM    C5F15518   4.148   6.853   4.221 -0.1768 -0.7385  0.4471
  142OSM    H5F15519   4.108   6.750   4.209  0.7518 -1.0806  0.2020
  142OSM    H5G15520   4.062   6.918   4.249 -1.1889 -0.9258 -2.0372
  142OSM    C6F15521   4.247   6.858   4.336 -0.1814 -0.2403 -0.2019
  142OSM    H6F15522   4.272   6.966   4.345 -0.1061 -0.2611 -0.1604
  142OSM    H6G15523   4.340   6.805   4.307  0.2843 -0.6468  1.8683
  142OSM    C7F15524   4.190   6.803   4.465 -0.2807 -0.7884  0.0396
  142OSM    H7F15525   4.168   6.695   4.451 -0.2873 -1.0007  1.5190
  142OSM    H7G15526   4.097   6.855   4.498 -0.1215 -0.2280 -0.3712
  142OSM    C8F15527   4.293   6.811   4.584 -0.1358 -0.2331  0.1210
  142OSM    H8F15528   4.388   6.767   4.545 -0.3604 -0.3980 -0.2367
  142OSM    H8G15529   4.260   6.747   4.669 -0.4034 -0.1114  0.1081
  142OSM    C9F15530   4.309   6.950   4.640  0.4857 -0.0189 -0.2491
  142OSM    H9F15531   4.255   7.030   4.588 -2.4642 -2.1550 -0.6936
  142OSM   C10F15532   4.377   6.987   4.747  0.4045 -0.3586  0.2340
  142OSM   H10F15533   4.384   7.095   4.763  0.1701 -0.1953 -0.7066
  142OSM   C11F15534   4.470   6.902   4.829 -0.0846  0.3502 -0.2073
  142OSM   H11F15535   4.576   6.911   4.799  0.6232 -2.4820  1.1223
  142OSM   H11G15536   4.442   6.795   4.817 -0.3993  0.2772  0.9936
  142OSM   C12F15537   4.472   6.920   4.978 -0.3695 -0.9183 -0.1177
  142OSM   H12F15538   4.542   7.005   4.995  1.1952 -2.4976  1.8103
  142OSM   H12G15539   4.530   6.833   5.015  2.7730  0.3818 -1.6360
  142OSM   C13F15540   4.332   6.933   5.057 -0.2663 -0.2921  0.5840
  142OSM   H13F15541   4.273   6.852   5.009  1.9328 -0.5665 -1.8916
  142OSM   H13G15542   4.291   7.036   5.046 -1.7610 -0.8589  0.6389
  142OSM   C14F15543   4.342   6.908   5.204 -0.2900  0.5803 -0.0059
  142OSM   H14F15544   4.282   6.990   5.249 -0.9696 -0.0688  0.2702
  142OSM   H14G15545   4.448   6.923   5.236 -0.3798 -2.2937  2.0519
  142OSM   C15F15546   4.281   6.770   5.236  0.0609  0.5440  0.2009
  142OSM   H15F15547   4.332   6.691   5.176  0.2971 -0.0912  1.2003
  142OSM   H15G15548   4.178   6.771   5.194  1.5307  0.2486 -3.8393
  142OSM   C16F15549   4.282   6.720   5.382  0.6803 -0.1333  0.5914
  142OSM   H16F15550   4.240   6.794   5.453 -0.5798 -1.2037  1.0296
  142OSM   H16G15551   4.390   6.713   5.404  1.5075 -1.8319 -3.2095
  142OSM   C17F15552   4.206   6.586   5.396  0.2940 -1.1801  0.8421
  142OSM   H17F15553   4.226   6.521   5.308 -3.4410  0.9859 -1.8894
  142OSM   H17G15554   4.101   6.622   5.396 -0.5247 -3.2983  2.4389
  142OSM   C18F15555   4.229   6.534   5.536 -0.1066 -0.6068  0.1370
  142OSM   H18F15556   4.338   6.524   5.553 -0.0287 -0.2224 -0.1334
  142OSM   H18G15557   4.190   6.431   5.551 -3.6127  0.4146 -0.8728
  142OSM   H18H15558   4.178   6.591   5.617 -2.1802 -2.1864  0.0463
  143OSM      N15559   1.391   6.116   3.213 -0.0266 -0.2885  0.6481
  143OSM    C1515560   1.422   6.267   3.198  0.6010  0.4806 -0.1708
  143OSM   H15A15561   1.416   6.313   3.295  0.2923  0.7204 -0.3044
  143OSM   H15B15562   1.354   6.332   3.145  0.1484  1.5082  1.5880
  143OSM   H15C15563   1.517   6.283   3.150 -0.5694  1.6748 -2.2359
  143OSM    C1415564   1.283   6.109   3.313 -0.4727  0.1572  0.2393
  143OSM   H14A15565   1.200   6.175   3.292  0.7220  2.3124  1.8147
  143OSM   H14B15566   1.315   6.150   3.408 -0.2418 -1.4600  0.8812
  143OSM   H14C15567   1.246   6.009   3.328 -0.4333  0.3988  2.3160
  143OSM    C1315568   1.343   6.053   3.085  0.7087  0.2879 -0.4589
  143OSM   H13A15569   1.431   6.052   3.023  1.6156 -2.8201  0.6836
  143OSM   H13B15570   1.255   6.102   3.046  0.0072 -2.6927 -3.0154
  143OSM   H13C15571   1.322   5.949   3.107 -1.6808  1.2781  2.9918
  143OSM    C1215572   1.514   6.041   3.253  0.1759  0.4305 -0.4695
  143OSM   H12A15573   1.543   6.086   3.347  1.2243  1.6181 -1.3452
  143OSM   H12B15574   1.593   6.058   3.182  0.0282  2.1475 -0.2688
  143OSM    C1115575   1.493   5.886   3.281  0.2163  0.3546  0.1884
  143OSM   H11A15576   1.400   5.856   3.333 -0.6069  0.3644 -1.2172
  143OSM   H11B15577   1.574   5.851   3.348 -1.3568  1.0454  2.5619
  143OSM      P15578   1.486   5.662   3.135  0.1918  0.3304 -0.0396
  143OSM    O1315579   1.382   5.628   3.040  0.5675  0.3471  0.2331
  143OSM    O1415580   1.614   5.604   3.102 -0.1432  0.2217  0.6478
  143OSM    O1115581   1.449   5.603   3.277 -0.1587  0.1710  0.3597
  143OSM    O1215582   1.495   5.818   3.152  0.9123  0.1925 -0.5035
  143OSM    C1S15583   1.543   5.579   3.379  0.3359 -0.2401  0.8148
  143OSM    H1S15584   1.628   5.649   3.375 -0.2297  0.4753  1.0400
  143OSM    H1T15585   1.586   5.478   3.362 -0.6237 -0.5997  0.4155
  143OSM     NF15586   1.577   5.605   3.629  0.4830  0.2178 -1.1031
  143OSM    HNF15587   1.598   5.522   3.680  2.0148  1.0310 -0.3254
  143OSM    C2S15588   1.482   5.588   3.519  0.3662  0.0644 -0.6499
  143OSM    H2S15589   1.414   5.676   3.526  0.8239  0.4606 -1.0927
  143OSM    C3S15590   1.390   5.465   3.538 -0.3824  0.4452  0.1298
  143OSM    H3S15591   1.456   5.376   3.538 -0.6859  0.2172  0.1683
  143OSM     O315592   1.303   5.438   3.430  0.3681 -0.4336 -0.2319
  143OSM    HO315593   1.352   5.467   3.353  1.0815 -1.0567 -0.0278
  143OSM    C4S15594   1.317   5.466   3.674  0.2840  0.1316  0.5006
  143OSM    H4S15595   1.374   5.436   3.763  2.4868  0.9299 -0.5813
  143OSM    C5S15596   1.185   5.502   3.694 -0.4789  0.5437  0.1310
  143OSM    H5S15597   1.123   5.532   3.609 -0.7136  1.6726  0.6857
  143OSM    C6S15598   1.105   5.524   3.822 -0.5494 -0.0246  0.1558
  143OSM    H6S15599   1.008   5.470   3.815 -0.1845 -1.2015  2.7093
  143OSM    H6T15600   1.081   5.630   3.844 -1.8300 -0.6603  2.1182
  143OSM    C7S15601   1.161   5.477   3.956 -0.2797  0.3237  0.4565
  143OSM    H7S15602   1.256   5.529   3.982  0.9673 -1.8173  0.4165
  143OSM    H7T15603   1.187   5.370   3.945  0.2225  0.4894 -0.0355
  143OSM    C8S15604   1.071   5.488   4.080 -0.0235 -0.4163  0.2695
  143OSM    H8S15605   0.979   5.428   4.068 -0.3850 -0.5857  3.1129
  143OSM    H8T15606   1.043   5.595   4.088  3.6780  0.6161  1.4240
  143OSM    C9S15607   1.136   5.445   4.214 -0.7950 -0.1803  0.2153
  143OSM    H9S15608   1.222   5.515   4.226  0.0508 -0.8566 -1.5422
  143OSM    H9T15609   1.176   5.344   4.191 -0.7638 -0.9118  3.0123
  143OSM   C10S15610   1.044   5.457   4.338  0.4121 -0.2595 -0.4026
  143OSM   H10S15611   0.941   5.420   4.317  1.4811 -3.1733 -0.8410
  143OSM   H10T15612   1.024   5.567   4.344 -1.2847 -0.6015  1.1539
  143OSM   C11S15613   1.101   5.413   4.467 -0.1299 -0.7697 -0.3750
  143OSM   H11S15614   1.209   5.438   4.481 -0.4112  1.2405 -1.3912
  143OSM   H11T15615   1.109   5.302   4.461 -0.4880 -0.8517  0.5664
  143OSM   C12S15616   1.031   5.451   4.593  0.6657  0.8806 -0.8863
  143OSM   H12S15617   0.923   5.428   4.578  0.8859 -1.5246  0.5957
  143OSM   H12T15618   1.052   5.558   4.615  1.7663  0.1507  2.2509
  143OSM   C13S15619   1.078   5.363   4.712  0.3674  0.6364  0.2550
  143OSM   H13S15620   1.189   5.364   4.709  0.3693  0.8132 -2.5558
  143OSM   H13T15621   1.055   5.256   4.693  0.2692  1.1545 -3.1754
  143OSM   C14S15622   1.028   5.417   4.843  0.2946 -0.0512 -0.0244
  143OSM   H14S15623   0.918   5.423   4.834  0.3430  1.9108  0.3337
  143OSM   H14T15624   1.063   5.522   4.852 -0.0596  0.0799 -0.1997
  143OSM   C15S15625   1.082   5.335   4.962 -0.1064  0.4327 -0.3372
  143OSM   H15S15626   1.193   5.335   4.964  0.0069  2.3184 -2.4939
  143OSM   H15T15627   1.058   5.228   4.944  1.2660  0.2055 -0.8752
  143OSM   C16S15628   1.040   5.379   5.103 -0.4931  0.8288  1.1609
  143OSM   H16S15629   1.043   5.490   5.110 -0.5920  0.8074  1.5574
  143OSM   H16T15630   1.121   5.345   5.172 -1.3777  0.9082  2.2629
  143OSM   C17S15631   0.903   5.325   5.149 -0.9354 -0.3788  0.5939
  143OSM   H17S15632   0.815   5.365   5.095 -1.0668  2.9097  2.9409
  143OSM   H17T15633   0.891   5.375   5.248 -1.0706  1.7823 -0.4704
  143OSM   C18S15634   0.895   5.172   5.158 -0.2819 -0.2732 -0.1477
  143OSM   H18S15635   0.961   5.133   5.238 -0.6839 -1.0301 -0.1838
  143OSM   H18T15636   0.929   5.114   5.069  0.1272 -0.0739 -0.1208
  143OSM   H18U15637   0.791   5.136   5.171 -1.0463  1.4081 -1.1761
  143OSM    C1F15638   1.639   5.723   3.647 -0.2829 -0.1480  0.1413
  143OSM     OF15639   1.609   5.815   3.571  0.4858 -0.1621 -0.0658
  143OSM    C2F15640   1.737   5.730   3.759 -0.8040 -0.2330  0.1588
  143OSM    H2F15641   1.842   5.708   3.730 -0.3847 -1.6248  2.4877
  143OSM    H2G15642   1.705   5.646   3.824 -0.4847 -0.5794 -0.1289
  143OSM    C3F15643   1.733   5.859   3.844  0.6301 -0.2252 -0.2985
  143OSM    H3F15644   1.794   5.926   3.780  1.6015 -1.5768 -0.8347
  143OSM    H3G15645   1.780   5.832   3.941  1.7145 -1.3357 -1.0972
  143OSM    C4F15646   1.600   5.920   3.878 -0.1912 -0.3499  0.0430
  143OSM    H4F15647   1.558   5.966   3.786  0.7331 -0.6373 -0.5306
  143OSM    H4G15648   1.621   6.010   3.939 -0.1196 -0.9787  0.9622
  143OSM    C5F15649   1.506   5.822   3.951  0.2398  0.6141  0.1406
  143OSM    H5F15650   1.511   5.719   3.909  2.5933  0.5300  0.4969
  143OSM    H5G15651   1.403   5.862   3.941 -0.0074 -0.2548 -1.1313
  143OSM    C6F15652   1.543   5.810   4.098 -0.1073 -0.4899 -0.3276
  143OSM    H6F15653   1.535   5.909   4.148 -3.5538 -0.5258 -0.5616
  143OSM    H6G15654   1.648   5.774   4.097 -0.2414 -0.9182 -2.2105
  143OSM    C7F15655   1.467   5.698   4.177 -0.4319 -0.3196  0.3241
  143OSM    H7F15656   1.470   5.597   4.131  0.3927 -1.0857  1.9589
  143OSM    H7G15657   1.361   5.732   4.178 -0.8443 -1.3706 -1.7287
  143OSM    C8F15658   1.513   5.684   4.319 -0.0405  0.1897 -0.1178
  143OSM    H8F15659   1.617   5.646   4.320 -0.6646 -1.7463 -1.8479
  143OSM    H8G15660   1.453   5.601   4.364  1.4595  0.5572  2.8129
  143OSM    C9F15661   1.497   5.808   4.404 -0.1789  0.6195 -0.4178
  143OSM    H9F15662   1.458   5.898   4.353 -2.3411  0.1110  0.2508
  143OSM   C10F15663   1.514   5.822   4.538  0.0216  0.6743 -0.4082
  143OSM   H10F15664   1.498   5.918   4.590 -1.6155  0.2794 -0.1219
  143OSM   C11F15665   1.549   5.707   4.625  0.6756  0.6541 -0.1322
  143OSM   H11F15666   1.595   5.735   4.723 -1.2562  0.6383  0.8238
  143OSM   H11G15667   1.635   5.650   4.584 -0.0483 -0.1127 -0.6003
  143OSM   C12F15668   1.437   5.610   4.658  0.7023  0.2041 -0.2691
  143OSM   H12F15669   1.490   5.533   4.718  2.5018  1.2599 -0.3993
  143OSM   H12G15670   1.390   5.549   4.578  1.8469 -0.7771 -0.2124
  143OSM   C13F15671   1.318   5.657   4.746  0.1041  0.0525 -0.0555
  143OSM   H13F15672   1.285   5.564   4.798  1.8050 -1.0578 -0.8782
  143OSM   H13G15673   1.238   5.703   4.684 -1.5761 -0.2391  1.7920
  143OSM   C14F15674   1.356   5.755   4.851  0.9026  0.0169  0.1384
  143OSM   H14F15675   1.370   5.854   4.802 -0.1077 -0.7564 -1.8061
  143OSM   H14G15676   1.454   5.726   4.895  0.6491 -2.3355 -0.7130
  143OSM   C15F15677   1.249   5.765   4.952  0.1834 -0.2343 -0.7436
  143OSM   H15F15678   1.204   5.670   4.988 -0.3737  1.2609  2.9705
  143OSM   H15G15679   1.172   5.828   4.901 -0.7641  0.1634  1.1009
  143OSM   C16F15680   1.299   5.840   5.078  0.2168 -0.2828 -0.2581
  143OSM   H16F15681   1.373   5.778   5.132  0.3222  2.0545  2.5176
  143OSM   H16G15682   1.220   5.853   5.155  0.0711 -0.6731 -0.3389
  143OSM   C17F15683   1.360   5.980   5.052 -0.3986 -0.0699 -0.0953
  143OSM   H17F15684   1.269   6.042   5.035  0.1758  0.2276 -2.4386
  143OSM   H17G15685   1.431   5.971   4.967  1.2192 -1.5054  1.3432
  143OSM   C18F15686   1.447   6.033   5.171  0.8495  0.0129  0.6541
  143OSM   H18F15687   1.496   6.126   5.137  0.6614 -0.3512 -0.6739
  143OSM   H18G15688   1.523   5.956   5.198  1.1754  0.5170  1.1912
  143OSM   H18H15689   1.388   6.048   5.264  1.9822  0.3195  1.3419
  144OSM      N15690   5.541   4.825   3.098 -0.0308  0.0921 -0.7045
  144OSM    C1515691   5.630   4.703   3.087 -0.5054 -0.3533 -0.0159
  144OSM   H15A15692   5.628   4.640   3.175  0.4191  1.3914  1.3059
  144OSM   H15B15693   5.728   4.748   3.086 -0.7399  0.1859 -1.3507
  144OSM   H15C15694   5.599   4.645   3.000  0.9087  0.3942 -1.0629
  144OSM    C1415695   5.568   4.899   2.969 -0.6608  0.7510 -0.2730
  144OSM   H14A15696   5.528   4.999   2.977 -1.2836  0.5231 -0.4125
  144OSM   H14B15697   5.536   4.850   2.878 -0.9546 -0.3164  0.3865
  144OSM   H14C15698   5.675   4.910   2.965 -0.8224  2.6242 -0.3320
  144OSM    C1315699   5.395   4.788   3.106 -0.0436  0.5713 -0.2351
  144OSM   H13A15700   5.366   4.745   3.200  2.1186  0.5575  0.4863
  144OSM   H13B15701   5.374   4.713   3.031  1.1015 -1.6732  1.5957
  144OSM   H13C15702   5.345   4.883   3.088  0.0289  0.3764 -1.5883
  144OSM    C1215703   5.580   4.904   3.223  0.0686 -0.8674  0.5894
  144OSM   H12A15704   5.507   4.983   3.227  0.6983 -0.1612 -1.1186
  144OSM   H12B15705   5.676   4.947   3.197 -0.1843 -1.3983 -1.3919
  144OSM    C1115706   5.607   4.844   3.362 -0.5443 -0.0408 -0.1397
  144OSM   H11A15707   5.522   4.780   3.396 -1.5228  1.4353  0.3126
  144OSM   H11B15708   5.606   4.931   3.432  1.6004  0.2016 -0.3515
  144OSM      P15709   5.867   4.848   3.375  0.1835 -0.0124  0.2626
  144OSM    O1315710   5.983   4.764   3.333  0.5398  0.1560  0.2841
  144OSM    O1415711   5.840   4.982   3.315  0.0406  0.5152  0.2985
  144OSM    O1115712   5.887   4.865   3.530 -0.5254 -0.1322  0.1073
  144OSM    O1215713   5.722   4.768   3.368 -0.5097 -0.1980 -0.5818
  144OSM    C1S15714   5.825   4.786   3.626  0.2385 -0.0678 -0.1270
  144OSM    H1S15715   5.838   4.677   3.611  2.8424 -0.3147  2.8749
  144OSM    H1T15716   5.717   4.811   3.626 -0.4785 -2.1294  4.2548
  144OSM     NF15717   5.774   4.728   3.860  0.1393  0.2142 -0.3712
  144OSM    HNF15718   5.691   4.776   3.889  2.2443  2.1755  3.2147
  144OSM    C2S15719   5.872   4.798   3.773  0.3004 -0.3564  0.0909
  144OSM    H2S15720   5.975   4.756   3.780 -0.7559 -2.8284  3.2214
  144OSM    C3S15721   5.867   4.948   3.810  0.1038  0.1445 -0.0491
  144OSM    H3S15722   5.758   4.968   3.818 -0.3663 -2.0631 -0.3389
  144OSM     O315723   5.913   5.042   3.717 -0.2709 -0.0057  0.3942
  144OSM    HO315724   5.924   4.978   3.646  0.4147 -1.0913  1.4399
  144OSM    C4S15725   5.937   4.967   3.944  0.0260 -0.2434 -0.0906
  144OSM    H4S15726   5.865   4.947   4.025 -0.0621  1.8949  0.4116
  144OSM    C5S15727   6.066   4.999   3.979  0.3399 -1.1421  0.1361
  144OSM    H5S15728   6.133   5.026   3.896 -0.3478  0.5928  0.0977
  144OSM    C6S15729   6.124   5.019   4.113 -0.3159 -0.0768 -0.4018
  144OSM    H6S15730   6.195   5.104   4.097 -0.2627 -0.3914 -2.0614
  144OSM    H6T15731   6.175   4.927   4.149 -0.1369  0.1071 -0.1802
  144OSM    C7S15732   6.017   5.071   4.214 -0.0027 -0.3366  1.2024
  144OSM    H7S15733   5.951   4.982   4.226  2.6217 -2.5492  0.4870
  144OSM    H7T15734   5.954   5.152   4.173  1.4549  0.1456 -0.1961
  144OSM    C8S15735   6.073   5.092   4.355 -0.4681 -0.3453  0.1259
  144OSM    H8S15736   6.128   5.188   4.348 -1.8342  0.3794 -1.4253
  144OSM    H8T15737   6.146   5.012   4.379  0.2193  0.4889  0.8951
  144OSM    C9S15738   5.964   5.102   4.463  0.1468 -0.8668  0.4891
  144OSM    H9S15739   5.897   5.013   4.463 -2.1897  0.7787  1.2963
  144OSM    H9T15740   5.896   5.183   4.428  1.5282 -1.0973 -3.1138
  144OSM   C10S15741   6.006   5.134   4.607 -0.0930 -0.1628 -0.4573
  144OSM   H10S15742   6.107   5.176   4.590  1.1412 -3.3984 -2.0387
  144OSM   H10T15743   6.027   5.043   4.667 -0.6880 -0.4840 -0.7198
  144OSM   C11S15744   5.912   5.243   4.667  0.4440 -0.1557  0.6133
  144OSM   H11S15745   5.810   5.200   4.678 -0.1362  0.9838 -0.1049
  144OSM   H11T15746   5.903   5.328   4.596  1.6733 -1.9154 -1.7921
  144OSM   C12S15747   5.940   5.298   4.806 -0.2569  0.5642 -0.5414
  144OSM   H12S15748   5.866   5.379   4.824  1.0711  1.8847 -0.7841
  144OSM   H12T15749   6.039   5.348   4.821 -0.2997  0.3372  0.5988
  144OSM   C13S15750   5.926   5.201   4.923 -0.6092 -0.1759 -0.1673
  144OSM   H13S15751   5.968   5.102   4.896  1.1495 -0.3875  2.9830
  144OSM   H13T15752   5.820   5.182   4.948 -0.3449 -0.5024  0.7372
  144OSM   C14S15753   5.994   5.249   5.049 -0.0885  0.2227  0.1766
  144OSM   H14S15754   5.961   5.353   5.068  1.2780  1.0036 -1.4100
  144OSM   H14T15755   6.104   5.259   5.035  0.1439 -0.0062  1.7238
  144OSM   C15S15756   5.970   5.166   5.173  0.6261  0.0428 -0.7830
  144OSM   H15S15757   5.988   5.058   5.154 -0.7576 -0.1787 -0.8777
  144OSM   H15T15758   5.864   5.185   5.199  0.5464  0.5427 -1.4560
  144OSM   C16S15759   6.061   5.211   5.288 -0.4612 -0.7824  0.5585
  144OSM   H16S15760   6.042   5.319   5.305 -0.6114 -0.4843 -1.3094
  144OSM   H16T15761   6.169   5.196   5.268 -0.3681 -1.6416  1.6169
  144OSM   C17S15762   6.031   5.148   5.424  0.4169 -0.0154  0.3207
  144OSM   H17S15763   5.922   5.155   5.446  1.0707  1.8684  3.6779
  144OSM   H17T15764   6.084   5.222   5.487 -0.8773  2.0805 -0.9632
  144OSM   C18S15765   6.068   5.000   5.450 -0.3748  0.1221 -0.1291
  144OSM   H18S15766   5.992   4.939   5.397  0.5209 -1.0227 -0.1347
  144OSM   H18T15767   6.073   4.978   5.559  1.7205 -1.0565 -0.4246
  144OSM   H18U15768   6.171   4.985   5.411  0.5757  1.1366  1.8083
  144OSM    C1F15769   5.796   4.603   3.881  0.2083 -0.4275 -0.0844
  144OSM     OF15770   5.886   4.545   3.818  0.6413 -0.4459 -0.2571
  144OSM    C2F15771   5.705   4.532   3.981 -0.1908  0.1438  0.1514
  144OSM    H2F15772   5.612   4.509   3.926  1.5754 -1.8825 -2.2254
  144OSM    H2G15773   5.679   4.602   4.063 -1.1950 -0.4284  0.3386
  144OSM    C3F15774   5.755   4.393   4.029 -0.0617  0.2274 -0.3432
  144OSM    H3F15775   5.795   4.338   3.941  1.2951  1.1463 -0.3364
  144OSM    H3G15776   5.664   4.343   4.066 -0.5734  0.6878 -0.9606
  144OSM    C4F15777   5.866   4.408   4.133  0.0538  0.1654 -0.0173
  144OSM    H4F15778   5.944   4.449   4.065 -0.8463  0.0466 -1.1548
  144OSM    H4G15779   5.907   4.311   4.170 -0.6413  0.2516  1.0425
  144OSM    C5F15780   5.852   4.512   4.248 -0.4219 -0.0386 -0.2005
  144OSM    H5F15781   5.750   4.497   4.291 -1.1480  1.0842 -1.4502
  144OSM    H5G15782   5.865   4.618   4.217 -2.6668 -0.1285 -1.6976
  144OSM    C6F15783   5.953   4.489   4.363 -0.6814 -0.2050 -0.7400
  144OSM    H6F15784   6.044   4.553   4.353 -1.2397  0.6589 -0.4358
  144OSM    H6G15785   5.981   4.382   4.368 -0.7518 -0.2243 -0.7732
  144OSM    C7F15786   5.895   4.537   4.507 -0.0313  0.0154  0.8884
  144OSM    H7F15787   5.960   4.485   4.581 -0.8266 -3.1570 -0.4780
  144OSM    H7G15788   5.792   4.496   4.507 -0.6451  1.3689 -1.8249
  144OSM    C8F15789   5.896   4.687   4.515 -0.4228  0.3771 -0.7404
  144OSM    H8F15790   5.817   4.727   4.448  0.5700  1.8594 -1.0999
  144OSM    H8G15791   5.999   4.714   4.482 -0.7098 -0.5213 -2.4635
  144OSM    C9F15792   5.874   4.738   4.654  0.0522  0.3789  0.4061
  144OSM    H9F15793   5.781   4.795   4.668 -0.4651 -0.2077 -0.5624
  144OSM   C10F15794   5.952   4.742   4.754  0.1415  0.3494 -0.4747
  144OSM   H10F15795   5.922   4.801   4.843 -0.2891 -1.3344  0.5382
  144OSM   C11F15796   6.096   4.692   4.756 -0.4562 -0.7602 -0.3847
  144OSM   H11F15797   6.159   4.746   4.683 -2.3825  2.6208  0.2333
  144OSM   H11G15798   6.096   4.583   4.732  0.2831 -0.9351  0.3587
  144OSM   C12F15799   6.181   4.724   4.882  0.2220  1.1474 -0.5675
  144OSM   H12F15800   6.281   4.680   4.863  0.0726  0.4633  0.1787
  144OSM   H12G15801   6.137   4.664   4.964  3.3873 -1.7011 -0.7308
  144OSM   C13F15802   6.189   4.867   4.935  0.1318 -0.2304  0.3098
  144OSM   H13F15803   6.084   4.902   4.948 -0.4477 -1.7102 -0.0944
  144OSM   H13G15804   6.229   4.937   4.860  1.3431  1.3817  2.3686
  144OSM   C14F15805   6.278   4.889   5.060 -0.0930  0.2040 -0.2853
  144OSM   H14F15806   6.240   4.833   5.148  0.3882  1.3882  0.7126
  144OSM   H14G15807   6.278   4.997   5.088  0.3179  0.0663  0.2793
  144OSM   C15F15808   6.427   4.848   5.035  0.6003 -0.4609 -0.3134
  144OSM   H15F15809   6.471   4.907   4.953  1.1762 -0.7507 -0.2184
  144OSM   H15G15810   6.433   4.741   5.005 -0.0336 -0.3059 -1.0213
  144OSM   C16F15811   6.520   4.852   5.168  0.5235  0.8209  0.6071
  144OSM   H16F15812   6.533   4.748   5.207 -1.7204  0.5652  0.8328
  144OSM   H16G15813   6.485   4.934   5.234 -0.9612 -0.3446  1.3261
  144OSM   C17F15814   6.663   4.889   5.126  0.5825  0.1261 -0.0495
  144OSM   H17F15815   6.662   4.993   5.087 -0.8960 -0.7374 -2.5659
  144OSM   H17G15816   6.707   4.825   5.046 -1.2831  0.3286 -1.2816
  144OSM   C18F15817   6.774   4.872   5.233 -0.1790  0.7771  0.4481
  144OSM   H18F15818   6.751   4.941   5.317 -0.2602  1.7329 -0.3376
  144OSM   H18G15819   6.871   4.897   5.185 -1.4978  3.2288 -1.1763
  144OSM   H18H15820   6.773   4.768   5.271 -0.5430  0.3655 -0.6296
  145SAPE     N15821   0.191   0.270   7.768 -0.4980 -0.5387  0.0794
  145SAPE   HN115822   0.118   0.325   7.717  0.3301  0.8134  0.2936
  145SAPE   HN215823   0.273   0.265   7.704  0.2281 -1.3697  1.0443
  145SAPE   HN315824   0.170   0.176   7.806  1.6806 -0.1826  2.4339
  145SAPE   C1215825   0.232   0.363   7.875  0.1196  0.2662 -0.4648
  145SAPE  H12A15826   0.311   0.308   7.930  0.1427  0.5082 -0.2543
  145SAPE  H12B15827   0.147   0.383   7.944 -0.0281 -1.7057 -0.0208
  145SAPE   C1115828   0.287   0.492   7.822 -0.2845 -0.3639 -0.1006
  145SAPE  H11A15829   0.296   0.562   7.907 -3.0792  1.1083 -0.8723
  145SAPE  H11B15830   0.216   0.532   7.746 -1.4771  0.1709  1.2617
  145SAPE     P15831   0.533   0.556   7.783 -0.3825 -0.2724  0.1121
  145SAPE   O1315832   0.503   0.699   7.771  0.2032  0.5450 -0.3581
  145SAPE   O1415833   0.590   0.513   7.915  0.7014  0.7746  0.4503
  145SAPE   O1215834   0.410   0.465   7.755  0.4177  0.3270 -0.6096
  145SAPE   O1115835   0.645   0.511   7.678 -0.5520  0.1517  0.1705
  145SAPE    C115836   0.620   0.527   7.537 -0.3911 -0.0040 -0.8073
  145SAPE    HA15837   0.568   0.622   7.517 -0.3915  0.4724  1.1955
  145SAPE    HB15838   0.719   0.523   7.487 -1.0945  1.5646 -2.3984
  145SAPE    C215839   0.533   0.413   7.475  0.5014  0.2286  0.3409
  145SAPE    HS15840   0.432   0.422   7.521  1.6917  0.1710  3.1937
  145SAPE   O2115841   0.585   0.279   7.493 -0.7929  0.1991 -0.1825
  145SAPE   C2115842   0.496   0.192   7.524  0.2443 -0.4993  0.0092
  145SAPE   O2215843   0.381   0.213   7.560  0.1384  0.1332 -0.5021
  145SAPE   C2215844   0.563   0.055   7.522  0.5978 -0.2216  0.4375
  145SAPE   H2R15845   0.671   0.065   7.497  0.2555  0.0806 -1.0285
  145SAPE   H2S15846   0.549   0.018   7.626  2.4298 -0.4645  0.6327
  145SAPE    C315847   0.509   0.434   7.317  0.0200 -0.0675 -0.0372
  145SAPE    HX15848   0.438   0.518   7.309  2.4180  2.0557 -0.3374
  145SAPE    HY15849   0.461   0.344   7.272  2.0432 -0.9896 -0.4802
  145SAPE   O3115850   0.624   0.469   7.236  0.2190 -0.1623 -0.8346
  145SAPE   C3115851   0.704   0.379   7.184 -0.1759 -0.2059  0.1148
  145SAPE   O3215852   0.667   0.266   7.162 -0.5374  0.2063 -0.6926
  145SAPE   C3215853   0.849   0.430   7.176  0.0620  0.2293  0.6264
  145SAPE   H2X15854   0.885   0.362   7.256 -0.6783 -1.1995 -0.2159
  145SAPE   H2Y15855   0.851   0.540   7.190 -1.5862  0.3997 -0.2019
  145SAPE   C2315856   0.492  -0.041   7.425  0.4558  0.9234  0.6517
  145SAPE   H3R15857   0.384  -0.032   7.451  0.0959  2.5143 -1.2386
  145SAPE   H3S15858   0.525  -0.146   7.444 -0.2406  0.6632  0.4664
  145SAPE   C2415859   0.522  -0.019   7.276  0.7918  0.1499 -0.7271
  145SAPE   H4R15860   0.630  -0.037   7.256  0.3992 -2.0991 -1.0285
  145SAPE   H4S15861   0.506   0.087   7.245 -2.1279  0.4192  1.2881
  145SAPE   C2515862   0.438  -0.103   7.186  0.9967  0.2794 -0.0231
  145SAPE   H5R15863   0.369  -0.177   7.231  2.4554 -1.7357 -0.9130
  145SAPE   C2615864   0.421  -0.088   7.051 -0.3624 -0.1808  0.1808
  145SAPE   H6R15865   0.359  -0.159   6.994  0.0019 -0.1417 -0.2698
  145SAPE   C2715866   0.499   0.012   6.965  0.6291 -0.2443 -0.3714
  145SAPE   H7R15867   0.594  -0.039   6.937  0.7135 -0.2975  0.0059
  145SAPE   H7S15868   0.529   0.102   7.024  1.0663 -0.5782 -0.0671
  145SAPE   C2815869   0.429   0.061   6.842 -0.3567 -0.2058 -0.0685
  145SAPE   H8R15870   0.361   0.148   6.850 -0.0035  0.0126  0.6187
  145SAPE   C2915871   0.450   0.024   6.714  0.1140  0.7424  0.3829
  145SAPE   H9R15872   0.387   0.072   6.638  0.0272  1.5848  0.9708
  145SAPE  C21015873   0.539  -0.094   6.666 -0.4237  0.2150  0.0900
  145SAPE  H10R15874   0.603  -0.130   6.749  1.0026  3.2376  0.4370
  145SAPE  H10S15875   0.609  -0.064   6.584 -0.6727 -0.9632 -0.5797
  145SAPE  C21115876   0.451  -0.198   6.621  0.0801  0.1839 -0.3694
  145SAPE  H11R15877   0.425  -0.270   6.701 -3.0003  0.3985 -1.0625
  145SAPE  C21215878   0.398  -0.221   6.503  0.2069 -0.5338 -0.3556
  145SAPE  H12R15879   0.336  -0.310   6.486  2.3759 -2.3205  0.4773
  145SAPE  C21315880   0.426  -0.145   6.381 -0.0182  0.4682 -0.1891
  145SAPE  H13R15881   0.485  -0.052   6.397 -1.0615  1.0370  0.4753
  145SAPE  H13S15882   0.325  -0.115   6.346 -0.9412 -0.2318  1.7759
  145SAPE  C21415883   0.482  -0.236   6.267 -0.1896 -0.0031 -0.2709
  145SAPE  H14R15884   0.481  -0.342   6.295 -1.3046 -0.0791 -0.5343
  145SAPE  C21515885   0.520  -0.181   6.150 -0.0237 -0.4917 -1.2388
  145SAPE  H15R15886   0.574  -0.239   6.073  2.6417  1.8881 -1.3284
  145SAPE  C21615887   0.514  -0.036   6.132  0.3061  0.5841  0.0969
  145SAPE  H16R15888   0.605   0.002   6.182  0.9326 -1.1079  0.2846
  145SAPE  H16S15889   0.430   0.010   6.189 -0.9013  1.4515 -2.2484
  145SAPE  C21715890   0.518   0.019   5.989 -0.0602  0.3586 -0.1095
  145SAPE  H17R15891   0.594  -0.037   5.930 -1.2800 -2.1688  0.5911
  145SAPE  H17S15892   0.533   0.129   5.991 -0.3759  0.4436 -1.7501
  145SAPE  C21815893   0.382   0.004   5.917 -0.5432  0.6701 -0.4069
  145SAPE  H18R15894   0.303   0.019   5.994  0.3896 -0.8233  0.9161
  145SAPE  H18S15895   0.369  -0.100   5.879  0.2431  0.1673  0.6462
  145SAPE  C21915896   0.350   0.102   5.800  0.7681  0.6080 -0.3186
  145SAPE  H19R15897   0.435   0.090   5.728 -1.5547  0.5881 -3.2503
  145SAPE  H19S15898   0.350   0.203   5.847 -1.0274 -0.3477  1.9070
  145SAPE  C22015899   0.219   0.066   5.728 -0.2018  0.2643 -0.1415
  145SAPE  H20R15900   0.216  -0.042   5.702  3.3615  0.2892 -1.1641
  145SAPE  H20S15901   0.215   0.124   5.633  2.1413  0.3013 -0.2780
  145SAPE  H20T15902   0.135   0.090   5.796  0.1638 -0.0089  0.4147
  145SAPE   C3315903   0.932   0.390   7.050  0.5712 -0.1852 -0.3439
  145SAPE   H3X15904   0.934   0.279   7.050 -2.6847 -0.3949  2.0450
  145SAPE   H3Y15905   1.037   0.424   7.061  0.7297 -0.8148  0.1508
  145SAPE   C3415906   0.877   0.457   6.930 -0.4621  0.3857  0.1684
  145SAPE   H4X15907   0.863   0.566   6.946  1.2401  0.5084  1.0620
  145SAPE   H4Y15908   0.779   0.411   6.904  0.5126 -1.5092 -0.4115
  145SAPE   C3515909   0.967   0.438   6.808  0.3147  0.4030  0.3725
  145SAPE   H5X15910   0.975   0.330   6.786  1.0658  0.9862 -2.6539
  145SAPE   H5Y15911   1.072   0.468   6.832  0.3530  0.8839 -0.3692
  145SAPE   C3615912   0.926   0.513   6.690  0.2006 -0.4645  0.8982
  145SAPE   H6X15913   0.933   0.623   6.699 -1.0580 -0.4608  2.2995
  145SAPE   H6Y15914   0.820   0.499   6.660  0.7514  1.9165 -2.7674
  145SAPE   C3715915   1.008   0.473   6.565 -0.3024  0.4030 -0.4502
  145SAPE   H7X15916   0.979   0.367   6.544 -2.0340  0.0095  3.0699
  145SAPE   H7Y15917   1.117   0.460   6.581 -0.0950 -0.2351 -2.1721
  145SAPE   C3815918   1.001   0.571   6.448  0.1204 -0.4180 -0.5442
  145SAPE   H8X15919   0.984   0.669   6.497 -0.7609 -0.9362  0.2248
  145SAPE   H8Y15920   0.914   0.552   6.383  1.2557  1.6795 -2.8135
  145SAPE   C3915921   1.118   0.558   6.356 -0.8551  0.4841 -0.0561
  145SAPE   H9X15922   1.144   0.452   6.337 -0.1880  0.3763  1.2689
  145SAPE   H9Y15923   1.201   0.595   6.420 -1.0294  0.1953  0.3395
  145SAPE  C31015924   1.114   0.631   6.229  0.7809 -0.3156  0.9122
  145SAPE  H10X15925   1.115   0.739   6.253  0.6882 -0.6335  2.4550
  145SAPE  H10Y15926   1.019   0.605   6.177  1.2160  1.0162 -0.6216
  145SAPE  C31115927   1.240   0.608   6.145 -0.2578 -0.4356  0.2659
  145SAPE  H11X15928   1.258   0.499   6.136  2.3448 -0.1495  1.0869
  145SAPE  H11Y15929   1.322   0.642   6.212 -0.5504 -1.8597  1.3867
  145SAPE  C31215930   1.239   0.672   6.007 -0.1392 -0.3048  0.0774
  145SAPE  H12X15931   1.216   0.780   6.004  1.9212  0.1602 -1.2263
  145SAPE  H12Y15932   1.165   0.630   5.935 -0.6634 -0.1942  0.5481
  145SAPE  C31315933   1.378   0.650   5.939  0.3797 -0.6436 -0.1078
  145SAPE  H13X15934   1.406   0.544   5.960 -3.4596 -1.5945  1.1550
  145SAPE  H13Y15935   1.443   0.722   5.993 -0.1149 -0.9614  0.9342
  145SAPE  C31415936   1.368   0.665   5.790  0.3075  0.2632 -0.1099
  145SAPE  H14X15937   1.324   0.765   5.768 -0.9998 -0.5417 -1.2510
  145SAPE  H14Y15938   1.298   0.585   5.758  0.4071 -0.4913  1.4927
  145SAPE  C31515939   1.487   0.652   5.708 -0.0183 -0.3194  0.6037
  145SAPE  H15X15940   1.529   0.549   5.719 -0.7804 -0.7819 -0.6622
  145SAPE  H15Y15941   1.566   0.726   5.735 -0.9602  0.3444  1.6148
  145SAPE  C31615942   1.456   0.690   5.564 -0.2771 -0.3325  0.5928
  145SAPE  H16X15943   1.390   0.780   5.567  1.1112  0.7627 -0.1803
  145SAPE  H16Y15944   1.398   0.611   5.514 -0.6298  1.1973 -1.5510
  145SAPE  C31715945   1.578   0.709   5.473  0.8194 -1.7192  0.0746
  145SAPE  H17X15946   1.626   0.809   5.486 -1.5899 -0.3108 -1.1921
  145SAPE  H17Y15947   1.545   0.698   5.367  2.9999  0.5134 -0.9324
  145SAPE  C31815948   1.686   0.607   5.494 -0.5326  0.2058 -0.7885
  145SAPE  H18X15949   1.763   0.606   5.414  1.8561  0.1830  1.3859
  145SAPE  H18Y15950   1.638   0.507   5.487  0.1605 -0.0538 -2.0818
  145SAPE  H18Z15951   1.728   0.621   5.596 -0.1120  0.7317 -1.0322
  146SAPE     N15952   1.844   2.781   7.898  0.0664 -0.4448 -0.1750
  146SAPE   HN115953   1.906   2.852   7.942 -0.2269 -0.0067 -0.4667
  146SAPE   HN215954   1.770   2.831   7.846 -0.8725  0.1416  1.6307
  146SAPE   HN315955   1.790   2.728   7.970 -2.9353  0.8297 -1.3385
  146SAPE   C1215956   1.925   2.684   7.814 -0.6590  0.7483  0.2210
  146SAPE  H12A15957   1.912   2.589   7.870  0.6625  0.3327 -0.1484
  146SAPE  H12B15958   2.033   2.707   7.821 -0.8510  1.3171  1.6360
  146SAPE   C1115959   1.884   2.664   7.664  0.4358 -0.5213  0.6966
  146SAPE  H11A15960   1.949   2.582   7.626  0.2392 -0.5455  0.4149
  146SAPE  H11B15961   1.901   2.763   7.618  0.3618 -0.7146  0.2504
  146SAPE     P15962   1.698   2.488   7.662  0.2744 -0.8398  0.1856
  146SAPE   O1315963   1.795   2.408   7.739  0.3026  0.4511 -0.0318
  146SAPE   O1415964   1.568   2.487   7.725  0.3310  0.1928  0.3924
  146SAPE   O1215965   1.742   2.639   7.655 -0.5676  0.2631  0.2420
  146SAPE   O1115966   1.680   2.424   7.524  0.6400  0.2190  0.0531
  146SAPE    C115967   1.745   2.474   7.398  0.2706  1.0532 -0.0448
  146SAPE    HA15968   1.684   2.449   7.309 -2.4150 -0.3547  2.0371
  146SAPE    HB15969   1.775   2.581   7.400  0.0211  1.1420 -0.8412
  146SAPE    C215970   1.876   2.388   7.378 -0.6084 -0.2995  0.2760
  146SAPE    HS15971   1.939   2.397   7.468 -1.5337 -0.6800  0.9774
  146SAPE   O2115972   1.932   2.452   7.259 -0.0994 -0.0042 -0.6342
  146SAPE   C2115973   2.054   2.494   7.274  0.1833  0.0978  0.2055
  146SAPE   O2215974   2.127   2.483   7.367 -0.0306 -0.0397  0.6412
  146SAPE   C2215975   2.097   2.545   7.134 -0.4231  0.3850  0.0446
  146SAPE   H2R15976   2.130   2.470   7.060 -0.0246 -0.1506  0.7539
  146SAPE   H2S15977   2.005   2.593   7.093 -1.5744  0.1383  2.1725
  146SAPE    C315978   1.850   2.237   7.348 -0.1389  0.5086 -0.0425
  146SAPE    HX15979   1.797   2.226   7.251 -0.2644 -0.3395  0.1178
  146SAPE    HY15980   1.773   2.206   7.422  0.5320 -0.2796  0.3337
  146SAPE   O3115981   1.968   2.162   7.348  0.0859 -0.4596  0.4573
  146SAPE   C3115982   1.954   2.032   7.334  0.0498  0.1611 -0.1482
  146SAPE   O3215983   1.847   1.973   7.335  0.0234 -0.5248 -0.2576
  146SAPE   C3215984   2.091   1.975   7.307 -0.2623 -1.0249 -0.1082
  146SAPE   H2X15985   2.118   1.916   7.397 -1.0567 -3.0089 -1.1252
  146SAPE   H2Y15986   2.167   2.055   7.294 -0.2211 -1.5413 -4.4849
  146SAPE   C2315987   2.195   2.671   7.146 -0.6312  0.3846  0.5837
  146SAPE   H3R15988   2.294   2.625   7.169 -0.5322 -0.7448 -1.7817
  146SAPE   H3S15989   2.171   2.739   7.230  0.3380  2.4324 -0.7145
  146SAPE   C2415990   2.215   2.756   7.019  0.5845 -0.0942 -0.1614
  146SAPE   H4R15991   2.247   2.691   6.935  1.6409  0.7717 -0.4529
  146SAPE   H4S15992   2.299   2.828   7.029  0.9497 -0.5009 -0.2701
  146SAPE   C2515993   2.086   2.831   6.984 -0.1538 -0.3512  0.1404
  146SAPE   H5R15994   2.052   2.898   7.064  1.0690 -1.1815  1.4058
  146SAPE   C2615995   2.005   2.815   6.881  0.6615  0.5012 -0.2453
  146SAPE   H6R15996   1.921   2.885   6.871  0.2327  0.0042 -0.1409
  146SAPE   C2715997   2.016   2.724   6.765  0.0892 -0.4292 -0.4885
  146SAPE   H7R15998   2.004   2.616   6.788  0.1888 -0.4416 -0.4930
  146SAPE   H7S15999   2.124   2.740   6.748  0.1940 -0.7373 -0.1270
  146SAPE   C2816000   1.947   2.750   6.634 -0.3537  0.3255  0.0318
  146SAPE   H8R16001   1.838   2.746   6.640 -0.3163  0.5761  1.0122
  146SAPE   C2916002   2.008   2.780   6.515  0.5141  0.2807  0.4241
  146SAPE   H9R16003   1.947   2.790   6.424 -0.3888  1.4143  1.1382
  146SAPE  C21016004   2.160   2.784   6.497 -0.2412 -0.2173 -0.3571
  146SAPE  H10R16005   2.194   2.679   6.490  1.3989  0.2460  0.0090
  146SAPE  H10S16006   2.210   2.819   6.590  3.1076  0.3749 -2.1939
  146SAPE  C21116007   2.214   2.871   6.383 -0.6357  0.2932  1.1236
  146SAPE  H11R16008   2.250   2.973   6.404 -1.4268  0.7171  0.4342
  146SAPE  C21216009   2.206   2.836   6.249  0.5327 -0.3623  0.3386
  146SAPE  H12R16010   2.239   2.904   6.169 -0.6878 -0.0277  0.1016
  146SAPE  C21316011   2.158   2.702   6.191 -0.1474 -0.4902 -0.8652
  146SAPE  H13R16012   2.053   2.723   6.164  0.1412  0.7088 -1.0967
  146SAPE  H13S16013   2.169   2.632   6.276  3.1870  1.5999  0.6353
  146SAPE  C21416014   2.250   2.667   6.074 -0.3199 -0.9824  0.6859
  146SAPE  H14R16015   2.330   2.595   6.097  1.6523  1.3648  1.4971
  146SAPE  C21516016   2.239   2.706   5.945  0.1856 -0.0268 -0.0959
  146SAPE  H15R16017   2.302   2.653   5.872  0.2856 -0.0702  0.0214
  146SAPE  C21616018   2.131   2.789   5.880  0.1047  0.7603  0.1520
  146SAPE  H16R16019   2.166   2.881   5.829 -2.9241  1.6907 -0.3945
  146SAPE  H16S16020   2.059   2.824   5.956  0.8673  3.7352 -0.3828
  146SAPE  C21716021   2.053   2.688   5.788  0.1767 -0.5028 -1.1072
  146SAPE  H17R16022   2.127   2.639   5.722  2.4409  0.4602  0.5759
  146SAPE  H17S16023   1.986   2.734   5.713 -0.6689 -0.8417 -0.5732
  146SAPE  C21816024   1.970   2.593   5.880 -0.9245 -0.6867  0.0676
  146SAPE  H18R16025   1.959   2.645   5.977  0.5649  1.1147 -0.6472
  146SAPE  H18S16026   2.017   2.500   5.917  1.5882  0.3300 -0.3298
  146SAPE  C21916027   1.838   2.550   5.817  0.6186 -0.2714  0.5102
  146SAPE  H19R16028   1.775   2.638   5.790  2.4923  0.4311 -1.8555
  146SAPE  H19S16029   1.788   2.492   5.897  2.0398 -1.9082  0.2800
  146SAPE  C22016030   1.858   2.451   5.704  0.0014 -0.6964 -0.0700
  146SAPE  H20R16031   1.764   2.395   5.688 -0.8044  0.8959 -1.1390
  146SAPE  H20S16032   1.927   2.369   5.734  1.6218  1.1156  1.3838
  146SAPE  H20T16033   1.893   2.501   5.611 -0.0861 -0.2530  0.1361
  146SAPE   C3316034   2.097   1.890   7.192 -0.2233  0.8256  0.3699
  146SAPE   H3X16035   2.025   1.806   7.201  3.2972 -2.3584  1.7387
  146SAPE   H3Y16036   2.197   1.846   7.177 -1.3527 -1.4715 -0.8106
  146SAPE   C3416037   2.074   1.971   7.063  0.1109  0.0057 -0.2132
  146SAPE   H4X16038   1.978   2.024   7.075  0.1989  0.1172  0.0061
  146SAPE   H4Y16039   2.069   1.908   6.972  0.2674 -0.8360  0.3499
  146SAPE   C3516040   2.179   2.082   7.042 -0.0083 -0.2325 -0.1659
  146SAPE   H5X16041   2.283   2.050   7.063  0.1186  0.7631  0.8177
  146SAPE   H5Y16042   2.155   2.160   7.117  0.7849 -1.1082  1.0405
  146SAPE   C3616043   2.182   2.146   6.905  0.7094 -0.8102  0.0428
  146SAPE   H6X16044   2.089   2.193   6.867  0.0377  0.6636  3.1139
  146SAPE   H6Y16045   2.204   2.069   6.828  2.0331 -1.0846  0.6538
  146SAPE   C3716046   2.291   2.262   6.901 -0.2408 -0.2681  0.3805
  146SAPE   H7X16047   2.395   2.226   6.914 -0.0954  0.8519  2.7978
  146SAPE   H7Y16048   2.259   2.328   6.985 -1.7394  0.4297 -0.6926
  146SAPE   C3816049   2.270   2.346   6.777 -0.2792 -0.3165 -0.0104
  146SAPE   H8X16050   2.339   2.431   6.800 -1.1477  0.8088 -1.4201
  146SAPE   H8Y16051   2.168   2.386   6.796 -0.1947 -0.3089  0.4430
  146SAPE   C3916052   2.280   2.273   6.645 -0.2856 -0.0429  0.8526
  146SAPE   H9X16053   2.205   2.192   6.655 -0.9322  0.5229  0.5984
  146SAPE   H9Y16054   2.380   2.227   6.626 -0.5200 -0.1408 -0.1835
  146SAPE  C31016055   2.247   2.364   6.514  0.0282  0.1036 -0.3039
  146SAPE  H10X16056   2.338   2.426   6.499 -1.8248  2.8600 -0.9253
  146SAPE  H10Y16057   2.156   2.421   6.538 -0.4741 -0.6351 -0.4058
  146SAPE  C31116058   2.230   2.285   6.390 -0.3822  0.4048 -0.5905
  146SAPE  H11X16059   2.303   2.202   6.399 -1.6408 -0.4757  3.1614
  146SAPE  H11Y16060   2.251   2.341   6.296 -0.4142  0.8989 -0.3040
  146SAPE  C31216061   2.085   2.223   6.376 -0.3928  0.2363  0.2273
  146SAPE  H12X16062   2.055   2.184   6.476  1.7782  0.4135  0.9980
  146SAPE  H12Y16063   2.095   2.143   6.300  1.1301  2.7341 -2.3671
  146SAPE  C31316064   1.980   2.333   6.337  0.2250  0.0720  0.2263
  146SAPE  H13X16065   2.023   2.405   6.264  2.6448 -1.1742  0.2987
  146SAPE  H13Y16066   1.958   2.397   6.425  1.1306  0.6433  0.0574
  146SAPE  C31416067   1.857   2.270   6.280 -0.0404  0.5617 -0.4203
  146SAPE  H14X16068   1.762   2.322   6.304  0.3185  0.2569  1.8974
  146SAPE  H14Y16069   1.844   2.168   6.324  1.7893 -0.8841 -2.9550
  146SAPE  C31516070   1.868   2.250   6.127 -0.1280  0.6858 -0.0941
  146SAPE  H15X16071   1.938   2.165   6.112  0.5918  0.9715  1.4176
  146SAPE  H15Y16072   1.916   2.340   6.082 -0.4166  1.7661  1.6240
  146SAPE  C31616073   1.737   2.223   6.059 -0.3772  0.1385 -0.8127
  146SAPE  H16X16074   1.687   2.322   6.050 -0.6311 -0.0270 -1.2853
  146SAPE  H16Y16075   1.675   2.158   6.124 -1.8693  0.2250 -2.0786
  146SAPE  C31716076   1.749   2.148   5.928 -0.1810 -0.5055 -0.6230
  146SAPE  H17X16077   1.792   2.048   5.949  1.6698  0.5786  1.2434
  146SAPE  H17Y16078   1.817   2.202   5.858 -2.3973  1.6891 -1.2371
  146SAPE  C31816079   1.617   2.128   5.853 -0.2179  0.2212  0.7438
  146SAPE  H18X16080   1.632   2.072   5.758  2.4230  0.3195  1.0104
  146SAPE  H18Y16081   1.576   2.227   5.826  4.0293  1.5140 -1.9979
  146SAPE  H18Z16082   1.548   2.059   5.907  0.1546 -0.6818  0.1047
  147SAPE     N16083   0.475   2.050   7.687 -0.1822  0.4550  0.5704
  147SAPE   HN116084   0.527   1.998   7.761  0.4919  1.9388  1.2092
  147SAPE   HN216085   0.376   2.071   7.710 -1.0219 -2.2684 -0.2343
  147SAPE   HN316086   0.471   1.991   7.602  0.5637  0.3927  0.5676
  147SAPE   C1216087   0.544   2.182   7.663 -0.6003  0.6185  0.2230
  147SAPE  H12A16088   0.544   2.237   7.759  1.7077 -0.9906  1.2309
  147SAPE  H12B16089   0.497   2.242   7.582  0.8541  2.3689  0.5965
  147SAPE   C1116090   0.691   2.159   7.617 -0.6198  0.2134 -0.4715
  147SAPE  H11A16091   0.760   2.127   7.698 -1.7590  2.7532  1.6468
  147SAPE  H11B16092   0.726   2.258   7.581 -1.0680  1.0382  1.2900
  147SAPE     P16093   0.803   2.060   7.395  0.3876 -0.5313 -0.1665
  147SAPE   O1316094   0.930   2.104   7.452  0.4190 -0.5000  0.3151
  147SAPE   O1416095   0.794   1.929   7.329  0.6124  0.0299 -0.0434
  147SAPE   O1216096   0.693   2.063   7.509  0.2296  0.0637 -0.1310
  147SAPE   O1116097   0.751   2.169   7.293 -0.5217  0.4795 -0.6305
  147SAPE    C116098   0.611   2.168   7.244 -0.0860 -0.6342  0.1707
  147SAPE    HA16099   0.552   2.079   7.274 -1.9643  0.7733  0.8592
  147SAPE    HB16100   0.555   2.259   7.275  2.0498 -0.0087  2.5040
  147SAPE    C216101   0.612   2.142   7.083 -0.3520 -0.0054 -0.2291
  147SAPE    HS16102   0.516   2.092   7.059 -0.1821 -1.4695  1.9084
  147SAPE   O2116103   0.736   2.071   7.053 -0.3681  0.0391 -0.1899
  147SAPE   C2116104   0.727   1.984   6.955 -0.5567 -0.5855  0.3532
  147SAPE   O2216105   0.628   1.968   6.878  0.7059  0.6095  0.0681
  147SAPE   C2216106   0.856   1.901   6.928 -0.3495  0.1500 -0.5043
  147SAPE   H2R16107   0.949   1.960   6.944  0.0097 -0.9853  2.1875
  147SAPE   H2S16108   0.858   1.827   7.012 -0.1929  2.3802  1.5636
  147SAPE    C316109   0.610   2.279   7.019  0.4792  0.1679 -0.1329
  147SAPE    HX16110   0.700   2.331   7.057  1.1135 -1.0787  0.1120
  147SAPE    HY16111   0.517   2.333   7.046  1.0287  0.5936  0.9485
  147SAPE   O3116112   0.613   2.267   6.873  0.5999 -0.2827 -0.1366
  147SAPE   C3116113   0.505   2.259   6.807  0.4917 -0.1072  0.0660
  147SAPE   O3216114   0.389   2.265   6.850  0.1786  0.2785  0.0634
  147SAPE   C3216115   0.536   2.242   6.655  0.5071  0.3020 -0.4590
  147SAPE   H2X16116   0.511   2.339   6.606 -1.3591  0.2038  0.2208
  147SAPE   H2Y16117   0.465   2.159   6.631  2.3519 -2.0768  1.7261
  147SAPE   C2316118   0.855   1.834   6.791  0.1035 -0.0909  0.6736
  147SAPE   H3R16119   0.821   1.905   6.713 -1.8474 -1.6464  0.0232
  147SAPE   H3S16120   0.783   1.750   6.781 -1.3600  0.9734  1.9576
  147SAPE   C2416121   0.982   1.790   6.724 -0.3490  0.1604 -0.2534
  147SAPE   H4R16122   1.051   1.876   6.710 -0.9929  1.0290  1.5432
  147SAPE   H4S16123   0.941   1.744   6.632  0.8659  1.4728 -1.5157
  147SAPE   C2516124   1.043   1.675   6.799 -0.0658 -0.1274 -0.5863
  147SAPE   H5R16125   0.983   1.583   6.786 -0.7500  0.1285  0.6085
  147SAPE   C2616126   1.153   1.680   6.880 -0.3099  1.3120  0.2515
  147SAPE   H6R16127   1.183   1.588   6.931 -0.1376  0.0786 -1.9206
  147SAPE   C2716128   1.236   1.800   6.915  0.0433  0.7202 -0.8200
  147SAPE   H7R16129   1.308   1.799   6.999 -0.5327  2.2010 -0.2715
  147SAPE   H7S16130   1.166   1.882   6.943  0.0216  0.8471 -1.2331
  147SAPE   C2816131   1.318   1.846   6.798  0.0494  0.5173  0.2426
  147SAPE   H8R16132   1.275   1.926   6.737  0.3441  1.2932  1.0362
  147SAPE   C2916133   1.435   1.799   6.760 -0.0760 -0.0890  0.0238
  147SAPE   H9R16134   1.461   1.839   6.660 -2.6103  1.2582 -0.1910
  147SAPE  C21016135   1.520   1.692   6.830  0.1667  0.7632  0.0532
  147SAPE  H10R16136   1.450   1.611   6.861 -0.9219  1.3336 -0.8530
  147SAPE  H10S16137   1.566   1.733   6.922 -0.9599 -0.3422  1.1549
  147SAPE  C21116138   1.632   1.631   6.748 -0.0073 -0.1545 -0.2515
  147SAPE  H11R16139   1.611   1.545   6.683  0.2337  1.5953 -2.7666
  147SAPE  C21216140   1.756   1.690   6.737  0.2360  0.3530 -0.1592
  147SAPE  H12R16141   1.829   1.638   6.674 -0.7852 -0.9560 -0.3068
  147SAPE  C21316142   1.799   1.824   6.799  0.0509  0.1791 -0.1952
  147SAPE  H13R16143   1.861   1.802   6.889 -1.7879  1.9199  1.6215
  147SAPE  H13S16144   1.712   1.884   6.835 -0.9429 -1.7569  0.7761
  147SAPE  C21416145   1.904   1.891   6.715  0.3533 -0.1588  0.2021
  147SAPE  H14R16146   1.995   1.835   6.690 -0.4806 -0.8896 -1.3478
  147SAPE  C21516147   1.894   2.010   6.665 -0.4071 -0.3615  0.3379
  147SAPE  H15R16148   1.972   2.055   6.601 -0.4281 -1.8954 -0.8260
  147SAPE  C21616149   1.768   2.100   6.675 -1.0578 -0.0075  0.1507
  147SAPE  H16R16150   1.671   2.048   6.690 -1.9961  1.5710 -0.1940
  147SAPE  H16S16151   1.754   2.157   6.581 -3.7794 -1.5016 -0.4599
  147SAPE  C21716152   1.789   2.195   6.798 -0.2565  0.3418 -0.0572
  147SAPE  H17R16153   1.868   2.270   6.780 -0.0548 -0.6235 -4.0139
  147SAPE  H17S16154   1.822   2.131   6.883  0.3558  1.7184  0.7739
  147SAPE  C21816155   1.654   2.261   6.828 -0.1113  0.7653 -0.5621
  147SAPE  H18R16156   1.571   2.187   6.825  1.0137 -0.5773  0.0761
  147SAPE  H18S16157   1.626   2.336   6.752 -0.0294  1.3902  0.0178
  147SAPE  C21916158   1.643   2.326   6.971  0.3259  0.0073  0.0266
  147SAPE  H19R16159   1.732   2.387   6.996 -0.3386  1.1048 -0.2305
  147SAPE  H19S16160   1.636   2.239   7.040  0.9595 -2.8775 -3.2542
  147SAPE  C22016161   1.509   2.407   6.963  0.1556 -0.7458  0.7129
  147SAPE  H20R16162   1.481   2.460   7.057  1.3704  0.2424  0.5501
  147SAPE  H20S16163   1.425   2.337   6.944 -1.3896  1.4042 -0.9594
  147SAPE  H20T16164   1.525   2.489   6.889 -0.9203 -1.7547 -0.6820
  147SAPE   C3316165   0.680   2.210   6.614 -0.6423  0.8035 -0.2464
  147SAPE   H3X16166   0.712   2.112   6.654 -0.9333  0.0391 -1.8205
  147SAPE   H3Y16167   0.733   2.297   6.659  0.5041  0.1611 -0.3288
  147SAPE   C3416168   0.707   2.222   6.467  0.2103 -0.0107  0.8111
  147SAPE   H4X16169   0.680   2.326   6.438  1.1013 -0.1469 -0.5945
  147SAPE   H4Y16170   0.639   2.163   6.402  1.3226 -0.7850  0.3322
  147SAPE   C3516171   0.856   2.204   6.430 -0.1689  0.3343  0.2020
  147SAPE   H5X16172   0.890   2.107   6.472  0.8361  0.9613  0.9008
  147SAPE   H5Y16173   0.911   2.292   6.471  0.2160 -0.1191  0.6778
  147SAPE   C3616174   0.871   2.196   6.274  0.1222 -0.0387  0.1188
  147SAPE   H6X16175   0.830   2.100   6.236 -1.4986  0.3828  0.7450
  147SAPE   H6Y16176   0.979   2.183   6.248  0.3385  1.2272  0.3475
  147SAPE   C3716177   0.825   2.323   6.193  0.5772  0.2178 -1.1774
  147SAPE   H7X16178   0.898   2.397   6.230 -0.5462 -0.3231  2.4620
  147SAPE   H7Y16179   0.723   2.359   6.219  1.1423  1.1412 -0.1984
  147SAPE   C3816180   0.845   2.301   6.038  0.2101 -0.4411 -1.3557
  147SAPE   H8X16181   0.775   2.219   6.010 -1.8845  0.6743  0.3601
  147SAPE   H8Y16182   0.946   2.255   6.030  0.8071  0.1161  1.8143
  147SAPE   C3916183   0.806   2.422   5.955  0.1091 -0.6980  0.3050
  147SAPE   H9X16184   0.883   2.501   5.968 -2.1915  1.9474 -1.0286
  147SAPE   H9Y16185   0.706   2.462   5.981  0.2239 -0.0083 -0.2877
  147SAPE  C31016186   0.803   2.402   5.802  0.8011  0.0216  0.9330
  147SAPE  H10X16187   0.714   2.336   5.788  1.1652 -0.2981  0.0669
  147SAPE  H10Y16188   0.897   2.352   5.772  0.3586 -0.6765  0.6948
  147SAPE  C31116189   0.780   2.535   5.718  0.2201  1.0460  0.1245
  147SAPE  H11X16190   0.854   2.611   5.752  1.5785  0.6145 -1.6821
  147SAPE  H11Y16191   0.681   2.574   5.749 -0.6713  0.1419 -1.4226
  147SAPE  C31216192   0.786   2.529   5.563 -0.5391  0.3102  0.2115
  147SAPE  H12X16193   0.706   2.461   5.526  1.6092 -1.1646 -2.0079
  147SAPE  H12Y16194   0.885   2.489   5.535 -1.1829 -0.9569 -0.3462
  147SAPE  C31316195   0.763   2.663   5.492 -0.5142  0.0668 -0.1270
  147SAPE  H13X16196   0.836   2.739   5.524 -1.7644  1.2958 -0.1061
  147SAPE  H13Y16197   0.664   2.706   5.517 -0.3206 -0.0144  0.8285
  147SAPE  C31416198   0.779   2.656   5.333  0.0963  0.9176 -0.2867
  147SAPE  H14X16199   0.681   2.624   5.292 -0.9148  1.0281  1.8978
  147SAPE  H14Y16200   0.852   2.575   5.315  0.1502  1.1749 -1.2574
  147SAPE  C31516201   0.811   2.787   5.267 -0.1766 -0.5708  1.7231
  147SAPE  H15X16202   0.908   2.835   5.294  1.1813 -2.1135 -0.1799
  147SAPE  H15Y16203   0.725   2.854   5.286 -1.3234 -1.1223 -1.1016
  147SAPE  C31616204   0.812   2.755   5.119  0.6952 -0.0339  0.3239
  147SAPE  H16X16205   0.730   2.693   5.077  1.8901 -0.6934 -1.1422
  147SAPE  H16Y16206   0.900   2.690   5.100  1.2470 -0.5564  3.9632
  147SAPE  C31716207   0.822   2.876   5.023  0.2275  0.3837  0.7929
  147SAPE  H17X16208   0.869   2.841   4.929 -2.3663  2.9875 -1.6578
  147SAPE  H17Y16209   0.891   2.955   5.060  0.7303  0.3377 -0.0114
  147SAPE  C31816210   0.690   2.937   4.988  0.6246 -0.2633  0.3925
  147SAPE  H18X16211   0.628   2.877   4.917  1.9620 -3.3948  1.7113
  147SAPE  H18Y16212   0.690   3.043   4.954 -2.0764 -0.4323 -0.4328
  147SAPE  H18Z16213   0.633   2.940   5.083 -0.2426 -0.4809 -0.1073
  148SAPE     N16214   0.163   4.597   7.641  0.2379 -0.5314 -0.4196
  148SAPE   HN116215   0.165   4.699   7.659 -0.0901 -0.8655  1.8546
  148SAPE   HN216216   0.250   4.564   7.594  1.3006  1.1716  0.2949
  148SAPE   HN316217   0.085   4.586   7.572  0.7498 -2.0787 -0.8026
  148SAPE   C1216218   0.134   4.506   7.758  0.0676 -0.2508 -0.1074
  148SAPE  H12A16219   0.104   4.403   7.728 -0.2094 -0.5049  0.9995
  148SAPE  H12B16220   0.048   4.556   7.806  0.6361  1.2074 -0.5553
  148SAPE   C1116221   0.256   4.484   7.852  0.0938  0.6067 -0.5591
  148SAPE  H11A16222   0.336   4.434   7.795  0.0686 -2.2345  1.6858
  148SAPE  H11B16223   0.234   4.408   7.931  2.3978 -0.4564 -0.8731
  148SAPE     P16224   0.447   4.640   7.907  0.1825 -0.2504 -0.4055
  148SAPE   O1316225   0.482   4.771   7.967 -0.4899 -0.3540 -0.2910
  148SAPE   O1416226   0.527   4.528   7.961 -0.2166  0.1828  0.2869
  148SAPE   O1216227   0.296   4.603   7.918 -0.2143 -0.6165 -0.2380
  148SAPE   O1116228   0.475   4.655   7.756  0.5715 -0.5785 -0.1804
  148SAPE    C116229   0.590   4.720   7.700  0.2571 -0.3452 -0.3643
  148SAPE    HA16230   0.598   4.818   7.750 -1.8731  0.5234 -1.5900
  148SAPE    HB16231   0.674   4.649   7.718 -0.5941 -0.7914  2.1229
  148SAPE    C216232   0.578   4.750   7.548  0.5420  0.0421  0.3431
  148SAPE    HS16233   0.479   4.800   7.532  1.3990  0.9644 -2.7964
  148SAPE   O2116234   0.606   4.628   7.464  0.8853 -0.8063 -0.4319
  148SAPE   C2116235   0.507   4.545   7.467 -0.0923  0.1403  0.7386
  148SAPE   O2216236   0.395   4.558   7.514  0.6924 -0.9842  0.0279
  148SAPE   C2216237   0.552   4.411   7.410 -0.2404  0.6076  0.1838
  148SAPE   H2R16238   0.660   4.402   7.435 -0.2061 -3.6357 -0.7012
  148SAPE   H2S16239   0.485   4.331   7.446 -0.0312  0.7152  0.8227
  148SAPE    C316240   0.674   4.855   7.507  0.3701 -0.1761 -0.2990
  148SAPE    HX16241   0.782   4.835   7.523  0.3647 -1.6607 -1.8432
  148SAPE    HY16242   0.656   4.955   7.554  1.0854  0.9318 -2.2471
  148SAPE   O3116243   0.661   4.872   7.367  0.3467 -0.0644 -0.0434
  148SAPE   C3116244   0.631   4.993   7.327 -0.9464 -0.4917  0.2728
  148SAPE   O3216245   0.605   5.089   7.396 -0.2838  0.1940 -0.2836
  148SAPE   C3216246   0.621   4.993   7.174 -0.3204 -0.2362  0.9227
  148SAPE   H2X16247   0.579   4.896   7.141 -0.9125 -0.2000  1.5467
  148SAPE   H2Y16248   0.724   5.004   7.133 -0.4693  0.5762  0.7404
  148SAPE   C2316249   0.544   4.423   7.255  0.2890 -1.0757  0.6084
  148SAPE   H3R16250   0.609   4.502   7.210  0.2370 -1.2407  0.2363
  148SAPE   H3S16251   0.440   4.440   7.221  0.8515 -0.3096 -0.8463
  148SAPE   C2416252   0.595   4.290   7.189 -0.1734  0.5562 -0.7028
  148SAPE   H4R16253   0.574   4.300   7.081 -1.2853 -0.9668 -0.6510
  148SAPE   H4S16254   0.536   4.205   7.229  0.2895  0.4957 -0.1310
  148SAPE   C2516255   0.744   4.264   7.210  0.5790 -0.1982 -0.8227
  148SAPE   H5R16256   0.783   4.258   7.313 -0.6063  3.4424  0.0093
  148SAPE   C2616257   0.825   4.239   7.110 -0.5112 -0.5107 -0.1017
  148SAPE   H6R16258   0.929   4.212   7.134 -0.9233 -0.5093  1.8111
  148SAPE   C2716259   0.788   4.232   6.965 -0.4071  0.8887  0.6676
  148SAPE   H7R16260   0.692   4.179   6.948  0.5348 -0.0079 -2.5042
  148SAPE   H7S16261   0.865   4.170   6.913 -0.9382  0.7467  0.0340
  148SAPE   C2816262   0.792   4.362   6.896  0.0231  0.3190  0.0840
  148SAPE   H8R16263   0.847   4.439   6.952 -0.2735  0.5025  0.1271
  148SAPE   C2916264   0.731   4.383   6.781  0.2589  0.3491  0.5782
  148SAPE   H9R16265   0.740   4.485   6.742  0.9086 -0.0035 -0.2247
  148SAPE  C21016266   0.649   4.283   6.697  0.1329  0.3524  0.6674
  148SAPE  H10R16267   0.595   4.345   6.623 -5.1361 -2.4259  1.6792
  148SAPE  H10S16268   0.566   4.234   6.752  0.8627 -0.4465  1.0885
  148SAPE  C21116269   0.737   4.171   6.637  0.7319  0.1459 -0.1309
  148SAPE  H11R16270   0.738   4.079   6.697  0.7262 -0.1303 -0.5445
  148SAPE  C21216271   0.785   4.169   6.511  0.0672 -1.2659  1.3347
  148SAPE  H12R16272   0.849   4.087   6.477  1.9529  0.1305  1.3565
  148SAPE  C21316273   0.764   4.288   6.415 -1.0132  0.2616 -0.1578
  148SAPE  H13R16274   0.860   4.309   6.363 -1.0082  0.1954 -0.1765
  148SAPE  H13S16275   0.750   4.384   6.468  2.2326  1.1450 -0.6916
  148SAPE  C21416276   0.650   4.262   6.317  0.0220 -0.2535 -0.5419
  148SAPE  H14R16277   0.603   4.164   6.326 -1.6386  0.3565 -2.0070
  148SAPE  C21516278   0.596   4.361   6.237  0.6391 -0.4734  0.1267
  148SAPE  H15R16279   0.513   4.329   6.172  0.8119 -0.5062 -0.0749
  148SAPE  C21616280   0.631   4.505   6.209 -0.6624 -0.0025  0.1734
  148SAPE  H16R16281   0.737   4.516   6.238 -0.8283 -1.0807  1.2418
  148SAPE  H16S16282   0.557   4.564   6.268 -1.1044  0.0650 -0.4362
  148SAPE  C21716283   0.596   4.538   6.061  0.2693 -0.1522  0.0151
  148SAPE  H17R16284   0.491   4.507   6.043  0.0107  1.2372 -1.1390
  148SAPE  H17S16285   0.663   4.473   6.001 -1.1103 -2.6908  1.0897
  148SAPE  C21816286   0.608   4.683   6.016 -0.3257  0.4582  0.6367
  148SAPE  H18R16287   0.548   4.747   6.085 -2.0743 -0.4866  0.0575
  148SAPE  H18S16288   0.560   4.688   5.916 -0.0286  2.0616  0.5506
  148SAPE  C21916289   0.752   4.733   6.017 -0.1962 -0.5049 -0.3126
  148SAPE  H19R16290   0.759   4.806   5.934 -2.4462 -0.3532 -0.4152
  148SAPE  H19S16291   0.821   4.646   6.008 -0.7853 -0.9663 -0.3976
  148SAPE  C22016292   0.799   4.801   6.154 -0.0291 -0.1992 -0.4636
  148SAPE  H20R16293   0.718   4.852   6.208  0.2373 -0.5026  0.2308
  148SAPE  H20S16294   0.872   4.879   6.122 -1.3824  1.3726  0.1782
  148SAPE  H20T16295   0.838   4.729   6.229 -0.7417  1.3389  1.4639
  148SAPE   C3316296   0.529   5.094   7.106 -0.0065 -0.6373  0.6727
  148SAPE   H3X16297   0.562   5.199   7.123 -0.2274 -0.9196  3.2607
  148SAPE   H3Y16298   0.425   5.093   7.147 -0.3227  3.0758  0.3674
  148SAPE   C3416299   0.525   5.076   6.953  0.1916 -0.2704  0.7096
  148SAPE   H4X16300   0.476   4.978   6.934  0.0249 -0.2571  1.0635
  148SAPE   H4Y16301   0.625   5.058   6.909 -0.4633  3.1352 -2.8359
  148SAPE   C3516302   0.443   5.183   6.874 -0.1783  0.1121  0.3284
  148SAPE   H5X16303   0.476   5.285   6.904  0.2307 -0.5156  2.1646
  148SAPE   H5Y16304   0.339   5.180   6.913 -1.1357  1.7301 -1.8778
  148SAPE   C3616305   0.445   5.170   6.721  0.5207 -0.0129 -0.0091
  148SAPE   H6X16306   0.396   5.083   6.673 -0.2637  0.3821  0.0562
  148SAPE   H6Y16307   0.553   5.156   6.700  0.7332 -1.1833  1.6612
  148SAPE   C3716308   0.393   5.304   6.654 -0.2833  0.0168 -0.1947
  148SAPE   H7X16309   0.446   5.387   6.707  0.3862 -0.0145 -0.8031
  148SAPE   H7Y16310   0.283   5.316   6.668 -0.8234 -1.5894 -2.5117
  148SAPE   C3816311   0.424   5.320   6.507  0.1969  0.5574 -0.2407
  148SAPE   H8X16312   0.529   5.289   6.492  0.1374  0.0229  0.3985
  148SAPE   H8Y16313   0.408   5.430   6.498 -1.3332  0.6806  2.7354
  148SAPE   C3916314   0.326   5.253   6.408 -0.1311  0.1888  0.7207
  148SAPE   H9X16315   0.223   5.293   6.410  0.6361  2.2710  0.5958
  148SAPE   H9Y16316   0.321   5.145   6.436  3.4601 -0.6107 -1.0445
  148SAPE  C31016317   0.375   5.246   6.257  0.7000 -0.5232  0.4069
  148SAPE  H10X16318   0.479   5.207   6.255  1.2072  0.7835  0.7729
  148SAPE  H10Y16319   0.371   5.349   6.218 -2.0606 -0.7585 -0.1668
  148SAPE  C31116320   0.286   5.159   6.175 -0.3781  0.4871  0.2827
  148SAPE  H11X16321   0.183   5.198   6.174 -1.3124 -1.7230 -1.7473
  148SAPE  H11Y16322   0.279   5.054   6.212 -1.0024 -0.7211 -2.8851
  148SAPE  C31216323   0.331   5.147   6.029 -0.9489 -0.1591  1.0093
  148SAPE  H12X16324   0.352   5.247   5.985 -2.6537 -1.1158 -2.3231
  148SAPE  H12Y16325   0.244   5.107   5.972  0.1557 -0.9143 -0.1735
  148SAPE  C31316326   0.440   5.049   5.988  0.4685  0.5914  0.1965
  148SAPE  H13X16327   0.394   4.952   6.016 -1.6692  1.4097 -0.2557
  148SAPE  H13Y16328   0.533   5.066   6.047  1.3329 -1.2429 -0.5909
  148SAPE  C31416329   0.475   5.039   5.838 -0.0432 -0.0105 -0.8242
  148SAPE  H14X16330   0.390   5.029   5.767 -0.3371  2.0037 -0.8172
  148SAPE  H14Y16331   0.536   4.949   5.816 -0.1768 -0.3135  0.0067
  148SAPE  C31516332   0.557   5.164   5.795  0.1939 -0.3370  0.5070
  148SAPE  H15X16333   0.656   5.148   5.843  1.2141 -0.2204 -1.4351
  148SAPE  H15Y16334   0.515   5.260   5.832  1.3417  0.0779  0.7933
  148SAPE  C31616335   0.573   5.167   5.638  0.7433  0.0268 -0.6208
  148SAPE  H16X16336   0.627   5.262   5.617 -0.1445  0.2589 -2.1006
  148SAPE  H16Y16337   0.476   5.174   5.583  0.7356  1.0216 -0.5107
  148SAPE  C31716338   0.663   5.052   5.586  0.7385 -0.0867  0.0190
  148SAPE  H17X16339   0.628   4.952   5.620  0.1238  0.4422  0.9582
  148SAPE  H17Y16340   0.764   5.070   5.629  0.9122  3.5061 -1.5676
  148SAPE  C31816341   0.669   5.064   5.439  0.0311  0.2130  0.2747
  148SAPE  H18X16342   0.569   5.042   5.395  0.2580 -0.9455  0.3266
  148SAPE  H18Y16343   0.724   4.974   5.405  0.0268  0.1789  0.3609
  148SAPE  H18Z16344   0.702   5.160   5.393 -0.7502  0.0319 -0.7124
  149SAPE     N16345   4.958   1.488   8.060  0.2559  0.1655 -0.2428
  149SAPE   HN116346   4.924   1.436   7.976  0.0807 -1.5990  0.8650
  149SAPE   HN216347   4.908   1.451   8.143  0.8271 -0.4223 -0.1601
  149SAPE   HN316348   4.956   1.591   8.047  2.2871  0.1043 -1.4069
  149SAPE   C1216349   5.104   1.437   8.063  0.3728 -0.7577  0.0359
  149SAPE  H12A16350   5.103   1.329   8.090  0.5709 -1.0483 -1.0628
  149SAPE  H12B16351   5.151   1.486   8.150 -0.2200  0.1144 -0.1102
  149SAPE   C1116352   5.185   1.451   7.935 -0.7182 -0.0766 -0.3355
  149SAPE  H11A16353   5.130   1.409   7.847  0.0131  2.4191 -2.0933
  149SAPE  H11B16354   5.276   1.388   7.942 -0.9800 -0.2555  2.2717
  149SAPE     P16355   5.112   1.686   7.842  0.2669  0.0861  0.0950
  149SAPE   O1316356   5.001   1.718   7.939 -0.3128  0.1940 -0.0111
  149SAPE   O1416357   5.187   1.802   7.792 -0.1459  0.5467  0.5507
  149SAPE   O1216358   5.217   1.590   7.913  0.1269  0.0551  0.0935
  149SAPE   O1116359   5.055   1.603   7.732 -0.1210  0.4792  0.6797
  149SAPE    C116360   4.912   1.598   7.703 -0.3360 -0.3443 -0.4891
  149SAPE    HA16361   4.861   1.513   7.753  1.3663 -0.0465  1.9000
  149SAPE    HB16362   4.853   1.686   7.736 -0.3313 -0.1166 -1.0776
  149SAPE    C216363   4.882   1.574   7.551  0.0346  0.5080  0.3563
  149SAPE    HS16364   4.913   1.470   7.529  0.9599  0.4673  1.7517
  149SAPE   O2116365   4.952   1.669   7.477 -0.7322 -0.5566  0.0113
  149SAPE   C2116366   4.932   1.794   7.485 -0.2441  0.2311 -0.0959
  149SAPE   O2216367   4.836   1.844   7.539  0.0087  0.0355  0.8114
  149SAPE   C2216368   5.040   1.864   7.407 -0.4575  0.6234 -0.2693
  149SAPE   H2R16369   5.049   1.965   7.452  0.2893  1.1619 -1.5762
  149SAPE   H2S16370   5.133   1.804   7.398 -1.5078 -0.8325 -2.0330
  149SAPE    C316371   4.728   1.575   7.511 -0.1872 -0.1418  0.5625
  149SAPE    HX16372   4.674   1.650   7.573  0.4921  1.6422 -0.9095
  149SAPE    HY16373   4.699   1.473   7.544  2.3639 -0.8541  0.8512
  149SAPE   O3116374   4.717   1.595   7.373 -0.5638  0.4919  0.4897
  149SAPE   C3116375   4.712   1.487   7.297 -0.0090  0.2011  0.5977
  149SAPE   O3216376   4.705   1.372   7.324 -0.1769  0.7145 -0.8532
  149SAPE   C3216377   4.699   1.552   7.158 -0.3831  0.2335  0.0185
  149SAPE   H2X16378   4.746   1.653   7.155  0.8431 -0.2391  1.5867
  149SAPE   H2Y16379   4.590   1.570   7.151 -0.5965 -0.7883  0.5113
  149SAPE   C2316380   4.989   1.888   7.262 -0.6218 -0.1773  0.2674
  149SAPE   H3R16381   5.057   1.968   7.226  0.2257 -0.1824  1.7745
  149SAPE   H3S16382   4.892   1.940   7.278 -0.3019 -0.3152  3.4380
  149SAPE   C2416383   5.005   1.768   7.170 -0.3027 -0.7952  0.1568
  149SAPE   H4R16384   4.945   1.789   7.079 -4.5281  0.3320  2.9128
  149SAPE   H4S16385   4.953   1.684   7.221 -2.1314  0.7817  1.0322
  149SAPE   C2516386   5.143   1.728   7.134 -0.0226 -0.3241 -0.0659
  149SAPE   H5R16387   5.201   1.691   7.220 -1.4402 -0.5534  0.8332
  149SAPE   C2616388   5.213   1.744   7.023 -0.0716 -0.5273  0.1005
  149SAPE   H6R16389   5.308   1.688   7.029 -0.7765 -1.6549  2.2001
  149SAPE   C2716390   5.156   1.805   6.895 -0.2020  0.3787  0.1941
  149SAPE   H7R16391   5.205   1.902   6.872  0.2556  0.1027 -0.0078
  149SAPE   H7S16392   5.048   1.831   6.905 -0.2737  0.7200 -1.2586
  149SAPE   C2816393   5.172   1.709   6.783  0.2938  0.5124 -0.4643
  149SAPE   H8R16394   5.274   1.672   6.765  0.0533 -0.3413 -0.1023
  149SAPE   C2916395   5.072   1.659   6.709  0.1054  0.0742  0.4295
  149SAPE   H9R16396   5.097   1.599   6.620 -1.3789 -0.2034  0.1687
  149SAPE  C21016397   4.927   1.694   6.727 -0.9896 -0.1579 -0.3881
  149SAPE  H10R16398   4.912   1.778   6.797  0.2115  0.1788 -0.5118
  149SAPE  H10S16399   4.875   1.607   6.772 -1.6385  1.6825  2.6501
  149SAPE  C21116400   4.863   1.731   6.596  0.3425 -0.8412  0.2115
  149SAPE  H11R16401   4.875   1.832   6.555 -0.6421 -1.1582 -0.9290
  149SAPE  C21216402   4.789   1.651   6.518  0.0709  0.5201 -0.6530
  149SAPE  H12R16403   4.753   1.684   6.419 -1.1592 -1.8348 -1.0494
  149SAPE  C21316404   4.743   1.509   6.548  0.7773 -0.2576  0.1884
  149SAPE  H13R16405   4.636   1.503   6.521  1.1780  2.4910 -2.6113
  149SAPE  H13S16406   4.756   1.474   6.653 -0.4918  2.2042  1.2703
  149SAPE  C21416407   4.813   1.416   6.457 -0.2623  0.0039 -1.2908
  149SAPE  H14R16408   4.898   1.367   6.508 -2.2686 -2.8115 -0.3514
  149SAPE  C21516409   4.771   1.376   6.334 -0.3142  0.2779 -0.1238
  149SAPE  H15R16410   4.832   1.308   6.273  0.2274  0.7732 -0.1431
  149SAPE  C21616411   4.655   1.428   6.256  0.3035 -0.1386  0.0603
  149SAPE  H16R16412   4.594   1.488   6.326  2.0653  0.2413  1.3508
  149SAPE  H16S16413   4.604   1.334   6.224 -2.0468  0.2318  2.3763
  149SAPE  C21716414   4.692   1.524   6.134  0.7666  0.1867 -0.6032
  149SAPE  H17R16415   4.775   1.478   6.077  2.2962 -0.7725  2.1607
  149SAPE  H17S16416   4.722   1.619   6.183  0.8871 -0.8147  1.3935
  149SAPE  C21816417   4.569   1.551   6.051 -0.3355  0.4300  0.3115
  149SAPE  H18R16418   4.571   1.660   6.027  0.5492 -0.2518 -3.4719
  149SAPE  H18S16419   4.481   1.507   6.103  1.4885 -2.5206  1.1616
  149SAPE  C21916420   4.581   1.484   5.913  0.3876 -0.3751  0.1522
  149SAPE  H19R16421   4.571   1.374   5.924 -1.7160 -0.3101 -0.6135
  149SAPE  H19S16422   4.678   1.515   5.870  0.3807  2.8929  2.1751
  149SAPE  C22016423   4.471   1.547   5.816 -1.1199 -0.0275 -0.2116
  149SAPE  H20R16424   4.371   1.513   5.850 -0.8011  0.8671  1.7011
  149SAPE  H20S16425   4.489   1.516   5.711 -1.6610 -1.0892 -0.0064
  149SAPE  H20T16426   4.480   1.656   5.798 -0.8799 -0.3515 -2.4395
  149SAPE   C3316427   4.734   1.463   7.038 -0.2712  0.8017  0.1478
  149SAPE   H3X16428   4.800   1.381   7.074  0.1022  0.9139 -0.2779
  149SAPE   H3Y16429   4.792   1.518   6.961  0.7774 -1.4324 -0.7459
  149SAPE   C3416430   4.602   1.397   6.985  0.4589  0.4871  0.3334
  149SAPE   H4X16431   4.545   1.468   6.923 -1.6497  0.6711  2.3479
  149SAPE   H4Y16432   4.543   1.372   7.076  0.8180 -0.4582  0.3256
  149SAPE   C3516433   4.634   1.272   6.908 -0.1536  0.3893 -0.3937
  149SAPE   H5X16434   4.679   1.200   6.979 -2.8377 -0.5273  0.5236
  149SAPE   H5Y16435   4.709   1.301   6.832 -0.3060 -0.0112 -0.6984
  149SAPE   C3616436   4.509   1.203   6.838 -0.5345  1.0018 -0.4897
  149SAPE   H6X16437   4.454   1.265   6.763 -0.8384  0.7348 -0.4901
  149SAPE   H6Y16438   4.437   1.161   6.912  2.5889 -0.9960  1.6567
  149SAPE   C3716439   4.558   1.094   6.744  0.3398  0.1853  0.7411
  149SAPE   H7X16440   4.621   1.019   6.796  1.2645  1.1391  1.0492
  149SAPE   H7Y16441   4.617   1.125   6.655 -0.7219  1.3755  0.4196
  149SAPE   C3816442   4.441   1.000   6.687  0.2094  0.1428  0.2500
  149SAPE   H8X16443   4.394   0.951   6.774 -1.7019  2.4162  0.5887
  149SAPE   H8Y16444   4.489   0.942   6.605  1.1265  0.1519  0.7764
  149SAPE   C3916445   4.318   1.074   6.627  0.5930 -0.1372  0.2418
  149SAPE   H9X16446   4.267   1.129   6.710 -1.9486  0.2247 -1.4344
  149SAPE   H9Y16447   4.249   0.995   6.591 -0.3365  0.7454  0.0467
  149SAPE  C31016448   4.340   1.178   6.516  0.0529 -0.2461  0.6223
  149SAPE  H10X16449   4.400   1.135   6.433 -1.5341 -1.2090 -0.0661
  149SAPE  H10Y16450   4.403   1.266   6.541  1.1277 -0.3500 -1.4438
  149SAPE  C31116451   4.215   1.226   6.436 -0.1020  0.3000 -0.1924
  149SAPE  H11X16452   4.155   1.292   6.503 -0.8473  0.9745 -1.4739
  149SAPE  H11Y16453   4.148   1.144   6.401 -0.2748 -0.8266  2.4947
  149SAPE  C31216454   4.261   1.318   6.312  0.2334  0.2038 -0.2583
  149SAPE  H12X16455   4.304   1.257   6.230 -1.0557  0.0500 -0.8312
  149SAPE  H12Y16456   4.331   1.395   6.351 -0.8885  1.4589 -0.6540
  149SAPE  C31316457   4.131   1.381   6.250 -0.7693  0.5829 -0.2135
  149SAPE  H13X16458   4.076   1.444   6.323  0.9578 -0.2098  1.8796
  149SAPE  H13Y16459   4.064   1.296   6.226 -1.7535  0.5945  2.1732
  149SAPE  C31416460   4.168   1.459   6.120 -0.3222 -0.1252  0.3927
  149SAPE  H14X16461   4.248   1.402   6.067  0.2456 -0.3853  1.5068
  149SAPE  H14Y16462   4.218   1.551   6.158  0.3163 -1.0995  2.0460
  149SAPE  C31516463   4.048   1.478   6.017  0.0843  0.0934 -0.3941
  149SAPE  H15X16464   3.976   1.551   6.060 -0.6177  0.4167 -2.0628
  149SAPE  H15Y16465   4.004   1.376   6.016  0.1707  0.0358  0.5133
  149SAPE  C31616466   4.093   1.537   5.879  0.9421  1.1732 -0.2386
  149SAPE  H16X16467   4.153   1.456   5.834  0.2328  0.8703 -0.6554
  149SAPE  H16Y16468   4.155   1.629   5.891 -0.2135  2.1063 -1.1458
  149SAPE  C31716469   3.975   1.565   5.790  0.7662 -0.3605 -0.4449
  149SAPE  H17X16470   4.002   1.620   5.698 -0.7600 -1.0041 -1.3134
  149SAPE  H17Y16471   3.916   1.640   5.847  1.0175 -0.2955 -0.2667
  149SAPE  C31816472   3.892   1.439   5.766 -0.0047 -0.1503 -0.8298
  149SAPE  H18X16473   3.844   1.398   5.858  0.0871 -1.3915 -1.3194
  149SAPE  H18Y16474   3.954   1.352   5.736 -0.8888 -1.3354  0.6226
  149SAPE  H18Z16475   3.815   1.467   5.691 -2.1730 -3.1459  0.0734
  150SAPE     N16476   5.218   2.073   7.880  0.3129 -0.3150 -0.0851
  150SAPE   HN116477   5.129   2.020   7.871 -1.7651  2.9516 -0.4132
  150SAPE   HN216478   5.301   2.014   7.900  3.4054  3.4884 -0.3019
  150SAPE   HN316479   5.199   2.143   7.955 -0.2525 -0.9674  0.3964
  150SAPE   C1216480   5.245   2.142   7.752 -0.3450  0.0062  0.1378
  150SAPE  H12A16481   5.297   2.069   7.686 -1.9584 -0.5721 -0.5185
  150SAPE  H12B16482   5.312   2.230   7.764  2.3116 -1.5625 -2.0449
  150SAPE   C1116483   5.118   2.192   7.685 -0.5171 -0.5313 -0.5527
  150SAPE  H11A16484   5.057   2.103   7.660  0.1939 -1.4499  0.8482
  150SAPE  H11B16485   5.159   2.237   7.592 -2.5631  2.9968  0.0667
  150SAPE     P16486   4.903   2.323   7.713 -0.0575 -0.5636 -0.1978
  150SAPE   O1316487   4.802   2.225   7.753  0.4788  0.0462 -0.3307
  150SAPE   O1416488   4.877   2.468   7.748 -0.7733  0.2653  0.3197
  150SAPE   O1216489   5.055   2.287   7.763  0.1294 -0.0659 -0.5702
  150SAPE   O1116490   4.912   2.320   7.557  0.1641 -0.3252 -0.2619
  150SAPE    C116491   4.872   2.212   7.469  0.1366  0.0944  0.5868
  150SAPE    HA16492   4.937   2.210   7.379  0.3449  1.1945  0.7015
  150SAPE    HB16493   4.894   2.116   7.519  0.7225 -0.1622 -0.1456
  150SAPE    C216494   4.721   2.216   7.443 -0.6842  0.6842 -0.3133
  150SAPE    HS16495   4.675   2.205   7.544  3.3233 -1.4497  1.5211
  150SAPE   O2116496   4.699   2.084   7.388 -0.1830 -1.1314  0.2813
  150SAPE   C2116497   4.571   2.063   7.349  0.0126 -0.5834  0.2925
  150SAPE   O2216498   4.474   2.136   7.374  0.7625  0.2002  0.4580
  150SAPE   C2216499   4.566   1.931   7.274  0.0864 -0.1105 -0.0491
  150SAPE   H2R16500   4.620   1.945   7.177  0.1247  0.4076  0.0436
  150SAPE   H2S16501   4.625   1.853   7.327 -0.2020 -1.6160 -1.8380
  150SAPE    C316502   4.684   2.335   7.346 -0.1790 -0.0874 -0.1461
  150SAPE    HX16503   4.677   2.427   7.408  1.8767 -0.2762  0.4495
  150SAPE    HY16504   4.579   2.331   7.311 -0.5558  0.0666  0.9076
  150SAPE   O3116505   4.769   2.356   7.231 -0.7845  0.3277  0.8267
  150SAPE   C3116506   4.793   2.268   7.139  0.0727 -0.3021 -0.5272
  150SAPE   O3216507   4.752   2.153   7.132  0.7915 -0.2816 -0.4939
  150SAPE   C3216508   4.883   2.319   7.024 -0.3746 -0.2381 -0.5882
  150SAPE   H2X16509   4.884   2.241   6.945  1.2886  0.9896 -1.8700
  150SAPE   H2Y16510   4.985   2.337   7.065 -0.9186 -1.7678  1.5950
  150SAPE   C2316511   4.420   1.872   7.242 -0.1092  0.6539  0.2250
  150SAPE   H3R16512   4.357   1.867   7.333 -2.2614  3.3234 -0.9711
  150SAPE   H3S16513   4.439   1.766   7.214 -0.6267  0.4486  0.6435
  150SAPE   C2416514   4.349   1.946   7.123  0.1073 -0.8649 -0.8534
  150SAPE   H4R16515   4.427   1.941   7.044 -1.0604  0.1693 -2.1258
  150SAPE   H4S16516   4.325   2.052   7.146  1.8650 -1.2410  3.8194
  150SAPE   C2516517   4.218   1.889   7.082  0.7773 -1.1733  0.2682
  150SAPE   H5R16518   4.133   1.937   7.133  2.3155  1.6540  0.3720
  150SAPE   C2616519   4.194   1.800   6.985 -0.7301 -0.2614 -0.2405
  150SAPE   H6R16520   4.089   1.774   6.966 -1.0636 -0.2474  1.4375
  150SAPE   C2716521   4.295   1.719   6.909  0.6057 -1.2270  0.0081
  150SAPE   H7R16522   4.385   1.698   6.972 -0.0605 -0.1552  1.3680
  150SAPE   H7S16523   4.322   1.778   6.819  1.4389 -1.5453  0.0395
  150SAPE   C2816524   4.240   1.585   6.859 -0.0230 -0.0752 -0.6821
  150SAPE   H8R16525   4.229   1.505   6.934  2.4252 -1.3418 -1.5354
  150SAPE   C2916526   4.216   1.544   6.731 -0.0659 -0.7213  0.4364
  150SAPE   H9R16527   4.161   1.450   6.711  0.3237 -0.6672 -0.9146
  150SAPE  C21016528   4.235   1.632   6.610 -0.0777 -0.2852  0.5568
  150SAPE  H10R16529   4.217   1.740   6.630  2.8078  0.8163 -2.0610
  150SAPE  H10S16530   4.161   1.588   6.540  1.5165 -0.6892 -0.9415
  150SAPE  C21116531   4.377   1.631   6.553  0.5936 -0.0144 -0.0003
  150SAPE  H11R16532   4.458   1.579   6.604  1.9295  2.0932  0.1593
  150SAPE  C21216533   4.425   1.699   6.445 -0.0449 -0.5466  0.4967
  150SAPE  H12R16534   4.532   1.701   6.419 -0.1822  1.2355 -0.0621
  150SAPE  C21316535   4.346   1.770   6.342  0.0545  0.4726  0.2958
  150SAPE  H13R16536   4.239   1.741   6.346 -1.1410  4.2954  0.8515
  150SAPE  H13S16537   4.383   1.743   6.241 -1.2581  1.8118 -0.5963
  150SAPE  C21416538   4.370   1.920   6.349  0.1566 -0.1308  0.1140
  150SAPE  H14R16539   4.331   1.965   6.442 -0.9302  0.6363 -0.6927
  150SAPE  C21516540   4.460   2.002   6.286 -0.0941 -0.0456 -0.3567
  150SAPE  H15R16541   4.459   2.111   6.299 -2.3183  0.0742 -1.0761
  150SAPE  C21616542   4.552   1.951   6.174 -0.3741 -0.2117 -0.3932
  150SAPE  H16R16543   4.548   1.840   6.181  1.0719 -0.2676 -0.1243
  150SAPE  H16S16544   4.659   1.972   6.191 -0.4473 -0.7991  0.9291
  150SAPE  C21716545   4.510   2.000   6.037  0.1458 -0.2260  0.1888
  150SAPE  H17R16546   4.589   1.970   5.966  0.7653 -1.9366  1.5196
  150SAPE  H17S16547   4.510   2.111   6.025  0.7939  0.2138  3.2518
  150SAPE  C21816548   4.387   1.940   5.967 -0.0011  0.2735 -0.8618
  150SAPE  H18R16549   4.308   1.950   6.045 -0.2958 -2.0969 -0.8012
  150SAPE  H18S16550   4.399   1.834   5.938 -0.3452 -0.1140  0.3231
  150SAPE  C21916551   4.347   2.003   5.836  0.3429 -0.5888 -0.5292
  150SAPE  H19R16552   4.317   2.107   5.859  1.6846 -0.6191  1.6528
  150SAPE  H19S16553   4.264   1.943   5.793  0.0577 -0.2745 -0.4174
  150SAPE  C22016554   4.453   1.998   5.733  0.1282  0.1990  0.2366
  150SAPE  H20R16555   4.549   2.030   5.779  1.6094 -2.4017 -0.8146
  150SAPE  H20S16556   4.438   2.062   5.643 -1.7495  0.8909  0.9877
  150SAPE  H20T16557   4.482   1.898   5.695  2.0732  1.6029 -2.2875
  150SAPE   C3316558   4.825   2.450   6.964 -0.5966  0.3538  0.0985
  150SAPE   H3X16559   4.840   2.537   7.032  1.6351  1.1086 -1.2547
  150SAPE   H3Y16560   4.716   2.431   6.951 -0.1311 -2.4121 -0.3926
  150SAPE   C3416561   4.874   2.475   6.823 -0.0727  0.1805  0.0844
  150SAPE   H4X16562   4.875   2.381   6.765 -0.0929  1.0595 -1.3925
  150SAPE   H4Y16563   4.979   2.511   6.821 -0.3158  0.9312  0.2862
  150SAPE   C3516564   4.783   2.567   6.726  0.0840  0.0576 -0.0265
  150SAPE   H5X16565   4.802   2.669   6.766  1.1817 -0.2915  0.3797
  150SAPE   H5Y16566   4.680   2.525   6.727  0.9410 -2.1916 -0.3452
  150SAPE   C3616567   4.846   2.569   6.587  0.5197 -0.2932  0.8885
  150SAPE   H6X16568   4.802   2.483   6.533  0.6044 -0.2465  0.7443
  150SAPE   H6Y16569   4.957   2.568   6.585  0.5083 -0.7312  0.1129
  150SAPE   C3716570   4.804   2.698   6.509  0.0346  1.1012  0.0757
  150SAPE   H7X16571   4.854   2.784   6.560  0.7433 -0.1928  1.6692
  150SAPE   H7Y16572   4.695   2.709   6.494  0.0624  2.3553  0.6319
  150SAPE   C3816573   4.859   2.703   6.362 -0.3862  0.0315 -0.0422
  150SAPE   H8X16574   4.831   2.608   6.312 -0.3873  0.9919 -1.9548
  150SAPE   H8Y16575   4.970   2.693   6.363 -0.4946 -1.3080  0.4624
  150SAPE   C3916576   4.825   2.827   6.283 -0.3297  0.1720  0.5175
  150SAPE   H9X16577   4.849   2.911   6.352  1.9450 -1.9037  2.4578
  150SAPE   H9Y16578   4.718   2.821   6.253  0.4901 -0.1796 -2.6074
  150SAPE  C31016579   4.889   2.841   6.142  0.4639  0.5576  0.2885
  150SAPE  H10X16580   4.886   2.740   6.096  3.3850  0.9362 -0.9969
  150SAPE  H10Y16581   4.998   2.857   6.158 -0.0524  2.8808  1.9136
  150SAPE  C31116582   4.831   2.961   6.071  0.1901 -0.1432  0.3364
  150SAPE  H11X16583   4.861   3.054   6.124 -2.0758  0.5485  0.5031
  150SAPE  H11Y16584   4.722   2.969   6.091  0.0149  0.7519 -0.8819
  150SAPE  C31216585   4.860   2.961   5.922 -0.3373  0.4766 -0.5947
  150SAPE  H12X16586   4.831   2.858   5.892 -2.3243  0.4746  1.1027
  150SAPE  H12Y16587   4.965   2.974   5.889  0.3315 -1.8865  0.4331
  150SAPE  C31316588   4.774   3.063   5.853  0.2280 -0.9328 -0.1353
  150SAPE  H13X16589   4.668   3.057   5.886  0.3298  0.7975  0.5803
  150SAPE  H13Y16590   4.774   3.046   5.743  1.5422  0.2319 -0.3433
  150SAPE  C31416591   4.817   3.210   5.882  0.0438  0.2819  0.2337
  150SAPE  H14X16592   4.919   3.226   5.840 -0.3738  0.3923 -0.7813
  150SAPE  H14Y16593   4.829   3.212   5.992  2.7825 -1.1628  0.0389
  150SAPE  C31516594   4.713   3.300   5.816  0.4833  0.6610  0.7070
  150SAPE  H15X16595   4.609   3.283   5.853  1.0492  0.3039  2.2255
  150SAPE  H15Y16596   4.710   3.268   5.710 -0.7440  1.4802  0.4746
  150SAPE  C31616597   4.754   3.447   5.823 -0.2665  0.6049  0.2820
  150SAPE  H16X16598   4.864   3.451   5.813 -0.1645  1.0632  1.4500
  150SAPE  H16Y16599   4.733   3.484   5.926 -1.9919  0.1557  0.1168
  150SAPE  C31716600   4.675   3.518   5.713 -0.4152  0.2733 -0.4547
  150SAPE  H17X16601   4.570   3.484   5.707 -0.9215  1.3944  1.2180
  150SAPE  H17Y16602   4.728   3.495   5.618  0.2710 -1.8761  0.3939
  150SAPE  C31816603   4.657   3.663   5.736 -0.4985  0.1390 -0.4997
  150SAPE  H18X16604   4.595   3.681   5.826  0.0577  0.2492 -0.1352
  150SAPE  H18Y16605   4.634   3.725   5.646  2.7508 -0.6503 -2.0488
  150SAPE  H18Z16606   4.752   3.704   5.776  1.0828 -2.8849 -0.9016
  151SAPE     N16607   2.863   6.322   8.072  0.9722  0.0385 -0.7785
  151SAPE   HN116608   2.839   6.335   8.172  0.5520  0.3505 -0.9166
  151SAPE   HN216609   2.878   6.419   8.036 -1.1058 -0.1110 -2.2230
  151SAPE   HN316610   2.772   6.282   8.041 -1.1601  1.1079  3.4146
  151SAPE   C1216611   2.986   6.236   8.077  0.1477 -0.6145 -0.3908
  151SAPE  H12A16612   2.985   6.180   7.982  0.7097  0.9881 -1.3741
  151SAPE  H12B16613   2.991   6.168   8.166 -0.1256  1.0679  0.9626
  151SAPE   C1116614   3.108   6.323   8.101 -0.0115 -0.2847 -0.1909
  151SAPE  H11A16615   3.204   6.269   8.112  0.4469  0.5103 -0.1698
  151SAPE  H11B16616   3.089   6.380   8.194  0.0715 -1.1473  0.3578
  151SAPE     P16617   3.179   6.363   7.855  0.2857  0.0951 -0.0538
  151SAPE   O1316618   3.246   6.480   7.791 -0.1152  0.3627 -0.0739
  151SAPE   O1416619   3.250   6.237   7.876 -0.1073 -0.2734 -0.3815
  151SAPE   O1216620   3.138   6.414   7.997  0.1685 -0.4628  0.1212
  151SAPE   O1116621   3.045   6.324   7.775 -0.4826  0.2045  0.0087
  151SAPE    C116622   2.958   6.431   7.727  0.4314  0.3968 -0.3590
  151SAPE    HA16623   2.856   6.387   7.722  0.4133  0.4938 -1.0142
  151SAPE    HB16624   2.960   6.520   7.792  0.1577 -0.8919  1.4826
  151SAPE    C216625   2.997   6.479   7.585 -0.5680  0.3573 -0.0355
  151SAPE    HS16626   3.098   6.523   7.599 -0.6063 -0.1522  2.1771
  151SAPE   O2116627   2.893   6.563   7.533 -0.3569  0.6671 -0.3828
  151SAPE   C2116628   2.908   6.694   7.557  0.9000  0.2148  0.0679
  151SAPE   O2216629   2.978   6.737   7.638  0.2030  0.2742  0.0856
  151SAPE   C2216630   2.795   6.766   7.486 -0.6158 -0.9098 -0.2690
  151SAPE   H2R16631   2.726   6.688   7.446 -0.8614 -1.0528  0.4171
  151SAPE   H2S16632   2.739   6.813   7.570 -2.8953 -2.0215 -1.0675
  151SAPE    C316633   3.012   6.359   7.482 -0.0413  0.6173  0.5725
  151SAPE    HX16634   2.914   6.306   7.485  1.8830 -3.3450 -0.5651
  151SAPE    HY16635   3.090   6.291   7.522 -1.3936 -0.8616  0.8199
  151SAPE   O3116636   3.035   6.396   7.338 -1.0714  0.1828 -0.3038
  151SAPE   C3116637   3.151   6.440   7.308  0.0973 -0.1523  0.4840
  151SAPE   O3216638   3.255   6.437   7.377  0.3394  0.0641  0.3111
  151SAPE   C3216639   3.134   6.478   7.162  0.1279 -0.2813 -0.4218
  151SAPE   H2X16640   3.058   6.559   7.154 -0.1219 -0.3574  0.9504
  151SAPE   H2Y16641   3.085   6.395   7.107  1.3782 -0.9637 -0.5317
  151SAPE   C2316642   2.843   6.875   7.386  0.1107  0.0285  0.4069
  151SAPE   H3R16643   2.878   6.960   7.449  0.6885 -0.0648  0.2248
  151SAPE   H3S16644   2.756   6.916   7.330  0.8499  1.4320  0.2440
  151SAPE   C2416645   2.944   6.822   7.279 -0.1268  0.8893  0.7724
  151SAPE   H4R16646   2.882   6.757   7.214 -0.6765  1.5416  0.6344
  151SAPE   H4S16647   3.022   6.769   7.337  0.2284  0.9162  0.3197
  151SAPE   C2516648   2.998   6.937   7.208 -0.1205  0.6537 -0.0110
  151SAPE   H5R16649   3.077   6.985   7.268  0.5159 -0.4006  0.0372
  151SAPE   C2616650   2.951   6.986   7.089 -0.2389  0.3099 -0.2306
  151SAPE   H6R16651   2.999   7.079   7.057  2.3460 -0.2521  1.7166
  151SAPE   C2716652   2.836   6.935   7.006 -0.3830 -0.5446 -0.4089
  151SAPE   H7R16653   2.768   6.869   7.065  0.7221 -0.1666  1.3497
  151SAPE   H7S16654   2.891   6.877   6.929  0.9326  0.1098  0.0085
  151SAPE   C2816655   2.754   7.043   6.938  0.1833 -0.6637  0.1714
  151SAPE   H8R16656   2.661   7.066   6.992 -1.1291 -1.3134 -1.7246
  151SAPE   C2916657   2.756   7.088   6.811  0.4808 -0.0451 -0.7904
  151SAPE   H9R16658   2.680   7.166   6.792 -0.1877  0.0086  1.7186
  151SAPE  C21016659   2.862   7.055   6.714  0.3952 -0.3556 -0.1088
  151SAPE  H10R16660   2.938   6.981   6.746 -0.1076 -1.6454 -1.7572
  151SAPE  H10S16661   2.928   7.144   6.708 -0.2495  0.2087  0.8946
  151SAPE  C21116662   2.831   6.992   6.584  0.6411 -0.1858 -0.0677
  151SAPE  H11R16663   2.787   6.891   6.580  2.1992 -0.9393  1.0324
  151SAPE  C21216664   2.832   7.047   6.464 -0.5954 -0.2793 -0.3500
  151SAPE  H12R16665   2.783   6.990   6.384  0.3947 -3.0895  0.9406
  151SAPE  C21316666   2.886   7.184   6.429  0.2064  0.0247  0.3995
  151SAPE  H13R16667   2.951   7.216   6.513 -1.7645 -0.1923  2.1033
  151SAPE  H13S16668   2.807   7.262   6.424 -0.1685 -0.4199 -0.8577
  151SAPE  C21416669   2.967   7.177   6.297  0.4511  0.0358 -0.9316
  151SAPE  H14R16670   3.074   7.152   6.306  0.1105 -1.2002  0.0294
  151SAPE  C21516671   2.918   7.201   6.176 -0.3030  0.0853 -0.0546
  151SAPE  H15R16672   2.986   7.200   6.090 -0.6727  0.8828 -0.3720
  151SAPE  C21616673   2.775   7.242   6.148 -0.4933 -0.0754  0.0899
  151SAPE  H16R16674   2.764   7.347   6.112 -1.3276 -0.7707 -1.7827
  151SAPE  H16S16675   2.709   7.234   6.237  1.8701 -0.4673  1.9288
  151SAPE  C21716676   2.712   7.147   6.045 -0.5921  0.0748  0.3016
  151SAPE  H17R16677   2.605   7.175   6.040 -0.8303 -0.5996  1.2254
  151SAPE  H17S16678   2.720   7.044   6.087 -0.7018 -0.3329 -0.6661
  151SAPE  C21816679   2.779   7.153   5.903 -0.3016 -0.4100 -0.0750
  151SAPE  H18R16680   2.890   7.155   5.904 -0.2998 -0.1688 -0.7615
  151SAPE  H18S16681   2.757   7.254   5.863  3.3151  0.8958  0.8132
  151SAPE  C21916682   2.734   7.036   5.808  0.2517 -1.5934  0.0340
  151SAPE  H19R16683   2.752   6.933   5.845 -0.7098 -2.0868 -0.8304
  151SAPE  H19S16684   2.795   7.056   5.717  0.4949  0.6285  0.6359
  151SAPE  C22016685   2.588   7.042   5.767 -0.0338  0.3570  0.3621
  151SAPE  H20R16686   2.568   6.966   5.688 -0.6772  1.3689 -0.4779
  151SAPE  H20S16687   2.563   7.141   5.724 -0.0874 -0.0277 -0.5129
  151SAPE  H20T16688   2.523   7.028   5.856 -1.6090 -1.4784 -1.0029
  151SAPE   C3316689   3.264   6.523   7.095  0.6267 -0.1378  0.0350
  151SAPE   H3X16690   3.335   6.437   7.092 -1.1785 -1.6768 -0.3641
  151SAPE   H3Y16691   3.330   6.600   7.141 -0.2774  0.8376 -0.2771
  151SAPE   C3416692   3.238   6.546   6.950 -0.2017 -0.0356 -0.3022
  151SAPE   H4X16693   3.140   6.597   6.943  0.0827  0.4942 -0.5247
  151SAPE   H4Y16694   3.238   6.445   6.903 -0.1698  0.4671 -1.4122
  151SAPE   C3516695   3.342   6.634   6.882 -0.5811 -0.6698 -0.5477
  151SAPE   H5X16696   3.340   6.735   6.929  1.0910  0.3179 -2.4307
  151SAPE   H5Y16697   3.298   6.650   6.781  0.5398  0.4674 -0.8843
  151SAPE   C3616698   3.484   6.577   6.875  0.5173 -0.2328  1.1912
  151SAPE   H6X16699   3.484   6.472   6.839 -1.3872 -0.9113  2.9686
  151SAPE   H6Y16700   3.546   6.582   6.967 -0.8915  1.1600  2.1100
  151SAPE   C3716701   3.563   6.641   6.751  0.0743  0.7731 -0.0046
  151SAPE   H7X16702   3.570   6.750   6.770 -2.4084  1.0372 -0.1892
  151SAPE   H7Y16703   3.497   6.628   6.662  0.3547 -1.6017  0.0588
  151SAPE   C3816704   3.696   6.577   6.726  0.0138 -0.0314 -0.2144
  151SAPE   H8X16705   3.700   6.466   6.729 -2.0070 -0.1417 -0.4977
  151SAPE   H8Y16706   3.754   6.598   6.818 -0.8395  1.7965 -0.0386
  151SAPE   C3916707   3.766   6.623   6.605 -0.4326  0.5591 -0.2877
  151SAPE   H9X16708   3.864   6.572   6.595 -1.0119 -1.0494  1.6915
  151SAPE   H9Y16709   3.787   6.732   6.612  0.4284  0.3111  1.6282
  151SAPE  C31016710   3.682   6.601   6.474 -0.0852  0.2686  0.6791
  151SAPE  H10X16711   3.600   6.675   6.475 -1.1253 -0.7408 -2.0480
  151SAPE  H10Y16712   3.632   6.502   6.475 -2.7188  1.5189  1.6292
  151SAPE  C31116713   3.773   6.621   6.352  0.6280  0.4170  0.4185
  151SAPE  H11X16714   3.701   6.626   6.267 -1.2835 -1.6154  1.8008
  151SAPE  H11Y16715   3.842   6.535   6.335 -0.6894 -0.5306 -0.3944
  151SAPE  C31216716   3.853   6.753   6.359 -0.0081 -0.6692  0.1894
  151SAPE  H12X16717   3.931   6.761   6.438 -0.6619  1.3810  0.6917
  151SAPE  H12Y16718   3.786   6.841   6.369  0.9273 -0.1073  1.8387
  151SAPE  C31316719   3.951   6.774   6.242  0.6348 -0.1026  0.1308
  151SAPE  H13X16720   3.896   6.768   6.145  1.4927  0.5101 -0.4129
  151SAPE  H13Y16721   4.021   6.687   6.241  3.3204  1.9022 -0.3893
  151SAPE  C31416722   4.018   6.910   6.256 -0.0497 -0.1590  0.1078
  151SAPE  H14X16723   4.050   6.938   6.359  1.5178 -0.9047 -0.1405
  151SAPE  H14Y16724   3.949   6.991   6.226  0.1133  0.0038  0.1722
  151SAPE  C31516725   4.137   6.924   6.155 -0.7270  0.0912  0.1804
  151SAPE  H15X16726   4.223   6.861   6.184 -1.2160 -0.3378  0.7253
  151SAPE  H15Y16727   4.164   7.032   6.153 -2.1168  0.6493  3.8444
  151SAPE  C31616728   4.099   6.873   6.013 -0.6788  0.1437  0.3107
  151SAPE  H16X16729   4.004   6.922   5.981  0.4223  2.3795  0.3048
  151SAPE  H16Y16730   4.097   6.762   6.015 -1.3236  0.1587  1.9009
  151SAPE  C31716731   4.207   6.902   5.913 -0.8519 -0.3283 -0.1952
  151SAPE  H17X16732   4.293   6.834   5.932  0.3053  1.3703  1.0434
  151SAPE  H17Y16733   4.264   6.997   5.926  1.6024 -1.5923 -0.9996
  151SAPE  C31816734   4.172   6.875   5.773 -0.3808 -0.1834  0.1877
  151SAPE  H18X16735   4.165   6.766   5.753 -1.1177 -0.2164  0.5670
  151SAPE  H18Y16736   4.258   6.896   5.706  0.0690 -1.9820  0.1423
  151SAPE  H18Z16737   4.073   6.921   5.748 -1.5529 -2.4493  0.3663
  152SAPE     N16738   5.333   0.291   8.034  0.5616  0.4647 -0.0557
  152SAPE   HN116739   5.399   0.219   8.070  0.0009  0.3019  0.6594
  152SAPE   HN216740   5.350   0.379   8.086 -2.1392  0.5836  0.7338
  152SAPE   HN316741   5.242   0.253   8.065  1.2106  0.0169  1.3817
  152SAPE   C1216742   5.337   0.284   7.885  0.3514  0.5640 -0.2800
  152SAPE  H12A16743   5.326   0.176   7.860  1.2707 -0.3291  2.7063
  152SAPE  H12B16744   5.442   0.306   7.856  0.6883  1.6796  1.6036
  152SAPE   C1116745   5.244   0.376   7.815 -0.2110  0.4393 -0.1594
  152SAPE  H11A16746   5.141   0.343   7.843 -0.5395 -1.5354 -3.2618
  152SAPE  H11B16747   5.270   0.366   7.708 -2.2877 -4.0028 -0.4717
  152SAPE     P16748   5.162   0.609   7.905  0.4067 -0.3707 -0.1710
  152SAPE   O1316749   5.089   0.537   8.015  0.5061 -0.3798  0.1134
  152SAPE   O1416750   5.225   0.741   7.928  0.4334 -0.2923 -0.1306
  152SAPE   O1216751   5.273   0.515   7.845 -0.0195 -0.0778 -0.8375
  152SAPE   O1116752   5.064   0.625   7.784  0.0213 -0.4515 -0.0283
  152SAPE    C116753   5.104   0.677   7.657 -0.2626 -0.4623  0.1717
  152SAPE    HA16754   5.030   0.748   7.616 -0.2562 -1.3177 -1.3905
  152SAPE    HB16755   5.207   0.720   7.653 -0.6076  0.3384 -0.1422
  152SAPE    C216756   5.109   0.569   7.549  0.8152  0.3938  0.0076
  152SAPE    HS16757   5.193   0.501   7.572  0.3740  0.9358  3.7953
  152SAPE   O2116758   5.118   0.637   7.425  0.5422 -0.1363 -0.7568
  152SAPE   C2116759   5.242   0.678   7.380  0.3389 -0.5771 -0.1216
  152SAPE   O2216760   5.344   0.644   7.432 -0.1127 -0.5635 -0.3216
  152SAPE   C2216761   5.225   0.756   7.246  0.2389 -0.5003  0.2054
  152SAPE   H2R16762   5.137   0.717   7.192 -2.1948  1.0543  2.7899
  152SAPE   H2S16763   5.206   0.858   7.284 -1.5965 -0.7383 -0.0087
  152SAPE    C316764   4.995   0.476   7.553 -0.2191  0.6741  1.1415
  152SAPE    HX16765   4.900   0.532   7.540 -1.3815 -1.0508  1.8678
  152SAPE    HY16766   4.983   0.428   7.653  0.6553  0.3448  1.0956
  152SAPE   O3116767   5.013   0.371   7.453 -0.1942 -0.1539 -0.2418
  152SAPE   C3116768   4.918   0.345   7.370  0.9389 -0.6012  0.1882
  152SAPE   O3216769   4.803   0.386   7.374 -0.1820 -0.2369 -0.5716
  152SAPE   C3216770   4.979   0.254   7.262  0.4624  0.8107 -0.3282
  152SAPE   H2X16771   4.981   0.157   7.317 -1.6441  0.9406  0.0611
  152SAPE   H2Y16772   5.086   0.274   7.238 -0.5794  3.2520 -3.6854
  152SAPE   C2316773   5.351   0.761   7.161  0.6789  0.2644  0.3243
  152SAPE   H3R16774   5.375   0.666   7.108  0.5825 -0.9532  2.3834
  152SAPE   H3S16775   5.435   0.788   7.228  0.3514  0.8156  0.5221
  152SAPE   C2416776   5.349   0.870   7.057 -0.6043  0.3111  0.4727
  152SAPE   H4R16777   5.456   0.877   7.025 -1.5698  3.5554 -2.7168
  152SAPE   H4S16778   5.328   0.973   7.095 -0.1974  1.1731 -1.4810
  152SAPE   C2516779   5.272   0.837   6.930 -0.0627 -0.4014 -0.0182
  152SAPE   H5R16780   5.170   0.803   6.953  0.1301 -0.3329  0.9995
  152SAPE   C2616781   5.323   0.853   6.806  0.4989 -0.4547  1.1073
  152SAPE   H6R16782   5.270   0.818   6.717  0.1624  1.0409  0.6878
  152SAPE   C2716783   5.458   0.918   6.777  0.3477 -0.0133 -0.4961
  152SAPE   H7R16784   5.496   0.967   6.869  0.0560 -2.2933  0.9224
  152SAPE   H7S16785   5.431   0.996   6.703 -3.8796 -0.4304  0.3320
  152SAPE   C2816786   5.559   0.823   6.720  0.1983 -0.0692 -0.4182
  152SAPE   H8R16787   5.619   0.766   6.792  0.0893  1.2627  0.7618
  152SAPE   C2916788   5.569   0.782   6.590  0.6688  1.0604 -0.3394
  152SAPE   H9R16789   5.649   0.711   6.568 -0.0246 -0.0777  0.7149
  152SAPE  C21016790   5.497   0.819   6.462 -0.5148  0.2994  0.8005
  152SAPE  H10R16791   5.400   0.870   6.481 -0.8627  0.2152 -0.6629
  152SAPE  H10S16792   5.480   0.731   6.396 -1.6034  0.8089  0.3682
  152SAPE  C21116793   5.575   0.924   6.386 -0.1103  0.2173  0.3997
  152SAPE  H11R16794   5.549   1.023   6.426  0.5805  0.4335  0.3321
  152SAPE  C21216795   5.676   0.907   6.300  0.2162  0.3572  0.4113
  152SAPE  H12R16796   5.726   0.997   6.262  1.4755  0.1608  1.4929
  152SAPE  C21316797   5.739   0.779   6.248  0.3147  0.9156 -0.8318
  152SAPE  H13R16798   5.798   0.788   6.154  2.7829  1.9692  0.7170
  152SAPE  H13S16799   5.660   0.704   6.227 -0.0748  0.6880  1.2539
  152SAPE  C21416800   5.818   0.714   6.364 -0.0705 -0.5710  0.4090
  152SAPE  H14R16801   5.848   0.775   6.450 -0.4781  1.6715 -0.9670
  152SAPE  C21516802   5.848   0.582   6.366 -0.2913  0.3605 -0.3156
  152SAPE  H15R16803   5.919   0.547   6.442  0.1139  0.5140 -0.6219
  152SAPE  C21616804   5.823   0.479   6.259 -0.4075  0.1290  0.2150
  152SAPE  H16R16805   5.753   0.506   6.177 -0.1684  0.5959  0.1618
  152SAPE  H16S16806   5.784   0.390   6.312 -3.6490  0.3478 -1.5330
  152SAPE  C21716807   5.947   0.441   6.182 -0.0077 -0.5511  0.9382
  152SAPE  H17R16808   6.041   0.448   6.240  1.2600  1.1635 -1.1383
  152SAPE  H17S16809   5.963   0.511   6.097 -1.3840  1.4175  2.2171
  152SAPE  C21816810   5.941   0.303   6.110  0.5317 -0.0470 -0.5689
  152SAPE  H18R16811   5.864   0.319   6.032 -1.8773 -1.5702  1.3636
  152SAPE  H18S16812   5.902   0.222   6.174 -0.2340 -0.4003 -1.4635
  152SAPE  C21916813   6.067   0.245   6.052  0.2238 -0.0379  0.1657
  152SAPE  H19R16814   6.120   0.313   5.983 -0.8914 -0.9729 -1.6805
  152SAPE  H19S16815   6.041   0.163   5.981 -3.7671  0.1535  1.1418
  152SAPE  C22016816   6.167   0.198   6.164  0.3626  0.2058  0.2088
  152SAPE  H20R16817   6.239   0.120   6.130  0.5307  0.2208  0.5200
  152SAPE  H20S16818   6.117   0.158   6.255 -0.6405  0.8443 -0.0528
  152SAPE  H20T16819   6.226   0.285   6.202 -0.5782  0.0549  2.1510
  152SAPE   C3316820   4.889   0.239   7.138 -0.3153 -0.0257  0.4019
  152SAPE   H3X16821   4.789   0.195   7.156 -0.8558 -0.2027 -2.5704
  152SAPE   H3Y16822   4.943   0.172   7.068 -0.9401  1.1699 -1.2946
  152SAPE   C3416823   4.882   0.360   7.045 -0.4863 -0.1925 -0.4906
  152SAPE   H4X16824   4.832   0.449   7.090  0.5318  0.7325 -1.1268
  152SAPE   H4Y16825   4.818   0.328   6.960 -2.1121 -0.0202  0.6216
  152SAPE   C3516826   5.028   0.408   7.006  0.6842  0.0857 -0.4329
  152SAPE   H5X16827   5.087   0.315   6.989  0.8216 -0.1670  1.1927
  152SAPE   H5Y16828   5.066   0.453   7.100  0.3618 -1.4735  0.4822
  152SAPE   C3616829   5.032   0.522   6.896  0.7383  0.0386  0.2218
  152SAPE   H6X16830   5.127   0.579   6.907  0.5874  0.3564 -0.1139
  152SAPE   H6Y16831   4.942   0.586   6.891  1.3749  0.8807 -1.7016
  152SAPE   C3716832   5.050   0.459   6.760  0.4307 -0.2868 -0.4876
  152SAPE   H7X16833   4.970   0.386   6.737  0.1565 -0.7232  1.6939
  152SAPE   H7Y16834   5.144   0.399   6.751  0.3721 -0.5977  0.8562
  152SAPE   C3816835   5.036   0.562   6.644  0.8028 -0.0407  0.0365
  152SAPE   H8X16836   5.112   0.643   6.657 -1.0058  1.4787  1.8443
  152SAPE   H8Y16837   4.938   0.614   6.650  0.8721 -0.0012  1.0247
  152SAPE   C3916838   5.041   0.492   6.508  0.4191  0.9458 -0.0303
  152SAPE   H9X16839   4.940   0.448   6.494  0.9126  0.0084 -0.8302
  152SAPE   H9Y16840   5.107   0.403   6.515 -2.1025 -0.9000  1.8038
  152SAPE  C31016841   5.072   0.570   6.378 -0.0052  0.4081  0.2992
  152SAPE  H10X16842   5.169   0.533   6.339 -1.5978 -1.7521 -1.9153
  152SAPE  H10Y16843   5.076   0.679   6.399 -1.8223  0.5620  0.0059
  152SAPE  C31116844   4.983   0.535   6.264 -0.3555 -0.3965 -0.6198
  152SAPE  H11X16845   4.990   0.595   6.171 -1.3078 -0.1896 -0.5702
  152SAPE  H11Y16846   4.884   0.564   6.308  1.5315  1.0505  3.1881
  152SAPE  C31216847   4.984   0.391   6.221 -0.5907 -0.2544 -0.3573
  152SAPE  H12X16848   4.931   0.324   6.292  1.6133 -3.8041 -1.7493
  152SAPE  H12Y16849   5.087   0.349   6.222 -0.7750 -0.7032  1.2538
  152SAPE  C31316850   4.908   0.370   6.089 -0.3757  0.1612  0.4264
  152SAPE  H13X16851   4.837   0.455   6.079  0.7119  0.8888 -1.7680
  152SAPE  H13Y16852   4.859   0.271   6.090  0.9705 -0.5496 -0.4097
  152SAPE  C31416853   5.004   0.379   5.966 -0.0420 -0.2049 -0.3317
  152SAPE  H14X16854   5.086   0.304   5.968 -0.3199 -0.4972  0.4097
  152SAPE  H14Y16855   5.060   0.474   5.981 -0.3491 -0.2625  1.4701
  152SAPE  C31516856   4.929   0.383   5.832 -0.3840  0.0166 -0.1293
  152SAPE  H15X16857   5.009   0.401   5.757 -0.8284  0.7222 -0.4468
  152SAPE  H15Y16858   4.866   0.471   5.859 -1.2779 -0.9512  1.0729
  152SAPE  C31616859   4.838   0.265   5.785 -0.6491  0.8625  0.2353
  152SAPE  H16X16860   4.792   0.220   5.875  3.1154 -2.3781  0.8344
  152SAPE  H16Y16861   4.892   0.184   5.731 -0.2321  0.9880  0.4544
  152SAPE  C31716862   4.727   0.298   5.687  0.0869  0.7401  0.0181
  152SAPE  H17X16863   4.770   0.334   5.591  0.3185  2.2138  0.6537
  152SAPE  H17Y16864   4.663   0.377   5.732 -0.4983  0.9867 -1.1779
  152SAPE  C31816865   4.637   0.188   5.641 -0.3185 -0.6202 -0.6733
  152SAPE  H18X16866   4.668   0.114   5.563 -0.2082 -0.3723 -0.8639
  152SAPE  H18Y16867   4.547   0.238   5.599 -0.3790  0.1119  0.3090
  152SAPE  H18Z16868   4.593   0.129   5.725  0.4063  0.1804  0.2890
  153SAPE     N16869   3.711   1.443   7.610  0.2139  0.1412  0.1031
  153SAPE   HN116870   3.805   1.405   7.636  0.5314  2.8556  3.8226
  153SAPE   HN216871   3.715   1.468   7.509  3.0950 -0.5308 -0.0630
  153SAPE   HN316872   3.702   1.537   7.653 -2.6440  0.6504 -1.4027
  153SAPE   C1216873   3.595   1.346   7.649 -0.1942  0.1202  0.2655
  153SAPE  H12A16874   3.612   1.319   7.755 -0.9981  1.3573  0.7271
  153SAPE  H12B16875   3.605   1.250   7.593 -0.3560 -0.9278  1.9721
  153SAPE   C1116876   3.465   1.425   7.631 -0.1356  0.1282 -0.0572
  153SAPE  H11A16877   3.450   1.462   7.527 -0.1815  0.2620 -0.0029
  153SAPE  H11B16878   3.468   1.517   7.694 -0.0743  1.4619 -1.9144
  153SAPE     P16879   3.215   1.376   7.616 -0.1165 -0.0609  0.1236
  153SAPE   O1316880   3.112   1.284   7.669 -0.2662  0.2416 -0.3331
  153SAPE   O1416881   3.192   1.518   7.628  0.2119 -0.5216 -0.0471
  153SAPE   O1216882   3.356   1.337   7.676 -0.6787  0.2448  0.2293
  153SAPE   O1116883   3.231   1.342   7.460  0.3236 -0.6157 -0.3944
  153SAPE    C116884   3.319   1.233   7.434 -0.4303  0.2911 -0.4689
  153SAPE    HA16885   3.428   1.256   7.438 -0.0234 -1.6063  2.6003
  153SAPE    HB16886   3.304   1.148   7.505 -1.2613  0.4658 -0.4329
  153SAPE    C216887   3.283   1.179   7.293 -0.0282  0.4179 -0.0514
  153SAPE    HS16888   3.350   1.095   7.268 -0.1952 -0.4701  2.2456
  153SAPE   O2116889   3.300   1.284   7.205 -0.1513  0.1664  0.4895
  153SAPE   C2116890   3.427   1.315   7.182  0.1290 -0.6349 -0.8966
  153SAPE   O2216891   3.522   1.250   7.223  0.4168 -0.2342 -0.2548
  153SAPE   C2216892   3.440   1.451   7.109  0.5896  0.1289  0.1795
  153SAPE   H2R16893   3.355   1.511   7.147  1.9146  1.5827  0.9697
  153SAPE   H2S16894   3.523   1.509   7.155 -0.7185  0.3735  2.3502
  153SAPE    C316895   3.144   1.118   7.271  0.6317  0.3276  0.2393
  153SAPE    HX16896   3.072   1.198   7.300 -0.7421 -0.8804  0.2731
  153SAPE    HY16897   3.126   1.027   7.331  1.6172 -1.3718 -1.9133
  153SAPE   O3116898   3.138   1.076   7.136 -0.4973 -0.4912  0.2911
  153SAPE   C3116899   3.012   1.054   7.105  0.0337 -0.2136  0.2070
  153SAPE   O3216900   2.919   1.051   7.183 -0.7063 -0.0140 -0.4404
  153SAPE   C3216901   3.015   1.051   6.948 -0.3565  0.0468 -0.2363
  153SAPE   H2X16902   3.065   0.961   6.907 -1.7321  0.3236 -2.6782
  153SAPE   H2Y16903   3.066   1.145   6.918 -2.2903  1.0620 -0.4778
  153SAPE   C2316904   3.432   1.426   6.958  0.4856  0.2461  0.0228
  153SAPE   H3R16905   3.521   1.366   6.929 -0.4947 -1.4636  0.4177
  153SAPE   H3S16906   3.454   1.526   6.914  2.6161 -0.0686  0.2547
  153SAPE   C2416907   3.314   1.355   6.898 -0.0534  0.0461  0.2527
  153SAPE   H4R16908   3.313   1.256   6.948 -0.1328 -0.4006 -0.6201
  153SAPE   H4S16909   3.330   1.343   6.789 -0.8358  0.8575  0.0360
  153SAPE   C2516910   3.185   1.424   6.937  0.0597  0.4206  0.2745
  153SAPE   H5R16911   3.156   1.426   7.043  0.3794  0.4261  0.3627
  153SAPE   C2616912   3.092   1.461   6.842  0.1472 -1.1269 -0.6998
  153SAPE   H6R16913   3.006   1.513   6.886  0.8350  0.9040 -1.6715
  153SAPE   C2716914   3.089   1.457   6.692 -0.5788  0.3478  0.2421
  153SAPE   H7R16915   3.003   1.397   6.656  0.7968 -0.6428 -1.5707
  153SAPE   H7S16916   3.183   1.410   6.657 -0.4646 -0.9266  2.0675
  153SAPE   C2816917   3.075   1.599   6.638 -0.1790  0.5165 -0.0519
  153SAPE   H8R16918   3.017   1.662   6.707 -0.3471  0.3188 -0.0102
  153SAPE   C2916919   3.104   1.652   6.521 -0.9863  0.3463 -0.2306
  153SAPE   H9R16920   3.080   1.760   6.519 -0.0861  0.5605 -1.9606
  153SAPE  C21016921   3.185   1.584   6.407 -0.4730 -0.6534 -0.6664
  153SAPE  H10R16922   3.126   1.499   6.367 -1.3882 -0.7759  0.8486
  153SAPE  H10S16923   3.275   1.540   6.456  1.9389  0.5571 -3.6771
  153SAPE  C21116924   3.242   1.679   6.313  0.9873  0.1054 -0.3494
  153SAPE  H11R16925   3.349   1.703   6.318  1.1128 -0.6647  0.9634
  153SAPE  C21216926   3.156   1.739   6.224 -0.6894 -0.0147  0.2685
  153SAPE  H12R16927   3.208   1.802   6.150 -2.0944 -0.6448 -1.3182
  153SAPE  C21316928   3.009   1.697   6.185 -0.2733  0.6976 -0.0354
  153SAPE  H13R16929   2.938   1.776   6.150 -2.6133 -1.5157 -0.6526
  153SAPE  H13S16930   2.964   1.647   6.274  0.3045  1.1804  0.5389
  153SAPE  C21416931   3.022   1.579   6.085  0.2120 -0.2468  0.4301
  153SAPE  H14R16932   3.052   1.486   6.134  1.6273  0.3524  0.7406
  153SAPE  C21516933   2.994   1.574   5.953  0.4937  0.0776 -0.2322
  153SAPE  H15R16934   3.007   1.488   5.886  3.8825  0.5650 -0.3563
  153SAPE  C21616935   2.948   1.696   5.887 -0.7722 -0.2148 -0.3794
  153SAPE  H16R16936   2.977   1.784   5.947 -1.6111 -0.7228  0.8229
  153SAPE  H16S16937   2.837   1.699   5.888 -0.7657  0.1347 -0.7151
  153SAPE  C21716938   2.993   1.714   5.739 -0.1275  0.1886 -0.0262
  153SAPE  H17R16939   3.104   1.707   5.739 -0.1462 -0.1070 -0.1239
  153SAPE  H17S16940   2.956   1.806   5.688  0.1469  1.1778  1.5210
  153SAPE  C21816941   2.939   1.590   5.653 -0.1249 -0.0411 -0.1198
  153SAPE  H18R16942   2.831   1.584   5.678 -0.1956 -0.9916 -0.6370
  153SAPE  H18S16943   2.979   1.496   5.695 -0.7983 -0.9523 -1.4524
  153SAPE  C21916944   2.952   1.603   5.506  0.1501  0.9922 -0.1176
  153SAPE  H19R16945   3.060   1.613   5.479  0.3984  0.6507  0.7373
  153SAPE  H19S16946   2.919   1.701   5.466  2.4237  1.3088 -1.4406
  153SAPE  C22016947   2.883   1.492   5.419  0.3082 -0.0755 -0.7464
  153SAPE  H20R16948   2.781   1.478   5.461  0.4084 -1.2050 -0.8600
  153SAPE  H20S16949   2.940   1.397   5.422  0.8805  0.2748  0.5275
  153SAPE  H20T16950   2.872   1.521   5.313 -1.3831  1.4542 -0.2051
  153SAPE   C3316951   2.872   1.051   6.896 -0.1799 -0.0921  0.4859
  153SAPE   H3X16952   2.813   1.127   6.952 -0.1981 -0.2020  0.6173
  153SAPE   H3Y16953   2.835   0.949   6.922  1.7195 -1.0837 -0.4756
  153SAPE   C3416954   2.869   1.078   6.744  0.0923  0.0415  0.6180
  153SAPE   H4X16955   2.929   1.170   6.726 -1.1193  1.0454  1.5067
  153SAPE   H4Y16956   2.769   1.105   6.705  0.6287  2.7458  0.9124
  153SAPE   C3516957   2.925   0.965   6.657 -0.0738  0.7803  0.0905
  153SAPE   H5X16958   2.858   0.877   6.670  1.0737 -0.0471  0.4864
  153SAPE   H5Y16959   3.024   0.927   6.687 -0.5629 -1.5095 -1.0375
  153SAPE   C3616960   2.919   0.998   6.501 -0.1934  0.0200  0.1268
  153SAPE   H6X16961   2.979   0.926   6.443 -0.6105 -0.1842 -0.0598
  153SAPE   H6Y16962   2.959   1.099   6.482 -1.4369  0.8739  1.7274
  153SAPE   C3716963   2.777   0.983   6.446 -0.0307  0.2946  0.3963
  153SAPE   H7X16964   2.711   1.059   6.492 -1.0553  0.4660 -1.2594
  153SAPE   H7Y16965   2.740   0.880   6.463 -0.5466  0.5747  0.9903
  153SAPE   C3816966   2.771   1.009   6.294  0.2560  0.1242 -0.1889
  153SAPE   H8X16967   2.678   0.978   6.242  0.7566  0.1646 -1.1353
  153SAPE   H8Y16968   2.846   0.942   6.246 -0.3995 -0.2566 -0.7172
  153SAPE   C3916969   2.793   1.158   6.256  0.3690  0.4009 -0.3627
  153SAPE   H9X16970   2.900   1.186   6.255 -0.1971  2.7470 -1.9177
  153SAPE   H9Y16971   2.730   1.209   6.331 -1.5060 -3.0885  0.6694
  153SAPE  C31016972   2.732   1.180   6.113 -0.0876  0.3721 -0.2126
  153SAPE  H10X16973   2.626   1.147   6.104  0.1126 -0.0757 -1.0536
  153SAPE  H10Y16974   2.780   1.103   6.048  2.6178  1.3521  0.5228
  153SAPE  C31116975   2.758   1.320   6.057 -0.5945 -0.3079 -0.2751
  153SAPE  H11X16976   2.868   1.331   6.058 -0.4423 -1.2996 -2.0020
  153SAPE  H11Y16977   2.728   1.401   6.128 -0.1474  0.0535 -0.4891
  153SAPE  C31216978   2.703   1.368   5.919 -0.3833 -0.3589 -0.3911
  153SAPE  H12X16979   2.759   1.313   5.840  1.5856  1.0240 -0.0070
  153SAPE  H12Y16980   2.738   1.473   5.914  0.7101 -0.4597  2.8520
  153SAPE  C31316981   2.553   1.360   5.897 -0.3929 -0.3828  0.3072
  153SAPE  H13X16982   2.495   1.419   5.971 -2.6462 -0.7386 -1.0854
  153SAPE  H13Y16983   2.515   1.256   5.904  0.2298 -0.5501  1.6171
  153SAPE  C31416984   2.526   1.411   5.756 -0.3021 -0.6683  0.0889
  153SAPE  H14X16985   2.559   1.329   5.689 -1.3707 -2.3703  1.5588
  153SAPE  H14Y16986   2.578   1.507   5.733 -0.5883  0.2759  3.0007
  153SAPE  C31516987   2.372   1.433   5.721 -0.3361  0.6542 -0.4709
  153SAPE  H15X16988   2.329   1.498   5.799  0.1137 -0.7138  0.9650
  153SAPE  H15Y16989   2.318   1.337   5.736  1.2312  0.1466  2.7816
  153SAPE  C31616990   2.354   1.490   5.584  0.3027 -0.2297 -0.2034
  153SAPE  H16X16991   2.421   1.575   5.559  1.3455 -0.9242  0.1822
  153SAPE  H16Y16992   2.253   1.533   5.564 -0.3141 -0.7187  1.7221
  153SAPE  C31716993   2.387   1.385   5.470 -0.0041  0.1983 -0.6972
  153SAPE  H17X16994   2.328   1.294   5.494 -0.5834  0.1003 -2.3155
  153SAPE  H17Y16995   2.495   1.364   5.484  0.3871  1.1489 -2.0402
  153SAPE  C31816996   2.365   1.441   5.330  0.0857 -0.1382  0.8567
  153SAPE  H18X16997   2.411   1.374   5.255  4.2197  0.1323  2.8373
  153SAPE  H18Y16998   2.396   1.548   5.333  0.2825 -0.1941  0.7994
  153SAPE  H18Z16999   2.255   1.444   5.316  0.1597 -2.5023 -0.6368
  154SAPE     N17000   4.359   0.299   8.119  0.1284 -0.0317 -0.2464
  154SAPE   HN117001   4.262   0.302   8.081 -0.7636  4.1135  1.7535
  154SAPE   HN217002   4.351   0.323   8.220 -0.8516 -2.2071  0.2480
  154SAPE   HN317003   4.413   0.379   8.080 -0.6606  1.1056  0.8945
  154SAPE   C1217004   4.438   0.173   8.135  0.1000  0.1034  0.5662
  154SAPE  H12A17005   4.370   0.091   8.167 -2.5981  2.0886  0.1949
  154SAPE  H12B17006   4.509   0.197   8.217 -2.0960 -2.3904  3.4427
  154SAPE   C1117007   4.524   0.145   8.005  0.3925 -0.5122  0.7412
  154SAPE  H11A17008   4.461   0.144   7.914  2.8995  0.2645 -1.1169
  154SAPE  H11B17009   4.575   0.047   8.014  1.9913  0.4198  2.8002
  154SAPE     P17010   4.740   0.250   7.893 -0.1864  0.1399 -0.1331
  154SAPE   O1317011   4.766   0.385   7.827 -0.2542 -0.3526 -0.5005
  154SAPE   O1417012   4.845   0.197   7.983 -0.0072  0.1212  0.0172
  154SAPE   O1217013   4.615   0.258   7.992 -0.4547  0.3276  0.0575
  154SAPE   O1117014   4.704   0.135   7.789 -0.6196  0.1093  0.0437
  154SAPE    C117015   4.616   0.179   7.682 -0.7965  0.2120  0.3578
  154SAPE    HA17016   4.519   0.212   7.726 -1.4589  1.4075 -1.8452
  154SAPE    HB17017   4.664   0.260   7.623  0.8315 -0.4962  0.6608
  154SAPE    C217018   4.582   0.063   7.571  0.4214 -0.3799  0.0001
  154SAPE    HS17019   4.532  -0.019   7.626 -1.5801  0.9450  0.2942
  154SAPE   O2117020   4.698   0.011   7.509  0.0379  0.2042 -0.3784
  154SAPE   C2117021   4.678  -0.096   7.431  0.1504  0.4254  0.2546
  154SAPE   O2217022   4.575  -0.158   7.428  0.3620  0.1486  0.0016
  154SAPE   C2217023   4.794  -0.117   7.342  0.3610  0.2911  0.4809
  154SAPE   H2R17024   4.818  -0.023   7.287  2.0306  0.1280  0.8867
  154SAPE   H2S17025   4.872  -0.160   7.408 -0.3735  0.0103  1.1830
  154SAPE    C317026   4.473   0.126   7.472  0.6399  0.1407  0.3562
  154SAPE    HX17027   4.391   0.171   7.532  2.5125  1.0506  2.3903
  154SAPE    HY17028   4.440   0.040   7.410 -0.4744  0.9596 -0.2267
  154SAPE   O3117029   4.528   0.236   7.387  0.5560 -0.1925  0.2597
  154SAPE   C3117030   4.453   0.262   7.277  0.1162  0.1216 -0.1137
  154SAPE   O3217031   4.362   0.191   7.228  0.3852 -0.3197 -0.1287
  154SAPE   C3217032   4.520   0.375   7.200  0.1879  1.1114  0.2040
  154SAPE   H2X17033   4.626   0.345   7.187 -0.4816 -1.7749  0.5923
  154SAPE   H2Y17034   4.506   0.472   7.253  0.0978  1.6696 -0.8072
  154SAPE   C2317035   4.749  -0.211   7.229 -0.4582 -0.3864 -0.2104
  154SAPE   H3R17036   4.682  -0.296   7.255  1.4311 -1.9922 -0.3088
  154SAPE   H3S17037   4.845  -0.256   7.193 -0.3528  0.5744 -1.1838
  154SAPE   C2417038   4.714  -0.138   7.090 -0.2770  0.1586  0.2230
  154SAPE   H4R17039   4.723  -0.217   7.012  0.6224 -0.4093  0.8806
  154SAPE   H4S17040   4.794  -0.065   7.068 -0.7264  0.5075 -0.2612
  154SAPE   C2517041   4.582  -0.064   7.094  0.0026  0.2208 -0.5372
  154SAPE   H5R17042   4.578  -0.004   7.186  1.8648 -3.7792  2.4674
  154SAPE   C2617043   4.472  -0.078   7.016  0.2874  0.7125  0.2062
  154SAPE   H6R17044   4.393  -0.007   7.046 -0.9688 -0.9670  1.0076
  154SAPE   C2717045   4.448  -0.166   6.898 -0.5117 -0.0932  0.7586
  154SAPE   H7R17046   4.343  -0.181   6.867 -0.3200 -1.0809  0.5284
  154SAPE   H7S17047   4.488  -0.268   6.921  2.7633  0.9946  0.3691
  154SAPE   C2817048   4.545  -0.120   6.786 -0.1350 -0.3770  0.2381
  154SAPE   H8R17049   4.610  -0.036   6.815  0.8183 -1.2060  0.5617
  154SAPE   C2917050   4.561  -0.188   6.669  0.4074  0.7881  0.0368
  154SAPE   H9R17051   4.643  -0.174   6.597 -0.0442 -2.2116 -1.2243
  154SAPE  C21017052   4.487  -0.315   6.637 -0.8179 -0.4806  0.3547
  154SAPE  H10R17053   4.476  -0.373   6.731  0.6217  0.3156  1.0394
  154SAPE  H10S17054   4.561  -0.366   6.572  0.7253  1.6951  0.3123
  154SAPE  C21117055   4.356  -0.290   6.571 -0.1115 -0.1212  0.1261
  154SAPE  H11R17056   4.274  -0.292   6.644 -0.1160 -1.7674  0.0957
  154SAPE  C21217057   4.331  -0.268   6.441  0.1839  0.5881 -0.7025
  154SAPE  H12R17058   4.224  -0.259   6.417 -0.5066 -0.5771  1.5649
  154SAPE  C21317059   4.430  -0.258   6.333 -0.8401  0.2230 -0.2903
  154SAPE  H13R17060   4.374  -0.287   6.241 -1.9713  2.4655 -0.3745
  154SAPE  H13S17061   4.516  -0.327   6.346 -0.7241  0.5138  0.5034
  154SAPE  C21417062   4.484  -0.109   6.314  0.4878  0.1994  0.0194
  154SAPE  H14R17063   4.442  -0.032   6.380 -0.5621  0.9795 -1.5083
  154SAPE  C21517064   4.564  -0.063   6.223 -0.4634  0.1962  0.5322
  154SAPE  H15R17065   4.597   0.042   6.232  0.0843 -0.0748  2.0231
  154SAPE  C21617066   4.635  -0.138   6.112 -0.1020  0.6100  0.0542
  154SAPE  H16R17067   4.629  -0.247   6.135  0.3993  0.5299 -0.1680
  154SAPE  H16S17068   4.739  -0.101   6.100 -0.1579  0.6372 -0.3611
  154SAPE  C21717069   4.565  -0.110   5.976  0.5538 -0.2309 -0.4362
  154SAPE  H17R17070   4.540  -0.003   5.961  0.8980 -0.5334 -4.0158
  154SAPE  H17S17071   4.471  -0.169   5.968  0.0923  0.3560  0.4823
  154SAPE  C21817072   4.649  -0.143   5.854  0.3995  0.5230  0.4450
  154SAPE  H18R17073   4.705  -0.239   5.858 -4.4366 -2.7029 -0.1917
  154SAPE  H18S17074   4.726  -0.063   5.852 -0.0627  0.9843  0.8744
  154SAPE  C21917075   4.569  -0.151   5.723 -0.0673  0.9659  0.5365
  154SAPE  H19R17076   4.515  -0.059   5.694 -1.9313  0.4446  2.1188
  154SAPE  H19S17077   4.487  -0.225   5.728  0.0958  0.6975 -0.5582
  154SAPE  C22017078   4.671  -0.189   5.616 -0.3576  0.4604  0.3253
  154SAPE  H20R17079   4.733  -0.277   5.642 -0.6851  0.1048 -0.0811
  154SAPE  H20S17080   4.739  -0.101   5.605 -1.9374  1.8869  1.4521
  154SAPE  H20T17081   4.620  -0.211   5.520  0.8537 -1.1944  0.0250
  154SAPE   C3317082   4.459   0.394   7.061  0.2386 -0.5392  0.4941
  154SAPE   H3X17083   4.352   0.419   7.073  0.0398 -1.6440  1.1021
  154SAPE   H3Y17084   4.468   0.299   7.005 -2.1216 -1.7849  2.0888
  154SAPE   C3417085   4.537   0.503   6.983  0.2857 -0.2934 -0.0888
  154SAPE   H4X17086   4.644   0.474   6.987  0.8621  1.7158  0.0974
  154SAPE   H4Y17087   4.536   0.599   7.039 -1.0162 -0.2631 -0.1275
  154SAPE   C3517088   4.493   0.531   6.834  0.0049  0.3406  0.2002
  154SAPE   H5X17089   4.395   0.582   6.849  0.2496  0.1601  2.9019
  154SAPE   H5Y17090   4.479   0.437   6.775  1.5153 -0.5473  1.2011
  154SAPE   C3617091   4.585   0.623   6.754  0.1267 -0.1263 -0.0907
  154SAPE   H6X17092   4.690   0.588   6.740  0.0319 -0.5286  0.1812
  154SAPE   H6Y17093   4.581   0.725   6.798  1.7892  0.7691 -1.8442
  154SAPE   C3717094   4.539   0.629   6.607 -0.0509 -1.0553  0.1292
  154SAPE   H7X17095   4.435   0.669   6.600 -0.5948 -1.7598  3.0466
  154SAPE   H7Y17096   4.532   0.527   6.563 -1.6166 -0.1420 -1.9832
  154SAPE   C3817097   4.635   0.709   6.521 -0.1441 -0.2442 -0.5886
  154SAPE   H8X17098   4.730   0.653   6.509 -0.3462 -0.7167 -0.0604
  154SAPE   H8Y17099   4.666   0.802   6.575  2.0733 -1.0103 -0.4513
  154SAPE   C3917100   4.587   0.743   6.384  0.6927  0.5575  0.4857
  154SAPE   H9X17101   4.481   0.766   6.359  0.6182 -1.7775 -1.8209
  154SAPE   H9Y17102   4.589   0.646   6.330  1.1845  1.7332 -1.7401
  154SAPE  C31017103   4.680   0.833   6.304 -0.1671  0.8830  0.4359
  154SAPE  H10X17104   4.772   0.837   6.368 -0.6958  2.9121  1.1515
  154SAPE  H10Y17105   4.639   0.935   6.289 -0.2281  0.7903 -0.0320
  154SAPE  C31117106   4.726   0.768   6.176  0.8619 -0.1917  0.3447
  154SAPE  H11X17107   4.747   0.661   6.195  2.9918  0.1288  0.1456
  154SAPE  H11Y17108   4.825   0.807   6.142  0.2458  0.4759 -0.7224
  154SAPE  C31217109   4.627   0.779   6.056  0.2070 -0.4512  0.1241
  154SAPE  H12X17110   4.622   0.888   6.036  2.7004 -0.5408 -1.4411
  154SAPE  H12Y17111   4.529   0.746   6.097  0.0611 -0.7253 -0.4406
  154SAPE  C31317112   4.672   0.703   5.933 -0.5200  0.2574 -0.3552
  154SAPE  H13X17113   4.683   0.596   5.960 -0.3365  0.8468  2.2144
  154SAPE  H13Y17114   4.762   0.754   5.892  0.3286 -0.3093  0.7387
  154SAPE  C31417115   4.562   0.698   5.820 -0.3544  0.3399  0.0098
  154SAPE  H14X17116   4.476   0.639   5.858 -2.0842  2.4808 -0.3083
  154SAPE  H14Y17117   4.607   0.637   5.739 -0.7623  0.1657 -0.0909
  154SAPE  C31517118   4.506   0.828   5.758  0.3151  0.2217  0.1933
  154SAPE  H15X17119   4.453   0.891   5.834 -1.2260 -1.4109  0.5232
  154SAPE  H15Y17120   4.443   0.808   5.670  0.5070  0.0211  0.0999
  154SAPE  C31617121   4.616   0.933   5.719 -0.0310 -0.1191 -0.6182
  154SAPE  H16X17122   4.689   0.898   5.643  1.9666  1.2531  0.5436
  154SAPE  H16Y17123   4.683   0.957   5.804 -0.1416 -0.5546 -0.4063
  154SAPE  C31717124   4.557   1.060   5.666  0.2702 -0.3754 -0.2755
  154SAPE  H17X17125   4.501   1.107   5.750  0.3999 -3.7735  1.9039
  154SAPE  H17Y17126   4.494   1.034   5.578 -1.2140  0.4562  0.5012
  154SAPE  C31817127   4.670   1.166   5.633  0.1879 -0.4039 -0.8831
  154SAPE  H18X17128   4.750   1.134   5.563  0.7872  0.5611 -0.6679
  154SAPE  H18Y17129   4.730   1.196   5.722 -2.3350 -2.2014  1.5870
  154SAPE  H18Z17130   4.616   1.258   5.601 -0.6426 -0.8959 -0.8989
  155SAPE     N17131   3.637   0.378   7.536 -0.1913 -0.1470 -0.3806
  155SAPE   HN117132   3.697   0.445   7.588  0.7778  0.1594 -1.8592
  155SAPE   HN217133   3.659   0.289   7.585 -0.2300  1.1145  2.0842
  155SAPE   HN317134   3.672   0.382   7.438  0.4198  1.5312 -0.1299
  155SAPE   C1217135   3.488   0.396   7.535  0.5711 -0.1302 -0.0908
  155SAPE  H12A17136   3.463   0.444   7.632  0.6336 -0.6484  0.1797
  155SAPE  H12B17137   3.438   0.297   7.540  2.7485 -1.2541  0.2525
  155SAPE   C1117138   3.453   0.492   7.417  0.2550  0.0554  0.2876
  155SAPE  H11A17139   3.495   0.455   7.321  0.3907 -1.9424  1.0705
  155SAPE  H11B17140   3.501   0.591   7.425 -2.6837  2.0880 -3.6270
  155SAPE     P17141   3.219   0.406   7.331  0.2648  0.1158 -0.3508
  155SAPE   O1317142   3.288   0.280   7.306 -0.3576 -0.1656 -0.1886
  155SAPE   O1417143   3.100   0.397   7.414  0.7761 -0.2778  0.3872
  155SAPE   O1217144   3.318   0.510   7.401  0.3648 -0.1516  0.0630
  155SAPE   O1117145   3.189   0.476   7.189 -0.0749 -0.1637 -0.1583
  155SAPE    C117146   3.306   0.485   7.095  0.0330 -0.3254  0.9972
  155SAPE    HA17147   3.290   0.574   7.030  0.3735 -0.6486  0.4668
  155SAPE    HB17148   3.405   0.506   7.140  0.6577 -4.0202  1.6614
  155SAPE    C217149   3.330   0.361   7.007 -0.9572 -0.0602  0.3322
  155SAPE    HS17150   3.375   0.284   7.074 -0.6521 -0.5644 -0.4380
  155SAPE   O2117151   3.409   0.386   6.886  0.4543 -0.0964 -0.6437
  155SAPE   C2117152   3.539   0.403   6.915  0.2147 -0.9661 -0.0172
  155SAPE   O2217153   3.587   0.379   7.023  0.3953  0.5112 -0.0806
  155SAPE   C2217154   3.611   0.440   6.784  0.7972  0.6792 -0.4902
  155SAPE   H2R17155   3.718   0.416   6.796  0.6649 -0.9497 -2.1751
  155SAPE   H2S17156   3.577   0.368   6.706  1.1537 -0.4421  0.3729
  155SAPE    C317157   3.192   0.315   6.967 -0.3278 -0.3049 -0.3973
  155SAPE    HX17158   3.124   0.401   6.955 -0.5218 -0.3459  0.3702
  155SAPE    HY17159   3.146   0.255   7.047 -0.0759  0.0223 -0.0028
  155SAPE   O3117160   3.198   0.242   6.842 -0.4825 -0.6851 -0.1243
  155SAPE   C3117161   3.237   0.116   6.850 -0.8290 -0.0859  0.0817
  155SAPE   O3217162   3.274   0.055   6.950  0.3506  0.0561 -0.1811
  155SAPE   C3217163   3.215   0.041   6.718 -0.6231 -0.6014  0.3542
  155SAPE   H2X17164   3.161   0.104   6.644  2.2406 -0.3908 -1.6983
  155SAPE   H2Y17165   3.143  -0.041   6.740  0.1418 -0.9140  1.7746
  155SAPE   C2317166   3.592   0.583   6.730 -0.3706 -0.3234 -0.4204
  155SAPE   H3R17167   3.652   0.654   6.791 -0.4708  1.3051 -2.1257
  155SAPE   H3S17168   3.483   0.602   6.741 -0.9624 -2.3152 -2.0571
  155SAPE   C2417169   3.630   0.611   6.583 -0.0704 -0.4636 -0.1100
  155SAPE   H4R17170   3.562   0.552   6.518 -1.2266 -0.1201  0.7763
  155SAPE   H4S17171   3.731   0.564   6.572 -0.7824 -2.6921  2.0550
  155SAPE   C2517172   3.627   0.753   6.543  1.0439 -0.5171 -0.2645
  155SAPE   H5R17173   3.653   0.826   6.622 -0.2854  1.1325 -1.2833
  155SAPE   C2617174   3.587   0.806   6.424 -0.0778 -0.6479 -1.0794
  155SAPE   H6R17175   3.574   0.915   6.416  0.6326 -0.2883  1.7457
  155SAPE   C2717176   3.553   0.720   6.301 -0.2197  0.1595 -0.6335
  155SAPE   H7R17177   3.556   0.610   6.320 -2.4005  0.3723  1.4511
  155SAPE   H7S17178   3.624   0.741   6.219 -0.5031 -1.3096 -1.2892
  155SAPE   C2817179   3.414   0.752   6.259 -0.0149 -0.0387 -0.0740
  155SAPE   H8R17180   3.346   0.802   6.330  0.4540  1.8617 -0.9103
  155SAPE   C2917181   3.361   0.718   6.139 -0.3997  0.2058 -0.4394
  155SAPE   H9R17182   3.260   0.757   6.123 -0.7435 -0.6604 -0.4596
  155SAPE  C21017183   3.422   0.651   6.018 -0.4338 -0.0683 -0.5100
  155SAPE  H10R17184   3.529   0.680   6.008 -0.5603  0.1176 -1.4902
  155SAPE  H10S17185   3.375   0.687   5.924  0.6763 -0.2207 -1.1438
  155SAPE  C21117186   3.403   0.501   6.014  0.2248  0.2732  0.1938
  155SAPE  H11R17187   3.460   0.450   6.093  1.3714  2.2382  0.6919
  155SAPE  C21217188   3.328   0.431   5.933  0.8107 -0.1745  0.4416
  155SAPE  H12R17189   3.329   0.321   5.940  1.6497 -0.1203  1.3987
  155SAPE  C21317190   3.237   0.483   5.825  0.2798  0.3694  0.6179
  155SAPE  H13R17191   3.303   0.499   5.737 -1.9494 -3.0573 -1.9056
  155SAPE  H13S17192   3.201   0.584   5.855 -0.3048 -0.0193  1.2334
  155SAPE  C21417193   3.113   0.402   5.793 -0.1197 -0.1630  0.2184
  155SAPE  H14R17194   3.030   0.412   5.864 -0.7629 -3.8287  0.2082
  155SAPE  C21517195   3.108   0.294   5.714  0.3586  0.2076 -0.1028
  155SAPE  H15R17196   3.012   0.243   5.699  0.4587  0.3449 -1.2993
  155SAPE  C21617197   3.230   0.242   5.633  0.8397 -0.3449  0.6071
  155SAPE  H16R17198   3.317   0.309   5.646  0.3803  0.1499  1.2284
  155SAPE  H16S17199   3.204   0.247   5.526  0.5403 -0.0103  0.6935
  155SAPE  C21717200   3.280   0.099   5.661  0.1411  0.7583 -0.3048
  155SAPE  H17R17201   3.312   0.103   5.767 -2.7036  1.2933  0.6076
  155SAPE  H17S17202   3.368   0.078   5.595 -0.4205 -0.2908 -0.7555
  155SAPE  C21817203   3.175  -0.015   5.646  0.2696  0.3028  0.0794
  155SAPE  H18R17204   3.167  -0.036   5.537 -2.0823  1.2570  0.0089
  155SAPE  H18S17205   3.072   0.016   5.674 -0.2890 -0.7466 -0.7019
  155SAPE  C21917206   3.221  -0.142   5.710 -0.0612 -0.2717  0.2999
  155SAPE  H19R17207   3.206  -0.132   5.820 -0.2477  0.4472  0.2117
  155SAPE  H19S17208   3.331  -0.154   5.702  0.1260 -0.2947  2.3696
  155SAPE  C22017209   3.140  -0.266   5.667 -0.5523 -0.4936  0.4277
  155SAPE  H20R17210   3.168  -0.364   5.712  1.6858  0.4657  1.2602
  155SAPE  H20S17211   3.169  -0.283   5.561 -1.2414 -1.2794  0.3596
  155SAPE  H20T17212   3.031  -0.249   5.670 -0.7547 -1.3600 -1.0948
  155SAPE   C3317213   3.338  -0.014   6.653 -0.0742  0.5659  0.0329
  155SAPE   H3X17214   3.301  -0.078   6.570  0.5705  3.5882 -2.7943
  155SAPE   H3Y17215   3.407  -0.066   6.722 -0.9922  1.4774  1.6932
  155SAPE   C3417216   3.426   0.087   6.583  0.5801  0.3989 -0.0241
  155SAPE   H4X17217   3.523   0.035   6.564  0.5954  0.8618 -1.3262
  155SAPE   H4Y17218   3.465   0.165   6.652 -0.6308  2.0015 -1.0957
  155SAPE   C3517219   3.373   0.144   6.448 -0.0307 -0.1051 -0.2884
  155SAPE   H5X17220   3.284   0.201   6.481 -0.8094 -0.7648 -1.1934
  155SAPE   H5Y17221   3.330   0.066   6.382  1.4851  0.3613 -1.9264
  155SAPE   C3617222   3.479   0.231   6.364  0.6830  0.6119 -0.2941
  155SAPE   H6X17223   3.522   0.305   6.436 -0.0818 -0.2894  1.1269
  155SAPE   H6Y17224   3.412   0.291   6.298 -2.0611  0.1036  1.8497
  155SAPE   C3717225   3.578   0.147   6.279  0.8069  0.6067 -0.0510
  155SAPE   H7X17226   3.509   0.092   6.212 -2.0478 -1.3709  4.0937
  155SAPE   H7Y17227   3.627   0.077   6.349 -2.1988 -0.2410  1.3552
  155SAPE   C3817228   3.680   0.223   6.194  0.2935  0.1668  0.1489
  155SAPE   H8X17229   3.621   0.281   6.120  0.1128 -0.2209 -0.0141
  155SAPE   H8Y17230   3.721   0.145   6.127  0.9014 -0.2579  0.9883
  155SAPE   C3917231   3.790   0.304   6.263  0.7826  0.1746  1.0349
  155SAPE   H9X17232   3.819   0.247   6.354  0.2223 -0.5474  0.7720
  155SAPE   H9Y17233   3.749   0.404   6.291 -1.8915  0.0702 -1.9651
  155SAPE  C31017234   3.909   0.319   6.173  0.3063  0.3968  0.4461
  155SAPE  H10X17235   3.931   0.215   6.142 -1.4464 -0.3240  1.5107
  155SAPE  H10Y17236   3.993   0.357   6.235  3.2763 -0.6789 -2.6293
  155SAPE  C31117237   3.877   0.407   6.051 -0.2554  0.8477 -0.2069
  155SAPE  H11X17238   3.826   0.494   6.098  1.3215 -0.3125  4.0645
  155SAPE  H11Y17239   3.791   0.363   5.996 -0.3436  1.3247 -0.4561
  155SAPE  C31217240   3.994   0.430   5.957 -0.1353 -0.2010  0.5152
  155SAPE  H12X17241   4.029   0.334   5.914  1.6456  0.7008 -0.1483
  155SAPE  H12Y17242   4.076   0.466   6.023  0.8738 -2.3879  0.5177
  155SAPE  C31317243   3.964   0.532   5.848 -0.1072  0.3945 -0.2829
  155SAPE  H13X17244   3.930   0.630   5.889 -0.2285 -1.1033  3.7053
  155SAPE  H13Y17245   3.874   0.488   5.801 -0.7772  2.6588 -1.2601
  155SAPE  C31417246   4.082   0.565   5.756 -0.2852 -0.3186 -0.5876
  155SAPE  H14X17247   4.121   0.474   5.705  0.2252 -0.0289 -0.7220
  155SAPE  H14Y17248   4.161   0.614   5.816 -1.0997 -0.8263  0.9368
  155SAPE  C31517249   4.043   0.658   5.639  0.5119  0.6448 -0.1316
  155SAPE  H15X17250   3.990   0.743   5.686  1.5141  1.2895 -0.1475
  155SAPE  H15Y17251   3.974   0.609   5.567  0.6820 -0.9331  0.7347
  155SAPE  C31617252   4.169   0.707   5.559 -0.2237 -0.6643 -0.2570
  155SAPE  H16X17253   4.211   0.623   5.499  1.8696  1.8418 -2.5573
  155SAPE  H16Y17254   4.253   0.738   5.626 -0.0674  0.7028 -1.0515
  155SAPE  C31717255   4.148   0.823   5.461  0.2435  0.3684  0.7680
  155SAPE  H17X17256   4.185   0.914   5.513 -0.5242  0.4446  1.1917
  155SAPE  H17Y17257   4.040   0.830   5.436  0.0716 -2.2153  0.5881
  155SAPE  C31817258   4.237   0.811   5.334 -0.2787  0.9768  0.0257
  155SAPE  H18X17259   4.191   0.888   5.268 -1.1558 -0.6036 -1.2976
  155SAPE  H18Y17260   4.222   0.713   5.284  3.2112  0.6354 -0.5777
  155SAPE  H18Z17261   4.346   0.826   5.346  0.2122  1.1319 -3.6320
  156SAPE     N17262   4.574   0.769   7.650  0.4549  0.1368 -0.4069
  156SAPE   HN117263   4.540   0.766   7.748 -0.0566 -0.8077 -0.6011
  156SAPE   HN217264   4.612   0.673   7.636  1.2725  0.0712  1.8192
  156SAPE   HN317265   4.659   0.829   7.641  0.2068  0.6196  0.3735
  156SAPE   C1217266   4.451   0.804   7.561  0.0503 -0.0070 -0.2243
  156SAPE  H12A17267   4.504   0.858   7.479 -0.0060  1.5679  0.7319
  156SAPE  H12B17268   4.381   0.877   7.607 -0.6307  1.0441 -2.7999
  156SAPE   C1117269   4.376   0.676   7.515  0.2649 -0.9072  0.5782
  156SAPE  H11A17270   4.452   0.612   7.465  0.2356 -0.2877 -0.2925
  156SAPE  H11B17271   4.296   0.697   7.441  0.1400  1.2981  1.2884
  156SAPE     P17272   4.227   0.501   7.625 -0.3727  0.8922  0.3526
  156SAPE   O1317273   4.271   0.409   7.731 -0.2532  0.1379 -0.1013
  156SAPE   O1417274   4.089   0.550   7.630  0.9451  0.8184 -0.5676
  156SAPE   O1217275   4.318   0.623   7.633  0.0973 -0.2858  0.4896
  156SAPE   O1117276   4.266   0.445   7.481  0.2396 -0.3896 -0.2748
  156SAPE    C117277   4.171   0.461   7.373  0.1659  0.5301  0.0186
  156SAPE    HA17278   4.109   0.552   7.384  0.4798  0.5654  1.7730
  156SAPE    HB17279   4.226   0.454   7.277 -0.8194 -0.3565 -0.5112
  156SAPE    C217280   4.062   0.343   7.377  0.3595 -0.3596  0.6880
  156SAPE    HS17281   3.994   0.379   7.458 -0.4182 -0.4449  0.0822
  156SAPE   O2117282   4.122   0.215   7.409 -0.4401  0.3765  0.2235
  156SAPE   C2117283   4.038   0.136   7.469  0.0872  0.4167 -0.0786
  156SAPE   O2217284   3.923   0.166   7.505  0.7409  0.6817 -0.6281
  156SAPE   C2217285   4.092  -0.002   7.491 -0.1407 -0.1575  0.9389
  156SAPE   H2R17286   4.019  -0.079   7.458 -0.1094 -0.2532  1.0907
  156SAPE   H2S17287   4.184  -0.018   7.431 -0.0603  0.7105  0.8151
  156SAPE    C317288   3.982   0.338   7.246 -0.0680  0.1362  0.4778
  156SAPE    HX17289   3.882   0.293   7.267 -0.4388  0.2089 -1.0144
  156SAPE    HY17290   4.036   0.281   7.168 -2.1895  1.3624 -2.0718
  156SAPE   O3117291   3.957   0.470   7.194 -0.0106  0.0689  0.3112
  156SAPE   C3117292   3.842   0.524   7.240  0.5339 -0.5680  0.0569
  156SAPE   O3217293   3.765   0.480   7.323 -0.1401  0.2775 -0.9439
  156SAPE   C3217294   3.824   0.659   7.172  0.6863 -0.0903 -0.0925
  156SAPE   H2X17295   3.838   0.644   7.063  0.1931 -1.2722 -0.0124
  156SAPE   H2Y17296   3.899   0.730   7.213  2.4126 -1.7137 -0.3044
  156SAPE   C2317297   4.132  -0.041   7.637 -0.6354  0.1667  0.0559
  156SAPE   H3R17298   4.046  -0.030   7.706  0.4580 -1.3722  1.7584
  156SAPE   H3S17299   4.216   0.024   7.669 -0.4211  0.0026 -0.1696
  156SAPE   C2417300   4.157  -0.196   7.649  0.8009  0.4157 -0.0521
  156SAPE   H4R17301   4.065  -0.243   7.609  1.9841 -2.0327 -0.0744
  156SAPE   H4S17302   4.143  -0.216   7.757 -2.0744  2.3253  0.0105
  156SAPE   C2517303   4.283  -0.247   7.597  0.4575  0.3279  0.2614
  156SAPE   H5R17304   4.371  -0.194   7.637 -0.4105  0.4908  2.0466
  156SAPE   C2617305   4.305  -0.331   7.496 -0.6228 -0.3644  0.4139
  156SAPE   H6R17306   4.411  -0.353   7.481 -0.8193 -1.4203  0.4829
  156SAPE   C2717307   4.211  -0.400   7.396  0.4803 -0.1422 -0.4756
  156SAPE   H7R17308   4.105  -0.413   7.428 -0.8828  3.5905 -2.7428
  156SAPE   H7S17309   4.244  -0.505   7.387  1.1578 -0.0670  0.9765
  156SAPE   C2817310   4.205  -0.327   7.267 -0.0859  0.0642 -0.3553
  156SAPE   H8R17311   4.149  -0.232   7.267  0.4370  0.4116 -1.9298
  156SAPE   C2917312   4.269  -0.375   7.156 -0.0775  0.1456 -0.1024
  156SAPE   H9R17313   4.257  -0.312   7.067 -0.8186 -1.7111 -1.3793
  156SAPE  C21017314   4.354  -0.498   7.141  0.4237  0.1805 -0.4579
  156SAPE  H10R17315   4.376  -0.531   7.245 -0.3263 -1.6069 -0.8265
  156SAPE  H10S17316   4.453  -0.473   7.097  1.0462 -1.3982 -0.0282
  156SAPE  C21117317   4.286  -0.614   7.069  0.1975  0.1956 -0.3178
  156SAPE  H11R17318   4.176  -0.612   7.072  0.2207  0.7359  0.3844
  156SAPE  C21217319   4.352  -0.720   7.005  0.1737  0.3427  0.6699
  156SAPE  H12R17320   4.295  -0.805   6.967 -2.1691  1.4559  1.4600
  156SAPE  C21317321   4.503  -0.711   6.987 -0.5350 -0.0426  0.0467
  156SAPE  H13R17322   4.553  -0.714   7.086 -1.3313 -0.8843  0.4393
  156SAPE  H13S17323   4.537  -0.619   6.934 -1.0039  0.7595  1.1073
  156SAPE  C21417324   4.544  -0.828   6.900  0.3196 -0.2400  0.6165
  156SAPE  H14R17325   4.549  -0.928   6.944 -0.9991 -0.5951 -0.0104
  156SAPE  C21517326   4.603  -0.821   6.781  0.2478 -0.1610  0.1350
  156SAPE  H15R17327   4.629  -0.916   6.732 -0.1275  0.4680 -1.3445
  156SAPE  C21617328   4.607  -0.698   6.697 -0.6384 -0.3591  0.1933
  156SAPE  H16R17329   4.714  -0.669   6.694 -0.3806 -1.2529 -3.4140
  156SAPE  H16S17330   4.543  -0.611   6.724 -0.3636  0.4311 -1.5919
  156SAPE  C21717331   4.586  -0.737   6.552  0.0750 -0.8956  0.1691
  156SAPE  H17R17332   4.479  -0.763   6.536 -0.3081  1.0085 -0.6602
  156SAPE  H17S17333   4.656  -0.819   6.524  0.6766 -0.1747 -0.4712
  156SAPE  C21817334   4.609  -0.625   6.450 -0.9245 -0.2071  0.3787
  156SAPE  H18R17335   4.694  -0.562   6.487  0.2690 -2.0121  0.8290
  156SAPE  H18S17336   4.524  -0.556   6.467 -0.4144  0.4310  0.3887
  156SAPE  C21917337   4.621  -0.665   6.304 -0.1452  0.9640  0.3397
  156SAPE  H19R17338   4.538  -0.737   6.288  0.1321  1.0337 -1.6657
  156SAPE  H19S17339   4.722  -0.708   6.283 -0.3505  0.8255 -0.3883
  156SAPE  C22017340   4.596  -0.548   6.199 -0.0916 -0.0880  0.0899
  156SAPE  H20R17341   4.631  -0.578   6.097 -0.7654 -0.9897  0.1138
  156SAPE  H20S17342   4.659  -0.463   6.233  1.4161 -2.0307  2.4838
  156SAPE  H20T17343   4.488  -0.526   6.194  0.0891  0.9821  0.5228
  156SAPE   C3317344   3.682   0.733   7.201  0.4461 -0.1814  0.7492
  156SAPE   H3X17345   3.684   0.790   7.296 -0.1119 -0.8277  1.1631
  156SAPE   H3Y17346   3.608   0.650   7.202  0.5314 -0.5911 -3.7988
  156SAPE   C3417347   3.646   0.829   7.091  0.2738  0.3412  0.4107
  156SAPE   H4X17348   3.691   0.797   6.994 -2.0979  0.4897 -0.8067
  156SAPE   H4Y17349   3.691   0.930   7.102  0.8318  0.1114  0.3021
  156SAPE   C3517350   3.489   0.869   7.088  0.5198  0.6295  0.0145
  156SAPE   H5X17351   3.477   0.900   7.194  1.0282 -0.8770  0.5441
  156SAPE   H5Y17352   3.424   0.782   7.065  1.4899  0.1545 -1.0347
  156SAPE   C3617353   3.455   0.981   7.000  0.0540 -0.0695 -0.0315
  156SAPE   H6X17354   3.537   1.056   7.014  0.4352 -0.2761 -1.0461
  156SAPE   H6Y17355   3.358   1.022   7.034  0.5688  1.3188 -0.1596
  156SAPE   C3717356   3.456   0.942   6.848  0.4081  0.0079  0.1226
  156SAPE   H7X17357   3.387   0.858   6.825  1.6252 -1.0972  0.4032
  156SAPE   H7Y17358   3.553   0.905   6.807 -0.2261  0.4994 -1.9499
  156SAPE   C3817359   3.425   1.069   6.765 -0.6077 -0.9126 -1.1777
  156SAPE   H8X17360   3.503   1.142   6.794 -1.0714 -1.5551  2.0141
  156SAPE   H8Y17361   3.330   1.114   6.801 -0.6068 -1.8899  0.1032
  156SAPE   C3917362   3.419   1.039   6.621 -0.0070  0.0928  0.4530
  156SAPE   H9X17363   3.358   0.949   6.595 -1.0979  0.5015  1.4753
  156SAPE   H9Y17364   3.521   1.019   6.582 -0.6221  0.8756 -1.6993
  156SAPE  C31017365   3.348   1.154   6.545 -0.2485  0.5490  0.6698
  156SAPE  H10X17366   3.387   1.253   6.575  3.2210 -1.5549  3.9683
  156SAPE  H10Y17367   3.240   1.153   6.571 -0.3085 -1.2369  0.4985
  156SAPE  C31117368   3.357   1.136   6.393  0.3123  0.0587 -0.2301
  156SAPE  H11X17369   3.386   1.032   6.366 -2.0403 -0.5998 -0.4739
  156SAPE  H11Y17370   3.437   1.204   6.356 -0.3326  0.1250 -1.5759
  156SAPE  C31217371   3.232   1.176   6.311  0.3882  0.0692  0.3934
  156SAPE  H12X17372   3.214   1.285   6.326 -1.1621 -0.2095  0.6835
  156SAPE  H12Y17373   3.148   1.112   6.345 -0.9919  1.0928 -0.9289
  156SAPE  C31317374   3.248   1.134   6.166 -0.2120  0.1732  0.7137
  156SAPE  H13X17375   3.281   1.029   6.150 -2.2464 -0.3449 -0.4148
  156SAPE  H13Y17376   3.329   1.204   6.139 -1.2997  0.8574 -0.9092
  156SAPE  C31417377   3.127   1.146   6.070  0.5433  0.2105 -0.0789
  156SAPE  H14X17378   3.084   1.246   6.089  1.0767  0.4475 -0.1130
  156SAPE  H14Y17379   3.047   1.071   6.090 -0.5312  0.9681 -1.3714
  156SAPE  C31517380   3.170   1.147   5.916  0.4318 -0.3272  0.2296
  156SAPE  H15X17381   3.246   1.229   5.915  2.0251 -1.7427  0.8418
  156SAPE  H15Y17382   3.084   1.181   5.855 -1.1155 -0.7565  2.0972
  156SAPE  C31617383   3.232   1.016   5.863 -0.2194  0.0104 -0.4732
  156SAPE  H16X17384   3.156   0.939   5.886 -0.2163  0.4482  1.1445
  156SAPE  H16Y17385   3.315   0.983   5.929 -0.9170  0.5364  0.6965
  156SAPE  C31717386   3.260   0.998   5.713  0.4936 -0.1169 -0.6185
  156SAPE  H17X17387   3.322   1.081   5.673  1.6007 -0.8572 -0.4615
  156SAPE  H17Y17388   3.160   1.016   5.667  0.0422  0.3758  0.5132
  156SAPE  C31817389   3.323   0.868   5.674  0.4255  1.5075 -0.2515
  156SAPE  H18X17390   3.277   0.771   5.701  3.6960 -0.6049 -1.7273
  156SAPE  H18Y17391   3.415   0.865   5.736 -1.7685  2.2208  3.3282
  156SAPE  H18Z17392   3.347   0.848   5.567  0.2500 -1.2529  0.1566
  157SAPE     N17393   6.019   6.820   8.019  0.2371  0.0816  0.3925
  157SAPE   HN117394   5.994   6.853   8.115 -1.1909  1.8012 -0.5015
  157SAPE   HN217395   6.108   6.767   8.025  0.6147  0.3653 -1.9137
  157SAPE   HN317396   6.031   6.895   7.948  1.5301 -0.9567 -0.5335
  157SAPE   C1217397   5.910   6.722   7.986  0.0108  0.1102 -0.1621
  157SAPE  H12A17398   5.901   6.644   8.065 -1.0314  0.7270  0.3482
  157SAPE  H12B17399   5.931   6.677   7.887 -1.2597 -0.3523 -0.2352
  157SAPE   C1117400   5.781   6.808   7.981  0.0866  0.2017  0.2373
  157SAPE  H11A17401   5.785   6.877   8.068  0.4958 -0.1130  0.4760
  157SAPE  H11B17402   5.698   6.737   8.001  0.3373 -0.4090 -0.8219
  157SAPE     P17403   5.632   6.901   7.794 -0.2935  0.1262 -0.2814
  157SAPE   O1317404   5.527   6.863   7.887  0.0112 -0.0789  0.1906
  157SAPE   O1417405   5.628   7.038   7.737  0.9105 -0.0384 -0.6638
  157SAPE   O1217406   5.770   6.877   7.862 -0.0630 -0.3102  0.3572
  157SAPE   O1117407   5.627   6.794   7.672 -0.1013  0.7757  0.1637
  157SAPE    C117408   5.729   6.686   7.666 -0.8024  0.4416 -0.0082
  157SAPE    HA17409   5.823   6.705   7.721 -0.6909 -1.0698  0.3724
  157SAPE    HB17410   5.686   6.595   7.713 -0.6060  0.2337 -0.2266
  157SAPE    C217411   5.765   6.673   7.513  0.7792  0.7616 -0.3149
  157SAPE    HS17412   5.824   6.582   7.492 -0.1716  0.4391 -1.7188
  157SAPE   O2117413   5.846   6.784   7.459 -0.1165 -0.5784 -0.5849
  157SAPE   C2117414   5.971   6.798   7.509  0.1078  1.3245 -0.2361
  157SAPE   O2217415   6.020   6.716   7.591 -0.2748 -0.3042  0.2895
  157SAPE   C2217416   6.030   6.932   7.472 -0.1180 -0.0952  0.1817
  157SAPE   H2R17417   6.028   6.998   7.562 -0.2644  0.2260 -0.0561
  157SAPE   H2S17418   6.138   6.929   7.447  0.2544  0.4559  1.6166
  157SAPE    C317419   5.636   6.662   7.431  0.1362  0.2523  0.3732
  157SAPE    HX17420   5.566   6.748   7.439 -1.3439 -0.8087 -0.6315
  157SAPE    HY17421   5.589   6.575   7.481 -1.5349 -0.0125 -1.5036
  157SAPE   O3117422   5.653   6.639   7.289  0.6641  0.1042 -0.0909
  157SAPE   C3117423   5.645   6.516   7.237 -0.2272 -0.2286  0.8335
  157SAPE   O3217424   5.628   6.414   7.293 -0.4748 -0.1016 -0.0512
  157SAPE   C3217425   5.666   6.512   7.087 -0.2103  0.2646  0.0276
  157SAPE   H2X17426   5.662   6.408   7.048 -1.1465 -0.1887  1.2660
  157SAPE   H2Y17427   5.761   6.566   7.067 -1.0023  1.7604  0.0932
  157SAPE   C2317428   5.945   6.998   7.351  0.5643 -0.8538 -0.2242
  157SAPE   H3R17429   5.852   7.033   7.401  0.9999 -2.9630  2.2630
  157SAPE   H3S17430   5.932   6.926   7.267 -0.5863  0.4895 -1.2319
  157SAPE   C2417431   6.010   7.130   7.279 -0.2997  0.1704  0.4172
  157SAPE   H4R17432   6.043   7.205   7.355  2.7632  0.8551 -1.4349
  157SAPE   H4S17433   5.926   7.172   7.220 -1.1222 -0.4982  1.0850
  157SAPE   C2517434   6.123   7.084   7.183 -0.7109 -1.0576 -0.8074
  157SAPE   H5R17435   6.213   7.053   7.237 -1.1077  1.9341  1.9135
  157SAPE   C2617436   6.130   7.093   7.049 -0.4382  0.2482 -0.4147
  157SAPE   H6R17437   6.229   7.073   7.005 -1.2041 -0.6196 -1.8192
  157SAPE   C2717438   6.037   7.139   6.944  0.7972 -0.0452 -0.1218
  157SAPE   H7R17439   5.955   7.202   6.983 -0.5119 -1.6872 -0.1284
  157SAPE   H7S17440   5.976   7.054   6.908  0.9858 -0.9509  1.6062
  157SAPE   C2817441   6.116   7.210   6.838  0.0215  0.8459  0.6471
  157SAPE   H8R17442   6.147   7.314   6.856  1.7966  0.1259  2.0438
  157SAPE   C2917443   6.144   7.154   6.711 -0.5908 -0.0135  0.3580
  157SAPE   H9R17444   6.202   7.215   6.639  2.1139 -0.9112  1.6412
  157SAPE  C21017445   6.099   7.015   6.670  0.4082 -0.4590  0.0124
  157SAPE  H10R17446   5.991   7.024   6.648  0.2501 -0.8105  0.6339
  157SAPE  H10S17447   6.112   6.951   6.759  1.8455 -0.1059  0.0934
  157SAPE  C21117448   6.159   6.959   6.546  0.1873 -0.2449 -0.7045
  157SAPE  H11R17449   6.269   6.959   6.543  0.2322 -1.4877  0.0509
  157SAPE  C21217450   6.101   6.906   6.431 -0.2215 -0.1295 -0.8813
  157SAPE  H12R17451   6.159   6.865   6.347 -1.9872  0.0793 -2.2824
  157SAPE  C21317452   5.953   6.889   6.403 -0.2741 -0.2769 -0.5713
  157SAPE  H13R17453   5.918   6.976   6.343 -0.7454  0.0764  0.2107
  157SAPE  H13S17454   5.894   6.899   6.496 -1.3927 -0.6596 -1.2271
  157SAPE  C21417455   5.912   6.752   6.351 -0.7601 -0.6124 -0.3461
  157SAPE  H14R17456   5.941   6.676   6.426  1.6282 -0.3321 -0.9097
  157SAPE  C21517457   5.846   6.727   6.240 -0.1492  0.6501  0.8796
  157SAPE  H15R17458   5.825   6.622   6.212  0.6561  1.2156 -2.2453
  157SAPE  C21617459   5.792   6.823   6.136  0.6499  0.4896  0.2500
  157SAPE  H16R17460   5.807   6.926   6.175 -0.0294  0.0928  1.5933
  157SAPE  H16S17461   5.682   6.815   6.130  0.7682 -0.6229 -0.6923
  157SAPE  C21717462   5.855   6.815   5.994 -0.5540 -0.0827  0.6508
  157SAPE  H17R17463   5.959   6.777   6.006 -0.9833 -1.6534 -0.3067
  157SAPE  H17S17464   5.862   6.918   5.953  1.0792  0.0107  1.0814
  157SAPE  C21817465   5.769   6.728   5.899  0.3339  0.4068  0.1541
  157SAPE  H18R17466   5.775   6.622   5.930  1.1640  0.6733  0.9642
  157SAPE  H18S17467   5.805   6.720   5.795  0.1173 -2.2117  0.2115
  157SAPE  C21917468   5.627   6.784   5.882  0.2470 -0.2544 -0.1167
  157SAPE  H19R17469   5.634   6.895   5.880 -1.5449 -0.1155 -1.8176
  157SAPE  H19S17470   5.563   6.780   5.973  0.7547 -0.8655  0.2158
  157SAPE  C22017471   5.551   6.728   5.763 -0.3134  0.2511 -0.3502
  157SAPE  H20R17472   5.522   6.621   5.759 -0.2955  0.1022  2.1191
  157SAPE  H20S17473   5.604   6.752   5.668 -1.7400  2.3700 -0.6999
  157SAPE  H20T17474   5.449   6.772   5.768 -0.9023 -1.1646  3.6610
  157SAPE   C3317475   5.562   6.598   7.008 -0.0910  0.1574 -0.0839
  157SAPE   H3X17476   5.553   6.700   7.051  0.0641  0.1503 -0.0347
  157SAPE   H3Y17477   5.457   6.563   7.018 -0.8342  2.2553 -0.1352
  157SAPE   C3417478   5.598   6.613   6.857  0.5491  0.4082 -0.4831
  157SAPE   H4X17479   5.640   6.520   6.813  3.0925  1.3074 -0.0758
  157SAPE   H4Y17480   5.683   6.684   6.857  0.2119  0.8233 -1.4886
  157SAPE   C3517481   5.488   6.676   6.772 -0.0114  0.1432  0.0255
  157SAPE   H5X17482   5.469   6.785   6.785  0.2703 -0.0620  2.7130
  157SAPE   H5Y17483   5.387   6.631   6.786 -0.5259  1.5299  1.0408
  157SAPE   C3617484   5.518   6.655   6.626 -0.8711  0.0591 -0.1700
  157SAPE   H6X17485   5.510   6.546   6.606  0.1681 -0.2246  0.8745
  157SAPE   H6Y17486   5.621   6.691   6.605 -0.4325 -0.8131  0.4222
  157SAPE   C3717487   5.409   6.720   6.531  0.3791 -0.7782  0.5008
  157SAPE   H7X17488   5.400   6.825   6.568  1.1433 -1.1479  1.7971
  157SAPE   H7Y17489   5.312   6.667   6.548 -0.4333 -0.0852 -1.6339
  157SAPE   C3817490   5.459   6.728   6.386  0.0476 -0.1197  0.6993
  157SAPE   H8X17491   5.568   6.745   6.395  0.6048 -2.9146  0.0026
  157SAPE   H8Y17492   5.402   6.808   6.333  0.1475  0.3316  1.2617
  157SAPE   C3917493   5.438   6.592   6.314 -0.2204  0.1635  0.4248
  157SAPE   H9X17494   5.333   6.562   6.334  0.4552 -1.3415  1.9099
  157SAPE   H9Y17495   5.493   6.510   6.364 -1.5741 -0.6447  0.6428
  157SAPE  C31017496   5.467   6.606   6.164 -0.0962  0.4395  0.0422
  157SAPE  H10X17497   5.576   6.629   6.160 -0.1858  0.8239 -0.1821
  157SAPE  H10Y17498   5.425   6.698   6.120  0.2728 -0.8812 -3.3270
  157SAPE  C31117499   5.431   6.494   6.067  0.1373  0.5099  0.0251
  157SAPE  H11X17500   5.456   6.524   5.963 -0.2871 -2.2322 -0.9297
  157SAPE  H11Y17501   5.321   6.479   6.072 -0.1441  1.5609 -1.9166
  157SAPE  C31217502   5.513   6.365   6.103  0.0182  0.0702 -0.1681
  157SAPE  H12X17503   5.512   6.356   6.214 -1.6594  0.5563 -0.1047
  157SAPE  H12Y17504   5.621   6.374   6.083 -0.2044  1.4919 -0.8741
  157SAPE  C31317505   5.445   6.241   6.035 -0.1635 -0.9196 -0.7379
  157SAPE  H13X17506   5.336   6.235   6.056 -0.5218  0.3619 -2.0523
  157SAPE  H13Y17507   5.494   6.153   6.081 -1.3094 -1.5001 -0.6065
  157SAPE  C31417508   5.464   6.259   5.882  0.4348  0.5751 -0.1924
  157SAPE  H14X17509   5.568   6.281   5.852  0.7069 -2.2489 -1.6339
  157SAPE  H14Y17510   5.391   6.337   5.850  0.7106  0.6857 -0.5584
  157SAPE  C31517511   5.407   6.137   5.813 -0.0831 -0.4263  0.1512
  157SAPE  H15X17512   5.394   6.153   5.704  1.9763  0.4223 -0.0239
  157SAPE  H15Y17513   5.308   6.107   5.853  0.1942 -1.2410  0.2538
  157SAPE  C31617514   5.507   6.023   5.828  0.1040  0.3068 -0.2455
  157SAPE  H16X17515   5.525   5.986   5.931  0.8471  1.0448 -0.1029
  157SAPE  H16Y17516   5.603   6.076   5.814  0.5874 -1.1719 -3.4935
  157SAPE  C31717517   5.508   5.913   5.713  0.1674  0.0596 -0.8432
  157SAPE  H17X17518   5.557   5.953   5.622 -2.8648  4.9404 -0.7019
  157SAPE  H17Y17519   5.401   5.887   5.697  0.3629 -1.0668 -0.4391
  157SAPE  C31817520   5.588   5.788   5.766 -0.0506 -0.1748 -0.5069
  157SAPE  H18X17521   5.614   5.732   5.673  4.1423 -0.0758  0.4001
  157SAPE  H18Y17522   5.541   5.722   5.841  0.4931 -0.4224 -0.3816
  157SAPE  H18Z17523   5.683   5.830   5.805  0.4995  1.4149 -3.2382
  158SAPE     N17524   1.594   5.694   7.764  0.7862  0.1034 -0.3896
  158SAPE   HN117525   1.580   5.796   7.778  2.6116  0.1196  1.8144
  158SAPE   HN217526   1.680   5.661   7.811 -0.3784 -0.9264  1.0987
  158SAPE   HN317527   1.594   5.677   7.661  0.3963 -0.5492 -0.2896
  158SAPE   C1217528   1.466   5.631   7.827  0.0069 -0.3506 -0.5699
  158SAPE  H12A17529   1.443   5.678   7.925 -1.8106 -0.6080 -0.8381
  158SAPE  H12B17530   1.468   5.520   7.835  0.4183 -0.2908  0.2636
  158SAPE   C1117531   1.348   5.669   7.739 -0.5353 -0.6028 -0.0752
  158SAPE  H11A17532   1.369   5.642   7.633 -0.4582 -0.3916 -0.1148
  158SAPE  H11B17533   1.342   5.779   7.724  2.3595 -0.4485 -0.7134
  158SAPE     P17534   1.096   5.701   7.816  0.1464  0.4521 -0.2527
  158SAPE   O1317535   1.011   5.623   7.914 -0.4464 -0.4871  0.2788
  158SAPE   O1417536   1.141   5.833   7.865 -0.0034 -0.6183 -0.2416
  158SAPE   O1217537   1.225   5.611   7.780  0.1405 -0.3647  0.2925
  158SAPE   O1117538   1.022   5.721   7.675 -0.1312 -1.0356  0.0880
  158SAPE    C117539   0.986   5.606   7.602 -0.2661 -0.0134 -0.1580
  158SAPE    HA17540   1.062   5.527   7.615  0.8329  1.2655  1.5155
  158SAPE    HB17541   0.886   5.570   7.635  0.7626 -2.5446  0.4595
  158SAPE    C217542   0.984   5.651   7.447  0.5427 -1.1560 -0.4113
  158SAPE    HS17543   0.972   5.565   7.377 -1.0523  1.1960 -3.2674
  158SAPE   O2117544   1.093   5.728   7.413 -0.0210  0.8804 -0.0045
  158SAPE   C2117545   1.210   5.659   7.405  0.1389  0.4528 -0.6031
  158SAPE   O2217546   1.220   5.540   7.427 -0.5809 -0.0440 -0.3828
  158SAPE   C2217547   1.322   5.757   7.363  0.4136  0.4539  0.4492
  158SAPE   H2R17548   1.367   5.793   7.458 -0.5831  1.9492  0.3891
  158SAPE   H2S17549   1.402   5.694   7.319 -1.2813 -3.3154  2.3004
  158SAPE    C317550   0.860   5.732   7.437  0.0983 -0.2870  0.2623
  158SAPE    HX17551   0.859   5.815   7.511 -0.2706 -1.2099  1.3347
  158SAPE    HY17552   0.775   5.672   7.478  0.4413 -1.8248 -1.1853
  158SAPE   O3117553   0.824   5.753   7.302  0.0238  0.3720  0.6481
  158SAPE   C3117554   0.830   5.878   7.251  0.4178 -0.5005  0.3633
  158SAPE   O3217555   0.868   5.975   7.311 -0.3173 -0.7480 -0.4393
  158SAPE   C3217556   0.785   5.872   7.110 -0.1379  0.2407 -0.0802
  158SAPE   H2X17557   0.679   5.845   7.096 -0.3966  0.9313  0.5079
  158SAPE   H2Y17558   0.855   5.798   7.064  0.4872  0.1630  0.9761
  158SAPE   C2317559   1.287   5.862   7.255  0.8866 -0.0326 -0.9744
  158SAPE   H3R17560   1.376   5.926   7.238 -0.3980  1.8416 -0.9299
  158SAPE   H3S17561   1.210   5.929   7.298  1.4596 -0.5838  1.0602
  158SAPE   C2417562   1.224   5.791   7.129 -0.3051 -0.2705 -0.5435
  158SAPE   H4R17563   1.161   5.870   7.082  0.7942  0.1500 -1.3879
  158SAPE   H4S17564   1.158   5.706   7.155 -0.6298 -0.1146 -0.8515
  158SAPE   C2517565   1.315   5.736   7.025  0.3181  0.3558  0.2010
  158SAPE   H5R17566   1.350   5.635   7.050  0.5566  0.7287  1.4520
  158SAPE   C2617567   1.363   5.810   6.924  0.4526  0.3990 -0.8080
  158SAPE   H6R17568   1.450   5.770   6.870  1.7003  0.9353  0.7250
  158SAPE   C2717569   1.345   5.958   6.912  0.0668  0.4432  0.1649
  158SAPE   H7R17570   1.438   6.014   6.935  0.5393 -0.0278 -0.5646
  158SAPE   H7S17571   1.269   5.991   6.985 -0.7280 -2.1096  0.5973
  158SAPE   C2817572   1.283   5.990   6.780 -0.1298 -0.1136  0.2419
  158SAPE   H8R17573   1.179   5.953   6.773 -0.4138  0.8749 -1.0810
  158SAPE   C2917574   1.331   6.055   6.673 -0.0230  0.1719  0.3155
  158SAPE   H9R17575   1.269   6.091   6.589  2.1158 -0.7534 -1.7601
  158SAPE  C21017576   1.475   6.104   6.665  0.1793 -0.5139  0.3661
  158SAPE  H10R17577   1.516   6.051   6.577 -2.2415 -0.4157 -0.9030
  158SAPE  H10S17578   1.540   6.094   6.754  0.9528 -0.4646 -0.1855
  158SAPE  C21117579   1.469   6.247   6.619 -0.1878 -1.0593  0.0215
  158SAPE  H11R17580   1.409   6.321   6.674  1.5714 -0.4776  1.2346
  158SAPE  C21217581   1.533   6.294   6.509 -0.7295 -0.0637  1.0897
  158SAPE  H12R17582   1.522   6.402   6.491  0.1180 -0.0282  0.7342
  158SAPE  C21317583   1.612   6.216   6.399  0.3697  0.0486 -0.3483
  158SAPE  H13R17584   1.674   6.137   6.445 -1.8193 -0.3494  2.1319
  158SAPE  H13S17585   1.672   6.286   6.337 -1.0565  1.3070 -0.3669
  158SAPE  C21417586   1.529   6.130   6.306  0.1942 -0.0559 -0.1964
  158SAPE  H14R17587   1.448   6.076   6.357 -0.2320  0.5226 -0.2613
  158SAPE  C21517588   1.543   6.111   6.175 -0.3903  0.1731 -0.0131
  158SAPE  H15R17589   1.484   6.030   6.130  0.2068  0.3672 -1.1738
  158SAPE  C21617590   1.634   6.171   6.076  0.7860  0.3515  0.3995
  158SAPE  H16R17591   1.740   6.164   6.110  1.1301  1.2506 -0.4291
  158SAPE  H16S17592   1.616   6.279   6.058  2.3241  0.2709 -2.2452
  158SAPE  C21717593   1.626   6.090   5.943 -0.4063  0.1064  0.7106
  158SAPE  H17R17594   1.519   6.076   5.916 -0.4685  1.0098  0.4362
  158SAPE  H17S17595   1.666   5.987   5.955 -2.1231 -0.5131  1.3305
  158SAPE  C21817596   1.708   6.157   5.833 -0.4388 -0.5901  0.1910
  158SAPE  H18R17597   1.817   6.140   5.848 -0.1211  2.0274  1.4315
  158SAPE  H18S17598   1.695   6.267   5.844  0.9992 -0.4619  0.8132
  158SAPE  C21917599   1.685   6.110   5.690  0.2358 -0.4787 -0.3356
  158SAPE  H19R17600   1.574   6.117   5.679 -0.1908  1.0845  3.3660
  158SAPE  H19S17601   1.704   6.001   5.687 -0.2567 -0.5972  0.4050
  158SAPE  C22017602   1.761   6.191   5.583  0.6637  0.6092 -0.3616
  158SAPE  H20R17603   1.729   6.148   5.485 -0.7150 -0.4181  0.4848
  158SAPE  H20S17604   1.871   6.184   5.596  0.5476 -0.4497  0.1792
  158SAPE  H20T17605   1.727   6.297   5.580 -0.6400  0.2009 -1.3582
  158SAPE   C3317606   0.812   6.003   7.034  0.2066 -0.1042  0.4039
  158SAPE   H3X17607   0.922   6.021   7.035  0.5572 -2.0516  1.2637
  158SAPE   H3Y17608   0.753   6.092   7.064 -2.4070 -1.8877  0.8754
  158SAPE   C3417609   0.792   5.981   6.883  0.4481  0.2591  0.0580
  158SAPE   H4X17610   0.684   5.998   6.864 -0.1241 -3.0449 -0.2182
  158SAPE   H4Y17611   0.803   5.874   6.858 -0.5764  0.5737 -1.9668
  158SAPE   C3517612   0.883   6.054   6.783 -0.2330 -0.8011 -0.4831
  158SAPE   H5X17613   0.984   6.013   6.800  0.6177  0.6426 -1.7241
  158SAPE   H5Y17614   0.882   6.165   6.791  0.5190 -0.8457  0.2427
  158SAPE   C3617615   0.860   6.039   6.637  0.0428  0.1597 -0.1448
  158SAPE   H6X17616   0.768   6.093   6.606  1.4579  3.0329  0.3466
  158SAPE   H6Y17617   0.836   5.933   6.614  2.4822 -0.3514 -0.5381
  158SAPE   C3717618   0.961   6.111   6.551 -0.8903  0.9246 -0.5191
  158SAPE   H7X17619   1.054   6.054   6.573 -1.6849 -0.1909  0.0240
  158SAPE   H7Y17620   0.990   6.218   6.562  0.6327  0.7592 -2.3457
  158SAPE   C3817621   0.926   6.111   6.400 -0.3749  0.7334  0.4093
  158SAPE   H8X17622   0.837   6.174   6.380  0.5743  1.4977 -1.7712
  158SAPE   H8Y17623   0.893   6.006   6.384 -1.2289  0.4768  3.2951
  158SAPE   C3917624   1.046   6.142   6.311  0.7600 -0.1676 -0.8373
  158SAPE   H9X17625   1.131   6.071   6.324 -1.3808 -2.6929  0.4582
  158SAPE   H9Y17626   1.087   6.236   6.355  1.5014 -1.0487  0.4180
  158SAPE  C31017627   1.013   6.143   6.162  0.0176  0.0698  0.2258
  158SAPE  H10X17628   0.923   6.205   6.139  0.8467  1.3398  0.2963
  158SAPE  H10Y17629   0.999   6.038   6.129  0.5608  0.2917 -0.7260
  158SAPE  C31117630   1.130   6.207   6.086 -0.6319  0.7654 -0.3431
  158SAPE  H11X17631   1.227   6.167   6.124 -1.9802 -4.9169 -2.0041
  158SAPE  H11Y17632   1.144   6.314   6.112 -2.5753  0.6660  1.3962
  158SAPE  C31217633   1.129   6.186   5.933  0.4126  0.2842  0.0764
  158SAPE  H12X17634   1.027   6.205   5.894  0.5546 -1.5385 -1.3646
  158SAPE  H12Y17635   1.162   6.080   5.922  2.7756  1.0382 -0.8258
  158SAPE  C31317636   1.213   6.283   5.856 -0.1001 -0.3927 -0.3905
  158SAPE  H13X17637   1.320   6.270   5.885  0.0918 -1.0241 -1.3286
  158SAPE  H13Y17638   1.171   6.379   5.893  2.1595 -0.5320  3.0508
  158SAPE  C31417639   1.200   6.268   5.705  0.3838  0.0489 -0.1531
  158SAPE  H14X17640   1.091   6.278   5.683  0.4407 -2.0515 -1.7123
  158SAPE  H14Y17641   1.241   6.171   5.670  1.1440 -0.0314  0.9107
  158SAPE  C31517642   1.282   6.373   5.631 -0.1335  0.3597  0.2532
  158SAPE  H15X17643   1.383   6.376   5.675  0.4539 -2.0659 -0.7692
  158SAPE  H15Y17644   1.217   6.463   5.645  0.5765  1.2128 -1.5391
  158SAPE  C31617645   1.307   6.355   5.480 -0.5159  0.1212 -0.3248
  158SAPE  H16X17646   1.211   6.340   5.427 -0.7680  0.3272  0.0677
  158SAPE  H16Y17647   1.363   6.259   5.471  1.6855  1.3783 -0.5182
  158SAPE  C31717648   1.384   6.473   5.414 -0.1871 -0.5581  1.3407
  158SAPE  H17X17649   1.343   6.571   5.447  0.2358 -0.4222  1.4671
  158SAPE  H17Y17650   1.383   6.455   5.305  2.4234 -0.6573  1.2740
  158SAPE  C31817651   1.531   6.474   5.455  0.0176  0.2180 -0.3598
  158SAPE  H18X17652   1.585   6.553   5.398 -0.4012  0.2605 -0.6994
  158SAPE  H18Y17653   1.578   6.374   5.442  2.3574  1.2407 -0.3219
  158SAPE  H18Z17654   1.535   6.494   5.564  1.6415  0.9846 -0.5287
  159SAPE     N17655   6.599   1.774   3.673  0.2879  0.1474  0.2954
  159SAPE   HN117656   6.507   1.817   3.693  0.8462  0.9792  1.1695
  159SAPE   HN217657   6.617   1.709   3.752 -2.4124 -0.0636  0.8129
  159SAPE   HN317658   6.674   1.846   3.669  0.2403  0.4233  2.7555
  159SAPE   C1217659   6.600   1.698   3.549 -0.6004  0.9381  0.2350
  159SAPE  H12A17660   6.553   1.758   3.469 -4.8260 -0.2342  1.6154
  159SAPE  H12B17661   6.535   1.608   3.548  1.6786 -0.8450 -1.8099
  159SAPE   C1117662   6.743   1.662   3.507 -0.0764 -0.1530 -0.5171
  159SAPE  H11A17663   6.746   1.601   3.415 -1.8009 -0.2950 -0.5076
  159SAPE  H11B17664   6.783   1.597   3.588 -0.6585  1.0684  0.7890
  159SAPE     P17665   6.968   1.770   3.406  0.3225  0.2070 -0.0163
  159SAPE   O1317666   6.989   1.642   3.329  0.4611 -0.3164 -0.2596
  159SAPE   O1417667   6.989   1.901   3.341  0.8289  0.1492 -0.2696
  159SAPE   O1217668   6.823   1.780   3.481 -0.1912 -0.1170  0.3291
  159SAPE   O1117669   7.072   1.770   3.533 -0.3749 -0.2141  0.2434
  159SAPE    C117670   7.040   1.791   3.667  0.5290 -0.1793 -0.1708
  159SAPE    HA17671   6.930   1.794   3.687  0.8239  0.2260  1.5656
  159SAPE    HB17672   7.078   1.706   3.726 -0.1340  0.7592  1.6874
  159SAPE    C217673   7.108   1.919   3.720 -0.0435  0.4335  0.1696
  159SAPE    HS17674   7.214   1.922   3.687 -0.0790 -2.2915 -0.4508
  159SAPE   O2117675   7.095   1.913   3.864  0.3140  0.1252  0.8175
  159SAPE   C2117676   7.199   1.967   3.923 -0.4802 -0.0137  0.5711
  159SAPE   O2217677   7.292   2.020   3.862  0.0754 -1.0395 -0.2100
  159SAPE   C2217678   7.169   1.974   4.069 -0.2981 -0.3852 -0.7404
  159SAPE   H2R17679   7.098   2.058   4.082  0.1583 -0.0205 -0.5882
  159SAPE   H2S17680   7.116   1.882   4.102 -0.8632  0.5116  1.0012
  159SAPE    C317681   7.016   2.036   3.659 -0.2007 -0.1118 -0.6026
  159SAPE    HX17682   6.946   2.011   3.576 -0.4163 -0.5374 -0.2946
  159SAPE    HY17683   7.095   2.095   3.606 -0.8892  1.5806  0.1978
  159SAPE   O3117684   6.963   2.116   3.765  0.3056  0.1712  0.7572
  159SAPE   C3117685   6.834   2.074   3.805 -0.9115 -0.6647 -0.6096
  159SAPE   O3217686   6.779   1.975   3.767  0.2689 -0.1858  0.0498
  159SAPE   C3217687   6.780   2.168   3.915  1.0782  0.6519  0.5979
  159SAPE   H2X17688   6.677   2.131   3.933  1.5278 -0.5348  0.8008
  159SAPE   H2Y17689   6.776   2.269   3.869 -1.1491 -0.1060 -1.0306
  159SAPE   C2317690   7.294   1.996   4.160  0.4240  0.5294  0.2043
  159SAPE   H3R17691   7.333   2.100   4.156  0.0981  0.6322 -0.5863
  159SAPE   H3S17692   7.377   1.927   4.133  0.7655  0.8492  0.4374
  159SAPE   C2417693   7.263   1.966   4.309 -0.2370  0.4643  0.1311
  159SAPE   H4R17694   7.171   2.024   4.333 -1.7618 -1.9599  0.4587
  159SAPE   H4S17695   7.343   2.024   4.361  1.2282  0.7680 -2.3316
  159SAPE   C2517696   7.235   1.824   4.358  0.3203  0.5628 -0.2016
  159SAPE   H5R17697   7.307   1.745   4.330  1.3513  1.2615  0.4317
  159SAPE   C2617698   7.122   1.785   4.417  0.2058 -0.1133 -0.2804
  159SAPE   H6R17699   7.125   1.683   4.459 -0.3645  0.4926  1.3334
  159SAPE   C2717700   6.997   1.858   4.462  0.3937  0.0879  0.3455
  159SAPE   H7R17701   6.936   1.892   4.375  2.8109  0.1573 -1.4066
  159SAPE   H7S17702   7.021   1.953   4.514  2.4164 -1.3814  2.2806
  159SAPE   C2817703   6.914   1.768   4.556  0.0612 -0.0095 -0.1607
  159SAPE   H8R17704   6.872   1.675   4.516 -1.4254  0.5799 -0.0060
  159SAPE   C2917705   6.872   1.809   4.679 -0.0793  0.1548  0.1486
  159SAPE   H9R17706   6.821   1.732   4.739  0.8518  1.0705  2.2384
  159SAPE  C21017707   6.900   1.931   4.760  0.1349 -1.3143 -0.5686
  159SAPE  H10R17708   6.941   2.014   4.698 -1.8172  1.2533  1.3663
  159SAPE  H10S17709   6.984   1.907   4.828 -0.6390 -2.8464 -0.1076
  159SAPE  C21117710   6.790   1.997   4.836  0.1623 -0.4550 -0.1547
  159SAPE  H11R17711   6.788   2.106   4.819  0.2090 -0.8609 -3.3382
  159SAPE  C21217712   6.700   1.941   4.927 -0.3131  1.0923  0.2868
  159SAPE  H12R17713   6.618   1.998   4.973 -1.5985  0.5198 -1.2029
  159SAPE  C21317714   6.700   1.796   4.976 -0.6856  0.3089 -0.2923
  159SAPE  H13R17715   6.808   1.775   4.962 -0.4495  1.8472 -0.9975
  159SAPE  H13S17716   6.650   1.725   4.906  0.7691  2.0221 -3.2810
  159SAPE  C21417717   6.671   1.765   5.116 -0.0631 -0.2925 -0.6864
  159SAPE  H14R17718   6.732   1.815   5.192 -1.1058  1.4085 -0.9191
  159SAPE  C21517719   6.572   1.683   5.155  0.2901 -0.4865 -0.3202
  159SAPE  H15R17720   6.559   1.654   5.261  0.3373 -0.1448 -0.2221
  159SAPE  C21617721   6.463   1.613   5.075 -0.7254 -0.1612  0.0336
  159SAPE  H16R17722   6.480   1.503   5.080 -2.0355 -0.5216 -2.2240
  159SAPE  H16S17723   6.468   1.633   4.966  0.5345  1.8941  0.4084
  159SAPE  C21717724   6.328   1.646   5.139  0.4453 -0.0673 -0.1917
  159SAPE  H17R17725   6.323   1.757   5.152 -1.0537 -0.3822  2.8529
  159SAPE  H17S17726   6.320   1.601   5.240 -1.5333  1.6435  0.4978
  159SAPE  C21817727   6.206   1.594   5.052 -0.5181  0.0797  0.3232
  159SAPE  H18R17728   6.224   1.494   5.007  0.8639  1.7253 -3.1374
  159SAPE  H18S17729   6.199   1.662   4.964  0.5400  1.6359  1.4008
  159SAPE  C21917730   6.071   1.589   5.119 -0.4123  0.3839  0.8002
  159SAPE  H19R17731   6.058   1.691   5.163  1.0146  0.7901  0.3397
  159SAPE  H19S17732   6.086   1.513   5.198 -2.0733 -0.3439  0.4616
  159SAPE  C22017733   5.962   1.562   5.011 -0.0013  0.6225  0.5547
  159SAPE  H20R17734   5.946   1.660   4.961  0.7961 -0.7021 -2.6191
  159SAPE  H20S17735   5.871   1.530   5.066 -0.9085 -0.4489 -1.4550
  159SAPE  H20T17736   5.987   1.477   4.943  0.5958  0.5893  0.8077
  159SAPE   C3317737   6.858   2.173   4.053 -0.4005 -0.6115  0.1739
  159SAPE   H3X17738   6.957   2.221   4.039  0.2382 -1.7224  0.6988
  159SAPE   H3Y17739   6.879   2.067   4.080  0.8752 -1.0833 -2.3604
  159SAPE   C3417740   6.760   2.242   4.153 -0.7137  0.1780 -0.0425
  159SAPE   H4X17741   6.661   2.192   4.149  1.0332 -3.7490  1.2627
  159SAPE   H4Y17742   6.739   2.349   4.129 -0.9231  0.0543 -0.4235
  159SAPE   C3517743   6.816   2.226   4.287  0.0802 -0.3917 -1.0209
  159SAPE   H5X17744   6.857   2.327   4.310  2.4736 -1.3145 -0.9816
  159SAPE   H5Y17745   6.893   2.146   4.294  0.4284 -0.0879 -1.3322
  159SAPE   C3617746   6.713   2.186   4.398  0.6121  0.2656 -0.0893
  159SAPE   H6X17747   6.770   2.148   4.485  0.2732 -1.0194 -0.4180
  159SAPE   H6Y17748   6.667   2.092   4.361  2.7022 -1.8705  2.3431
  159SAPE   C3717749   6.614   2.301   4.439 -0.9230  0.0249 -1.2955
  159SAPE   H7X17750   6.556   2.337   4.351 -0.7058  0.0318 -1.4355
  159SAPE   H7Y17751   6.690   2.379   4.460 -0.1834 -0.7349 -1.0890
  159SAPE   C3817752   6.519   2.272   4.553  1.1009  0.1957 -0.0041
  159SAPE   H8X17753   6.578   2.232   4.638  2.8731  0.7097 -0.9349
  159SAPE   H8Y17754   6.443   2.198   4.522  2.1416 -0.3057 -1.4802
  159SAPE   C3917755   6.443   2.397   4.599 -0.1410  0.4839 -0.3802
  159SAPE   H9X17756   6.389   2.446   4.515 -0.2876  1.7174  0.4007
  159SAPE   H9Y17757   6.520   2.470   4.632  0.3083  0.5376 -1.5296
  159SAPE  C31017758   6.342   2.368   4.706  0.5989  0.1199 -0.6257
  159SAPE  H10X17759   6.382   2.302   4.787  1.7746  1.2049 -0.2954
  159SAPE  H10Y17760   6.265   2.315   4.646  0.9996 -0.1573 -0.9031
  159SAPE  C31117761   6.278   2.492   4.772 -0.2158  0.0119  0.7298
  159SAPE  H11X17762   6.242   2.559   4.691  1.1792 -1.6523 -1.4158
  159SAPE  H11Y17763   6.364   2.544   4.819  2.6172 -0.2729 -3.5573
  159SAPE  C31217764   6.172   2.457   4.877 -0.6734 -0.7795 -0.0630
  159SAPE  H12X17765   6.219   2.388   4.951  2.9608  1.9891  0.5537
  159SAPE  H12Y17766   6.091   2.410   4.818 -0.6065  0.0663 -0.8571
  159SAPE  C31317767   6.131   2.593   4.950  0.2969 -0.1525 -0.0248
  159SAPE  H13X17768   6.117   2.677   4.879  0.0367  0.4037  0.6789
  159SAPE  H13Y17769   6.222   2.624   5.005  1.0747 -1.3101 -0.6228
  159SAPE  C31417770   6.014   2.583   5.044  0.1344  0.6428  0.0227
  159SAPE  H14X17771   6.016   2.673   5.109 -0.9192  0.9865 -0.4109
  159SAPE  H14Y17772   6.026   2.509   5.126  0.5451 -0.6697 -1.1924
  159SAPE  C31517773   5.872   2.585   4.976  0.3705 -0.6125 -0.5086
  159SAPE  H15X17774   5.854   2.490   4.921 -1.0932 -0.4525 -0.3476
  159SAPE  H15Y17775   5.880   2.656   4.892 -0.5722 -1.3829 -1.2751
  159SAPE  C31617776   5.760   2.617   5.077  0.6943 -0.2739  0.8530
  159SAPE  H16X17777   5.669   2.635   5.016 -0.5180  0.2222  2.7353
  159SAPE  H16Y17778   5.793   2.711   5.125 -1.5090  1.4234 -0.7414
  159SAPE  C31717779   5.720   2.514   5.186 -0.3081 -0.1712 -0.2443
  159SAPE  H17X17780   5.644   2.575   5.238  1.4112  1.2730  0.6637
  159SAPE  H17Y17781   5.805   2.492   5.254 -1.2978 -2.2612  0.3889
  159SAPE  C31817782   5.664   2.386   5.125 -0.6435  0.0968  0.8132
  159SAPE  H18X17783   5.740   2.323   5.073 -1.0715 -0.4131  0.8006
  159SAPE  H18Y17784   5.586   2.404   5.048  0.4813 -2.3264 -1.0196
  159SAPE  H18Z17785   5.629   2.320   5.207 -1.1147  0.1081  0.6203
  160SAPE     N17786   5.703   1.323   3.502 -0.0944  0.8899  0.5382
  160SAPE   HN117787   5.656   1.237   3.537 -1.5481  0.9942 -1.0258
  160SAPE   HN217788   5.750   1.292   3.415 -1.0515  1.0780 -0.0647
  160SAPE   HN317789   5.772   1.363   3.570 -0.5887  0.2687  1.4268
  160SAPE   C1217790   5.599   1.420   3.458 -0.0983  0.1123 -0.6355
  160SAPE  H12A17791   5.500   1.377   3.486  1.0327  0.0836  4.0705
  160SAPE  H12B17792   5.618   1.444   3.351  3.5806 -0.9978 -0.3687
  160SAPE   C1117793   5.613   1.557   3.532  0.4782  0.1043  0.0773
  160SAPE  H11A17794   5.519   1.607   3.503  0.2102 -0.4117  0.0397
  160SAPE  H11B17795   5.697   1.615   3.489  1.0911 -0.6042  0.2954
  160SAPE     P17796   5.527   1.585   3.785 -0.0114 -0.1210 -0.0608
  160SAPE   O1317797   5.513   1.734   3.775 -0.2737 -0.2246  0.5174
  160SAPE   O1417798   5.397   1.512   3.778 -0.0953 -0.1814  0.2069
  160SAPE   O1217799   5.632   1.532   3.673 -0.0932 -0.5212  0.1888
  160SAPE   O1117800   5.604   1.547   3.923  0.5298 -0.5947 -0.0623
  160SAPE    C117801   5.616   1.409   3.955 -0.1754  0.5096  0.3287
  160SAPE    HA17802   5.651   1.352   3.866 -0.3754 -1.2765  1.3506
  160SAPE    HB17803   5.702   1.402   4.026  2.8518 -1.7883 -3.1555
  160SAPE    C217804   5.504   1.342   4.042  0.7910  0.8481  0.2924
  160SAPE    HS17805   5.416   1.328   3.976  0.8683  0.9235  0.1719
  160SAPE   O2117806   5.482   1.421   4.164 -0.5336 -0.0700  0.0142
  160SAPE   C2117807   5.399   1.521   4.143  0.0004 -0.0327  0.0294
  160SAPE   O2217808   5.313   1.527   4.064  0.1618 -0.1193  0.4666
  160SAPE   C2217809   5.425   1.633   4.243  0.1986  0.6925 -0.3390
  160SAPE   H2R17810   5.533   1.660   4.237  0.1533  0.9281 -0.1131
  160SAPE   H2S17811   5.379   1.724   4.197 -1.3755  0.5799  0.9623
  160SAPE    C317812   5.547   1.195   4.086  0.6584 -1.1821  0.1632
  160SAPE    HX17813   5.629   1.200   4.162  0.3005 -0.3235  0.5002
  160SAPE    HY17814   5.597   1.149   3.998 -0.3775  0.6717 -1.4571
  160SAPE   O3117815   5.434   1.119   4.140 -0.2262  0.4539  0.5726
  160SAPE   C3117816   5.461   0.988   4.157 -0.2432 -0.5490 -0.0839
  160SAPE   O3217817   5.569   0.936   4.146 -0.2120 -0.8549  0.0056
  160SAPE   C3217818   5.335   0.920   4.215 -0.3424  0.4567  0.8843
  160SAPE   H2X17819   5.265   0.934   4.131  1.0435 -0.8376 -0.5603
  160SAPE   H2Y17820   5.301   0.972   4.307 -1.4223  1.3430  0.0168
  160SAPE   C2317821   5.391   1.607   4.390  0.0036 -0.3608  0.7001
  160SAPE   H3R17822   5.430   1.694   4.447 -1.6198  2.2198 -1.8120
  160SAPE   H3S17823   5.458   1.529   4.431 -0.6964 -1.1685  0.3395
  160SAPE   C2417824   5.239   1.579   4.412  0.2457 -0.4973 -0.2541
  160SAPE   H4R17825   5.209   1.546   4.514 -0.8181  0.3746 -0.2596
  160SAPE   H4S17826   5.205   1.501   4.340  0.3596 -1.8243  1.0822
  160SAPE   C2517827   5.176   1.706   4.366  0.0822  0.0415 -0.1917
  160SAPE   H5R17828   5.155   1.703   4.258  2.2482  0.9743 -0.6805
  160SAPE   C2617829   5.118   1.802   4.444  0.6782  0.2814  0.4336
  160SAPE   H6R17830   5.085   1.885   4.379 -0.2704 -1.6481 -1.6832
  160SAPE   C2717831   5.094   1.793   4.592  0.0652 -0.2492 -0.1269
  160SAPE   H7R17832   5.092   1.893   4.640 -3.9956 -0.4783  0.5566
  160SAPE   H7S17833   5.190   1.756   4.633  1.1341  0.8774 -1.5146
  160SAPE   C2817834   4.964   1.736   4.638  0.7989  0.5942 -0.2329
  160SAPE   H8R17835   4.931   1.651   4.577  0.7463 -0.4894  1.2628
  160SAPE   C2917836   4.906   1.764   4.754 -0.9553  0.3139  0.0364
  160SAPE   H9R17837   4.810   1.716   4.774  0.8480 -3.2449  0.8650
  160SAPE  C21017838   4.934   1.872   4.845 -0.0685 -0.0542 -0.4727
  160SAPE  H10R17839   4.878   1.960   4.805  0.1603  0.8287  1.0796
  160SAPE  H10S17840   5.038   1.909   4.840 -1.2360  3.5483 -1.2048
  160SAPE  C21117841   4.891   1.844   4.989  0.4915  0.0314  0.0426
  160SAPE  H11R17842   4.934   1.752   5.031  1.5298  0.4705 -0.0309
  160SAPE  C21217843   4.795   1.908   5.061  0.2031 -0.3344 -0.0158
  160SAPE  H12R17844   4.761   1.865   5.157 -0.4720  0.2929  0.0460
  160SAPE  C21317845   4.724   2.034   5.020 -0.1521 -0.2496 -0.2897
  160SAPE  H13R17846   4.793   2.109   4.975 -1.1901  1.3513  0.7084
  160SAPE  H13S17847   4.686   2.084   5.111  2.3076  0.0484  0.6428
  160SAPE  C21417848   4.602   2.011   4.932  0.4390  0.5785 -0.2641
  160SAPE  H14R17849   4.622   1.970   4.832 -1.1358 -1.7279  0.2756
  160SAPE  C21517850   4.473   2.034   4.964  1.1727 -0.4908  0.4142
  160SAPE  H15R17851   4.393   2.014   4.891  0.3958  1.5615  0.6266
  160SAPE  C21617852   4.425   2.105   5.091 -0.1537 -0.9165 -0.1239
  160SAPE  H16R17853   4.366   2.194   5.062  2.3210  1.0557  0.6043
  160SAPE  H16S17854   4.505   2.141   5.159 -0.6805 -0.6625  0.3676
  160SAPE  C21717855   4.326   2.010   5.160 -0.2721  0.3002  0.2756
  160SAPE  H17R17856   4.245   1.971   5.094  0.0515 -0.6664  0.4380
  160SAPE  H17S17857   4.272   2.067   5.239  2.7315  2.2796  1.0783
  160SAPE  C21817858   4.390   1.886   5.232 -0.4143  0.9205  0.6306
  160SAPE  H18R17859   4.438   1.827   5.151 -0.1393  1.6769  0.2306
  160SAPE  H18S17860   4.312   1.825   5.281  0.4858 -1.6296 -0.9363
  160SAPE  C21917861   4.492   1.924   5.338  0.2609 -0.5162  0.8209
  160SAPE  H19R17862   4.442   2.000   5.401 -1.9244 -0.7005 -0.5891
  160SAPE  H19S17863   4.563   1.989   5.281 -0.1034  0.0681  1.0226
  160SAPE  C22017864   4.561   1.820   5.422 -0.3656  0.9876 -0.1578
  160SAPE  H20R17865   4.609   1.752   5.348  1.9203  1.6738  0.6046
  160SAPE  H20S17866   4.487   1.773   5.491  1.0249  0.0065  0.7148
  160SAPE  H20T17867   4.648   1.871   5.468 -0.2509  1.9856 -1.4238
  160SAPE   C3317868   5.343   0.765   4.230 -0.5114  0.4371 -0.0575
  160SAPE   H3X17869   5.389   0.726   4.136  2.5846  1.0556  1.0854
  160SAPE   H3Y17870   5.239   0.734   4.254 -0.2851  2.1226  3.7265
  160SAPE   C3417871   5.437   0.707   4.341 -0.5226 -0.0238 -0.4163
  160SAPE   H4X17872   5.544   0.724   4.318 -0.4728 -0.4992 -0.5481
  160SAPE   H4Y17873   5.412   0.601   4.359 -3.1402  0.4680 -0.6226
  160SAPE   C3517874   5.405   0.764   4.482 -0.1454  0.1197 -0.6681
  160SAPE   H5X17875   5.304   0.735   4.515  0.5687  0.7600  2.4529
  160SAPE   H5Y17876   5.399   0.875   4.483 -1.4839  0.0521 -0.3163
  160SAPE   C3617877   5.514   0.722   4.588 -0.3635  0.2402  0.3580
  160SAPE   H6X17878   5.615   0.733   4.543 -0.8665  2.0672 -0.4196
  160SAPE   H6Y17879   5.508   0.617   4.626  1.2030  0.4250  1.2007
  160SAPE   C3717880   5.510   0.813   4.716 -0.0238  0.3471  0.1474
  160SAPE   H7X17881   5.405   0.803   4.750  0.1381 -1.3539  0.2338
  160SAPE   H7Y17882   5.537   0.920   4.706 -1.3875  0.7708  0.8119
  160SAPE   C3817883   5.593   0.756   4.831 -0.9755  0.0133  0.4824
  160SAPE   H8X17884   5.702   0.773   4.812 -0.8243  0.4399  1.6413
  160SAPE   H8Y17885   5.593   0.647   4.851  3.1995 -0.1057  0.7543
  160SAPE   C3917886   5.569   0.838   4.954  0.3062 -0.1660 -0.1497
  160SAPE   H9X17887   5.462   0.846   4.982  1.2351  1.9435  3.5051
  160SAPE   H9Y17888   5.596   0.945   4.949  0.3425 -0.2297 -1.5417
  160SAPE  C31017889   5.653   0.787   5.079 -0.3314  1.0097  0.1262
  160SAPE  H10X17890   5.760   0.819   5.081  0.2929 -0.8164  3.3132
  160SAPE  H10Y17891   5.638   0.678   5.090 -1.6720  0.8965 -2.2109
  160SAPE  C31117892   5.607   0.850   5.214 -0.1642  0.4000  0.2977
  160SAPE  H11X17893   5.509   0.806   5.242 -0.4769  1.4368  0.9233
  160SAPE  H11Y17894   5.588   0.956   5.188 -0.3059  0.1220 -0.7583
  160SAPE  C31217895   5.707   0.841   5.328 -0.3033  0.5367 -0.2144
  160SAPE  H12X17896   5.806   0.874   5.290  0.0530 -2.0944 -1.7924
  160SAPE  H12Y17897   5.727   0.738   5.363 -0.3348  1.0150  1.2772
  160SAPE  C31317898   5.665   0.917   5.453 -0.1950 -0.1132 -0.0312
  160SAPE  H13X17899   5.667   1.025   5.430 -0.0110  0.1023  0.9330
  160SAPE  H13Y17900   5.744   0.898   5.529 -0.1229 -1.9024 -0.4977
  160SAPE  C31417901   5.525   0.880   5.505 -0.0505 -0.0532 -0.2355
  160SAPE  H14X17902   5.520   0.779   5.551  0.3664  0.0221 -0.0168
  160SAPE  H14Y17903   5.459   0.878   5.416  2.7771 -0.6094 -2.4441
  160SAPE  C31517904   5.476   0.975   5.607  0.1089 -0.1000  0.5776
  160SAPE  H15X17905   5.371   0.947   5.630 -0.3078 -0.0043 -1.0911
  160SAPE  H15Y17906   5.474   1.080   5.571 -0.2574 -0.3697 -0.2055
  160SAPE  C31617907   5.554   0.967   5.735 -0.4090  0.4332  0.6552
  160SAPE  H16X17908   5.662   0.989   5.720 -0.6569 -0.1677 -2.9756
  160SAPE  H16Y17909   5.561   0.862   5.772  2.3863  0.6319  0.9126
  160SAPE  C31717910   5.499   1.064   5.839  0.3547 -0.1747 -0.5668
  160SAPE  H17X17911   5.396   1.037   5.871 -0.1323  0.3068 -1.6657
  160SAPE  H17Y17912   5.490   1.167   5.799  0.2373 -0.0923 -0.3308
  160SAPE  C31817913   5.583   1.070   5.965 -0.3527  0.4647  0.1990
  160SAPE  H18X17914   5.599   0.966   5.999  2.2561  0.5327 -0.5939
  160SAPE  H18Y17915   5.540   1.141   6.039  0.0210 -0.6586  1.5226
  160SAPE  H18Z17916   5.686   1.098   5.935  0.1435 -0.7824  0.6727
  161SAPE     N17917   6.390   1.282   3.501 -0.3516  0.9731  0.4380
  161SAPE   HN117918   6.343   1.193   3.525  2.4463 -1.0507 -0.9193
  161SAPE   HN217919   6.357   1.309   3.406 -0.1472  2.9737  0.8937
  161SAPE   HN317920   6.493   1.265   3.504 -0.7502 -2.5359 -1.2945
  161SAPE   C1217921   6.341   1.376   3.608 -0.6120 -0.2858 -0.4069
  161SAPE  H12A17922   6.283   1.457   3.559 -1.6925 -0.0252  1.2516
  161SAPE  H12B17923   6.432   1.414   3.661  1.8685 -4.4379 -1.2691
  161SAPE   C1117924   6.256   1.304   3.715  0.1746  0.8127  0.2531
  161SAPE  H11A17925   6.255   1.367   3.806  1.4206  0.8498  0.2627
  161SAPE  H11B17926   6.307   1.209   3.744 -0.2595  0.5653  0.2196
  161SAPE     P17927   5.997   1.282   3.752 -0.1267  0.1478  0.3007
  161SAPE   O1317928   5.902   1.360   3.678 -0.1614 -0.2929  0.1135
  161SAPE   O1417929   5.954   1.148   3.792  0.4415 -0.1527 -0.3344
  161SAPE   O1217930   6.129   1.274   3.657  0.2918  0.2769  0.1964
  161SAPE   O1117931   6.045   1.366   3.875 -0.1101  0.3209 -0.1945
  161SAPE    C117932   5.980   1.372   3.999  0.3419  0.9563 -0.4004
  161SAPE    HA17933   5.945   1.475   4.024 -0.6459  0.7544 -0.9104
  161SAPE    HB17934   5.887   1.312   4.004 -0.4560  2.2669  1.5421
  161SAPE    C217935   6.086   1.326   4.099  0.3115 -0.1072  0.1004
  161SAPE    HS17936   6.176   1.374   4.056 -0.1980 -0.3936 -1.3362
  161SAPE   O2117937   6.093   1.181   4.105  0.3493  0.3715 -0.7025
  161SAPE   C2117938   6.216   1.145   4.139  0.8234  0.3928 -0.2320
  161SAPE   O2217939   6.306   1.224   4.151 -0.0074 -0.3140  0.3107
  161SAPE   C2217940   6.221   0.986   4.172  0.6752 -0.2848  0.2016
  161SAPE   H2R17941   6.133   0.958   4.233  1.0320  0.1365  0.9301
  161SAPE   H2S17942   6.215   0.933   4.075 -0.1203 -0.8018  0.5291
  161SAPE    C317943   6.077   1.396   4.240 -0.0402  0.2873  0.3386
  161SAPE    HX17944   6.103   1.504   4.230  2.1404 -0.1947  0.2439
  161SAPE    HY17945   6.159   1.358   4.305  0.1242 -0.6367 -0.4082
  161SAPE   O3117946   5.943   1.401   4.292  0.0858  0.2468  0.4219
  161SAPE   C3117947   5.903   1.282   4.336  0.4387 -0.0346  0.3996
  161SAPE   O3217948   5.969   1.181   4.329 -0.6880 -0.3656 -0.2502
  161SAPE   C3217949   5.765   1.282   4.398 -0.0625 -0.0871 -0.6217
  161SAPE   H2X17950   5.692   1.315   4.321 -1.9695  0.2724  1.2354
  161SAPE   H2Y17951   5.756   1.353   4.483 -1.4668 -2.8366  1.7032
  161SAPE   C2317952   6.351   0.929   4.246 -0.2558  0.5242 -0.2694
  161SAPE   H3R17953   6.442   0.948   4.186 -0.1895  0.3668 -0.2184
  161SAPE   H3S17954   6.339   0.820   4.261 -0.3684  0.3969 -1.1855
  161SAPE   C2417955   6.363   0.988   4.388 -0.0641 -0.0496 -0.5706
  161SAPE   H4R17956   6.420   1.084   4.382  1.9368 -1.0340  1.1710
  161SAPE   H4S17957   6.438   0.922   4.437  0.0227 -0.2187 -0.9334
  161SAPE   C2517958   6.244   0.994   4.479 -0.3603  0.2994 -0.4151
  161SAPE   H5R17959   6.171   1.064   4.437 -0.8682 -0.9755 -1.7329
  161SAPE   C2617960   6.217   0.930   4.592 -0.1342 -0.1263  0.3684
  161SAPE   H6R17961   6.130   0.968   4.648 -0.0293 -0.9171  1.0817
  161SAPE   C2717962   6.308   0.837   4.664  0.3584  0.3124 -0.2467
  161SAPE   H7R17963   6.380   0.794   4.591  1.3240  2.9240 -0.9129
  161SAPE   H7S17964   6.240   0.762   4.710  1.0889 -0.4322 -0.3659
  161SAPE   C2817965   6.385   0.907   4.767 -0.9449 -0.0998 -0.0123
  161SAPE   H8R17966   6.478   0.951   4.728 -0.9915 -1.1962 -1.4290
  161SAPE   C2917967   6.356   0.924   4.894 -0.1449 -0.6186  0.1682
  161SAPE   H9R17968   6.425   0.988   4.952 -1.0247  0.0758  0.4607
  161SAPE  C21017969   6.227   0.881   4.969 -0.5969  0.3246 -0.1351
  161SAPE  H10R17970   6.183   0.785   4.934 -0.6695  1.0267 -2.1353
  161SAPE  H10S17971   6.157   0.959   4.933  0.0048  0.0162 -2.1122
  161SAPE  C21117972   6.246   0.878   5.121  0.2391 -0.0843 -0.4332
  161SAPE  H11R17973   6.317   0.801   5.155  0.7625  0.0877 -1.1014
  161SAPE  C21217974   6.209   0.973   5.214 -0.0114  0.2685 -0.2980
  161SAPE  H12R17975   6.225   0.947   5.320 -2.5099 -1.0392 -0.1682
  161SAPE  C21317976   6.129   1.095   5.181 -0.4180  0.3462  0.2872
  161SAPE  H13R17977   6.059   1.110   5.266 -0.4737  0.2086  0.2670
  161SAPE  H13S17978   6.069   1.066   5.092  0.9672 -0.1015 -0.5191
  161SAPE  C21417979   6.221   1.212   5.158  0.5971 -0.5911 -0.1482
  161SAPE  H14R17980   6.231   1.239   5.052 -0.7729 -0.9250 -0.3822
  161SAPE  C21517981   6.288   1.273   5.256 -0.6539 -0.2050 -0.2069
  161SAPE  H15R17982   6.338   1.367   5.228 -0.3021  0.2902  1.8911
  161SAPE  C21617983   6.282   1.248   5.404 -0.1879 -0.0383  0.2973
  161SAPE  H16R17984   6.382   1.228   5.447  0.8925  2.6022 -0.7781
  161SAPE  H16S17985   6.227   1.155   5.429  1.3056 -0.9792  0.2655
  161SAPE  C21717986   6.228   1.363   5.477 -0.2389 -0.4106 -0.7792
  161SAPE  H17R17987   6.265   1.463   5.445  0.7994 -0.6573 -0.3793
  161SAPE  H17S17988   6.252   1.358   5.585 -0.1394 -0.3647 -0.7995
  161SAPE  C21817989   6.072   1.349   5.467  0.8208  0.1264 -0.4678
  161SAPE  H18R17990   6.028   1.249   5.488  1.4894 -0.2231 -0.7132
  161SAPE  H18S17991   6.032   1.380   5.368  1.9877  0.4101 -0.8752
  161SAPE  C21917992   6.019   1.460   5.561 -0.5211  0.3521  0.4599
  161SAPE  H19R17993   6.102   1.469   5.634  1.4884 -1.0895 -1.5227
  161SAPE  H19S17994   5.934   1.421   5.622 -1.8700  0.3958 -1.3109
  161SAPE  C22017995   5.982   1.590   5.495  0.1032 -0.5643 -0.6395
  161SAPE  H20R17996   5.948   1.665   5.570 -3.0516 -0.7004 -1.7953
  161SAPE  H20S17997   5.902   1.578   5.419 -0.3740 -0.5108 -0.1527
  161SAPE  H20T17998   6.072   1.629   5.441  1.6058 -1.7766  0.8681
  161SAPE   C3317999   5.720   1.138   4.446 -0.2376 -0.6048  0.0973
  161SAPE   H3X18000   5.782   1.121   4.536  0.5962 -0.5885 -0.4640
  161SAPE   H3Y18001   5.738   1.054   4.377  0.1290 -1.6840  1.4572
  161SAPE   C3418002   5.575   1.136   4.481 -0.0454  0.5067 -0.5635
  161SAPE   H4X18003   5.541   1.031   4.493 -0.0648  0.7886  2.9546
  161SAPE   H4Y18004   5.511   1.181   4.403  0.7779  0.4798 -1.2719
  161SAPE   C3518005   5.537   1.205   4.613 -0.0292 -0.0772 -0.5771
  161SAPE   H5X18006   5.566   1.312   4.609 -1.1050  0.2120 -1.0604
  161SAPE   H5Y18007   5.594   1.162   4.697  1.3081  1.4977 -0.6310
  161SAPE   C3618008   5.393   1.204   4.646  0.7656  0.2450 -0.4745
  161SAPE   H6X18009   5.360   1.099   4.660 -0.3466  0.6923  0.4061
  161SAPE   H6Y18010   5.338   1.247   4.560  0.8404 -1.9866 -1.7322
  161SAPE   C3718011   5.367   1.270   4.781 -0.3850 -0.1273  0.1124
  161SAPE   H7X18012   5.445   1.243   4.855 -1.2493  0.1969  1.1636
  161SAPE   H7Y18013   5.266   1.235   4.813 -1.1882  1.1129 -0.9507
  161SAPE   C3818014   5.342   1.421   4.767  0.3146  0.2508 -0.2587
  161SAPE   H8X18015   5.247   1.435   4.712 -0.9506 -0.9790  1.5056
  161SAPE   H8Y18016   5.428   1.466   4.711 -1.7208  2.9586 -1.4477
  161SAPE   C3918017   5.322   1.487   4.903  0.2684 -0.6169  0.2483
  161SAPE   H9X18018   5.424   1.510   4.941 -0.0307  0.7096  0.2814
  161SAPE   H9Y18019   5.278   1.419   4.980  1.0262 -0.0260  1.2309
  161SAPE  C31018020   5.249   1.620   4.890  0.8791  0.3743 -0.5361
  161SAPE  H10X18021   5.146   1.594   4.857 -0.3245  0.3229  2.8100
  161SAPE  H10Y18022   5.282   1.690   4.811  1.8562  1.0609  0.4510
  161SAPE  C31118023   5.226   1.685   5.026 -0.2502  0.1668  0.1205
  161SAPE  H11X18024   5.133   1.644   5.072 -0.7421  3.5914  2.5693
  161SAPE  H11Y18025   5.200   1.791   5.003  0.3958 -0.2288 -2.8321
  161SAPE  C31218026   5.339   1.682   5.132  0.9752  0.9209 -0.2454
  161SAPE  H12X18027   5.436   1.712   5.087  1.4877  2.3994  1.7081
  161SAPE  H12Y18028   5.350   1.575   5.158  0.7303  0.9113 -0.1776
  161SAPE  C31318029   5.298   1.733   5.267  0.1432 -0.0102 -0.4312
  161SAPE  H13X18030   5.376   1.698   5.338 -1.1369  1.5830  1.8817
  161SAPE  H13Y18031   5.209   1.677   5.303  0.4412 -2.4210 -3.1023
  161SAPE  C31418032   5.277   1.883   5.286 -0.3031  0.0387  0.2280
  161SAPE  H14X18033   5.262   1.887   5.396  0.2164  1.0938  0.2767
  161SAPE  H14Y18034   5.190   1.918   5.227 -0.6805 -0.4888  0.4644
  161SAPE  C31518035   5.404   1.963   5.252 -0.3060  0.1414 -0.1780
  161SAPE  H15X18036   5.401   2.064   5.298  2.9659  0.3564 -0.2045
  161SAPE  H15Y18037   5.407   1.973   5.141  2.6494  0.3257 -0.1623
  161SAPE  C31618038   5.532   1.897   5.309  0.2115  0.8315 -0.7966
  161SAPE  H16X18039   5.559   1.815   5.238 -0.0499 -0.1044  0.1654
  161SAPE  H16Y18040   5.508   1.856   5.409 -4.3815  0.4819 -1.8161
  161SAPE  C31718041   5.661   1.990   5.311 -0.0032  0.3259 -0.1578
  161SAPE  H17X18042   5.655   2.069   5.389  3.6627  1.4165 -0.7387
  161SAPE  H17Y18043   5.665   2.045   5.214  2.2522 -2.0532 -1.5659
  161SAPE  C31818044   5.796   1.918   5.325 -0.1644 -0.3281 -0.3804
  161SAPE  H18X18045   5.807   1.859   5.419 -0.5832  0.3654  0.1153
  161SAPE  H18Y18046   5.873   1.996   5.339 -0.6180 -0.2544  2.2718
  161SAPE  H18Z18047   5.810   1.862   5.230 -2.6734  0.6891 -1.4351
  162SAPE     N18048   1.915   5.026   2.827 -0.0438  0.0232  0.2030
  162SAPE   HN118049   1.966   5.006   2.739 -1.9188 -0.0713 -0.9160
  162SAPE   HN218050   1.914   4.952   2.901  0.7852 -1.7184 -1.4462
  162SAPE   HN318051   1.815   5.044   2.805 -0.2106  0.3813  1.2027
  162SAPE   C1218052   1.967   5.153   2.890 -0.0101  0.1994 -0.1384
  162SAPE  H12A18053   1.956   5.233   2.814 -2.0791 -0.6371 -0.7669
  162SAPE  H12B18054   2.073   5.145   2.924 -0.4588  4.7800  3.3499
  162SAPE   C1118055   1.885   5.173   3.017  0.0159 -0.1882 -0.3006
  162SAPE  H11A18056   1.795   5.227   2.981  0.3220 -1.2023 -2.7689
  162SAPE  H11B18057   1.949   5.238   3.080 -4.4214 -1.1046  6.1721
  162SAPE     P18058   1.713   5.046   3.163 -0.2257  0.3496 -0.7527
  162SAPE   O1318059   1.647   5.177   3.185 -0.3551 -0.4907  0.4019
  162SAPE   O1418060   1.631   4.948   3.091 -0.3670  0.7771  0.3545
  162SAPE   O1218061   1.857   5.057   3.100 -0.4533  0.2913  0.0335
  162SAPE   O1118062   1.744   5.002   3.309  0.0141 -0.1155  0.0860
  162SAPE    C118063   1.831   5.094   3.391 -0.6431  0.2906 -0.9810
  162SAPE    HA18064   1.900   5.164   3.339 -0.3311 -1.1967 -2.6777
  162SAPE    HB18065   1.762   5.146   3.461 -0.6877 -0.9807 -0.0425
  162SAPE    C218066   1.929   5.012   3.488 -0.4931  0.2248  0.4939
  162SAPE    HS18067   1.971   4.926   3.431 -3.1539 -0.2085 -0.9586
  162SAPE   O2118068   1.851   4.958   3.601  0.3162  0.0907 -0.2875
  162SAPE   C2118069   1.919   4.872   3.674 -0.9059  0.7347  0.5214
  162SAPE   O2218070   2.029   4.827   3.650 -0.0070 -0.1319 -0.1967
  162SAPE   C2218071   1.837   4.843   3.803  0.0365 -0.1750  0.6416
  162SAPE   H2R18072   1.791   4.941   3.828  2.9537  0.7947  2.6382
  162SAPE   H2S18073   1.768   4.760   3.775 -1.0272  1.2233 -1.0984
  162SAPE    C318074   2.041   5.102   3.543 -0.4226 -0.6354 -0.4293
  162SAPE    HX18075   2.119   5.102   3.464 -0.7766 -0.1327 -0.7797
  162SAPE    HY18076   2.092   5.058   3.632  1.1760  0.2456 -0.8801
  162SAPE   O3118077   2.000   5.234   3.564 -0.0227  0.4178  0.0316
  162SAPE   C3118078   1.928   5.269   3.667 -0.4155 -0.1565  0.1830
  162SAPE   O3218079   1.885   5.193   3.753 -0.2600 -0.3247 -0.1050
  162SAPE   C3218080   1.909   5.423   3.669 -0.1123 -0.3971 -0.0657
  162SAPE   H2X18081   1.889   5.458   3.773 -1.1490 -2.2861  0.4046
  162SAPE   H2Y18082   1.814   5.422   3.611  1.0094 -1.4685 -1.9596
  162SAPE   C2318083   1.925   4.806   3.919 -0.5144 -0.0862  0.3044
  162SAPE   H3R18084   1.992   4.891   3.943 -1.9852  1.0134  0.6022
  162SAPE   H3S18085   1.994   4.724   3.888  0.7609  0.8180  0.6591
  162SAPE   C2418086   1.837   4.758   4.042 -0.1015  0.0028  0.2150
  162SAPE   H4R18087   1.766   4.686   3.996  0.8323 -0.9950  0.2869
  162SAPE   H4S18088   1.773   4.840   4.079 -1.3624 -0.9671  0.2442
  162SAPE   C2518089   1.911   4.682   4.150  0.9369 -0.6619  0.5787
  162SAPE   H5R18090   1.980   4.609   4.106 -0.0845 -1.0692 -0.3952
  162SAPE   C2618091   1.906   4.717   4.279 -0.6116  0.1204 -0.0143
  162SAPE   H6R18092   1.964   4.653   4.347 -0.4999 -0.0508 -0.2667
  162SAPE   C2718093   1.814   4.811   4.349  0.5930  0.3439 -0.4345
  162SAPE   H7R18094   1.747   4.755   4.417  0.8213  1.0618  0.3928
  162SAPE   H7S18095   1.739   4.855   4.280 -2.5808  0.4680  2.8608
  162SAPE   C2818096   1.893   4.923   4.420  0.0418  0.2883 -0.4906
  162SAPE   H8R18097   1.921   5.010   4.360  0.1838  1.0512  0.6474
  162SAPE   C2918098   1.921   4.927   4.550  0.5497  0.2580 -0.5773
  162SAPE   H9R18099   1.975   5.015   4.586  0.9161  0.0542 -0.6272
  162SAPE  C21018100   1.890   4.819   4.646  0.1666  0.0335 -0.0913
  162SAPE  H10R18101   1.958   4.735   4.620  1.1200  0.7019  0.2055
  162SAPE  H10S18102   1.783   4.796   4.629  0.0902  0.2258  0.1383
  162SAPE  C21118103   1.902   4.851   4.793  0.0477 -0.2470 -0.4280
  162SAPE  H11R18104   1.814   4.906   4.828 -2.1052 -2.7302 -1.5870
  162SAPE  C21218105   1.998   4.805   4.876  0.2875 -0.5219 -0.1578
  162SAPE  H12R18106   1.993   4.828   4.984 -0.9126 -1.6453  0.0471
  162SAPE  C21318107   2.107   4.711   4.827  0.2727  0.4898  0.0509
  162SAPE  H13R18108   2.144   4.755   4.732  0.5621  1.1063  0.4407
  162SAPE  H13S18109   2.052   4.622   4.790  1.0957  0.0848 -0.1950
  162SAPE  C21418110   2.227   4.680   4.913 -0.2226 -0.2311 -0.4837
  162SAPE  H14R18111   2.201   4.606   4.990 -1.8842  0.3764 -0.4333
  162SAPE  C21518112   2.353   4.718   4.899  0.5312  0.5825 -0.3910
  162SAPE  H15R18113   2.419   4.675   4.976 -0.6321  0.3452  0.5015
  162SAPE  C21618114   2.411   4.835   4.818 -0.4185  0.8965  0.0522
  162SAPE  H16R18115   2.460   4.893   4.899 -0.0930 -0.6084  0.9855
  162SAPE  H16S18116   2.332   4.891   4.765 -1.1602  0.4402  0.6649
  162SAPE  C21718117   2.518   4.786   4.717 -0.3867 -0.3511  0.2672
  162SAPE  H17R18118   2.456   4.754   4.631 -0.3648  1.5982 -0.5427
  162SAPE  H17S18119   2.576   4.702   4.762  1.8599  0.3206 -1.1872
  162SAPE  C21818120   2.609   4.902   4.672  0.1611  0.0453  0.6979
  162SAPE  H18R18121   2.673   4.931   4.758  0.7399 -1.2129  0.7177
  162SAPE  H18S18122   2.545   4.987   4.639  1.2100  0.8651  0.7148
  162SAPE  C21918123   2.702   4.855   4.564  0.0006  0.1259 -0.2254
  162SAPE  H19R18124   2.766   4.777   4.611  0.9486  2.0285  1.8313
  162SAPE  H19S18125   2.769   4.933   4.523 -1.3864  1.8559  0.6628
  162SAPE  C22018126   2.637   4.794   4.445 -0.5068 -0.0929  0.0072
  162SAPE  H20R18127   2.627   4.684   4.461  0.8284 -0.1850  0.3727
  162SAPE  H20S18128   2.709   4.806   4.361 -0.0203 -1.0893  0.2584
  162SAPE  H20T18129   2.535   4.831   4.423 -0.0143  1.1442 -0.2745
  162SAPE   C3318130   2.018   5.495   3.581  0.1162 -0.3667  1.1916
  162SAPE   H3X18131   1.995   5.602   3.563 -2.4781 -1.1290 -0.7545
  162SAPE   H3Y18132   2.021   5.467   3.473  0.1047  0.6296  0.9168
  162SAPE   C3418133   2.155   5.492   3.641 -0.7433  0.3134  0.5441
  162SAPE   H4X18134   2.218   5.563   3.583 -1.1811 -1.4144 -2.2093
  162SAPE   H4Y18135   2.201   5.393   3.627  0.1343  0.7630  0.1892
  162SAPE   C3518136   2.173   5.542   3.783  0.0693 -0.7918 -0.1811
  162SAPE   H5X18137   2.117   5.483   3.859 -0.2713 -0.9101 -0.5255
  162SAPE   H5Y18138   2.133   5.646   3.781  1.1648 -0.3523 -0.2625
  162SAPE   C3618139   2.317   5.544   3.831  0.5236 -0.8063  0.2817
  162SAPE   H6X18140   2.378   5.617   3.775  0.8885 -0.7163  0.7858
  162SAPE   H6Y18141   2.361   5.443   3.812  0.8448 -0.2406 -2.3273
  162SAPE   C3718142   2.324   5.581   3.979  0.1660  1.6468  0.7504
  162SAPE   H7X18143   2.272   5.503   4.038 -2.0403  1.9531 -0.6866
  162SAPE   H7Y18144   2.275   5.675   4.011 -1.3914  0.4684  1.9474
  162SAPE   C3818145   2.476   5.586   4.028  0.3700  0.0825  0.5625
  162SAPE   H8X18146   2.530   5.678   3.998  2.6374 -0.9820  1.1978
  162SAPE   H8Y18147   2.536   5.512   3.971  3.8345  4.3000 -1.8793
  162SAPE   C3918148   2.480   5.564   4.180 -0.2780 -0.2397 -0.7324
  162SAPE   H9X18149   2.589   5.576   4.199 -0.7701  3.2275  0.4462
  162SAPE   H9Y18150   2.445   5.465   4.217  0.4362  0.5364  2.3493
  162SAPE  C31018151   2.411   5.683   4.251 -0.0083  0.0384 -0.1682
  162SAPE  H10X18152   2.304   5.673   4.223 -0.1276  0.7611  0.0114
  162SAPE  H10Y18153   2.440   5.786   4.219  0.7133 -0.3120 -0.6549
  162SAPE  C31118154   2.431   5.681   4.403  0.2326  0.1839 -0.4098
  162SAPE  H11X18155   2.395   5.777   4.445  1.4526  0.8213 -0.7411
  162SAPE  H11Y18156   2.540   5.663   4.420  0.2610  0.3228 -0.4401
  162SAPE  C31218157   2.358   5.561   4.477 -0.1781 -0.6535 -0.2934
  162SAPE  H12X18158   2.388   5.468   4.424 -0.9058 -1.4139  0.5844
  162SAPE  H12Y18159   2.248   5.577   4.476  0.2026  2.6131 -0.4099
  162SAPE  C31318160   2.410   5.543   4.626 -0.4070 -0.6446  0.4676
  162SAPE  H13X18161   2.520   5.552   4.611 -0.6400 -1.7897 -2.6773
  162SAPE  H13Y18162   2.391   5.441   4.665  2.0698 -0.7704  1.5511
  162SAPE  C31418163   2.370   5.648   4.727  0.0060 -0.6359  0.2777
  162SAPE  H14X18164   2.259   5.657   4.731 -0.1202  0.0292 -2.4556
  162SAPE  H14Y18165   2.409   5.742   4.682  1.3266 -1.0302  0.5750
  162SAPE  C31518166   2.442   5.659   4.858  0.1534 -0.1086 -0.0982
  162SAPE  H15X18167   2.436   5.765   4.892  0.1333 -0.7168  1.8717
  162SAPE  H15Y18168   2.550   5.644   4.840  0.2073  0.6540 -0.4418
  162SAPE  C31618169   2.412   5.560   4.969 -0.0742  0.6593 -0.3503
  162SAPE  H16X18170   2.477   5.584   5.056  0.3568 -0.7393 -0.2639
  162SAPE  H16Y18171   2.427   5.452   4.949  0.9255  1.0387 -1.7959
  162SAPE  C31718172   2.270   5.586   5.027  0.7994  0.0017 -0.5654
  162SAPE  H17X18173   2.208   5.508   4.978  1.3116 -1.1618  0.5802
  162SAPE  H17Y18174   2.245   5.691   5.002  0.9283  0.3421  0.6810
  162SAPE  C31818175   2.257   5.561   5.176 -0.3940  0.3550 -0.2170
  162SAPE  H18X18176   2.262   5.454   5.204  2.0679  0.5178  0.1762
  162SAPE  H18Y18177   2.157   5.595   5.207  0.5050  2.1589  0.8434
  162SAPE  H18Z18178   2.330   5.619   5.236 -0.9612 -1.3566  2.2549
  163SAPE     N18179   4.658   2.146   3.643 -0.4389 -0.6822 -0.3296
  163SAPE   HN118180   4.748   2.104   3.613  1.1164  0.2889  2.6256
  163SAPE   HN218181   4.576   2.081   3.639 -0.1752 -0.9815 -1.1539
  163SAPE   HN318182   4.649   2.233   3.586  1.4339  0.4667  1.0366
  163SAPE   C1218183   4.667   2.180   3.784 -0.4293  0.9165  0.0900
  163SAPE  H12A18184   4.756   2.246   3.787  0.8143 -0.7237  1.1601
  163SAPE  H12B18185   4.689   2.086   3.839  1.7062  0.8560 -0.7526
  163SAPE   C1118186   4.548   2.252   3.842 -0.8141 -0.5874  0.3409
  163SAPE  H11A18187   4.553   2.251   3.953 -2.6238 -0.6732  0.4482
  163SAPE  H11B18188   4.456   2.196   3.818 -1.2585  0.0510  0.5293
  163SAPE     P18189   4.431   2.482   3.787 -0.4150 -0.5051  0.4575
  163SAPE   O1318190   4.394   2.521   3.648  0.1920 -0.0520  0.2024
  163SAPE   O1418191   4.336   2.436   3.893  0.0371 -0.4512 -0.1653
  163SAPE   O1218192   4.553   2.385   3.779 -0.2827  0.1811  0.2801
  163SAPE   O1118193   4.518   2.600   3.848 -0.3608  0.2922  0.4644
  163SAPE    C118194   4.460   2.712   3.913  0.1564  0.3190  0.5097
  163SAPE    HA18195   4.375   2.756   3.855 -0.7279 -1.2869  0.5226
  163SAPE    HB18196   4.427   2.700   4.018  1.2772  0.6425  0.9054
  163SAPE    C218197   4.557   2.827   3.918  0.2392  0.1693  0.2210
  163SAPE    HS18198   4.595   2.852   3.817  2.3205 -1.7619  0.4400
  163SAPE   O2118199   4.666   2.787   4.006 -0.5756 -0.5554 -0.2658
  163SAPE   C2118200   4.783   2.774   3.952 -0.2910  0.3744  0.2647
  163SAPE   O2218201   4.812   2.808   3.836  0.3079  0.4936 -0.3401
  163SAPE   C2218202   4.892   2.728   4.054 -0.4781 -0.8798 -0.2404
  163SAPE   H2R18203   4.981   2.792   4.036 -1.8373  0.3637 -3.0471
  163SAPE   H2S18204   4.846   2.751   4.153 -1.4992  0.8150 -1.0576
  163SAPE    C318205   4.483   2.953   3.967  0.8220  1.1778 -1.0607
  163SAPE    HX18206   4.391   2.971   3.906 -0.8241  1.5048  1.3652
  163SAPE    HY18207   4.544   3.045   3.954  1.0346  1.1305 -0.4178
  163SAPE   O3118208   4.432   2.928   4.110 -0.5258  0.0468  0.3537
  163SAPE   C3118209   4.483   2.997   4.212  0.3846  0.8290 -0.4095
  163SAPE   O3218210   4.586   3.068   4.202  0.3442  0.4588 -1.0583
  163SAPE   C3218211   4.411   2.963   4.343 -0.0496 -0.2086  0.5691
  163SAPE   H2X18212   4.477   2.886   4.389 -0.0689 -0.0136  0.9282
  163SAPE   H2Y18213   4.306   2.935   4.323  0.0354 -1.4242  1.6826
  163SAPE   C2318214   4.913   2.579   4.030 -0.9328  0.2944  0.0372
  163SAPE   H3R18215   5.022   2.564   4.042 -0.6532  1.6806 -0.5588
  163SAPE   H3S18216   4.900   2.554   3.923  0.9142 -1.1533  0.1010
  163SAPE   C2418217   4.841   2.477   4.124  0.2133 -0.1293  0.3797
  163SAPE   H4R18218   4.856   2.508   4.230  2.4051 -1.7991  0.6408
  163SAPE   H4S18219   4.884   2.376   4.105 -1.9096 -1.2116  1.0108
  163SAPE   C2518220   4.695   2.460   4.086  0.2243 -0.1694 -0.4015
  163SAPE   H5R18221   4.675   2.460   3.978 -0.4269 -1.0728 -0.2946
  163SAPE   C2618222   4.585   2.466   4.166  0.1233 -0.1058 -0.3226
  163SAPE   H6R18223   4.490   2.457   4.112 -0.7937 -0.2100  1.2386
  163SAPE   C2718224   4.576   2.463   4.315  0.8270 -0.1947  0.5043
  163SAPE   H7R18225   4.678   2.433   4.349  1.1211  0.9761  0.7032
  163SAPE   H7S18226   4.495   2.390   4.334 -2.2441  2.4759 -1.3447
  163SAPE   C2818227   4.533   2.587   4.384 -0.8482  0.2496  0.7719
  163SAPE   H8R18228   4.529   2.681   4.328 -0.9740 -1.0916 -1.5844
  163SAPE   C2918229   4.515   2.598   4.515 -0.7364  0.8717  0.5124
  163SAPE   H9R18230   4.486   2.694   4.561  2.1922  1.1472  2.0728
  163SAPE  C21018231   4.514   2.477   4.603 -0.4553  0.3168  0.1291
  163SAPE  H10R18232   4.504   2.384   4.544 -0.8431  0.2203  0.3474
  163SAPE  H10S18233   4.423   2.477   4.667 -0.3157 -0.7114  0.3538
  163SAPE  C21118234   4.645   2.477   4.682 -0.0243  0.3972  0.0344
  163SAPE  H11R18235   4.737   2.444   4.631 -0.6179 -3.9742  1.3666
  163SAPE  C21218236   4.647   2.466   4.814 -0.0556 -0.1705  0.0025
  163SAPE  H12R18237   4.742   2.444   4.866  1.8483  0.4249 -2.9952
  163SAPE  C21318238   4.521   2.473   4.904 -0.8168 -0.1656  1.2670
  163SAPE  H13R18239   4.448   2.401   4.862 -0.8143 -0.2518  1.4108
  163SAPE  H13S18240   4.464   2.566   4.882 -1.0504 -0.8528 -1.3232
  163SAPE  C21418241   4.532   2.445   5.048  0.7725  0.0282  0.5263
  163SAPE  H14R18242   4.550   2.340   5.073 -0.3853 -0.4368 -0.4750
  163SAPE  C21518243   4.525   2.528   5.153  0.4535 -0.5533 -0.2625
  163SAPE  H15R18244   4.530   2.481   5.253 -0.7521  0.2340  0.2002
  163SAPE  C21618245   4.501   2.685   5.156 -0.3412  0.4573  0.3529
  163SAPE  H16R18246   4.569   2.730   5.080 -0.1711  0.5006  0.5279
  163SAPE  H16S18247   4.526   2.724   5.257  0.5050  0.5670  0.1109
  163SAPE  C21718248   4.354   2.725   5.123  0.2568  0.4095  0.5060
  163SAPE  H17R18249   4.329   2.702   5.017  1.0361 -0.0681  0.4184
  163SAPE  H17S18250   4.347   2.834   5.146 -3.3174 -0.0050  1.9713
  163SAPE  C21818251   4.252   2.656   5.209  0.4713  0.4539 -0.4653
  163SAPE  H18R18252   4.292   2.667   5.312 -0.2217 -1.4430  0.0471
  163SAPE  H18S18253   4.243   2.547   5.187  0.3805  0.2484  0.5177
  163SAPE  C21918254   4.115   2.727   5.199 -0.3061  0.2670  0.1133
  163SAPE  H19R18255   4.067   2.716   5.100 -0.5805 -0.2536  0.3041
  163SAPE  H19S18256   4.129   2.836   5.215 -3.9351  0.7648  0.8435
  163SAPE  C22018257   4.005   2.684   5.298  0.5092  0.5846  0.1051
  163SAPE  H20R18258   3.998   2.573   5.307  0.9618  0.4571 -0.9794
  163SAPE  H20S18259   3.904   2.722   5.269  1.1437  3.1315  0.9410
  163SAPE  H20T18260   4.031   2.725   5.398 -1.6019  0.1620  0.8992
  163SAPE   C3318261   4.396   3.088   4.437  0.3757  0.1771 -1.0776
  163SAPE   H3X18262   4.369   3.181   4.382 -1.0387  0.9735  0.8580
  163SAPE   H3Y18263   4.488   3.115   4.493  0.1118 -0.1420 -0.4860
  163SAPE   C3418264   4.284   3.056   4.539  0.4959  0.1140  0.1005
  163SAPE   H4X18265   4.201   3.005   4.484  0.4893  0.0172  0.2025
  163SAPE   H4Y18266   4.234   3.149   4.575  0.0875  0.3136 -0.9388
  163SAPE   C3518267   4.329   2.967   4.654 -0.1156 -0.0583  0.0479
  163SAPE   H5X18268   4.416   3.017   4.702  1.7567 -1.2674 -1.9160
  163SAPE   H5Y18269   4.353   2.867   4.613 -1.6403  0.0754 -1.2972
  163SAPE   C3618270   4.222   2.950   4.756  0.0363  0.2421 -0.2908
  163SAPE   H6X18271   4.247   2.869   4.828 -0.0300  1.8344  1.6115
  163SAPE   H6Y18272   4.128   2.935   4.699 -0.4570 -0.1931  0.6127
  163SAPE   C3718273   4.201   3.077   4.839 -0.1624 -0.4025  0.2376
  163SAPE   H7X18274   4.116   3.132   4.793 -0.1106 -0.6618 -0.1641
  163SAPE   H7Y18275   4.286   3.149   4.839  2.4086 -3.1857 -1.7144
  163SAPE   C3818276   4.163   3.052   4.989 -0.2473 -0.1265 -0.2290
  163SAPE   H8X18277   4.260   3.029   5.039 -0.1665  0.9428  0.1354
  163SAPE   H8Y18278   4.088   2.972   5.009  1.4600 -1.5924  0.6691
  163SAPE   C3918279   4.114   3.178   5.062 -0.2305 -0.3448 -0.4950
  163SAPE   H9X18280   4.020   3.202   5.007  1.1057  0.4223 -2.5762
  163SAPE   H9Y18281   4.177   3.267   5.041 -2.8582  1.7408 -0.0829
  163SAPE  C31018282   4.098   3.158   5.214  0.7168 -0.1787 -0.0864
  163SAPE  H10X18283   4.173   3.099   5.272  1.2831 -2.0440 -2.5377
  163SAPE  H10Y18284   3.996   3.119   5.233  0.4497  0.8618  0.6959
  163SAPE  C31118285   4.092   3.290   5.294 -0.3591 -0.1599 -0.1469
  163SAPE  H11X18286   4.032   3.353   5.225 -0.3346 -0.4906 -0.4740
  163SAPE  H11Y18287   4.194   3.324   5.323 -1.0025  1.6567  0.1472
  163SAPE  C31218288   4.027   3.269   5.433  0.0547  0.5125 -0.0272
  163SAPE  H12X18289   3.936   3.208   5.415  1.7727 -1.2037 -4.2429
  163SAPE  H12Y18290   4.003   3.371   5.469  1.0560  0.2383  1.5456
  163SAPE  C31318291   4.123   3.209   5.526 -0.1219  0.2739 -0.2114
  163SAPE  H13X18292   4.196   3.288   5.554  0.6177 -0.6978  0.7427
  163SAPE  H13Y18293   4.179   3.128   5.473 -1.7615 -0.2242 -1.2465
  163SAPE  C31418294   4.072   3.159   5.662  0.1537 -0.3219 -0.1117
  163SAPE  H14X18295   4.010   3.228   5.723  0.1179 -0.5470  0.1096
  163SAPE  H14Y18296   4.161   3.127   5.721  2.1280  2.7966 -1.1397
  163SAPE  C31518297   3.990   3.035   5.656  0.0343 -0.3151 -0.0285
  163SAPE  H15X18298   3.925   3.043   5.566 -0.7265 -1.1730  0.4245
  163SAPE  H15Y18299   3.931   3.013   5.747  0.9867  2.4040  1.3392
  163SAPE  C31618300   4.085   2.914   5.625 -0.5261  0.4471  0.0753
  163SAPE  H16X18301   4.183   2.926   5.676  0.8561  0.2313 -2.3915
  163SAPE  H16Y18302   4.104   2.908   5.516  1.4476  1.4914  0.3156
  163SAPE  C31718303   4.028   2.786   5.685  0.0876 -0.9975 -0.5336
  163SAPE  H17X18304   3.949   2.736   5.626 -1.3669  1.4300 -0.7867
  163SAPE  H17Y18305   3.981   2.805   5.784 -1.2029  0.4541 -1.3841
  163SAPE  C31818306   4.131   2.681   5.708 -0.6438  0.2068  0.3795
  163SAPE  H18X18307   4.154   2.620   5.618 -0.6542  1.0844 -0.2290
  163SAPE  H18Y18308   4.086   2.603   5.773 -0.9937  0.7279  0.7707
  163SAPE  H18Z18309   4.222   2.736   5.742 -1.3029  1.3932  0.2780
  164SAPE     N18310   0.723   4.955   3.114  0.4563 -0.0040 -0.8615
  164SAPE   HN118311   0.799   4.891   3.145  0.0743 -0.2523 -0.4350
  164SAPE   HN218312   0.659   4.989   3.188  0.2830  1.0990 -1.4968
  164SAPE   HN318313   0.661   4.890   3.063  0.2038  0.0723 -0.6507
  164SAPE   C1218314   0.768   5.077   3.035  0.2180  0.2956 -0.2777
  164SAPE  H12A18315   0.766   5.041   2.930 -0.5763 -1.6833  0.3704
  164SAPE  H12B18316   0.874   5.100   3.061  1.0929 -2.4128 -1.1021
  164SAPE   C1118317   0.667   5.198   3.053  0.1409  0.4126  0.2284
  164SAPE  H11A18318   0.562   5.170   3.029 -0.7639  1.5991  2.5596
  164SAPE  H11B18319   0.690   5.274   2.976  1.1275  1.2892  1.3428
  164SAPE     P18320   0.578   5.252   3.292 -0.1998 -0.2790 -0.4616
  164SAPE   O1318321   0.632   5.309   3.420  0.2411  0.3993 -0.1579
  164SAPE   O1418322   0.449   5.288   3.233 -0.2516 -0.2545 -0.2599
  164SAPE   O1218323   0.690   5.260   3.182  0.1409  0.3071  0.5791
  164SAPE   O1118324   0.577   5.098   3.319 -0.6058  0.1198 -0.2012
  164SAPE    C118325   0.459   5.021   3.359 -0.7143 -0.0275  0.3792
  164SAPE    HA18326   0.368   5.049   3.302 -0.5511 -0.8628 -0.3220
  164SAPE    HB18327   0.480   4.913   3.342 -0.2100  0.0142  0.7095
  164SAPE    C218328   0.425   5.047   3.508 -0.6386  0.3559  0.8692
  164SAPE    HS18329   0.386   5.150   3.510 -1.9196  0.0326 -2.0510
  164SAPE   O2118330   0.550   5.027   3.574 -0.3677  0.3674  0.3624
  164SAPE   C2118331   0.575   5.129   3.665  0.1408 -0.4212  1.0736
  164SAPE   O2218332   0.496   5.212   3.698 -0.3041 -0.0309  0.4617
  164SAPE   C2218333   0.714   5.102   3.722  0.2714  0.5564 -0.0295
  164SAPE   H2R18334   0.702   5.004   3.772 -3.8394  0.6885 -0.4258
  164SAPE   H2S18335   0.781   5.087   3.635  0.2831  0.6362 -0.0343
  164SAPE    C318336   0.320   4.943   3.555  0.8110  0.2784 -0.4088
  164SAPE    HX18337   0.348   4.837   3.537 -2.1939 -0.3140 -2.1556
  164SAPE    HY18338   0.232   4.955   3.488 -1.1648 -0.7224  1.8913
  164SAPE   O3118339   0.288   4.951   3.697  0.3481 -0.1697 -0.8360
  164SAPE   C3118340   0.201   5.043   3.734  0.0025 -0.2055 -0.1077
  164SAPE   O3218341   0.138   5.113   3.661 -0.5061 -0.2195 -0.0600
  164SAPE   C3218342   0.208   5.056   3.894  0.0860  0.3805  0.1249
  164SAPE   H2X18343   0.313   5.071   3.924  0.2757 -1.9380  0.7943
  164SAPE   H2Y18344   0.172   4.955   3.924 -0.2050  0.2932 -0.4977
  164SAPE   C2318345   0.778   5.209   3.814 -0.3619  0.2851  0.4234
  164SAPE   H3R18346   0.761   5.307   3.766 -0.6070 -0.7336 -1.6957
  164SAPE   H3S18347   0.888   5.196   3.816 -0.2337  0.8865 -1.3466
  164SAPE   C2418348   0.711   5.216   3.951 -0.4633  0.3063  0.5923
  164SAPE   H4R18349   0.602   5.232   3.945 -0.4047  0.6610  0.4747
  164SAPE   H4S18350   0.755   5.307   3.996 -0.2733  0.7064 -0.3734
  164SAPE   C2518351   0.735   5.089   4.032  0.5152  0.6047  0.2182
  164SAPE   H5R18352   0.731   4.993   3.979 -0.8786  0.6948  0.1223
  164SAPE   C2618353   0.727   5.084   4.168  0.8800 -0.3606  0.4726
  164SAPE   H6R18354   0.734   4.987   4.220  0.0458 -0.1618  0.9653
  164SAPE   C2718355   0.721   5.204   4.257 -0.1021  0.0214  0.4918
  164SAPE   H7R18356   0.619   5.247   4.248  0.0735  0.2161 -0.7405
  164SAPE   H7S18357   0.769   5.293   4.212 -0.5001  0.3326  0.6724
  164SAPE   C2818358   0.775   5.174   4.397  0.8350 -0.0444 -0.7947
  164SAPE   H8R18359   0.880   5.145   4.411  0.0895 -1.2950  3.4628
  164SAPE   C2918360   0.702   5.158   4.510 -0.2873 -0.3457  0.5090
  164SAPE   H9R18361   0.753   5.155   4.608 -0.8891 -0.1558  0.8339
  164SAPE  C21018362   0.551   5.185   4.523  0.2780 -0.2416 -0.2559
  164SAPE  H10R18363   0.500   5.086   4.529  0.7386 -0.4712 -0.0740
  164SAPE  H10S18364   0.516   5.233   4.429  0.6902  1.8854  0.6283
  164SAPE  C21118365   0.515   5.272   4.647  0.4310 -0.1110 -0.3585
  164SAPE  H11R18366   0.481   5.373   4.620 -0.5091  0.1648  1.7252
  164SAPE  C21218367   0.500   5.234   4.777  0.2750 -0.1695 -0.3292
  164SAPE  H12R18368   0.469   5.317   4.842  0.4571 -0.1620 -0.2531
  164SAPE  C21318369   0.517   5.091   4.820  0.1314 -1.1255  0.4205
  164SAPE  H13R18370   0.545   5.036   4.728 -0.1030  0.7651 -0.8581
  164SAPE  H13S18371   0.421   5.043   4.850 -0.6126 -0.6176 -1.0276
  164SAPE  C21418372   0.632   5.073   4.922 -0.5786  0.5696 -0.2726
  164SAPE  H14R18373   0.723   5.133   4.909 -1.1908  1.2725 -1.4168
  164SAPE  C21518374   0.633   4.967   5.014  0.5892 -0.0315 -0.2957
  164SAPE  H15R18375   0.714   4.968   5.088 -0.5453  0.7381  0.9823
  164SAPE  C21618376   0.524   4.862   5.028  0.0662 -0.0283  0.4226
  164SAPE  H16R18377   0.469   4.833   4.936 -0.8169 -1.0278  1.2361
  164SAPE  H16S18378   0.449   4.898   5.102 -0.3982  0.3958 -0.2446
  164SAPE  C21718379   0.581   4.734   5.098  0.4269  0.3347 -0.2275
  164SAPE  H17R18380   0.640   4.767   5.186  0.7072  0.5974 -0.5135
  164SAPE  H17S18381   0.656   4.701   5.023  1.2490 -0.0568  0.7377
  164SAPE  C21818382   0.481   4.623   5.122  0.2760 -0.1048  0.6339
  164SAPE  H18R18383   0.456   4.589   5.019  1.9526 -0.5566  0.3518
  164SAPE  H18S18384   0.385   4.634   5.178 -0.0961 -0.3960  0.0628
  164SAPE  C21918385   0.558   4.516   5.197  0.3562  0.3827  0.0446
  164SAPE  H19R18386   0.586   4.550   5.299  0.4683  0.3692  0.0183
  164SAPE  H19S18387   0.655   4.499   5.144 -0.4186 -0.5592 -1.1404
  164SAPE  C22018388   0.492   4.384   5.197 -0.3690 -0.4769 -0.1674
  164SAPE  H20R18389   0.448   4.360   5.098 -0.3889 -1.6223  0.1060
  164SAPE  H20S18390   0.409   4.381   5.270  0.0297 -0.1337  0.3093
  164SAPE  H20T18391   0.566   4.310   5.236  0.3219 -0.3349 -1.1479
  164SAPE   C3318392   0.117   5.163   3.957  0.3543 -1.1189  0.0427
  164SAPE   H3X18393   0.020   5.141   3.908  0.9969 -1.3969 -1.1567
  164SAPE   H3Y18394   0.158   5.261   3.926  0.1081 -0.9448  0.2587
  164SAPE   C3418395   0.104   5.144   4.106 -0.4322 -0.2755 -0.2564
  164SAPE   H4X18396   0.045   5.051   4.122 -0.7999  0.0282  0.1780
  164SAPE   H4Y18397   0.048   5.233   4.142  0.7868  0.9566 -1.3062
  164SAPE   C3518398   0.237   5.133   4.188  0.4215  0.7288 -0.3346
  164SAPE   H5X18399   0.283   5.234   4.175  1.3818  0.4105  0.4599
  164SAPE   H5Y18400   0.307   5.057   4.148  2.1042  2.4245 -0.7401
  164SAPE   C3618401   0.223   5.109   4.337  0.2277  0.3224  0.6094
  164SAPE   H6X18402   0.320   5.070   4.374  0.1904  0.7720  1.1897
  164SAPE   H6Y18403   0.150   5.025   4.349  0.1291 -0.0296 -1.8599
  164SAPE   C3718404   0.178   5.225   4.423  0.1229 -0.1121 -0.4822
  164SAPE   H7X18405   0.085   5.268   4.380 -0.2186  1.4640  1.6379
  164SAPE   H7Y18406   0.259   5.301   4.422  0.7496 -0.7725 -0.6648
  164SAPE   C3818407   0.150   5.181   4.567 -0.3240 -0.1170  0.2510
  164SAPE   H8X18408   0.238   5.129   4.612  0.3863  1.7078  1.1023
  164SAPE   H8Y18409   0.071   5.103   4.571  0.6838 -1.1391  2.4557
  164SAPE   C3918410   0.105   5.298   4.653 -0.1270 -0.4787 -0.3085
  164SAPE   H9X18411   0.025   5.357   4.602 -1.9472  0.6718  3.5458
  164SAPE   H9Y18412   0.194   5.361   4.673 -1.6737  1.7145 -0.0302
  164SAPE  C31018413   0.039   5.252   4.787 -0.0882 -0.0954  0.0724
  164SAPE  H10X18414   0.103   5.181   4.843 -2.2272 -1.7460  0.5750
  164SAPE  H10Y18415  -0.053   5.201   4.751  0.3796  0.1492 -1.5694
  164SAPE  C31118416   0.004   5.358   4.890  0.0149 -0.3944 -0.3863
  164SAPE  H11X18417  -0.029   5.311   4.986  1.3086 -1.8556 -0.6059
  164SAPE  H11Y18418  -0.085   5.408   4.846 -1.2598 -2.3858 -0.2377
  164SAPE  C31218419   0.118   5.440   4.942 -0.0063 -0.2030  0.0133
  164SAPE  H12X18420   0.084   5.525   5.004  2.7197  0.2814  1.0119
  164SAPE  H12Y18421   0.171   5.482   4.854  0.3096  0.5663  0.5640
  164SAPE  C31318422   0.216   5.353   5.018  0.3107 -0.4926 -0.0774
  164SAPE  H13X18423   0.264   5.275   4.955 -0.7461  0.3815 -2.0539
  164SAPE  H13Y18424   0.162   5.303   5.102 -0.8064 -1.1651 -1.1753
  164SAPE  C31418425   0.329   5.434   5.089 -0.4411 -0.7038  0.1301
  164SAPE  H14X18426   0.293   5.528   5.136  0.8014 -0.7988  1.3025
  164SAPE  H14Y18427   0.403   5.465   5.012 -0.9723  0.0993 -0.0741
  164SAPE  C31518428   0.408   5.354   5.204  0.1801 -0.1303  0.6946
  164SAPE  H15X18429   0.424   5.248   5.176  2.3281 -0.6877  3.6817
  164SAPE  H15Y18430   0.336   5.354   5.288  1.7078  1.7048  2.0752
  164SAPE  C31618431   0.549   5.411   5.246  0.3172 -0.4608  0.1957
  164SAPE  H16X18432   0.571   5.498   5.181 -0.1309  0.0621  0.7362
  164SAPE  H16Y18433   0.621   5.326   5.244  0.0563 -0.6710 -1.1243
  164SAPE  C31718434   0.541   5.470   5.385  0.1866  0.3416 -0.5560
  164SAPE  H17X18435   0.647   5.479   5.418 -0.6978  0.5473  2.4844
  164SAPE  H17Y18436   0.492   5.400   5.455  0.0957  1.9733  1.0732
  164SAPE  C31818437   0.476   5.609   5.401  0.0541  0.1232  0.2250
  164SAPE  H18X18438   0.460   5.630   5.509  0.8271  2.6543 -0.0722
  164SAPE  H18Y18439   0.377   5.608   5.350 -0.8255 -3.0379  1.7744
  164SAPE  H18Z18440   0.547   5.679   5.352 -0.4384  0.1734 -0.4399
  165SAPE     N18441   3.980   4.386   3.440  0.2589  0.2056 -0.2492
  165SAPE   HN118442   4.081   4.403   3.456  0.1414  2.1731 -1.3212
  165SAPE   HN218443   3.969   4.335   3.350 -1.9603 -1.0220  0.6279
  165SAPE   HN318444   3.931   4.477   3.430 -2.2839 -1.1858 -1.6232
  165SAPE   C1218445   3.926   4.316   3.555  0.7431 -0.1975 -0.2438
  165SAPE  H12A18446   3.827   4.273   3.529  0.4404 -1.8924  3.1052
  165SAPE  H12B18447   3.898   4.393   3.630 -3.0221 -0.2625 -1.3785
  165SAPE   C1118448   4.020   4.205   3.588 -0.1026 -0.6474  0.4878
  165SAPE  H11A18449   3.995   4.165   3.689 -1.9856  0.9158  0.6928
  165SAPE  H11B18450   4.121   4.248   3.605 -0.4395 -0.1631  1.3639
  165SAPE     P18451   4.128   3.974   3.506  0.3108  0.2750 -0.3226
  165SAPE   O1318452   4.092   3.884   3.395  0.2644  0.0859  0.9294
  165SAPE   O1418453   4.267   4.014   3.538  0.1278 -0.2717  0.1755
  165SAPE   O1218454   4.033   4.103   3.494  0.3544 -0.2332 -0.7410
  165SAPE   O1118455   4.073   3.912   3.636 -0.1838 -0.4236  1.1401
  165SAPE    C118456   3.946   3.845   3.637  0.0178  0.7507  0.6354
  165SAPE    HA18457   3.866   3.912   3.597 -1.4234 -0.5274  1.2671
  165SAPE    HB18458   3.941   3.756   3.571 -0.8085  1.0648  0.2543
  165SAPE    C218459   3.900   3.811   3.778  0.2819  0.2713 -0.9367
  165SAPE    HS18460   3.790   3.797   3.783  0.2435  1.0444  1.4724
  165SAPE   O2118461   3.943   3.909   3.879 -0.0264 -0.1641 -0.3930
  165SAPE   C2118462   3.872   4.021   3.877 -0.6615  0.3857  1.3960
  165SAPE   O2218463   3.772   4.039   3.806 -0.3668  0.2293 -0.3958
  165SAPE   C2218464   3.925   4.124   3.975 -0.0073 -0.1118  0.4803
  165SAPE   H2R18465   3.974   4.066   4.056  1.5606 -0.9555 -0.9971
  165SAPE   H2S18466   3.990   4.181   3.905 -1.7645  1.1032 -0.2313
  165SAPE    C318467   3.960   3.668   3.826  0.3947  0.3733 -0.0181
  165SAPE    HX18468   4.069   3.691   3.826 -0.0327  2.8315 -1.5484
  165SAPE    HY18469   3.923   3.590   3.755 -1.1914 -0.3792  1.5476
  165SAPE   O3118470   3.923   3.631   3.964  0.5382  0.0534  0.2551
  165SAPE   C3118471   3.793   3.591   3.969 -0.0574 -0.2370  0.5979
  165SAPE   O3218472   3.721   3.575   3.873 -0.0270 -0.1502  0.0223
  165SAPE   C3218473   3.749   3.584   4.114  0.4616 -0.1117  0.0607
  165SAPE   H2X18474   3.827   3.551   4.186  0.0362 -1.4409 -0.0558
  165SAPE   H2Y18475   3.667   3.510   4.103  0.1886  0.0573  0.9075
  165SAPE   C2318476   3.816   4.217   4.035 -0.3032 -0.0863 -0.6443
  165SAPE   H3R18477   3.743   4.153   4.088  1.5235  0.0359  2.2234
  165SAPE   H3S18478   3.767   4.277   3.955 -1.3253 -2.1523 -1.6174
  165SAPE   C2418479   3.877   4.318   4.136  0.3343  0.1911 -0.5431
  165SAPE   H4R18480   3.926   4.400   4.080 -0.8585 -0.4598 -2.6600
  165SAPE   H4S18481   3.958   4.261   4.187  0.8999  1.5306  0.0973
  165SAPE   C2518482   3.773   4.369   4.231  0.1422  0.0230  0.5782
  165SAPE   H5R18483   3.687   4.409   4.175 -0.4479 -0.3173  1.2387
  165SAPE   C2618484   3.770   4.366   4.363 -0.0744  0.0358 -0.2617
  165SAPE   H6R18485   3.675   4.402   4.405 -0.1486  1.1087 -1.2956
  165SAPE   C2718486   3.866   4.308   4.463 -0.1418 -0.1071 -0.7936
  165SAPE   H7R18487   3.951   4.376   4.485 -0.1462 -0.7252  1.4229
  165SAPE   H7S18488   3.904   4.221   4.407 -0.5983  1.6648 -4.1193
  165SAPE   C2818489   3.804   4.251   4.587  0.2759 -0.0583 -0.2843
  165SAPE   H8R18490   3.835   4.147   4.603  0.9530  0.1530 -0.1528
  165SAPE   C2918491   3.729   4.311   4.682  0.6127  0.5172 -0.4247
  165SAPE   H9R18492   3.699   4.252   4.770 -0.6123  1.3716 -0.2500
  165SAPE  C21018493   3.686   4.461   4.693  0.2911 -0.0738  0.4953
  165SAPE  H10R18494   3.707   4.510   4.595 -0.6082 -0.0948  0.2862
  165SAPE  H10S18495   3.743   4.520   4.768 -3.5155  0.3361  3.3714
  165SAPE  C21118496   3.539   4.484   4.728 -0.8043  0.8822 -0.0357
  165SAPE  H11R18497   3.467   4.480   4.645 -0.0774 -1.7564 -0.6254
  165SAPE  C21218498   3.486   4.507   4.850 -0.0343 -0.8243 -0.3012
  165SAPE  H12R18499   3.377   4.522   4.837 -0.0041 -1.1541 -0.9770
  165SAPE  C21318500   3.548   4.529   4.986 -0.7032  0.2394  0.6857
  165SAPE  H13R18501   3.652   4.489   4.982 -0.4471  0.9833 -0.7236
  165SAPE  H13S18502   3.499   4.461   5.059  2.1667  0.3562  2.8978
  165SAPE  C21418503   3.548   4.668   5.039 -0.7703  0.4066 -0.0655
  165SAPE  H14R18504   3.514   4.741   4.963 -2.1057  0.9090  0.9801
  165SAPE  C21518505   3.559   4.706   5.170  0.4344 -0.6806 -0.4038
  165SAPE  H15R18506   3.563   4.814   5.191 -1.3615 -0.1536 -2.4037
  165SAPE  C21618507   3.569   4.603   5.284  0.4152  0.7848  0.4002
  165SAPE  H16R18508   3.580   4.502   5.240 -1.8561  0.8054 -0.3793
  165SAPE  H16S18509   3.478   4.602   5.349  2.7115  1.3203  3.8620
  165SAPE  C21718510   3.682   4.637   5.368  0.1035 -0.5030  0.6333
  165SAPE  H17R18511   3.691   4.553   5.440 -0.1120  0.4652  1.8145
  165SAPE  H17S18512   3.671   4.723   5.438  0.3210 -0.8973  1.1585
  165SAPE  C21818513   3.820   4.657   5.286  0.6639 -0.4986 -0.1090
  165SAPE  H18R18514   3.811   4.745   5.219 -2.4986 -2.7078 -2.9382
  165SAPE  H18S18515   3.830   4.568   5.221  1.9036  0.4123 -1.2097
  165SAPE  C21918516   3.944   4.686   5.372 -0.0443 -0.3193 -0.3018
  165SAPE  H19R18517   3.923   4.770   5.442  1.7218 -1.1115  1.2614
  165SAPE  H19S18518   4.021   4.728   5.304 -1.4715  0.4507 -1.5002
  165SAPE  C22018519   3.998   4.566   5.448 -0.1978  0.7817 -0.5110
  165SAPE  H20R18520   3.938   4.552   5.540 -0.4386 -2.4965 -1.0752
  165SAPE  H20S18521   4.104   4.579   5.478 -0.8434  2.5279  1.2382
  165SAPE  H20T18522   3.985   4.475   5.386 -0.6051  1.6859 -1.8182
  165SAPE   C3318523   3.685   3.715   4.169  0.1526 -0.2527 -0.7535
  165SAPE   H3X18524   3.643   3.688   4.268  1.4297 -0.1304 -0.1484
  165SAPE   H3Y18525   3.593   3.742   4.113  1.4013  0.6360 -2.4708
  165SAPE   C3418526   3.778   3.833   4.187 -0.7676 -1.0430  0.6558
  165SAPE   H4X18527   3.716   3.924   4.197  0.4380  0.0338 -1.0931
  165SAPE   H4Y18528   3.830   3.860   4.092 -1.2496 -1.2549  0.3258
  165SAPE   C3518529   3.882   3.820   4.298 -0.1658 -0.2281  0.9009
  165SAPE   H5X18530   3.936   3.917   4.298  0.6230 -0.6283 -0.6598
  165SAPE   H5Y18531   3.961   3.745   4.278 -0.7047 -0.3553 -0.8805
  165SAPE   C3618532   3.809   3.793   4.432 -0.2934  0.0074 -0.1925
  165SAPE   H6X18533   3.768   3.690   4.424 -1.4632  0.5092 -1.0631
  165SAPE   H6Y18534   3.722   3.863   4.436 -0.9446 -0.6529 -1.8419
  165SAPE   C3718535   3.899   3.829   4.548  0.2244 -0.6723  0.3671
  165SAPE   H7X18536   3.948   3.927   4.538 -0.0526 -0.3621  1.8433
  165SAPE   H7Y18537   3.987   3.762   4.552 -0.6660 -2.0381 -1.4078
  165SAPE   C3818538   3.832   3.831   4.682 -0.4704 -0.3497  0.2529
  165SAPE   H8X18539   3.803   3.730   4.719  0.2720 -0.6155  0.1156
  165SAPE   H8Y18540   3.735   3.887   4.687 -1.1915 -1.6276  1.2342
  165SAPE   C3918541   3.931   3.895   4.782 -0.5393 -0.0726 -0.5441
  165SAPE   H9X18542   3.940   4.001   4.748 -0.2338 -0.2225 -0.9280
  165SAPE   H9Y18543   4.032   3.851   4.784 -0.1769  0.7409  1.4362
  165SAPE  C31018544   3.883   3.898   4.924  0.1962  0.3008  0.5776
  165SAPE  H10X18545   3.863   3.793   4.954 -0.3812 -0.0995 -1.1087
  165SAPE  H10Y18546   3.783   3.946   4.935 -1.2418 -2.8556  3.1243
  165SAPE  C31118547   3.982   3.975   5.015 -0.0245  0.8725 -0.1943
  165SAPE  H11X18548   4.085   3.944   4.985  0.1485  1.8643 -0.6451
  165SAPE  H11Y18549   3.960   3.940   5.118  1.1461  0.6728  0.0071
  165SAPE  C31218550   4.000   4.135   5.004  0.1971  0.4678 -0.4081
  165SAPE  H12X18551   4.021   4.165   4.899 -0.9096  0.6076 -0.5968
  165SAPE  H12Y18552   4.091   4.165   5.061  0.0505  0.4345 -0.1570
  165SAPE  C31318553   3.883   4.211   5.078 -0.4564 -0.4134 -0.2185
  165SAPE  H13X18554   3.791   4.168   5.032 -0.2900 -0.8978 -0.1054
  165SAPE  H13Y18555   3.882   4.319   5.054 -2.4286 -0.5654 -1.0373
  165SAPE  C31418556   3.882   4.185   5.232 -0.3197 -0.0316  0.2577
  165SAPE  H14X18557   3.982   4.179   5.280 -0.3961 -3.4324  0.2065
  165SAPE  H14Y18558   3.848   4.080   5.246 -3.9287  0.7718 -1.3834
  165SAPE  C31518559   3.772   4.269   5.303  0.9042 -0.0548  0.3838
  165SAPE  H15X18560   3.692   4.289   5.228  2.5500 -2.2998 -2.1668
  165SAPE  H15Y18561   3.811   4.368   5.334  1.1025  0.4753 -1.4145
  165SAPE  C31618562   3.704   4.197   5.420 -0.2205 -0.7165 -0.1945
  165SAPE  H16X18563   3.673   4.092   5.399 -4.1882  0.2786 -0.0441
  165SAPE  H16Y18564   3.610   4.243   5.457  0.2076  0.2723 -0.3213
  165SAPE  C31718565   3.795   4.198   5.540 -0.5986 -0.6602 -0.4567
  165SAPE  H17X18566   3.846   4.296   5.545  1.1377 -1.4195 -2.0664
  165SAPE  H17Y18567   3.880   4.131   5.519  0.4747  0.6075 -0.2722
  165SAPE  C31818568   3.724   4.165   5.674  0.0447 -0.0775 -0.2205
  165SAPE  H18X18569   3.796   4.124   5.747 -1.0302 -1.3275  0.1794
  165SAPE  H18Y18570   3.654   4.079   5.664  1.8394 -1.5399 -0.6701
  165SAPE  H18Z18571   3.669   4.248   5.724 -1.0187 -1.2434  0.6030
  166SAPE     N18572   5.941   1.912   3.554  0.5006  0.0604 -0.2876
  166SAPE   HN118573   6.017   1.898   3.484 -1.3981 -0.4767 -2.3382
  166SAPE   HN218574   5.923   1.829   3.613  0.8088  1.4733  1.9265
  166SAPE   HN318575   5.855   1.917   3.495 -1.0719 -1.9821  1.6732
  166SAPE   C1218576   5.957   2.039   3.636  0.0768 -0.4878 -0.3685
  166SAPE  H12A18577   5.873   2.034   3.708  0.3129 -0.6034 -0.1005
  166SAPE  H12B18578   5.959   2.126   3.567 -0.2382  0.0063  0.2380
  166SAPE   C1118579   6.086   2.050   3.715  0.2379  0.7160 -0.1994
  166SAPE  H11A18580   6.098   1.958   3.776 -2.5448  0.7801  0.6208
  166SAPE  H11B18581   6.070   2.127   3.794 -0.4268  0.6764 -0.2860
  166SAPE     P18582   6.349   2.055   3.677  0.2953 -0.1778 -0.0787
  166SAPE   O1318583   6.366   1.911   3.705  0.0595  0.2805 -0.1218
  166SAPE   O1418584   6.438   2.122   3.582 -0.4568  0.1059  0.7928
  166SAPE   O1218585   6.201   2.079   3.632  0.2118 -0.4855  0.2852
  166SAPE   O1118586   6.351   2.137   3.811  0.0049 -0.4115  0.0402
  166SAPE    C118587   6.335   2.277   3.820  0.1120 -0.6689  0.5557
  166SAPE    HA18588   6.381   2.327   3.732 -0.0785  0.6913  1.2016
  166SAPE    HB18589   6.229   2.310   3.822  0.8438  2.0080 -0.8296
  166SAPE    C218590   6.398   2.327   3.959  0.1447 -0.4609  0.4636
  166SAPE    HS18591   6.502   2.290   3.975  1.1716  2.6368  1.7502
  166SAPE   O2118592   6.303   2.299   4.068  0.1629  0.3133  0.2204
  166SAPE   C2118593   6.333   2.190   4.130  0.3356  0.7596  0.1455
  166SAPE   O2218594   6.437   2.127   4.131  0.5816  0.0413  0.7120
  166SAPE   C2218595   6.197   2.140   4.189  0.2746  0.6269 -0.3861
  166SAPE   H2R18596   6.138   2.229   4.219  1.5448  1.5628 -0.5690
  166SAPE   H2S18597   6.148   2.080   4.109 -0.6700  0.3811  0.3475
  166SAPE    C318598   6.413   2.480   3.949 -0.2247 -0.2801 -0.1553
  166SAPE    HX18599   6.312   2.526   3.937  0.2753  1.2371  1.2013
  166SAPE    HY18600   6.489   2.500   3.871  3.2782 -0.2588  2.9989
  166SAPE   O3118601   6.479   2.532   4.068  0.1312  0.5056  0.0481
  166SAPE   C3118602   6.418   2.622   4.138 -0.2151  0.2895  0.1982
  166SAPE   O3218603   6.319   2.685   4.102  0.3654  0.0521 -0.1260
  166SAPE   C3218604   6.503   2.648   4.271  0.2696 -0.5910 -0.4440
  166SAPE   H2X18605   6.582   2.724   4.257 -1.0868  0.9119 -0.2639
  166SAPE   H2Y18606   6.555   2.552   4.292 -0.9639 -1.0097  0.9208
  166SAPE   C2318607   6.205   2.064   4.318  0.4479  0.3885 -0.4757
  166SAPE   H3R18608   6.240   2.132   4.398  0.0767 -1.3602  1.2682
  166SAPE   H3S18609   6.285   1.987   4.325 -0.0135 -0.0742 -0.1832
  166SAPE   C2418610   6.071   1.997   4.350  0.3584 -0.0106 -0.0457
  166SAPE   H4R18611   5.997   2.079   4.347  2.9333  2.5443 -4.4518
  166SAPE   H4S18612   6.080   1.945   4.448 -0.2425 -2.9550 -1.4360
  166SAPE   C2518613   6.036   1.889   4.259  0.1129 -0.1676  0.4414
  166SAPE   H5R18614   6.011   1.918   4.156 -1.9090 -0.6509  0.7506
  166SAPE   C2618615   6.019   1.759   4.295  0.9658 -0.4412  0.2497
  166SAPE   H6R18616   5.997   1.681   4.220  2.2653 -2.7361  2.0943
  166SAPE   C2718617   6.031   1.703   4.437  0.3913  0.4702 -0.1956
  166SAPE   H7R18618   5.960   1.620   4.457  1.9406 -0.7134  0.5415
  166SAPE   H7S18619   6.011   1.779   4.516  1.0010 -2.1184  2.6367
  166SAPE   C2818620   6.168   1.662   4.469 -0.1079 -0.1713  0.2644
  166SAPE   H8R18621   6.244   1.717   4.412  0.5894 -2.7962 -1.5093
  166SAPE   C2918622   6.208   1.567   4.554  0.9815  0.7064  0.6051
  166SAPE   H9R18623   6.314   1.544   4.575  1.2478  1.8269  0.5255
  166SAPE  C21018624   6.107   1.477   4.633  0.1661  0.1559  0.3095
  166SAPE  H10R18625   6.004   1.477   4.589 -1.1129  1.3116  3.0671
  166SAPE  H10S18626   6.095   1.510   4.738 -3.6779 -1.9628  0.7418
  166SAPE  C21118627   6.166   1.336   4.656 -0.1422  0.3048 -0.2373
  166SAPE  H11R18628   6.256   1.315   4.595 -0.3729 -1.6134 -0.0008
  166SAPE  C21218629   6.091   1.233   4.705 -0.1287  0.8760  0.1421
  166SAPE  H12R18630   6.150   1.145   4.734  0.0975  0.5810 -1.1820
  166SAPE  C21318631   5.947   1.240   4.750 -1.2768 -0.7980 -0.2558
  166SAPE  H13R18632   5.872   1.253   4.669 -2.3741  2.3718  1.1013
  166SAPE  H13S18633   5.929   1.332   4.809 -1.1168 -0.3510 -0.9048
  166SAPE  C21418634   5.909   1.116   4.826 -0.8339  0.1327  1.0343
  166SAPE  H14R18635   5.961   1.026   4.791  2.4469  2.8285 -1.7091
  166SAPE  C21518636   5.825   1.115   4.932  0.3073  0.0388  0.2041
  166SAPE  H15R18637   5.822   1.019   4.986  1.2263  0.8264  1.7115
  166SAPE  C21618638   5.760   1.233   4.992  0.0635  0.0522  0.1834
  166SAPE  H16R18639   5.651   1.228   4.969 -0.1237  1.3228  0.7099
  166SAPE  H16S18640   5.782   1.332   4.947 -2.1575 -0.0834 -1.3188
  166SAPE  C21718641   5.766   1.258   5.146 -0.2361  0.0352 -0.6221
  166SAPE  H17R18642   5.868   1.287   5.177 -0.5022 -0.2141  0.5712
  166SAPE  H17S18643   5.749   1.163   5.202  3.9726  0.5483  2.0059
  166SAPE  C21818644   5.658   1.364   5.188  0.5723 -0.4887  0.0114
  166SAPE  H18R18645   5.558   1.325   5.158  1.4867 -1.2565 -2.2463
  166SAPE  H18S18646   5.675   1.461   5.139 -1.0102 -0.2870 -0.1977
  166SAPE  C21918647   5.648   1.385   5.341 -0.9279  0.1865 -0.0611
  166SAPE  H19R18648   5.752   1.404   5.377 -1.7892  0.9803  2.1892
  166SAPE  H19S18649   5.610   1.294   5.393  1.3695 -1.2472 -0.7305
  166SAPE  C22018650   5.560   1.509   5.370 -0.2405  0.0487 -0.0692
  166SAPE  H20R18651   5.577   1.588   5.294  0.3742 -0.6188 -0.6350
  166SAPE  H20S18652   5.577   1.556   5.469  0.1090  2.4921 -1.2175
  166SAPE  H20T18653   5.456   1.473   5.359  0.1630 -0.7246 -1.5112
  166SAPE   C3318654   6.419   2.672   4.397 -0.0947  0.3297  0.0151
  166SAPE   H3X18655   6.453   2.642   4.498 -3.6441 -0.6209  1.0818
  166SAPE   H3Y18656   6.325   2.614   4.381 -0.5280  0.7925  0.8223
  166SAPE   C3418657   6.381   2.820   4.413  0.6600  0.2929 -0.3557
  166SAPE   H4X18658   6.340   2.839   4.311  0.6989 -1.4402 -0.7215
  166SAPE   H4Y18659   6.468   2.888   4.428  0.7273  0.3007 -0.7793
  166SAPE   C3518660   6.281   2.837   4.537  0.0385 -0.2829  0.2006
  166SAPE   H5X18661   6.353   2.793   4.610  2.6624  0.2079 -1.9163
  166SAPE   H5Y18662   6.194   2.769   4.528 -0.3364 -0.0876  1.9797
  166SAPE   C3618663   6.248   2.981   4.582 -0.3144 -0.1843 -0.2200
  166SAPE   H6X18664   6.183   3.019   4.500  3.0776  0.0546 -2.9959
  166SAPE   H6Y18665   6.346   3.033   4.583  0.8790 -2.3035 -0.8271
  166SAPE   C3718666   6.174   2.988   4.718  0.2131 -0.1119 -0.1059
  166SAPE   H7X18667   6.248   2.953   4.792  1.5284 -0.1358 -1.3927
  166SAPE   H7Y18668   6.090   2.916   4.709 -1.4680  1.9300 -1.6817
  166SAPE   C3818669   6.126   3.128   4.761 -0.2478 -0.6628  0.0978
  166SAPE   H8X18670   6.057   3.161   4.680 -0.6202 -0.3984  0.5200
  166SAPE   H8Y18671   6.210   3.201   4.765 -0.0898 -0.8790  0.9634
  166SAPE   C3918672   6.054   3.127   4.893  0.6459 -0.1417  0.3547
  166SAPE   H9X18673   6.107   3.083   4.980  2.1905  0.0637 -0.4602
  166SAPE   H9Y18674   5.963   3.065   4.877  1.7779 -1.8959  0.4008
  166SAPE  C31018675   6.009   3.264   4.945 -0.1130 -0.5162 -0.1022
  166SAPE  H10X18676   5.921   3.304   4.891 -1.6520 -0.5221  2.2609
  166SAPE  H10Y18677   6.095   3.328   4.914 -0.1147 -0.1264  0.6922
  166SAPE  C31118678   5.967   3.287   5.093 -0.7136 -0.1817 -0.8459
  166SAPE  H11X18679   5.961   3.396   5.111 -0.4220 -0.3912  0.6480
  166SAPE  H11Y18680   6.056   3.258   5.154 -0.4817  2.0212 -0.0443
  166SAPE  C31218681   5.840   3.212   5.148 -0.1321 -0.2930 -0.5405
  166SAPE  H12X18682   5.867   3.105   5.138  2.2169  0.3762 -2.1851
  166SAPE  H12Y18683   5.748   3.231   5.088 -0.1778  0.1997 -0.3215
  166SAPE  C31318684   5.818   3.256   5.290  0.0314  0.1642 -0.2521
  166SAPE  H13X18685   5.798   3.365   5.288  1.7001  0.4922 -0.4683
  166SAPE  H13Y18686   5.903   3.237   5.359  1.0331  2.5919 -0.6960
  166SAPE  C31418687   5.698   3.175   5.351  0.1096  0.2404  1.0310
  166SAPE  H14X18688   5.612   3.169   5.281  1.5458  1.6537 -1.0012
  166SAPE  H14Y18689   5.667   3.237   5.438  1.6733  0.5070  1.4449
  166SAPE  C31518690   5.746   3.045   5.402  0.1240 -0.6308  0.7131
  166SAPE  H15X18691   5.834   3.062   5.467 -0.4756  0.5122  1.2500
  166SAPE  H15Y18692   5.782   2.984   5.316  0.7547 -0.0989  0.6040
  166SAPE  C31618693   5.619   2.975   5.464 -1.6662  0.3116  0.2303
  166SAPE  H16X18694   5.552   2.959   5.377 -0.1544  0.2785 -0.9761
  166SAPE  H16Y18695   5.571   3.055   5.525 -2.4802  0.2945 -0.3847
  166SAPE  C31718696   5.646   2.856   5.552 -0.3619  0.6407 -0.3195
  166SAPE  H17X18697   5.739   2.871   5.611 -0.2151 -0.4627 -0.2582
  166SAPE  H17Y18698   5.670   2.762   5.498  1.2549  0.6274  0.3589
  166SAPE  C31818699   5.533   2.818   5.648 -0.5069  0.2848  0.1764
  166SAPE  H18X18700   5.541   2.879   5.740  4.7088 -1.9814  1.5638
  166SAPE  H18Y18701   5.539   2.714   5.685  2.0829  0.4900  0.5179
  166SAPE  H18Z18702   5.431   2.828   5.603  0.0252  2.3654 -0.7344
  167SAPE     N18703   0.147   3.605   3.544  0.0744 -0.1745 -0.2499
  167SAPE   HN118704   0.214   3.527   3.531 -2.4378 -2.9421  1.9544
  167SAPE   HN218705   0.168   3.697   3.500 -2.2432  0.1914 -0.7486
  167SAPE   HN318706   0.134   3.619   3.646  0.4209 -1.7031  0.0312
  167SAPE   C1218707   0.025   3.539   3.484  0.5484 -0.4238  0.0198
  167SAPE  H12A18708  -0.007   3.448   3.539  0.1522 -1.2613 -1.5137
  167SAPE  H12B18709   0.060   3.497   3.387 -0.4721  1.4500 -1.2107
  167SAPE   C1118710  -0.100   3.624   3.450  0.0330  0.0104  0.1711
  167SAPE  H11A18711  -0.157   3.641   3.544 -2.3312  0.5705 -1.2859
  167SAPE  H11B18712  -0.157   3.569   3.372 -0.1120  1.6831 -0.9693
  167SAPE     P18713  -0.174   3.854   3.377  0.2379 -0.0536  0.1128
  167SAPE   O1318714  -0.143   3.947   3.269 -0.0262 -0.1608 -0.1357
  167SAPE   O1418715  -0.297   3.776   3.353 -0.0738 -0.3288  0.3482
  167SAPE   O1218716  -0.061   3.750   3.393  0.4506  0.6968  0.2599
  167SAPE   O1118717  -0.177   3.926   3.510 -0.0438  0.1912  0.1911
  167SAPE    C118718  -0.064   3.959   3.584 -0.1130 -0.2229  0.6696
  167SAPE    HA18719  -0.019   3.871   3.633  0.4531 -0.5454 -0.3935
  167SAPE    HB18720   0.011   4.012   3.520  0.5509 -3.0660 -1.1144
  167SAPE    C218721  -0.096   4.061   3.698  0.4837 -0.1394 -0.0460
  167SAPE    HS18722  -0.000   4.090   3.745  1.6176  0.8014 -2.7538
  167SAPE   O2118723  -0.193   4.004   3.787 -0.2993 -0.2878  0.4654
  167SAPE   C2118724  -0.139   3.931   3.885 -0.5928 -0.2770 -0.4277
  167SAPE   O2218725  -0.017   3.907   3.889  0.2874  0.5965  0.1942
  167SAPE   C2218726  -0.247   3.888   3.985  0.7101 -0.4708  0.1975
  167SAPE   H2R18727  -0.256   3.974   4.055  1.5602 -0.7864  0.7145
  167SAPE   H2S18728  -0.335   3.869   3.919 -0.2112 -2.9033  1.9353
  167SAPE    C318729  -0.156   4.198   3.635 -0.2754  0.0651 -1.6861
  167SAPE    HX18730  -0.228   4.177   3.553 -0.7958  1.8828 -1.7249
  167SAPE    HY18731  -0.065   4.243   3.590 -0.7805 -0.4254 -3.2537
  167SAPE   O3118732  -0.215   4.278   3.744 -0.0464 -0.1933  0.5237
  167SAPE   C3118733  -0.341   4.254   3.753  0.1464  0.1999 -0.2212
  167SAPE   O3218734  -0.416   4.198   3.677  0.4814  0.1285  0.2993
  167SAPE   C3218735  -0.384   4.318   3.887 -0.1908  0.0712 -0.1884
  167SAPE   H2X18736  -0.392   4.425   3.857  0.1626  0.1315 -0.0641
  167SAPE   H2Y18737  -0.296   4.298   3.950 -0.3794 -1.5465 -0.3877
  167SAPE   C2318738  -0.195   3.758   4.052  1.0266 -1.0662 -0.1871
  167SAPE   H3R18739  -0.123   3.700   3.990 -0.2892 -1.2796 -1.5823
  167SAPE   H3S18740  -0.283   3.691   4.059  0.1766  0.0502  0.1277
  167SAPE   C2418741  -0.157   3.776   4.197 -0.0198 -0.0902  0.0622
  167SAPE   H4R18742  -0.179   3.683   4.253 -0.0493  1.1550  2.2061
  167SAPE   H4S18743  -0.221   3.853   4.245 -1.3675 -0.5402 -0.9254
  167SAPE   C2518744  -0.014   3.817   4.198  0.2527  0.5044  0.2100
  167SAPE   H5R18745   0.017   3.900   4.132  0.4784  0.0056 -0.3132
  167SAPE   C2618746   0.080   3.747   4.255 -0.4994  0.3887 -0.0013
  167SAPE   H6R18747   0.187   3.773   4.252 -0.5029  0.5167  0.7546
  167SAPE   C2718748   0.068   3.614   4.334  0.0652 -0.8394  0.0343
  167SAPE   H7R18749  -0.018   3.557   4.293 -0.3367  0.0353 -0.3849
  167SAPE   H7S18750   0.047   3.648   4.437 -0.2113  0.8351 -0.5339
  167SAPE   C2818751   0.186   3.521   4.316  0.1815 -0.2189  0.7644
  167SAPE   H8R18752   0.207   3.517   4.208  1.2374  4.0451  0.6179
  167SAPE   C2918753   0.251   3.459   4.419  0.2354  0.5133 -0.2945
  167SAPE   H9R18754   0.331   3.387   4.397  1.7124  0.2023  4.8641
  167SAPE  C21018755   0.224   3.490   4.568 -0.4829  0.1241  0.1943
  167SAPE  H10R18756   0.223   3.397   4.629  0.0283 -0.0711 -0.0909
  167SAPE  H10S18757   0.119   3.525   4.576  0.0104  1.7622 -0.2093
  167SAPE  C21118758   0.328   3.587   4.615 -0.3482  0.2236  0.4304
  167SAPE  H11R18759   0.365   3.670   4.553  0.1602 -0.1348  0.2526
  167SAPE  C21218760   0.352   3.598   4.748  0.1725  0.3467  0.5725
  167SAPE  H12R18761   0.426   3.672   4.783  0.8342 -0.5851  1.1687
  167SAPE  C21318762   0.288   3.537   4.860 -0.7502 -0.0460  0.2074
  167SAPE  H13R18763   0.183   3.520   4.828 -0.6277  3.3104 -2.4970
  167SAPE  H13S18764   0.272   3.610   4.942  1.4368 -0.6095  1.2087
  167SAPE  C21418765   0.342   3.408   4.906 -1.2685  0.1847 -0.3496
  167SAPE  H14R18766   0.393   3.353   4.826  0.1447  0.8943  0.0261
  167SAPE  C21518767   0.363   3.363   5.031 -0.1178 -0.6069  0.1813
  167SAPE  H15R18768   0.403   3.261   5.040 -0.3847 -1.0024 -2.4948
  167SAPE  C21618769   0.310   3.433   5.159 -0.7425  0.4558 -0.0289
  167SAPE  H16R18770   0.223   3.374   5.195  0.0387 -2.7834 -2.9495
  167SAPE  H16S18771   0.265   3.533   5.144 -2.5095 -0.2813  0.1051
  167SAPE  C21718772   0.407   3.464   5.284 -0.5756 -1.2110  0.0074
  167SAPE  H17R18773   0.486   3.534   5.248 -1.8571 -0.3251 -1.1637
  167SAPE  H17S18774   0.459   3.370   5.315 -1.0487 -0.5754  2.9251
  167SAPE  C21818775   0.325   3.510   5.407  0.0429  0.9972  0.5725
  167SAPE  H18R18776   0.256   3.427   5.431  0.7650 -0.4108 -1.9220
  167SAPE  H18S18777   0.267   3.601   5.379  0.1191  1.1900  1.0203
  167SAPE  C21918778   0.405   3.545   5.529 -0.9342  0.3107  0.5985
  167SAPE  H19R18779   0.486   3.616   5.504 -0.6817 -0.5154 -1.0936
  167SAPE  H19S18780   0.466   3.458   5.561 -1.3570  0.8613  3.1101
  167SAPE  C22018781   0.336   3.605   5.652  0.4424 -0.4539 -0.0434
  167SAPE  H20R18782   0.400   3.640   5.736 -1.3281 -0.0984  1.2237
  167SAPE  H20S18783   0.256   3.534   5.684 -1.3725  1.3284 -0.4514
  167SAPE  H20T18784   0.290   3.700   5.618  1.8671  0.1095 -0.4637
  167SAPE   C3318785  -0.505   4.258   3.963 -0.6166 -0.4220  0.5529
  167SAPE   H3X18786  -0.524   4.152   3.939 -1.1813 -0.4714  1.1883
  167SAPE   H3Y18787  -0.598   4.313   3.938 -2.1697 -2.4020  1.6927
  167SAPE   C3418788  -0.488   4.260   4.118  0.0503 -0.0228 -0.0166
  167SAPE   H4X18789  -0.477   4.365   4.153  2.2123 -0.4127  0.5658
  167SAPE   H4Y18790  -0.395   4.204   4.139  0.8413  1.1045 -0.3954
  167SAPE   C3518791  -0.603   4.206   4.197  0.0276 -0.1658 -0.0949
  167SAPE   H5X18792  -0.636   4.116   4.141 -2.0507  1.2833 -1.3259
  167SAPE   H5Y18793  -0.693   4.271   4.192 -1.5231 -2.0874  1.4844
  167SAPE   C3618794  -0.572   4.185   4.345  0.1572 -0.0441  0.4238
  167SAPE   H6X18795  -0.497   4.264   4.366  0.3450  0.0048 -0.4091
  167SAPE   H6Y18796  -0.522   4.087   4.359  1.1829  0.3304 -0.4992
  167SAPE   C3718797  -0.703   4.192   4.426 -0.0353 -0.5703  0.1733
  167SAPE   H7X18798  -0.764   4.102   4.404  2.3121 -2.2263  0.0871
  167SAPE   H7Y18799  -0.752   4.288   4.398  0.3885 -0.6940 -1.0214
  167SAPE   C3818800  -0.682   4.195   4.581 -0.1416  0.1237 -0.2273
  167SAPE   H8X18801  -0.777   4.230   4.626 -0.6282 -0.7377 -0.5567
  167SAPE   H8Y18802  -0.596   4.261   4.605  0.0449  0.4933 -1.7791
  167SAPE   C3918803  -0.655   4.054   4.637 -0.2364  0.6405 -0.0445
  167SAPE   H9X18804  -0.573   4.001   4.586 -1.6086 -2.0807  0.3942
  167SAPE   H9Y18805  -0.744   3.991   4.615  0.9293 -0.4028 -1.9866
  167SAPE  C31018806  -0.612   4.061   4.792  0.0817  0.0984  0.5369
  167SAPE  H10X18807  -0.700   4.102   4.846 -1.2289 -1.4214 -0.3406
  167SAPE  H10Y18808  -0.525   4.129   4.805 -0.7264  1.1554  0.6444
  167SAPE  C31118809  -0.582   3.923   4.858  0.1044 -0.5800  0.7899
  167SAPE  H11X18810  -0.529   3.859   4.784  0.1081 -0.2529  0.5048
  167SAPE  H11Y18811  -0.678   3.871   4.878 -1.7625  0.6437 -3.7064
  167SAPE  C31218812  -0.507   3.939   4.989 -0.6689 -0.0926  0.7155
  167SAPE  H12X18813  -0.429   4.017   4.979  0.4621 -1.3356 -0.5085
  167SAPE  H12Y18814  -0.455   3.842   5.007  1.8568  0.5401 -2.3390
  167SAPE  C31318815  -0.588   3.993   5.108  0.1655  0.6681 -0.0062
  167SAPE  H13X18816  -0.682   3.935   5.105  1.3759 -1.4667  1.0316
  167SAPE  H13Y18817  -0.607   4.101   5.091  0.1293  1.0397  2.1388
  167SAPE  C31418818  -0.520   3.962   5.239  0.0967  0.3370 -0.2531
  167SAPE  H14X18819  -0.422   4.015   5.235 -0.0709  1.2512  3.4962
  167SAPE  H14Y18820  -0.505   3.852   5.247 -1.1673  0.0276 -1.7214
  167SAPE  C31518821  -0.587   4.018   5.361 -0.6215  0.3011  0.4379
  167SAPE  H15X18822  -0.690   3.976   5.369  0.8556 -3.9865 -0.5118
  167SAPE  H15Y18823  -0.605   4.128   5.357 -0.0203  0.4143  0.6502
  167SAPE  C31618824  -0.516   3.978   5.493  0.5727  1.0434  0.2039
  167SAPE  H16X18825  -0.409   4.007   5.484  0.5532  0.4206 -3.4943
  167SAPE  H16Y18826  -0.534   3.871   5.518  1.3616  1.0110  0.6618
  167SAPE  C31718827  -0.577   4.051   5.613  0.1118  0.2913 -0.4942
  167SAPE  H17X18828  -0.669   3.993   5.633  1.5511 -1.8396  0.3392
  167SAPE  H17Y18829  -0.600   4.157   5.587  0.4939  0.2184 -1.1478
  167SAPE  C31818830  -0.496   4.038   5.738  0.3489  0.6593 -0.0122
  167SAPE  H18X18831  -0.399   4.093   5.733 -0.2764  1.7913  0.0544
  167SAPE  H18Y18832  -0.468   3.931   5.739 -1.4685  0.1445 -0.3070
  167SAPE  H18Z18833  -0.549   4.045   5.835 -0.1135  0.7561 -0.2664
  168SAPE     N18834   2.707   2.122   3.273 -0.6206  0.4020 -0.1126
  168SAPE   HN118835   2.624   2.149   3.217  0.4042 -0.1851 -2.0093
  168SAPE   HN218836   2.769   2.069   3.209 -3.2809 -0.3801 -2.2222
  168SAPE   HN318837   2.686   2.053   3.349 -0.1167 -0.4323 -0.7108
  168SAPE   C1218838   2.762   2.254   3.316  0.9132 -0.7033 -0.5056
  168SAPE  H12A18839   2.772   2.320   3.227 -1.1085  0.4337  0.0557
  168SAPE  H12B18840   2.856   2.238   3.374  0.7976  1.2649  0.3110
  168SAPE   C1118841   2.658   2.318   3.407 -0.5068  0.2295 -0.0105
  168SAPE  H11A18842   2.689   2.415   3.452  1.4330  0.4226 -1.6114
  168SAPE  H11B18843   2.624   2.249   3.487 -0.1587  0.7195  0.5677
  168SAPE     P18844   2.432   2.442   3.358  0.2864  0.0635  0.4020
  168SAPE   O1318845   2.407   2.529   3.240  0.7365  0.3812  0.5406
  168SAPE   O1418846   2.329   2.345   3.396 -0.3052 -0.9404 -0.2450
  168SAPE   O1218847   2.555   2.346   3.313  0.6044 -1.1166 -0.9355
  168SAPE   O1118848   2.478   2.521   3.483 -0.1473 -0.0385  0.1183
  168SAPE    C118849   2.396   2.608   3.556  0.1444 -0.6880 -0.3860
  168SAPE    HA18850   2.441   2.708   3.543 -0.2840 -0.6107 -1.3450
  168SAPE    HB18851   2.301   2.631   3.504  0.3002 -0.6898 -0.6728
  168SAPE    C218852   2.376   2.558   3.700  0.6837 -0.2844 -0.7391
  168SAPE    HS18853   2.329   2.458   3.684 -1.2407  0.5078 -0.2238
  168SAPE   O2118854   2.294   2.646   3.779 -0.8117  0.2156  0.7795
  168SAPE   C2118855   2.161   2.637   3.760  0.4886 -0.0137 -0.4688
  168SAPE   O2218856   2.101   2.550   3.701  0.2486 -0.1873 -0.2745
  168SAPE   C2218857   2.103   2.758   3.822 -0.0600 -0.2801  0.2681
  168SAPE   H2R18858   2.169   2.773   3.910  1.3576  1.3026 -0.9956
  168SAPE   H2S18859   2.104   2.844   3.752 -1.3783 -0.2487  0.2622
  168SAPE    C318860   2.514   2.540   3.775  0.0541  0.3010 -0.7351
  168SAPE    HX18861   2.561   2.641   3.769 -2.0493  1.4363  0.5871
  168SAPE    HY18862   2.587   2.476   3.722  0.7975  0.1476  0.4320
  168SAPE   O3118863   2.488   2.502   3.913 -0.6584 -0.2394 -0.1676
  168SAPE   C3118864   2.466   2.377   3.938  0.2083  0.3634 -0.6431
  168SAPE   O3218865   2.455   2.289   3.854  0.5279  0.1176  0.4289
  168SAPE   C3218866   2.453   2.363   4.091  0.0770  0.2383  0.6073
  168SAPE   H2X18867   2.443   2.465   4.132 -0.3577  0.6145 -0.3908
  168SAPE   H2Y18868   2.544   2.312   4.129 -0.3530  0.8893  2.6120
  168SAPE   C2318869   1.963   2.744   3.865  0.2173  0.0278  0.2632
  168SAPE   H3R18870   1.936   2.648   3.914  0.9101 -1.3995 -2.0026
  168SAPE   H3S18871   1.888   2.758   3.784  1.5591 -0.0302 -1.0322
  168SAPE   C2418872   1.926   2.845   3.974  0.5876  0.4916  0.1054
  168SAPE   H4R18873   1.992   2.816   4.059  0.9649 -0.2689 -0.4383
  168SAPE   H4S18874   1.819   2.827   3.993  0.3893  1.4968  0.0312
  168SAPE   C2518875   1.960   2.986   3.931  0.2159  0.1154 -0.1977
  168SAPE   H5R18876   1.936   3.011   3.827 -1.6916 -0.2812  0.1107
  168SAPE   C2618877   2.019   3.076   4.011 -0.3223 -0.0871 -0.5985
  168SAPE   H6R18878   2.029   3.175   3.964 -2.0670 -0.9652 -3.0426
  168SAPE   C2718879   2.062   3.069   4.158  0.2346 -0.7072 -0.1694
  168SAPE   H7R18880   2.133   3.152   4.178 -1.4297  1.0697 -1.3398
  168SAPE   H7S18881   2.116   2.974   4.178 -1.9854 -1.9234  0.3791
  168SAPE   C2818882   1.944   3.081   4.259 -0.4619 -0.2963  0.5517
  168SAPE   H8R18883   1.846   3.103   4.214 -0.7518 -2.6531 -0.0935
  168SAPE   C2918884   1.950   3.058   4.392  0.6991  0.1262  0.0859
  168SAPE   H9R18885   1.856   3.062   4.448  0.5140 -0.1280 -0.2013
  168SAPE  C21018886   2.077   3.037   4.471  0.1707 -0.4567  0.0877
  168SAPE  H10R18887   2.147   2.976   4.411  0.3830  1.4104 -1.6698
  168SAPE  H10S18888   2.051   2.964   4.551 -0.8076 -2.0829 -1.6512
  168SAPE  C21118889   2.129   3.166   4.518  0.4014  0.4266 -1.2888
  168SAPE  H11R18890   2.121   3.240   4.437  0.2466  1.3434 -0.4536
  168SAPE  C21218891   2.156   3.208   4.643 -0.4507 -0.3784 -0.2446
  168SAPE  H12R18892   2.177   3.315   4.660 -0.0317 -0.0217 -2.7053
  168SAPE  C21318893   2.153   3.118   4.764  0.4376  1.0889 -0.1618
  168SAPE  H13R18894   2.135   3.010   4.745 -0.4326  1.2902 -0.5092
  168SAPE  H13S18895   2.079   3.148   4.841 -1.3921 -3.0672 -0.0569
  168SAPE  C21418896   2.292   3.114   4.826  0.5245 -0.9730  0.2932
  168SAPE  H14R18897   2.362   3.048   4.772 -0.4086  0.1685 -2.4945
  168SAPE  C21518898   2.340   3.185   4.925  0.8618 -0.2317 -0.6431
  168SAPE  H15R18899   2.445   3.170   4.955  0.6517 -0.0413  0.2056
  168SAPE  C21618900   2.269   3.297   5.006  0.2536  0.3229  1.2109
  168SAPE  H16R18901   2.189   3.345   4.946 -1.1213 -2.7546  0.3466
  168SAPE  H16S18902   2.353   3.365   5.029  1.0544  0.1466 -0.9647
  168SAPE  C21718903   2.209   3.245   5.138  0.0581  0.0347 -0.0179
  168SAPE  H17R18904   2.294   3.205   5.198  1.1515 -0.9103 -2.1264
  168SAPE  H17S18905   2.139   3.160   5.120 -2.5655  1.6541  1.7888
  168SAPE  C21818906   2.135   3.350   5.222  0.3312 -0.2143 -0.0930
  168SAPE  H18R18907   2.078   3.426   5.165 -1.5729  0.1036  2.0906
  168SAPE  H18S18908   2.211   3.417   5.269  1.9425 -1.5011 -0.7488
  168SAPE  C21918909   2.029   3.314   5.334 -0.2209 -0.2595 -0.2605
  168SAPE  H19R18910   1.931   3.296   5.285  0.6540  1.3796 -2.8142
  168SAPE  H19S18911   2.018   3.401   5.403 -0.1580 -0.2885 -0.2132
  168SAPE  C22018912   2.066   3.180   5.402  0.4285  0.3217 -0.9470
  168SAPE  H20R18913   2.060   3.094   5.332 -1.3438 -1.0164  0.7436
  168SAPE  H20S18914   1.989   3.144   5.474 -0.2612 -1.7586 -2.6194
  168SAPE  H20T18915   2.167   3.190   5.447  0.5101 -0.6024 -0.8983
  168SAPE   C3318916   2.326   2.284   4.115 -0.5764  1.7303  0.3198
  168SAPE   H3X18917   2.324   2.275   4.226 -1.5284 -0.0386  0.1938
  168SAPE   H3Y18918   2.314   2.180   4.078  0.7709  1.4211  0.6894
  168SAPE   C3418919   2.190   2.345   4.066  0.3716 -0.3804 -0.0773
  168SAPE   H4X18920   2.106   2.287   4.110  0.9139  0.0295  1.6084
  168SAPE   H4Y18921   2.172   2.341   3.957 -2.2073 -1.8673  0.3249
  168SAPE   C3518922   2.173   2.492   4.113  0.2482  0.5428  0.3720
  168SAPE   H5X18923   2.075   2.535   4.081 -0.7865 -0.7219  1.7005
  168SAPE   H5Y18924   2.257   2.554   4.075 -0.2399  1.7936  1.2474
  168SAPE   C3618925   2.164   2.507   4.268 -0.0708 -0.0471 -0.5127
  168SAPE   H6X18926   2.266   2.535   4.299  0.6567 -1.1373 -1.8107
  168SAPE   H6Y18927   2.134   2.408   4.307  1.5848 -0.0381  0.8505
  168SAPE   C3718928   2.056   2.612   4.315  0.4933 -0.2372 -0.5203
  168SAPE   H7X18929   1.965   2.592   4.255 -1.2273  0.9379  1.5494
  168SAPE   H7Y18930   2.089   2.711   4.277 -2.2580  1.7617  1.8503
  168SAPE   C3818931   2.023   2.618   4.467 -0.1752  0.4954  0.0987
  168SAPE   H8X18932   2.018   2.512   4.498  0.1502 -0.3676 -2.5370
  168SAPE   H8Y18933   1.922   2.655   4.496 -0.0105  0.6649  0.4570
  168SAPE   C3918934   2.143   2.680   4.544  0.1381  0.9273  0.3468
  168SAPE   H9X18935   2.160   2.780   4.500 -0.1877  1.4549  1.3899
  168SAPE   H9Y18936   2.238   2.627   4.522 -1.2856 -1.3945 -0.6422
  168SAPE  C31018937   2.125   2.664   4.695 -0.3421 -0.3732 -0.2082
  168SAPE  H10X18938   2.100   2.557   4.713  0.8330 -0.6962 -0.4686
  168SAPE  H10Y18939   2.035   2.721   4.728  0.5211 -0.7671  3.1759
  168SAPE  C31118940   2.253   2.694   4.776  0.3330  0.3587  0.0583
  168SAPE  H11X18941   2.276   2.790   4.725  1.3092 -0.6015 -1.3706
  168SAPE  H11Y18942   2.335   2.620   4.762  1.5362  1.1714  2.3242
  168SAPE  C31218943   2.221   2.728   4.921 -0.1739  0.0501 -0.1893
  168SAPE  H12X18944   2.185   2.641   4.979  1.2727 -0.0968  0.5379
  168SAPE  H12Y18945   2.145   2.809   4.928  1.3131  1.5118 -0.0166
  168SAPE  C31318946   2.340   2.791   4.992 -0.4144  0.7629  0.3590
  168SAPE  H13X18947   2.394   2.860   4.925 -2.2613  0.9724 -1.0061
  168SAPE  H13Y18948   2.401   2.699   5.001  0.4644  1.3777  0.7729
  168SAPE  C31418949   2.307   2.855   5.119 -0.1751 -0.7766 -0.3259
  168SAPE  H14X18950   2.256   2.782   5.186  0.7680  1.1156  2.6488
  168SAPE  H14Y18951   2.232   2.936   5.109  0.3651 -0.3458 -0.9096
  168SAPE  C31518952   2.430   2.908   5.193  0.2329  0.4947 -0.0037
  168SAPE  H15X18953   2.409   2.927   5.300 -0.5355 -0.2678 -0.0075
  168SAPE  H15Y18954   2.459   3.007   5.154  2.0819  0.0698  0.1980
  168SAPE  C31618955   2.553   2.811   5.194 -0.0155 -0.3060  0.3477
  168SAPE  H16X18956   2.595   2.810   5.091 -2.2829 -0.0269 -0.6362
  168SAPE  H16Y18957   2.505   2.714   5.216 -0.9592 -0.0071 -0.3427
  168SAPE  C31718958   2.671   2.830   5.287 -0.0720  0.1163 -0.0575
  168SAPE  H17X18959   2.630   2.849   5.388 -1.6606  1.0674 -0.8437
  168SAPE  H17Y18960   2.719   2.927   5.263 -1.3693  0.5497 -1.0058
  168SAPE  C31818961   2.772   2.717   5.282 -0.4101 -0.4667 -0.5129
  168SAPE  H18X18962   2.859   2.752   5.341 -0.0678 -0.3890 -1.0581
  168SAPE  H18Y18963   2.801   2.686   5.180 -2.0211 -0.6119 -0.9462
  168SAPE  H18Z18964   2.731   2.624   5.327 -1.4864  1.0064  1.7846
  169SAPE     N18965   6.619   2.990   3.414 -0.7233  0.1491  0.0350
  169SAPE   HN118966   6.614   2.981   3.518 -0.6715  1.0850  0.1333
  169SAPE   HN218967   6.711   3.016   3.375 -0.4168  2.1356  1.9033
  169SAPE   HN318968   6.556   3.071   3.394  0.3703  1.0587  0.1903
  169SAPE   C1218969   6.563   2.875   3.332  0.3458  0.8145  0.2516
  169SAPE  H12A18970   6.644   2.800   3.317 -0.6079 -0.5892  1.7614
  169SAPE  H12B18971   6.543   2.910   3.229  2.2823 -2.6750 -1.5163
  169SAPE   C1118972   6.441   2.802   3.399  0.1771 -0.5481  0.6662
  169SAPE  H11A18973   6.391   2.736   3.324  2.6702 -1.9379  0.1086
  169SAPE  H11B18974   6.361   2.874   3.427  0.3504  0.5780 -1.4918
  169SAPE     P18975   6.546   2.569   3.493  0.0689 -0.2642  0.0229
  169SAPE   O1318976   6.509   2.511   3.623 -0.0316  0.2822 -0.1335
  169SAPE   O1418977   6.507   2.508   3.366  0.1499 -0.9313  0.4437
  169SAPE   O1218978   6.482   2.718   3.503  0.3676 -0.1481  0.6094
  169SAPE   O1118979   6.701   2.601   3.488 -0.3231 -0.1934 -0.4154
  169SAPE    C118980   6.762   2.713   3.560 -0.0536 -0.1987 -0.6758
  169SAPE    HA18981   6.818   2.785   3.496  1.1245 -1.0633 -0.6417
  169SAPE    HB18982   6.693   2.772   3.624  1.0837  0.8750 -0.3784
  169SAPE    C218983   6.857   2.664   3.666  0.3488  0.2010  0.4583
  169SAPE    HS18984   6.894   2.761   3.706  0.3976  1.2904 -2.0190
  169SAPE   O2118985   6.953   2.585   3.595 -0.1515 -0.2560 -0.2407
  169SAPE   C2118986   7.074   2.581   3.657  0.1068  0.6840  0.0600
  169SAPE   O2218987   7.113   2.666   3.732 -0.1314 -0.7288  0.1837
  169SAPE   C2218988   7.145   2.453   3.619 -0.5558 -0.0676  0.2644
  169SAPE   H2R18989   7.069   2.374   3.601 -1.3730  1.0000 -1.1768
  169SAPE   H2S18990   7.195   2.481   3.524  0.8864  0.6484  1.2002
  169SAPE    C318991   6.786   2.575   3.772 -0.6508  0.2864 -0.3485
  169SAPE    HX18992   6.784   2.474   3.727  1.6537  0.9116 -2.0435
  169SAPE    HY18993   6.680   2.610   3.777 -0.6951  0.0791  0.2804
  169SAPE   O3118994   6.857   2.575   3.897 -0.2844 -0.1789 -0.4929
  169SAPE   C3118995   6.855   2.692   3.971  0.3308 -0.1694 -0.0360
  169SAPE   O3218996   6.797   2.794   3.936 -0.0693 -0.0642  0.2457
  169SAPE   C3218997   6.924   2.666   4.103 -0.2072 -0.3085 -0.1854
  169SAPE   H2X18998   7.033   2.660   4.081  0.1347  1.5436  0.7547
  169SAPE   H2Y18999   6.889   2.573   4.152  0.6952  1.0518  3.3440
  169SAPE   C2319000   7.258   2.396   3.711 -0.4615 -0.4401  0.0031
  169SAPE   H3R19001   7.336   2.475   3.708 -0.0495 -0.8597 -0.9949
  169SAPE   H3S19002   7.295   2.304   3.661 -4.3557 -0.2983 -3.6991
  169SAPE   C2419003   7.230   2.362   3.867  0.0433 -0.0780  0.7976
  169SAPE   H4R19004   7.154   2.281   3.869 -0.8176  0.6614 -0.5459
  169SAPE   H4S19005   7.178   2.453   3.905  2.3549  1.2916  0.8719
  169SAPE   C2519006   7.358   2.336   3.940  0.9192 -0.2481 -0.8287
  169SAPE   H5R19007   7.413   2.245   3.911 -0.3093 -1.0789 -0.6477
  169SAPE   C2619008   7.391   2.387   4.064  0.6273  0.1284  0.3470
  169SAPE   H6R19009   7.488   2.367   4.111  1.8992  4.2684 -0.0954
  169SAPE   C2719010   7.306   2.472   4.155 -0.0132 -0.5338  0.0836
  169SAPE   H7R19011   7.216   2.411   4.176  0.4848 -1.4487 -0.3591
  169SAPE   H7S19012   7.287   2.567   4.099  1.8786  0.6151  1.2696
  169SAPE   C2819013   7.363   2.512   4.285 -0.7687  0.0211  0.2373
  169SAPE   H8R19014   7.456   2.570   4.274 -1.2744  0.9726  0.9083
  169SAPE   C2919015   7.350   2.451   4.402 -0.1719 -0.4124  0.4120
  169SAPE   H9R19016   7.400   2.497   4.488 -0.1793  1.9888 -0.8024
  169SAPE  C21019017   7.257   2.331   4.420  0.4217 -0.2378 -0.4488
  169SAPE  H10R19018   7.276   2.251   4.344 -1.3178 -1.2749  0.1434
  169SAPE  H10S19019   7.155   2.364   4.392 -0.1458 -0.2072  1.5696
  169SAPE  C21119020   7.264   2.272   4.558 -0.4050 -0.3477  0.5759
  169SAPE  H11R19021   7.330   2.188   4.587  3.2505  2.6772  1.8293
  169SAPE  C21219022   7.189   2.314   4.654  0.7692  0.6012 -0.3165
  169SAPE  H12R19023   7.200   2.259   4.749  0.0215  1.6834  0.4196
  169SAPE  C21319024   7.098   2.439   4.653 -0.1233 -0.4571 -0.1054
  169SAPE  H13R19025   7.127   2.518   4.581  0.3566 -0.8814 -0.3912
  169SAPE  H13S19026   7.097   2.490   4.752 -0.4425  0.6019 -0.6413
  169SAPE  C21419027   6.954   2.383   4.634  0.4849  0.7243  0.0565
  169SAPE  H14R19028   6.943   2.311   4.552 -0.9093  0.3210  0.5721
  169SAPE  C21519029   6.856   2.402   4.721 -0.4723  0.7001 -0.0741
  169SAPE  H15R19030   6.762   2.350   4.699  1.5549 -3.8197  0.6406
  169SAPE  C21619031   6.852   2.498   4.834 -0.2791  0.0048  0.4415
  169SAPE  H16R19032   6.870   2.601   4.796  1.4222 -0.0194  1.0824
  169SAPE  H16S19033   6.938   2.478   4.901  1.1756 -0.5538 -1.5059
  169SAPE  C21719034   6.724   2.500   4.917  0.3916  0.1107  0.8298
  169SAPE  H17R19035   6.634   2.522   4.856 -1.4382 -2.6429  2.3234
  169SAPE  H17S19036   6.730   2.584   4.989 -1.7447  0.6853  0.3891
  169SAPE  C21819037   6.693   2.374   4.996  0.3345  0.2682  0.2266
  169SAPE  H18R19038   6.766   2.325   5.064 -0.7835 -1.9942 -0.1207
  169SAPE  H18S19039   6.671   2.301   4.915  2.6062  0.3665 -0.5398
  169SAPE  C21919040   6.569   2.391   5.091  0.7711 -0.0390 -1.0270
  169SAPE  H19R19041   6.535   2.296   5.138 -0.1174  0.1578 -1.2570
  169SAPE  H19S19042   6.480   2.424   5.033 -0.2761  2.1928  1.6344
  169SAPE  C22019043   6.589   2.492   5.202 -0.0885 -0.1507  0.5467
  169SAPE  H20R19044   6.590   2.599   5.174  1.2706  0.0756  1.3627
  169SAPE  H20S19045   6.684   2.470   5.255  1.0807  2.8831 -0.1011
  169SAPE  H20T19046   6.508   2.481   5.278 -0.8901 -0.5432 -0.3319
  169SAPE   C3319047   6.871   2.780   4.198 -0.8518 -0.2161  0.0286
  169SAPE   H3X19048   6.772   2.817   4.166 -0.5472  1.5777  1.0795
  169SAPE   H3Y19049   6.940   2.864   4.176 -2.1675  0.5727 -1.2370
  169SAPE   C3419050   6.865   2.744   4.351  0.2023 -0.6027  0.0672
  169SAPE   H4X19051   6.968   2.720   4.384  0.0967  0.3994  1.1876
  169SAPE   H4Y19052   6.809   2.648   4.356  0.3155 -0.6783 -0.0965
  169SAPE   C3519053   6.797   2.850   4.438 -1.1616  0.4266 -0.1985
  169SAPE   H5X19054   6.720   2.901   4.375 -0.0986  1.1493 -0.9421
  169SAPE   H5Y19055   6.859   2.940   4.457 -0.8965  0.3654 -0.7643
  169SAPE   C3619056   6.741   2.797   4.578 -0.1799 -0.5435  0.3621
  169SAPE   H6X19057   6.823   2.757   4.642  1.4488  1.0966 -0.6089
  169SAPE   H6Y19058   6.662   2.719   4.574  0.4986 -1.1944 -0.8757
  169SAPE   C3719059   6.683   2.921   4.654 -0.3297 -0.0318 -0.5142
  169SAPE   H7X19060   6.594   2.957   4.597 -0.2604  0.1495 -0.5101
  169SAPE   H7Y19061   6.760   3.001   4.644 -2.1464  1.6976 -1.6579
  169SAPE   C3819062   6.648   2.880   4.790  0.2369 -0.3274 -0.3017
  169SAPE   H8X19063   6.739   2.843   4.841  0.3625  0.9425  0.4591
  169SAPE   H8Y19064   6.574   2.797   4.781  0.1796 -0.1860 -1.2067
  169SAPE   C3919065   6.593   2.995   4.877 -0.0544 -0.5524  0.6452
  169SAPE   H9X19066   6.511   3.040   4.817 -0.5894 -3.0670 -0.6724
  169SAPE   H9Y19067   6.675   3.068   4.891 -0.9728  0.0722  3.3953
  169SAPE  C31019068   6.541   2.965   5.022  0.3903  0.0841  0.0264
  169SAPE  H10X19069   6.615   2.896   5.068 -2.0397 -3.1529 -0.5273
  169SAPE  H10Y19070   6.449   2.908   4.998  0.5133 -0.6414  1.2078
  169SAPE  C31119071   6.518   3.092   5.108 -0.4736 -0.0313 -0.3449
  169SAPE  H11X19072   6.464   3.166   5.044  0.9976  0.3647 -1.1792
  169SAPE  H11Y19073   6.619   3.137   5.118 -0.3521 -0.6079  1.3063
  169SAPE  C31219074   6.441   3.063   5.235 -0.0107 -0.1667 -0.3631
  169SAPE  H12X19075   6.333   3.054   5.211 -0.1736 -0.5711  0.4709
  169SAPE  H12Y19076   6.437   3.160   5.289 -1.8876 -0.1770 -0.4307
  169SAPE  C31319077   6.498   2.961   5.332  0.5237 -0.3517  0.1326
  169SAPE  H13X19078   6.563   3.029   5.391 -2.6578  2.9716  0.1023
  169SAPE  H13Y19079   6.559   2.885   5.277  0.2959 -0.4428  0.0018
  169SAPE  C31419080   6.391   2.892   5.416  0.4714  0.2856  0.6366
  169SAPE  H14X19081   6.313   2.965   5.447  1.2661  1.2128  0.4888
  169SAPE  H14Y19082   6.443   2.846   5.502  3.4932  2.0997 -0.0468
  169SAPE  C31519083   6.321   2.789   5.331 -0.9305 -0.1659  0.3558
  169SAPE  H15X19084   6.387   2.736   5.258 -0.2066  0.8884  0.2212
  169SAPE  H15Y19085   6.245   2.838   5.267 -1.7256  0.7454  1.9503
  169SAPE  C31619086   6.258   2.678   5.418 -0.1687  0.3221 -0.0933
  169SAPE  H16X19087   6.328   2.625   5.486 -0.3448 -0.0897 -0.2288
  169SAPE  H16Y19088   6.219   2.610   5.339 -2.7294  2.1782 -0.5711
  169SAPE  C31719089   6.132   2.723   5.496 -0.0444 -0.4593 -0.3746
  169SAPE  H17X19090   6.166   2.809   5.558 -1.5590  2.4237 -3.2341
  169SAPE  H17Y19091   6.088   2.642   5.558 -1.0193 -1.0321 -1.7610
  169SAPE  C31819092   6.028   2.773   5.394 -0.1710  0.5341 -0.4160
  169SAPE  H18X19093   6.018   2.704   5.307  1.0945 -0.4082  0.1504
  169SAPE  H18Y19094   6.060   2.873   5.357 -0.9819  1.4454  1.2469
  169SAPE  H18Z19095   5.935   2.804   5.446 -0.0658 -0.3992  0.3598
  170SAPE     N19096   1.214   5.191   3.045 -0.2639 -0.4123  0.1699
  170SAPE   HN119097   1.132   5.215   2.985  0.4362 -0.9914 -1.0426
  170SAPE   HN219098   1.192   5.198   3.146  0.1443 -1.0783  0.3105
  170SAPE   HN319099   1.301   5.236   3.010 -0.3987 -1.9083 -2.3237
  170SAPE   C1219100   1.246   5.043   3.018 -0.3884 -0.1453 -0.0295
  170SAPE  H12A19101   1.342   5.024   3.071 -1.7744 -0.9749  2.3048
  170SAPE  H12B19102   1.264   5.019   2.911 -1.6560 -2.9709  0.3055
  170SAPE   C1119103   1.139   4.953   3.074  0.2061 -0.6354 -0.0424
  170SAPE  H11A19104   1.177   4.849   3.067  0.1205 -0.5810 -4.5966
  170SAPE  H11B19105   1.054   4.945   3.003  1.3141  0.2299 -1.5417
  170SAPE     P19106   1.022   4.912   3.313  0.3646  0.1978 -0.1929
  170SAPE   O1319107   0.939   4.994   3.405  0.4048  0.2762 -0.4521
  170SAPE   O1419108   0.949   4.802   3.245  0.0303  0.0686 -0.1069
  170SAPE   O1219109   1.088   5.001   3.202  0.4082  0.4326  0.1949
  170SAPE   O1119110   1.137   4.850   3.404  0.0609 -0.6016 -0.3016
  170SAPE    C119111   1.240   4.948   3.447  0.1834  0.3643 -0.2992
  170SAPE    HA19112   1.337   4.920   3.400 -0.5668  0.7792 -2.1745
  170SAPE    HB19113   1.212   5.050   3.413 -0.7863 -0.3050 -1.5815
  170SAPE    C219114   1.254   4.952   3.606  0.4455  0.2664 -0.7186
  170SAPE    HS19115   1.338   5.018   3.635 -0.3529  0.8012  0.4388
  170SAPE   O2119116   1.258   4.819   3.656  0.1875 -0.3619  0.7663
  170SAPE   C2119117   1.382   4.783   3.693 -0.0327 -0.4393 -0.0478
  170SAPE   O2219118   1.483   4.848   3.681 -0.0339  0.0970  0.4835
  170SAPE   C2219119   1.368   4.645   3.758  0.0822 -0.4861 -0.7711
  170SAPE   H2R19120   1.297   4.656   3.843 -0.3855 -0.8354 -1.1142
  170SAPE   H2S19121   1.327   4.574   3.683  1.0298 -0.3195 -1.4738
  170SAPE    C319122   1.131   5.019   3.677 -0.0442 -0.1853 -0.3813
  170SAPE    HX19123   1.035   4.964   3.662  0.1084 -0.4856 -0.2540
  170SAPE    HY19124   1.116   5.120   3.632 -0.9992 -0.0580  0.1917
  170SAPE   O3119125   1.171   5.047   3.816 -0.5617  0.4096  0.3447
  170SAPE   C3119126   1.130   4.965   3.905  0.4847 -0.9402 -0.1611
  170SAPE   O3219127   1.043   4.878   3.893  0.8522  0.0453  0.1049
  170SAPE   C3219128   1.201   4.990   4.040 -0.2029 -0.6343 -0.6550
  170SAPE   H2X19129   1.199   5.100   4.056 -0.0287 -0.6089 -0.8105
  170SAPE   H2Y19130   1.299   4.941   4.023 -0.6652 -1.1034 -2.1517
  170SAPE   C2319131   1.503   4.597   3.827 -0.3832 -0.0340  0.1562
  170SAPE   H3R19132   1.548   4.673   3.894  1.8258 -1.7885  0.8014
  170SAPE   H3S19133   1.582   4.597   3.749 -0.2958  1.3626  0.2243
  170SAPE   C2419134   1.488   4.459   3.888  0.1989  0.2155  0.0426
  170SAPE   H4R19135   1.590   4.431   3.924 -0.3617 -0.0099  1.5613
  170SAPE   H4S19136   1.465   4.381   3.813  1.5116 -0.7872  0.6304
  170SAPE   C2519137   1.380   4.444   3.997 -0.3794  0.2776  0.7289
  170SAPE   H5R19138   1.282   4.413   3.957 -1.4002  1.9913  1.7617
  170SAPE   C2619139   1.397   4.439   4.132  0.1366 -0.2037 -0.4235
  170SAPE   H6R19140   1.311   4.440   4.200  1.0490 -0.7571  0.7753
  170SAPE   C2719141   1.528   4.484   4.196  0.4361  0.6449 -0.3323
  170SAPE   H7R19142   1.615   4.482   4.128  0.8892 -1.4694  0.2461
  170SAPE   H7S19143   1.566   4.410   4.270 -1.1240  2.0578  2.0455
  170SAPE   C2819144   1.516   4.627   4.241  0.2176 -0.1968 -0.4670
  170SAPE   H8R19145   1.549   4.701   4.167  0.3858  1.5203  1.2329
  170SAPE   C2919146   1.488   4.672   4.366 -0.0904 -0.1616  0.6592
  170SAPE   H9R19147   1.491   4.781   4.376 -0.2018  0.1474 -1.9330
  170SAPE  C21019148   1.452   4.600   4.502  0.1319 -0.1394  0.1130
  170SAPE  H10R19149   1.400   4.502   4.491  0.1387 -0.2476  1.0300
  170SAPE  H10S19150   1.382   4.669   4.552 -1.0614  0.2615 -1.9676
  170SAPE  C21119151   1.576   4.581   4.579 -0.0455 -0.4311 -0.2817
  170SAPE  H11R19152   1.662   4.558   4.515 -0.3179  2.4364 -1.8607
  170SAPE  C21219153   1.583   4.604   4.713 -0.1223 -0.5566  0.3577
  170SAPE  H12R19154   1.683   4.587   4.756  0.0765  0.9766  0.5758
  170SAPE  C21319155   1.480   4.655   4.813  0.0969  0.9080  0.1410
  170SAPE  H13R19156   1.397   4.719   4.777  0.8254  0.4999 -2.4736
  170SAPE  H13S19157   1.533   4.713   4.891  1.3990  1.0267 -0.8050
  170SAPE  C21419158   1.404   4.538   4.868 -0.2117  0.5276 -0.0690
  170SAPE  H14R19159   1.351   4.478   4.792 -1.8443  1.5144  0.2275
  170SAPE  C21519160   1.408   4.502   4.995 -0.7219  0.2028 -0.3934
  170SAPE  H15R19161   1.375   4.398   5.012 -0.7890  0.0443 -1.3897
  170SAPE  C21619162   1.491   4.566   5.102 -0.4781 -0.7781 -0.3848
  170SAPE  H16R19163   1.435   4.554   5.197 -0.6226 -0.4029 -0.4228
  170SAPE  H16S19164   1.485   4.677   5.096  1.6673 -0.6006 -0.1288
  170SAPE  C21719165   1.636   4.517   5.116 -0.7672  0.1702 -0.5351
  170SAPE  H17R19166   1.698   4.546   5.029 -0.7392 -0.1810 -0.6363
  170SAPE  H17S19167   1.648   4.407   5.106  0.0300  0.2232 -0.2454
  170SAPE  C21819168   1.700   4.530   5.255 -0.3098 -0.2845 -0.0097
  170SAPE  H18R19169   1.802   4.485   5.256  0.7061  1.8262 -1.3387
  170SAPE  H18S19170   1.632   4.473   5.321  1.2042 -3.8516 -1.2859
  170SAPE  C21919171   1.719   4.677   5.301  0.6714  0.6625  0.0084
  170SAPE  H19R19172   1.782   4.665   5.391  1.8760 -2.5900 -1.1340
  170SAPE  H19S19173   1.627   4.735   5.326  0.2406 -0.1849  0.4140
  170SAPE  C22019174   1.798   4.753   5.197 -0.2971  0.0284  0.2246
  170SAPE  H20R19175   1.849   4.845   5.232  2.9114 -1.5379  0.0525
  170SAPE  H20S19176   1.729   4.788   5.117  1.1414  1.6836 -0.3595
  170SAPE  H20T19177   1.881   4.694   5.154  0.0686 -0.7302  1.9081
  170SAPE   C3319178   1.126   4.923   4.161  0.5051  0.0065 -0.1572
  170SAPE   H3X19179   1.115   4.815   4.137  0.4698  0.4138 -2.1120
  170SAPE   H3Y19180   1.026   4.970   4.166 -0.9786 -3.0340  1.2058
  170SAPE   C3419181   1.192   4.944   4.301  0.1692  0.3137 -0.1009
  170SAPE   H4X19182   1.213   5.051   4.320  0.9649 -0.0603  1.2752
  170SAPE   H4Y19183   1.292   4.898   4.315 -0.4443 -0.7965  0.8592
  170SAPE   C3519184   1.095   4.909   4.412  0.3516 -0.3158  0.1768
  170SAPE   H5X19185   1.069   4.801   4.407  0.2442 -0.2803 -0.0387
  170SAPE   H5Y19186   1.006   4.970   4.383  0.9574  0.1314 -0.7719
  170SAPE   C3619187   1.122   4.956   4.556 -0.0894  0.2211  0.5592
  170SAPE   H6X19188   1.125   5.067   4.557  1.7724  0.2110  0.3708
  170SAPE   H6Y19189   1.227   4.925   4.576 -0.2789 -0.5947  0.3108
  170SAPE   C3719190   1.019   4.891   4.652 -0.1989 -0.4541 -0.1031
  170SAPE   H7X19191   1.020   4.781   4.639 -0.1651 -0.3972 -0.6265
  170SAPE   H7Y19192   0.915   4.927   4.635 -1.5165 -2.9035  2.1089
  170SAPE   C3819193   1.048   4.919   4.801  0.0662 -0.5211  0.0320
  170SAPE   H8X19194   1.036   5.025   4.833  3.2442 -0.0073 -0.1232
  170SAPE   H8Y19195   1.157   4.898   4.803  0.1400 -0.2819 -1.1831
  170SAPE   C3919196   0.969   4.828   4.891 -0.0005 -0.2803 -0.5823
  170SAPE   H9X19197   0.953   4.723   4.859 -0.5248 -0.8895  1.5150
  170SAPE   H9Y19198   0.868   4.874   4.885  0.4358  0.5835 -1.4339
  170SAPE  C31019199   1.027   4.819   5.034  0.6057  0.6597 -0.1612
  170SAPE  H10X19200   1.051   4.925   5.058  0.1657  0.9894 -1.1109
  170SAPE  H10Y19201   1.117   4.755   5.019 -0.5282 -1.7347  2.4827
  170SAPE  C31119202   0.935   4.749   5.134 -0.3979  0.1669 -0.2165
  170SAPE  H11X19203   0.902   4.649   5.097 -2.2747  1.4756 -2.3425
  170SAPE  H11Y19204   0.849   4.819   5.140  1.9601  3.1487  1.2016
  170SAPE  C31219205   1.005   4.727   5.266  0.3200  0.8013 -0.1355
  170SAPE  H12X19206   1.056   4.817   5.308  0.4764  0.7815 -0.2818
  170SAPE  H12Y19207   1.087   4.657   5.241  1.2374  1.8333 -0.1096
  170SAPE  C31319208   0.922   4.651   5.378  0.0332  0.5930  0.1695
  170SAPE  H13X19209   0.877   4.557   5.340  1.1670 -0.6998  1.8732
  170SAPE  H13Y19210   0.837   4.709   5.419  0.1342  0.3707  0.7037
  170SAPE  C31419211   1.012   4.622   5.500  0.7923 -0.2782 -0.1730
  170SAPE  H14X19212   1.037   4.717   5.552 -0.7319  0.1289 -0.1270
  170SAPE  H14Y19213   1.103   4.568   5.467  0.0783 -0.4620 -1.9470
  170SAPE  C31519214   0.935   4.540   5.605  0.5954  0.5314  0.1488
  170SAPE  H15X19215   0.877   4.464   5.548 -2.0883  1.1242  1.8993
  170SAPE  H15Y19216   0.859   4.602   5.657 -1.1507 -0.1444 -1.4645
  170SAPE  C31619217   1.032   4.463   5.696 -0.3597  0.1615 -0.8066
  170SAPE  H16X19218   1.094   4.541   5.745 -2.0025  0.3316  1.1670
  170SAPE  H16Y19219   1.095   4.396   5.634 -0.7148  0.4739 -1.5070
  170SAPE  C31719220   0.980   4.365   5.802 -0.4866  0.0073  0.5234
  170SAPE  H17X19221   0.920   4.299   5.736 -0.5343  0.7072 -0.1543
  170SAPE  H17Y19222   0.911   4.406   5.879 -0.9070 -1.5725  1.0212
  170SAPE  C31819223   1.097   4.286   5.872 -0.5780 -0.7697  0.3969
  170SAPE  H18X19224   1.141   4.330   5.964 -1.3578  0.7315  0.0785
  170SAPE  H18Y19225   1.179   4.292   5.797 -0.6575  0.9930  0.4133
  170SAPE  H18Z19226   1.058   4.186   5.902 -0.9314 -0.7645 -0.0314
  171SAPE     N19227   0.623   0.846   3.409 -0.1530  0.0585  0.1335
  171SAPE   HN119228   0.646   0.911   3.331 -0.3231  1.2011  1.0068
  171SAPE   HN219229   0.691   0.769   3.389  2.8084  2.4843  0.0622
  171SAPE   HN319230   0.523   0.826   3.391 -0.1921  0.1638  0.2311
  171SAPE   C1219231   0.633   0.892   3.542 -0.2823  0.4050 -0.4929
  171SAPE  H12A19232   0.638   0.813   3.621  2.3301  0.2328 -0.7311
  171SAPE  H12B19233   0.543   0.953   3.564  1.6016  2.9407  0.5854
  171SAPE   C1119234   0.745   0.993   3.557 -0.3233 -0.6657  0.2677
  171SAPE  H11A19235   0.839   0.936   3.542  0.3748  0.6515 -0.5694
  171SAPE  H11B19236   0.734   1.043   3.656  0.8320  0.6415 -0.2385
  171SAPE     P19237   0.622   1.195   3.435  0.0796  0.1878  0.1434
  171SAPE   O1319238   0.660   1.314   3.355  0.1583 -0.1637  0.3701
  171SAPE   O1419239   0.503   1.122   3.384  0.5899  0.3131  0.2754
  171SAPE   O1219240   0.742   1.094   3.456 -0.7594  0.6470  0.1552
  171SAPE   O1119241   0.595   1.247   3.571 -0.0887  0.0195 -0.8642
  171SAPE    C119242   0.481   1.334   3.601  0.1328 -0.4351 -0.1598
  171SAPE    HA19243   0.416   1.362   3.515  0.5297  0.3555 -0.2213
  171SAPE    HB19244   0.419   1.280   3.675 -1.3623 -2.0548 -2.4455
  171SAPE    C219245   0.517   1.471   3.681  0.0642 -0.0866 -0.2559
  171SAPE    HS19246   0.577   1.531   3.608 -0.0338  2.1985  1.4443
  171SAPE   O2119247   0.603   1.454   3.798 -0.4680  0.0221 -0.4180
  171SAPE   C2119248   0.665   1.566   3.847 -0.4054  0.5416  0.5258
  171SAPE   O2219249   0.650   1.678   3.806 -0.0707  0.6478 -0.0334
  171SAPE   C2219250   0.764   1.523   3.951  0.1369  0.8553 -0.1371
  171SAPE   H2R19251   0.730   1.427   3.996 -0.4645  0.6347 -1.0421
  171SAPE   H2S19252   0.860   1.512   3.896  1.8785 -1.8350  3.0785
  171SAPE    C319253   0.389   1.546   3.723  0.4775 -0.6760 -0.3820
  171SAPE    HX19254   0.322   1.539   3.635  0.0403 -0.1293 -0.1004
  171SAPE    HY19255   0.411   1.654   3.738 -0.9609 -0.2289 -1.2853
  171SAPE   O3119256   0.321   1.485   3.834 -0.6423 -0.1988 -0.0721
  171SAPE   C3119257   0.299   1.553   3.942 -0.5024  0.0892 -0.1184
  171SAPE   O3219258   0.314   1.674   3.956  0.4270 -0.2229  0.5379
  171SAPE   C3219259   0.257   1.458   4.049 -0.8260 -0.0949  0.1139
  171SAPE   H2X19260   0.332   1.383   4.084  0.4693  1.1419  0.0963
  171SAPE   H2Y19261   0.159   1.418   4.015 -0.8329 -0.5838  0.6782
  171SAPE   C2319262   0.779   1.626   4.069  0.1688  0.0006  0.3717
  171SAPE   H3R19263   0.787   1.721   4.012 -2.7517  0.8605  1.1988
  171SAPE   H3S19264   0.862   1.606   4.139 -0.1405 -2.0064  0.2226
  171SAPE   C2419265   0.647   1.631   4.155  0.2213  0.5807 -0.4822
  171SAPE   H4R19266   0.562   1.631   4.084  0.4689  0.3776 -0.7765
  171SAPE   H4S19267   0.660   1.726   4.213 -0.6017 -0.8129  2.1322
  171SAPE   C2519268   0.639   1.520   4.256 -0.0925  0.1623 -0.0555
  171SAPE   H5R19269   0.614   1.431   4.196  3.1140  0.6766 -2.4799
  171SAPE   C2619270   0.656   1.511   4.385 -0.1735  0.0882 -0.2797
  171SAPE   H6R19271   0.651   1.412   4.432 -0.0759  1.3644  2.5871
  171SAPE   C2719272   0.698   1.618   4.483  0.4279 -0.2935  0.3157
  171SAPE   H7R19273   0.701   1.582   4.588  1.7488 -1.6555 -0.1534
  171SAPE   H7S19274   0.619   1.696   4.478  0.2161 -0.5762 -1.5817
  171SAPE   C2819275   0.824   1.691   4.449  0.1419  0.5488  0.1253
  171SAPE   H8R19276   0.818   1.752   4.358 -1.8388  0.5277  0.1976
  171SAPE   C2919277   0.941   1.689   4.512 -0.4198 -0.3161 -0.0825
  171SAPE   H9R19278   1.026   1.753   4.486 -1.5898  2.2988  2.0125
  171SAPE  C21019279   0.979   1.624   4.643 -0.6069 -0.0247 -0.4723
  171SAPE  H10R19280   0.927   1.528   4.659  0.1260 -1.0808 -3.8137
  171SAPE  H10S19281   0.942   1.689   4.726 -1.1453 -0.7994 -0.1016
  171SAPE  C21119282   1.129   1.598   4.662  0.0383  0.4254  0.9571
  171SAPE  H11R19283   1.174   1.592   4.562 -2.7557  0.5155 -0.4020
  171SAPE  C21219284   1.194   1.555   4.763 -0.1181  0.5708  0.0153
  171SAPE  H12R19285   1.304   1.558   4.764 -0.0830  1.5498  3.3882
  171SAPE  C21319286   1.141   1.523   4.897  0.2826  0.0767 -0.6450
  171SAPE  H13R19287   1.030   1.530   4.902  0.2990 -0.1474  0.5356
  171SAPE  H13S19288   1.173   1.606   4.964  1.3972 -0.6177 -0.2875
  171SAPE  C21419289   1.171   1.389   4.955 -0.3605  0.9381  0.0285
  171SAPE  H14R19290   1.204   1.312   4.884 -1.2885 -0.4589  1.0662
  171SAPE  C21519291   1.173   1.357   5.082 -0.1528  0.2931  0.0584
  171SAPE  H15R19292   1.200   1.257   5.121  0.9246  0.6300  0.2137
  171SAPE  C21619293   1.128   1.450   5.195  0.4846 -0.4936 -0.1508
  171SAPE  H16R19294   1.072   1.540   5.160 -1.0759 -2.1634 -2.2290
  171SAPE  H16S19295   1.221   1.473   5.250  0.4099 -2.0057  0.6300
  171SAPE  C21719296   1.044   1.373   5.297 -0.3829  0.3649  0.6052
  171SAPE  H17R19297   1.035   1.435   5.389  2.4974  1.6575  0.1032
  171SAPE  H17S19298   1.088   1.274   5.320  1.4722  0.3324 -2.5106
  171SAPE  C21819299   0.898   1.340   5.254  0.1739  0.2190 -0.0748
  171SAPE  H18R19300   0.902   1.275   5.164  0.3774  1.4902 -1.0162
  171SAPE  H18S19301   0.855   1.435   5.214 -0.5494 -1.2308 -2.9789
  171SAPE  C21919302   0.804   1.297   5.369 -0.4073  0.0985 -0.0989
  171SAPE  H19R19303   0.846   1.200   5.401 -0.2752  0.1310 -0.1707
  171SAPE  H19S19304   0.708   1.279   5.317  0.3968  0.9930 -2.0106
  171SAPE  C22019305   0.797   1.393   5.483  0.1963 -0.0271 -0.0111
  171SAPE  H20R19306   0.730   1.351   5.561 -0.9472  0.3521 -0.7722
  171SAPE  H20S19307   0.747   1.488   5.453 -0.5917 -0.4656 -0.0848
  171SAPE  H20T19308   0.893   1.411   5.536 -0.0146 -2.4451  1.3402
  171SAPE   C3319309   0.232   1.538   4.183 -0.2721  0.2058  0.1194
  171SAPE   H3X19310   0.192   1.642   4.180 -0.4183  0.1816  1.0108
  171SAPE   H3Y19311   0.337   1.554   4.216 -0.3433  0.3788  0.2623
  171SAPE   C3419312   0.146   1.452   4.279 -0.0896  0.4811 -0.3301
  171SAPE   H4X19313   0.043   1.425   4.246  0.8234 -0.1094 -2.9609
  171SAPE   H4Y19314   0.134   1.523   4.364 -0.5687  2.0462 -1.6471
  171SAPE   C3519315   0.220   1.339   4.341 -0.2639 -0.3127  0.0721
  171SAPE   H5X19316   0.320   1.365   4.383 -0.2808  1.2494 -0.7939
  171SAPE   H5Y19317   0.229   1.259   4.265 -1.5998 -0.3741 -0.0349
  171SAPE   C3619318   0.147   1.291   4.466 -0.0681 -0.5342 -0.3463
  171SAPE   H6X19319   0.048   1.258   4.429 -0.6431 -0.5252  1.1080
  171SAPE   H6Y19320   0.136   1.370   4.544 -0.1311 -0.4712 -0.4189
  171SAPE   C3719321   0.203   1.170   4.545 -0.4865  1.1646 -0.2298
  171SAPE   H7X19322   0.293   1.199   4.603 -0.4084  0.3072  0.0942
  171SAPE   H7Y19323   0.217   1.073   4.491  0.8552  1.4914 -0.4965
  171SAPE   C3819324   0.117   1.135   4.665  0.8721  0.3712  0.6508
  171SAPE   H8X19325   0.014   1.123   4.627  0.6870  0.9940  0.9373
  171SAPE   H8Y19326   0.113   1.223   4.732 -0.7197 -0.7667  2.1066
  171SAPE   C3919327   0.167   1.011   4.736 -0.2830  0.6869 -0.0679
  171SAPE   H9X19328   0.262   1.029   4.791 -0.2879  0.0341  0.1627
  171SAPE   H9Y19329   0.196   0.934   4.662  0.6213  1.7751 -0.8784
  171SAPE  C31019330   0.073   0.959   4.839  0.9010 -0.2030  0.1063
  171SAPE  H10X19331  -0.029   0.932   4.802  0.9447 -1.4456  0.7994
  171SAPE  H10Y19332   0.053   1.047   4.904 -2.1703  0.8776 -2.0698
  171SAPE  C31119333   0.136   0.853   4.933  0.3597 -0.8494  0.4574
  171SAPE  H11X19334   0.144   0.759   4.874 -1.4142 -0.3677 -0.6246
  171SAPE  H11Y19335   0.061   0.829   5.012 -2.0632 -1.0750 -1.7627
  171SAPE  C31219336   0.269   0.886   5.000 -0.5350  0.1728  0.5694
  171SAPE  H12X19337   0.351   0.880   4.925  0.4766 -1.6787  1.7429
  171SAPE  H12Y19338   0.282   0.796   5.065 -1.3039 -0.3908 -0.0280
  171SAPE  C31319339   0.266   1.012   5.081 -0.6086 -0.9340 -0.3819
  171SAPE  H13X19340   0.192   1.014   5.164 -0.7385 -1.8618 -0.4646
  171SAPE  H13Y19341   0.245   1.088   5.003  0.6354 -0.2897 -0.1234
  171SAPE  C31419342   0.410   1.057   5.137  0.4733 -0.7294  0.2042
  171SAPE  H14X19343   0.396   1.163   5.166  0.3644 -0.6387 -0.1842
  171SAPE  H14Y19344   0.489   1.044   5.060  0.1425 -0.4922 -0.1794
  171SAPE  C31519345   0.460   0.991   5.270 -0.0905  0.5971  0.0665
  171SAPE  H15X19346   0.547   1.050   5.306 -1.2411  2.3084  0.1706
  171SAPE  H15Y19347   0.478   0.885   5.242 -0.6668 -0.1726  2.3673
  171SAPE  C31619348   0.357   0.985   5.376  0.1233 -0.3575 -0.3676
  171SAPE  H16X19349   0.276   0.919   5.339 -0.3030 -1.1417  1.8115
  171SAPE  H16Y19350   0.330   1.083   5.422 -0.6667  0.5530 -2.6176
  171SAPE  C31719351   0.416   0.903   5.488 -0.2403  0.7285 -0.5006
  171SAPE  H17X19352   0.475   0.819   5.446  2.5838  1.0621  2.4211
  171SAPE  H17Y19353   0.333   0.851   5.541 -0.7017  0.5019 -1.4248
  171SAPE  C31819354   0.509   0.970   5.584  0.3912  0.4692  0.2568
  171SAPE  H18X19355   0.567   1.042   5.521  1.5022 -1.0711 -0.5450
  171SAPE  H18Y19356   0.576   0.892   5.627 -1.1535 -0.9504  0.1657
  171SAPE  H18Z19357   0.448   1.029   5.656 -1.3286  2.0298 -2.3058
  172SAPE     N19358   0.421   2.305   3.198  0.1343  0.3934  0.2686
  172SAPE   HN119359   0.417   2.229   3.129 -0.1876 -0.6926  1.4399
  172SAPE   HN219360   0.337   2.297   3.260  1.3369  0.3331  1.9666
  172SAPE   HN319361   0.405   2.397   3.151  0.4685  0.4114  0.1897
  172SAPE   C1219362   0.540   2.301   3.286 -0.1508 -0.4110  0.3752
  172SAPE  H12A19363   0.622   2.354   3.231  0.6466 -0.5279  1.4282
  172SAPE  H12B19364   0.567   2.195   3.304  0.6013 -0.0330  1.5517
  172SAPE   C1119365   0.512   2.379   3.424 -0.3745 -0.3695  0.0435
  172SAPE  H11A19366   0.439   2.313   3.475  0.7321 -1.1411  0.6861
  172SAPE  H11B19367   0.456   2.474   3.410  0.4070  0.2259  0.8947
  172SAPE     P19368   0.695   2.292   3.577 -0.5002  0.2012 -0.4288
  172SAPE   O1319369   0.588   2.206   3.632 -0.1534 -0.4344 -0.5654
  172SAPE   O1419370   0.799   2.227   3.498 -0.1485  0.3968 -0.4153
  172SAPE   O1219371   0.631   2.408   3.489 -0.4296 -0.1794 -0.2490
  172SAPE   O1119372   0.753   2.376   3.695 -0.1519 -0.2467  0.4342
  172SAPE    C119373   0.697   2.502   3.723 -0.3100 -0.2361  0.1635
  172SAPE    HA19374   0.715   2.575   3.641 -2.1985 -0.7557 -0.7468
  172SAPE    HB19375   0.587   2.498   3.739 -0.1746 -1.8228  0.9366
  172SAPE    C219376   0.769   2.551   3.856  0.1100  0.3380  0.0632
  172SAPE    HS19377   0.743   2.476   3.934 -0.3626 -0.6233 -0.9801
  172SAPE   O2119378   0.702   2.678   3.888 -0.4777  0.3119 -0.0672
  172SAPE   C2119379   0.675   2.698   4.015  0.8407  0.0418  0.6178
  172SAPE   O2219380   0.702   2.632   4.114  0.0828 -0.2640  0.0643
  172SAPE   C2219381   0.597   2.832   4.018 -0.4391  0.1531 -0.2621
  172SAPE   H2R19382   0.654   2.905   3.956 -1.5989  0.7038 -0.7285
  172SAPE   H2S19383   0.492   2.819   3.983 -0.3388 -1.7480  0.0717
  172SAPE    C319384   0.920   2.554   3.847  0.6801  0.2943  0.4863
  172SAPE    HX19385   0.943   2.626   3.766 -0.6348 -0.2207 -0.3812
  172SAPE    HY19386   0.964   2.461   3.805  0.1576  2.1829 -4.9709
  172SAPE   O3119387   0.977   2.608   3.964  0.3766  0.7443 -0.3538
  172SAPE   C3119388   1.019   2.518   4.058  0.2134 -0.3000 -0.3722
  172SAPE   O3219389   1.042   2.400   4.035  0.1316  0.2520  0.5859
  172SAPE   C3219390   1.028   2.592   4.194  0.0540  0.2939  0.0500
  172SAPE   H2X19391   0.954   2.673   4.210 -0.8431 -0.9730  2.8847
  172SAPE   H2Y19392   1.136   2.612   4.206  0.1942 -0.7275  0.6328
  172SAPE   C2319393   0.582   2.876   4.164 -0.1382  0.5856  0.1813
  172SAPE   H3R19394   0.682   2.861   4.209 -0.1917  0.2678  0.1977
  172SAPE   H3S19395   0.505   2.806   4.205  0.4224  0.4600  1.0309
  172SAPE   C2419396   0.533   3.016   4.193 -0.2238  0.1419  0.7565
  172SAPE   H4R19397   0.588   3.091   4.134 -2.0640 -1.1064 -2.8540
  172SAPE   H4S19398   0.553   3.047   4.298 -0.1275 -1.1939  1.1548
  172SAPE   C2519399   0.391   3.033   4.143 -0.2677  0.0569  0.0488
  172SAPE   H5R19400   0.364   3.003   4.041  2.1466 -0.0855 -0.6151
  172SAPE   C2619401   0.290   3.054   4.225  0.4498  0.6587  0.4409
  172SAPE   H6R19402   0.191   3.064   4.178  0.3387 -1.4375  0.1095
  172SAPE   C2719403   0.285   3.095   4.367  0.8442 -0.4684 -0.4896
  172SAPE   H7R19404   0.223   3.186   4.355 -0.4650 -1.3817 -0.8396
  172SAPE   H7S19405   0.383   3.130   4.405  1.3317 -0.7206 -1.4819
  172SAPE   C2819406   0.226   2.982   4.458 -0.1536 -0.5790 -0.0981
  172SAPE   H8R19407   0.153   2.913   4.413  0.2832 -0.9368 -0.2615
  172SAPE   C2919408   0.238   2.984   4.591 -0.2407 -0.6148  0.0383
  172SAPE   H9R19409   0.183   2.905   4.644  1.5476 -1.6062  0.4853
  172SAPE  C21019410   0.307   3.094   4.674 -0.5887 -0.1380  1.1832
  172SAPE  H10R19411   0.255   3.191   4.657 -0.3854 -0.4509 -1.7084
  172SAPE  H10S19412   0.406   3.101   4.625 -1.4115 -0.0993 -0.5664
  172SAPE  C21119413   0.306   3.068   4.822  0.2628 -0.3227  0.7526
  172SAPE  H11R19414   0.404   3.042   4.865  0.4799  0.6011  0.8556
  172SAPE  C21219415   0.205   3.061   4.914 -0.9446 -0.2437 -0.2914
  172SAPE  H12R19416   0.217   3.027   5.017 -0.5781 -2.0611 -0.8965
  172SAPE  C21319417   0.057   3.068   4.884 -0.0483 -0.4112  0.0419
  172SAPE  H13R19418   0.030   3.012   4.792  0.8123 -1.5677  0.4685
  172SAPE  H13S19419   0.017   3.171   4.872 -0.2427 -0.6392 -1.6383
  172SAPE  C21419420  -0.017   2.998   4.999 -0.9328  0.6835 -0.0739
  172SAPE  H14R19421  -0.043   2.894   4.972  2.7095 -0.0295 -1.3845
  172SAPE  C21519422  -0.034   3.034   5.134  0.1106 -0.2573  0.3109
  172SAPE  H15R19423  -0.108   2.976   5.191 -2.1380  1.7758 -0.4097
  172SAPE  C21619424   0.010   3.163   5.196 -0.2112  0.5486  0.0536
  172SAPE  H16R19425  -0.076   3.227   5.224 -0.7526 -0.6941  1.3471
  172SAPE  H16S19426   0.068   3.213   5.115 -0.2646 -0.0654 -0.3644
  172SAPE  C21719427   0.098   3.136   5.320 -0.3432  0.6087  0.1926
  172SAPE  H17R19428   0.035   3.076   5.388 -1.0901  0.3734 -0.6772
  172SAPE  H17S19429   0.120   3.233   5.370 -0.8328 -0.5678  2.8185
  172SAPE  C21819430   0.224   3.059   5.297 -0.5968 -0.1480  0.3017
  172SAPE  H18R19431   0.262   3.096   5.199  0.2540 -1.0264  0.2814
  172SAPE  H18S19432   0.211   2.949   5.288  0.3433 -0.1879 -0.8823
  172SAPE  C21919433   0.342   3.070   5.393 -0.0149 -0.9285  0.4100
  172SAPE  H19R19434   0.325   3.041   5.499  0.5027  1.8873  1.3555
  172SAPE  H19S19435   0.369   3.177   5.404 -0.9922 -0.6836  0.4826
  172SAPE  C22019436   0.468   2.987   5.361  0.1700  0.4989  1.2711
  172SAPE  H20R19437   0.465   2.881   5.396 -0.5360  0.4981  1.2268
  172SAPE  H20S19438   0.555   3.023   5.419  2.8259 -3.2886  0.0793
  172SAPE  H20T19439   0.492   2.996   5.253 -2.7994 -1.0079  0.3604
  172SAPE   C3319440   1.004   2.486   4.306  0.2536  0.3428  0.0645
  172SAPE   H3X19441   1.068   2.398   4.284  0.6869 -0.2463  3.1796
  172SAPE   H3Y19442   0.898   2.452   4.306  0.3351  0.0474 -1.1498
  172SAPE   C3419443   1.048   2.542   4.439 -0.5808 -0.2645 -0.6947
  172SAPE   H4X19444   0.991   2.632   4.470 -0.0494  0.1320 -0.8560
  172SAPE   H4Y19445   1.156   2.566   4.446 -0.1233 -2.4195  1.1732
  172SAPE   C3519446   1.042   2.439   4.553 -0.9892  0.3258  0.0658
  172SAPE   H5X19447   1.112   2.353   4.542  0.4959  1.1292  2.3465
  172SAPE   H5Y19448   0.938   2.401   4.558 -0.6531 -0.4889  1.1378
  172SAPE   C3619449   1.075   2.514   4.676 -0.5431 -0.6628 -0.4205
  172SAPE   H6X19450   1.013   2.604   4.695  1.2670  0.1912  1.9007
  172SAPE   H6Y19451   1.178   2.552   4.661 -0.2385 -0.3802  2.0340
  172SAPE   C3719452   1.063   2.429   4.799 -0.9784 -0.1782  0.6148
  172SAPE   H7X19453   1.133   2.343   4.799 -2.2304 -1.2662 -1.4737
  172SAPE   H7Y19454   0.962   2.389   4.820 -1.5314  0.6926 -0.3321
  172SAPE   C3819455   1.088   2.507   4.926 -0.2059 -0.3410  0.3113
  172SAPE   H8X19456   1.022   2.597   4.930 -0.4620 -0.5703  2.7732
  172SAPE   H8Y19457   1.186   2.559   4.919 -0.9142  0.8724 -1.2420
  172SAPE   C3919458   1.072   2.411   5.040  0.2104 -0.3155 -0.3665
  172SAPE   H9X19459   1.128   2.316   5.035 -1.2639 -1.2966  0.8141
  172SAPE   H9Y19460   0.969   2.371   5.051  0.1471  0.5299  4.3325
  172SAPE  C31019461   1.088   2.473   5.180 -0.4365  0.0349  0.1484
  172SAPE  H10X19462   1.032   2.566   5.205  1.8138  2.0164 -1.5983
  172SAPE  H10Y19463   1.195   2.505   5.187 -0.3938  0.1565 -0.9071
  172SAPE  C31119464   1.085   2.381   5.293  0.0652  0.2077  0.0917
  172SAPE  H11X19465   1.133   2.283   5.278 -0.2354 -0.0675  0.8583
  172SAPE  H11Y19466   0.980   2.359   5.323  0.2000  1.1447  1.3697
  172SAPE  C31219467   1.165   2.435   5.414  0.0939  0.2533 -0.4767
  172SAPE  H12X19468   1.135   2.539   5.441  2.1047  0.9885 -0.9505
  172SAPE  H12Y19469   1.274   2.427   5.395 -0.0114 -2.9584 -0.2148
  172SAPE  C31319470   1.165   2.341   5.542 -0.0832 -0.5998  0.5477
  172SAPE  H13X19471   1.204   2.242   5.512  1.3813 -0.2161  1.1263
  172SAPE  H13Y19472   1.068   2.333   5.597  1.4002  2.4609  4.0187
  172SAPE  C31419473   1.251   2.408   5.656 -0.5233 -0.9538 -0.0252
  172SAPE  H14X19474   1.221   2.514   5.663 -0.0510 -0.8241  0.0861
  172SAPE  H14Y19475   1.354   2.402   5.613  0.5036 -0.1373  2.1759
  172SAPE  C31519476   1.240   2.332   5.789 -0.6401 -0.4706  0.5965
  172SAPE  H15X19477   1.269   2.231   5.753 -0.3201  0.0569 -0.6855
  172SAPE  H15Y19478   1.135   2.325   5.825 -0.8127 -0.6339  0.0618
  172SAPE  C31619479   1.323   2.392   5.906 -0.8691 -0.5261  0.7479
  172SAPE  H16X19480   1.288   2.498   5.905  0.9424  0.1449  2.1309
  172SAPE  H16Y19481   1.434   2.384   5.900 -0.7266 -0.7834  2.9715
  172SAPE  C31719482   1.275   2.344   6.046 -0.6576 -0.0887  0.0809
  172SAPE  H17X19483   1.168   2.375   6.056 -0.4047  0.7704  0.2613
  172SAPE  H17Y19484   1.334   2.402   6.121  0.1417 -0.4574 -0.2521
  172SAPE  C31819485   1.286   2.196   6.062 -0.4605  0.0652  0.0352
  172SAPE  H18X19486   1.222   2.133   5.996 -0.7595 -1.1122  1.3839
  172SAPE  H18Y19487   1.256   2.178   6.168  0.1937 -0.9085  0.0694
  172SAPE  H18Z19488   1.388   2.155   6.048 -0.0326  1.4945 -1.3844
  173SLPC     N19489   0.560   6.204   7.989  0.1378 -1.0991  0.4371
  173SLPC   C1319490   0.514   6.216   7.840 -0.6235  0.2788  0.1155
  173SLPC  H13A19491   0.465   6.122   7.816  0.0134 -0.0923  0.2385
  173SLPC  H13B19492   0.452   6.301   7.817 -1.3529  0.1348  1.4818
  173SLPC  H13C19493   0.599   6.225   7.774 -1.1126  1.9775 -0.3107
  173SLPC   C1419494   0.438   6.207   8.069  0.9742 -0.1335  0.1095
  173SLPC  H14A19495   0.455   6.202   8.176  0.3907 -0.4743  0.1856
  173SLPC  H14B19496   0.381   6.297   8.051  0.6154 -0.1825  0.9385
  173SLPC  H14C19497   0.376   6.127   8.034  2.7200 -1.4978  0.0424
  173SLPC   C1519498   0.646   6.330   8.016 -0.5342 -0.4639  0.8213
  173SLPC  H15A19499   0.581   6.413   7.993 -1.4930 -1.7401 -1.3663
  173SLPC  H15B19500   0.676   6.326   8.120 -1.5496 -0.3208  1.1251
  173SLPC  H15C19501   0.727   6.326   7.945 -0.2830  0.7082  1.0224
  173SLPC   C1219502   0.646   6.080   8.004 -0.3058  0.0751 -0.5173
  173SLPC  H12A19503   0.682   6.079   8.106  2.4129  2.7801 -1.2987
  173SLPC  H12B19504   0.740   6.096   7.952 -0.1308 -0.1869 -0.2897
  173SLPC   C1119505   0.576   5.948   7.968  0.0259  0.2866  0.0677
  173SLPC  H11A19506   0.482   5.943   8.028 -0.6305 -0.3551 -0.9748
  173SLPC  H11B19507   0.647   5.872   8.006 -0.0467  0.4521  0.5378
  173SLPC     P19508   0.662   5.877   7.729  0.5469  0.3665  0.1342
  173SLPC   O1319509   0.789   5.959   7.735  0.3809  0.6817  0.0331
  173SLPC   O1419510   0.678   5.730   7.741  0.0615  1.0678  0.3026
  173SLPC   O1219511   0.550   5.926   7.829  0.0863  0.1855 -0.5213
  173SLPC   O1119512   0.601   5.909   7.590 -0.0057 -0.6960 -0.1675
  173SLPC    C119513   0.460   5.899   7.569 -0.2942 -0.2979  0.2324
  173SLPC    HA19514   0.420   5.804   7.611 -0.6046 -0.3053 -0.0708
  173SLPC    HB19515   0.401   5.976   7.623 -1.9752 -0.8511 -0.7107
  173SLPC    C219516   0.415   5.894   7.414 -0.6247 -0.6114 -0.2124
  173SLPC    HS19517   0.306   5.874   7.415 -0.4717 -1.4063  0.7270
  173SLPC   O2119518   0.490   5.792   7.347 -0.2888 -0.3019  0.0800
  173SLPC   C2119519   0.444   5.667   7.363 -0.4319  0.1453  0.2204
  173SLPC   O2219520   0.357   5.645   7.442  0.5594 -0.1443 -0.0476
  173SLPC   C2219521   0.517   5.568   7.290  0.2952 -0.2919  1.3095
  173SLPC   H2R19522   0.573   5.618   7.208 -1.7272  0.9601  0.6187
  173SLPC   H2S19523   0.590   5.528   7.363  0.4351 -2.0397  0.2635
  173SLPC    C319524   0.442   6.034   7.345  0.1809  0.3304 -0.6383
  173SLPC    HX19525   0.551   6.051   7.359 -0.1644  1.2594  1.2075
  173SLPC    HY19526   0.404   6.122   7.401  1.1786  0.3530  0.0223
  173SLPC   O3119527   0.411   6.048   7.207 -0.3814  0.2506 -0.2825
  173SLPC   C3119528   0.288   6.084   7.179 -0.8482  0.1300 -0.0393
  173SLPC   O3219529   0.206   6.125   7.263 -0.0786  0.6907 -0.4363
  173SLPC   C3219530   0.266   6.065   7.029  0.0892 -0.0675  0.1628
  173SLPC   H2X19531   0.200   6.151   7.004  1.6685  1.5692  1.4497
  173SLPC   H2Y19532   0.200   5.977   7.013  1.1221 -0.6742 -0.9828
  173SLPC   C2319533   0.429   5.453   7.236  0.2688 -0.2607 -0.4535
  173SLPC   H3R19534   0.389   5.401   7.326 -0.9163  0.6811 -0.4115
  173SLPC   H3S19535   0.488   5.373   7.187 -0.7821 -1.3186 -0.0453
  173SLPC   C2419536   0.318   5.484   7.133 -0.1693 -0.4550 -0.4453
  173SLPC   H4R19537   0.235   5.534   7.187 -1.0003 -1.3032 -0.9070
  173SLPC   H4S19538   0.270   5.389   7.103  0.4078 -0.4699 -1.3554
  173SLPC   C2519539   0.367   5.559   7.009 -0.2400  1.0062  0.7368
  173SLPC   H5R19540   0.441   5.500   6.952 -1.7415 -0.3870  0.1433
  173SLPC   H5S19541   0.423   5.651   7.036 -2.7799  3.0436 -0.4207
  173SLPC   C2619542   0.260   5.601   6.904  0.3054  0.3171 -0.5505
  173SLPC   H6R19543   0.172   5.650   6.950  1.3622 -1.5194  3.8693
  173SLPC   H6S19544   0.215   5.506   6.867  0.9317 -0.7677  1.3618
  173SLPC   C2719545   0.321   5.675   6.781 -0.1366  0.3793 -0.7258
  173SLPC   H7R19546   0.367   5.592   6.723 -1.4868  0.4717 -1.9656
  173SLPC   H7S19547   0.408   5.739   6.809 -0.5830  1.1455 -1.0590
  173SLPC   C2819548   0.221   5.758   6.706  0.3137 -0.5209  0.2045
  173SLPC   H8R19549   0.185   5.841   6.771  0.7421  0.5906 -0.9430
  173SLPC   H8S19550   0.131   5.698   6.679 -0.6139  0.5947  0.6999
  173SLPC   C2919551   0.278   5.821   6.584  0.9457  0.1625  0.1689
  173SLPC   H9R19552   0.342   5.909   6.600  1.3901  0.0591 -0.9229
  173SLPC  C21019553   0.265   5.772   6.459  0.2403 -0.0859 -0.5798
  173SLPC  H10R19554   0.318   5.824   6.377  0.8449  0.4792  0.1592
  173SLPC  C21119555   0.207   5.636   6.427  0.1279  0.4462 -0.2900
  173SLPC  H11R19556   0.197   5.569   6.514  0.6998 -0.6301 -1.0356
  173SLPC  H11S19557   0.279   5.574   6.370 -1.2329 -2.9014  1.3504
  173SLPC  C21219558   0.084   5.656   6.341  0.1730 -0.1088 -0.5442
  173SLPC  H12R19559  -0.006   5.678   6.401  0.5030  0.3232 -0.2051
  173SLPC  C21319560   0.071   5.627   6.209 -0.2365 -0.5696  0.2759
  173SLPC  H13R19561  -0.025   5.660   6.168 -0.4121  0.1446  1.2233
  173SLPC  C21419562   0.180   5.582   6.118 -0.0679 -0.6895  0.0414
  173SLPC  H14R19563   0.255   5.519   6.169  0.5892  1.4641  1.9127
  173SLPC  H14S19564   0.234   5.676   6.093  0.1143 -0.8545 -0.1819
  173SLPC  C21519565   0.126   5.507   5.990 -0.7812  0.2835 -0.3856
  173SLPC  H15R19566   0.044   5.572   5.951 -0.4682  0.5137 -0.6663
  173SLPC  H15S19567   0.096   5.408   6.031  0.4707 -0.4671 -1.1809
  173SLPC  C21619568   0.233   5.499   5.885  0.1545  0.9028 -0.0639
  173SLPC  H16R19569   0.309   5.431   5.929 -0.5835 -1.6866 -2.4629
  173SLPC  H16S19570   0.277   5.601   5.881 -1.3685  1.6429  0.9716
  173SLPC  C21719571   0.166   5.439   5.755 -0.1708  0.2948  0.2770
  173SLPC  H17R19572   0.085   5.505   5.717 -2.2678 -2.1375  0.3142
  173SLPC  H17S19573   0.114   5.344   5.780 -1.6542  1.0638  0.2095
  173SLPC  C21819574   0.277   5.422   5.651  1.1413  0.2777 -0.7653
  173SLPC  H18R19575   0.224   5.365   5.572  0.5561 -0.9183  0.4440
  173SLPC  H18S19576   0.363   5.360   5.684  0.1492 -1.5801 -1.5012
  173SLPC  H18T19577   0.295   5.529   5.627  1.3922 -0.1823 -2.7614
  173SLPC   C3319578   0.374   6.054   6.923  0.1158 -0.4875 -0.2512
  173SLPC   H3X19579   0.385   5.947   6.894 -0.3994 -0.6457  0.1340
  173SLPC   H3Y19580   0.472   6.095   6.955 -0.1950  0.7192 -0.7689
  173SLPC   C3419581   0.336   6.147   6.801 -0.0157 -0.1298 -0.5345
  173SLPC   H4X19582   0.328   6.248   6.846  4.2486 -0.0516  0.4754
  173SLPC   H4Y19583   0.234   6.118   6.770 -0.1116  0.2823 -0.6089
  173SLPC   C3519584   0.441   6.143   6.689 -0.0793  0.1572  0.1563
  173SLPC   H5X19585   0.470   6.042   6.652 -0.7446 -0.3314  0.9346
  173SLPC   H5Y19586   0.531   6.201   6.718  0.5258 -0.2452 -0.8573
  173SLPC   C3619587   0.381   6.210   6.556 -0.0859  0.3705 -0.3958
  173SLPC   H6X19588   0.370   6.317   6.583  0.3937  1.0293 -2.6722
  173SLPC   H6Y19589   0.285   6.157   6.534  0.6521 -0.9130 -0.6487
  173SLPC   C3719590   0.473   6.172   6.439 -0.0045  0.5363  0.1043
  173SLPC   H7X19591   0.471   6.064   6.412 -0.7285 -0.3906  3.3542
  173SLPC   H7Y19592   0.577   6.179   6.478  0.3368  0.6715 -0.8178
  173SLPC   C3819593   0.439   6.259   6.313  0.3388 -0.5017 -0.7196
  173SLPC   H8X19594   0.489   6.357   6.322 -0.7037 -0.0712  0.6361
  173SLPC   H8Y19595   0.328   6.263   6.313  0.2834 -0.5985  1.6626
  173SLPC   C3919596   0.490   6.191   6.180  0.0630  0.1112 -0.2398
  173SLPC   H9X19597   0.428   6.101   6.166  0.5321  0.0067 -1.8508
  173SLPC   H9Y19598   0.591   6.148   6.194 -0.0146 -0.0207 -0.0895
  173SLPC  C31019599   0.488   6.281   6.055 -0.0547 -0.1793 -0.1633
  173SLPC  H10X19600   0.560   6.363   6.076  2.7782 -2.6397  0.5634
  173SLPC  H10Y19601   0.379   6.293   6.037 -0.2027 -1.2509 -0.0759
  173SLPC  C31119602   0.540   6.198   5.929 -0.2451 -0.4556 -0.0243
  173SLPC  H11X19603   0.457   6.130   5.899  1.4322 -2.8551  0.4820
  173SLPC  H11Y19604   0.626   6.133   5.957 -0.0309 -0.4446 -0.6519
  173SLPC  C31219605   0.599   6.287   5.822  0.1286  0.0047  0.2142
  173SLPC  H12X19606   0.535   6.378   5.822  0.7790  0.6706  4.3376
  173SLPC  H12Y19607   0.591   6.241   5.721  1.4353  3.1736 -1.4953
  173SLPC  C31319608   0.747   6.331   5.853  0.6976 -0.4158  0.0039
  173SLPC  H13X19609   0.812   6.241   5.866  2.4218  0.8855  0.8272
  173SLPC  H13Y19610   0.757   6.379   5.953  0.3350 -0.6072  0.1334
  173SLPC  C31419611   0.810   6.419   5.752  0.2957  0.1317  0.3354
  173SLPC  H14X19612   0.910   6.449   5.791 -0.0224 -2.0077  3.0431
  173SLPC  H14Y19613   0.741   6.505   5.742  0.3805  0.1941  0.2841
  173SLPC  C31519614   0.835   6.373   5.603  0.1632  0.1645 -0.0860
  173SLPC  H15X19615   0.740   6.335   5.561 -0.0975  0.5515  0.1495
  173SLPC  H15Y19616   0.913   6.294   5.595  2.1261  1.9287  0.5033
  173SLPC  C31619617   0.884   6.488   5.515  0.6620 -0.6518 -0.3827
  173SLPC  H16X19618   0.982   6.531   5.545 -0.0319  0.1222  0.8382
  173SLPC  H16Y19619   0.802   6.562   5.527 -0.3186 -1.6421 -0.8325
  173SLPC  C31719620   0.889   6.450   5.364 -0.4279 -0.0380 -0.9583
  173SLPC  H17X19621   0.816   6.368   5.345  1.1641 -2.2896  1.8520
  173SLPC  H17Y19622   0.986   6.409   5.331  0.2694  0.5473  0.2926
  173SLPC  C31819623   0.866   6.577   5.284  0.3108 -0.1334  0.1278
  173SLPC  H18X19624   0.756   6.593   5.277  0.3589  1.8045  2.5067
  173SLPC  H18Y19625   0.907   6.585   5.181 -2.0155  1.5341 -0.7541
  173SLPC  H18Z19626   0.924   6.655   5.338  0.5596 -1.7499  2.2862
  174SLPC     N19627   6.269   1.789   7.566 -0.2008  0.1015  0.1978
  174SLPC   C1319628   6.258   1.870   7.691 -0.2151  0.1768 -0.1420
  174SLPC  H13A19629   6.348   1.922   7.717  0.1811 -0.7650  0.4221
  174SLPC  H13B19630   6.193   1.952   7.663  0.0161 -0.0435 -1.3580
  174SLPC  H13C19631   6.212   1.829   7.780  0.5184  1.8698  1.0652
  174SLPC   C1419632   6.133   1.747   7.528 -0.3698 -0.4346 -0.2364
  174SLPC  H14A19633   6.141   1.702   7.430 -4.8639  0.2253 -1.1187
  174SLPC  H14B19634   6.082   1.672   7.587 -0.1269 -0.3508  0.0775
  174SLPC  H14C19635   6.062   1.828   7.517 -0.6989 -0.8511 -1.3526
  174SLPC   C1519636   6.365   1.681   7.589  0.4362  0.0539  0.1548
  174SLPC  H15A19637   6.368   1.615   7.503  2.5296 -1.1126  1.0551
  174SLPC  H15B19638   6.458   1.728   7.616  1.0805 -1.4761  0.7404
  174SLPC  H15C19639   6.350   1.619   7.676 -0.1401  0.7761  0.5827
  174SLPC   C1219640   6.326   1.872   7.455  0.4913 -0.2538 -0.0616
  174SLPC  H12A19641   6.428   1.893   7.484 -0.0767 -1.2991  2.9615
  174SLPC  H12B19642   6.275   1.967   7.447  0.6154 -0.1144  0.7480
  174SLPC   C1119643   6.317   1.813   7.311  0.9310 -0.0637  0.8642
  174SLPC  H11A19644   6.381   1.877   7.246 -0.1802 -0.1622 -0.3707
  174SLPC  H11B19645   6.215   1.835   7.272  1.5695  4.0306  1.0608
  174SLPC     P19646   6.298   1.557   7.262 -0.3768  0.1705 -0.2025
  174SLPC   O1319647   6.391   1.453   7.308  0.1717  0.0165  0.7971
  174SLPC   O1419648   6.156   1.562   7.303 -0.8531  0.8395 -0.0332
  174SLPC   O1219649   6.376   1.683   7.313 -0.5313  0.2362  0.5841
  174SLPC   O1119650   6.296   1.552   7.102 -0.0173 -0.2942 -0.2818
  174SLPC    C119651   6.393   1.621   7.029 -0.1098  0.7062  0.9031
  174SLPC    HA19652   6.374   1.728   7.049 -2.4335  0.7100 -0.9401
  174SLPC    HB19653   6.497   1.593   7.059 -0.2607  0.2460  1.0079
  174SLPC    C219654   6.378   1.580   6.880 -0.3406  0.1113 -0.4410
  174SLPC    HS19655   6.451   1.643   6.824  2.2243 -2.7594 -0.5654
  174SLPC   O2119656   6.243   1.591   6.833 -0.1162  0.4466  0.2576
  174SLPC   C2119657   6.202   1.717   6.806 -0.1001 -0.2492  0.7560
  174SLPC   O2219658   6.270   1.815   6.820  0.0643  0.8175  0.8004
  174SLPC   C2219659   6.060   1.713   6.749 -0.7642  0.2209 -0.3331
  174SLPC   H2R19660   6.002   1.631   6.798  0.8149 -1.5874 -1.3669
  174SLPC   H2S19661   6.018   1.813   6.775  3.3205  1.8060  0.8332
  174SLPC    C319662   6.420   1.438   6.868 -0.5725  0.5144  0.3002
  174SLPC    HX19663   6.369   1.375   6.944 -0.2853 -1.8615 -1.3351
  174SLPC    HY19664   6.529   1.427   6.884 -0.8527  0.4873  2.3352
  174SLPC   O3119665   6.376   1.383   6.746 -0.3586 -0.4375 -0.0275
  174SLPC   C3119666   6.445   1.418   6.633  0.4100 -0.7461 -0.8238
  174SLPC   O3219667   6.528   1.504   6.631 -0.4946 -0.2626 -0.4237
  174SLPC   C3219668   6.377   1.355   6.524  0.1108 -0.1511  0.7769
  174SLPC   H2X19669   6.385   1.426   6.439 -2.1770  0.3196  0.8952
  174SLPC   H2Y19670   6.268   1.342   6.545 -0.3142  0.5966 -0.8500
  174SLPC   C2319671   6.063   1.692   6.598 -1.2450  0.7442  0.7038
  174SLPC   H3R19672   5.957   1.677   6.571 -0.8166  0.9886 -1.3551
  174SLPC   H3S19673   6.110   1.598   6.563 -2.1306  0.7169 -0.4657
  174SLPC   C2419674   6.137   1.816   6.528  0.1916  0.2462 -0.0078
  174SLPC   H4R19675   6.247   1.806   6.540  0.0137 -0.4526  1.1231
  174SLPC   H4S19676   6.114   1.904   6.592  0.8801  0.4924 -0.0968
  174SLPC   C2519677   6.094   1.844   6.384  0.6680  0.6320 -0.3043
  174SLPC   H5R19678   6.151   1.930   6.344  0.2776  0.8114 -0.4756
  174SLPC   H5S19679   5.986   1.869   6.377 -0.2196 -2.9354 -1.2641
  174SLPC   C2619680   6.132   1.723   6.288 -0.0223 -0.8627  1.1430
  174SLPC   H6R19681   6.035   1.712   6.235 -0.4088 -0.2588  1.7144
  174SLPC   H6S19682   6.156   1.628   6.340 -1.9831 -1.2458  1.4292
  174SLPC   C2719683   6.234   1.765   6.175  0.2327  0.0694 -0.9228
  174SLPC   H7R19684   6.323   1.802   6.230 -3.5858  1.7947  4.9675
  174SLPC   H7S19685   6.209   1.857   6.119  1.4088  1.5474  0.8691
  174SLPC   C2819686   6.268   1.660   6.070  0.7853  0.0059  0.6089
  174SLPC   H8R19687   6.305   1.568   6.120  2.2010 -0.8263 -1.7952
  174SLPC   H8S19688   6.360   1.698   6.020  0.9505 -0.2683  0.7011
  174SLPC   C2919689   6.159   1.639   5.966 -0.0965  0.7329  0.2726
  174SLPC   H9R19690   6.056   1.613   5.996 -0.0203 -0.8464 -0.7456
  174SLPC  C21019691   6.175   1.674   5.840 -0.4568 -0.1566 -0.3995
  174SLPC  H10R19692   6.085   1.666   5.776 -0.0299 -1.6451 -0.8628
  174SLPC  C21119693   6.296   1.738   5.773 -0.7061  0.1730  0.1558
  174SLPC  H11R19694   6.390   1.722   5.828  0.4426 -2.1273 -2.2248
  174SLPC  H11S19695   6.282   1.848   5.765 -1.3578  0.0448 -0.6744
  174SLPC  C21219696   6.324   1.678   5.634  0.4616 -0.5838  0.1656
  174SLPC  H12R19697   6.294   1.573   5.639 -1.8048  0.0494  1.4857
  174SLPC  C21319698   6.362   1.744   5.522  0.0681 -0.7616 -0.4356
  174SLPC  H13R19699   6.365   1.693   5.425 -1.1706 -1.5864 -0.0669
  174SLPC  C21419700   6.399   1.887   5.517 -0.1973 -0.1709  0.1427
  174SLPC  H14R19701   6.411   1.928   5.620 -2.1618 -0.4094  0.5042
  174SLPC  H14S19702   6.316   1.944   5.472 -0.3374  0.2676  0.9382
  174SLPC  C21519703   6.523   1.916   5.425 -0.0282 -0.1478  0.5509
  174SLPC  H15R19704   6.499   1.898   5.318 -1.4523  0.4887  0.7368
  174SLPC  H15S19705   6.594   1.836   5.453 -3.0197 -3.1468  0.1743
  174SLPC  C21619706   6.579   2.060   5.443  0.0022  0.1206 -0.9157
  174SLPC  H16R19707   6.528   2.131   5.374  1.8381  1.1884 -1.2654
  174SLPC  H16S19708   6.683   2.060   5.404  0.5357 -0.5678  0.4219
  174SLPC  C21719709   6.587   2.119   5.591  0.3601 -0.0951  0.3460
  174SLPC  H17R19710   6.621   2.049   5.671  0.7054 -0.1300  0.1713
  174SLPC  H17S19711   6.485   2.158   5.610  0.9406  0.8985  1.5985
  174SLPC  C21819712   6.679   2.246   5.601 -1.0659  0.0941  0.1251
  174SLPC  H18R19713   6.682   2.285   5.705 -2.2123  0.3635  0.0759
  174SLPC  H18S19714   6.650   2.328   5.532  1.9437 -1.8839 -3.9120
  174SLPC  H18T19715   6.783   2.215   5.578 -0.3562  0.0398  3.0271
  174SLPC   C3319716   6.447   1.212   6.509 -0.1508  0.3878  0.5695
  174SLPC   H3X19717   6.391   1.138   6.571  2.4550  0.4706  3.2527
  174SLPC   H3Y19718   6.552   1.206   6.544  0.0115  1.0375  0.2103
  174SLPC   C3419719   6.427   1.159   6.371  0.6259  0.2091 -0.6959
  174SLPC   H4X19720   6.321   1.181   6.344 -0.5472 -1.4344  2.1418
  174SLPC   H4Y19721   6.431   1.048   6.369  0.7241  0.2055 -0.2836
  174SLPC   C3519722   6.521   1.212   6.254 -0.7041 -0.2801 -0.1941
  174SLPC   H5X19723   6.622   1.169   6.274 -1.2822 -2.2590 -1.2858
  174SLPC   H5Y19724   6.532   1.322   6.263  0.4026 -0.2079 -1.8473
  174SLPC   C3619725   6.470   1.177   6.107  0.4179  0.1822  0.3294
  174SLPC   H6X19726   6.372   1.219   6.075 -0.3321  0.3629  2.6642
  174SLPC   H6Y19727   6.465   1.067   6.102  0.2846  0.2449 -1.8428
  174SLPC   C3719728   6.563   1.245   6.001 -0.4801 -0.1032 -0.1317
  174SLPC   H7X19729   6.665   1.212   6.030 -0.5682  0.6201  1.0455
  174SLPC   H7Y19730   6.557   1.353   6.023 -1.5185 -0.0467 -0.6589
  174SLPC   C3819731   6.544   1.203   5.864  0.3219 -0.9449 -0.1400
  174SLPC   H8X19732   6.451   1.239   5.816  0.5014 -2.1765 -1.4929
  174SLPC   H8Y19733   6.535   1.092   5.864 -0.7437 -0.8695  0.5798
  174SLPC   C3919734   6.665   1.256   5.781 -0.0123  0.1035  0.0347
  174SLPC   H9X19735   6.764   1.218   5.815 -0.2381  0.3028  0.9242
  174SLPC   H9Y19736   6.668   1.365   5.798 -0.7583 -0.2201  2.4961
  174SLPC  C31019737   6.650   1.245   5.629  0.2528 -0.1230 -0.0100
  174SLPC  H10X19738   6.565   1.311   5.599 -0.0709 -0.4682  0.1358
  174SLPC  H10Y19739   6.617   1.143   5.597 -1.4773 -0.1755  1.7790
  174SLPC  C31119740   6.758   1.298   5.534 -0.1677 -0.1041  0.0743
  174SLPC  H11X19741   6.789   1.403   5.548  1.7008 -0.8291  1.9796
  174SLPC  H11Y19742   6.725   1.288   5.428  3.8340 -1.5968 -1.2608
  174SLPC  C31219743   6.879   1.206   5.532 -0.1148 -0.2016  0.0780
  174SLPC  H12X19744   6.914   1.186   5.636  2.1877 -1.6167 -0.8990
  174SLPC  H12Y19745   6.966   1.240   5.473  0.0206 -0.8945 -0.1244
  174SLPC  C31319746   6.843   1.059   5.486  0.0825  0.4444 -0.5075
  174SLPC  H13X19747   6.785   1.060   5.391 -1.9974 -3.2027  0.5360
  174SLPC  H13Y19748   6.775   1.016   5.562  0.3180 -1.1590 -1.1684
  174SLPC  C31419749   6.956   0.955   5.492 -0.6137  0.3333 -0.2623
  174SLPC  H14X19750   7.034   0.986   5.420  0.1527 -1.0827 -0.0840
  174SLPC  H14Y19751   6.918   0.862   5.444  1.3156 -0.2349 -0.7882
  174SLPC  C31519752   7.022   0.938   5.630 -0.0031  0.2577 -0.4175
  174SLPC  H15X19753   7.085   1.028   5.643 -1.6410  1.9319 -3.1066
  174SLPC  H15Y19754   7.095   0.854   5.629 -0.1006  0.1602  0.1942
  174SLPC  C31619755   6.932   0.916   5.754 -0.8580  0.5089  0.3278
  174SLPC  H16X19756   6.848   0.988   5.762 -3.5997 -2.4173 -0.3840
  174SLPC  H16Y19757   7.003   0.920   5.840 -0.9648  0.3943  0.4200
  174SLPC  C31719758   6.864   0.788   5.762  0.6205  0.4262  0.0398
  174SLPC  H17X19759   6.844   0.765   5.869  0.1617  0.1431 -0.1045
  174SLPC  H17Y19760   6.930   0.703   5.733 -1.4946 -1.4068  0.3326
  174SLPC  C31819761   6.729   0.777   5.686 -0.3237 -0.6053  0.2138
  174SLPC  H18X19762   6.689   0.881   5.676  1.9057  0.2293 -0.5178
  174SLPC  H18Y19763   6.659   0.706   5.735  0.7350 -2.2734 -0.6164
  174SLPC  H18Z19764   6.740   0.736   5.584  1.2471 -1.1809  0.5901
  175SLPC     N19765   2.957   1.623   7.889  0.4720  0.0687  0.7457
  175SLPC   C1319766   2.869   1.620   8.013  0.2497 -0.1454  0.4487
  175SLPC  H13A19767   2.807   1.709   8.014  0.7234  0.2872 -2.0580
  175SLPC  H13B19768   2.808   1.531   8.020 -0.0305 -0.2327 -2.1118
  175SLPC  H13C19769   2.936   1.612   8.097  0.4069 -1.1111  0.2383
  175SLPC   C1419770   3.099   1.588   7.922  0.0168 -0.5651  0.1168
  175SLPC  H14A19771   3.104   1.483   7.943 -0.4675 -0.8593 -1.1924
  175SLPC  H14B19772   3.156   1.590   7.831  0.5267 -1.2565  0.4138
  175SLPC  H14C19773   3.147   1.633   8.008  2.0760 -2.5115  0.0608
  175SLPC   C1519774   2.943   1.753   7.823 -0.1862  0.1774 -0.0664
  175SLPC  H15A19775   3.013   1.751   7.740  1.4292 -2.0114  1.2448
  175SLPC  H15B19776   2.847   1.787   7.788  1.2782  2.9461 -1.7487
  175SLPC  H15C19777   2.987   1.825   7.891  2.9308 -0.2876 -1.4033
  175SLPC   C1219778   2.919   1.516   7.789  0.1943 -0.0828  0.6580
  175SLPC  H12A19779   2.933   1.416   7.828  2.0714 -0.7411 -1.4689
  175SLPC  H12B19780   2.980   1.521   7.700 -1.0687 -0.8997 -0.2897
  175SLPC   C1119781   2.771   1.515   7.742  0.1581  0.1261  0.3103
  175SLPC  H11A19782   2.704   1.504   7.831 -0.1376  0.3449  0.1151
  175SLPC  H11B19783   2.760   1.426   7.677 -1.1041 -0.8430  1.7746
  175SLPC     P19784   2.755   1.629   7.509 -0.5811 -0.1061 -0.4092
  175SLPC   O1319785   2.728   1.765   7.460 -0.6869  0.2236  0.1084
  175SLPC   O1419786   2.894   1.577   7.481  0.6355  0.5195 -0.3920
  175SLPC   O1219787   2.730   1.629   7.664  0.0143  0.4736  0.2870
  175SLPC   O1119788   2.641   1.530   7.460 -0.3404 -0.2704 -0.2257
  175SLPC    C119789   2.671   1.428   7.370  0.3200  0.0415  0.3550
  175SLPC    HA19790   2.766   1.376   7.396  1.1555  2.0302  1.5405
  175SLPC    HB19791   2.589   1.353   7.371 -0.2968  0.7044  0.6187
  175SLPC    C219792   2.681   1.472   7.222  0.1330  0.4972 -0.7511
  175SLPC    HS19793   2.776   1.530   7.232  1.5667 -1.8617  0.3372
  175SLPC   O2119794   2.571   1.552   7.178 -0.0203  0.0834  0.4241
  175SLPC   C2119795   2.609   1.650   7.098 -0.0121  0.0898  0.4854
  175SLPC   O2219796   2.724   1.671   7.058  1.0387  0.2080 -0.3959
  175SLPC   C2219797   2.484   1.738   7.056  0.0240  0.4196 -0.3353
  175SLPC   H2R19798   2.405   1.667   7.086  1.2632 -0.1822  1.7195
  175SLPC   H2S19799   2.476   1.823   7.127 -1.4124  1.9556 -2.1980
  175SLPC    C319800   2.724   1.356   7.124 -0.4283 -0.2000  0.9065
  175SLPC    HX19801   2.653   1.270   7.122  1.1447 -1.5640  0.0944
  175SLPC    HY19802   2.810   1.297   7.164  0.0542 -1.8896 -2.2395
  175SLPC   O3119803   2.758   1.397   6.988  0.2230 -0.0301  0.6857
  175SLPC   C3119804   2.662   1.404   6.886 -0.3918 -0.3988  0.0940
  175SLPC   O3219805   2.552   1.354   6.890  0.6049  0.4491 -0.5293
  175SLPC   C3219806   2.719   1.468   6.763 -0.0461  0.1190 -0.6089
  175SLPC   H2X19807   2.814   1.415   6.739  0.7048  2.2561 -2.8498
  175SLPC   H2Y19808   2.737   1.569   6.805 -1.1948 -0.5195  1.5509
  175SLPC   C2319809   2.488   1.819   6.920 -0.0109 -0.5447  0.1910
  175SLPC   H3R19810   2.384   1.855   6.903 -0.0265  0.7841  2.5819
  175SLPC   H3S19811   2.523   1.748   6.842 -0.5981  0.2705 -0.8336
  175SLPC   C2419812   2.578   1.940   6.923 -0.1677 -0.3754  0.6389
  175SLPC   H4R19813   2.687   1.920   6.929 -0.1732 -0.1257  1.7369
  175SLPC   H4S19814   2.555   2.013   7.003 -1.1256 -0.3426  0.3541
  175SLPC   C2519815   2.565   2.012   6.791 -0.0960  0.1384  0.2670
  175SLPC   H5R19816   2.580   2.118   6.822 -0.1666  0.1732  0.1844
  175SLPC   H5S19817   2.463   2.002   6.746 -0.4234  0.8166  0.8271
  175SLPC   C2619818   2.666   1.966   6.683  0.7944 -0.4250 -0.3226
  175SLPC   H6R19819   2.643   1.866   6.643  1.3427 -1.1041  0.9977
  175SLPC   H6S19820   2.773   1.960   6.713  0.9200 -4.3674 -1.1308
  175SLPC   C2719821   2.648   2.060   6.573 -0.5693  0.3399  0.2150
  175SLPC   H7R19822   2.631   2.161   6.616 -0.6094  0.3269  0.2303
  175SLPC   H7S19823   2.562   2.043   6.504  0.2927 -0.5118 -0.6732
  175SLPC   C2819824   2.775   2.058   6.481 -0.0343 -0.3619 -0.0980
  175SLPC   H8R19825   2.771   1.960   6.430 -2.0055 -0.2723 -0.2078
  175SLPC   H8S19826   2.867   2.062   6.543 -0.5957  0.9736  0.6965
  175SLPC   C2919827   2.771   2.177   6.390  0.5359  0.0065  0.4695
  175SLPC   H9R19828   2.743   2.267   6.446  2.1749  0.3011  0.8355
  175SLPC  C21019829   2.809   2.184   6.261  0.7860  0.7446  0.8326
  175SLPC  H10R19830   2.802   2.280   6.207 -0.6784  0.2882  0.1719
  175SLPC  C21119831   2.858   2.064   6.177  0.1733 -0.4473  0.0526
  175SLPC  H11R19832   2.801   2.056   6.081 -0.1368  1.5785  0.0149
  175SLPC  H11S19833   2.851   1.968   6.231  1.9367  0.1719  1.4628
  175SLPC  C21219834   3.002   2.076   6.146  0.7806 -0.5395  0.0208
  175SLPC  H12R19835   3.066   2.060   6.234  1.0122 -1.3968 -0.2932
  175SLPC  C21319836   3.051   2.100   6.022 -0.0849 -0.1744 -0.5345
  175SLPC  H13R19837   3.161   2.089   6.014 -0.1796 -0.2810 -1.8809
  175SLPC  C21419838   2.981   2.116   5.888 -0.0517  0.0372  0.2390
  175SLPC  H14R19839   2.871   2.105   5.889 -0.0176 -0.6653 -1.1530
  175SLPC  H14S19840   3.014   2.030   5.825 -0.6931  0.0692 -0.1511
  175SLPC  C21519841   3.000   2.244   5.809  1.0072  0.0287  0.7992
  175SLPC  H15R19842   3.107   2.250   5.782  0.9103 -1.4949 -0.0929
  175SLPC  H15S19843   2.981   2.328   5.878  2.2802  0.3936  0.7151
  175SLPC  C21619844   2.910   2.255   5.687  0.3648  0.6727  1.0467
  175SLPC  H16R19845   2.819   2.195   5.708  1.6566 -1.7605  0.0792
  175SLPC  H16S19846   2.968   2.211   5.603 -1.7015  0.5112 -0.3969
  175SLPC  C21719847   2.872   2.399   5.652 -0.1112  0.0347 -0.0855
  175SLPC  H17R19848   2.964   2.461   5.652 -0.1704  0.2832  3.0060
  175SLPC  H17S19849   2.805   2.440   5.731 -1.0984  0.3696 -1.0680
  175SLPC  C21819850   2.797   2.424   5.517 -0.6689 -0.0376  0.1025
  175SLPC  H18R19851   2.702   2.367   5.522 -1.0477  0.5200 -0.6189
  175SLPC  H18S19852   2.857   2.386   5.432 -0.0400 -1.1206  1.0044
  175SLPC  H18T19853   2.781   2.533   5.504  1.8221  0.3059 -0.6745
  175SLPC   C3319854   2.639   1.454   6.633 -0.5862 -0.0111  0.1338
  175SLPC   H3X19855   2.529   1.455   6.652 -0.4058 -1.3876  1.4869
  175SLPC   H3Y19856   2.653   1.354   6.588  0.9542 -0.5354  1.6861
  175SLPC   C3419857   2.686   1.563   6.535 -0.4843  0.0104 -0.2882
  175SLPC   H4X19858   2.791   1.552   6.500 -0.3322  2.7692 -0.9138
  175SLPC   H4Y19859   2.687   1.663   6.584 -0.3968  0.6754 -1.6032
  175SLPC   C3519860   2.582   1.560   6.416  0.0538 -0.7799 -0.4467
  175SLPC   H5X19861   2.488   1.608   6.451  0.3852  0.4469 -1.1807
  175SLPC   H5Y19862   2.577   1.455   6.378 -0.5472 -0.4029 -1.4388
  175SLPC   C3619863   2.641   1.657   6.312 -0.0325  0.6880 -0.3001
  175SLPC   H6X19864   2.736   1.614   6.272 -1.0498 -0.3316 -1.7225
  175SLPC   H6Y19865   2.664   1.754   6.362 -1.1137 -0.4546  2.6393
  175SLPC   C3719866   2.542   1.686   6.200 -0.0638 -0.4668 -0.0045
  175SLPC   H7X19867   2.452   1.745   6.226  1.0299  2.7519 -2.8071
  175SLPC   H7Y19868   2.498   1.589   6.167 -1.6938 -0.3465  1.6589
  175SLPC   C3819869   2.605   1.753   6.079  0.0943 -0.3940 -0.6461
  175SLPC   H8X19870   2.695   1.698   6.046 -0.3805 -2.3063  1.0308
  175SLPC   H8Y19871   2.623   1.857   6.115 -4.3426 -0.0100  1.1551
  175SLPC   C3919872   2.506   1.764   5.962  0.4648  0.1090  0.9046
  175SLPC   H9X19873   2.409   1.803   5.998 -0.1612  1.0792 -1.6165
  175SLPC   H9Y19874   2.485   1.662   5.922 -0.3378  0.1900  1.1084
  175SLPC  C31019875   2.559   1.846   5.848  0.1370 -0.1586 -0.2356
  175SLPC  H10X19876   2.640   1.780   5.809  0.7257 -1.3706  2.7386
  175SLPC  H10Y19877   2.613   1.936   5.883  0.4830 -0.8047  0.9775
  175SLPC  C31119878   2.460   1.870   5.728  0.2744  0.4049 -0.7077
  175SLPC  H11X19879   2.388   1.944   5.771  2.1894  1.0860  1.6179
  175SLPC  H11Y19880   2.413   1.771   5.711  1.1991 -0.0770 -0.5497
  175SLPC  C31219881   2.521   1.937   5.604 -0.0046 -0.0047  0.3535
  175SLPC  H12X19882   2.580   2.024   5.639  2.6843 -0.6514 -2.2217
  175SLPC  H12Y19883   2.437   1.978   5.543  0.8875  1.0878 -0.1692
  175SLPC  C31319884   2.595   1.831   5.519 -0.0311  0.2693 -0.4609
  175SLPC  H13X19885   2.525   1.750   5.491  1.7879 -1.5777  0.0132
  175SLPC  H13Y19886   2.677   1.778   5.572 -1.0557 -0.4384  0.4464
  175SLPC  C31419887   2.638   1.889   5.389  0.0076 -0.0576 -0.0629
  175SLPC  H14X19888   2.555   1.949   5.346  0.6719  3.7164  3.3211
  175SLPC  H14Y19889   2.665   1.804   5.323 -3.7286 -0.7178 -0.9977
  175SLPC  C31519890   2.760   1.979   5.403  0.7584  0.7359 -0.1306
  175SLPC  H15X19891   2.834   1.920   5.461 -0.7933 -0.7421  0.4181
  175SLPC  H15Y19892   2.749   2.079   5.450  0.9159  1.6655 -1.9684
  175SLPC  C31619893   2.815   2.020   5.268  0.8391  0.1978  0.1770
  175SLPC  H16X19894   2.744   2.095   5.226 -0.4988 -0.7002  0.7892
  175SLPC  H16Y19895   2.821   1.935   5.196  0.8233 -1.3452  1.9397
  175SLPC  C31719896   2.965   2.069   5.262 -0.1742  0.5716  0.3211
  175SLPC  H17X19897   2.968   2.176   5.291  0.7861  0.8414 -0.7204
  175SLPC  H17Y19898   2.998   2.062   5.156  0.1648  0.6009  0.4255
  175SLPC  C31819899   3.056   1.983   5.346  0.0323 -0.1358 -0.1586
  175SLPC  H18X19900   3.157   1.981   5.299  1.4423 -2.8836  2.6178
  175SLPC  H18Y19901   3.018   1.879   5.344  3.2867 -1.4515  0.2061
  175SLPC  H18Z19902   3.070   2.025   5.448 -0.1757  0.7718 -0.4914
  176SLPC     N19903   4.311   1.575   7.887 -0.3911  0.7076 -0.0157
  176SLPC   C1319904   4.362   1.429   7.875  0.1915 -0.2638 -0.2072
  176SLPC  H13A19905   4.436   1.409   7.951  0.6904  1.8085 -0.0678
  176SLPC  H13B19906   4.274   1.366   7.875 -0.7100  0.9460  0.0713
  176SLPC  H13C19907   4.414   1.416   7.782  0.6476 -2.2662  0.2797
  176SLPC   C1419908   4.420   1.666   7.851  0.1380 -0.3035 -1.0188
  176SLPC  H14A19909   4.458   1.646   7.751  0.7695  1.9257 -1.3035
  176SLPC  H14B19910   4.391   1.767   7.876  1.5322 -0.5790  2.2130
  176SLPC  H14C19911   4.505   1.654   7.916 -0.9792  0.5379  0.6517
  176SLPC   C1519912   4.265   1.602   8.022 -0.1404 -0.1964  0.1374
  176SLPC  H15A19913   4.187   1.529   8.044  0.1124 -0.0997  1.4581
  176SLPC  H15B19914   4.341   1.596   8.099 -0.9913  0.3153  1.0485
  176SLPC  H15C19915   4.210   1.695   8.027 -2.0742 -1.0399 -2.7361
  176SLPC   C1219916   4.202   1.607   7.778 -0.0603  0.1863  0.0489
  176SLPC  H12A19917   4.241   1.574   7.683 -0.3856  1.2113 -0.4625
  176SLPC  H12B19918   4.190   1.714   7.775 -0.3356  0.1992  1.1541
  176SLPC   C1119919   4.066   1.541   7.799 -0.5643 -0.8566  0.6192
  176SLPC  H11A19920   3.979   1.580   7.742  1.3964  2.4361 -0.3704
  176SLPC  H11B19921   4.034   1.551   7.905  0.5948  1.1592  0.8264
  176SLPC     P19922   4.090   1.335   7.644 -0.2137 -0.1962 -0.0725
  176SLPC   O1319923   4.161   1.206   7.648 -0.0435 -0.2050 -0.1353
  176SLPC   O1419924   3.953   1.322   7.597  0.5772  0.0763 -0.6227
  176SLPC   O1219925   4.074   1.403   7.781  0.2219 -0.7773 -0.0991
  176SLPC   O1119926   4.164   1.436   7.545 -0.4695  0.3002 -0.6202
  176SLPC    C119927   4.108   1.522   7.451  0.0728  0.1574 -0.2782
  176SLPC    HA19928   4.008   1.557   7.483  0.2689 -1.3131  2.2342
  176SLPC    HB19929   4.178   1.608   7.440  0.7767 -0.6674 -2.6896
  176SLPC    C219930   4.095   1.454   7.310 -0.6623 -0.2262  0.0107
  176SLPC    HS19931   4.001   1.394   7.313 -1.3300  0.8360  1.5625
  176SLPC   O2119932   4.223   1.382   7.283  0.5896  0.2037 -0.0377
  176SLPC   C2119933   4.220   1.250   7.268  0.4856 -0.6304 -0.4843
  176SLPC   O2219934   4.123   1.180   7.296  0.2281 -0.6263  0.0462
  176SLPC   C2219935   4.347   1.204   7.201 -0.3499  0.1271  0.1003
  176SLPC   H2R19936   4.369   1.274   7.118 -0.0605 -0.7302 -0.5670
  176SLPC   H2S19937   4.428   1.226   7.274 -0.1760  0.1173 -0.0900
  176SLPC    C319938   4.064   1.558   7.197 -0.1072 -0.0763  0.1771
  176SLPC    HX19939   4.149   1.629   7.189  1.3540 -1.5707  1.7020
  176SLPC    HY19940   3.992   1.636   7.229 -0.2503  0.7944 -2.0942
  176SLPC   O3119941   4.019   1.507   7.072 -0.3012  0.1769 -0.4280
  176SLPC   C3119942   3.890   1.473   7.064  0.8462 -0.8327  0.5610
  176SLPC   O3219943   3.800   1.498   7.146 -0.1700 -0.3842  0.5844
  176SLPC   C3219944   3.864   1.400   6.928 -0.0549  0.0764  0.0351
  176SLPC   H2X19945   3.947   1.420   6.855  0.6161 -1.0073  0.4799
  176SLPC   H2Y19946   3.772   1.440   6.881  0.5795  2.7817  0.8896
  176SLPC   C2319947   4.341   1.055   7.162  0.3346 -0.3997  0.3053
  176SLPC   H3R19948   4.328   0.997   7.256 -0.4550 -0.7806 -0.0338
  176SLPC   H3S19949   4.443   1.038   7.121  0.1826 -0.0177 -0.2372
  176SLPC   C2419950   4.228   1.008   7.072 -0.0038 -0.2799 -0.8898
  176SLPC   H4R19951   4.225   1.056   6.972 -0.0853  1.2148 -0.1825
  176SLPC   H4S19952   4.133   1.009   7.128 -0.4111  0.2049 -1.5773
  176SLPC   C2519953   4.249   0.852   7.057  0.2915  0.3222  0.8929
  176SLPC   H5R19954   4.266   0.807   7.157 -0.8421  0.1055  0.9994
  176SLPC   H5S19955   4.339   0.830   6.996  0.1267 -0.0216  0.7698
  176SLPC   C2619956   4.126   0.788   6.994 -0.1340 -0.1955  0.0228
  176SLPC   H6R19957   4.049   0.811   7.070 -0.1369 -0.8407  0.2238
  176SLPC   H6S19958   4.149   0.680   6.990  0.8861 -0.0269  0.9971
  176SLPC   C2719959   4.087   0.830   6.855 -0.0589 -0.0639  0.8743
  176SLPC   H7R19960   4.182   0.832   6.797 -0.0927  1.9437  0.8159
  176SLPC   H7S19961   4.053   0.935   6.867  1.9179  0.8665 -0.9752
  176SLPC   C2819962   3.971   0.745   6.795 -0.4389 -0.5112 -0.5017
  176SLPC   H8R19963   3.924   0.809   6.717 -2.4322 -2.6406 -1.1312
  176SLPC   H8S19964   3.894   0.738   6.874  0.9542 -0.6713  0.8854
  176SLPC   C2919965   4.028   0.614   6.736 -0.7688 -0.4942  0.0190
  176SLPC   H9R19966   4.070   0.548   6.813  2.3234  0.2367 -0.9027
  176SLPC  C21019967   4.058   0.593   6.609  0.1256  0.8692 -0.0461
  176SLPC  H10R19968   4.094   0.494   6.577 -1.3983  0.5394 -0.8431
  176SLPC  C21119969   4.021   0.689   6.496 -0.1937 -0.3681 -0.3047
  176SLPC  H11R19970   4.065   0.788   6.521  0.5102 -0.2963 -1.7452
  176SLPC  H11S19971   3.911   0.703   6.486  0.0832  1.4994 -1.0210
  176SLPC  C21219972   4.068   0.636   6.363 -0.5496  0.3912 -0.2900
  176SLPC  H12R19973   4.062   0.527   6.347 -0.0913  0.1337  1.1477
  176SLPC  C21319974   4.127   0.699   6.264 -0.7878 -0.1836  0.2128
  176SLPC  H13R19975   4.154   0.641   6.174 -1.2756 -0.2511  0.1087
  176SLPC  C21419976   4.158   0.848   6.262  0.1808  0.2881 -0.1325
  176SLPC  H14R19977   4.268   0.861   6.264  0.2859 -0.3842 -0.8768
  176SLPC  H14S19978   4.125   0.910   6.347  1.2143  1.2540 -0.4192
  176SLPC  C21519979   4.104   0.918   6.134 -0.7126 -0.3294  0.6336
  176SLPC  H15R19980   4.103   1.024   6.167  1.9416 -0.0760  0.0494
  176SLPC  H15S19981   4.000   0.898   6.100 -1.3773  1.3263  1.5431
  176SLPC  C21619982   4.187   0.927   6.006 -0.1487  0.5038  0.1569
  176SLPC  H16R19983   4.216   0.824   5.975 -2.6284 -0.0160 -0.7198
  176SLPC  H16S19984   4.269   1.000   6.016 -0.5767  0.9272  0.6375
  176SLPC  C21719985   4.104   0.986   5.884  0.1476 -0.8099 -0.6418
  176SLPC  H17R19986   4.054   1.071   5.935  0.0218 -0.8997 -0.6152
  176SLPC  H17S19987   4.027   0.910   5.858  1.8529 -2.3333 -1.4600
  176SLPC  C21819988   4.191   1.034   5.769 -0.7648  0.3704 -0.5230
  176SLPC  H18R19989   4.239   0.942   5.729  0.2217  0.9284 -0.6364
  176SLPC  H18S19990   4.267   1.102   5.811  0.1450 -0.6652 -0.4521
  176SLPC  H18T19991   4.135   1.086   5.688  1.6104 -0.4542 -2.8327
  176SLPC   C3319992   3.852   1.247   6.943 -0.0622  0.1259 -0.4949
  176SLPC   H3X19993   3.768   1.229   7.013 -0.1943  0.0837 -0.6631
  176SLPC   H3Y19994   3.941   1.218   7.003 -2.0583 -0.8660  2.2165
  176SLPC   C3419995   3.830   1.163   6.818 -0.1408 -0.1036  0.6888
  176SLPC   H4X19996   3.731   1.183   6.772  0.9632  0.9305 -1.3609
  176SLPC   H4Y19997   3.829   1.058   6.855 -1.4947 -0.1617  0.5642
  176SLPC   C3519998   3.935   1.179   6.711  0.4699  0.1893  0.6069
  176SLPC   H5X19999   4.031   1.148   6.757  1.5696  1.0052 -1.0476
  176SLPC   H5Y20000   3.953   1.286   6.689 -1.9477  0.2977 -1.2189
  176SLPC   C3620001   3.910   1.104   6.580 -0.4244  0.4394 -1.1198
  176SLPC   H6X20002   3.857   1.007   6.593 -0.6767  0.3604 -2.5142
  176SLPC   H6Y20003   4.008   1.074   6.537 -0.0716  2.0020 -1.4636
  176SLPC   C3720004   3.833   1.178   6.474  0.2589 -0.3915 -0.3729
  176SLPC   H7X20005   3.883   1.276   6.459  1.3318 -1.1960 -2.3936
  176SLPC   H7Y20006   3.732   1.191   6.518  1.4683  2.8182  1.8112
  176SLPC   C3820007   3.810   1.099   6.344 -0.8851 -0.0053 -0.9426
  176SLPC   H8X20008   3.735   1.020   6.367 -1.4835  0.8317  0.0689
  176SLPC   H8Y20009   3.910   1.059   6.317 -1.6002 -0.8168 -2.5385
  176SLPC   C3920010   3.752   1.192   6.230  0.0852 -0.1306 -0.0514
  176SLPC   H9X20011   3.810   1.286   6.237 -2.0776  1.3262 -0.5537
  176SLPC   H9Y20012   3.646   1.217   6.253  0.3962  0.7433  0.4891
  176SLPC  C31020013   3.760   1.134   6.085  1.1781  0.2010  0.3571
  176SLPC  H10X20014   3.854   1.077   6.070  1.6969  0.6896  1.6635
  176SLPC  H10Y20015   3.760   1.225   6.021 -2.3443  0.0572 -0.0493
  176SLPC  C31120016   3.640   1.046   6.035  0.7893 -0.6076 -0.6484
  176SLPC  H11X20017   3.545   1.104   6.026  1.4907  0.6009 -0.4206
  176SLPC  H11Y20018   3.633   0.965   6.111  1.8542  0.8815  1.1206
  176SLPC  C31220019   3.651   0.983   5.897 -0.1636 -0.1165  0.2259
  176SLPC  H12X20020   3.566   0.915   5.874 -1.2488  0.5456  1.9918
  176SLPC  H12Y20021   3.736   0.912   5.888 -1.2180 -1.6685  1.8160
  176SLPC  C31320022   3.643   1.081   5.784 -0.2657 -0.4509  0.7631
  176SLPC  H13X20023   3.736   1.140   5.801  0.2257 -1.1153  0.4381
  176SLPC  H13Y20024   3.557   1.151   5.795 -0.3782 -0.9499  3.5570
  176SLPC  C31420025   3.651   1.020   5.642  0.1272 -0.3363 -0.1921
  176SLPC  H14X20026   3.560   0.963   5.615  0.0465  0.4956 -1.8444
  176SLPC  H14Y20027   3.742   0.957   5.649  0.0697 -0.7606 -2.3802
  176SLPC  C31520028   3.695   1.119   5.529 -0.1645  0.0337  0.4161
  176SLPC  H15X20029   3.802   1.148   5.527  0.4392 -2.0303 -0.1233
  176SLPC  H15Y20030   3.637   1.214   5.530  0.2961  0.3130  1.3465
  176SLPC  C31620031   3.685   1.037   5.398  0.0986 -1.1941 -0.2037
  176SLPC  H16X20032   3.576   1.015   5.386 -0.3421  1.1704 -1.0219
  176SLPC  H16Y20033   3.751   0.950   5.416  0.7889 -0.1935  2.7134
  176SLPC  C31720034   3.734   1.104   5.273 -0.3134  0.1949  0.5018
  176SLPC  H17X20035   3.830   1.157   5.287  0.6727 -1.4278  0.1722
  176SLPC  H17Y20036   3.655   1.176   5.243 -0.5592 -0.0435  0.5667
  176SLPC  C31820037   3.758   1.003   5.155 -0.1342 -0.2035  0.4248
  176SLPC  H18X20038   3.837   0.926   5.173 -1.5148 -1.6712  0.4377
  176SLPC  H18Y20039   3.801   1.051   5.065 -0.2364 -1.4913 -0.3412
  176SLPC  H18Z20040   3.672   0.940   5.122 -0.7063 -0.2526  1.9285
  177SLPC     N20041   3.550   2.153   7.990 -0.8748  0.2172  0.4164
  177SLPC   C1320042   3.465   2.235   8.093 -0.2445  0.7697  0.0341
  177SLPC  H13A20043   3.528   2.256   8.178 -1.2182 -1.3332  1.3655
  177SLPC  H13B20044   3.421   2.324   8.050 -3.2347 -1.7400 -2.6213
  177SLPC  H13C20045   3.388   2.174   8.139  0.1421  0.3704  0.1599
  177SLPC   C1420046   3.674   2.235   7.960  0.1284  0.6636  0.7280
  177SLPC  H14A20047   3.741   2.247   8.044  0.5606 -1.0476  0.6700
  177SLPC  H14B20048   3.735   2.179   7.890  1.4508  0.9857  1.5825
  177SLPC  H14C20049   3.648   2.334   7.926 -1.7786 -0.2210 -0.5322
  177SLPC   C1520050   3.472   2.136   7.867  0.3052  0.2282  0.0382
  177SLPC  H15A20051   3.521   2.062   7.805  2.4945  0.7896  0.9872
  177SLPC  H15B20052   3.369   2.107   7.884  0.0965 -0.0118 -1.4732
  177SLPC  H15C20053   3.477   2.235   7.824 -3.0565  0.1523 -0.7920
  177SLPC   C1220054   3.595   2.020   8.048 -0.2969 -0.5014 -0.0962
  177SLPC  H12A20055   3.509   1.957   8.067 -0.2751 -0.9088 -1.2756
  177SLPC  H12B20056   3.636   2.046   8.144 -3.5169  2.9817  0.5999
  177SLPC   C1120057   3.679   1.926   7.962  0.4916  0.2749  0.7785
  177SLPC  H11A20058   3.702   1.845   8.034  1.8909 -1.2501 -1.2804
  177SLPC  H11B20059   3.772   1.979   7.934 -0.5575 -0.0598 -4.3959
  177SLPC     P20060   3.703   1.844   7.713 -0.4992  0.1348 -0.0704
  177SLPC   O1320061   3.834   1.911   7.728 -0.1234  0.0425  0.2512
  177SLPC   O1420062   3.707   1.698   7.705 -0.3262  0.0919 -0.5283
  177SLPC   O1220063   3.615   1.889   7.834 -0.1913 -0.2223 -0.1963
  177SLPC   O1120064   3.625   1.912   7.607 -0.7671  0.1615  0.3676
  177SLPC    C120065   3.503   1.878   7.548  0.2016  0.2029  0.5072
  177SLPC    HA20066   3.441   1.824   7.623  0.2478  0.0704  0.4512
  177SLPC    HB20067   3.454   1.976   7.532 -1.9881 -0.6061  1.6706
  177SLPC    C220068   3.501   1.817   7.405 -0.1147  0.5537 -0.1085
  177SLPC    HS20069   3.558   1.722   7.417 -0.5461  0.5352  2.1402
  177SLPC   O2120070   3.567   1.904   7.312  0.0690  0.2249 -0.2628
  177SLPC   C2120071   3.695   1.889   7.299  0.2407  0.0940 -0.2267
  177SLPC   O2220072   3.768   1.808   7.354 -0.2148 -0.8226  0.2172
  177SLPC   C2220073   3.744   1.980   7.182 -0.0528 -0.0965 -0.2636
  177SLPC   H2R20074   3.660   2.042   7.144 -0.2059  0.0124  0.2568
  177SLPC   H2S20075   3.819   2.050   7.224 -2.9315  3.7997 -1.0550
  177SLPC    C320076   3.357   1.790   7.359 -0.5146 -0.1027  0.1483
  177SLPC    HX20077   3.291   1.876   7.384 -0.6174  0.0063 -0.4670
  177SLPC    HY20078   3.315   1.700   7.408 -0.2846 -0.0831  0.3803
  177SLPC   O3120079   3.355   1.756   7.218  0.2771  0.8236  0.0897
  177SLPC   C3120080   3.317   1.854   7.132 -0.0443 -0.0096 -0.0685
  177SLPC   O3220081   3.275   1.964   7.171  0.4648 -0.1874  0.4522
  177SLPC   C3220082   3.330   1.806   6.990  0.0507  0.2608  0.4653
  177SLPC   H2X20083   3.234   1.758   6.962 -0.0585  1.5633 -1.6153
  177SLPC   H2Y20084   3.406   1.729   6.969  0.7355  0.8936  0.5939
  177SLPC   C2320085   3.807   1.905   7.063 -0.4177 -0.4934  0.5660
  177SLPC   H3R20086   3.898   1.849   7.094  1.1690  1.2421 -0.7783
  177SLPC   H3S20087   3.834   1.980   6.987 -1.7385 -0.5685 -0.0000
  177SLPC   C2420088   3.717   1.798   6.984 -0.1021 -0.3249 -0.3999
  177SLPC   H4R20089   3.625   1.853   6.954  1.2048  2.4219  0.2589
  177SLPC   H4S20090   3.683   1.711   7.044  0.3620  0.7263  1.5030
  177SLPC   C2520091   3.775   1.737   6.859 -0.1884  0.4263 -0.1201
  177SLPC   H5R20092   3.699   1.665   6.822 -1.8037  2.5400 -1.1244
  177SLPC   H5S20093   3.872   1.682   6.869 -0.6913 -0.8924 -1.9342
  177SLPC   C2620094   3.796   1.847   6.755 -0.1163  0.1038 -0.2197
  177SLPC   H6R20095   3.867   1.923   6.794 -0.8604 -0.0754  1.5812
  177SLPC   H6S20096   3.693   1.882   6.735 -0.4999 -0.8573  0.0196
  177SLPC   C2720097   3.865   1.795   6.625 -0.0191 -0.3140 -0.0914
  177SLPC   H7R20098   3.966   1.758   6.653  0.1441 -1.2345 -1.7404
  177SLPC   H7S20099   3.874   1.881   6.555  1.5138  2.2550  3.0149
  177SLPC   C2820100   3.798   1.665   6.574 -0.0920  0.0897 -0.7208
  177SLPC   H8R20101   3.690   1.691   6.567 -0.3479 -0.9294 -0.6997
  177SLPC   H8S20102   3.809   1.578   6.641 -1.6295 -1.0572 -1.8689
  177SLPC   C2920103   3.863   1.633   6.440  0.0587  0.0405 -0.0705
  177SLPC   H9R20104   3.972   1.617   6.444  0.3085  1.6515  0.0436
  177SLPC  C21020105   3.793   1.613   6.326  0.0216  0.0851  0.2030
  177SLPC  H10R20106   3.860   1.601   6.239 -0.8501 -1.6954 -0.2669
  177SLPC  C21120107   3.643   1.629   6.304  1.0325 -0.0931  0.0593
  177SLPC  H11R20108   3.635   1.697   6.217 -0.5171  0.4663  0.6024
  177SLPC  H11S20109   3.593   1.682   6.388  1.4065 -0.6466  0.6471
  177SLPC  C21220110   3.579   1.492   6.288 -0.1567  0.7150  0.0909
  177SLPC  H12R20111   3.564   1.439   6.384  1.5850  0.9463  0.5254
  177SLPC  C21320112   3.518   1.438   6.180  0.2470 -0.1464  0.7529
  177SLPC  H13R20113   3.474   1.338   6.195  0.7628 -0.5338 -0.2397
  177SLPC  C21420114   3.528   1.499   6.043 -0.2042 -0.5414 -0.0781
  177SLPC  H14R20115   3.583   1.436   5.971 -0.2823  1.7625 -2.3024
  177SLPC  H14S20116   3.575   1.600   6.039 -0.4688 -0.4551 -2.4951
  177SLPC  C21520117   3.385   1.515   6.003  0.2644  0.0789  0.4122
  177SLPC  H15R20118   3.329   1.574   6.080  0.3496 -0.8241  1.1889
  177SLPC  H15S20119   3.330   1.418   5.999  0.7970 -0.1808 -2.0014
  177SLPC  C21620120   3.358   1.582   5.867  0.3141 -0.0380  0.4775
  177SLPC  H16R20121   3.428   1.668   5.860 -0.9676  0.8810 -2.3072
  177SLPC  H16S20122   3.250   1.607   5.862 -0.4823 -2.8009  1.7660
  177SLPC  C21720123   3.374   1.490   5.746  0.1629  0.0929 -0.5515
  177SLPC  H17R20124   3.286   1.422   5.743 -0.0527  0.4033 -1.4496
  177SLPC  H17S20125   3.460   1.422   5.767 -1.7337 -1.7491  1.6912
  177SLPC  C21820126   3.390   1.579   5.614 -0.1345 -0.2111  0.6237
  177SLPC  H18R20127   3.312   1.659   5.611 -0.2815 -0.3328  1.0666
  177SLPC  H18S20128   3.373   1.519   5.522 -0.9232 -0.4878  0.9384
  177SLPC  H18T20129   3.496   1.613   5.612  0.1304 -1.0377 -1.5163
  177SLPC   C3320130   3.350   1.916   6.884  0.4216 -0.0043 -0.4694
  177SLPC   H3X20131   3.449   1.961   6.910  0.4721 -0.5275  0.2805
  177SLPC   H3Y20132   3.273   1.995   6.898  0.2985 -0.0383 -0.9513
  177SLPC   C3420133   3.341   1.864   6.745  0.2071 -0.0873  0.2991
  177SLPC   H4X20134   3.246   1.807   6.740  0.7129 -1.0465  1.1412
  177SLPC   H4Y20135   3.425   1.792   6.728  0.2303 -0.1028  0.4748
  177SLPC   C3520136   3.345   1.987   6.648 -0.2480  0.7321  0.2395
  177SLPC   H5X20137   3.410   2.067   6.690  0.8039 -0.4333  0.8776
  177SLPC   H5Y20138   3.246   2.033   6.624  0.1040  1.9050  0.9326
  177SLPC   C3620139   3.398   1.951   6.506  0.5707  0.2534 -0.0062
  177SLPC   H6X20140   3.333   1.874   6.459  0.0233  1.6413 -1.5978
  177SLPC   H6Y20141   3.491   1.895   6.527  0.9291  0.0713 -1.8995
  177SLPC   C3720142   3.410   2.071   6.415  0.1866  0.4941 -0.6764
  177SLPC   H7X20143   3.477   2.153   6.449  1.1651 -0.2767 -0.7211
  177SLPC   H7Y20144   3.309   2.115   6.399  0.1878  0.8014  0.1139
  177SLPC   C3820145   3.487   2.035   6.284  0.2506  0.6307 -0.1082
  177SLPC   H8X20146   3.441   1.938   6.256 -0.2448  0.4783  1.1421
  177SLPC   H8Y20147   3.594   2.027   6.314 -0.1872 -1.4978  1.1397
  177SLPC   C3920148   3.467   2.143   6.171 -0.1957 -0.4185 -0.4329
  177SLPC   H9X20149   3.515   2.237   6.207 -1.2978  0.5135 -1.3088
  177SLPC   H9Y20150   3.358   2.163   6.164 -0.3248 -1.4779 -1.9371
  177SLPC  C31020151   3.519   2.110   6.038 -0.3119  0.0265  0.5693
  177SLPC  H10X20152   3.630   2.124   6.040 -0.1522 -1.0564  0.0826
  177SLPC  H10Y20153   3.489   2.190   5.967  1.3583  0.6388  0.4873
  177SLPC  C31120154   3.485   1.967   5.990  0.6429 -0.0511 -0.0988
  177SLPC  H11X20155   3.378   1.945   6.011  0.3184 -1.1820 -2.6303
  177SLPC  H11Y20156   3.546   1.899   6.054  0.1973 -1.0908 -0.7513
  177SLPC  C31220157   3.493   1.948   5.840  0.1028 -1.2094 -0.3499
  177SLPC  H12X20158   3.447   2.036   5.789 -0.5984 -1.5733 -0.3542
  177SLPC  H12Y20159   3.430   1.864   5.804 -1.2734  0.5507 -2.3060
  177SLPC  C31320160   3.639   1.946   5.800 -0.4056 -0.4057 -0.7322
  177SLPC  H13X20161   3.691   1.848   5.800  0.1156 -0.1365  0.2551
  177SLPC  H13Y20162   3.698   2.010   5.868 -2.6350  0.3962  0.5671
  177SLPC  C31420163   3.654   1.997   5.656  0.1590  0.2543 -0.1877
  177SLPC  H14X20164   3.598   2.093   5.646  0.5030  0.2540 -2.6792
  177SLPC  H14Y20165   3.613   1.920   5.588  1.5599 -1.6286  1.0232
  177SLPC  C31520166   3.800   2.039   5.619  0.4262 -0.6243 -0.1194
  177SLPC  H15X20167   3.844   2.106   5.695 -0.3205 -0.7260  0.4102
  177SLPC  H15Y20168   3.804   2.096   5.524 -0.0584 -0.9369 -0.3333
  177SLPC  C31620169   3.891   1.915   5.602  0.1727 -0.3770 -0.0061
  177SLPC  H16X20170   3.838   1.847   5.532 -2.3457  0.1047  1.3425
  177SLPC  H16Y20171   3.902   1.868   5.702 -3.3971 -0.4064  0.4781
  177SLPC  C31720172   4.023   1.951   5.541 -0.8580 -0.2667  0.7795
  177SLPC  H17X20173   4.067   2.014   5.621 -0.8572 -0.4834  0.9508
  177SLPC  H17Y20174   4.008   2.006   5.446 -0.3124 -0.1399  0.7661
  177SLPC  C31820175   4.117   1.832   5.520 -0.2679  0.8015 -0.1386
  177SLPC  H18X20176   4.214   1.872   5.484 -0.4524  0.1877 -1.3909
  177SLPC  H18Y20177   4.074   1.759   5.448  0.0329 -1.3013  1.6966
  177SLPC  H18Z20178   4.136   1.773   5.612 -2.3751 -1.4971 -1.0451
  178SLPC     N20179   2.222   5.791   8.102  0.1886  0.1585 -0.4692
  178SLPC   C1320180   2.112   5.753   8.009  1.0572  0.0487 -0.3128
  178SLPC  H13A20181   2.148   5.674   7.945  1.5535 -0.1296  0.1786
  178SLPC  H13B20182   2.034   5.716   8.074  0.0759  0.1595 -1.4097
  178SLPC  H13C20183   2.073   5.831   7.945 -1.4321 -1.1457 -0.3841
  178SLPC   C1420184   2.252   5.666   8.189 -0.1147  0.1329 -0.0336
  178SLPC  H14A20185   2.280   5.589   8.118  1.6791  1.0965 -0.4278
  178SLPC  H14B20186   2.327   5.677   8.266  1.3140 -0.1821 -1.3316
  178SLPC  H14C20187   2.165   5.620   8.235 -1.5855  1.3206 -1.5013
  178SLPC   C1520188   2.174   5.904   8.187 -0.2548  0.8697  0.3901
  178SLPC  H15A20189   2.258   5.943   8.242  0.1535 -0.3594  0.6722
  178SLPC  H15B20190   2.121   5.981   8.132  0.9998  2.2824  1.0777
  178SLPC  H15C20191   2.101   5.863   8.256 -0.5117 -1.0526 -0.9530
  178SLPC   C1220192   2.338   5.830   8.026  0.1932 -0.3550 -0.6854
  178SLPC  H12A20193   2.316   5.918   7.967  1.0829  0.5865  0.3101
  178SLPC  H12B20194   2.369   5.752   7.958  0.3820 -0.3220 -0.6393
  178SLPC   C1120195   2.461   5.878   8.107 -0.1556 -0.2178 -0.1669
  178SLPC  H11A20196   2.504   5.785   8.149  1.7839  0.6348 -0.1425
  178SLPC  H11B20197   2.440   5.950   8.189  1.6519  2.7015 -2.0744
  178SLPC     P20198   2.558   6.071   7.957 -0.1126 -0.7171 -0.2983
  178SLPC   O1320199   2.418   6.117   7.933  0.2406  0.4267  0.5689
  178SLPC   O1420200   2.653   6.158   8.034  0.2817  0.4292 -0.0564
  178SLPC   O1220201   2.554   5.929   8.014  0.1780 -0.1956  0.5957
  178SLPC   O1120202   2.628   6.038   7.818 -0.6699  0.0107  0.6182
  178SLPC    C120203   2.542   6.001   7.709  1.1051 -0.6372  0.1092
  178SLPC    HA20204   2.616   5.956   7.640  2.1237  1.6340 -0.3779
  178SLPC    HB20205   2.466   5.923   7.732  0.1398  0.8134  2.1202
  178SLPC    C220206   2.485   6.124   7.629  0.5304  0.2911  0.1165
  178SLPC    HS20207   2.397   6.168   7.682 -0.6456 -1.9081  0.0903
  178SLPC   O2120208   2.434   6.076   7.508  0.5218  0.0554 -0.3542
  178SLPC   C2120209   2.346   6.142   7.443  0.2928 -0.5875  0.3136
  178SLPC   O2220210   2.280   6.240   7.476  0.5417  0.2316 -0.1411
  178SLPC   C2220211   2.318   6.061   7.317  0.0619 -0.4756  0.4070
  178SLPC   H2R20212   2.410   6.015   7.273  0.8759  0.8440  0.6829
  178SLPC   H2S20213   2.257   5.972   7.345  0.1926 -1.4537 -2.1102
  178SLPC    C320214   2.601   6.222   7.613 -0.3089 -0.0125 -0.7043
  178SLPC    HX20215   2.700   6.173   7.616 -0.1024  0.4449  1.6862
  178SLPC    HY20216   2.593   6.279   7.708 -1.4794  0.3178 -0.9818
  178SLPC   O3120217   2.585   6.327   7.514  0.5029  0.2101  0.3180
  178SLPC   C3120218   2.647   6.297   7.403  0.3875  0.0072  0.1656
  178SLPC   O3220219   2.699   6.190   7.374 -0.6019 -0.2144 -0.3126
  178SLPC   C3220220   2.628   6.408   7.301  0.0185 -0.8292 -0.6626
  178SLPC   H2X20221   2.648   6.501   7.358 -1.6493 -1.7708  1.6237
  178SLPC   H2Y20222   2.522   6.408   7.267 -1.4428  1.3465  3.2471
  178SLPC   C2320223   2.234   6.136   7.211  0.0005  0.2008 -0.3250
  178SLPC   H3R20224   2.307   6.189   7.146  0.4184 -0.1439 -0.1473
  178SLPC   H3S20225   2.157   6.212   7.238  0.0140  0.5428 -1.2099
  178SLPC   C2420226   2.162   6.030   7.123  0.5661 -0.2757  0.0807
  178SLPC   H4R20227   2.111   6.078   7.038 -1.4819 -0.9243  0.8956
  178SLPC   H4S20228   2.079   5.986   7.182 -0.0715 -0.7361 -1.1250
  178SLPC   C2520229   2.263   5.920   7.071 -1.2442  0.0402  0.0725
  178SLPC   H5R20230   2.296   5.856   7.156  0.3473 -1.4684 -1.5898
  178SLPC   H5S20231   2.363   5.965   7.053 -0.9646 -1.0076 -1.1113
  178SLPC   C2620232   2.217   5.833   6.958  0.5910  0.8771 -0.0869
  178SLPC   H6R20233   2.112   5.799   6.970  0.7374  0.4319 -0.0543
  178SLPC   H6S20234   2.276   5.739   6.952  2.1614  1.8818 -1.4407
  178SLPC   C2720235   2.232   5.900   6.824  0.0202  0.0599  0.6524
  178SLPC   H7R20236   2.326   5.958   6.811 -2.1895  4.0861  0.9427
  178SLPC   H7S20237   2.158   5.981   6.806  1.3741  1.2712  0.3039
  178SLPC   C2820238   2.213   5.790   6.716 -0.3259 -0.1546 -0.1036
  178SLPC   H8R20239   2.118   5.732   6.719 -0.6915  0.2957 -1.8290
  178SLPC   H8S20240   2.300   5.721   6.719  1.0341  1.3426 -2.4730
  178SLPC   C2920241   2.217   5.856   6.583  0.7293 -0.6306  0.4678
  178SLPC   H9R20242   2.142   5.936   6.578 -1.1370 -2.3824 -1.0089
  178SLPC  C21020243   2.301   5.828   6.479  0.1688 -0.2290 -0.4463
  178SLPC  H10R20244   2.297   5.888   6.386  1.7060 -0.5614 -0.7661
  178SLPC  C21120245   2.386   5.712   6.459 -0.0113  0.9682  0.0524
  178SLPC  H11R20246   2.336   5.651   6.382  2.0395 -1.8101  0.7627
  178SLPC  H11S20247   2.406   5.656   6.553  0.7136 -0.3090 -0.8470
  178SLPC  C21220248   2.530   5.746   6.414 -0.1483 -0.2353  0.3188
  178SLPC  H12R20249   2.601   5.754   6.498  0.9236 -1.9637 -0.3626
  178SLPC  C21320250   2.580   5.758   6.286  0.6259 -0.7799 -0.0636
  178SLPC  H13R20251   2.689   5.766   6.274  0.8448 -2.9838  0.0944
  178SLPC  C21420252   2.497   5.756   6.168  0.3089  0.0830 -0.1471
  178SLPC  H14R20253   2.399   5.703   6.170  0.7670 -0.8310 -0.9923
  178SLPC  H14S20254   2.557   5.708   6.087  1.2913 -0.8554  1.1009
  178SLPC  C21520255   2.457   5.897   6.106  0.0013 -1.1660  0.5870
  178SLPC  H15R20256   2.428   5.955   6.196 -1.3043 -0.9477  0.0349
  178SLPC  H15S20257   2.372   5.890   6.035 -1.1318  0.2362  1.7284
  178SLPC  C21620258   2.558   5.980   6.028  0.2915 -0.2311 -0.2611
  178SLPC  H16R20259   2.658   5.962   6.073 -0.7658 -5.8960  0.5273
  178SLPC  H16S20260   2.543   6.090   6.035 -1.4099  0.0297 -4.6771
  178SLPC  C21720261   2.576   5.930   5.883  0.0280  0.0408  0.1652
  178SLPC  H17R20262   2.479   5.947   5.832 -0.0896 -0.3670  0.2552
  178SLPC  H17S20263   2.609   5.824   5.873  2.5093  0.9185 -2.6033
  178SLPC  C21820264   2.687   6.004   5.793 -0.2309  0.0798 -0.0526
  178SLPC  H18R20265   2.785   5.968   5.831 -1.6347 -2.3593  1.4954
  178SLPC  H18S20266   2.680   6.114   5.809  0.9703  0.0485  0.8660
  178SLPC  H18T20267   2.665   5.981   5.687 -0.3108  0.6785 -0.1686
  178SLPC   C3320268   2.727   6.381   7.178 -0.4400 -0.3066 -0.0707
  178SLPC   H3X20269   2.706   6.283   7.132  0.2877 -0.3309 -0.3749
  178SLPC   H3Y20270   2.832   6.373   7.215 -0.3182  0.4270 -0.2281
  178SLPC   C3420271   2.726   6.489   7.078 -0.3762  0.0156  0.3892
  178SLPC   H4X20272   2.777   6.577   7.122  1.4806 -2.2074  2.9926
  178SLPC   H4Y20273   2.622   6.517   7.050 -1.6990 -2.2394  2.6344
  178SLPC   C3520274   2.803   6.444   6.944  0.1728 -0.9506  0.0877
  178SLPC   H5X20275   2.741   6.368   6.891 -0.2976  0.0148 -0.7763
  178SLPC   H5Y20276   2.892   6.383   6.970  0.7438 -1.4613 -2.7051
  178SLPC   C3620277   2.864   6.543   6.844 -0.2917 -0.3331 -0.2353
  178SLPC   H6X20278   2.942   6.611   6.886 -1.4632  0.7919  0.2131
  178SLPC   H6Y20279   2.793   6.621   6.808  0.0562  0.9225  1.6163
  178SLPC   C3720280   2.906   6.464   6.716  0.0502 -0.0486 -0.0013
  178SLPC   H7X20281   2.820   6.441   6.650 -0.2827  1.5036 -0.1401
  178SLPC   H7Y20282   2.956   6.374   6.758  1.6131 -0.2556 -2.1263
  178SLPC   C3820283   3.012   6.540   6.637  0.5199  0.4884  0.1661
  178SLPC   H8X20284   3.102   6.567   6.696  2.3519  2.9214 -3.4271
  178SLPC   H8Y20285   2.962   6.636   6.615 -0.1033  0.7677  2.4902
  178SLPC   C3920286   3.070   6.467   6.515 -0.2265 -0.2513  0.3998
  178SLPC   H9X20287   2.988   6.454   6.441 -0.9213  1.9753  0.7192
  178SLPC   H9Y20288   3.109   6.368   6.548  1.4615  0.8046  1.7754
  178SLPC  C31020289   3.195   6.527   6.450 -0.2963  0.5223 -0.4604
  178SLPC  H10X20290   3.257   6.438   6.422 -0.1314 -0.4504  2.6729
  178SLPC  H10Y20291   3.261   6.586   6.517 -0.2335  0.3561 -0.3753
  178SLPC  C31120292   3.183   6.608   6.319 -0.8392  0.7415  0.4104
  178SLPC  H11X20293   3.141   6.711   6.330 -0.7984  1.4558 -4.3675
  178SLPC  H11Y20294   3.111   6.559   6.252 -0.7349 -1.1722  1.6195
  178SLPC  C31220295   3.325   6.618   6.260 -0.1361  0.3065  0.1545
  178SLPC  H12X20296   3.381   6.523   6.248  1.1811  1.2117 -1.1559
  178SLPC  H12Y20297   3.386   6.677   6.330  4.5234 -2.6025 -0.9972
  178SLPC  C31320298   3.317   6.701   6.133  0.5411  0.4518  0.0647
  178SLPC  H13X20299   3.246   6.787   6.139  0.2624  0.2242  0.0232
  178SLPC  H13Y20300   3.293   6.638   6.045  1.0482 -1.2463  1.1058
  178SLPC  C31420301   3.458   6.759   6.094 -0.5145  0.2294 -0.0412
  178SLPC  H14X20302   3.527   6.673   6.082 -0.5192  0.2867 -0.5116
  178SLPC  H14Y20303   3.485   6.826   6.179 -1.6949  1.1772 -0.3798
  178SLPC  C31520304   3.457   6.844   5.962  0.2646 -0.4124  0.1997
  178SLPC  H15X20305   3.368   6.910   5.959  0.4359 -0.1948 -0.1775
  178SLPC  H15Y20306   3.445   6.768   5.882  1.1306 -0.3631  0.0128
  178SLPC  C31620307   3.582   6.932   5.933 -0.3716  0.4912  0.3116
  178SLPC  H16X20308   3.674   6.876   5.961 -0.1831  0.5618 -0.1567
  178SLPC  H16Y20309   3.571   7.022   5.997  0.7053  0.7581  0.1462
  178SLPC  C31720310   3.602   6.978   5.791 -0.3735 -0.2775  0.5942
  178SLPC  H17X20311   3.534   7.062   5.765 -2.0151 -1.8741 -0.4755
  178SLPC  H17Y20312   3.596   6.894   5.719  1.9726  2.5321 -3.3059
  178SLPC  C31820313   3.752   7.027   5.765  0.7779 -0.5633 -0.3764
  178SLPC  H18X20314   3.821   6.941   5.775  0.8950 -0.8875 -3.2045
  178SLPC  H18Y20315   3.778   7.103   5.842 -0.8575 -0.1377 -0.1927
  178SLPC  H18Z20316   3.760   7.071   5.664 -0.2737 -1.8105 -1.0331
  179SLPC     N20317   1.737   3.928   2.839  0.3948 -0.2083 -0.5670
  179SLPC   C1320318   1.747   4.007   2.712 -0.3659 -1.4407  0.4563
  179SLPC  H13A20319   1.730   4.112   2.734 -0.1780 -0.3116 -3.8905
  179SLPC  H13B20320   1.846   3.999   2.672  0.2679  1.0302  1.3185
  179SLPC  H13C20321   1.677   3.974   2.636 -1.0861 -3.0316  1.7707
  179SLPC   C1420322   1.801   3.794   2.816  0.3004  0.5474  0.5477
  179SLPC  H14A20323   1.812   3.744   2.911 -1.1063 -2.6303 -0.8203
  179SLPC  H14B20324   1.734   3.737   2.753  1.2394  0.8374 -0.7446
  179SLPC  H14C20325   1.899   3.811   2.774  0.0393 -0.9984 -0.8128
  179SLPC   C1520326   1.590   3.904   2.865  0.4429 -0.1402  0.3742
  179SLPC  H15A20327   1.564   3.861   2.960 -0.6020  2.3623  1.3027
  179SLPC  H15B20328   1.537   3.995   2.839  1.2375  0.5018  0.9638
  179SLPC  H15C20329   1.555   3.832   2.792  3.0266  0.5950 -1.7462
  179SLPC   C1220330   1.800   3.986   2.963  0.9935  0.3207  0.5878
  179SLPC  H12A20331   1.905   3.961   2.955  0.7677 -0.3173 -0.6677
  179SLPC  H12B20332   1.761   3.934   3.049 -0.9594  1.1360  0.2547
  179SLPC   C1120333   1.777   4.136   2.987 -0.4280  0.6500 -1.0093
  179SLPC  H11A20334   1.814   4.193   2.899  1.4878 -0.1428 -0.7700
  179SLPC  H11B20335   1.834   4.169   3.077  0.8827  0.4130 -1.7345
  179SLPC     P20336   1.556   4.141   3.135 -0.1488  0.0610  0.4985
  179SLPC   O1320337   1.426   4.199   3.118 -0.2485 -0.2796  0.0018
  179SLPC   O1420338   1.554   3.997   3.169 -0.3267 -0.1672 -0.5491
  179SLPC   O1220339   1.635   4.165   2.993 -0.0272 -0.4614  0.3531
  179SLPC   O1120340   1.646   4.223   3.233  0.2701  0.3580 -0.2071
  179SLPC    C120341   1.636   4.367   3.224 -0.0936 -0.0299 -0.7378
  179SLPC    HA20342   1.651   4.408   3.122 -1.1367 -0.2956 -1.0140
  179SLPC    HB20343   1.538   4.401   3.265  1.0398  1.3156  1.0022
  179SLPC    C220344   1.745   4.436   3.318  0.6062 -0.0850  0.8435
  179SLPC    HS20345   1.732   4.545   3.298  0.3410 -0.4359 -1.1997
  179SLPC   O2120346   1.877   4.391   3.284 -0.4015 -0.2021  0.1826
  179SLPC   C2120347   1.951   4.487   3.218 -0.4217  1.0399  0.1588
  179SLPC   O2220348   1.910   4.593   3.178  0.2775  0.5790 -0.2093
  179SLPC   C2220349   2.088   4.430   3.203 -0.2098 -0.4856 -0.3088
  179SLPC   H2R20350   2.088   4.329   3.158  0.4573 -0.1956 -0.9815
  179SLPC   H2S20351   2.136   4.502   3.133 -3.8339 -0.0755 -2.6618
  179SLPC    C320352   1.709   4.422   3.462  0.0259 -0.1569  0.0980
  179SLPC    HX20353   1.687   4.317   3.489 -0.4554 -0.7192 -2.2607
  179SLPC    HY20354   1.613   4.477   3.475  0.2318 -0.1814  2.0489
  179SLPC   O3120355   1.812   4.484   3.549  0.2031  0.7558  0.3988
  179SLPC   C3120356   1.906   4.396   3.576 -0.5940 -0.1037 -0.7053
  179SLPC   O3220357   1.914   4.279   3.535 -0.0596 -0.1395  0.4274
  179SLPC   C3220358   2.010   4.457   3.671 -0.7010 -0.6234 -0.4113
  179SLPC   H2X20359   1.962   4.537   3.731  0.2027 -0.7606  0.5190
  179SLPC   H2Y20360   2.083   4.508   3.605 -1.2899 -1.4531 -1.7584
  179SLPC   C2320361   2.169   4.443   3.330 -0.2340  0.5902  0.2124
  179SLPC   H3R20362   2.120   4.376   3.404 -1.6224  0.8820 -0.4063
  179SLPC   H3S20363   2.147   4.537   3.385 -1.8373 -0.9389  2.3806
  179SLPC   C2420364   2.312   4.401   3.307  0.4619 -0.4869 -0.2731
  179SLPC   H4R20365   2.355   4.471   3.233  1.3188 -0.2182  0.4585
  179SLPC   H4S20366   2.316   4.299   3.262  1.4146 -0.1173 -1.0296
  179SLPC   C2520367   2.384   4.407   3.436  0.3263  0.2216  0.9401
  179SLPC   H5R20368   2.486   4.367   3.416  0.9162  2.1575 -0.1300
  179SLPC   H5S20369   2.338   4.339   3.511  1.9271 -2.8839 -0.6951
  179SLPC   C2620370   2.398   4.548   3.498 -0.8005 -0.3435  0.2099
  179SLPC   H6R20371   2.302   4.599   3.516 -1.1909 -1.1809  0.5737
  179SLPC   H6S20372   2.448   4.617   3.426 -0.5860 -1.3765 -0.6611
  179SLPC   C2720373   2.469   4.548   3.633 -0.4960  0.4534  0.3064
  179SLPC   H7R20374   2.414   4.469   3.688 -1.0127  0.2898 -0.4184
  179SLPC   H7S20375   2.456   4.648   3.680  0.1051  2.4374 -3.3441
  179SLPC   C2820376   2.616   4.507   3.625 -0.9080 -0.7024 -0.2245
  179SLPC   H8R20377   2.619   4.408   3.575 -2.0410 -0.0613 -1.6352
  179SLPC   H8S20378   2.661   4.493   3.725  3.2138 -0.1470 -1.8251
  179SLPC   C2920379   2.718   4.586   3.547  0.3625  1.0309 -0.4627
  179SLPC   H9R20380   2.729   4.570   3.439  1.8028 -0.0561 -0.1942
  179SLPC  C21020381   2.775   4.700   3.597 -0.2630 -0.0932 -0.6550
  179SLPC  H10R20382   2.853   4.753   3.541  0.3184 -0.1235  0.1071
  179SLPC  C21120383   2.758   4.737   3.740 -0.1520 -0.3741 -1.1180
  179SLPC  H11R20384   2.758   4.650   3.809  1.1403  0.7278  0.3081
  179SLPC  H11S20385   2.660   4.787   3.755  1.0134  1.5520  0.4962
  179SLPC  C21220386   2.873   4.820   3.784 -0.1856  1.0203  0.3069
  179SLPC  H12R20387   2.956   4.824   3.712  0.8445  0.3972  1.4415
  179SLPC  C21320388   2.874   4.909   3.881 -0.2967  0.1493  1.1427
  179SLPC  H13R20389   2.958   4.979   3.885  0.5332 -0.7792  0.5967
  179SLPC  C21420390   2.764   4.932   3.981  0.2589  0.3906 -0.5897
  179SLPC  H14R20391   2.812   4.912   4.079  0.4312  0.0618 -0.7365
  179SLPC  H14S20392   2.679   4.861   3.969  0.3731  0.4436 -1.8875
  179SLPC  C21520393   2.690   5.066   3.972  0.2323 -0.1151 -0.4942
  179SLPC  H15R20394   2.634   5.066   3.876 -1.0778 -0.5454  0.2403
  179SLPC  H15S20395   2.765   5.147   3.959  3.3265 -2.7085 -0.1398
  179SLPC  C21620396   2.609   5.106   4.100 -0.0724  0.4351  0.7516
  179SLPC  H16R20397   2.530   5.028   4.109  1.3136 -1.4992 -2.2875
  179SLPC  H16S20398   2.559   5.203   4.079  1.9582  1.2756 -0.4924
  179SLPC  C21720399   2.692   5.104   4.228  0.2516  0.8786 -0.5025
  179SLPC  H17R20400   2.774   5.177   4.214  1.3451 -0.6942 -2.9196
  179SLPC  H17S20401   2.737   5.004   4.238 -1.9367 -0.2424 -1.1504
  179SLPC  C21820402   2.619   5.135   4.362  0.1769 -0.4074  0.0794
  179SLPC  H18R20403   2.539   5.060   4.378  1.8311 -1.9860  1.3464
  179SLPC  H18S20404   2.574   5.237   4.366 -1.9791 -1.3471  2.3038
  179SLPC  H18T20405   2.691   5.121   4.446  0.5578  1.0831  0.0413
  179SLPC   C3320406   2.071   4.349   3.767  0.4215 -0.0682  0.2637
  179SLPC   H3X20407   2.182   4.357   3.773  0.4720  1.0224 -1.5554
  179SLPC   H3Y20408   2.060   4.248   3.722  0.1121  1.7120 -4.1387
  179SLPC   C3420409   2.016   4.356   3.911  0.1062  0.4898 -0.0642
  179SLPC   H4X20410   2.035   4.458   3.951  1.3062 -0.3277  1.6030
  179SLPC   H4Y20411   2.083   4.281   3.958 -1.2089 -1.9246 -1.7888
  179SLPC   C3520412   1.865   4.316   3.931 -0.6066  0.1169  0.2749
  179SLPC   H5X20413   1.799   4.376   3.866  0.5125  2.1433  0.9160
  179SLPC   H5Y20414   1.856   4.208   3.904 -1.1702 -0.0020  0.9074
  179SLPC   C3620415   1.816   4.327   4.073  0.2351 -0.8577 -0.2478
  179SLPC   H6X20416   1.718   4.276   4.081 -1.2618  1.9819  0.6857
  179SLPC   H6Y20417   1.790   4.432   4.099  0.0753 -0.7347 -0.8850
  179SLPC   C3720418   1.902   4.274   4.191  0.2589  0.3597  0.3424
  179SLPC   H7X20419   2.006   4.313   4.182  0.3663 -0.3073 -2.3879
  179SLPC   H7Y20420   1.907   4.163   4.179 -1.1597 -0.0351  2.8743
  179SLPC   C3820421   1.857   4.321   4.328  0.4479  0.0165  0.3238
  179SLPC   H8X20422   1.751   4.289   4.340  0.3573 -0.0531 -0.6125
  179SLPC   H8Y20423   1.857   4.432   4.337 -2.0090 -0.0868  3.5071
  179SLPC   C3920424   1.943   4.274   4.442 -0.8018 -1.0470  0.0528
  179SLPC   H9X20425   1.947   4.164   4.434 -0.6845 -0.9428 -1.6178
  179SLPC   H9Y20426   1.877   4.286   4.531 -0.2258  0.1489  0.3413
  179SLPC  C31020427   2.084   4.342   4.449 -0.1978 -0.1626  0.1710
  179SLPC  H10X20428   2.078   4.452   4.456 -1.4912  0.1756 -3.9170
  179SLPC  H10Y20429   2.139   4.321   4.355 -2.3374 -2.3512 -0.6795
  179SLPC  C31120430   2.175   4.278   4.554  0.2582  0.0363 -0.3269
  179SLPC  H11X20431   2.182   4.171   4.527 -1.8742 -0.3198  0.2926
  179SLPC  H11Y20432   2.110   4.277   4.645 -0.8649 -3.5461 -1.0161
  179SLPC  C31220433   2.307   4.345   4.557  0.6634  0.4460 -0.6010
  179SLPC  H12X20434   2.291   4.454   4.563  0.8839  0.4005  1.3717
  179SLPC  H12Y20435   2.349   4.332   4.455  0.1840  0.4241 -0.7992
  179SLPC  C31320436   2.401   4.299   4.671 -0.1866 -0.5955 -0.4915
  179SLPC  H13X20437   2.363   4.333   4.769  1.8734  0.5119 -0.0211
  179SLPC  H13Y20438   2.498   4.353   4.672 -0.5632  0.1123  1.3148
  179SLPC  C31420439   2.418   4.151   4.678  0.0260 -0.0367  0.3097
  179SLPC  H14X20440   2.446   4.115   4.577  1.0169  0.3954  0.4252
  179SLPC  H14Y20441   2.322   4.100   4.703  1.2505 -2.2627  0.6504
  179SLPC  C31520442   2.520   4.106   4.784 -0.3802  0.0475 -0.1405
  179SLPC  H15X20443   2.493   4.158   4.878 -0.1973  1.4897 -0.8655
  179SLPC  H15Y20444   2.615   4.139   4.739 -0.3783 -1.9071 -1.7018
  179SLPC  C31620445   2.522   3.958   4.810 -0.4461  0.4792 -0.1731
  179SLPC  H16X20446   2.550   3.918   4.710 -0.0493  0.5269 -0.0814
  179SLPC  H16Y20447   2.418   3.923   4.827 -0.9799  1.7320 -0.7625
  179SLPC  C31720448   2.635   3.904   4.907  0.3933 -0.8005 -0.0659
  179SLPC  H17X20449   2.730   3.953   4.875  0.4415 -0.2951  0.8245
  179SLPC  H17Y20450   2.632   3.796   4.882  2.4671 -1.1049  0.7965
  179SLPC  C31820451   2.585   3.911   5.055 -0.7243  0.0439  0.4670
  179SLPC  H18X20452   2.479   3.880   5.064 -0.8203  0.2193 -0.0027
  179SLPC  H18Y20453   2.593   4.020   5.078 -0.7695  0.5865 -1.8700
  179SLPC  H18Z20454   2.644   3.846   5.123 -0.8356  1.2738  1.7856
  180SLPC     N20455   2.821   6.258   3.190 -0.3520  0.2169  0.4039
  180SLPC   C1320456   2.772   6.390   3.236  0.3681 -0.1386  0.0149
  180SLPC  H13A20457   2.862   6.450   3.238  0.7588 -0.6336 -1.5057
  180SLPC  H13B20458   2.703   6.437   3.167  0.7184 -3.8723 -3.2761
  180SLPC  H13C20459   2.731   6.384   3.336  1.6115 -1.2177  0.4752
  180SLPC   C1420460   2.889   6.272   3.057  0.2606 -0.4305 -0.3030
  180SLPC  H14A20461   2.942   6.181   3.031  0.2965 -0.2259 -0.9808
  180SLPC  H14B20462   2.814   6.289   2.981 -2.7223 -0.2988  2.4392
  180SLPC  H14C20463   2.957   6.356   3.056  1.7370 -1.5717 -1.2582
  180SLPC   C1520464   2.704   6.157   3.192  0.5281 -0.0992  0.7857
  180SLPC  H15A20465   2.615   6.189   3.140  0.3465  2.0503  2.2967
  180SLPC  H15B20466   2.726   6.054   3.167 -2.2176 -0.7862  0.8713
  180SLPC  H15C20467   2.676   6.149   3.296 -1.9279  0.4077  0.2096
  180SLPC   C1220468   2.920   6.212   3.293  0.9998 -0.3883 -0.6867
  180SLPC  H12A20469   2.888   6.242   3.392  0.1339 -0.8911 -0.8115
  180SLPC  H12B20470   3.008   6.263   3.257 -0.2227  0.7037 -2.2659
  180SLPC   C1120471   2.957   6.064   3.295 -0.1636  0.2191 -0.6091
  180SLPC  H11A20472   2.869   5.999   3.316 -0.0088  0.8643  2.5855
  180SLPC  H11B20473   3.025   6.053   3.383 -0.5155 -1.0710 -0.4789
  180SLPC     P20474   3.158   5.971   3.144  0.6203 -0.5783  0.0411
  180SLPC   O1320475   3.168   5.835   3.190  0.2565  0.2977  0.1095
  180SLPC   O1420476   3.203   5.998   3.007 -0.0878 -0.2769  0.0539
  180SLPC   O1220477   3.010   6.023   3.169 -0.1590 -0.3034  0.0689
  180SLPC   O1120478   3.222   6.064   3.243 -0.5596  0.6132 -0.0923
  180SLPC    C120479   3.346   6.049   3.306 -0.1825 -0.6959 -0.2928
  180SLPC    HA20480   3.408   5.980   3.244 -0.5506 -1.9064  0.6354
  180SLPC    HB20481   3.394   6.149   3.315  1.4628 -1.6577  3.1477
  180SLPC    C220482   3.333   6.000   3.458  0.2171 -0.0248  0.0012
  180SLPC    HS20483   3.272   5.908   3.452  1.9786 -1.1671 -1.2923
  180SLPC   O2120484   3.281   6.115   3.539  0.9390 -0.4440 -0.0964
  180SLPC   C2120485   3.210   6.084   3.646 -0.1215 -0.6506  0.2625
  180SLPC   O2220486   3.158   5.977   3.665 -0.1983  0.1593  0.2752
  180SLPC   C2220487   3.206   6.208   3.743  0.3355  0.0996 -0.1836
  180SLPC   H2R20488   3.271   6.283   3.694  3.9041 -2.7195 -0.2507
  180SLPC   H2S20489   3.099   6.228   3.765  0.2407  0.5054 -0.9956
  180SLPC    C320490   3.469   5.967   3.514 -0.2971 -0.6735 -0.1531
  180SLPC    HX20491   3.524   6.063   3.519 -2.2639  0.6298 -1.7325
  180SLPC    HY20492   3.524   5.900   3.443 -0.1933 -1.1572  0.3750
  180SLPC   O3120493   3.460   5.900   3.636  0.1233 -0.5477 -0.3032
  180SLPC   C3120494   3.439   5.766   3.642  0.0250 -0.3840 -0.3844
  180SLPC   O3220495   3.439   5.694   3.544  0.3061  0.3229  0.0472
  180SLPC   C3220496   3.413   5.723   3.786  0.5266  0.0353  0.3275
  180SLPC   H2X20497   3.371   5.814   3.833  1.5922 -0.4388  2.2865
  180SLPC   H2Y20498   3.510   5.690   3.830  0.0529 -2.1790 -0.1474
  180SLPC   C2320499   3.255   6.180   3.886  0.2885  0.5424 -0.1999
  180SLPC   H3R20500   3.273   6.274   3.942  0.4110  1.6976 -2.1128
  180SLPC   H3S20501   3.351   6.127   3.869  0.1732  0.0770  0.5427
  180SLPC   C2420502   3.170   6.098   3.987  0.0824  0.1675  0.6554
  180SLPC   H4R20503   3.147   5.999   3.940  2.0595 -0.4988  0.9984
  180SLPC   H4S20504   3.070   6.142   4.007 -0.6730 -1.8086  1.4922
  180SLPC   C2520505   3.231   6.065   4.130  0.0649  0.6738  0.6558
  180SLPC   H5R20506   3.233   6.162   4.183  0.7567  1.0550 -0.0550
  180SLPC   H5S20507   3.332   6.023   4.113 -0.3136  0.1208 -0.3695
  180SLPC   C2620508   3.158   5.951   4.199  0.2059 -1.0428 -0.0453
  180SLPC   H6R20509   3.164   5.870   4.123  2.4729 -0.4145 -0.5936
  180SLPC   H6S20510   3.049   5.967   4.218  0.4216 -1.1584  1.4114
  180SLPC   C2720511   3.214   5.918   4.331 -0.0302 -0.2147  0.5333
  180SLPC   H7R20512   3.320   5.883   4.330 -0.1177 -0.4901  0.8054
  180SLPC   H7S20513   3.157   5.834   4.377 -0.4689 -0.1761  0.0673
  180SLPC   C2820514   3.208   6.035   4.436  0.1957  0.2689 -0.1808
  180SLPC   H8R20515   3.264   6.125   4.405  0.4454  0.8850  1.9067
  180SLPC   H8S20516   3.242   5.993   4.532 -2.2801 -0.1083  0.6188
  180SLPC   C2920517   3.071   6.084   4.475  0.0116 -0.0523 -0.0293
  180SLPC   H9R20518   3.007   6.107   4.388 -0.4205 -1.0275  0.0119
  180SLPC  C21020519   3.029   6.116   4.597 -0.2670 -1.1360 -0.6852
  180SLPC  H10R20520   2.923   6.144   4.611  0.4229  0.4640  2.2046
  180SLPC  C21120521   3.107   6.099   4.727  0.3564  1.0591  0.0980
  180SLPC  H11R20522   3.218   6.100   4.718  0.2886 -1.3068 -1.9585
  180SLPC  H11S20523   3.096   5.991   4.749  1.3053  0.3789 -2.4113
  180SLPC  C21220524   3.061   6.174   4.847 -0.5349 -0.5463 -0.1452
  180SLPC  H12R20525   2.961   6.220   4.841 -0.9440 -1.3949 -0.0519
  180SLPC  C21320526   3.131   6.192   4.959 -0.5644 -0.1533 -0.0191
  180SLPC  H13R20527   3.088   6.257   5.037 -1.9229 -1.3063  0.2490
  180SLPC  C21420528   3.267   6.127   4.987 -0.2715  0.1438 -0.2859
  180SLPC  H14R20529   3.350   6.138   4.914 -0.1756  0.3680 -0.1452
  180SLPC  H14S20530   3.254   6.022   5.020 -0.9837  0.3576  0.1449
  180SLPC  C21520531   3.321   6.183   5.129 -0.3804 -0.8279 -0.4498
  180SLPC  H15R20532   3.410   6.126   5.165  0.2461  0.5046  0.1467
  180SLPC  H15S20533   3.240   6.168   5.204 -1.3911  1.7315 -0.9419
  180SLPC  C21620534   3.348   6.339   5.132  0.3168  0.2703 -0.2334
  180SLPC  H16R20535   3.258   6.401   5.114  0.9592  1.2973  0.0247
  180SLPC  H16S20536   3.431   6.369   5.065  0.6015 -1.3904 -0.6861
  180SLPC  C21720537   3.414   6.390   5.260 -0.0473  0.8545 -0.3677
  180SLPC  H17R20538   3.458   6.490   5.242 -1.0054  1.5480  0.9642
  180SLPC  H17S20539   3.496   6.320   5.286  0.2838  0.7405 -1.6636
  180SLPC  C21820540   3.315   6.397   5.379  0.1182 -0.5553  0.9166
  180SLPC  H18R20541   3.246   6.479   5.347  0.8889 -0.1657  0.2293
  180SLPC  H18S20542   3.350   6.415   5.483 -0.4631 -2.0982  1.4084
  180SLPC  H18T20543   3.245   6.310   5.374  0.4193 -0.7290 -0.7869
  180SLPC   C3320544   3.309   5.603   3.778  0.1550 -0.4726 -0.2353
  180SLPC   H3X20545   3.361   5.517   3.728 -0.4899 -0.2262 -1.3644
  180SLPC   H3Y20546   3.223   5.633   3.714 -0.0622  1.3515  0.8508
  180SLPC   C3420547   3.257   5.566   3.915 -0.4899  0.1726 -0.0694
  180SLPC   H4X20548   3.206   5.468   3.910 -1.1397  0.5432 -1.5126
  180SLPC   H4Y20549   3.179   5.644   3.932 -0.8701 -0.1527 -0.3233
  180SLPC   C3520550   3.361   5.570   4.027 -0.2735  0.3200  0.1518
  180SLPC   H5X20551   3.410   5.668   4.045  0.6338 -0.2628  0.9666
  180SLPC   H5Y20552   3.431   5.487   4.002 -0.9670 -0.9913  2.2946
  180SLPC   C3620553   3.298   5.533   4.164 -0.8472  0.1613 -1.0357
  180SLPC   H6X20554   3.226   5.448   4.156 -0.6695  0.0126 -1.0498
  180SLPC   H6Y20555   3.239   5.620   4.200 -0.6787  0.0330 -0.4284
  180SLPC   C3720556   3.404   5.495   4.272  0.0426 -0.2064 -0.2031
  180SLPC   H7X20557   3.470   5.579   4.301 -0.4512  0.3914 -0.7860
  180SLPC   H7Y20558   3.471   5.412   4.241  1.1752  0.3232  0.7760
  180SLPC   C3820559   3.331   5.442   4.400  0.6535 -0.5948  0.4997
  180SLPC   H8X20560   3.268   5.354   4.376  1.0838 -0.3697 -1.7242
  180SLPC   H8Y20561   3.271   5.521   4.450  0.0270 -1.7512  1.6182
  180SLPC   C3920562   3.430   5.385   4.501 -0.8916  0.3277 -0.0296
  180SLPC   H9X20563   3.494   5.453   4.561  0.8930 -1.5762  0.3247
  180SLPC   H9Y20564   3.493   5.305   4.456 -0.1960  1.6865 -1.5355
  180SLPC  C31020565   3.348   5.317   4.613 -0.2856 -0.5360 -0.5575
  180SLPC  H10X20566   3.297   5.229   4.569  1.4848 -1.1989 -1.3632
  180SLPC  H10Y20567   3.276   5.397   4.641 -0.4210 -0.1243 -1.9759
  180SLPC  C31120568   3.428   5.260   4.735  0.2303 -0.0947  0.0953
  180SLPC  H11X20569   3.502   5.333   4.775 -1.4953  1.6039  0.3579
  180SLPC  H11Y20570   3.488   5.174   4.700 -0.2436 -0.5749  0.4516
  180SLPC  C31220571   3.341   5.225   4.859 -0.4535 -0.0506  0.2545
  180SLPC  H12X20572   3.270   5.141   4.847 -2.2291  1.6363 -2.0534
  180SLPC  H12Y20573   3.277   5.313   4.882  1.3098  1.7677 -1.3753
  180SLPC  C31320574   3.427   5.198   4.980 -0.1870  1.0363  0.1288
  180SLPC  H13X20575   3.497   5.278   5.011 -0.3985  2.2686 -2.3200
  180SLPC  H13Y20576   3.491   5.109   4.961 -2.3356 -0.3511 -1.0675
  180SLPC  C31420577   3.345   5.153   5.104  0.0690 -0.4420  0.5341
  180SLPC  H14X20578   3.284   5.067   5.066  0.8192 -0.0109 -1.8201
  180SLPC  H14Y20579   3.278   5.232   5.142 -1.2856 -1.3218  0.0733
  180SLPC  C31520580   3.425   5.107   5.219  0.6397  0.5712  0.6291
  180SLPC  H15X20581   3.459   5.193   5.282  1.2147 -0.8553  2.3332
  180SLPC  H15Y20582   3.514   5.049   5.188  1.1767  0.7344  1.7831
  180SLPC  C31620583   3.341   5.013   5.304  0.2870 -0.6877 -0.7091
  180SLPC  H16X20584   3.303   4.932   5.239 -0.0663  0.5927 -2.1563
  180SLPC  H16Y20585   3.246   5.069   5.320  0.3532 -0.3763 -1.3843
  180SLPC  C31720586   3.404   4.964   5.435  0.4431  0.0183 -0.3695
  180SLPC  H17X20587   3.410   5.047   5.508 -3.2871 -1.1080  1.5041
  180SLPC  H17Y20588   3.507   4.929   5.412 -0.3826 -1.7301 -1.6415
  180SLPC  C31820589   3.329   4.842   5.492  0.2576  0.5871 -0.6891
  180SLPC  H18X20590   3.231   4.867   5.538 -0.2118  0.6658 -1.6877
  180SLPC  H18Y20591   3.392   4.789   5.567  2.1832 -1.4342 -3.5010
  180SLPC  H18Z20592   3.302   4.767   5.414 -0.0892  2.8332 -2.8651
  181SLPC     N20593   1.433   1.162   3.196 -0.4055  0.2812 -0.3188
  181SLPC   C1320594   1.505   1.260   3.112  0.4733  0.1447  0.3400
  181SLPC  H13A20595   1.611   1.239   3.113  0.3795 -1.3993 -3.7475
  181SLPC  H13B20596   1.478   1.239   3.010  0.2856 -0.9281  0.6057
  181SLPC  H13C20597   1.474   1.363   3.130 -0.2342  0.1755 -0.9670
  181SLPC   C1420598   1.294   1.208   3.220 -0.2033 -0.2024  0.6254
  181SLPC  H14A20599   1.236   1.132   3.272  0.4326 -0.2045  1.3438
  181SLPC  H14B20600   1.297   1.297   3.280 -0.3178  0.9940 -1.0616
  181SLPC  H14C20601   1.241   1.234   3.129 -0.2937 -0.4641  0.5992
  181SLPC   C1520602   1.497   1.173   3.332  0.3247  0.2180  0.3740
  181SLPC  H15A20603   1.495   1.276   3.365 -0.2084  1.0824 -2.1661
  181SLPC  H15B20604   1.447   1.114   3.407  1.8268 -0.6211  0.7604
  181SLPC  H15C20605   1.604   1.154   3.334  0.3462  0.3569  0.8243
  181SLPC   C1220606   1.436   1.023   3.144 -0.8047 -0.9027 -0.1370
  181SLPC  H12A20607   1.541   1.002   3.135 -0.1950  1.7316  0.0850
  181SLPC  H12B20608   1.395   1.024   3.044 -0.8267  0.1869 -0.1335
  181SLPC   C1120609   1.356   0.914   3.226  0.6516 -0.5360 -0.1256
  181SLPC  H11A20610   1.373   0.809   3.196 -1.9176 -0.8561 -0.7345
  181SLPC  H11B20611   1.252   0.947   3.205  0.5797  0.7292  1.8988
  181SLPC     P20612   1.286   0.932   3.479  0.2735 -0.5667  0.1880
  181SLPC   O1320613   1.352   0.999   3.592  0.1571  0.3129  0.0826
  181SLPC   O1420614   1.173   1.009   3.423 -0.0774  0.4516  0.0612
  181SLPC   O1220615   1.402   0.928   3.367  0.7699 -0.0461  0.1589
  181SLPC   O1120616   1.271   0.775   3.495  0.1699 -0.1361 -0.3434
  181SLPC    C120617   1.154   0.715   3.547 -0.0257  0.2023  0.5435
  181SLPC    HA20618   1.065   0.771   3.512  0.5148  0.9428  0.3367
  181SLPC    HB20619   1.138   0.624   3.486  0.6896  0.7915 -0.5599
  181SLPC    C220620   1.145   0.688   3.702 -0.7494 -0.2111 -0.4898
  181SLPC    HS20621   1.047   0.638   3.716 -1.6812  0.6263 -3.3586
  181SLPC   O2120622   1.163   0.811   3.781  0.1887  0.1564 -0.1086
  181SLPC   C2120623   1.055   0.890   3.785  0.2416  0.0521  0.3178
  181SLPC   O2220624   0.950   0.864   3.731 -0.2221  0.2276 -0.4612
  181SLPC   C2220625   1.078   1.014   3.861  0.1043  0.2716 -0.4758
  181SLPC   H2R20626   1.142   0.990   3.949  0.7442  0.0778 -0.9939
  181SLPC   H2S20627   1.140   1.082   3.799  1.8840 -1.1195 -0.2901
  181SLPC    C320628   1.261   0.590   3.749 -0.1507 -0.2211  0.4950
  181SLPC    HX20629   1.359   0.641   3.760 -0.2252 -0.3633  2.1937
  181SLPC    HY20630   1.272   0.512   3.671 -0.6551 -1.6038  1.7484
  181SLPC   O3120631   1.219   0.532   3.874 -0.4459  0.1706 -0.2837
  181SLPC   C3120632   1.283   0.562   3.986 -0.2985 -0.0455 -0.7267
  181SLPC   O3220633   1.361   0.657   3.995 -0.1063  0.7872 -0.6663
  181SLPC   C3220634   1.239   0.461   4.094  0.2980 -1.0462  0.3620
  181SLPC   H2X20635   1.235   0.370   4.031  1.1049 -0.1460 -1.0350
  181SLPC   H2Y20636   1.138   0.488   4.133  0.5385  5.1325 -2.1706
  181SLPC   C2320637   0.946   1.080   3.905  0.4888 -0.7715  0.0007
  181SLPC   H3R20638   0.878   1.013   3.962  0.8098 -1.8815 -0.8930
  181SLPC   H3S20639   0.893   1.108   3.812  0.1103 -0.8674  0.1840
  181SLPC   C2420640   0.979   1.192   4.011  0.1604  0.2731  0.1831
  181SLPC   H4R20641   0.879   1.240   4.024  0.0936 -0.5314  3.6248
  181SLPC   H4S20642   1.062   1.248   3.963  0.0081  0.1688 -0.2029
  181SLPC   C2520643   1.026   1.151   4.144 -0.5539  0.1688  0.0860
  181SLPC   H5R20644   1.120   1.097   4.121 -0.1306  0.9989 -0.1820
  181SLPC   H5S20645   0.960   1.074   4.191 -2.8961  1.9552 -0.0522
  181SLPC   C2620646   1.032   1.265   4.244  0.3513 -0.4358  0.2348
  181SLPC   H6R20647   0.936   1.319   4.251  0.1636 -0.5753 -1.1111
  181SLPC   H6S20648   1.098   1.345   4.204  0.5617  0.3478  2.0201
  181SLPC   C2720649   1.077   1.237   4.381  0.3162 -0.0918  0.0761
  181SLPC   H7R20650   1.054   1.328   4.440  0.8899 -1.2811  2.2483
  181SLPC   H7S20651   1.186   1.218   4.384  0.9296  2.3901 -2.6197
  181SLPC   C2820652   1.003   1.123   4.451  0.2503  0.0454  0.1763
  181SLPC   H8R20653   1.023   1.019   4.416 -2.2565 -0.9607  1.4782
  181SLPC   H8S20654   0.894   1.134   4.435 -0.0220 -0.8215  1.2774
  181SLPC   C2920655   1.017   1.132   4.598  0.0512  1.1323  0.1452
  181SLPC   H9R20656   0.974   1.220   4.650  0.8229  1.6961 -0.1572
  181SLPC  C21020657   1.100   1.049   4.669  0.3159 -0.0977 -0.5803
  181SLPC  H10R20658   1.097   1.055   4.779 -1.1445  0.8416 -0.6391
  181SLPC  C21120659   1.186   0.936   4.629  0.1942 -0.4629  0.0333
  181SLPC  H11R20660   1.125   0.851   4.591  1.3850 -1.5285  0.4554
  181SLPC  H11S20661   1.220   0.889   4.723  0.7911  1.3886  0.7933
  181SLPC  C21220662   1.305   0.969   4.536 -1.0253 -0.9801  0.8384
  181SLPC  H12R20663   1.309   0.899   4.452 -0.8163 -0.1824  0.1692
  181SLPC  C21320664   1.408   1.053   4.560 -0.5067  0.2760  0.3519
  181SLPC  H13R20665   1.486   1.053   4.482 -0.3285 -2.0445  0.4535
  181SLPC  C21420666   1.429   1.160   4.669  0.2556 -0.1524  0.1632
  181SLPC  H14R20667   1.353   1.143   4.748  0.3309 -0.1798  0.2301
  181SLPC  H14S20668   1.410   1.260   4.623  0.8342 -0.8315 -1.6389
  181SLPC  C21520669   1.568   1.150   4.733  0.3933  0.2432  0.0568
  181SLPC  H15R20670   1.639   1.207   4.669 -0.0884  0.7244 -0.0550
  181SLPC  H15S20671   1.596   1.044   4.754 -2.8749 -0.7330  0.0886
  181SLPC  C21620672   1.565   1.216   4.869 -0.1295  0.1257 -0.3118
  181SLPC  H16R20673   1.659   1.208   4.927 -0.2428  1.0321  0.0128
  181SLPC  H16S20674   1.477   1.181   4.926 -0.2095  0.1276 -0.4335
  181SLPC  C21720675   1.541   1.365   4.862 -0.5085 -0.6886  0.0341
  181SLPC  H17R20676   1.436   1.386   4.831 -0.2824 -0.2335 -0.4295
  181SLPC  H17S20677   1.599   1.408   4.778 -3.7449  1.0279 -1.4991
  181SLPC  C21820678   1.581   1.434   4.985  0.3200 -0.3669 -0.0763
  181SLPC  H18R20679   1.692   1.435   4.992  0.3370 -0.5179 -0.3101
  181SLPC  H18S20680   1.550   1.380   5.077 -0.1214 -0.1100 -0.0730
  181SLPC  H18T20681   1.550   1.540   4.981 -2.5742 -1.0723  1.1686
  181SLPC   C3320682   1.350   0.437   4.207 -0.3077  0.1786  0.4153
  181SLPC   H3X20683   1.455   0.421   4.174 -0.5801  0.2662 -0.5222
  181SLPC   H3Y20684   1.311   0.344   4.254 -0.6805 -0.1158 -0.4607
  181SLPC   C3420685   1.361   0.555   4.301  0.3232 -0.6248 -0.1913
  181SLPC   H4X20686   1.267   0.598   4.340 -0.0991 -1.9991  0.3670
  181SLPC   H4Y20687   1.410   0.642   4.253 -1.5256 -0.4053 -1.8235
  181SLPC   C3520688   1.434   0.521   4.425  0.0732 -0.3750 -0.0978
  181SLPC   H5X20689   1.541   0.515   4.393  0.6210 -3.6558  1.8417
  181SLPC   H5Y20690   1.393   0.422   4.454 -1.3128  0.0220 -0.6451
  181SLPC   C3620691   1.415   0.641   4.521 -0.4260 -0.2737  0.1010
  181SLPC   H6X20692   1.310   0.653   4.554 -0.6569 -0.3286 -0.6050
  181SLPC   H6Y20693   1.449   0.729   4.462 -0.0920 -1.3428 -1.3644
  181SLPC   C3720694   1.495   0.614   4.654  0.0828 -1.0340  0.3563
  181SLPC   H7X20695   1.601   0.645   4.640  0.2575 -1.6908  0.1835
  181SLPC   H7Y20696   1.488   0.506   4.679 -1.1431 -0.8265  0.9429
  181SLPC   C3820697   1.452   0.700   4.774 -0.4800  0.4574  0.2116
  181SLPC   H8X20698   1.342   0.715   4.780 -0.6576 -1.0321  1.2169
  181SLPC   H8Y20699   1.504   0.798   4.772  0.7288 -0.0831  2.2638
  181SLPC   C3920700   1.508   0.649   4.902 -0.5231 -0.0345  0.3040
  181SLPC   H9X20701   1.618   0.667   4.907 -0.6092  0.6626 -0.2921
  181SLPC   H9Y20702   1.493   0.539   4.902 -1.3811  0.0686 -0.9217
  181SLPC  C31020703   1.454   0.713   5.034  0.5309 -0.8503 -0.5586
  181SLPC  H10X20704   1.523   0.679   5.114 -2.0500  0.8508  2.6658
  181SLPC  H10Y20705   1.355   0.673   5.065  0.4347 -2.4762 -2.7387
  181SLPC  C31120706   1.456   0.864   5.046 -0.1213 -0.1342  0.0292
  181SLPC  H11X20707   1.396   0.899   4.959  1.2393  0.9737 -0.5018
  181SLPC  H11Y20708   1.553   0.918   5.039 -0.7419  1.1074  0.7787
  181SLPC  C31220709   1.387   0.921   5.167  0.7369 -0.3956  0.5644
  181SLPC  H12X20710   1.401   0.873   5.266  2.8501  0.7332  0.8516
  181SLPC  H12Y20711   1.280   0.906   5.140  1.4117  0.0214 -2.6588
  181SLPC  C31320712   1.402   1.073   5.166  0.1009  0.2588 -0.5589
  181SLPC  H13X20713   1.342   1.105   5.078 -1.2003  0.8873  0.5208
  181SLPC  H13Y20714   1.508   1.102   5.157  0.5752 -1.1125  0.2864
  181SLPC  C31420715   1.342   1.137   5.287  0.0993 -0.2480  0.2123
  181SLPC  H14X20716   1.240   1.105   5.316 -0.1699  0.1941 -0.2320
  181SLPC  H14Y20717   1.347   1.248   5.273 -1.0843 -0.0115  1.4602
  181SLPC  C31520718   1.431   1.112   5.409 -0.4939  0.4354  0.1061
  181SLPC  H15X20719   1.534   1.146   5.388 -0.1929 -0.2714  0.4263
  181SLPC  H15Y20720   1.432   1.003   5.432 -1.0676  0.7041  1.4841
  181SLPC  C31620721   1.393   1.200   5.532 -0.3162  0.5944  0.2753
  181SLPC  H16X20722   1.415   1.128   5.614  1.5697  1.9686  1.0383
  181SLPC  H16Y20723   1.287   1.232   5.529  0.1574  2.2735  0.5317
  181SLPC  C31720724   1.483   1.322   5.551 -0.6322  0.1271  0.1161
  181SLPC  H17X20725   1.462   1.388   5.464  1.1232  2.2342  1.1689
  181SLPC  H17Y20726   1.587   1.283   5.545 -0.8943 -0.5897  0.2062
  181SLPC  C31820727   1.464   1.388   5.684 -0.3273  0.4616 -0.4177
  181SLPC  H18X20728   1.559   1.437   5.714 -0.9410  2.5609 -1.7200
  181SLPC  H18Y20729   1.448   1.312   5.764 -3.3084  0.8452 -0.5281
  181SLPC  H18Z20730   1.390   1.470   5.686 -0.0375  0.7395 -0.9639
  182SLPC     N20731   6.242   6.479   3.408 -0.4624  0.0773  0.7272
  182SLPC   C1320732   6.093   6.475   3.403 -0.1614 -0.0161  0.0163
  182SLPC  H13A20733   6.060   6.523   3.495 -0.7328  1.6172 -0.9910
  182SLPC  H13B20734   6.050   6.527   3.319 -0.4443 -0.6317 -0.2258
  182SLPC  H13C20735   6.052   6.376   3.398  2.0338 -0.9946  0.1176
  182SLPC   C1420736   6.280   6.620   3.414  0.3023  0.1734 -0.9488
  182SLPC  H14A20737   6.243   6.673   3.327 -1.2101 -0.3224 -0.6274
  182SLPC  H14B20738   6.238   6.674   3.497  0.8420 -0.0295 -0.5389
  182SLPC  H14C20739   6.386   6.640   3.413  0.2582  1.8955  3.7249
  182SLPC   C1520740   6.300   6.430   3.279  0.0100 -0.0926  0.3235
  182SLPC  H15A20741   6.274   6.328   3.256 -0.4744  0.3933 -1.4279
  182SLPC  H15B20742   6.253   6.479   3.196 -1.7916 -0.8587  0.8404
  182SLPC  H15C20743   6.406   6.450   3.277  0.1373 -0.5100  1.6866
  182SLPC   C1220744   6.295   6.400   3.525 -0.8042 -0.4261  0.6835
  182SLPC  H12A20745   6.272   6.450   3.618  1.0636 -2.9724  2.6540
  182SLPC  H12B20746   6.402   6.412   3.528 -0.9977  1.8289  0.3925
  182SLPC   C1120747   6.259   6.253   3.548  0.2712 -0.0604  1.1358
  182SLPC  H11A20748   6.328   6.208   3.623  1.5855  1.4519  0.8806
  182SLPC  H11B20749   6.284   6.197   3.455 -0.2998  0.8366  0.4238
  182SLPC     P20750   6.076   6.281   3.733  0.1806  0.0485  0.0111
  182SLPC   O1320751   6.132   6.412   3.764 -0.0558 -0.2892 -0.1958
  182SLPC   O1420752   5.930   6.269   3.718 -0.3355 -0.6311  0.1333
  182SLPC   O1220753   6.127   6.247   3.591  0.1592  0.8787 -0.0617
  182SLPC   O1120754   6.138   6.172   3.823  0.0744 -0.4801 -0.9537
  182SLPC    C120755   6.109   6.173   3.964 -0.2375  0.1010  0.2108
  182SLPC    HA20756   6.021   6.233   3.997  0.3976  1.8087 -1.0621
  182SLPC    HB20757   6.110   6.070   4.007  0.1247 -1.3821 -3.0861
  182SLPC    C220758   6.229   6.235   4.040  0.2269 -0.5952 -0.2024
  182SLPC    HS20759   6.246   6.333   3.990 -0.3227  0.4306  1.5236
  182SLPC   O2120760   6.339   6.153   4.038 -0.6773 -0.0632  0.0338
  182SLPC   C2120761   6.448   6.182   3.949  0.6512  0.3212 -0.2359
  182SLPC   O2220762   6.457   6.280   3.880 -0.1582 -0.5745  0.4128
  182SLPC   C2220763   6.555   6.076   3.955 -0.1875 -0.4519 -0.2154
  182SLPC   H2R20764   6.520   5.988   4.013 -1.8742  1.3847  1.6676
  182SLPC   H2S20765   6.571   6.029   3.855 -0.8850  2.7896 -1.9699
  182SLPC    C320766   6.192   6.274   4.196  0.0434  0.4608 -0.0398
  182SLPC    HX20767   6.191   6.177   4.250 -2.0376  2.0115  2.9664
  182SLPC    HY20768   6.093   6.325   4.197  0.4995  1.4205 -1.4364
  182SLPC   O3120769   6.295   6.354   4.266 -0.1494 -0.4279  0.0234
  182SLPC   C3120770   6.297   6.483   4.228  0.3857 -0.3690  0.7450
  182SLPC   O3220771   6.222   6.539   4.153  0.1018 -0.4780  0.4434
  182SLPC   C3220772   6.415   6.549   4.293  0.0975  0.0717 -0.5989
  182SLPC   H2X20773   6.438   6.628   4.219  2.6075 -0.6026 -0.6150
  182SLPC   H2Y20774   6.497   6.475   4.296 -0.2162 -0.3410 -1.6918
  182SLPC   C2320775   6.688   6.136   4.000  0.6934 -0.4384  0.5059
  182SLPC   H3R20776   6.708   6.237   3.958 -1.2004  0.1435  0.8800
  182SLPC   H3S20777   6.764   6.077   3.945 -0.9186 -0.0391 -2.3261
  182SLPC   C2420778   6.714   6.117   4.150 -0.7356  0.4281 -0.2267
  182SLPC   H4R20779   6.823   6.137   4.160 -0.6011 -0.5791  0.5337
  182SLPC   H4S20780   6.710   6.006   4.161 -0.4585  0.3926 -0.4838
  182SLPC   C2520781   6.629   6.190   4.252 -0.6942 -0.0412  0.8671
  182SLPC   H5R20782   6.543   6.243   4.206 -1.8870 -1.5882  1.2239
  182SLPC   H5S20783   6.697   6.263   4.300  1.4445 -1.8440  0.7189
  182SLPC   C2620784   6.570   6.097   4.356  0.3049 -0.3646  0.6095
  182SLPC   H6R20785   6.639   6.020   4.395  0.0741 -0.6322  0.4940
  182SLPC   H6S20786   6.486   6.041   4.310  1.3597 -0.8716 -0.7685
  182SLPC   C2720787   6.510   6.165   4.477 -0.5778  0.4149  0.7105
  182SLPC   H7R20788   6.434   6.241   4.447 -0.2556 -0.4364 -2.7985
  182SLPC   H7S20789   6.593   6.213   4.533 -2.9457  3.5365  1.8267
  182SLPC   C2820790   6.445   6.065   4.575  0.6364 -0.7419 -0.1311
  182SLPC   H8R20791   6.349   6.015   4.547 -0.3798 -0.3642  2.4136
  182SLPC   H8S20792   6.418   6.137   4.655  0.3531 -0.7186 -0.2466
  182SLPC   C2920793   6.539   5.952   4.623  0.3037  0.1602 -0.6186
  182SLPC   H9R20794   6.560   5.875   4.547  1.2602 -0.4096  0.2037
  182SLPC  C21020795   6.607   5.944   4.745 -0.2405  0.1821  0.5758
  182SLPC  H10R20796   6.678   5.863   4.770  1.5530  1.7115  0.7028
  182SLPC  C21120797   6.585   6.039   4.857  0.2447  0.7587  0.4628
  182SLPC  H11R20798   6.540   6.136   4.827 -0.6952  0.4165  0.7458
  182SLPC  H11S20799   6.684   6.060   4.903  1.6616 -1.9229 -1.0990
  182SLPC  C21220800   6.494   5.969   4.953  0.1311 -0.0767 -0.6595
  182SLPC  H12R20801   6.446   5.873   4.931  2.4524 -1.3476 -0.4994
  182SLPC  C21320802   6.477   6.016   5.081 -0.1616 -0.1550 -0.2867
  182SLPC  H13R20803   6.407   5.959   5.143  0.3180  0.5045  0.8919
  182SLPC  C21420804   6.548   6.130   5.152 -0.1539 -0.3223 -0.2177
  182SLPC  H14R20805   6.480   6.215   5.175 -1.2466 -0.6843 -1.8935
  182SLPC  H14S20806   6.622   6.168   5.077  0.4862 -1.3531 -0.1309
  182SLPC  C21520807   6.629   6.079   5.267 -1.1543 -0.2557 -0.6588
  182SLPC  H15R20808   6.722   6.042   5.218 -1.1196 -0.7953 -0.1914
  182SLPC  H15S20809   6.593   5.984   5.312  1.9252 -0.1379  2.5056
  182SLPC  C21620810   6.658   6.180   5.379  0.1553  0.1032  0.2032
  182SLPC  H16R20811   6.720   6.126   5.454  3.0732 -1.2631 -2.9049
  182SLPC  H16S20812   6.561   6.216   5.420  0.2016 -0.9536  1.2931
  182SLPC  C21720813   6.753   6.295   5.336  0.5760 -0.6856 -0.5549
  182SLPC  H17R20814   6.695   6.363   5.270  0.0343 -1.7185 -1.1606
  182SLPC  H17S20815   6.839   6.254   5.278 -0.2256 -0.8444 -1.6632
  182SLPC  C21820816   6.801   6.372   5.463  0.5055  0.5941  0.3394
  182SLPC  H18R20817   6.900   6.412   5.431  0.4098  0.4636 -0.1297
  182SLPC  H18S20818   6.820   6.316   5.557  0.7949  0.7912  0.4029
  182SLPC  H18T20819   6.737   6.461   5.480  1.6611  2.3429 -3.4072
  182SLPC   C3320820   6.378   6.615   4.426  0.4336  0.2919  0.8560
  182SLPC   H3X20821   6.296   6.688   4.413  1.9881  1.9694 -0.1038
  182SLPC   H3Y20822   6.468   6.679   4.441  0.5162  1.3262 -3.0126
  182SLPC   C3420823   6.369   6.534   4.549 -1.1733  0.6457  0.6731
  182SLPC   H4X20824   6.458   6.470   4.564 -1.2011  0.8913  2.0576
  182SLPC   H4Y20825   6.277   6.471   4.548 -0.0394 -1.0595  0.0015
  182SLPC   C3520826   6.370   6.632   4.666 -0.4086  0.1082  0.1471
  182SLPC   H5X20827   6.292   6.708   4.642 -2.1828 -1.4870  0.6762
  182SLPC   H5Y20828   6.469   6.681   4.663 -0.2601 -0.0911  1.4935
  182SLPC   C3620829   6.355   6.560   4.801 -0.8106 -0.7903 -0.6300
  182SLPC   H6X20830   6.412   6.465   4.803  0.2247 -0.1847  1.7565
  182SLPC   H6Y20831   6.247   6.538   4.820 -1.6383  2.7944 -0.5058
  182SLPC   C3720832   6.398   6.641   4.924 -0.2433  0.0165  0.0271
  182SLPC   H7X20833   6.349   6.740   4.917 -3.0976 -1.3701 -1.2154
  182SLPC   H7Y20834   6.508   6.649   4.915 -0.2903  1.8713  0.6239
  182SLPC   C3820835   6.357   6.584   5.058 -0.1274  0.4471  0.4844
  182SLPC   H8X20836   6.409   6.486   5.062  1.0016  1.0124 -0.1866
  182SLPC   H8Y20837   6.247   6.567   5.048 -0.0555  1.0771 -1.8610
  182SLPC   C3920838   6.385   6.664   5.188  0.5476 -0.2992  0.3325
  182SLPC   H9X20839   6.350   6.769   5.194  0.0018 -0.4474 -0.1669
  182SLPC   H9Y20840   6.496   6.660   5.201  0.8790  1.3194 -1.4395
  182SLPC  C31020841   6.332   6.588   5.311 -0.9639 -0.2187 -0.4275
  182SLPC  H10X20842   6.349   6.478   5.308 -0.6707 -0.1983  0.2888
  182SLPC  H10Y20843   6.221   6.579   5.309 -0.9424 -0.6730  0.2038
  182SLPC  C31120844   6.385   6.653   5.446  0.3166  0.2858 -0.1383
  182SLPC  H11X20845   6.338   6.753   5.456 -0.0161 -0.0946  4.0829
  182SLPC  H11Y20846   6.495   6.654   5.461 -0.0073  1.1645  3.0481
  182SLPC  C31220847   6.336   6.570   5.566 -0.0398  0.0033  0.2115
  182SLPC  H12X20848   6.390   6.587   5.662 -0.7191  0.2875  0.5516
  182SLPC  H12Y20849   6.358   6.461   5.556 -1.5515 -0.4906  1.7142
  182SLPC  C31320850   6.188   6.584   5.599 -0.1250 -0.1865 -1.0440
  182SLPC  H13X20851   6.122   6.584   5.510 -1.4433 -0.7837 -0.1044
  182SLPC  H13Y20852   6.163   6.676   5.655 -0.7776 -0.5046 -0.7905
  182SLPC  C31420853   6.140   6.468   5.687  0.0552 -0.4451  0.4655
  182SLPC  H14X20854   6.210   6.447   5.769  2.6911 -0.2973 -1.6089
  182SLPC  H14Y20855   6.146   6.383   5.616 -1.8929 -0.2293 -0.0430
  182SLPC  C31520856   5.998   6.491   5.735 -0.1255 -0.1012 -0.2399
  182SLPC  H15X20857   5.944   6.516   5.641  0.6281  0.2605 -0.5847
  182SLPC  H15Y20858   5.990   6.581   5.799  1.4422  0.0438 -0.2036
  182SLPC  C31620859   5.940   6.361   5.782  0.2569  0.0524  0.9474
  182SLPC  H16X20860   5.937   6.276   5.712  1.2223  0.3627  0.5082
  182SLPC  H16Y20861   5.835   6.389   5.803 -0.6906 -1.2734 -1.6428
  182SLPC  C31720862   6.000   6.317   5.917  0.3577  0.0201  0.8001
  182SLPC  H17X20863   5.984   6.391   5.998 -1.2524  0.1385  0.4039
  182SLPC  H17Y20864   6.107   6.295   5.896 -0.2228 -1.8470 -0.5415
  182SLPC  C31820865   5.937   6.182   5.961  0.0583 -0.0978  0.0986
  182SLPC  H18X20866   5.993   6.147   6.051  0.0766 -2.4312 -0.7370
  182SLPC  H18Y20867   5.947   6.109   5.878  1.8674  0.8091 -0.5281
  182SLPC  H18Z20868   5.827   6.193   5.970  0.1954 -0.2391  2.5684
  183SLPC     N20869   0.423   5.570   2.953  1.2337 -0.4371 -0.4731
  183SLPC   C1320870   0.327   5.676   2.918  0.2810 -0.0735  0.0954
  183SLPC  H13A20871   0.349   5.772   2.963  1.0103 -0.0747 -0.2512
  183SLPC  H13B20872   0.339   5.715   2.818 -1.7709  0.4764  0.0208
  183SLPC  H13C20873   0.224   5.655   2.943 -0.7299  3.4380 -0.6549
  183SLPC   C1420874   0.560   5.604   2.895  1.1373 -0.6072 -0.1566
  183SLPC  H14A20875   0.544   5.613   2.788 -1.9725 -1.1268  0.1539
  183SLPC  H14B20876   0.603   5.691   2.940  0.3335 -0.3856  0.2024
  183SLPC  H14C20877   0.629   5.525   2.920  0.7249 -0.2259  2.4024
  183SLPC   C1520878   0.372   5.435   2.910  0.5943  0.2312 -0.1945
  183SLPC  H15A20879   0.282   5.420   2.967  0.1895  1.1296 -0.5721
  183SLPC  H15B20880   0.339   5.442   2.807  4.5653 -0.5843 -1.7118
  183SLPC  H15C20881   0.449   5.360   2.917  0.5131  0.1134 -0.5486
  183SLPC   C1220882   0.448   5.567   3.103  0.1494  0.3145 -0.2261
  183SLPC  H12A20883   0.506   5.479   3.129 -1.1018  0.3299  3.2121
  183SLPC  H12B20884   0.350   5.551   3.146 -0.5686  1.6879 -1.2908
  183SLPC   C1120885   0.525   5.679   3.171  1.0030  0.3901  0.6591
  183SLPC  H11A20886   0.510   5.668   3.281  2.1061  0.1575  0.8036
  183SLPC  H11B20887   0.481   5.776   3.140  0.0854  0.1556  1.2082
  183SLPC     P20888   0.761   5.799   3.180 -0.1015  0.5517 -0.0006
  183SLPC   O1320889   0.818   5.857   3.059  0.2218  0.0226  0.2630
  183SLPC   O1420890   0.692   5.887   3.273  0.5056  0.1199 -0.1081
  183SLPC   O1220891   0.663   5.677   3.137  0.1282  0.2530 -0.2174
  183SLPC   O1120892   0.872   5.729   3.271  0.4352  0.1032 -0.8572
  183SLPC    C120893   0.847   5.619   3.359 -0.6765  0.4972  0.5269
  183SLPC    HA20894   0.764   5.563   3.310 -1.8745  2.8928 -0.3300
  183SLPC    HB20895   0.936   5.553   3.363 -1.7491 -1.1757 -1.0740
  183SLPC    C220896   0.823   5.655   3.508 -0.3061 -0.2696  0.3268
  183SLPC    HS20897   0.752   5.741   3.509  0.9786  0.8708 -0.7392
  183SLPC   O2120898   0.951   5.703   3.555 -0.0642  0.2616  0.0200
  183SLPC   C2120899   0.946   5.812   3.622 -0.1496 -0.2562 -1.1500
  183SLPC   O2220900   0.847   5.857   3.674  0.5966 -0.4112 -0.0758
  183SLPC   C2220901   1.088   5.854   3.632 -0.0539 -0.2809 -0.1524
  183SLPC   H2R20902   1.163   5.775   3.657  2.1855  1.6766 -0.2566
  183SLPC   H2S20903   1.117   5.899   3.535 -1.2573  2.0842  0.5247
  183SLPC    C320904   0.765   5.537   3.599  0.4079  0.2948 -0.4339
  183SLPC    HX20905   0.840   5.455   3.597  1.5521  1.2530  0.9380
  183SLPC    HY20906   0.669   5.509   3.551 -1.1203  1.2262  1.9291
  183SLPC   O3120907   0.743   5.576   3.738  0.0682  0.3098 -0.1425
  183SLPC   C3120908   0.629   5.641   3.760 -0.2578 -0.0124  0.2661
  183SLPC   O3220909   0.553   5.666   3.674 -0.1672  0.0872 -0.1346
  183SLPC   C3220910   0.622   5.690   3.902  0.0233 -0.5644 -0.6062
  183SLPC   H2X20911   0.642   5.799   3.901  2.8769 -1.0129 -0.5023
  183SLPC   H2Y20912   0.702   5.633   3.954 -0.6897 -0.8308  0.2063
  183SLPC   C2320913   1.109   5.974   3.738  0.0219  0.4286 -0.1179
  183SLPC   H3R20914   1.034   6.055   3.737  1.1257  1.5072  0.6650
  183SLPC   H3S20915   1.203   6.021   3.701 -0.3452  0.3788 -1.1388
  183SLPC   C2420916   1.132   5.936   3.884  0.4403 -0.0344 -0.1273
  183SLPC   H4R20917   1.178   6.023   3.935 -1.8199  0.3778  1.3568
  183SLPC   H4S20918   1.201   5.849   3.878 -0.2118 -0.4595 -2.6312
  183SLPC   C2520919   0.996   5.913   3.960 -0.7013 -0.1637 -0.7216
  183SLPC   H5R20920   0.946   5.821   3.922  0.7562 -1.3465  0.1090
  183SLPC   H5S20921   0.928   6.001   3.962  1.4039  1.5672  2.6443
  183SLPC   C2620922   1.009   5.887   4.111  0.8625 -0.2663 -0.1462
  183SLPC   H6R20923   1.087   5.812   4.137 -0.5282 -1.3042  1.1898
  183SLPC   H6S20924   0.909   5.846   4.137  0.6086  1.4869  1.9463
  183SLPC   C2720925   1.035   6.011   4.197  0.2703  0.1672 -0.4124
  183SLPC   H7R20926   0.959   6.092   4.190  0.0213  0.4400  3.2278
  183SLPC   H7S20927   1.115   6.074   4.152  0.6685  0.5364  0.7680
  183SLPC   C2820928   1.089   5.977   4.337  1.0481 -0.9785 -0.7273
  183SLPC   H8R20929   1.122   6.075   4.377 -0.0260 -1.8087  2.5270
  183SLPC   H8S20930   1.180   5.915   4.327  2.2358  0.9174 -2.3318
  183SLPC   C2920931   0.982   5.906   4.414 -0.5631 -1.1296 -0.5771
  183SLPC   H9R20932   0.949   5.806   4.383 -2.3035 -1.5522  2.2089
  183SLPC  C21020933   0.941   5.948   4.531 -0.2549 -1.0000 -0.5323
  183SLPC  H10R20934   0.869   5.891   4.592 -1.1050  0.7519  0.1932
  183SLPC  C21120935   0.988   6.071   4.604  0.4357  0.1511 -0.4429
  183SLPC  H11R20936   0.901   6.113   4.659  0.7595  2.4074 -1.5368
  183SLPC  H11S20937   1.016   6.152   4.533 -0.2779  0.1445 -0.7402
  183SLPC  C21220938   1.099   6.034   4.702  0.7943  0.0968 -0.2417
  183SLPC  H12R20939   1.129   5.928   4.707 -1.0382 -0.4527 -0.4028
  183SLPC  C21320940   1.168   6.128   4.773 -0.4904  0.3159  0.7297
  183SLPC  H13R20941   1.255   6.100   4.833  0.1573  2.1792  0.7336
  183SLPC  C21420942   1.140   6.272   4.780  0.0968 -0.5207  0.5001
  183SLPC  H14R20943   1.113   6.317   4.682  1.0644  0.9308  0.8593
  183SLPC  H14S20944   1.235   6.329   4.786  0.2707 -0.6601 -0.6869
  183SLPC  C21520945   1.029   6.311   4.880 -0.5012  0.2173  0.5773
  183SLPC  H15R20946   0.936   6.254   4.858 -0.2202  0.4105 -1.3648
  183SLPC  H15S20947   1.001   6.412   4.842  0.4221  0.4874  0.5657
  183SLPC  C21620948   1.074   6.292   5.028 -0.3714 -0.3590 -0.2629
  183SLPC  H16R20949   1.076   6.182   5.044 -0.7370 -0.3404 -0.0747
  183SLPC  H16S20950   0.996   6.336   5.094  1.1545 -0.7647  1.9116
  183SLPC  C21720951   1.212   6.351   5.062 -0.6838 -0.0930 -0.4920
  183SLPC  H17R20952   1.287   6.302   4.996  0.2753  1.7931 -0.8701
  183SLPC  H17S20953   1.221   6.327   5.170 -0.0663  0.9767 -0.2962
  183SLPC  C21820954   1.219   6.499   5.048  0.1808 -0.4933  0.0480
  183SLPC  H18R20955   1.301   6.541   5.110 -0.6813 -0.2708  1.0510
  183SLPC  H18S20956   1.120   6.540   5.074  1.2171  1.8929  0.4695
  183SLPC  H18T20957   1.244   6.523   4.942  2.2717  3.9104  1.2910
  183SLPC   C3320958   0.487   5.643   3.968  0.3277 -0.2184 -0.1362
  183SLPC   H3X20959   0.472   5.533   3.958 -2.3578  0.0433  0.0826
  183SLPC   H3Y20960   0.412   5.692   3.902 -0.1641 -0.9693 -0.1478
  183SLPC   C3420961   0.469   5.684   4.113 -0.1126  0.4926  0.2784
  183SLPC   H4X20962   0.379   5.634   4.155 -0.7118  2.5583  1.6166
  183SLPC   H4Y20963   0.455   5.793   4.129  1.7105  0.7178  0.5262
  183SLPC   C3520964   0.580   5.634   4.203  0.0498  0.1571  0.0520
  183SLPC   H5X20965   0.676   5.686   4.184  0.4662 -0.8438 -0.7335
  183SLPC   H5Y20966   0.588   5.526   4.175 -0.1570 -0.2378  1.4452
  183SLPC   C3620967   0.538   5.660   4.353 -0.6684 -0.9096  0.5310
  183SLPC   H6X20968   0.452   5.597   4.384 -1.5512  1.7770  4.2310
  183SLPC   H6Y20969   0.511   5.768   4.361  0.8978 -0.5061  0.8166
  183SLPC   C3720970   0.656   5.640   4.445 -0.2191  0.2573 -0.4844
  183SLPC   H7X20971   0.750   5.691   4.415 -0.9696  2.1040  0.1664
  183SLPC   H7Y20972   0.676   5.530   4.445 -0.3582  0.2321  0.1454
  183SLPC   C3820973   0.617   5.674   4.590 -1.0286  0.5997  0.2979
  183SLPC   H8X20974   0.523   5.627   4.626 -0.5502  1.5664  3.0381
  183SLPC   H8Y20975   0.601   5.784   4.584  3.8107  1.4723 -0.3867
  183SLPC   C3920976   0.719   5.645   4.702 -0.6190  0.3454 -0.4047
  183SLPC   H9X20977   0.813   5.698   4.677 -1.3710  2.6974  1.4816
  183SLPC   H9Y20978   0.745   5.537   4.694 -0.8404  0.3583 -1.5843
  183SLPC  C31020979   0.677   5.691   4.843  0.3902  0.3958  0.4618
  183SLPC  H10X20980   0.764   5.668   4.909 -0.6223 -3.3959  0.6791
  183SLPC  H10Y20981   0.590   5.629   4.873 -0.8994  0.8333 -2.1509
  183SLPC  C31120982   0.650   5.842   4.849  0.3248  1.0071 -0.5792
  183SLPC  H11X20983   0.558   5.857   4.789  0.4702  2.8275 -0.3836
  183SLPC  H11Y20984   0.725   5.906   4.796  0.9600  1.0560  0.3593
  183SLPC  C31220985   0.648   5.886   5.003 -0.2496  0.8875 -0.5071
  183SLPC  H12X20986   0.600   5.806   5.062  0.4175  1.7230  1.2381
  183SLPC  H12Y20987   0.587   5.978   5.009 -1.6724 -0.0090 -0.7726
  183SLPC  C31320988   0.779   5.918   5.069 -0.2203  0.1665 -0.3242
  183SLPC  H13X20989   0.824   6.017   5.043  0.4845  0.5856  2.1975
  183SLPC  H13Y20990   0.853   5.840   5.040 -2.9007 -2.4052 -0.6055
  183SLPC  C31420991   0.764   5.916   5.222  0.8481 -0.1655 -0.0010
  183SLPC  H14X20992   0.726   5.816   5.253 -0.0789  0.5031  1.0684
  183SLPC  H14Y20993   0.684   5.983   5.259 -0.3805 -0.4670 -1.9601
  183SLPC  C31520994   0.884   5.941   5.311  0.0642 -0.2723  0.4738
  183SLPC  H15X20995   0.938   6.030   5.273  0.4848 -0.5221  0.4871
  183SLPC  H15Y20996   0.945   5.848   5.316 -0.3757 -0.5829  0.2226
  183SLPC  C31620997   0.841   5.971   5.453  0.6955 -0.6881 -0.2086
  183SLPC  H16X20998   0.774   5.892   5.493  0.5674 -0.7368 -0.5123
  183SLPC  H16Y20999   0.790   6.070   5.461 -0.3499 -1.3887  3.7530
  183SLPC  C31721000   0.962   5.959   5.551  0.3320 -0.2572 -0.3277
  183SLPC  H17X21001   1.011   6.057   5.571 -2.3651  1.5073 -1.6561
  183SLPC  H17Y21002   1.035   5.891   5.503  1.2794 -0.0199  0.7359
  183SLPC  C31821003   0.916   5.898   5.684  0.1514 -0.2391 -0.0165
  183SLPC  H18X21004   0.838   5.960   5.733 -0.0301 -1.1266  0.8468
  183SLPC  H18Y21005   1.000   5.901   5.758 -1.7532 -1.1748  2.3211
  183SLPC  H18Z21006   0.885   5.792   5.673 -0.2703 -0.3105  1.5720
  184SLPC     N21007   1.922   2.735   2.936  0.0804 -0.1239  0.1839
  184SLPC   C1321008   2.007   2.649   2.858 -0.0887 -0.0835  0.3549
  184SLPC  H13A21009   1.957   2.575   2.797  0.0003  0.5327 -0.4933
  184SLPC  H13B21010   2.066   2.705   2.786 -1.7611  0.9321 -0.2852
  184SLPC  H13C21011   2.070   2.578   2.909  0.1611 -2.6740 -3.1748
  184SLPC   C1421012   1.999   2.824   3.019  0.0594  0.1327 -0.3377
  184SLPC  H14A21013   2.050   2.759   3.088  0.8360  0.0895 -0.9430
  184SLPC  H14B21014   2.064   2.891   2.964 -0.5143  0.2452 -0.8831
  184SLPC  H14C21015   1.929   2.883   3.076  0.3939 -0.1812  0.4090
  184SLPC   C1521016   1.835   2.648   3.025  0.0473  0.3170  0.2121
  184SLPC  H15A21017   1.782   2.590   2.951 -0.2413  0.8325  0.0094
  184SLPC  H15B21018   1.880   2.599   3.110  2.6262  2.0578 -0.0581
  184SLPC  H15C21019   1.754   2.704   3.070 -1.0412 -0.1026 -1.1527
  184SLPC   C1221020   1.828   2.811   2.835 -0.4765  0.7531  0.0077
  184SLPC  H12A21021   1.786   2.751   2.755 -2.0926  0.8523  0.7450
  184SLPC  H12B21022   1.892   2.878   2.779  0.8538 -1.4658 -1.2527
  184SLPC   C1121023   1.702   2.887   2.892  0.5674 -0.4311 -0.7865
  184SLPC  H11A21024   1.646   2.940   2.812  2.9703  0.4449 -1.9574
  184SLPC  H11B21025   1.736   2.963   2.965 -0.7536  1.8847 -2.4625
  184SLPC     P21026   1.503   2.877   3.061  0.1063 -0.1568 -0.1767
  184SLPC   O1321027   1.442   2.987   2.988  0.5201 -0.2557  0.2118
  184SLPC   O1421028   1.421   2.774   3.122  0.2245 -0.3633 -0.3118
  184SLPC   O1221029   1.612   2.798   2.966 -0.2064 -0.0470 -0.3932
  184SLPC   O1121030   1.609   2.938   3.169  0.1072 -0.6318  0.7261
  184SLPC    C121031   1.688   2.859   3.264 -0.7532 -0.6375  1.1359
  184SLPC    HA21032   1.695   2.755   3.226  1.4447  0.2586 -1.1452
  184SLPC    HB21033   1.789   2.906   3.269 -0.1454 -1.7645 -0.0002
  184SLPC    C221034   1.626   2.882   3.403  1.0915 -0.1159  0.0616
  184SLPC    HS21035   1.685   2.838   3.486  1.0323 -0.1756  0.0718
  184SLPC   O2121036   1.492   2.822   3.408 -0.1884  0.0860  0.1430
  184SLPC   C2121037   1.497   2.688   3.405 -0.2923 -0.2897  0.1270
  184SLPC   O2221038   1.598   2.623   3.403  0.2284  0.4856  0.1098
  184SLPC   C2221039   1.354   2.629   3.419  0.1645  0.3835 -0.5402
  184SLPC   H2R21040   1.293   2.722   3.415  1.4701  1.2734 -0.5010
  184SLPC   H2S21041   1.340   2.548   3.344  1.5517  1.2414 -1.7996
  184SLPC    C321042   1.610   3.037   3.434 -0.1709  0.0018 -0.5623
  184SLPC    HX21043   1.566   3.071   3.338 -0.1602 -2.2677 -1.4458
  184SLPC    HY21044   1.712   3.080   3.431 -0.5149  0.8930  0.0664
  184SLPC   O3121045   1.530   3.066   3.558  0.6084 -0.6556  0.1813
  184SLPC   C3121046   1.590   3.034   3.671  0.2657  0.0656 -0.1426
  184SLPC   O3221047   1.695   2.973   3.685 -0.2944 -0.3911  0.2420
  184SLPC   C3221048   1.494   3.078   3.789  0.1710  0.3027  0.1233
  184SLPC   H2X21049   1.390   3.090   3.750  0.0892  0.5452  0.4084
  184SLPC   H2Y21050   1.543   3.166   3.836 -0.5203 -0.4868  2.4556
  184SLPC   C2321051   1.341   2.559   3.559  0.3751 -0.8349  0.4010
  184SLPC   H3R21052   1.407   2.471   3.574  1.6668  0.1482  0.6004
  184SLPC   H3S21053   1.233   2.537   3.575  0.0035  1.0839  0.8753
  184SLPC   C2421054   1.370   2.660   3.679  0.3690 -0.2890  0.8583
  184SLPC   H4R21055   1.336   2.761   3.647  1.7981 -1.2473 -4.7730
  184SLPC   H4S21056   1.480   2.667   3.692  1.0528 -2.3437 -2.4938
  184SLPC   C2521057   1.304   2.605   3.801  0.2910  0.0738  0.0932
  184SLPC   H5R21058   1.202   2.567   3.780  0.1745  1.3353 -1.8794
  184SLPC   H5S21059   1.295   2.684   3.878  1.3293  0.6871 -0.3926
  184SLPC   C2621060   1.374   2.485   3.874 -0.2134 -1.0998 -0.3585
  184SLPC   H6R21061   1.367   2.408   3.795  1.8086  0.6439 -2.3583
  184SLPC   H6S21062   1.306   2.454   3.957 -1.3401  2.7776  0.4039
  184SLPC   C2721063   1.519   2.503   3.918 -0.5419 -0.1128 -0.1812
  184SLPC   H7R21064   1.549   2.593   3.976  1.7933 -1.4482  0.8574
  184SLPC   H7S21065   1.579   2.514   3.825  0.2383  2.2978  0.5210
  184SLPC   C2821066   1.568   2.382   4.002 -0.1169  0.2334 -0.1984
  184SLPC   H8R21067   1.532   2.292   3.948 -0.0779  0.9037 -1.3756
  184SLPC   H8S21068   1.521   2.387   4.103  0.7221  0.1464  0.2097
  184SLPC   C2921069   1.716   2.388   4.023 -0.3306  0.1574  0.0390
  184SLPC   H9R21070   1.772   2.401   3.930  1.5271  1.3041  1.2524
  184SLPC  C21021071   1.779   2.383   4.144  0.0316  0.4530 -0.1669
  184SLPC  H10R21072   1.887   2.396   4.156  0.2196 -1.7094  1.1352
  184SLPC  C21121073   1.702   2.365   4.272 -0.3204  0.3544 -0.4769
  184SLPC  H11R21074   1.637   2.275   4.265  1.0127 -0.5658 -1.7033
  184SLPC  H11S21075   1.641   2.456   4.287  0.5154  1.0261 -1.0483
  184SLPC  C21221076   1.783   2.342   4.399 -0.2712  0.2684  0.2953
  184SLPC  H12R21077   1.889   2.369   4.395 -0.2232  0.4330  1.7802
  184SLPC  C21321078   1.733   2.287   4.514 -0.7769  0.1039  0.3293
  184SLPC  H13R21079   1.807   2.280   4.594  1.5236  4.6047 -1.1032
  184SLPC  C21421080   1.594   2.240   4.538 -0.3535  0.0560  0.4645
  184SLPC  H14R21081   1.604   2.134   4.568 -0.7133  0.7182  3.2180
  184SLPC  H14S21082   1.535   2.248   4.444 -0.7647 -0.1463  0.7038
  184SLPC  C21521083   1.521   2.328   4.639  0.3737  0.3590  0.4956
  184SLPC  H15R21084   1.419   2.285   4.642  0.3338  0.5013  1.7710
  184SLPC  H15S21085   1.511   2.433   4.603 -2.1934  0.6159  1.7256
  184SLPC  C21621086   1.571   2.325   4.784  0.0265  0.1741  0.1057
  184SLPC  H16R21087   1.678   2.351   4.787  0.1569 -0.2361  4.1238
  184SLPC  H16S21088   1.556   2.217   4.806 -1.3081  0.6518  1.7865
  184SLPC  C21721089   1.487   2.407   4.877  0.3643 -0.4788 -0.4126
  184SLPC  H17R21090   1.381   2.381   4.858  0.0032  0.0864  0.7680
  184SLPC  H17S21091   1.495   2.514   4.848  1.3917 -0.8186 -1.4751
  184SLPC  C21821092   1.513   2.385   5.026  0.1850 -0.0389 -0.5425
  184SLPC  H18R21093   1.605   2.442   5.052 -0.5976  0.9430  0.1618
  184SLPC  H18S21094   1.527   2.282   5.065 -0.0349 -0.4454 -1.5241
  184SLPC  H18T21095   1.429   2.437   5.076  0.0179 -0.1004 -0.7621
  184SLPC   C3321096   1.495   2.970   3.903  0.2697  0.3983  0.2440
  184SLPC   H3X21097   1.600   2.951   3.933  1.4433  3.2472 -1.6487
  184SLPC   H3Y21098   1.452   2.868   3.892 -0.0721  0.6095 -0.4237
  184SLPC   C3421099   1.442   3.035   4.029 -0.2429 -0.0355 -0.6729
  184SLPC   H4X21100   1.354   3.101   4.014 -0.1851  0.3812  0.6298
  184SLPC   H4Y21101   1.527   3.099   4.062  0.2548 -0.9264 -0.1865
  184SLPC   C3521102   1.399   2.939   4.149 -0.1605 -0.2145 -0.9383
  184SLPC   H5X21103   1.304   2.900   4.106 -1.2512  0.8479  0.3825
  184SLPC   H5Y21104   1.373   3.004   4.235  0.0118 -1.1380 -0.1805
  184SLPC   C3621105   1.493   2.830   4.182 -0.4544 -0.4680  0.4208
  184SLPC   H6X21106   1.601   2.849   4.167 -0.9663  0.4769 -3.1003
  184SLPC   H6Y21107   1.470   2.745   4.114  1.1009 -0.3864 -0.2333
  184SLPC   C3721108   1.484   2.785   4.330 -0.0139  0.9642 -0.4677
  184SLPC   H7X21109   1.522   2.681   4.327 -2.0478  0.0386  1.8474
  184SLPC   H7Y21110   1.381   2.782   4.371  0.0085  2.1096 -0.2791
  184SLPC   C3821111   1.556   2.870   4.441  0.7648 -0.2023 -0.0519
  184SLPC   H8X21112   1.541   2.978   4.424 -0.3534 -0.1372  1.1710
  184SLPC   H8Y21113   1.664   2.848   4.431  0.6127 -0.2740 -1.7427
  184SLPC   C3921114   1.510   2.835   4.581  0.3177  0.7848  0.0350
  184SLPC   H9X21115   1.538   2.729   4.601  0.4796  0.5170 -1.4423
  184SLPC   H9Y21116   1.400   2.849   4.586  0.1726 -0.0487 -0.6191
  184SLPC  C31021117   1.564   2.931   4.688  0.9431  0.4101 -0.8728
  184SLPC  H10X21118   1.491   2.937   4.772  0.5372 -0.3689 -1.1643
  184SLPC  H10Y21119   1.576   3.033   4.646 -1.8203  1.2143  0.1004
  184SLPC  C31121120   1.697   2.897   4.759 -0.9946  0.3945  0.2516
  184SLPC  H11X21121   1.786   2.892   4.693 -0.7682  0.4147  0.5566
  184SLPC  H11Y21122   1.683   2.790   4.786 -3.0770  0.3628 -0.6920
  184SLPC  C31221123   1.728   2.984   4.879 -0.0293 -0.2764  0.5318
  184SLPC  H12X21124   1.639   2.987   4.946 -1.0569 -0.7037 -0.7685
  184SLPC  H12Y21125   1.753   3.090   4.859 -1.2710  0.0043  0.4135
  184SLPC  C31321126   1.850   2.943   4.969 -0.7202 -0.4037  0.2924
  184SLPC  H13X21127   1.933   2.941   4.895  1.3703  4.6575  2.1083
  184SLPC  H13Y21128   1.831   2.837   4.997  0.6896 -0.4583  1.1216
  184SLPC  C31421129   1.883   3.040   5.086 -0.2676 -0.4413 -0.3846
  184SLPC  H14X21130   1.891   3.142   5.041  0.2404  0.1929  1.0885
  184SLPC  H14Y21131   1.979   3.017   5.135 -1.3161 -0.4493  1.7986
  184SLPC  C31521132   1.775   3.046   5.197 -0.6084 -0.4037  0.0252
  184SLPC  H15X21133   1.683   3.056   5.136 -1.8467  0.8358  2.0044
  184SLPC  H15Y21134   1.788   3.131   5.268  0.9812 -0.3132 -0.3359
  184SLPC  C31621135   1.772   2.913   5.277  0.1476 -0.0789  0.4724
  184SLPC  H16X21136   1.877   2.877   5.277 -0.1723 -1.2809 -2.3436
  184SLPC  H16Y21137   1.716   2.836   5.219  2.2993 -0.0879 -1.7397
  184SLPC  C31721138   1.736   2.932   5.424  0.7680  0.0479  0.1906
  184SLPC  H17X21139   1.627   2.953   5.431  0.2486 -2.7997  3.0155
  184SLPC  H17Y21140   1.789   3.022   5.463 -0.5371  1.2633 -0.7398
  184SLPC  C31821141   1.744   2.811   5.517 -0.7088  0.0350 -0.0133
  184SLPC  H18X21142   1.724   2.839   5.623  1.6844  0.1280  0.4775
  184SLPC  H18Y21143   1.842   2.757   5.523 -0.1548  0.8059 -1.6411
  184SLPC  H18Z21144   1.666   2.738   5.487  0.1553 -0.8421 -0.1990
  185POPC     N21145   4.202   4.203   8.314  0.7239  0.0718  0.3516
  185POPC   C1221146   4.161   4.244   8.176  0.5765 -0.9130  0.1330
  185POPC  H12A21147   4.184   4.349   8.170  0.0750 -0.7931  0.2161
  185POPC  H12B21148   4.053   4.246   8.174  0.5616 -0.6292  1.0614
  185POPC   C1321149   4.181   4.053   8.311 -0.3585  0.1765 -0.0577
  185POPC  H13A21150   4.191   4.020   8.413 -2.2574  1.1129  0.4788
  185POPC  H13B21151   4.079   4.023   8.294  0.5008 -1.7301 -2.3688
  185POPC  H13C21152   4.254   4.005   8.248  1.0072  2.3697 -0.2611
  185POPC   C1421153   4.348   4.231   8.334 -0.3789  0.4213 -0.0742
  185POPC  H14A21154   4.370   4.228   8.439  0.0217  2.2596 -0.0812
  185POPC  H14B21155   4.417   4.163   8.285  0.8147  1.3508  0.2848
  185POPC  H14C21156   4.374   4.330   8.300  1.1555  0.0497 -0.0744
  185POPC   C1521157   4.110   4.265   8.414 -0.9056 -0.4261  0.2626
  185POPC  H15A21158   4.008   4.264   8.379 -0.7089 -0.7162 -0.3120
  185POPC  H15B21159   4.124   4.372   8.417  1.7824 -0.4912 -3.1638
  185POPC  H15C21160   4.124   4.221   8.512 -1.8606 -0.0843  0.5578
  185POPC   C1121161   4.234   4.176   8.053 -0.3535  0.0956 -0.4577
  185POPC  H11A21162   4.186   4.197   7.955 -1.1345  0.9744  0.0988
  185POPC  H11B21163   4.216   4.067   8.060 -1.4181  0.3400  1.0367
  185POPC     P21164   4.419   4.345   7.993  0.0814 -0.3063 -0.2645
  185POPC   O1321165   4.566   4.347   7.962  0.7904  0.0198  0.1630
  185POPC   O1421166   4.366   4.450   8.085 -0.0527 -0.2431 -0.0070
  185POPC   O1221167   4.372   4.205   8.051 -0.4426 -0.0971 -0.7336
  185POPC   O1121168   4.330   4.359   7.858  0.3864  0.3573 -0.4150
  185POPC    C121169   4.258   4.475   7.837 -1.0263 -0.5074  0.5270
  185POPC    HA21170   4.327   4.562   7.832  1.1974 -2.2863 -1.7014
  185POPC    HB21171   4.186   4.499   7.918 -2.8353  0.6052 -1.2979
  185POPC    C221172   4.181   4.487   7.701  0.0889  0.2654  0.9499
  185POPC    HS21173   4.080   4.443   7.711 -0.3598 -1.1083 -5.4092
  185POPC   O2121174   4.254   4.427   7.592  0.1308  0.2082 -0.4357
  185POPC   C2121175   4.205   4.309   7.553 -1.1734 -0.3557 -0.1124
  185POPC   O2221176   4.125   4.236   7.614 -0.4859 -0.4119 -0.8222
  185POPC   C2221177   4.266   4.272   7.419  0.5095 -0.0455  0.4883
  185POPC   H2R21178   4.261   4.162   7.433 -0.5036  0.0474  0.8893
  185POPC   H2S21179   4.372   4.302   7.402  0.8653 -0.8805  1.1197
  185POPC    C321180   4.157   4.631   7.658 -0.2062 -0.9306  0.3255
  185POPC    HX21181   4.253   4.684   7.640 -1.5812  1.2972 -0.8750
  185POPC    HY21182   4.111   4.692   7.738  0.1689  0.6813 -0.6426
  185POPC   O3121183   4.087   4.637   7.538 -0.4570  0.4428 -0.4476
  185POPC   C3121184   4.076   4.757   7.485  0.1151 -0.4971 -0.9688
  185POPC   O3221185   4.126   4.858   7.529 -0.3441 -0.5040 -0.1390
  185POPC   C3221186   3.996   4.743   7.362  0.1036 -0.0963 -0.2999
  185POPC   H2X21187   3.893   4.780   7.384 -0.0620  0.7554 -2.2625
  185POPC   H2Y21188   4.003   4.636   7.332 -0.2947 -0.2569  0.1673
  185POPC   C2321189   4.171   4.288   7.298  0.6187 -0.5113  0.3902
  185POPC   H3R21190   4.065   4.295   7.332 -0.1524  1.3011 -2.0445
  185POPC   H3S21191   4.172   4.206   7.222 -3.6401  0.2819 -0.8307
  185POPC   C2421192   4.198   4.422   7.227 -0.1872  0.3271  0.1944
  185POPC   H4R21193   4.303   4.429   7.192 -0.7429  1.6688 -1.3432
  185POPC   H4S21194   4.190   4.504   7.302  1.2802  0.8426 -0.1954
  185POPC   C2521195   4.103   4.454   7.115 -0.6878 -0.2796  0.5032
  185POPC   H5R21196   4.114   4.565   7.111  0.0388 -0.3209  1.1935
  185POPC   H5S21197   4.007   4.410   7.149 -0.7650 -2.9053 -2.6694
  185POPC   C2621198   4.134   4.383   6.978  0.4394 -0.2207 -0.0325
  185POPC   H6R21199   4.121   4.272   6.973  0.4168 -0.2842  1.1678
  185POPC   H6S21200   4.241   4.395   6.947 -0.0843  3.8356 -0.8216
  185POPC   C2721201   4.046   4.448   6.868 -0.6390  0.2096  0.3948
  185POPC   H7R21202   4.098   4.460   6.770 -1.4772 -1.2685 -0.2708
  185POPC   H7S21203   4.044   4.556   6.894  2.3306  0.3866  0.2586
  185POPC   C2821204   3.907   4.376   6.846  0.0147  0.8909 -0.3248
  185POPC   H8R21205   3.865   4.361   6.947  1.2101  0.3629  0.1045
  185POPC   H8S21206   3.924   4.275   6.804 -1.5597 -0.3233  1.8224
  185POPC   C2921207   3.808   4.456   6.766 -0.1215  0.5206  0.2589
  185POPC   H9121208   3.742   4.526   6.819 -3.2646 -0.9683 -1.3685
  185POPC  C21021209   3.768   4.431   6.633 -0.8163 -0.0943  0.2775
  185POPC  H10121210   3.682   4.493   6.606 -2.3823 -2.9658 -1.9041
  185POPC  C21121211   3.811   4.332   6.534 -0.1766  0.4722  0.6289
  185POPC  H11R21212   3.743   4.245   6.541 -1.9284  1.5574 -1.5694
  185POPC  H11S21213   3.919   4.308   6.538 -0.0746  1.0809  2.5774
  185POPC  C21221214   3.773   4.371   6.390  0.0527 -0.3377  0.4103
  185POPC  H12R21215   3.823   4.466   6.361  1.7493 -1.1606  0.5270
  185POPC  H12S21216   3.663   4.384   6.380 -0.1847 -0.6343  2.2243
  185POPC  C21321217   3.816   4.264   6.279  0.0700 -0.1329  0.0498
  185POPC  H13R21218   3.926   4.256   6.275  0.1725  0.7912  0.8004
  185POPC  H13S21219   3.787   4.314   6.185 -1.3112 -1.8189 -0.4723
  185POPC  C21421220   3.750   4.127   6.294  0.6444 -0.3396  0.2775
  185POPC  H14R21221   3.641   4.134   6.273  0.2532 -2.0705  1.4801
  185POPC  H14S21222   3.756   4.084   6.396 -0.8246 -0.8244  0.1887
  185POPC  C21521223   3.817   4.009   6.213 -0.0346 -0.2264  0.4362
  185POPC  H15R21224   3.926   4.001   6.234  0.5966  0.9076 -2.0232
  185POPC  H15S21225   3.803   4.034   6.106 -0.1300 -3.6786 -0.4741
  185POPC  C21621226   3.739   3.876   6.244 -0.0570 -0.0067  0.4014
  185POPC  H16R21227   3.730   3.813   6.153  0.4679  0.0420  0.3083
  185POPC  H16S21228   3.630   3.895   6.253 -0.5638 -1.1449 -2.2323
  185POPC  C21721229   3.782   3.786   6.358 -0.0980 -0.1825  0.1497
  185POPC  H17R21230   3.802   3.859   6.439  2.2911  0.4235 -0.8935
  185POPC  H17S21231   3.883   3.745   6.336 -0.0452  0.3398 -0.6096
  185POPC  C21821232   3.688   3.674   6.397  0.7515  0.4852  0.2278
  185POPC  H18R21233   3.650   3.612   6.313  1.6982  0.9770 -0.5855
  185POPC  H18S21234   3.602   3.716   6.455  1.7682  0.6723  1.6510
  185POPC  H18T21235   3.734   3.606   6.472  1.1555 -2.0667 -2.1906
  185POPC   C3321236   4.044   4.840   7.246 -0.3424 -0.0957  0.2561
  185POPC   H3X21237   4.148   4.814   7.216 -1.0914 -1.0522 -1.6666
  185POPC   H3Y21238   4.025   4.946   7.274 -1.2969  0.1233 -1.1126
  185POPC   C3421239   3.962   4.817   7.122 -0.2014 -0.6277 -0.4068
  185POPC   H4X21240   3.872   4.882   7.127 -0.6546 -1.3214  1.4976
  185POPC   H4Y21241   3.936   4.709   7.113 -3.0331  0.0945 -2.1319
  185POPC   C3521242   4.038   4.857   6.995 -0.4922 -0.7310  0.1844
  185POPC   H5X21243   4.135   4.804   6.992  1.6445  2.7134  1.3301
  185POPC   H5Y21244   4.064   4.966   6.994 -1.3615 -0.5099 -1.0861
  185POPC   C3621245   3.960   4.825   6.871 -0.0138  0.8876 -0.3713
  185POPC   H6X21246   3.873   4.895   6.864 -0.6718  0.2335  0.8161
  185POPC   H6Y21247   3.919   4.722   6.882 -2.0449  1.6287 -0.5905
  185POPC   C3721248   4.047   4.824   6.746  0.0327 -0.0574 -0.0167
  185POPC   H7X21249   4.124   4.745   6.750 -0.1001 -0.1487  1.4246
  185POPC   H7Y21250   4.112   4.914   6.747 -2.2858  1.7284 -0.0542
  185POPC   C3821251   3.962   4.809   6.623  0.3676  0.4863 -0.0777
  185POPC   H8X21252   3.863   4.860   6.629 -0.4895 -0.7490 -2.5661
  185POPC   H8Y21253   3.942   4.701   6.611 -1.2379  0.6352  0.8854
  185POPC   C3921254   4.036   4.864   6.498  0.0397 -0.0551  0.4612
  185POPC   H9X21255   4.141   4.828   6.503  0.2226 -0.3674 -2.8777
  185POPC   H9Y21256   4.047   4.975   6.501  3.0578 -0.2886  0.6114
  185POPC  C31021257   3.971   4.820   6.360 -0.3805 -0.8905 -0.1379
  185POPC  H10X21258   3.870   4.866   6.349  0.6535  1.0946 -2.1442
  185POPC  H10Y21259   3.968   4.709   6.349  1.1618 -0.8823 -0.9517
  185POPC  C31121260   4.047   4.880   6.242 -0.1017 -0.2262 -0.3934
  185POPC  H11X21261   4.155   4.859   6.253  0.1924  1.4508  0.2082
  185POPC  H11Y21262   4.038   4.990   6.244  0.5208 -0.1255 -1.8294
  185POPC  C31221263   3.998   4.836   6.106  0.2508 -0.0167 -0.1177
  185POPC  H12X21264   4.054   4.895   6.030 -0.0828  1.1160  0.4835
  185POPC  H12Y21265   3.890   4.865   6.102  0.1211 -0.0559  1.9758
  185POPC  C31321266   4.011   4.689   6.072  0.1568 -0.5640 -0.4220
  185POPC  H13X21267   3.971   4.626   6.154  1.5160 -1.0599 -0.1069
  185POPC  H13Y21268   4.118   4.660   6.075 -0.2624 -2.1397  0.9952
  185POPC  C31421269   3.945   4.663   5.932  0.1972 -0.5790 -0.4851
  185POPC  H14X21270   3.840   4.697   5.935  0.0896 -0.8308  3.1483
  185POPC  H14Y21271   3.945   4.555   5.909  0.3623 -0.9730  1.1863
  185POPC  C31521272   4.007   4.737   5.813 -0.0722 -0.3018 -0.0025
  185POPC  H15X21273   3.974   4.842   5.825 -0.5142 -0.1585 -1.9956
  185POPC  H15Y21274   3.954   4.700   5.722 -0.6115  0.0616  0.1598
  185POPC  C31621275   4.161   4.728   5.794  0.1587 -0.7509  0.2385
  185POPC  H16X21276   4.212   4.786   5.874  0.4163 -1.7816  0.8471
  185POPC  H16Y21277   4.186   4.779   5.698  0.2572  0.2545  0.7875
  185POPC  H16Z21278   4.199   4.623   5.800  2.4329  0.0132  0.4033
  186POPC     N21279   2.284   3.826   7.637 -0.2170  0.0804 -0.0571
  186POPC   C1221280   2.309   3.939   7.534 -0.4925 -0.6761 -0.8557
  186POPC  H12A21281   2.413   3.934   7.506 -0.1830 -1.9979  0.4218
  186POPC  H12B21282   2.305   4.031   7.590  1.1953 -1.5558  0.7964
  186POPC   C1321283   2.415   3.805   7.712  0.3523 -0.0606 -0.1886
  186POPC  H13A21284   2.442   3.889   7.774  1.7390  0.9079 -1.9865
  186POPC  H13B21285   2.418   3.730   7.790  1.5318  1.5134  1.3479
  186POPC  H13C21286   2.492   3.803   7.636  0.9006 -2.1199  0.3408
  186POPC   C1421287   2.178   3.852   7.732  0.3215 -0.8084 -0.3867
  186POPC  H14A21288   2.166   3.766   7.796 -1.0107 -1.0591 -0.9428
  186POPC  H14B21289   2.209   3.938   7.790 -1.2747  0.8992 -1.9041
  186POPC  H14C21290   2.081   3.865   7.687  0.1119 -0.3389  0.1904
  186POPC   C1521291   2.264   3.700   7.557 -0.4997 -0.0705  0.0440
  186POPC  H15A21292   2.249   3.615   7.621 -0.7439 -1.8223 -2.2289
  186POPC  H15B21293   2.340   3.683   7.482 -1.7394  2.4545 -1.9429
  186POPC  H15C21294   2.180   3.702   7.490  0.5280 -0.6113 -1.3013
  186POPC   C1121295   2.225   3.958   7.402 -0.5908 -0.5817  0.7180
  186POPC  H11A21296   2.247   3.879   7.328  0.9265  1.8621 -1.6303
  186POPC  H11B21297   2.265   4.046   7.347  1.4949 -1.3068  0.9914
  186POPC     P21298   2.017   4.121   7.460 -0.2057 -0.1904 -0.2533
  186POPC   O1321299   2.117   4.217   7.519  0.0372  0.1874 -0.3535
  186POPC   O1421300   1.903   4.080   7.549  0.4140 -0.0956 -0.1208
  186POPC   O1221301   2.082   3.975   7.429  0.5067  0.0764 -0.3404
  186POPC   O1121302   1.954   4.176   7.328 -0.3228 -0.5006  0.0706
  186POPC    C121303   1.966   4.118   7.201 -0.0845  0.2384 -0.2962
  186POPC    HA21304   1.863   4.104   7.163  0.1481 -0.4010 -0.7013
  186POPC    HB21305   2.016   4.019   7.201 -0.3528  0.1040 -0.2435
  186POPC    C221306   2.033   4.211   7.102 -0.5629 -0.8263 -0.8509
  186POPC    HS21307   1.967   4.300   7.097  0.5963  0.2279  1.2917
  186POPC   O2121308   2.039   4.163   6.967 -0.4941  0.0543  0.5875
  186POPC   C2121309   1.919   4.173   6.906 -0.0957  0.3805 -0.5194
  186POPC   O2221310   1.819   4.222   6.949  0.2037  0.4222 -0.0079
  186POPC   C2221311   1.944   4.153   6.758  0.0578  0.2534 -0.0919
  186POPC   H2R21312   1.960   4.044   6.748 -1.8694 -0.0622 -0.2356
  186POPC   H2S21313   2.037   4.207   6.731  1.6682 -1.4611  1.7506
  186POPC    C321314   2.171   4.267   7.153 -1.1134  0.3871 -0.5664
  186POPC    HX21315   2.217   4.185   7.212 -1.8262  0.7880  0.5829
  186POPC    HY21316   2.151   4.346   7.229  0.3419 -0.2942  0.5714
  186POPC   O3121317   2.265   4.308   7.046  0.3359  0.1278  0.2170
  186POPC   C3121318   2.229   4.418   6.991 -0.4945  0.1855 -0.4249
  186POPC   O3221319   2.142   4.494   7.022 -0.1849  0.0283 -0.5066
  186POPC   C3221320   2.329   4.462   6.893  0.7841 -0.1820 -0.0685
  186POPC   H2X21321   2.407   4.383   6.888  2.0862  1.1303 -3.5846
  186POPC   H2Y21322   2.386   4.546   6.936  0.8749 -0.6763  0.8076
  186POPC   C2321323   1.824   4.200   6.669 -0.8328 -0.2925 -0.5944
  186POPC   H3R21324   1.792   4.299   6.707 -2.2290 -0.2176 -1.8849
  186POPC   H3S21325   1.741   4.127   6.676 -1.6331  0.7565  1.4057
  186POPC   C2421326   1.847   4.232   6.520  0.4131  0.6863  0.2986
  186POPC   H4R21327   1.910   4.322   6.503  4.0512 -1.9711 -1.8062
  186POPC   H4S21328   1.751   4.263   6.472  0.4640  2.7048  1.4078
  186POPC   C2521329   1.905   4.123   6.437 -0.1352 -0.6004  0.8410
  186POPC   H5R21330   1.839   4.033   6.437  1.3198 -1.7250 -0.5804
  186POPC   H5S21331   2.003   4.104   6.486  1.0348  1.1584 -0.7112
  186POPC   C2621332   1.917   4.152   6.285 -0.0483  0.5249 -0.7516
  186POPC   H6R21333   1.983   4.241   6.277  1.3506 -0.3538  0.5172
  186POPC   H6S21334   1.814   4.171   6.246  1.5133  2.3258 -4.5213
  186POPC   C2721335   1.981   4.035   6.215  1.2608 -0.1234  0.0867
  186POPC   H7R21336   1.913   3.948   6.206  1.1061  0.1542 -1.7955
  186POPC   H7S21337   2.080   4.009   6.258  0.5223  2.0660  3.5510
  186POPC   C2821338   1.998   4.077   6.067 -0.4017 -0.1863  0.5363
  186POPC   H8R21339   2.075   4.155   6.052  0.4834 -1.4038 -1.6493
  186POPC   H8S21340   1.900   4.115   6.029 -0.1664  0.6300  0.7238
  186POPC   C2921341   2.037   3.957   5.982 -0.0725  0.1870 -0.0983
  186POPC   H9121342   1.988   3.861   6.004  0.9745 -0.0007  1.6043
  186POPC  C21021343   2.127   3.951   5.880  0.2421  0.3230 -0.1418
  186POPC  H10121344   2.135   3.857   5.822 -0.4992  0.0628  0.1547
  186POPC  C21121345   2.213   4.061   5.833 -0.4135 -0.2767  0.1465
  186POPC  H11R21346   2.293   4.017   5.770  0.0684 -0.8566  1.1306
  186POPC  H11S21347   2.275   4.098   5.917 -0.2604 -0.6472  0.2001
  186POPC  C21221348   2.143   4.168   5.756 -0.4346 -0.0739  0.0680
  186POPC  H12R21349   2.210   4.256   5.759 -2.0916  1.2858 -1.3198
  186POPC  H12S21350   2.052   4.193   5.814  0.2814 -1.6167  2.0149
  186POPC  C21321351   2.098   4.121   5.620 -0.0028 -0.4150  0.1641
  186POPC  H13R21352   2.043   4.209   5.579  0.6919  1.0538  2.2255
  186POPC  H13S21353   2.024   4.038   5.627 -1.1841  0.4341 -1.4977
  186POPC  C21421354   2.211   4.072   5.521 -0.7559  0.1290  0.2502
  186POPC  H14R21355   2.262   3.988   5.573  1.2274  0.6082 -0.8400
  186POPC  H14S21356   2.290   4.148   5.509 -0.0358 -0.6788 -0.2707
  186POPC  C21521357   2.159   4.027   5.384  0.4072  0.2534 -0.2370
  186POPC  H15R21358   2.232   4.059   5.307 -0.4596  1.8338 -0.4291
  186POPC  H15S21359   2.062   4.077   5.360 -0.0650 -0.5570 -0.0538
  186POPC  C21621360   2.138   3.874   5.371 -0.1038 -0.1984  0.4196
  186POPC  H16R21361   2.052   3.846   5.435  0.0035 -0.2248  0.5527
  186POPC  H16S21362   2.231   3.815   5.384 -0.0102 -0.3669 -0.8493
  186POPC  C21721363   2.098   3.843   5.221  0.1741  0.9310 -0.6456
  186POPC  H17R21364   2.173   3.887   5.152  1.6398 -0.1008  0.2260
  186POPC  H17S21365   2.000   3.894   5.211  0.4732  1.5793 -0.2826
  186POPC  C21821366   2.079   3.693   5.196 -0.3740  0.2330 -0.3552
  186POPC  H18R21367   2.178   3.642   5.197 -0.6303 -0.2776  0.2620
  186POPC  H18S21368   2.037   3.685   5.094  1.5188  1.0236 -1.2524
  186POPC  H18T21369   2.004   3.661   5.272  1.3111 -0.4153  1.1297
  186POPC   C3321370   2.264   4.482   6.751 -0.2941  0.1988 -0.7392
  186POPC   H3X21371   2.192   4.566   6.766 -1.9494 -1.4394  1.1088
  186POPC   H3Y21372   2.204   4.392   6.728  0.5771 -0.5151 -0.2919
  186POPC   C3421373   2.358   4.488   6.633 -0.5932  0.1853 -0.6513
  186POPC   H4X21374   2.456   4.436   6.639 -0.1454  0.9937 -0.7609
  186POPC   H4Y21375   2.406   4.588   6.623  1.9414 -0.8560  0.2337
  186POPC   C3521376   2.294   4.456   6.500  0.4936 -0.1462 -0.0565
  186POPC   H5X21377   2.210   4.528   6.484  0.2999 -0.1571  0.8573
  186POPC   H5Y21378   2.254   4.354   6.519  2.4674 -1.8033 -3.6284
  186POPC   C3621379   2.389   4.468   6.385  0.0617  0.0612 -0.1216
  186POPC   H6X21380   2.482   4.407   6.393  2.3852  3.5254  1.9733
  186POPC   H6Y21381   2.437   4.568   6.392  2.5491 -1.0359 -0.3004
  186POPC   C3721382   2.315   4.441   6.253 -0.7209  0.4610  0.7645
  186POPC   H7X21383   2.221   4.499   6.252 -2.1596 -1.7458  0.3349
  186POPC   H7Y21384   2.275   4.339   6.237 -2.1073  1.2524 -1.3059
  186POPC   C3821385   2.403   4.487   6.132  0.2058 -0.1359  0.0795
  186POPC   H8X21386   2.492   4.419   6.133 -0.6129 -1.2463  2.1956
  186POPC   H8Y21387   2.429   4.595   6.133 -0.6420  0.0968 -1.1738
  186POPC   C3921388   2.335   4.478   5.997  0.9163 -0.9501  0.0964
  186POPC   H9X21389   2.255   4.553   5.978  0.4629 -1.9413 -2.2052
  186POPC   H9Y21390   2.289   4.378   5.990 -1.0095 -0.2187  1.5079
  186POPC  C31021391   2.442   4.502   5.883 -0.2019  0.8907  0.1343
  186POPC  H10X21392   2.389   4.468   5.791  1.5543 -1.1525 -0.2008
  186POPC  H10Y21393   2.520   4.425   5.895 -0.3980  0.7048  0.2094
  186POPC  C31121394   2.503   4.643   5.867 -0.0597 -0.8922  0.0408
  186POPC  H11X21395   2.559   4.669   5.960  2.2726 -3.5141 -0.4672
  186POPC  H11Y21396   2.428   4.722   5.846  0.6709 -0.8630 -2.8755
  186POPC  C31221397   2.588   4.649   5.741 -0.1251 -0.1215  0.0560
  186POPC  H12X21398   2.541   4.598   5.654  0.0383 -2.9134  1.4761
  186POPC  H12Y21399   2.690   4.611   5.760  0.7625  0.7744 -2.5466
  186POPC  C31321400   2.599   4.797   5.689  0.4456  0.4723  0.0590
  186POPC  H13X21401   2.651   4.855   5.768  2.0043 -1.0314  0.1971
  186POPC  H13Y21402   2.499   4.840   5.668  0.0021 -1.1485 -1.3930
  186POPC  C31421403   2.675   4.806   5.555 -0.2431 -0.5161 -0.4082
  186POPC  H14X21404   2.627   4.726   5.494 -2.0693 -1.3600  1.9579
  186POPC  H14Y21405   2.782   4.781   5.573 -0.0013  0.4497 -0.4861
  186POPC  C31521406   2.658   4.940   5.476 -0.2064  0.4043 -0.3017
  186POPC  H15X21407   2.550   4.943   5.450 -0.0093  0.0942 -1.2179
  186POPC  H15Y21408   2.710   4.922   5.379 -0.6279 -1.7681 -0.1755
  186POPC  C31621409   2.723   5.070   5.528  0.2090 -0.0605 -0.3677
  186POPC  H16X21410   2.750   5.151   5.458  0.4614  3.8892  3.8504
  186POPC  H16Y21411   2.814   5.051   5.588  0.0223 -1.3719 -0.4505
  186POPC  H16Z21412   2.653   5.114   5.602  3.2551  1.2752  1.8873
  187POPC     N21413   5.139   5.946   3.232 -0.3627  0.5529  0.4342
  187POPC   C1221414   5.100   5.946   3.377 -0.7975  0.6897  0.1866
  187POPC  H12A21415   5.097   6.047   3.416  0.5075  0.8043  0.0483
  187POPC  H12B21416   5.184   5.903   3.431  0.4668  0.1071 -2.1275
  187POPC   C1321417   5.258   6.042   3.226  0.2050  0.4722  0.1055
  187POPC  H13A21418   5.243   6.140   3.268 -0.8426 -0.6093  2.4913
  187POPC  H13B21419   5.332   5.991   3.286  0.7699 -0.5721 -1.4216
  187POPC  H13C21420   5.298   6.039   3.126 -1.4470 -0.7234 -0.5659
  187POPC   C1421421   5.179   5.809   3.186  0.0392 -0.2609 -0.1935
  187POPC  H14A21422   5.167   5.804   3.079 -1.0089 -1.5214 -0.0487
  187POPC  H14B21423   5.277   5.778   3.220 -0.2306 -1.0493 -0.1205
  187POPC  H14C21424   5.102   5.743   3.224  0.0363 -0.9839 -1.3937
  187POPC   C1521425   5.031   5.999   3.147  0.0873 -0.1210  0.2672
  187POPC  H15A21426   5.001   6.101   3.167 -0.1400  0.5895 -3.0018
  187POPC  H15B21427   4.940   5.943   3.160 -0.6534  0.9075 -0.3184
  187POPC  H15C21428   5.058   5.995   3.042 -0.0653  3.7573 -0.0653
  187POPC   C1121429   4.970   5.871   3.418 -0.0860  0.2248  0.5236
  187POPC  H11A21430   4.881   5.928   3.382 -0.5986 -2.5028 -3.1012
  187POPC  H11B21431   4.958   5.870   3.529 -1.5235  0.4991  0.3900
  187POPC     P21432   4.850   5.692   3.283  0.0964  0.0019  0.2136
  187POPC   O1321433   4.866   5.546   3.256 -0.2745 -0.3647  0.0363
  187POPC   O1421434   4.828   5.779   3.168 -0.9015 -0.7949  0.1888
  187POPC   O1221435   4.982   5.739   3.363  0.2588  0.4260 -0.5803
  187POPC   O1121436   4.741   5.721   3.390 -0.0535  0.3300  0.4034
  187POPC    C121437   4.744   5.656   3.523 -0.6270  0.1752 -0.1917
  187POPC    HA21438   4.850   5.660   3.555 -0.7050  0.4090  0.0413
  187POPC    HB21439   4.706   5.552   3.513 -0.4319  0.1321 -0.4778
  187POPC    C221440   4.651   5.744   3.613  0.5001  0.5972  0.6786
  187POPC    HS21441   4.686   5.849   3.603  1.8566  0.3566  2.4342
  187POPC   O2121442   4.650   5.697   3.754 -0.4103  0.0700 -0.0275
  187POPC   C2121443   4.743   5.759   3.822  0.1356  0.6861 -0.2656
  187POPC   O2221444   4.835   5.821   3.765  0.7681 -0.4642 -0.6597
  187POPC   C2221445   4.725   5.729   3.973 -0.2620 -0.2453  0.0931
  187POPC   H2R21446   4.688   5.625   3.989 -0.6091 -0.3814 -1.4216
  187POPC   H2S21447   4.657   5.801   4.023  1.9834  1.1435  1.2770
  187POPC    C321448   4.509   5.756   3.555  0.0491  0.2232  0.0908
  187POPC    HX21449   4.484   5.651   3.527 -1.9967  1.3041 -2.5928
  187POPC    HY21450   4.517   5.820   3.465 -0.2650 -0.0741 -0.1488
  187POPC   O3121451   4.415   5.806   3.647 -0.3377 -0.1212 -0.1158
  187POPC   C3121452   4.336   5.717   3.716  0.2360 -0.7704  0.5259
  187POPC   O3221453   4.325   5.599   3.688  0.3007  0.0059 -0.2087
  187POPC   C3221454   4.269   5.798   3.828 -0.2576 -0.0783  0.1389
  187POPC   H2X21455   4.160   5.809   3.810 -0.3038  0.6662  0.8055
  187POPC   H2Y21456   4.321   5.897   3.833  1.8137 -0.9847 -1.6892
  187POPC   C2321457   4.859   5.743   4.052  0.1118 -0.2081 -0.1278
  187POPC   H3R21458   4.910   5.839   4.033 -2.2356  1.6258  2.1074
  187POPC   H3S21459   4.920   5.651   4.040 -0.0651 -0.3608  0.1209
  187POPC   C2421460   4.827   5.760   4.206 -0.2239 -0.6304  0.3462
  187POPC   H4R21461   4.787   5.668   4.254  1.1850 -0.0956  2.7281
  187POPC   H4S21462   4.755   5.844   4.215  0.2866 -0.2374  0.7838
  187POPC   C2521463   4.950   5.796   4.282  0.0251  0.0828  0.0202
  187POPC   H5R21464   4.969   5.904   4.297 -4.1749  0.4698  5.9267
  187POPC   H5S21465   5.024   5.738   4.224 -0.3778  1.9027 -2.4534
  187POPC   C2621466   4.949   5.739   4.422  0.0493  0.1494 -0.0692
  187POPC   H6R21467   5.053   5.756   4.459  0.6675 -0.7789 -1.3000
  187POPC   H6S21468   4.936   5.629   4.429 -0.8730  0.1828 -0.9335
  187POPC   C2721469   4.844   5.800   4.515  0.6670 -0.5622 -0.0802
  187POPC   H7R21470   4.747   5.766   4.473  1.1512 -0.6433 -1.1923
  187POPC   H7S21471   4.835   5.909   4.494 -0.1997 -0.7173 -0.5775
  187POPC   C2821472   4.853   5.764   4.664  0.1477 -0.0388 -0.1490
  187POPC   H8R21473   4.853   5.653   4.673 -2.5035 -0.1523 -0.8713
  187POPC   H8S21474   4.763   5.800   4.717  1.1897  1.3223  0.7546
  187POPC   C2921475   4.975   5.814   4.742  1.0751 -0.9298  0.1177
  187POPC   H9121476   5.063   5.810   4.677  1.3161  0.5355  0.3256
  187POPC  C21021477   4.978   5.848   4.866 -0.2528 -0.3197  0.5378
  187POPC  H10121478   5.077   5.859   4.912  0.8394 -3.0010 -0.9624
  187POPC  C21121479   4.868   5.848   4.965  0.9956  0.4034 -0.6821
  187POPC  H11R21480   4.811   5.753   4.963  0.0040  0.8662  1.6261
  187POPC  H11S21481   4.794   5.929   4.947 -0.8946 -0.6063  1.9318
  187POPC  C21221482   4.902   5.865   5.112 -0.4433  0.2057  0.2351
  187POPC  H12R21483   4.923   5.970   5.143  0.6223 -0.0263  0.3516
  187POPC  H12S21484   4.993   5.806   5.136 -0.8232 -0.3735  0.2637
  187POPC  C21321485   4.788   5.826   5.203  0.4301  0.2572  0.4517
  187POPC  H13R21486   4.757   5.720   5.193  1.7263 -0.0829 -0.2185
  187POPC  H13S21487   4.704   5.897   5.184  1.0454  1.5066  2.1264
  187POPC  C21421488   4.806   5.858   5.352 -0.4359 -0.2680  0.1644
  187POPC  H14R21489   4.854   5.959   5.360  0.3089 -0.6790  1.1719
  187POPC  H14S21490   4.878   5.786   5.396 -0.9234 -0.6057  0.4040
  187POPC  C21521491   4.670   5.841   5.425  0.3829  0.2840  0.0198
  187POPC  H15R21492   4.638   5.735   5.424 -1.6230  0.8612 -1.1706
  187POPC  H15S21493   4.588   5.894   5.373  1.0134 -0.9215 -2.3447
  187POPC  C21621494   4.678   5.880   5.574 -0.3416  0.1513  0.3227
  187POPC  H16R21495   4.748   5.816   5.632  1.6762  0.0418 -2.0451
  187POPC  H16S21496   4.580   5.857   5.620 -1.2173 -0.0119 -1.5128
  187POPC  C21721497   4.696   6.032   5.588 -0.0752 -0.8808 -0.5017
  187POPC  H17R21498   4.783   6.073   5.534 -1.6008  0.7727 -1.8066
  187POPC  H17S21499   4.705   6.056   5.697 -2.2524  1.2794 -0.7167
  187POPC  C21821500   4.569   6.110   5.557  0.2263  0.6203 -0.3922
  187POPC  H18R21501   4.486   6.063   5.614  1.6195  0.9780  2.1183
  187POPC  H18S21502   4.559   6.109   5.446  0.4829 -2.0647 -0.4638
  187POPC  H18T21503   4.580   6.216   5.588  1.2120  0.0815  1.2205
  187POPC   C3321504   4.296   5.720   3.963  0.2698  0.2999 -0.1280
  187POPC   H3X21505   4.406   5.707   3.969  0.2358 -0.4772 -0.9678
  187POPC   H3Y21506   4.255   5.616   3.955 -0.1245  0.4178  0.2580
  187POPC   C3421507   4.226   5.787   4.081 -0.6471 -0.0766 -0.5991
  187POPC   H4X21508   4.116   5.769   4.074 -0.5868 -0.6327 -0.2508
  187POPC   H4Y21509   4.241   5.895   4.065 -0.4413 -0.0016  0.0540
  187POPC   C3521510   4.294   5.751   4.223  0.2429 -0.1372  0.1897
  187POPC   H5X21511   4.310   5.642   4.233 -1.1176 -0.3140  0.6391
  187POPC   H5Y21512   4.207   5.774   4.288 -0.7848  1.4998 -1.6405
  187POPC   C3621513   4.415   5.830   4.264 -0.5512 -0.2375  0.5335
  187POPC   H6X21514   4.399   5.937   4.289  0.4197  0.1508 -0.4270
  187POPC   H6Y21515   4.484   5.814   4.179 -1.0642 -1.8193  0.3930
  187POPC   C3721516   4.480   5.753   4.383  0.6765 -0.4940 -0.1677
  187POPC   H7X21517   4.587   5.783   4.376  0.1029  1.4699 -1.5721
  187POPC   H7Y21518   4.458   5.645   4.379  0.0534 -0.4293  1.1633
  187POPC   C3821519   4.435   5.804   4.527 -0.3079  0.0491  0.2613
  187POPC   H8X21520   4.325   5.815   4.541 -0.0634 -0.0439  2.5985
  187POPC   H8Y21521   4.482   5.900   4.556  1.9454 -0.7885 -0.4241
  187POPC   C3921522   4.475   5.695   4.624  0.0857  0.6724  0.2994
  187POPC   H9X21523   4.583   5.671   4.617  0.7150  2.7026  1.9934
  187POPC   H9Y21524   4.431   5.601   4.585 -0.8206  1.9608 -1.9935
  187POPC  C31021525   4.445   5.717   4.765  0.1754  0.3478 -0.2026
  187POPC  H10X21526   4.336   5.704   4.783  0.5703 -0.8649  1.5940
  187POPC  H10Y21527   4.475   5.822   4.785  2.3017  0.2267 -2.2889
  187POPC  C31121528   4.525   5.614   4.853  0.1345  0.1478  0.2185
  187POPC  H11X21529   4.632   5.613   4.823  0.1049 -1.2602  0.0861
  187POPC  H11Y21530   4.489   5.509   4.846 -0.3113  0.3458 -0.5243
  187POPC  C31221531   4.526   5.653   5.002 -0.3025  0.0959 -0.2551
  187POPC  H12X21532   4.566   5.757   5.009 -0.9261  0.4441 -1.5043
  187POPC  H12Y21533   4.584   5.579   5.061 -1.7440  0.3977  1.6504
  187POPC  C31321534   4.377   5.657   5.052 -1.0411 -0.2772 -0.5191
  187POPC  H13X21535   4.323   5.561   5.035 -0.8593 -0.6699  0.9775
  187POPC  H13Y21536   4.310   5.732   5.004 -2.4601 -0.1535  1.5308
  187POPC  C31421537   4.378   5.659   5.210  0.2933  0.0001  0.2865
  187POPC  H14X21538   4.418   5.756   5.247  1.1163 -0.2339  0.0303
  187POPC  H14Y21539   4.427   5.566   5.248 -2.0864 -1.3513  0.2363
  187POPC  C31521540   4.233   5.627   5.260  0.6063  0.2331 -0.5509
  187POPC  H15X21541   4.197   5.532   5.216  0.1454  0.8044 -1.4620
  187POPC  H15Y21542   4.166   5.710   5.228 -0.9533 -0.7586  0.0626
  187POPC  C31621543   4.220   5.617   5.410 -0.0616 -0.0350  0.0477
  187POPC  H16X21544   4.117   5.587   5.438  0.7234 -3.0228  0.0022
  187POPC  H16Y21545   4.223   5.718   5.457 -0.8315  0.8961 -1.7697
  187POPC  H16Z21546   4.293   5.557   5.468 -0.2489 -0.1473  0.1661
  188POPC     N21547   5.157   5.399   2.966 -0.1595 -0.8263  0.4691
  188POPC   C1221548   5.090   5.388   3.099  0.1064 -0.3851 -0.7337
  188POPC  H12A21549   5.029   5.299   3.105 -1.4588  0.6048 -1.1004
  188POPC  H12B21550   5.024   5.472   3.114  0.3317 -0.3144 -0.1176
  188POPC   C1321551   5.257   5.291   2.953 -0.0119  0.5564 -0.0376
  188POPC  H13A21552   5.211   5.194   2.961  0.2601  0.2211 -2.0494
  188POPC  H13B21553   5.311   5.291   2.859  1.2698 -1.0790  0.6603
  188POPC  H13C21554   5.339   5.306   3.022 -0.3823  0.3785  0.4431
  188POPC   C1421555   5.056   5.388   2.855  0.7274 -0.0101 -0.5161
  188POPC  H14A21556   4.975   5.454   2.879  1.6039  0.5471  1.0886
  188POPC  H14B21557   5.108   5.410   2.763  2.4370 -3.0157 -0.4163
  188POPC  H14C21558   5.017   5.288   2.847  0.4283  0.1350 -0.8605
  188POPC   C1521559   5.218   5.535   2.941  0.3422  0.7743  0.2389
  188POPC  H15A21560   5.296   5.554   3.013  2.2739 -1.0729 -1.2613
  188POPC  H15B21561   5.142   5.612   2.931  1.0109  1.2410 -1.7320
  188POPC  H15C21562   5.269   5.528   2.846 -0.0980  0.9075 -0.0112
  188POPC   C1121563   5.176   5.369   3.228 -0.1492 -0.0159  0.4024
  188POPC  H11A21564   5.126   5.414   3.316 -0.6443  4.5713 -1.9461
  188POPC  H11B21565   5.265   5.435   3.217 -1.7069  1.8214 -2.0452
  188POPC     P21566   5.127   5.107   3.265  0.1452 -0.5060  0.4082
  188POPC   O1321567   5.126   5.034   3.136  0.0882 -0.1544 -0.2118
  188POPC   O1421568   5.001   5.153   3.326  0.2685 -0.4792  0.1144
  188POPC   O1221569   5.218   5.233   3.239 -0.1518  0.0385  0.5753
  188POPC   O1121570   5.203   5.026   3.374 -0.6024  0.2834  0.6967
  188POPC    C121571   5.270   5.108   3.478  0.2502  0.6156  0.3294
  188POPC    HA21572   5.199   5.144   3.555 -0.4561  1.4347 -0.6854
  188POPC    HB21573   5.334   5.189   3.438  0.0027  2.2450  2.9722
  188POPC    C221574   5.365   5.029   3.578  0.8139  0.3456  0.7647
  188POPC    HS21575   5.426   4.963   3.513 -0.8014  0.7716 -1.2809
  188POPC   O2121576   5.291   4.949   3.660  0.2343 -0.4446 -1.4818
  188POPC   C2121577   5.344   4.831   3.702  1.0280  0.3986  0.4910
  188POPC   O2221578   5.456   4.791   3.679 -0.3702 -0.0483 -0.1034
  188POPC   C2221579   5.243   4.758   3.792  1.0428 -0.3716 -0.3962
  188POPC   H2R21580   5.140   4.775   3.756  0.8779  0.1808  0.3330
  188POPC   H2S21581   5.251   4.826   3.879 -1.4220  1.3529 -1.4110
  188POPC    C321582   5.460   5.123   3.654 -0.2345 -0.0722  0.2553
  188POPC    HX21583   5.525   5.171   3.578 -0.0003 -2.5551 -1.2230
  188POPC    HY21584   5.522   5.062   3.723 -1.1084 -0.8804  0.3439
  188POPC   O3121585   5.385   5.218   3.726 -0.2921  0.1560  0.5013
  188POPC   C3121586   5.350   5.194   3.847 -0.2958  0.4361  0.0115
  188POPC   O3221587   5.400   5.109   3.917  0.6684  0.1118 -1.0625
  188POPC   C3221588   5.221   5.281   3.887 -0.1712 -0.3545  0.4689
  188POPC   H2X21589   5.152   5.278   3.800 -0.1453 -0.1020  0.4382
  188POPC   H2Y21590   5.258   5.386   3.886 -1.0488 -0.0274 -1.3726
  188POPC   C2321591   5.265   4.618   3.851 -0.0486 -0.2952 -1.2589
  188POPC   H3R21592   5.370   4.623   3.889 -1.1493  2.3771  1.8819
  188POPC   H3S21593   5.240   4.543   3.773 -0.2861 -0.7942 -0.7117
  188POPC   C2421594   5.181   4.599   3.980  0.3967  0.1768 -0.1034
  188POPC   H4R21595   5.075   4.616   3.953 -0.1879  1.6066  2.7484
  188POPC   H4S21596   5.202   4.680   4.052  0.7829  0.0169 -0.0340
  188POPC   C2521597   5.186   4.463   4.060 -0.5747 -0.3462  0.6618
  188POPC   H5R21598   5.142   4.394   3.984 -0.2909 -1.8921  1.8336
  188POPC   H5S21599   5.127   4.472   4.153  2.0535 -2.2291  2.6578
  188POPC   C2621600   5.328   4.414   4.092  0.2171 -0.2721 -0.6507
  188POPC   H6R21601   5.390   4.502   4.119 -0.4309 -0.3134  1.1705
  188POPC   H6S21602   5.380   4.385   3.999  0.2594 -1.9869 -0.1212
  188POPC   C2721603   5.341   4.302   4.193 -0.4920 -0.0502  0.0355
  188POPC   H7R21604   5.446   4.265   4.191 -0.0605  1.1231  0.0424
  188POPC   H7S21605   5.283   4.215   4.156 -2.1907  0.5980  1.0535
  188POPC   C2821606   5.312   4.349   4.333 -0.5825 -0.2484 -0.3388
  188POPC   H8R21607   5.210   4.393   4.341 -1.3881 -2.0878 -0.1300
  188POPC   H8S21608   5.382   4.429   4.365 -1.6784  1.8371 -2.7331
  188POPC   C2921609   5.330   4.239   4.429  0.5060  0.2486  0.0406
  188POPC   H9121610   5.244   4.170   4.429  0.8075 -0.2151 -2.2928
  188POPC  C21021611   5.425   4.218   4.520 -0.0714  0.6266  0.7163
  188POPC  H10121612   5.407   4.126   4.578 -0.1403 -0.8892 -1.6029
  188POPC  C21121613   5.550   4.302   4.551  0.2972  0.2202  0.5071
  188POPC  H11R21614   5.570   4.387   4.481  1.6474  1.3163  2.1326
  188POPC  H11S21615   5.640   4.238   4.544  0.5366  0.6080 -0.0275
  188POPC  C21221616   5.528   4.355   4.695  0.0736  0.2518  0.3105
  188POPC  H12R21617   5.517   4.267   4.763 -3.4686 -0.2398 -0.6661
  188POPC  H12S21618   5.434   4.413   4.681  0.4957  0.4241 -2.4769
  188POPC  C21321619   5.635   4.456   4.742 -0.2625 -0.3227  0.2387
  188POPC  H13R21620   5.636   4.544   4.675 -0.8555 -1.3093 -1.1308
  188POPC  H13S21621   5.731   4.400   4.736 -0.2002 -0.3133  1.0185
  188POPC  C21421622   5.595   4.500   4.885 -0.2920  0.0274 -0.2866
  188POPC  H14R21623   5.573   4.423   4.961  1.5263  0.8179  1.1145
  188POPC  H14S21624   5.499   4.556   4.885 -0.7405 -0.6314  2.2451
  188POPC  C21521625   5.703   4.577   4.957 -0.6286 -0.5315  0.4523
  188POPC  H15R21626   5.720   4.681   4.922 -2.6483 -0.2737  0.0999
  188POPC  H15S21627   5.797   4.523   4.932  0.9933  1.4693  1.8887
  188POPC  C21621628   5.694   4.583   5.106 -0.3305  0.1888 -0.4960
  188POPC  H16R21629   5.699   4.481   5.150 -1.6918 -0.3665 -1.5206
  188POPC  H16S21630   5.603   4.635   5.143  0.7434  0.9990  1.0895
  188POPC  C21721631   5.809   4.661   5.161  0.0085 -0.7931  0.0907
  188POPC  H17R21632   5.814   4.752   5.098  2.0975 -2.4239 -2.3093
  188POPC  H17S21633   5.908   4.619   5.132  0.6187  0.2378  0.6025
  188POPC  C21821634   5.802   4.676   5.317  0.1013  0.0363 -0.6449
  188POPC  H18R21635   5.704   4.722   5.342  0.5417 -0.0646  1.5070
  188POPC  H18S21636   5.880   4.743   5.360 -2.2044  1.9277  0.8176
  188POPC  H18T21637   5.806   4.572   5.357  0.0011 -0.4706 -1.9025
  188POPC   C3321638   5.150   5.246   4.018 -0.5353  0.2351  0.0746
  188POPC   H3X21639   5.217   5.206   4.097  0.7232  1.8186 -0.1429
  188POPC   H3Y21640   5.063   5.179   4.000 -2.2575  2.5425 -0.6418
  188POPC   C3421641   5.080   5.367   4.082  0.8302  0.1421 -0.2014
  188POPC   H4X21642   5.008   5.410   4.008  0.3230 -2.1838 -1.1471
  188POPC   H4Y21643   5.156   5.448   4.092 -1.0531  2.0015 -0.1585
  188POPC   C3521644   5.014   5.336   4.220  0.2064  0.3809 -0.3180
  188POPC   H5X21645   4.972   5.233   4.217 -1.3535  0.9876 -0.1008
  188POPC   H5Y21646   4.931   5.410   4.228  0.3830  0.5083  0.4486
  188POPC   C3621647   5.110   5.343   4.338  0.3276 -0.3745  0.6970
  188POPC   H6X21648   5.143   5.448   4.355  0.6475 -0.9885  5.0636
  188POPC   H6Y21649   5.201   5.283   4.319  1.3452  0.8324  1.5744
  188POPC   C3721650   5.042   5.297   4.464 -0.0425 -0.1687 -0.7391
  188POPC   H7X21651   5.030   5.188   4.478 -0.5618  0.0797  1.0309
  188POPC   H7Y21652   4.938   5.338   4.467 -0.9641 -2.3265 -1.4136
  188POPC   C3821653   5.109   5.362   4.586  0.6054 -0.1359  0.5786
  188POPC   H8X21654   5.097   5.472   4.573 -0.0967 -0.4581 -1.8829
  188POPC   H8Y21655   5.213   5.328   4.568  0.7926  0.2590  0.8868
  188POPC   C3921656   5.081   5.304   4.728  0.6403  0.5212  0.1274
  188POPC   H9X21657   5.132   5.206   4.743  0.2863  0.1734 -0.8332
  188POPC   H9Y21658   4.976   5.267   4.724  0.3435  1.4330 -0.8481
  188POPC  C31021659   5.089   5.388   4.858  0.8187 -1.0860  0.0672
  188POPC  H10X21660   5.024   5.475   4.838  0.2327 -1.8359 -1.4918
  188POPC  H10Y21661   5.193   5.424   4.877  0.1124  0.6977  0.7129
  188POPC  C31121662   5.043   5.323   4.988 -0.1356  0.6212 -0.1857
  188POPC  H11X21663   5.119   5.244   5.008  0.1924  0.8658 -0.4520
  188POPC  H11Y21664   4.944   5.273   4.990  0.1760 -0.0027  1.1455
  188POPC  C31221665   5.057   5.414   5.112  0.7379  0.5546  0.3336
  188POPC  H12X21666   5.009   5.510   5.082  2.0420  1.1982  0.2363
  188POPC  H12Y21667   5.162   5.434   5.143  0.2865 -0.0075  2.3713
  188POPC  C31321668   4.983   5.352   5.230  0.1679 -0.3915  0.4502
  188POPC  H13X21669   5.042   5.263   5.259  0.9992 -0.7395 -2.0502
  188POPC  H13Y21670   4.887   5.307   5.195 -0.7815  1.0118  1.1744
  188POPC  C31421671   4.963   5.442   5.349  0.6374  0.3921  0.0463
  188POPC  H14X21672   4.878   5.392   5.400  0.5010 -0.4646 -0.9798
  188POPC  H14Y21673   4.938   5.544   5.313  1.2609 -0.1577 -2.0775
  188POPC  C31521674   5.083   5.456   5.451 -0.2279 -0.5166 -0.5502
  188POPC  H15X21675   5.039   5.524   5.528 -0.1733 -1.0024 -0.0848
  188POPC  H15Y21676   5.165   5.513   5.402 -1.4253  1.6999 -0.0941
  188POPC  C31621677   5.118   5.325   5.512  0.0333 -0.1468 -0.1183
  188POPC  H16X21678   5.182   5.342   5.601  0.8937  0.7637 -0.8971
  188POPC  H16Y21679   5.174   5.262   5.439  2.1655  1.0109  0.4548
  188POPC  H16Z21680   5.030   5.273   5.557 -0.4526  1.0549  0.3421
  189SAPI   C1221681   0.132   5.077   8.073  0.5613  0.1257 -0.1920
  189SAPI    H221682   0.031   5.031   8.064 -0.0538  1.2212  0.7392
  189SAPI    O221683   0.124   5.220   8.083 -0.1004 -0.7520 -0.2594
  189SAPI   HO221684   0.066   5.250   8.013 -0.6970  2.0811  1.3291
  189SAPI   C1321685   0.212   5.029   8.193 -0.8421 -0.1234  0.4005
  189SAPI    H321686   0.232   4.922   8.168  2.2086  0.1862  1.1513
  189SAPI    O321687   0.137   5.037   8.314  0.0775 -0.2480 -0.5447
  189SAPI   HO321688   0.073   4.966   8.316 -0.8527  0.5723  0.0310
  189SAPI   C1421689   0.353   5.091   8.196 -0.5106 -0.2516  0.7086
  189SAPI    H421690   0.329   5.193   8.233  2.0627  0.7125 -0.0567
  189SAPI    O421691   0.444   5.033   8.293 -0.1535 -0.3764 -0.1203
  189SAPI   HO421692   0.490   5.094   8.350  0.8732 -2.5114  1.4903
  189SAPI   C1521693   0.422   5.119   8.066  0.0030 -0.3507  0.7974
  189SAPI    H521694   0.511   5.053   8.056  1.2324  1.4505 -0.8772
  189SAPI    O521695   0.493   5.242   8.067  0.5150  0.4644 -0.0317
  189SAPI   HO521696   0.432   5.311   8.039 -0.4853 -0.2939  0.2041
  189SAPI   C1621697   0.342   5.087   7.933 -0.0926 -1.2240 -0.2364
  189SAPI    H621698   0.333   5.188   7.886 -2.3599 -0.9793  0.5985
  189SAPI    O621699   0.432   5.012   7.847  0.1634  0.4195 -0.4749
  189SAPI   HO621700   0.457   4.937   7.901 -1.4277  1.6208  2.0828
  189SAPI   C1121701   0.202   5.032   7.950 -0.3771  0.3469  0.1276
  189SAPI    H121702   0.229   4.927   7.973  2.3937  0.8852 -0.2117
  189SAPI     P21703   0.031   4.936   7.773 -0.3921  0.1159 -0.0385
  189SAPI   O1321704  -0.066   4.998   7.685  0.0675  0.0109  0.1602
  189SAPI   O1421705  -0.016   4.852   7.885 -0.1182  1.1965 -0.2290
  189SAPI   O1221706   0.125   5.056   7.833  0.4982  0.3155 -0.4757
  189SAPI   O1121707   0.136   4.853   7.688 -0.4043  0.2334 -0.5149
  189SAPI    C121708   0.213   4.925   7.592  0.8227  0.3777 -0.9590
  189SAPI    HA21709   0.202   5.035   7.595  0.5875  0.3405  1.5466
  189SAPI    HB21710   0.319   4.895   7.604  0.4056 -2.4991 -3.2372
  189SAPI    C221711   0.173   4.898   7.445  0.6637 -0.2502  0.0037
  189SAPI    HS21712   0.067   4.933   7.440  1.1119  1.0920 -0.8258
  189SAPI   O2121713   0.186   4.759   7.401 -0.4272  0.1194 -0.3094
  189SAPI   C2121714   0.100   4.724   7.307  0.4502 -0.3298 -0.2618
  189SAPI   O2221715   0.012   4.799   7.258 -0.2368  0.1617 -0.5991
  189SAPI   C2221716   0.131   4.583   7.263  0.1420 -0.4816  0.2922
  189SAPI   H2R21717   0.212   4.540   7.326  1.2027  0.4189 -0.4054
  189SAPI   H2S21718   0.039   4.522   7.274  0.8767 -1.1990  3.0083
  189SAPI    C321719   0.244   4.996   7.348 -0.3498  0.1965  0.8954
  189SAPI    HX21720   0.348   4.958   7.341  0.1068  1.6275 -0.9007
  189SAPI    HY21721   0.245   5.098   7.393 -0.2997  0.9892 -0.8276
  189SAPI   O3121722   0.194   4.996   7.212 -0.1022  0.0367 -0.4910
  189SAPI   C3121723   0.084   5.074   7.198  0.0142  0.0360  0.4331
  189SAPI   O3221724   0.032   5.149   7.280 -0.3823 -0.0467 -0.2093
  189SAPI   C3221725   0.057   5.068   7.053 -0.0233 -0.5184  0.1191
  189SAPI   H2X21726  -0.018   4.987   7.038 -0.6146  0.1631 -0.7051
  189SAPI   H2Y21727   0.154   5.048   7.003 -1.1125 -0.5296 -2.1250
  189SAPI   C2321728   0.166   4.565   7.114 -0.6414  0.0133 -0.3401
  189SAPI   H3R21729   0.075   4.564   7.051 -0.8638  1.3818 -0.0746
  189SAPI   H3S21730   0.211   4.464   7.107 -0.3038  0.2159 -1.2979
  189SAPI   C2421731   0.281   4.661   7.073 -0.5749  0.6579 -0.3936
  189SAPI   H4R21732   0.357   4.664   7.155  0.2029  0.3459 -1.0962
  189SAPI   H4S21733   0.234   4.762   7.076  0.2021  1.0561  2.8377
  189SAPI   C2521734   0.350   4.630   6.938  0.2660 -0.6399 -0.9797
  189SAPI   H5R21735   0.427   4.552   6.936 -0.9606 -1.9283 -0.2390
  189SAPI   C2621736   0.340   4.707   6.831  0.4221 -0.5709  0.6455
  189SAPI   H6R21737   0.405   4.690   6.744  0.3495  0.0640  0.4643
  189SAPI   C2721738   0.237   4.812   6.816  0.3603  0.1860  0.9187
  189SAPI   H7R21739   0.273   4.904   6.867 -1.0326  0.3320  1.6676
  189SAPI   H7S21740   0.135   4.794   6.856 -0.7826 -0.8841 -2.1613
  189SAPI   C2821741   0.209   4.857   6.678  0.7186 -0.0260  0.7894
  189SAPI   H8R21742   0.303   4.878   6.626 -0.2830  3.0816  0.0065
  189SAPI   C2921743   0.091   4.845   6.609 -0.2193 -0.4059 -0.6337
  189SAPI   H9R21744   0.080   4.887   6.508  1.6092  0.5531 -0.4797
  189SAPI  C21021745  -0.044   4.807   6.665  0.0444  0.0278 -1.0655
  189SAPI  H10R21746  -0.124   4.867   6.617  1.4492 -0.3253 -4.0909
  189SAPI  H10S21747  -0.042   4.862   6.761  1.1365  0.4703 -1.3271
  189SAPI  C21121748  -0.086   4.662   6.675 -0.2306 -1.0688  0.5435
  189SAPI  H11R21749  -0.018   4.604   6.740 -0.1551  0.9871  2.3938
  189SAPI  C21221750  -0.192   4.596   6.620 -1.0533 -0.6300 -0.0412
  189SAPI  H12R21751  -0.196   4.488   6.641 -0.8723 -0.8051 -0.8816
  189SAPI  C21321752  -0.302   4.648   6.520  0.2916 -0.3653 -0.8766
  189SAPI  H13R21753  -0.374   4.713   6.574 -0.3819 -1.3720 -0.5385
  189SAPI  H13S21754  -0.362   4.560   6.487  0.5291 -0.5906 -0.7074
  189SAPI  C21421755  -0.261   4.730   6.406  0.4656 -0.0424 -0.2475
  189SAPI  H14R21756  -0.175   4.795   6.428 -1.0204  2.5501 -1.6471
  189SAPI  C21521757  -0.324   4.723   6.287 -0.1034 -0.0934 -0.0386
  189SAPI  H15R21758  -0.279   4.787   6.209 -0.6486  0.7767  0.3465
  189SAPI  C21621759  -0.435   4.631   6.242 -0.2768  0.5810  0.1439
  189SAPI  H16R21760  -0.512   4.694   6.192  1.1921  1.8774 -0.5652
  189SAPI  H16S21761  -0.474   4.565   6.322  1.6655  0.1877  0.8124
  189SAPI  C21721762  -0.398   4.530   6.132 -0.3784  0.7911 -0.0677
  189SAPI  H17R21763  -0.490   4.484   6.089 -0.2033 -0.1561  0.5429
  189SAPI  H17S21764  -0.338   4.447   6.176 -0.5227 -0.3915 -1.9726
  189SAPI  C21821765  -0.316   4.584   6.010 -0.3736  0.3449  0.5444
  189SAPI  H18R21766  -0.209   4.603   6.031 -0.2473  1.3665 -0.8975
  189SAPI  H18S21767  -0.347   4.683   5.970  0.7454  0.1689 -0.8648
  189SAPI  C21921768  -0.311   4.488   5.878 -0.2535 -0.3939 -0.1661
  189SAPI  H19R21769  -0.406   4.509   5.823 -0.1521 -0.6622 -0.4464
  189SAPI  H19S21770  -0.310   4.380   5.904 -0.3580 -0.6005 -0.9834
  189SAPI  C22021771  -0.196   4.522   5.790 -0.4266  0.3290  0.2670
  189SAPI  H20R21772  -0.194   4.454   5.703  0.4365 -0.7822  1.1220
  189SAPI  H20S21773  -0.102   4.512   5.849 -0.5814  0.6514  0.5746
  189SAPI  H20T21774  -0.200   4.628   5.757 -0.8467  1.3117  3.1683
  189SAPI   C3321775  -0.016   5.183   6.978 -0.1169  0.1231 -0.2211
  189SAPI   H3X21776   0.040   5.278   6.990  1.4051 -0.7994  0.3052
  189SAPI   H3Y21777  -0.120   5.204   7.012  0.9344  1.6537  2.3068
  189SAPI   C3421778  -0.014   5.169   6.824 -0.1619  0.4002  0.7253
  189SAPI   H4X21779  -0.088   5.090   6.799 -2.0017  0.9725  3.7409
  189SAPI   H4Y21780   0.087   5.138   6.791 -0.8037  0.5327 -1.5023
  189SAPI   C3521781  -0.040   5.306   6.755  0.5810  0.0640  0.1281
  189SAPI   H5X21782   0.033   5.372   6.806  1.4759 -0.2056 -0.7759
  189SAPI   H5Y21783  -0.148   5.328   6.768  0.7046 -0.3584  2.4143
  189SAPI   C3621784   0.004   5.315   6.607 -0.0807  1.1997 -0.5984
  189SAPI   H6X21785   0.085   5.242   6.587 -1.9877 -0.9050 -1.0655
  189SAPI   H6Y21786   0.036   5.419   6.586  2.9002  0.5509  0.2062
  189SAPI   C3721787  -0.110   5.271   6.512  0.1259 -0.3807 -0.0144
  189SAPI   H7X21788  -0.201   5.329   6.537  1.2850  0.3996  2.7707
  189SAPI   H7Y21789  -0.122   5.161   6.527 -0.3695 -0.2724  0.4198
  189SAPI   C3821790  -0.090   5.280   6.362  1.2912  0.2609 -0.6771
  189SAPI   H8X21791   0.009   5.242   6.328  0.6057  1.0149 -3.8088
  189SAPI   H8Y21792  -0.087   5.390   6.348  3.2266  0.5941  1.7505
  189SAPI   C3921793  -0.207   5.210   6.288  0.1404 -0.8443  0.2038
  189SAPI   H9X21794  -0.304   5.244   6.329  1.1560  0.1685  1.8334
  189SAPI   H9Y21795  -0.211   5.101   6.312 -0.3930 -0.9923 -0.5061
  189SAPI  C31021796  -0.206   5.215   6.135 -0.4984 -0.7266  0.7107
  189SAPI  H10X21797  -0.178   5.318   6.104 -1.8970  0.0922  2.0086
  189SAPI  H10Y21798  -0.312   5.191   6.113 -0.4659 -0.1058 -0.1740
  189SAPI  C31121799  -0.117   5.103   6.077  0.3701 -0.2769 -0.4279
  189SAPI  H11X21800  -0.158   5.007   6.115  0.3809 -1.0632 -2.2952
  189SAPI  H11Y21801  -0.012   5.113   6.112  0.6637  2.5140 -1.8469
  189SAPI  C31221802  -0.135   5.087   5.919 -0.1528  0.2760  0.0426
  189SAPI  H12X21803  -0.087   5.180   5.880 -1.6177  1.0026 -0.0917
  189SAPI  H12Y21804  -0.242   5.074   5.893 -0.7768  2.6373  1.1096
  189SAPI  C31321805  -0.057   4.969   5.858  0.3720  0.8203  0.3542
  189SAPI  H13X21806  -0.120   4.884   5.893  1.3720 -0.8730 -1.6903
  189SAPI  H13Y21807   0.042   4.945   5.903 -0.0685 -0.9413  0.4906
  189SAPI  C31421808  -0.035   4.968   5.704 -0.1180  0.2943  0.5053
  189SAPI  H14X21809  -0.123   4.963   5.637  1.4864  0.6966 -1.7527
  189SAPI  H14Y21810   0.017   4.870   5.694  0.7417  0.8331 -0.4438
  189SAPI  C31521811   0.062   5.074   5.657  0.7484 -0.8501 -0.3716
  189SAPI  H15X21812   0.115   5.112   5.747  0.1559 -0.3367 -0.2309
  189SAPI  H15Y21813   0.008   5.165   5.624 -2.3213 -2.7086 -0.8582
  189SAPI  C31621814   0.170   5.021   5.560  0.1401 -0.3391 -0.4075
  189SAPI  H16X21815   0.232   4.938   5.599  0.3360 -1.0812 -2.1950
  189SAPI  H16Y21816   0.226   5.115   5.541 -2.1123  1.7552  2.5079
  189SAPI  C31721817   0.112   4.959   5.429  0.3378  0.5911  0.3555
  189SAPI  H17X21818   0.037   5.028   5.384  1.0392 -0.4013 -2.5717
  189SAPI  H17Y21819   0.060   4.870   5.471 -0.2881  0.5652 -0.4477
  189SAPI  C31821820   0.217   4.932   5.327 -0.2936 -0.5195  0.2403
  189SAPI  H18X21821   0.303   4.868   5.358  0.5868 -0.8941 -2.6741
  189SAPI  H18Y21822   0.260   5.028   5.292 -1.0069 -0.6593 -1.0945
  189SAPI  H18Z21823   0.167   4.888   5.238 -0.3799 -0.1516  0.1044
  190SAPI   C1221824   0.818   1.493   7.560 -0.6132 -0.4926 -0.1968
  190SAPI    H221825   0.806   1.416   7.481 -0.9510 -1.4118  0.7320
  190SAPI    O221826   0.818   1.416   7.674  0.1640  0.0453 -1.1736
  190SAPI   HO221827   0.749   1.350   7.665 -0.1682  0.2005  0.0624
  190SAPI   C1321828   0.954   1.564   7.541  0.2081  0.9085 -0.0393
  190SAPI    H321829   0.944   1.626   7.450 -0.0182 -0.1970 -0.7851
  190SAPI    O321830   1.059   1.483   7.506 -0.4328  0.2848 -0.0407
  190SAPI   HO321831   1.076   1.430   7.584  0.2352  1.1157  0.4019
  190SAPI   C1421832   0.989   1.669   7.650  0.6561 -0.0444 -0.8330
  190SAPI    H421833   1.016   1.622   7.747 -0.7491  0.4384 -0.1810
  190SAPI    O421834   1.109   1.744   7.622  0.1934 -0.4999 -1.0954
  190SAPI   HO421835   1.081   1.814   7.563 -0.7969 -0.2423 -0.3442
  190SAPI   C1521836   0.874   1.757   7.684  0.1322 -0.1325 -0.1819
  190SAPI    H521837   0.885   1.844   7.616 -0.1067  2.2766  2.6670
  190SAPI    O521838   0.900   1.812   7.816  0.0144 -0.0527  0.4733
  190SAPI   HO521839   0.947   1.891   7.788 -1.5449  0.7762  0.0564
  190SAPI   C1621840   0.733   1.699   7.675 -0.1736 -0.1053 -0.6455
  190SAPI    H621841   0.717   1.643   7.769 -1.0390  0.5041 -0.4137
  190SAPI    O621842   0.633   1.804   7.672  0.7914  0.1974  0.0845
  190SAPI   HO621843   0.639   1.844   7.584 -0.1940 -1.9012 -1.0144
  190SAPI   C1121844   0.715   1.602   7.562 -0.1662 -0.0495 -0.1609
  190SAPI    H121845   0.725   1.657   7.466 -0.8086 -2.2856 -1.5799
  190SAPI     P21846   0.509   1.519   7.412 -0.0915  0.0251 -0.1266
  190SAPI   O1321847   0.507   1.653   7.363  0.8038  0.4973 -0.0729
  190SAPI   O1421848   0.381   1.445   7.427 -0.5129  0.0590  0.6751
  190SAPI   O1221849   0.590   1.528   7.556  0.3501 -0.2367 -0.2507
  190SAPI   O1121850   0.603   1.431   7.327 -0.0526 -0.3250 -0.1045
  190SAPI    C121851   0.583   1.289   7.294 -0.9835 -1.4062 -0.2865
  190SAPI    HA21852   0.599   1.223   7.382 -1.5876 -1.5724 -0.2994
  190SAPI    HB21853   0.484   1.265   7.250 -0.5467 -1.2611 -1.3822
  190SAPI    C221854   0.676   1.245   7.173  0.7986 -0.0812 -0.0959
  190SAPI    HS21855   0.778   1.224   7.212  0.9966 -1.6093 -1.3087
  190SAPI   O2121856   0.664   1.345   7.076  0.0277 -0.3552  0.2054
  190SAPI   C2121857   0.741   1.307   6.969  0.2962 -0.0453  0.1228
  190SAPI   O2221858   0.823   1.217   6.971  0.2770 -0.0148 -0.4789
  190SAPI   C2221859   0.711   1.395   6.850  0.4266  0.1195  0.5001
  190SAPI   H2R21860   0.602   1.413   6.843  0.0495 -0.9749  2.8473
  190SAPI   H2S21861   0.753   1.496   6.870  0.3250  0.0186  1.2398
  190SAPI    C321862   0.616   1.110   7.122 -0.3672 -0.2917 -0.5786
  190SAPI    HX21863   0.599   1.052   7.215 -1.8530 -0.4783 -0.9525
  190SAPI    HY21864   0.686   1.043   7.068 -0.5941 -0.5838 -0.5126
  190SAPI   O3121865   0.483   1.134   7.060  0.3079 -0.0809 -0.1539
  190SAPI   C3121866   0.476   1.090   6.935 -0.5220 -0.2024 -0.5802
  190SAPI   O3221867   0.569   1.043   6.875 -0.0265  0.0215 -0.0309
  190SAPI   C3221868   0.330   1.088   6.887 -0.1885  0.2345  0.2323
  190SAPI   H2X21869   0.265   1.078   6.977 -1.0807 -0.4985 -0.4747
  190SAPI   H2Y21870   0.304   1.005   6.817 -1.3228  0.9726 -0.2394
  190SAPI   C2321871   0.759   1.326   6.720 -0.2560 -0.0469  0.3261
  190SAPI   H3R21872   0.720   1.223   6.709  3.2861 -1.4117 -0.4641
  190SAPI   H3S21873   0.869   1.316   6.731  0.0553  2.1387 -0.1589
  190SAPI   C2421874   0.737   1.420   6.593  0.5941  0.6158 -0.2472
  190SAPI   H4R21875   0.799   1.511   6.609  2.5972 -1.0706  2.4045
  190SAPI   H4S21876   0.631   1.451   6.596  0.1830 -0.4313 -2.2106
  190SAPI   C2521877   0.794   1.340   6.483 -0.0567 -0.2886  0.5357
  190SAPI   H5R21878   0.878   1.273   6.508 -1.2545 -1.0480  2.8923
  190SAPI   C2621879   0.726   1.325   6.369  1.1016  0.1934 -0.6251
  190SAPI   H6R21880   0.787   1.284   6.287  2.0925 -0.8272  0.5758
  190SAPI   C2721881   0.598   1.385   6.320  0.4173  0.3037  0.7511
  190SAPI   H7R21882   0.542   1.451   6.390 -0.5701  0.6587 -0.3335
  190SAPI   H7S21883   0.532   1.303   6.286  1.6355 -0.9980  1.4437
  190SAPI   C2821884   0.620   1.458   6.189  0.7624 -0.2797 -0.2485
  190SAPI   H8R21885   0.630   1.567   6.201 -0.1840 -0.3457  1.4619
  190SAPI   C2921886   0.618   1.412   6.065  0.3192  0.4784 -0.5949
  190SAPI   H9R21887   0.634   1.484   5.983  0.8966  1.2358  0.1589
  190SAPI  C21021888   0.608   1.270   6.016 -0.2057 -0.2903  0.7175
  190SAPI  H10R21889   0.563   1.272   5.915  0.5041 -1.3420  0.3606
  190SAPI  H10S21890   0.538   1.208   6.077 -0.3864 -1.8076 -0.9605
  190SAPI  C21121891   0.742   1.190   6.019  0.5129 -1.3466  0.2699
  190SAPI  H11R21892   0.827   1.259   6.032 -1.1872  0.9762 -0.3466
  190SAPI  C21221893   0.759   1.063   6.044 -0.9009  0.5885  0.2091
  190SAPI  H12R21894   0.865   1.040   6.061 -0.5832  1.8309  0.0298
  190SAPI  C21321895   0.671   0.946   6.061 -0.6089  0.3342 -0.2602
  190SAPI  H13R21896   0.607   0.947   5.970 -0.4138 -1.4817 -0.4629
  190SAPI  H13S21897   0.601   0.963   6.146 -2.0855 -0.7573 -1.1918
  190SAPI  C21421898   0.746   0.816   6.074  0.4173 -0.3248 -0.3786
  190SAPI  H14R21899   0.766   0.782   6.176  3.0980  2.7234  0.2614
  190SAPI  C21521900   0.804   0.762   5.967  0.2740 -0.3956  0.3214
  190SAPI  H15R21901   0.869   0.674   5.978  2.0044  0.5372 -1.6869
  190SAPI  C21621902   0.798   0.813   5.825  0.5641 -0.0797 -0.2517
  190SAPI  H16R21903   0.749   0.912   5.814  0.1237 -0.5353 -3.4545
  190SAPI  H16S21904   0.728   0.753   5.764 -0.6315  0.6893  0.3220
  190SAPI  C21721905   0.931   0.816   5.750 -0.8926 -0.2778  0.0739
  190SAPI  H17R21906   0.974   0.716   5.728  3.6394  2.1296 -3.7207
  190SAPI  H17S21907   1.001   0.868   5.819 -0.2983  0.3604 -0.9691
  190SAPI  C21821908   0.934   0.890   5.616  0.5433 -0.2373 -0.2161
  190SAPI  H18R21909   0.922   0.996   5.644  4.5987  0.2321  0.3810
  190SAPI  H18S21910   0.846   0.858   5.556 -0.1829  0.0356  0.6791
  190SAPI  C21921911   1.062   0.877   5.537  0.5270 -0.0359 -0.0103
  190SAPI  H19R21912   1.143   0.895   5.610 -0.6578  2.6316  0.7766
  190SAPI  H19S21913   1.054   0.958   5.462 -1.5457  0.3621  0.5809
  190SAPI  C22021914   1.071   0.739   5.470  0.3444 -0.1550 -0.4142
  190SAPI  H20R21915   1.169   0.729   5.417 -0.4486  2.3825 -2.6142
  190SAPI  H20S21916   0.991   0.724   5.394  0.7286 -1.9421 -0.5165
  190SAPI  H20T21917   1.053   0.654   5.538  1.2203  0.6933  0.9149
  190SAPI   C3321918   0.307   1.213   6.812 -0.2026 -0.2849  1.4401
  190SAPI   H3X21919   0.365   1.302   6.846  0.4130 -0.4525  0.8650
  190SAPI   H3Y21920   0.200   1.240   6.810  0.0594  0.8167  0.1036
  190SAPI   C3421921   0.352   1.216   6.665 -0.3874 -0.1688  0.0983
  190SAPI   H4X21922   0.439   1.149   6.650 -1.3862 -1.2184 -1.2643
  190SAPI   H4Y21923   0.386   1.319   6.642 -0.2428 -0.2633 -0.1139
  190SAPI   C3521924   0.245   1.166   6.565 -0.8702 -0.1210  0.8203
  190SAPI   H5X21925   0.157   1.233   6.577  0.4675  1.7621  0.5033
  190SAPI   H5Y21926   0.223   1.059   6.582  1.3586 -0.8797 -0.6122
  190SAPI   C3621927   0.295   1.197   6.425 -0.0753  0.1626  0.4738
  190SAPI   H6X21928   0.372   1.127   6.386  1.1835  1.1600  1.1131
  190SAPI   H6Y21929   0.339   1.299   6.421 -0.3521  0.3165  1.3324
  190SAPI   C3721930   0.180   1.183   6.323 -0.1238  1.2671  0.0291
  190SAPI   H7X21931   0.104   1.262   6.342 -0.3171  1.1753 -0.3473
  190SAPI   H7Y21932   0.135   1.083   6.341  1.9622  0.0275 -1.2045
  190SAPI   C3821933   0.226   1.189   6.176  1.3859 -0.3362 -0.2763
  190SAPI   H8X21934   0.302   1.110   6.157  0.8968 -0.3396 -2.4481
  190SAPI   H8Y21935   0.276   1.288   6.160 -0.9914  0.7044 -1.8725
  190SAPI   C3921936   0.102   1.183   6.083  0.1182 -0.7490  0.2759
  190SAPI   H9X21937   0.017   1.249   6.112 -1.1078 -2.6283  1.1020
  190SAPI   H9Y21938   0.061   1.082   6.105  0.2595 -1.0717 -0.8596
  190SAPI  C31021939   0.144   1.196   5.942 -0.2376 -0.6576  0.6814
  190SAPI  H10X21940   0.069   1.141   5.882 -0.2278 -0.7302  0.7350
  190SAPI  H10Y21941   0.244   1.150   5.927 -0.0262 -0.6274  1.9363
  190SAPI  C31121942   0.161   1.349   5.913 -0.1861  0.1764 -0.3470
  190SAPI  H11X21943   0.239   1.384   5.984  0.3770 -0.6570 -0.5280
  190SAPI  H11Y21944   0.066   1.402   5.931 -0.1897  1.3627 -3.3554
  190SAPI  C31221945   0.198   1.381   5.760  0.8407 -0.0370 -0.3517
  190SAPI  H12X21946   0.217   1.490   5.766  2.8043 -0.2686 -1.4787
  190SAPI  H12Y21947   0.108   1.363   5.696  1.6779 -0.8803 -1.3373
  190SAPI  C31321948   0.329   1.332   5.703 -0.1373 -0.2909  0.1753
  190SAPI  H13X21949   0.338   1.221   5.706 -2.2582 -0.5537 -0.7495
  190SAPI  H13Y21950   0.413   1.375   5.762  0.4141  0.2240 -0.9635
  190SAPI  C31421951   0.344   1.364   5.562  0.2743 -0.2781 -0.3011
  190SAPI  H14X21952   0.252   1.331   5.510  0.9877  0.1757 -1.9053
  190SAPI  H14Y21953   0.432   1.312   5.519  1.4788  1.8554 -0.5536
  190SAPI  C31521954   0.378   1.515   5.535 -0.5007 -0.0436  0.6198
  190SAPI  H15X21955   0.474   1.538   5.585 -0.6846  1.3369  0.3626
  190SAPI  H15Y21956   0.300   1.581   5.579  1.8990  0.8250  3.9489
  190SAPI  C31621957   0.364   1.544   5.386 -0.0523 -0.1449 -0.1989
  190SAPI  H16X21958   0.257   1.558   5.359 -0.8785 -2.1730  1.6360
  190SAPI  H16Y21959   0.407   1.457   5.332  0.2717  0.2929 -0.6548
  190SAPI  C31721960   0.443   1.670   5.341 -0.0464  0.2380  0.6574
  190SAPI  H17X21961   0.545   1.665   5.386 -0.9563  0.9456  2.9482
  190SAPI  H17Y21962   0.391   1.759   5.383  1.3135  0.5629  1.7331
  190SAPI  C31821963   0.446   1.689   5.186 -0.0261 -0.1665 -0.5732
  190SAPI  H18X21964   0.487   1.598   5.136  0.8636  0.5062 -1.0934
  190SAPI  H18Y21965   0.504   1.775   5.145 -1.3204  0.4279 -1.1991
  190SAPI  H18Z21966   0.341   1.696   5.151 -0.6198  1.2567  1.3047
  191SAPI   C1221967   4.967   4.561   3.391 -0.5639  0.7944  0.0830
  191SAPI    H221968   4.862   4.574   3.425 -2.2661 -2.9839 -2.9905
  191SAPI    O221969   4.957   4.525   3.253 -0.1071 -0.5072  0.0845
  191SAPI   HO221970   4.873   4.479   3.241 -0.5875  0.2148  0.5607
  191SAPI   C1321971   5.045   4.684   3.424  0.3465 -0.2300 -0.0808
  191SAPI    H321972   5.037   4.694   3.535  0.8067  1.6871 -0.1837
  191SAPI    O321973   4.988   4.805   3.367  0.0142 -0.2010 -0.0926
  191SAPI   HO321974   4.991   4.872   3.436  0.4412 -1.5247  1.2185
  191SAPI   C1421975   5.192   4.667   3.384  0.0692 -0.2670  0.3772
  191SAPI    H421976   5.177   4.680   3.274 -3.0148 -0.9562  0.6163
  191SAPI    O421977   5.276   4.772   3.427  0.2026 -0.3697  0.2556
  191SAPI   HO421978   5.236   4.855   3.402 -0.5029 -0.0889  2.1121
  191SAPI   C1521979   5.258   4.535   3.405  0.2838  0.8957  0.0810
  191SAPI    H521980   5.296   4.549   3.508  1.1832 -1.5592  0.1325
  191SAPI    O521981   5.366   4.511   3.315 -0.5570 -0.1976 -0.4031
  191SAPI   HO521982   5.444   4.541   3.362 -0.6061  0.6123 -0.8233
  191SAPI   C1621983   5.159   4.410   3.425  0.0965 -0.6365 -0.0853
  191SAPI    H621984   5.158   4.359   3.326  2.1880 -1.2099  0.1379
  191SAPI    O621985   5.220   4.314   3.508  0.0605  0.1358 -0.2474
  191SAPI   HO621986   5.148   4.253   3.525 -1.2638  1.3757 -1.1983
  191SAPI   C1121987   5.026   4.442   3.472 -0.6742 -0.5528  0.1862
  191SAPI    H121988   5.018   4.493   3.570 -0.2760  1.3102 -0.7070
  191SAPI     P21989   4.820   4.288   3.565  0.1528  0.1217 -0.1760
  191SAPI   O1321990   4.748   4.167   3.517 -0.1998 -0.7004  0.1315
  191SAPI   O1421991   4.740   4.410   3.583  0.3510  0.1729 -0.2718
  191SAPI   O1221992   4.943   4.323   3.464 -0.2706  0.0017 -0.6827
  191SAPI   O1121993   4.901   4.259   3.694 -0.1027 -0.1499  0.4211
  191SAPI    C121994   4.892   4.131   3.755  0.1591  0.3625  0.0439
  191SAPI    HA21995   4.784   4.115   3.778 -0.2939  2.3190 -0.5472
  191SAPI    HB21996   4.916   4.051   3.681  0.4632 -0.1259  0.6616
  191SAPI    C221997   4.992   4.110   3.870  0.0329  0.0996 -0.0305
  191SAPI    HS21998   4.989   4.002   3.896 -1.0736  0.6434  2.3728
  191SAPI   O2121999   4.941   4.180   3.981 -0.1098  0.0991  0.6223
  191SAPI   C2122000   4.971   4.129   4.100 -0.2078  0.1597  0.4508
  191SAPI   O2222001   5.030   4.024   4.126  0.0814  0.2296  0.3517
  191SAPI   C2222002   4.916   4.225   4.210 -0.7250  0.0016 -0.4140
  191SAPI   H2R22003   4.978   4.315   4.195  0.7167 -0.6235  1.4172
  191SAPI   H2S22004   4.807   4.239   4.193 -0.6930  1.0326  0.1612
  191SAPI    C322005   5.138   4.148   3.822 -0.3917 -0.0006  0.3681
  191SAPI    HX22006   5.146   4.258   3.807 -0.2993 -0.2370 -1.5716
  191SAPI    HY22007   5.167   4.100   3.726  2.9678  1.2813  0.5862
  191SAPI   O3122008   5.236   4.112   3.923  0.2338 -0.5909  0.4259
  191SAPI   C3122009   5.276   3.991   3.926  0.4480 -0.0285 -0.0690
  191SAPI   O3222010   5.230   3.897   3.860 -0.9139 -0.2447  0.4794
  191SAPI   C3222011   5.393   3.976   4.019  0.6075 -0.2784 -0.6355
  191SAPI   H2X22012   5.417   3.867   4.025 -1.8300 -0.8572 -0.3602
  191SAPI   H2Y22013   5.359   4.019   4.116 -3.9382  0.7137 -2.4331
  191SAPI   C2322014   4.947   4.166   4.352  0.3085 -0.0131  0.5457
  191SAPI   H3R22015   5.046   4.116   4.361  1.2141  1.6892  0.4973
  191SAPI   H3S22016   4.882   4.080   4.378 -0.2197  0.4893  0.8823
  191SAPI   C2422017   4.928   4.276   4.449  0.1058 -0.6985 -1.3351
  191SAPI   H4R22018   4.826   4.315   4.427 -0.3830 -0.7239  0.6547
  191SAPI   H4S22019   5.001   4.359   4.439 -1.4546  1.0530  0.6983
  191SAPI   C2522020   4.907   4.223   4.590  0.3839  0.1144  0.4249
  191SAPI   H5R22021   4.850   4.129   4.591 -0.1313  0.3996 -0.6072
  191SAPI   C2622022   4.945   4.268   4.712 -0.5166 -0.0516  0.6358
  191SAPI   H6R22023   4.920   4.215   4.806  0.5682  3.2407  2.9813
  191SAPI   C2722024   5.015   4.390   4.747 -0.6279 -0.2146  0.3543
  191SAPI   H7R22025   4.958   4.428   4.835 -1.9786 -0.7141 -0.2730
  191SAPI   H7S22026   4.997   4.469   4.671  0.9598 -0.2088 -0.0457
  191SAPI   C2822027   5.165   4.361   4.765  0.3881 -0.5352 -0.0558
  191SAPI   H8R22028   5.228   4.373   4.676  0.6234  1.4949  0.3464
  191SAPI   C2922029   5.218   4.356   4.889 -0.4120  0.4988  0.4235
  191SAPI   H9R22030   5.327   4.362   4.878 -0.4850 -0.1709 -0.8501
  191SAPI  C21022031   5.150   4.359   5.033  0.2184 -0.3425  0.2770
  191SAPI  H10R22032   5.071   4.281   5.045 -1.0228  0.8180 -0.0037
  191SAPI  H10S22033   5.095   4.455   5.045  0.0227 -0.6368  1.8881
  191SAPI  C21122034   5.265   4.355   5.131  0.5672  0.3528 -0.4993
  191SAPI  H11R22035   5.345   4.284   5.106  1.1369  0.9698 -0.4621
  191SAPI  C21222036   5.273   4.426   5.246 -0.4708  0.5000  0.3488
  191SAPI  H12R22037   5.361   4.420   5.313  0.3935  0.3853 -0.7777
  191SAPI  C21322038   5.166   4.513   5.298  0.0829  0.8266  0.7810
  191SAPI  H13R22039   5.071   4.473   5.257 -1.1322  1.9809  2.3921
  191SAPI  H13S22040   5.199   4.611   5.259  3.6705 -1.1482 -1.7485
  191SAPI  C21422041   5.171   4.517   5.448  0.3852  0.6298 -0.5630
  191SAPI  H14R22042   5.254   4.571   5.496  0.3968  1.1873 -1.2071
  191SAPI  C21522043   5.073   4.476   5.527  0.7611  0.0699 -1.0721
  191SAPI  H15R22044   5.077   4.499   5.634 -0.6019 -3.4323 -0.1176
  191SAPI  C21622045   4.943   4.409   5.502 -0.5239  0.0279  0.0640
  191SAPI  H16R22046   4.960   4.341   5.416  0.1967 -1.7019  1.5109
  191SAPI  H16S22047   4.873   4.483   5.458  0.2729  0.6313 -0.2205
  191SAPI  C21722048   4.876   4.327   5.622  0.2056 -0.0056  0.4710
  191SAPI  H17R22049   4.775   4.294   5.590  0.5699 -1.2637  0.5665
  191SAPI  H17S22050   4.868   4.404   5.702  2.7597  1.7362 -0.8070
  191SAPI  C21822051   4.944   4.201   5.675 -0.9608  0.1169  0.4290
  191SAPI  H18R22052   5.049   4.230   5.697 -0.5794 -0.8908 -0.0143
  191SAPI  H18S22053   4.951   4.131   5.590  0.2061 -1.1716  1.5488
  191SAPI  C21922054   4.876   4.134   5.789  0.4170 -0.2852 -0.0518
  191SAPI  H19R22055   4.767   4.152   5.777  0.2989  0.2327  1.5904
  191SAPI  H19S22056   4.905   4.191   5.880  1.6194  0.9738 -1.1826
  191SAPI  C22022057   4.896   3.988   5.799  0.0465  0.2253  0.4212
  191SAPI  H20R22058   4.850   3.945   5.891 -0.4365  1.1577  0.6311
  191SAPI  H20S22059   5.001   3.950   5.801 -0.3255 -1.1285 -2.1365
  191SAPI  H20T22060   4.844   3.946   5.711 -1.8426 -0.0647  1.6203
  191SAPI   C3322061   5.519   4.053   3.964  0.0672 -0.1898  0.2660
  191SAPI   H3X22062   5.503   4.162   3.948  2.4183  0.2017  0.2461
  191SAPI   H3Y22063   5.551   4.002   3.871  0.8491  1.1499 -0.2237
  191SAPI   C3422064   5.642   4.033   4.062  0.4871 -0.7004 -0.2744
  191SAPI   H4X22065   5.626   4.097   4.152 -0.6966 -3.3382  1.4990
  191SAPI   H4Y22066   5.728   4.070   4.003  1.0660 -1.1025  0.3077
  191SAPI   C3522067   5.667   3.895   4.114  0.3590  0.1083 -0.4875
  191SAPI   H5X22068   5.643   3.832   4.025 -2.1393  1.0481 -0.5700
  191SAPI   H5Y22069   5.602   3.865   4.199 -0.1299  0.6664 -0.6604
  191SAPI   C3622070   5.811   3.870   4.165 -1.3685 -0.6485 -0.1241
  191SAPI   H6X22071   5.871   3.891   4.074  2.4220  1.2012  2.4919
  191SAPI   H6Y22072   5.837   3.765   4.191  1.3075 -0.2569 -0.8381
  191SAPI   C3722073   5.857   3.969   4.269  0.5958  0.3548 -1.1885
  191SAPI   H7X22074   5.842   4.077   4.248 -0.6766  0.3794 -0.2056
  191SAPI   H7Y22075   5.968   3.964   4.268  0.5469 -1.4220 -1.5600
  191SAPI   C3822076   5.817   3.946   4.415  0.1795  0.4932 -0.3445
  191SAPI   H8X22077   5.797   3.838   4.436 -1.6675  0.8981  0.1210
  191SAPI   H8Y22078   5.721   4.002   4.421  0.3456  0.8204 -0.7198
  191SAPI   C3922079   5.917   4.012   4.521  0.0223 -0.1977  0.4368
  191SAPI   H9X22080   5.967   4.106   4.489 -0.0009 -1.1244 -2.5609
  191SAPI   H9Y22081   6.005   3.946   4.538 -0.7885 -1.5953 -0.6493
  191SAPI  C31022082   5.843   4.027   4.655 -0.1317 -0.2844 -0.5571
  191SAPI  H10X22083   5.822   3.920   4.673  0.6374 -0.2314  0.8705
  191SAPI  H10Y22084   5.751   4.088   4.672 -1.1300 -1.3060 -2.0571
  191SAPI  C31122085   5.937   4.090   4.764 -0.0307  0.2386 -0.0566
  191SAPI  H11X22086   5.963   4.193   4.732  0.1544  0.3833  0.5405
  191SAPI  H11Y22087   6.035   4.040   4.777 -0.1584 -0.3099 -1.1481
  191SAPI  C31222088   5.870   4.107   4.901 -0.4112 -0.0812  0.2593
  191SAPI  H12X22089   5.823   4.008   4.919 -0.9170  0.1256  0.0893
  191SAPI  H12Y22090   5.787   4.181   4.902 -0.1604  0.2332 -1.2539
  191SAPI  C31322091   5.977   4.144   5.013  0.1612 -0.2650 -0.0034
  191SAPI  H13X22092   6.052   4.062   5.010 -0.6827 -1.0370 -0.9273
  191SAPI  H13Y22093   5.916   4.130   5.105  1.5228 -0.6342  0.8800
  191SAPI  C31422094   6.038   4.286   4.996  0.4973  0.3980  0.0533
  191SAPI  H14X22095   5.962   4.346   4.942 -0.4399 -1.6548 -1.0247
  191SAPI  H14Y22096   6.136   4.278   4.945  0.2348  0.8811 -0.5391
  191SAPI  C31522097   6.074   4.356   5.125  0.2537  0.0413 -0.0913
  191SAPI  H15X22098   5.977   4.361   5.180 -0.1260 -1.9565 -0.4903
  191SAPI  H15Y22099   6.110   4.455   5.091 -1.1439  0.9369  0.9153
  191SAPI  C31622100   6.169   4.276   5.212  0.2475 -0.0109  0.2825
  191SAPI  H16X22101   6.268   4.274   5.162  0.4798  0.1560  0.7285
  191SAPI  H16Y22102   6.128   4.175   5.229 -0.2576  0.2140  0.4213
  191SAPI  C31722103   6.169   4.360   5.341  0.0947  0.1106 -0.0831
  191SAPI  H17X22104   6.185   4.467   5.318  0.3877 -0.1606 -1.1889
  191SAPI  H17Y22105   6.261   4.325   5.393 -1.7447 -3.1319  1.3579
  191SAPI  C31822106   6.056   4.317   5.436 -0.1498 -0.0278 -0.0965
  191SAPI  H18X22107   6.075   4.350   5.540 -1.6122  1.7142 -0.3385
  191SAPI  H18Y22108   6.035   4.208   5.438 -1.2110  0.1592 -0.1525
  191SAPI  H18Z22109   5.963   4.367   5.401 -1.0642 -1.5738 -0.0002
  192SAPI   C1222110   1.919   0.545   3.016 -0.1130 -0.5160  0.2100
  192SAPI    H222111   1.819   0.496   3.014 -0.7733  0.7960  0.0641
  192SAPI    O222112   2.026   0.472   2.954  0.1450 -0.1130 -0.0077
  192SAPI   HO222113   1.999   0.384   2.926 -1.1068 -0.3507  1.7809
  192SAPI   C1322114   1.905   0.686   2.951  0.0179  0.4166  0.1218
  192SAPI    H322115   1.828   0.739   3.011  0.9227  0.1147  1.6090
  192SAPI    O322116   1.859   0.670   2.816 -0.2810 -0.1800  0.2620
  192SAPI   HO322117   1.930   0.626   2.769  0.7029  0.3254  1.2243
  192SAPI   C1422118   2.040   0.755   2.959 -0.0561  0.5965 -0.0141
  192SAPI    H422119   2.121   0.690   2.920  0.6655  1.3660  0.1509
  192SAPI    O422120   2.038   0.883   2.891 -0.2209  0.3275 -0.1787
  192SAPI   HO422121   1.983   0.939   2.946  0.4046 -0.0781  0.9039
  192SAPI   C1522122   2.086   0.767   3.104  0.2515 -0.4377 -0.2643
  192SAPI    H522123   2.033   0.854   3.148  1.0555 -0.2047  0.2669
  192SAPI    O522124   2.219   0.799   3.111 -0.6152  0.5976 -0.0608
  192SAPI   HO522125   2.231   0.830   3.201 -0.9467 -0.1851  0.2632
  192SAPI   C1622126   2.053   0.650   3.198 -0.2780  0.1460 -0.0374
  192SAPI    H622127   2.144   0.588   3.180 -0.2314  0.0844  0.3921
  192SAPI    O622128   2.076   0.695   3.335 -0.1358  0.5455  0.7576
  192SAPI   HO622129   2.167   0.676   3.358 -0.0911 -1.9392 -1.0472
  192SAPI   C1122130   1.936   0.562   3.169 -0.1721  0.6130  0.0495
  192SAPI    H122131   1.852   0.622   3.211  0.7111  0.8151  1.6050
  192SAPI     P22132   1.827   0.373   3.329  0.3012  0.2656  0.2178
  192SAPI   O1322133   1.824   0.226   3.302  0.0851 -0.4523 -0.6400
  192SAPI   O1422134   1.704   0.440   3.299  0.5143 -0.2414 -0.3044
  192SAPI   O1222135   1.947   0.430   3.230  0.0888 -0.0789  0.4444
  192SAPI   O1122136   1.871   0.385   3.480  0.0348 -0.6557  0.1414
  192SAPI    C122137   2.003   0.354   3.517 -0.6353  0.1526  0.9018
  192SAPI    HA22138   2.036   0.271   3.451  0.0124  1.2706 -0.2202
  192SAPI    HB22139   2.068   0.440   3.490 -3.2367  0.8015 -4.6978
  192SAPI    C222140   2.020   0.314   3.668  0.2187 -0.8077 -0.1263
  192SAPI    HS22141   2.128   0.312   3.695  0.1022 -0.7619  0.3516
  192SAPI   O2122142   1.969   0.180   3.685 -0.0643  0.0614 -0.0343
  192SAPI   C2122143   2.068   0.085   3.643  0.1801 -0.6042  0.4834
  192SAPI   O2222144   2.170   0.118   3.587  0.4353  0.4069 -0.0591
  192SAPI   C2222145   2.020  -0.058   3.674  0.1493 -0.3899 -0.1686
  192SAPI   H2R22146   1.933  -0.039   3.740 -0.2479  0.9590 -1.0220
  192SAPI   H2S22147   1.994  -0.095   3.573  1.0677  0.7564 -0.8626
  192SAPI    C322148   1.945   0.421   3.759  0.1726 -0.3928  0.2873
  192SAPI    HX22149   1.849   0.431   3.704  0.7102 -2.7511 -1.2684
  192SAPI    HY22150   1.996   0.519   3.750 -1.1280  0.3645  0.9427
  192SAPI   O3122151   1.924   0.384   3.897  0.1655 -0.2200  0.1352
  192SAPI   C3122152   2.030   0.389   3.969  0.1591 -1.4592 -0.2423
  192SAPI   O3222153   2.137   0.427   3.925  0.1437 -0.6002 -0.7289
  192SAPI   C3222154   2.003   0.335   4.111 -0.8616 -0.2964  0.0721
  192SAPI   H2X22155   1.931   0.251   4.104  0.1627 -1.3506  1.5305
  192SAPI   H2Y22156   1.948   0.420   4.156  4.3479  3.3744  0.5117
  192SAPI   C2322157   2.126  -0.142   3.743 -0.2667  0.6722  0.1662
  192SAPI   H3R22158   2.225  -0.148   3.694  1.5743 -1.6730  3.7035
  192SAPI   H3S22159   2.097  -0.249   3.735  3.4636 -0.5205  0.8549
  192SAPI   C2422160   2.165  -0.094   3.881 -0.3252 -0.1649  0.8141
  192SAPI   H4R22161   2.201   0.009   3.863 -0.1555 -0.4173 -0.3448
  192SAPI   H4S22162   2.251  -0.148   3.926 -0.6790 -0.0790  1.6276
  192SAPI   C2522163   2.056  -0.098   3.988  0.7128  0.2675 -0.8567
  192SAPI   H5R22164   1.963  -0.052   3.952  0.6439  0.4823 -0.4248
  192SAPI   C2622165   2.065  -0.147   4.112  0.5576  0.1467  0.0012
  192SAPI   H6R22166   1.971  -0.160   4.167 -0.8086 -1.2193 -2.4700
  192SAPI   C2722167   2.185  -0.206   4.184  0.2925 -0.0492 -0.5305
  192SAPI   H7R22168   2.168  -0.199   4.294 -1.5125 -0.6164 -0.7448
  192SAPI   H7S22169   2.273  -0.141   4.163 -0.7838  1.6863  0.1442
  192SAPI   C2822170   2.218  -0.349   4.149 -0.2627  0.5853  0.2324
  192SAPI   H8R22171   2.212  -0.378   4.043  1.5611 -1.2744  0.5612
  192SAPI   C2922172   2.263  -0.445   4.234 -0.7111 -0.3894  0.2064
  192SAPI   H9R22173   2.276  -0.551   4.206 -5.4228 -1.3114  0.7002
  192SAPI  C21022174   2.280  -0.426   4.386 -0.5919 -0.2753 -0.3357
  192SAPI  H10R22175   2.179  -0.410   4.431 -0.6647 -2.1330  0.2567
  192SAPI  H10S22176   2.350  -0.342   4.406 -1.0531 -0.0271  0.3157
  192SAPI  C21122177   2.341  -0.547   4.458  0.8073 -0.1567  0.3453
  192SAPI  H11R22178   2.382  -0.620   4.386 -0.6387  1.9737 -2.8417
  192SAPI  C21222179   2.346  -0.572   4.593 -0.9882  0.1451 -0.6815
  192SAPI  H12R22180   2.384  -0.670   4.627 -1.0394 -0.6885 -2.8271
  192SAPI  C21322181   2.296  -0.487   4.703  0.1925  0.0392 -0.0055
  192SAPI  H13R22182   2.255  -0.393   4.661  1.8459 -0.3290 -2.6231
  192SAPI  H13S22183   2.376  -0.459   4.774 -1.3032 -0.7818  2.1235
  192SAPI  C21422184   2.187  -0.562   4.780  0.3021  0.0663  1.1431
  192SAPI  H14R22185   2.082  -0.575   4.752  0.4199  0.6289  0.3998
  192SAPI  C21522186   2.215  -0.631   4.900  0.6748  0.3026  0.1470
  192SAPI  H15R22187   2.130  -0.687   4.942  0.4664  1.4354  1.3163
  192SAPI  C21622188   2.344  -0.659   4.970 -0.2043  0.1069 -0.9645
  192SAPI  H16R22189   2.411  -0.574   4.944 -1.1790  0.6452 -1.7889
  192SAPI  H16S22190   2.390  -0.756   4.940  0.1251  0.0371 -0.2594
  192SAPI  C21722191   2.332  -0.654   5.121  0.1631  0.0953 -0.3497
  192SAPI  H17R22192   2.271  -0.567   5.153 -0.0230 -0.5804  1.2564
  192SAPI  H17S22193   2.430  -0.648   5.174 -0.3635 -0.5285  0.7252
  192SAPI  C21822194   2.273  -0.783   5.192  0.3159  0.0581  0.3904
  192SAPI  H18R22195   2.170  -0.787   5.150  0.6505 -2.0268 -0.3648
  192SAPI  H18S22196   2.271  -0.763   5.301 -1.4473  2.2913  0.0363
  192SAPI  C21922197   2.357  -0.909   5.164  0.3970 -0.2433 -0.5312
  192SAPI  H19R22198   2.337  -0.923   5.055 -0.4856  0.6407 -0.5005
  192SAPI  H19S22199   2.309  -0.993   5.218 -1.0583  0.9544  0.0957
  192SAPI  C22022200   2.502  -0.900   5.202  0.3828  0.4575  0.3659
  192SAPI  H20R22201   2.551  -0.827   5.133 -0.0064  1.1745  0.8392
  192SAPI  H20S22202   2.544  -1.002   5.186 -2.1231 -0.4995 -0.5729
  192SAPI  H20T22203   2.520  -0.874   5.308 -2.8861 -1.2653  1.4742
  192SAPI   C3322204   2.131   0.293   4.183  0.3638 -0.3752 -0.0664
  192SAPI   H3X22205   2.217   0.359   4.161 -0.0409  0.6703  1.3561
  192SAPI   H3Y22206   2.157   0.189   4.152  0.6498  0.2566 -2.0302
  192SAPI   C3422207   2.094   0.297   4.335  0.4035  0.0069 -0.1882
  192SAPI   H4X22208   1.992   0.253   4.340 -0.4705  2.0707  1.0234
  192SAPI   H4Y22209   2.094   0.405   4.358  0.2058  0.5996 -2.6514
  192SAPI   C3522210   2.192   0.226   4.437 -0.4542 -0.2230  0.7071
  192SAPI   H5X22211   2.285   0.283   4.455 -0.7734  0.8570 -0.8849
  192SAPI   H5Y22212   2.224   0.126   4.399  2.8667  0.7347  0.6534
  192SAPI   C3622213   2.137   0.208   4.581 -0.5813 -0.2818  0.0799
  192SAPI   H6X22214   2.056   0.132   4.576  0.0370 -0.8860 -1.0640
  192SAPI   H6Y22215   2.103   0.307   4.620 -0.1959 -0.3574  0.6145
  192SAPI   C3722216   2.238   0.153   4.679  0.1757 -0.1213  0.1078
  192SAPI   H7X22217   2.337   0.204   4.672 -0.0951  0.4669  0.4786
  192SAPI   H7Y22218   2.265   0.048   4.658  0.2463 -0.3433  1.2690
  192SAPI   C3822219   2.182   0.174   4.818 -0.0044 -0.3556 -0.2047
  192SAPI   H8X22220   2.077   0.137   4.818  0.2163 -1.0039 -0.2064
  192SAPI   H8Y22221   2.174   0.284   4.830 -3.1196 -0.6287  1.3145
  192SAPI   C3922222   2.259   0.126   4.941 -1.1502 -0.5632  0.0691
  192SAPI   H9X22223   2.360   0.172   4.941 -1.6332  0.5495 -0.4770
  192SAPI   H9Y22224   2.273   0.016   4.932 -1.8472 -0.5614 -1.2054
  192SAPI  C31022225   2.190   0.166   5.075 -0.0156  1.2640 -0.0355
  192SAPI  H10X22226   2.094   0.112   5.083  1.1893 -0.9904  0.1706
  192SAPI  H10Y22227   2.157   0.272   5.076 -0.7866  1.0280 -0.2368
  192SAPI  C31122228   2.283   0.145   5.194 -1.1205  0.5549 -0.2293
  192SAPI  H11X22229   2.387   0.180   5.179  0.2157 -2.6642  0.6623
  192SAPI  H11Y22230   2.292   0.035   5.209 -1.2125  0.4548 -0.8899
  192SAPI  C31222231   2.216   0.199   5.324  0.4376 -0.4448  0.9056
  192SAPI  H12X22232   2.126   0.135   5.336  0.2689 -0.7481 -1.4313
  192SAPI  H12Y22233   2.176   0.300   5.297 -4.1886 -2.8244 -2.6240
  192SAPI  C31322234   2.312   0.204   5.438  0.4925 -0.1627  0.0283
  192SAPI  H13X22235   2.404   0.255   5.402  0.1401  0.7837  0.4336
  192SAPI  H13Y22236   2.339   0.100   5.463 -1.6270 -0.4526  1.3133
  192SAPI  C31422237   2.258   0.279   5.560  0.6345 -0.6890 -0.2116
  192SAPI  H14X22238   2.239   0.385   5.534  0.4483 -1.0271 -1.5082
  192SAPI  H14Y22239   2.333   0.277   5.643  0.5233 -1.8393 -0.1225
  192SAPI  C31522240   2.132   0.218   5.622  0.7444 -0.5374  0.2480
  192SAPI  H15X22241   2.045   0.221   5.552 -0.0945  2.1541  1.2588
  192SAPI  H15Y22242   2.090   0.285   5.700 -1.3454  0.5587 -1.6709
  192SAPI  C31622243   2.142   0.092   5.709  0.1299  0.0950 -1.1048
  192SAPI  H16X22244   2.057   0.091   5.780  0.1077  3.0801 -0.9733
  192SAPI  H16Y22245   2.230   0.096   5.777 -0.1658 -4.3378 -0.1389
  192SAPI  C31722246   2.131  -0.045   5.630 -0.1044  0.3252  0.4083
  192SAPI  H17X22247   2.170  -0.128   5.693  1.0697  1.5104  1.2956
  192SAPI  H17Y22248   2.205  -0.041   5.547 -0.5114  2.9399  0.0909
  192SAPI  C31822249   1.984  -0.073   5.592  0.2196 -1.0415  0.0027
  192SAPI  H18X22250   1.966  -0.170   5.540 -1.7262  0.3602 -2.1718
  192SAPI  H18Y22251   1.952   0.017   5.535  2.6758  1.0033  1.6170
  192SAPI  H18Z22252   1.921  -0.074   5.684  0.0240 -1.8850 -0.1317
  193SOD    SOD22253   2.758   1.454   1.523 -0.1946  0.2163  0.2441
  194SOD    SOD22254   0.063   6.879   2.821  0.0729 -0.2386  0.0150
  195SOD    SOD22255   2.259   2.284   0.080 -0.1375 -0.1336  0.2258
  196SOD    SOD22256   1.638   6.276   2.700  0.0147  0.1887  0.1671
  197SOD    SOD22257   2.359   4.568   7.725  0.2111 -0.1573 -0.4009
  198SOD    SOD22258   1.998   0.943   8.265 -0.1992 -0.3448  0.3899
  199SOD    SOD22259   5.552   1.730   2.947 -0.1834 -0.3350 -0.0330
  200SOD    SOD22260   0.645   5.529   1.346  0.0775  0.0743 -0.0665
  201SOD    SOD22261   0.150   5.917   8.271 -0.0835  0.1174 -0.5223
  202SOD    SOD22262   5.125   3.708   3.033 -0.2242  0.0039  0.1658
  203SOD    SOD22263   6.350   0.325   3.214  0.1602  0.0415 -0.7276
  204SOD    SOD22264   2.902   3.761   2.264  0.1659  0.1447  0.1742
  205SOD    SOD22265   4.081   2.362   2.044  0.1728 -0.1304 -0.2098
  206SOD    SOD22266   1.938   5.088   0.724  0.0492  0.2252  0.5681
  207SOD    SOD22267   0.761   1.830   3.687  0.3088 -0.2323  0.0102
  208SOD    SOD22268   6.006   0.826   2.919 -0.0910  0.1229  0.0014
  209SOD    SOD22269   2.749   0.879   1.715  0.2039 -0.3581 -0.4648
  210SOD    SOD22270   3.431   1.650   8.231  0.8509 -0.3987  0.0297
  211SOD    SOD22271   5.647   2.091   2.213 -0.4733 -0.0467 -0.6092
  212SOD    SOD22272   0.406   1.377   0.482  0.3789  0.3359  0.1967
  213SOD    SOD22273   5.977   3.668   8.248  0.4202 -0.4338 -0.0815
  214SOD    SOD22274   5.163   2.508   0.113  0.2249 -0.3046 -0.2768
  215SOD    SOD22275   2.258   1.956   8.258 -0.0495 -0.3760 -0.2158
  216SOD    SOD22276   1.154   4.170   8.030  0.2869  0.0707  0.4172
  217SOD    SOD22277   4.875   0.541   2.696  0.1348 -0.1901  0.2664
  218SOD    SOD22278   4.785   3.636   0.658  0.1806 -0.0041  0.5212
  219SOD    SOD22279   4.857   1.700   3.206 -0.1575 -0.3367  0.1097
  220SOD    SOD22280   4.055   4.970   7.995 -0.2472  0.3722  0.5205
  221SOD    SOD22281   4.081   5.157   3.032 -0.0541 -0.2375  0.3168
  222SOD    SOD22282   5.542   2.557   3.537 -0.1869 -0.0830 -0.0429
  223SOD    SOD22283   1.496   3.528   8.282  0.4444  0.3689 -0.5479
  224SOD    SOD22284   5.998   1.023   7.745 -0.0419 -0.2372  0.4172
  225SOD    SOD22285   3.330   3.412   2.784 -0.5724  0.2712 -0.0412
  226SOD    SOD22286   5.797   6.067   0.467  0.3452  0.0252 -0.1855
  227SOD    SOD22287   1.072   0.115   2.791 -0.0002  0.1917 -0.7992
  228SOD    SOD22288   6.909   5.414   7.630  0.2007  0.1974  0.1457
  229SOD    SOD22289   2.790   2.821   8.440  0.1828  0.1390  0.6252
  230SOD    SOD22290   3.278   5.464   1.795 -0.8018  0.0479 -0.5848
  231SOD    SOD22291   2.752   0.612   7.529  0.2629 -0.2851 -0.4488
  232SOD    SOD22292   5.494   3.166   2.451  0.0173 -0.1797 -0.6379
  233SOD    SOD22293   2.665   1.120   3.073  0.3086 -0.1689  0.0310
  234CLA    CLA22294   6.835   6.171   0.956 -0.0969  0.2758 -0.0963
  235CLA    CLA22295   1.012   6.686   2.650  0.1235 -0.0358 -0.1697
  236CLA    CLA22296   5.141   2.242   0.123  0.0248  0.0333 -0.0019
  237CLA    CLA22297   4.474   6.235   1.549 -0.3524 -0.0804 -0.1742
  238CLA    CLA22298   6.250   6.120   0.120  0.5263  0.0192 -0.3410
  239CLA    CLA22299   5.783   0.262   2.322  0.4337  0.4658  0.2639
  240CLA    CLA22300   0.917   0.393   2.400 -0.6986 -0.1979 -0.1177
  241CLA    CLA22301   5.820   1.177   3.251  0.0894 -0.2490  0.0034
  242CLA    CLA22302   1.526   2.627   0.900 -0.0643  0.0266  0.0311
  243CLA    CLA22303   1.939   4.879   1.200 -0.1669 -0.9027  0.0402
  244CLA    CLA22304   6.949   2.507   0.487 -0.5938  0.1327  0.1593
  245CLA    CLA22305   1.314   0.170   0.871 -0.2184 -0.4415 -0.1208
  246CLA    CLA22306   4.593   6.751   1.109 -0.2234 -0.0971  0.1726
  247CLA    CLA22307   2.994   6.290   1.145  0.0243  0.1761 -0.1165
  248CLA    CLA22308   2.229   5.339   2.726  0.1629  0.1640 -0.1012
  249CLA    CLA22309   4.272   1.521   1.326  0.2293 -0.0848 -0.1480
  250CLA    CLA22310   6.776   2.937   0.682 -0.2219 -0.3420  0.1878
  251TIP3   OH222311   4.688   6.590   1.373  0.2735  0.1970 -0.1265
  251TIP3    H122312   4.614   6.623   1.423  1.5658  2.3046  0.5106
  251TIP3    H222313   4.684   6.638   1.290  0.7064  0.0528 -0.2326
  252TIP3   OH222314   3.284   6.610   2.343  0.0439  0.5348 -0.0940
  252TIP3    H122315   3.190   6.626   2.333  0.4756  2.1828 -2.0447
  252TIP3    H222316   3.326   6.680   2.293  2.2985 -1.4464 -1.1490
  253TIP3   OH222317   6.418   0.798   0.672  0.0561  0.6501  0.3130
  253TIP3    H122318   6.368   0.847   0.607 -0.7605  0.0046  0.4309
  253TIP3    H222319   6.459   0.727   0.622  0.0710  0.6168  0.3728
  254TIP3   OH222320   5.857   6.571   2.537  0.2370 -0.0336  0.6339
  254TIP3    H122321   5.899   6.559   2.622 -1.8305  0.8436  1.8266
  254TIP3    H222322   5.765   6.583   2.556 -0.2449  0.6020 -1.7211
  255TIP3   OH222323   2.556   0.074   1.367 -0.2403  0.1396  0.1008
  255TIP3    H122324   2.508  -0.007   1.385  0.7673 -0.6994 -0.8312
  255TIP3    H222325   2.516   0.108   1.288  1.9133 -1.6874 -1.9500
  256TIP3   OH222326   3.363   2.823   8.476  0.0259  0.1988 -0.1640
  256TIP3    H122327   3.316   2.895   8.518 -2.4695 -1.2774 -0.2652
  256TIP3    H222328   3.400   2.773   8.550  1.6880  1.4269 -0.0911
  257TIP3   OH222329   5.658   6.386   1.212  0.3634 -0.0160 -0.4956
  257TIP3    H122330   5.735   6.380   1.269 -0.7278 -0.6868  1.0021
  257TIP3    H222331   5.689   6.359   1.126  1.6923 -0.7754  0.1928
  258TIP3   OH222332   1.871   1.974   7.658 -0.0101 -0.4097  0.1071
  258TIP3    H122333   1.892   1.927   7.739  1.0787 -1.7701 -0.9130
  258TIP3    H222334   1.859   1.905   7.593 -0.4536  0.6727 -0.9986
  259TIP3   OH222335   3.161   4.764   1.183  0.8860 -0.2528  0.3453
  259TIP3    H122336   3.092   4.759   1.118  0.6996 -0.1983  0.5378
  259TIP3    H222337   3.236   4.721   1.142  1.1812  0.9694 -0.4374
  260TIP3   OH222338   5.878   1.739   1.616  0.4825  0.4041 -0.5110
  260TIP3    H122339   5.871   1.770   1.706  1.3689  0.0795 -0.3178
  260TIP3    H222340   5.950   1.676   1.618 -1.7430 -2.3442 -0.7023
  261TIP3   OH222341   2.924   5.468   2.704 -0.0541  0.0823  0.0200
  261TIP3    H122342   2.914   5.445   2.796 -0.8158  2.3063  0.5499
  261TIP3    H222343   2.852   5.422   2.660 -1.0734  0.7716  0.9101
  262TIP3   OH222344   0.603   0.437   2.398  0.5044 -0.3009 -0.3534
  262TIP3    H122345   0.696   0.432   2.375  1.0234  1.4855  1.1376
  262TIP3    H222346   0.586   0.357   2.447  0.6843 -1.6390 -2.3554
  263TIP3   OH222347   4.251   0.983   0.062  0.3306  0.2692 -0.5394
  263TIP3    H122348   4.265   0.961   0.154  2.9668 -1.0424 -1.1542
  263TIP3    H222349   4.224   1.075   0.063 -2.1468 -0.3713  1.6166
  264TIP3   OH222350   1.053   2.104   7.942 -0.0096  0.6306 -0.5878
  264TIP3    H122351   1.099   2.067   8.017  1.0025 -0.4735 -1.7083
  264TIP3    H222352   1.118   2.158   7.898 -0.4085  0.7656 -1.0202
  265TIP3   OH222353   5.720   5.242   1.282  0.5524  0.1482  0.6606
  265TIP3    H122354   5.631   5.214   1.260  0.2914  0.6933  1.0060
  265TIP3    H222355   5.738   5.314   1.221  1.0524 -0.4545  0.0758
  266TIP3   OH222356   6.225   6.202   2.799 -0.0949  0.1142  0.2264
  266TIP3    H122357   6.266   6.118   2.777 -0.3181 -0.2917  1.3157
  266TIP3    H222358   6.135   6.194   2.767 -1.4465 -1.7647  3.9848
  267TIP3   OH222359   0.143   5.974   8.039 -0.2851 -0.1572 -0.2695
  267TIP3    H122360   0.099   5.893   8.016 -0.2259  0.2575 -1.9841
  267TIP3    H222361   0.146   6.024   7.958  1.1789  0.8540  0.3557
  268TIP3   OH222362   3.091   3.206   0.617 -0.3206  0.0408  0.1152
  268TIP3    H122363   3.144   3.234   0.692 -1.2306 -0.5742  1.0240
  268TIP3    H222364   3.014   3.263   0.620  0.2340  0.8816 -1.1480
  269TIP3   OH222365   4.148   6.742   2.498 -0.7033  0.2347 -0.2315
  269TIP3    H122366   4.218   6.744   2.433  0.9107 -0.0019  1.4025
  269TIP3    H222367   4.156   6.826   2.543  0.6551 -0.9930  2.0110
  270TIP3   OH222368   6.055   1.768   2.167 -0.2132  0.2770 -0.1370
  270TIP3    H122369   6.020   1.838   2.112  1.6417 -0.6222 -2.6421
  270TIP3    H222370   6.066   1.808   2.253 -0.2078  2.7351 -1.2031
  271TIP3   OH222371   0.785   6.367   1.797 -0.3374  0.3780 -0.5508
  271TIP3    H122372   0.840   6.436   1.833  0.8708  0.0819 -1.7379
  271TIP3    H222373   0.845   6.293   1.783 -1.4495 -0.6744  0.0113
  272TIP3   OH222374   4.075   6.826   0.236  0.1591 -0.2774 -0.3859
  272TIP3    H122375   4.109   6.815   0.148  2.1825 -0.8291  0.4093
  272TIP3    H222376   4.153   6.836   0.291 -1.0605  1.0076  1.2282
  273TIP3   OH222377   6.880   1.742   8.442  0.0396 -0.1347  0.2175
  273TIP3    H122378   6.975   1.743   8.449  0.0804 -0.3076 -0.2885
  273TIP3    H222379   6.861   1.672   8.380 -0.3473  0.7751 -0.7154
  274TIP3   OH222380   6.845   2.960   1.992 -0.2655  0.2184 -0.3647
  274TIP3    H122381   6.866   3.002   1.909  0.4560  2.0326  0.6767
  274TIP3    H222382   6.930   2.943   2.033 -0.6332  1.2948  0.9092
  275TIP3   OH222383   4.267   1.148   2.018 -0.1476  0.7979 -0.1277
  275TIP3    H122384   4.334   1.139   1.950  0.2230 -0.3920  0.3591
  275TIP3    H222385   4.242   1.057   2.038  0.3059  1.0605  1.8512
  276TIP3   OH222386   6.735   4.666   1.407  0.1405 -0.2523 -0.2650
  276TIP3    H122387   6.714   4.629   1.322 -0.9204  0.3490 -0.2809
  276TIP3    H222388   6.809   4.724   1.390  1.2146 -1.6205 -0.4032
  277TIP3   OH222389   1.841   2.032   0.528 -0.1579 -0.0657 -0.3316
  277TIP3    H122390   1.770   2.020   0.465 -0.9951  0.0130  0.5751
  277TIP3    H222391   1.877   1.944   0.541 -0.5729 -0.2218 -0.2388
  278TIP3   OH222392   0.872   3.600   1.333  0.2463 -0.2631  0.3319
  278TIP3    H122393   0.787   3.643   1.342  0.9342  1.2283 -0.0741
  278TIP3    H222394   0.856   3.530   1.269 -0.3524  0.9254 -0.8606
  279TIP3   OH222395   2.477   2.986   8.185  0.2959  0.1545 -0.0521
  279TIP3    H122396   2.398   3.012   8.233  0.8344  0.7263  0.5505
  279TIP3    H222397   2.480   3.045   8.110 -0.4438 -0.6138 -0.7177
  280TIP3   OH222398   4.691   3.928   2.724 -0.4706 -0.5292  0.2473
  280TIP3    H122399   4.607   3.947   2.766 -0.9547 -0.9677 -0.4905
  280TIP3    H222400   4.755   3.931   2.795 -1.2254 -0.9840  0.9625
  281TIP3   OH222401   5.172   6.689   0.034  0.2841  0.6950  0.0004
  281TIP3    H122402   5.232   6.625  -0.004 -1.0572 -0.6174  0.0032
  281TIP3    H222403   5.210   6.711   0.119  0.7263 -0.1823  0.0372
  282TIP3   OH222404   3.900   0.209   0.009 -0.0314  0.2850  0.0168
  282TIP3    H122405   3.986   0.178  -0.019  0.6389  1.9374  0.1136
  282TIP3    H222406   3.879   0.155   0.086  1.5228  0.7038  0.7755
  283TIP3   OH222407   4.528   4.549   0.640 -0.1087 -0.1036  0.0102
  283TIP3    H122408   4.567   4.632   0.614  0.8071 -0.8637 -1.1316
  283TIP3    H222409   4.561   4.533   0.728  0.9070  0.0529 -0.3241
  284TIP3   OH222410   4.866   5.489   0.890 -0.1414 -0.3912  0.6229
  284TIP3    H122411   4.885   5.573   0.931 -1.7570  0.8977 -1.0679
  284TIP3    H222412   4.776   5.469   0.916 -0.7191 -0.2064 -1.0599
  285TIP3   OH222413   3.891   5.336   0.987  0.1764  0.0981 -0.6859
  285TIP3    H122414   3.832   5.292   1.050  0.3165  1.3938  0.3928
  285TIP3    H222415   3.850   5.421   0.971 -0.1534 -0.3996 -2.8439
  286TIP3   OH222416   5.032   6.667   1.764  0.1103  0.4417  0.3973
  286TIP3    H122417   4.991   6.665   1.850 -1.0799  0.4553 -0.1606
  286TIP3    H222418   4.960   6.665   1.702  0.9142  1.2927 -0.6128
  287TIP3   OH222419   0.205   1.776   8.460  0.8741  0.1549 -0.0812
  287TIP3    H122420   0.244   1.834   8.395  0.0887  0.2041 -0.5217
  287TIP3    H222421   0.265   1.778   8.534 -0.6066  4.0892  1.2767
  288TIP3   OH222422   6.260   4.270   1.108  0.1264  0.3261  0.3017
  288TIP3    H122423   6.256   4.174   1.114 -1.3300  0.2759 -0.9068
  288TIP3    H222424   6.259   4.288   1.014 -1.1365  1.5569  0.5204
  289TIP3   OH222425   4.559   6.268   3.236 -0.5255  0.3020  0.0382
  289TIP3    H122426   4.523   6.356   3.244 -1.3391  0.0521 -0.6691
  289TIP3    H222427   4.499   6.212   3.285  1.1790  0.3910  2.3541
  290TIP3   OH222428   5.068   4.810   2.832 -0.1556 -0.2330  0.2435
  290TIP3    H122429   5.028   4.762   2.904 -1.1210  0.7090  0.3611
  290TIP3    H222430   5.081   4.745   2.763  1.0082 -1.2016  1.3325
  291TIP3   OH222431   3.500   0.862   7.583 -0.4516 -0.1705 -0.5118
  291TIP3    H122432   3.537   0.905   7.506  1.2415 -0.5080  0.0667
  291TIP3    H222433   3.481   0.933   7.644  1.5010 -0.1208  0.0959
  292TIP3   OH222434   6.065   4.790   1.279  0.5391  0.1210  0.0407
  292TIP3    H122435   6.027   4.783   1.367  0.9645 -1.0772  0.1458
  292TIP3    H222436   5.996   4.832   1.227  1.0327  2.7812  1.3639
  293TIP3   OH222437   3.955   1.940   2.335 -0.0578 -0.0845  0.3842
  293TIP3    H122438   4.021   1.966   2.399  0.2616  1.2831 -0.4583
  293TIP3    H222439   4.005   1.915   2.257 -0.4702 -0.9394  0.3828
  294TIP3   OH222440   4.215   6.716   0.549 -0.2062 -0.0327  0.2546
  294TIP3    H122441   4.195   6.665   0.471 -0.1671  1.7084 -0.9647
  294TIP3    H222442   4.142   6.699   0.609 -0.6737 -0.7429 -0.5041
  295TIP3   OH222443   5.909   4.481   2.349  0.3363 -0.6200  0.2339
  295TIP3    H122444   5.851   4.520   2.283  0.9184  1.5591  0.9434
  295TIP3    H222445   5.853   4.417   2.394 -1.2184  0.6099  0.1531
  296TIP3   OH222446   1.371   0.600   3.299  0.4880 -0.2701 -0.1000
  296TIP3    H122447   1.329   0.671   3.347  1.2447 -0.6335  1.1593
  296TIP3    H222448   1.304   0.533   3.291  0.2331 -0.0464  0.1294
  297TIP3   OH222449   0.667   3.144   0.454  0.2285 -0.3457 -0.3584
  297TIP3    H122450   0.756   3.164   0.483  1.1083 -3.5716 -0.3698
  297TIP3    H222451   0.611   3.206   0.501  2.4494  2.0959 -0.7163
  298TIP3   OH222452   6.507   3.927   3.651 -0.2541  0.3812  0.3799
  298TIP3    H122453   6.488   4.018   3.672  0.1484  0.7856 -0.9384
  298TIP3    H222454   6.603   3.920   3.656 -0.1631  0.4257 -0.9708
  299TIP3   OH222455   3.498   5.811   1.465 -0.0262 -0.0116 -0.0690
  299TIP3    H122456   3.483   5.802   1.559  1.3113  0.5556  0.2220
  299TIP3    H222457   3.459   5.895   1.442 -1.0763 -0.5164 -0.2067
  300TIP3   OH222458   5.803   0.951   0.033 -0.5014 -0.1270  0.1806
  300TIP3    H122459   5.767   0.962  -0.054  1.7900  1.0705 -0.7110
  300TIP3    H222460   5.760   1.019   0.086 -0.1505  0.7525 -0.6407
  301TIP3   OH222461   6.712   0.898   8.041 -0.4958 -0.4291 -0.1168
  301TIP3    H122462   6.736   0.976   7.992 -0.3285  0.2762  1.0780
  301TIP3    H222463   6.616   0.894   8.034 -0.7057  1.0279  1.4879
  302TIP3   OH222464   6.318   3.696   7.764  0.0072 -0.0110  0.2068
  302TIP3    H122465   6.349   3.624   7.710  1.0905  1.4891 -1.2587
  302TIP3    H222466   6.397   3.733   7.803 -0.5488  0.3023  1.0856
  303TIP3   OH222467   2.925   6.872   0.021  0.2329  0.0834  0.2992
  303TIP3    H122468   2.920   6.828  -0.064  2.9129  1.4902 -0.6846
  303TIP3    H222469   2.965   6.807   0.079 -0.2735 -0.3888  0.1296
  304TIP3   OH222470   2.934   2.936   1.511  0.2533 -0.1248  0.6742
  304TIP3    H122471   3.010   2.904   1.464 -0.2482 -1.1131  0.5294
  304TIP3    H222472   2.880   2.859   1.528 -1.0542  0.6415  0.1871
  305TIP3   OH222473   0.679   4.383   2.630 -0.5320 -0.0040 -0.4150
  305TIP3    H122474   0.602   4.434   2.604  0.4423  1.4075 -0.6433
  305TIP3    H222475   0.674   4.304   2.577 -1.4310  0.4136 -0.9832
  306TIP3   OH222476   1.050   1.701   0.860  0.2478 -0.3102  0.0280
  306TIP3    H122477   0.965   1.745   0.868 -0.8046 -1.7475 -2.2284
  306TIP3    H222478   1.030   1.608   0.874  1.9701 -0.4540  2.0786
  307TIP3   OH222479   3.916   6.723   8.254 -0.0526 -0.2960  0.1293
  307TIP3    H122480   3.923   6.724   8.159 -1.3844  0.3386  0.0202
  307TIP3    H222481   4.006   6.712   8.285  0.3307 -1.1105 -1.2008
  308TIP3   OH222482   3.453   4.623   2.217 -0.4413  0.0039 -0.1305
  308TIP3    H122483   3.410   4.575   2.287 -0.2085 -2.1250 -1.3746
  308TIP3    H222484   3.415   4.587   2.136  0.3747  1.3137 -1.1423
  309TIP3   OH222485   2.524   4.627   7.863  0.2452  0.5855 -0.4467
  309TIP3    H122486   2.530   4.654   7.955 -0.4493 -0.3056 -0.1275
  309TIP3    H222487   2.614   4.626   7.833  0.4493  1.2945  0.1053
  310TIP3   OH222488   2.749   5.022   8.482 -0.1904  0.1715 -0.1027
  310TIP3    H122489   2.830   4.988   8.520  0.6390  2.4866  0.3929
  310TIP3    H222490   2.699   5.054   8.558 -1.1097 -0.2942 -0.5007
  311TIP3   OH222491   4.835   2.960   3.607 -0.1331  0.5600 -0.6127
  311TIP3    H122492   4.860   2.911   3.685  1.4506  0.5024 -1.1127
  311TIP3    H222493   4.840   3.052   3.633  2.3424  0.6347 -1.1100
  312TIP3   OH222494   3.143   6.731   3.438  0.5472  0.4266 -0.5825
  312TIP3    H122495   3.188   6.815   3.449  1.3258 -0.0804  0.2402
  312TIP3    H222496   3.152   6.688   3.523 -1.9937  0.5178 -0.1876
  313TIP3   OH222497   3.768   5.712   8.393  0.3225 -0.3612  0.0804
  313TIP3    H122498   3.682   5.739   8.361  1.1553  0.3568 -1.6752
  313TIP3    H222499   3.797   5.645   8.332  0.2594 -1.9740  1.7318
  314TIP3   OH222500   4.078   0.551   1.073  0.1330  0.7619 -0.3191
  314TIP3    H122501   4.025   0.628   1.095 -1.0800 -0.1579  0.1024
  314TIP3    H222502   4.087   0.504   1.156 -0.2478 -0.2058 -0.8103
  315TIP3   OH222503   3.538   2.487   0.363 -0.2598  0.1034 -0.2137
  315TIP3    H122504   3.461   2.525   0.320 -0.7536 -1.1052 -0.4599
  315TIP3    H222505   3.548   2.401   0.322  0.4379 -0.2906  0.7304
  316TIP3   OH222506   2.425   6.462   8.402  0.2443 -0.0433 -0.1558
  316TIP3    H122507   2.483   6.390   8.377  0.8515  0.4465 -0.1738
  316TIP3    H222508   2.409   6.509   8.320  2.3770  1.6677  0.3060
  317TIP3   OH222509   0.880   4.118   2.112  0.2235  0.0371 -0.8221
  317TIP3    H122510   0.877   4.044   2.051 -1.4926 -0.7677  0.1673
  317TIP3    H222511   0.920   4.083   2.191  1.9869  0.9547 -1.2562
  318TIP3   OH222512   2.628   5.409   1.847  0.3888  0.6541  0.1724
  318TIP3    H122513   2.557   5.473   1.832  1.2025  1.6261  0.3709
  318TIP3    H222514   2.607   5.370   1.932 -1.2993 -0.9596 -0.9122
  319TIP3   OH222515   4.129   1.718   0.714 -0.0551  0.4267  0.5091
  319TIP3    H122516   4.213   1.714   0.760  0.7723 -0.2262 -0.9951
  319TIP3    H222517   4.151   1.748   0.626 -1.3447 -0.1612 -0.0422
  320TIP3   OH222518   6.429   2.563   3.114  0.5725  0.5040  0.8925
  320TIP3    H122519   6.464   2.562   3.203 -0.4351  0.8223  1.3025
  320TIP3    H222520   6.343   2.523   3.122 -0.2461  2.0861  0.3660
  321TIP3   OH222521   0.759   0.732   1.892 -0.1086 -0.0735 -0.1936
  321TIP3    H122522   0.714   0.785   1.826 -0.4472 -1.2417 -0.9497
  321TIP3    H222523   0.694   0.666   1.917  0.0993  0.1988  1.1475
  322TIP3   OH222524   6.419   1.471   8.373  0.0146 -0.6450 -0.0811
  322TIP3    H122525   6.458   1.455   8.459 -0.0869 -1.3852 -0.1666
  322TIP3    H222526   6.327   1.493   8.393 -0.6871 -3.2501 -0.1029
  323TIP3   OH222527   1.414   2.801   8.279  0.1475  0.1251 -0.5278
  323TIP3    H122528   1.445   2.711   8.282 -0.5112 -0.1104  2.1055
  323TIP3    H222529   1.404   2.826   8.371 -0.8544  2.4785 -1.1927
  324TIP3   OH222530   3.166   3.827   2.641 -0.2502 -0.0839 -0.2444
  324TIP3    H122531   3.071   3.843   2.646 -0.1586  0.7271 -0.9168
  324TIP3    H222532   3.205   3.911   2.667  0.2717 -0.1331 -0.8658
  325TIP3   OH222533   3.808   0.476   0.007 -0.0481  0.3342 -0.2893
  325TIP3    H122534   3.840   0.388   0.029 -1.0731  0.5978  2.7478
  325TIP3    H222535   3.758   0.463  -0.073  1.1374 -1.5155 -0.8196
  326TIP3   OH222536   4.404   5.287   2.703 -0.0591 -0.1333  0.9918
  326TIP3    H122537   4.466   5.239   2.758  0.6892 -1.4940 -0.8973
  326TIP3    H222538   4.326   5.232   2.700  0.5239 -0.9408 -0.5791
  327TIP3   OH222539   0.795   2.047   0.445  0.7097 -0.5736 -0.2593
  327TIP3    H122540   0.711   2.046   0.491  0.6285  1.2528 -0.2955
  327TIP3    H222541   0.772   2.025   0.355  0.3569 -0.6822 -0.1476
  328TIP3   OH222542   5.056   2.739   1.517 -0.4462  0.0712  0.6606
  328TIP3    H122543   5.079   2.807   1.580 -3.8727  0.7637  1.3470
  328TIP3    H222544   4.995   2.781   1.457 -1.7443 -2.0674  0.3811
  329TIP3   OH222545   1.484   5.254   0.414 -1.0091  0.2745 -0.3128
  329TIP3    H122546   1.492   5.322   0.346  0.6308  1.2122  0.7474
  329TIP3    H222547   1.540   5.183   0.382  1.0534  1.3427  0.6925
  330TIP3   OH222548   5.105   5.013   7.690  0.1439 -0.0378  0.2265
  330TIP3    H122549   5.017   5.034   7.659  0.0558 -1.3870 -0.4927
  330TIP3    H222550   5.161   5.080   7.650 -0.6717  1.6282  1.7294
  331TIP3   OH222551   4.421   2.739   1.004 -0.8807 -0.0463 -0.0111
  331TIP3    H122552   4.355   2.739   0.935 -1.7763 -1.4547  0.7873
  331TIP3    H222553   4.396   2.666   1.061  1.0384 -0.2397  0.6531
  332TIP3   OH222554   5.409   2.152   1.887  0.0348 -0.4171  0.2064
  332TIP3    H122555   5.414   2.226   1.948  1.6692 -0.1405 -0.2160
  332TIP3    H222556   5.384   2.078   1.942 -2.4618  0.5618  0.4981
  333TIP3   OH222557   4.210   0.286   1.742 -0.1828 -0.1550 -0.4524
  333TIP3    H122558   4.145   0.293   1.673 -1.7641 -0.6664  0.9374
  333TIP3    H222559   4.233   0.193   1.745 -0.6812 -0.2592  0.2023
  334TIP3   OH222560   2.865   0.712   7.189  0.5940 -0.3602  0.7565
  334TIP3    H122561   2.896   0.724   7.279  1.9346  1.7358  0.0914
  334TIP3    H222562   2.811   0.790   7.172  1.4863 -0.0125 -0.6700
  335TIP3   OH222563   3.167   2.616   1.455  0.4203  0.1692 -0.3678
  335TIP3    H122564   3.209   2.531   1.442 -1.0259 -0.6768  0.2691
  335TIP3    H222565   3.125   2.609   1.541 -0.5931  1.1472 -0.7621
  336TIP3   OH222566   5.258   3.526   0.191  0.5982 -0.2252 -0.0286
  336TIP3    H122567   5.216   3.597   0.142 -1.2212 -1.5263 -0.4633
  336TIP3    H222568   5.338   3.565   0.227  0.3833  1.6166 -1.4375
  337TIP3   OH222569   0.987   0.934   3.243 -0.1633 -0.6482  0.6624
  337TIP3    H122570   1.032   0.973   3.318  0.6750 -1.8995  0.8337
  337TIP3    H222571   0.986   0.840   3.261 -2.4423 -0.7133  0.4090
  338TIP3   OH222572   6.263   3.868   7.553  0.4043 -0.4133  0.1014
  338TIP3    H122573   6.276   3.794   7.612  0.5041 -0.1602  0.3979
  338TIP3    H222574   6.246   3.828   7.468 -2.0201 -0.8352  0.7164
  339TIP3   OH222575   6.717   3.765   1.028  0.2865 -0.1670  0.2306
  339TIP3    H122576   6.792   3.813   1.063 -0.4622  0.5827  0.8495
  339TIP3    H222577   6.656   3.760   1.102 -0.5730 -0.1236 -0.4697
  340TIP3   OH222578   3.676   0.099   2.223 -0.1345 -0.4225 -0.1345
  340TIP3    H122579   3.603   0.152   2.190  0.2844  2.9644  3.6228
  340TIP3    H222580   3.635   0.039   2.286  0.0810  0.6467  1.0720
  341TIP3   OH222581   5.603   2.172   0.439  0.7811  0.6895  0.2362
  341TIP3    H122582   5.586   2.144   0.349  0.0110  1.6963  0.0443
  341TIP3    H222583   5.581   2.096   0.493  1.6410 -0.0546 -0.4402
  342TIP3   OH222584   2.999   3.008   1.892  0.3242  0.6229  0.2844
  342TIP3    H122585   3.023   3.036   1.980 -0.9507 -0.2112  0.9304
  342TIP3    H222586   2.934   2.939   1.906  1.0184 -0.4037 -1.2943
  343TIP3   OH222587   2.961   4.818   1.853 -0.1230  0.3963 -0.1398
  343TIP3    H122588   2.967   4.732   1.811  0.8605  0.1104  0.5352
  343TIP3    H222589   3.027   4.871   1.809 -0.7640  0.8392 -0.5911
  344TIP3   OH222590   4.336   3.554   2.322 -0.2272  0.3599  0.1611
  344TIP3    H122591   4.254   3.523   2.281  0.2162  1.8134 -2.0218
  344TIP3    H222592   4.308   3.623   2.382 -0.6808  0.2057  0.1322
  345TIP3   OH222593   5.742   3.026   1.263  0.6144 -0.1401  0.0592
  345TIP3    H122594   5.772   3.007   1.352 -0.2665 -1.3770  0.1333
  345TIP3    H222595   5.706   2.942   1.233  2.2060 -0.1461 -2.0170
  346TIP3   OH222596   3.816   5.079   2.654 -0.1000  0.2329 -0.1297
  346TIP3    H122597   3.737   5.024   2.646 -0.4130  0.6089  0.3571
  346TIP3    H222598   3.819   5.128   2.572 -0.6346  0.5551  0.0384
  347TIP3   OH222599   6.055   0.656   2.753 -0.4309  0.3816  0.2879
  347TIP3    H122600   6.134   0.655   2.698 -0.5353 -0.1752  0.1358
  347TIP3    H222601   5.990   0.608   2.701  0.3646 -3.0776  2.1566
  348TIP3   OH222602   6.146   3.134   2.980 -0.0138  0.6975  0.1684
  348TIP3    H122603   6.071   3.077   2.961  0.0107  0.4740  0.7182
  348TIP3    H222604   6.119   3.219   2.947 -0.8518  0.8066  1.0715
  349TIP3   OH222605   2.574   0.733   3.270 -0.0108 -0.2537  0.9788
  349TIP3    H122606   2.653   0.772   3.308  0.5961 -1.1652  0.6934
  349TIP3    H222607   2.605   0.686   3.193 -1.1611  1.1296 -0.3927
  350TIP3   OH222608   3.690   1.672   1.610  0.0122  0.5101  0.3544
  350TIP3    H122609   3.769   1.660   1.662  0.6395  0.4280 -0.5843
  350TIP3    H222610   3.647   1.748   1.647  0.0608  0.0220  1.4422
  351TIP3   OH222611   1.427   2.303   0.434  0.1222 -0.5739  0.2465
  351TIP3    H122612   1.489   2.373   0.454 -1.8094  1.6432 -1.0023
  351TIP3    H222613   1.381   2.287   0.517  0.7971 -0.6054  0.6190
  352TIP3   OH222614   4.658   5.930   8.308 -0.0392 -0.2997  0.3505
  352TIP3    H122615   4.631   5.850   8.263 -0.3259  1.1633 -2.2708
  352TIP3    H222616   4.591   5.995   8.285  0.2315  0.7669  2.3227
  353TIP3   OH222617   5.471   0.740   1.780 -0.3127  0.7694  0.8573
  353TIP3    H122618   5.516   0.715   1.861 -0.7874  2.3144  1.6363
  353TIP3    H222619   5.378   0.741   1.803 -0.5657 -0.0415 -0.0817
  354TIP3   OH222620   5.524   6.732   8.276  0.1762 -0.0812  0.2641
  354TIP3    H122621   5.514   6.727   8.371 -3.1602  0.7348  0.0758
  354TIP3    H222622   5.492   6.648   8.244 -0.7802  0.4522 -0.2128
  355TIP3   OH222623   4.970   5.908   2.840 -0.0087  0.2005 -0.3361
  355TIP3    H122624   5.065   5.905   2.848  0.1836  1.5887 -1.5582
  355TIP3    H222625   4.950   5.854   2.763 -0.1015  0.6879 -0.6596
  356TIP3   OH222626   0.070   5.208   2.013  0.1129 -0.2228 -0.5086
  356TIP3    H122627   0.023   5.253   2.083  0.5774 -0.0926 -0.2746
  356TIP3    H222628   0.125   5.144   2.058 -0.1544 -0.6689 -0.8067
  357TIP3   OH222629   1.857   6.906   3.396  0.1232  0.3629 -0.6809
  357TIP3    H122630   1.855   7.000   3.379  0.6097  0.8626  1.6341
  357TIP3    H222631   1.924   6.873   3.337 -0.7832  1.2768 -2.2774
  358TIP3   OH222632   2.095   2.950   3.320  0.3190 -0.4299  0.3867
  358TIP3    H122633   2.051   3.016   3.373  0.6433 -0.3793  0.5920
  358TIP3    H222634   2.107   2.992   3.235  0.0059 -0.4314  0.3386
  359TIP3   OH222635   0.131   4.731   1.169  0.4633  0.4591  0.2118
  359TIP3    H122636   0.199   4.669   1.197 -2.0139 -3.1424 -0.9282
  359TIP3    H222637   0.165   4.768   1.088  0.7745 -2.1069 -0.9338
  360TIP3   OH222638   6.094   6.328   2.142 -0.1760  0.4541  0.9108
  360TIP3    H122639   6.042   6.260   2.099  0.5418  0.9479 -0.8171
  360TIP3    H222640   6.030   6.389   2.178 -0.8450  1.3533 -1.6583
  361TIP3   OH222641   3.378   1.056   1.874 -0.9844 -0.1256  0.2549
  361TIP3    H122642   3.392   0.976   1.823 -0.7309 -0.1932  0.4254
  361TIP3    H222643   3.283   1.059   1.887 -0.9375 -0.7842  0.8456
  362TIP3   OH222644   5.868   6.438   1.449  0.2207 -0.0389 -0.7787
  362TIP3    H122645   5.816   6.374   1.499 -3.0330  2.8372 -0.0956
  362TIP3    H222646   5.930   6.474   1.513 -0.9455  0.5407  0.0540
  363TIP3   OH222647   2.682   3.221   2.165 -0.5401  0.3383 -0.5953
  363TIP3    H122648   2.677   3.211   2.070  0.0567  1.7668 -0.8003
  363TIP3    H222649   2.775   3.237   2.182 -0.7542  0.8189  0.1486
  364TIP3   OH222650   6.836   5.369   0.261 -0.0458  0.2228 -0.1629
  364TIP3    H122651   6.791   5.442   0.304 -2.7556 -1.2902 -0.2332
  364TIP3    H222652   6.778   5.343   0.190  1.8061 -0.7914 -1.3984
  365TIP3   OH222653   4.972   3.592   0.524  0.4690 -0.1289 -0.1490
  365TIP3    H122654   4.949   3.611   0.433  0.0152  1.6103  0.2945
  365TIP3    H222655   5.053   3.541   0.517 -0.5283 -1.6490 -1.5516
  366TIP3   OH222656   0.302   5.884   0.414  0.1158  0.0338 -0.2019
  366TIP3    H122657   0.300   5.811   0.475 -0.4893  0.8722  0.8063
  366TIP3    H222658   0.210   5.901   0.393  0.0578  1.9236  1.3488
  367TIP3   OH222659   5.220   0.300   0.221  0.1719  0.2963 -0.8440
  367TIP3    H122660   5.309   0.313   0.189 -0.1611 -1.1081 -2.5487
  367TIP3    H222661   5.165   0.342   0.155 -0.4571  0.5618 -0.1581
  368TIP3   OH222662   0.632   3.417   2.305 -0.3642  0.1085  0.2723
  368TIP3    H122663   0.676   3.499   2.284 -1.1553  0.0288 -1.9392
  368TIP3    H222664   0.544   3.443   2.333 -1.2601  0.0016 -2.2540
  369TIP3   OH222665   0.982   3.359   2.478  0.5112 -0.2002 -0.0193
  369TIP3    H122666   0.913   3.311   2.524 -2.1260  3.1294 -0.1593
  369TIP3    H222667   1.019   3.294   2.417 -1.4231 -2.5228  1.1013
  370TIP3   OH222668   2.402   1.495   0.013 -0.7511  0.3906 -0.1661
  370TIP3    H122669   2.325   1.440   0.030 -0.3796 -0.7085 -1.7964
  370TIP3    H222670   2.390   1.571   0.069 -2.4181 -0.3226  0.5121
  371TIP3   OH222671   3.515   2.244   3.061 -0.3483  0.0406 -0.6603
  371TIP3    H122672   3.580   2.290   3.114 -0.3412 -1.3586  0.6324
  371TIP3    H222673   3.443   2.306   3.050  1.2801  1.7494 -2.4072
  372TIP3   OH222674   2.355   4.275   7.402  0.4397 -0.1018 -0.2597
  372TIP3    H122675   2.419   4.223   7.450 -0.0421 -2.8706 -2.3756
  372TIP3    H222676   2.270   4.244   7.433  0.1365 -1.1604 -2.0128
  373TIP3   OH222677   6.862   5.723   2.925  0.1043  0.0216 -0.0367
  373TIP3    H122678   6.914   5.698   2.849  1.1041  1.0149  0.2833
  373TIP3    H222679   6.799   5.652   2.936  0.6756 -0.6770 -1.1137
  374TIP3   OH222680   6.005   0.012   8.270 -0.2400 -0.7442  0.0812
  374TIP3    H122681   5.912   0.005   8.292 -0.0525 -1.6537  0.6144
  374TIP3    H222682   6.050   0.007   8.354  0.2859 -0.0374 -0.1520
  375TIP3   OH222683   5.873   0.917   1.965 -0.3692 -0.5310 -0.1494
  375TIP3    H122684   5.812   0.868   2.019  0.7094  0.1334  1.7679
  375TIP3    H222685   5.935   0.852   1.932 -0.3694 -0.8007  0.3823
  376TIP3   OH222686   6.795   1.718   2.868  0.0871  0.1521  0.3111
  376TIP3    H122687   6.837   1.683   2.789 -0.2617  0.9308 -0.2413
  376TIP3    H222688   6.867   1.753   2.920  0.1764  1.3125 -0.5441
  377TIP3   OH222689   0.562   4.045   8.370 -0.1177 -0.0055 -0.1269
  377TIP3    H122690   0.655   4.049   8.350 -0.5815  1.5007 -2.2371
  377TIP3    H222691   0.519   4.041   8.285 -2.0492  1.3467  0.7266
  378TIP3   OH222692   0.760   2.434   7.370  0.1566 -0.2229 -0.9650
  378TIP3    H122693   0.853   2.447   7.354  0.5595 -2.4803 -0.8722
  378TIP3    H222694   0.740   2.352   7.325 -1.7245  0.0583 -0.7092
  379TIP3   OH222695   2.755   0.800   7.974 -0.0575 -0.3022  0.3260
  379TIP3    H122696   2.722   0.871   8.030 -0.1856  0.3421 -0.5532
  379TIP3    H222697   2.767   0.726   8.034 -1.8590 -0.1730  0.9183
  380TIP3   OH222698   1.202   1.719   2.694  0.1544 -0.1175  0.6015
  380TIP3    H122699   1.285   1.744   2.653  0.6000  3.3200  3.1364
  380TIP3    H222700   1.217   1.630   2.726  3.1535  0.5743  1.4684
  381TIP3   OH222701   0.953   2.480   0.642  0.2591  0.2248  0.4590
  381TIP3    H122702   0.894   2.411   0.672  0.7411 -0.4687 -0.1567
  381TIP3    H222703   0.900   2.533   0.582 -0.2040  0.5938  1.1817
  382TIP3   OH222704   6.500   2.061   1.777  0.0845 -0.2968  0.8449
  382TIP3    H122705   6.483   2.155   1.770 -0.2688 -0.2930  1.6229
  382TIP3    H222706   6.591   2.050   1.750 -0.2050  0.1152 -0.3435
  383TIP3   OH222707   5.831   3.751   8.084 -0.7535 -0.2702 -0.0677
  383TIP3    H122708   5.828   3.833   8.132  0.2144 -1.2029  1.6943
  383TIP3    H222709   5.773   3.764   8.009 -0.3050  2.1347 -0.0584
  384TIP3   OH222710   4.559   5.458   0.893 -0.2785 -0.1341  0.3111
  384TIP3    H122711   4.567   5.550   0.867  1.7325 -0.5114 -0.5812
  384TIP3    H222712   4.539   5.412   0.812 -0.9642 -0.5313  0.6982
  385TIP3   OH222713   0.087   3.111   1.825 -0.6315 -0.4038 -0.3377
  385TIP3    H122714   0.114   3.027   1.790  2.1901  0.1200  0.3626
  385TIP3    H222715   0.165   3.166   1.820 -1.2234  0.9658  2.8028
  386TIP3   OH222716   6.830   5.054   2.848  0.1979  0.3488  0.0353
  386TIP3    H122717   6.807   5.132   2.899  0.6824  0.8283 -0.4662
  386TIP3    H222718   6.748   5.007   2.838  0.0337  0.4274  0.9606
  387TIP3   OH222719   6.681   5.829   0.356  0.2053 -0.0423  0.0936
  387TIP3    H122720   6.669   5.902   0.417  1.5766  1.1666 -1.0087
  387TIP3    H222721   6.616   5.845   0.287  0.5176  0.1724 -0.1566
  388TIP3   OH222722   6.349   4.125   1.919 -0.4250 -0.7349 -0.0549
  388TIP3    H122723   6.361   4.220   1.929  1.0429 -0.8146 -0.8430
  388TIP3    H222724   6.408   4.086   1.983  0.6886 -1.1152 -1.2736
  389TIP3   OH222725   3.134   1.749   0.956 -0.0986  0.2887 -0.5250
  389TIP3    H122726   3.117   1.746   0.862  0.7672 -0.2920 -0.6706
  389TIP3    H222727   3.086   1.826   0.986 -0.8127  0.1840 -1.3493
  390TIP3   OH222728   4.259   1.977   2.896 -0.1335  0.5739  0.1060
  390TIP3    H122729   4.213   1.953   2.976 -1.7693  1.8082 -0.3922
  390TIP3    H222730   4.284   2.069   2.909 -1.4432  1.1585 -1.1785
  391TIP3   OH222731   4.648   4.156   1.233  0.9844  0.2134  0.1198
  391TIP3    H122732   4.615   4.139   1.321  0.2835 -0.5524 -0.2822
  391TIP3    H222733   4.674   4.070   1.200 -2.5919 -0.2416 -1.9619
  392TIP3   OH222734   5.830   3.348   2.711  0.2335  0.0066  0.5808
  392TIP3    H122735   5.795   3.346   2.621  0.8553  2.7105  0.1936
  392TIP3    H222736   5.771   3.407   2.758  0.4687 -0.6542  1.7337
  393TIP3   OH222737   1.085   0.927   0.440 -0.3156 -0.3829 -0.0106
  393TIP3    H122738   1.103   0.938   0.534 -2.7782  0.0160  0.4664
  393TIP3    H222739   1.168   0.895   0.404  0.1970 -2.2589  2.5838
  394TIP3   OH222740   3.729   1.178   2.671  0.2450 -0.5350  0.7167
  394TIP3    H122741   3.763   1.241   2.734 -0.6996 -0.7259  1.4408
  394TIP3    H222742   3.792   1.107   2.671 -0.2251 -0.9848  2.2022
  395TIP3   OH222743   0.866   3.591   1.833  0.6281  0.5773 -0.2014
  395TIP3    H122744   0.832   3.530   1.898  0.1551  1.2509  0.1914
  395TIP3    H222745   0.791   3.612   1.778  0.4869  1.6876  0.3704
  396TIP3   OH222746   4.083   1.775   3.048 -0.1309  0.1105 -0.1474
  396TIP3    H122747   4.042   1.853   3.085 -0.1111 -0.4644  1.1080
  396TIP3    H222748   4.077   1.709   3.116  1.1790 -0.5596 -0.6426
  397TIP3   OH222749   1.115   2.057   7.624 -0.2174 -0.2057  0.3228
  397TIP3    H122750   1.168   2.134   7.642  0.5801 -0.8384  0.7554
  397TIP3    H222751   1.043   2.089   7.570  1.6156  0.3701 -1.9224
  398TIP3   OH222752   0.850   1.753   8.082  0.2028 -0.1879 -0.2605
  398TIP3    H122753   0.856   1.801   8.000  0.0692  0.3196  0.0204
  398TIP3    H222754   0.936   1.714   8.094  0.0835 -0.6619 -0.8746
  399TIP3   OH222755   2.371   0.756   8.166 -0.5866  0.4978  0.6109
  399TIP3    H122756   2.369   0.679   8.109 -0.3509 -0.5365  1.9571
  399TIP3    H222757   2.404   0.827   8.109  2.5849 -1.1477  0.1881
  400TIP3   OH222758   1.717   6.923   8.421  0.0462 -0.5816 -0.2961
  400TIP3    H122759   1.702   6.901   8.329 -2.7519 -0.7882  0.1036
  400TIP3    H222760   1.644   6.981   8.443  0.5103 -0.7415  1.8642
  401TIP3   OH222761   2.607   2.406   0.550  0.1087 -0.6358  0.5358
  401TIP3    H122762   2.525   2.361   0.529 -0.0423  0.0763 -0.4557
  401TIP3    H222763   2.675   2.348   0.514  0.0167 -0.9558  0.8697
  402TIP3   OH222764   3.270   6.476   8.480 -0.0637  0.3425 -0.7924
  402TIP3    H122765   3.301   6.455   8.567 -2.3293 -1.4525 -0.3083
  402TIP3    H222766   3.286   6.570   8.470 -1.1922  0.9703  2.2368
  403TIP3   OH222767   3.472   1.442   1.651 -0.5330  0.6333 -0.0293
  403TIP3    H122768   3.481   1.474   1.561 -0.3291  1.8864  0.4054
  403TIP3    H222769   3.540   1.489   1.700  1.0144 -1.8482  0.3704
  404TIP3   OH222770   5.131   2.928   1.237 -0.2888  0.1449 -0.0527
  404TIP3    H122771   5.101   2.855   1.183 -1.3055  1.5078 -1.4399
  404TIP3    H222772   5.223   2.908   1.255  0.2038 -0.2846 -2.5673
  405TIP3   OH222773   5.989   5.189   3.180 -0.2828 -0.0493  0.0126
  405TIP3    H122774   6.079   5.156   3.184 -0.6237 -1.3500 -1.8265
  405TIP3    H222775   5.941   5.137   3.243 -0.0901 -0.6393 -0.3184
  406TIP3   OH222776   5.751   0.600   4.044  0.2162 -0.5365 -0.7810
  406TIP3    H122777   5.814   0.628   3.977  0.5737 -0.4893 -0.4320
  406TIP3    H222778   5.779   0.646   4.123  0.0382 -0.8990 -0.5047
  407TIP3   OH222779   0.907   0.985   7.199 -0.0645  0.2092  0.0298
  407TIP3    H122780   0.947   0.971   7.113  0.2407 -1.8746  0.4445
  407TIP3    H222781   0.980   1.009   7.256  0.2192 -1.0843  0.2464
  408TIP3   OH222782   5.953   2.866   0.080 -0.2817 -0.2713  0.0273
  408TIP3    H122783   5.966   2.939   0.019  0.2966 -0.5426 -0.1805
  408TIP3    H222784   5.865   2.834   0.062 -1.2289  1.4360  1.2681
  409TIP3   OH222785   0.553   3.571   0.395  0.0023 -0.3448 -0.3471
  409TIP3    H122786   0.528   3.558   0.486 -1.8004 -0.5042 -0.8187
  409TIP3    H222787   0.525   3.491   0.351 -1.2927  0.6396 -1.4106
  410TIP3   OH222788   6.470   5.449   2.459 -0.1138 -0.2105 -0.2746
  410TIP3    H122789   6.421   5.531   2.469  0.8218  0.5338 -1.5564
  410TIP3    H222790   6.438   5.411   2.377  0.5165 -0.3735 -0.4491
  411TIP3   OH222791   2.122   4.069   8.318  0.4377 -0.0342 -0.2658
  411TIP3    H122792   2.139   4.003   8.252  0.6450  0.3688 -0.6211
  411TIP3    H222793   2.195   4.130   8.311  0.8706 -0.3902  0.8518
  412TIP3   OH222794   4.373   2.515   0.675 -0.0004  0.1255 -0.0927
  412TIP3    H122795   4.459   2.552   0.654  0.0128 -0.5136 -1.2521
  412TIP3    H222796   4.327   2.585   0.720  0.4792  1.1311 -1.1192
  413TIP3   OH222797   4.750   5.715   0.395  0.2316  0.3348 -0.3541
  413TIP3    H122798   4.745   5.772   0.472  1.0152 -0.2551  0.1413
  413TIP3    H222799   4.809   5.761   0.335 -0.1497  0.6517 -0.4960
  414TIP3   OH222800   5.710   0.319   3.378  0.1185  0.2972  0.3211
  414TIP3    H122801   5.686   0.291   3.466  0.0794 -1.5153 -0.2265
  414TIP3    H222802   5.679   0.248   3.321 -0.2910  1.6521 -1.2071
  415TIP3   OH222803   0.685   0.734   7.119  0.6750  0.2055  0.2644
  415TIP3    H122804   0.676   0.640   7.129 -1.7092  0.4348  0.9273
  415TIP3    H222805   0.697   0.767   7.208  3.0597  0.4735 -0.0852
  416TIP3   OH222806   0.629   3.962   7.525 -0.2868 -0.4217  0.2174
  416TIP3    H122807   0.663   4.042   7.565  3.2988 -1.3978 -0.5439
  416TIP3    H222808   0.618   3.901   7.598  0.7885 -0.4399  0.3742
  417TIP3   OH222809   4.518   1.243   8.411 -0.5859  0.3764  0.3113
  417TIP3    H122810   4.469   1.325   8.399  0.0894  0.6179 -1.0315
  417TIP3    H222811   4.466   1.193   8.473 -1.0803  1.7722  1.0643
  418TIP3   OH222812   6.551   6.736   2.437  0.4270 -0.2952  0.6443
  418TIP3    H122813   6.494   6.665   2.408  1.3127 -1.0001  0.5907
  418TIP3    H222814   6.499   6.815   2.424  0.1217 -0.7441 -1.1744
  419TIP3   OH222815   5.287   1.091   8.465 -0.1526 -0.1691 -0.1888
  419TIP3    H122816   5.268   1.090   8.372  1.5537 -1.9238 -0.5848
  419TIP3    H222817   5.353   1.023   8.477  1.0714  1.2634  1.9992
  420TIP3   OH222818   6.231   1.858   8.396  0.3078 -0.4728  0.4569
  420TIP3    H122819   6.201   1.940   8.358  0.3281  0.3953  2.2246
  420TIP3    H222820   6.186   1.790   8.345 -0.6295  0.6520 -0.2575
  421TIP3   OH222821   0.333   2.243   1.742  0.2343  0.2369 -0.0118
  421TIP3    H122822   0.382   2.207   1.816 -0.4279 -0.4151  0.1288
  421TIP3    H222823   0.314   2.167   1.686  1.1315  0.7893 -1.1045
  422TIP3   OH222824   1.816   0.454   1.176  0.1243 -0.1124 -0.6664
  422TIP3    H122825   1.737   0.402   1.191 -0.3580  1.1531  1.6643
  422TIP3    H222826   1.887   0.390   1.175 -0.6080 -0.9867  0.5607
  423TIP3   OH222827   3.741   1.356   8.243 -0.2219  0.0690  0.3417
  423TIP3    H122828   3.779   1.347   8.156 -1.9177 -1.2958 -0.3285
  423TIP3    H222829   3.720   1.449   8.252  0.3864  0.2951 -0.5071
  424TIP3   OH222830   3.300   1.327   1.845 -0.2014 -0.2427  0.3603
  424TIP3    H122831   3.333   1.379   1.772 -0.5055  1.6941  1.5457
  424TIP3    H222832   3.363   1.255   1.853  1.9023  1.5184  0.4537
  425TIP3   OH222833   1.887   6.249   0.877  0.8671 -0.4789  0.5083
  425TIP3    H122834   1.848   6.269   0.962 -0.3797 -1.4320  0.1929
  425TIP3    H222835   1.948   6.321   0.861  0.0151  0.5039  1.5323
  426TIP3   OH222836   4.631   0.410   3.128 -0.5835 -0.1860  0.6282
  426TIP3    H122837   4.539   0.398   3.154 -1.0737  1.6238 -0.1067
  426TIP3    H222838   4.677   0.340   3.173 -2.4312 -1.6515  0.3664
  427TIP3   OH222839   4.681   1.549   2.727 -0.6560  0.2432 -0.0927
  427TIP3    H122840   4.650   1.636   2.706 -1.1730  0.0053 -0.3310
  427TIP3    H222841   4.630   1.523   2.803 -2.3363 -0.8265 -1.5006
  428TIP3   OH222842   1.881   5.619   1.499 -0.0923 -0.6800 -0.2879
  428TIP3    H122843   1.901   5.623   1.406 -0.4163 -0.1199 -0.3349
  428TIP3    H222844   1.965   5.596   1.541  0.2657 -0.0169 -0.6317
  429TIP3   OH222845   2.170   0.337   0.231 -0.0040 -0.3030  0.2930
  429TIP3    H122846   2.241   0.390   0.266 -0.6111  0.3117  0.6215
  429TIP3    H222847   2.146   0.381   0.149 -0.2379 -0.3006  0.3621
  430TIP3   OH222848   5.078   4.522   2.134 -0.4255  0.4316 -0.0352
  430TIP3    H122849   5.156   4.574   2.153  1.0633 -1.5354 -0.3837
  430TIP3    H222850   5.110   4.450   2.080 -2.8221  0.4873 -1.6774
  431TIP3   OH222851   2.968   1.957   8.040 -0.2653 -0.4127  0.0332
  431TIP3    H122852   2.898   2.021   8.052 -1.3258 -1.3985 -0.6914
  431TIP3    H222853   3.013   1.985   7.960 -0.4792 -0.3571 -0.0670
  432TIP3   OH222854   1.830   5.759   3.168 -0.3430  0.0311  0.0174
  432TIP3    H122855   1.800   5.810   3.243 -0.5276  1.1322 -0.7808
  432TIP3    H222856   1.756   5.702   3.148  0.2039 -1.2785  1.4914
  433TIP3   OH222857   3.155   1.336   0.917  0.4124 -0.4189 -0.4051
  433TIP3    H122858   3.235   1.337   0.865  0.3511 -0.8432 -0.5062
  433TIP3    H222859   3.099   1.271   0.876 -0.1673  0.1905 -0.5975
  434TIP3   OH222860   5.694   5.232   0.406  0.4234 -0.0841  0.5913
  434TIP3    H122861   5.686   5.205   0.314  0.5168  0.7384  0.3397
  434TIP3    H222862   5.788   5.238   0.422  0.4676 -1.7501  1.2086
  435TIP3   OH222863   1.586   2.155   8.066 -0.2352 -0.0527  0.9702
  435TIP3    H122864   1.575   2.099   7.990  3.2105 -0.4130  0.5683
  435TIP3    H222865   1.595   2.243   8.030  2.6508 -0.3620  0.6700
  436TIP3   OH222866   1.861   2.428   0.587 -0.5893  1.0820  0.0844
  436TIP3    H122867   1.882   2.396   0.675 -1.7367 -0.3338 -0.1188
  436TIP3    H222868   1.768   2.406   0.575 -1.1601  3.5531 -0.5199
  437TIP3   OH222869   5.375   6.213   0.289 -0.2384 -0.1133  0.3003
  437TIP3    H122870   5.284   6.244   0.293 -0.6780 -1.1385 -1.0565
  437TIP3    H222871   5.368   6.120   0.267  1.1458 -0.1200 -0.2280
  438TIP3   OH222872   1.857   1.534   1.980  0.0521  0.2992 -0.3309
  438TIP3    H122873   1.802   1.603   1.943  0.5917  1.7026  1.3118
  438TIP3    H222874   1.931   1.527   1.920 -0.7498  0.0465 -1.3159
  439TIP3   OH222875   5.348   4.745   2.401 -0.4332 -0.6564 -0.1836
  439TIP3    H122876   5.326   4.838   2.391 -0.9882 -0.4949  1.9200
  439TIP3    H222877   5.309   4.702   2.326 -2.4841  0.5007  0.1605
  440TIP3   OH222878   4.772   6.302   1.085  0.0014 -0.0004  0.1151
  440TIP3    H122879   4.796   6.213   1.110 -0.2866  0.7638  3.6675
  440TIP3    H222880   4.693   6.292   1.032  0.4349 -1.8916 -0.2121
  441TIP3   OH222881   6.303   4.430   0.087 -0.2369  0.4110  0.3350
  441TIP3    H122882   6.221   4.420   0.038 -0.1110  0.5498  0.0918
  441TIP3    H222883   6.365   4.373   0.041 -0.0354  0.7871  0.1369
  442TIP3   OH222884   5.852   5.088   1.567  0.2372  0.5259 -0.3819
  442TIP3    H122885   5.801   5.168   1.553 -0.9105 -0.2426 -0.7511
  442TIP3    H222886   5.943   5.114   1.552 -0.1567  1.6710 -0.8688
  443TIP3   OH222887   5.182   4.701   8.043 -0.4819 -0.2938  0.1222
  443TIP3    H122888   5.239   4.624   8.045  0.1528  0.1508 -0.3018
  443TIP3    H222889   5.096   4.667   8.019 -0.0424 -0.7814 -0.8224
  444TIP3   OH222890   3.083   2.037   0.783  0.2979 -0.2127 -0.0675
  444TIP3    H122891   3.005   2.006   0.737  0.1792 -1.2468  0.7687
  444TIP3    H222892   3.157   1.996   0.737  0.4203  1.1930 -1.1928
  445TIP3   OH222893   0.638   0.891   0.268 -0.6554  0.2669 -0.6118
  445TIP3    H122894   0.716   0.838   0.254 -1.6147 -1.3218 -0.2817
  445TIP3    H222895   0.651   0.969   0.215 -0.2509 -1.4268 -3.1554
  446TIP3   OH222896   4.403   0.227   1.450  0.3469  0.8230 -0.5214
  446TIP3    H122897   4.310   0.224   1.425  0.1381  0.6095  0.2524
  446TIP3    H222898   4.442   0.153   1.405 -0.0068  0.4949 -0.3010
  447TIP3   OH222899   3.773   2.801   2.880 -0.2231 -0.3100  0.1526
  447TIP3    H122900   3.764   2.782   2.973 -1.4406 -0.3678  0.0369
  447TIP3    H222901   3.830   2.731   2.847 -0.9115 -1.1130  0.6027
  448TIP3   OH222902   3.685   2.993   1.077  0.3366 -0.2729  0.3217
  448TIP3    H122903   3.687   2.929   1.005  2.8886  0.2286 -0.1282
  448TIP3    H222904   3.698   2.940   1.156 -1.0180 -0.6496  0.3283
  449TIP3   OH222905   1.815   5.990   1.883 -0.0180 -0.6670 -0.6116
  449TIP3    H122906   1.841   5.977   1.792 -1.4118 -0.0650 -1.1314
  449TIP3    H222907   1.720   5.997   1.880 -0.0659 -0.2639  0.8523
  450TIP3   OH222908   6.571   6.254   0.466  0.5329  0.3501  0.2328
  450TIP3    H122909   6.541   6.243   0.375 -1.6274 -0.4799  0.9777
  450TIP3    H222910   6.592   6.166   0.496  1.6766  0.6743  0.4255
  451TIP3   OH222911   3.738   5.715   2.681  0.2940  0.5809  0.4336
  451TIP3    H122912   3.643   5.724   2.683  0.2305  0.0237  0.0297
  451TIP3    H222913   3.768   5.762   2.759 -0.2861  1.0401  0.3899
  452TIP3   OH222914   3.412   3.373   1.419  0.2117  0.1348 -0.5122
  452TIP3    H122915   3.322   3.393   1.394 -0.2190 -0.1533  0.7236
  452TIP3    H222916   3.435   3.442   1.482 -0.6207 -1.9510  2.3104
  453TIP3   OH222917   5.980   3.206   0.330 -0.3267  0.0017  0.6031
  453TIP3    H122918   6.024   3.242   0.407 -0.4463 -0.7835  1.0527
  453TIP3    H222919   6.034   3.133   0.303  2.2260  2.8229 -2.8233
  454TIP3   OH222920   4.599   2.052   3.215 -0.9219 -0.4247 -0.0384
  454TIP3    H122921   4.543   1.990   3.261 -2.3891  1.2020  0.4894
  454TIP3    H222922   4.543   2.128   3.198 -0.1008 -0.4233 -3.4758
  455TIP3   OH222923   4.932   0.607   1.339 -0.0186  0.9054  0.3584
  455TIP3    H122924   4.911   0.538   1.403  1.5081  0.3466  0.3180
  455TIP3    H222925   4.948   0.684   1.393 -0.7201  0.9613  0.4909
  456TIP3   OH222926   6.826   1.982   2.038 -0.4618  0.3024  0.1615
  456TIP3    H122927   6.876   2.020   2.110 -1.8782  1.4508  0.6078
  456TIP3    H222928   6.850   2.034   1.961  0.1628 -0.1478  0.0501
  457TIP3   OH222929   6.173   2.410   1.516 -0.4269 -0.0286  0.0983
  457TIP3    H122930   6.118   2.484   1.543 -0.8627 -0.4164  0.2917
  457TIP3    H222931   6.263   2.441   1.530 -0.6165  0.2710  0.7108
  458TIP3   OH222932   0.030   0.051   1.382 -0.3547 -0.3532  0.1361
  458TIP3    H122933  -0.000   0.011   1.300 -0.3810 -0.7366  0.3313
  458TIP3    H222934   0.098  -0.009   1.414 -1.0701 -0.7659  0.9339
  459TIP3   OH222935   1.297   2.825   0.042 -0.1240  0.3575  0.0932
  459TIP3    H122936   1.209   2.798   0.016 -0.6156  1.4912  0.5168
  459TIP3    H222937   1.320   2.767   0.114 -0.7626  0.4164  0.3507
  460TIP3   OH222938   3.905   4.020   1.693 -0.3320  0.2212 -0.4150
  460TIP3    H122939   3.997   4.029   1.719 -0.2706 -1.1134 -0.1093
  460TIP3    H222940   3.892   3.926   1.682 -2.7304 -0.1721  3.6707
  461TIP3   OH222941   2.999   0.770   7.838 -0.4892 -0.3675 -0.4498
  461TIP3    H122942   2.914   0.791   7.875 -0.5037 -0.3641 -0.4848
  461TIP3    H222943   3.045   0.854   7.834  0.3452 -0.6618  1.6162
  462TIP3   OH222944   0.428   5.993   1.242 -0.1358 -0.6812  0.4683
  462TIP3    H122945   0.492   6.045   1.290 -0.5193  1.5287 -1.2279
  462TIP3    H222946   0.346   6.042   1.252 -0.8531 -1.7463 -0.0278
  463TIP3   OH222947   3.284   5.400   1.009 -0.2576 -0.0135  0.1271
  463TIP3    H122948   3.220   5.403   0.938 -0.1438  0.2429  0.0356
  463TIP3    H222949   3.318   5.489   1.015 -0.2940 -0.0252  0.5288
  464TIP3   OH222950   4.809   2.849   2.207  0.0364  0.8275  0.1655
  464TIP3    H122951   4.726   2.850   2.255 -0.6150  0.9751 -0.9294
  464TIP3    H222952   4.803   2.773   2.149 -0.0882  1.7985 -1.1526
  465TIP3   OH222953   0.763   5.260   0.249 -0.3074 -0.2708  0.0592
  465TIP3    H122954   0.734   5.349   0.228 -0.2561 -0.4823 -0.9696
  465TIP3    H222955   0.839   5.245   0.192  0.7151 -0.3923  1.4063
  466TIP3   OH222956   0.137   5.847   3.126 -0.2276  0.3156  0.0435
  466TIP3    H122957   0.128   5.863   3.032 -1.4587  1.7074  0.3496
  466TIP3    H222958   0.164   5.932   3.161  1.0576 -0.4034  0.8740
  467TIP3   OH222959   5.233   4.455   8.426 -0.6415  0.4729  0.0024
  467TIP3    H122960   5.167   4.426   8.364  1.6502 -0.9093 -1.9436
  467TIP3    H222961   5.270   4.535   8.388  0.6458 -0.2721 -0.3717
  468TIP3   OH222962   1.404   6.939   2.463  0.0614  0.0711  0.3885
  468TIP3    H122963   1.486   6.989   2.458 -0.0525  0.2895  0.6662
  468TIP3    H222964   1.354   6.967   2.386  0.5300 -0.5791 -0.1687
  469TIP3   OH222965   1.386   1.913   7.203 -0.1445 -0.4783  0.6405
  469TIP3    H122966   1.292   1.922   7.222 -0.7201 -0.7351 -1.7400
  469TIP3    H222967   1.398   1.819   7.188  0.8882 -0.6904  2.4814
  470TIP3   OH222968   3.013   5.168   2.076  0.6775 -0.4083  0.9094
  470TIP3    H122969   3.002   5.080   2.111  1.4417 -1.1007 -0.4910
  470TIP3    H222970   2.959   5.169   1.997  1.1750  0.1597  0.5638
  471TIP3   OH222971   1.153   0.023   2.573  0.0241  0.2570 -0.0966
  471TIP3    H122972   1.244  -0.006   2.573  0.0264  0.2513 -0.8027
  471TIP3    H222973   1.102  -0.058   2.570  0.0097  0.2817 -0.5636
  472TIP3   OH222974   3.486   1.087   2.530  0.0704 -0.3462 -0.5300
  472TIP3    H122975   3.525   1.027   2.467 -0.2863  0.6812 -1.7851
  472TIP3    H222976   3.561   1.127   2.574  0.3062 -2.0732  0.7298
  473TIP3   OH222977   0.011   0.256   8.113  0.2607  0.7172 -0.4390
  473TIP3    H122978  -0.067   0.206   8.091 -0.1028  0.7441  0.7238
  473TIP3    H222979  -0.022   0.336   8.154  0.8683 -0.2658  2.1765
  474TIP3   OH222980   2.925   1.514   1.050  0.0253 -0.2005 -0.6652
  474TIP3    H122981   2.897   1.470   0.969  0.6279  0.4237 -1.2251
  474TIP3    H222982   3.005   1.561   1.026 -0.5063  1.0835 -0.0572
  475TIP3   OH222983   4.516   0.398   2.375  0.4888 -0.0530 -0.3493
  475TIP3    H122984   4.451   0.430   2.312 -0.3378  1.7816  1.3118
  475TIP3    H222985   4.483   0.313   2.403 -0.1356 -0.0399 -1.0182
  476TIP3   OH222986   5.491   4.119   8.206 -0.1102 -0.4758  0.3076
  476TIP3    H122987   5.538   4.103   8.124  0.0058  1.1741  0.0279
  476TIP3    H222988   5.552   4.169   8.260 -0.7271 -0.2585  0.8185
  477TIP3   OH222989   6.505   1.387   0.123 -0.1660  0.1957  0.2082
  477TIP3    H122990   6.498   1.413   0.215  1.1586 -0.4459  0.5145
  477TIP3    H222991   6.588   1.339   0.118 -1.0433 -1.2803 -0.9527
  478TIP3   OH222992   6.530   1.634   8.173 -0.4027 -0.0591  0.4569
  478TIP3    H122993   6.496   1.575   8.241 -0.4816 -0.1544  0.3357
  478TIP3    H222994   6.462   1.634   8.105 -0.9050  1.0223  0.9348
  479TIP3   OH222995   4.593   1.693   1.211  0.4461  0.0661  0.3204
  479TIP3    H122996   4.500   1.685   1.230  0.6358 -2.1088  0.5151
  479TIP3    H222997   4.611   1.787   1.219 -1.8252  0.6118 -0.2962
  480TIP3   OH222998   6.886   0.846   0.264 -0.0155  0.3362  0.1620
  480TIP3    H122999   6.804   0.796   0.257 -0.0119  0.5118 -1.2967
  480TIP3    H223000   6.899   0.856   0.359 -0.4363 -1.7310  0.4954
  481TIP3   OH223001   6.689   6.340   2.598 -0.2475 -0.1287  0.2222
  481TIP3    H123002   6.629   6.402   2.557  1.0920  0.6363 -0.6694
  481TIP3    H223003   6.742   6.393   2.657  0.9939 -0.3772 -0.6384
  482TIP3   OH223004   3.119   0.979   2.734  0.1192 -0.0916 -0.0209
  482TIP3    H123005   3.184   0.945   2.671 -1.1878 -3.4173  0.1899
  482TIP3    H223006   3.088   0.900   2.779 -2.6166  1.6197  1.2874
  483TIP3   OH223007   1.792   4.104   7.790  0.5898 -0.4822 -0.0876
  483TIP3    H123008   1.829   4.112   7.702 -3.0490  0.6788 -1.6709
  483TIP3    H223009   1.734   4.029   7.785  0.6088 -0.6321  1.4905
  484TIP3   OH223010   6.803   0.472   3.882  0.0472  0.2442  0.0990
  484TIP3    H123011   6.867   0.429   3.826 -1.6309 -1.8058 -0.3896
  484TIP3    H223012   6.848   0.482   3.967  1.5827  0.5994 -0.7174
  485TIP3   OH223013   6.430   2.520   1.537  0.1315 -0.2921  0.1755
  485TIP3    H123014   6.436   2.608   1.572  1.9975  0.4630 -1.7533
  485TIP3    H223015   6.417   2.533   1.443  4.2171 -1.8053 -0.8438
  486TIP3   OH223016   6.943   1.220   1.071 -0.6239 -0.1809 -0.2493
  486TIP3    H123017   6.928   1.130   1.100 -2.1657 -0.0037 -0.4100
  486TIP3    H223018   6.855   1.255   1.054 -0.1271  1.6955  0.7903
  487TIP3   OH223019   5.112   5.101   0.765  0.6533 -0.2877 -0.0646
  487TIP3    H123020   5.135   5.026   0.820  1.1623  0.4428  0.7515
  487TIP3    H223021   5.177   5.168   0.788  0.2089  0.4032 -0.7741
  488TIP3   OH223022   4.333   3.593   1.761 -0.4948  0.4267  0.1688
  488TIP3    H123023   4.375   3.545   1.833  0.4102 -0.8406 -1.1348
  488TIP3    H223024   4.261   3.536   1.734 -0.8284  0.8983  0.0519
  489TIP3   OH223025   5.268   1.688   8.246  0.3557  0.0800 -0.5259
  489TIP3    H123026   5.198   1.722   8.302  1.0602  0.0474  0.4020
  489TIP3    H223027   5.308   1.618   8.298  0.4298 -0.5885 -1.4607
  490TIP3   OH223028   5.572   2.302   2.213 -0.8149 -0.3145  0.5735
  490TIP3    H123029   5.630   2.360   2.261 -1.6140 -0.8206  2.2152
  490TIP3    H223030   5.489   2.306   2.259 -1.2744 -1.7555 -0.0420
  491TIP3   OH223031   0.080   2.202   1.910 -0.1069 -0.4582  0.3134
  491TIP3    H123032   0.069   2.206   2.005 -0.2942 -1.8428  0.3818
  491TIP3    H223033   0.167   2.238   1.894 -0.0233 -0.3254  1.0298
  492TIP3   OH223034   5.792   5.559   1.963  0.5935  0.6790 -0.8974
  492TIP3    H123035   5.737   5.485   1.990  0.2861  1.1432 -0.2262
  492TIP3    H223036   5.857   5.521   1.905 -0.2480  0.0570 -1.4586
  493TIP3   OH223037   5.836   4.646   1.110 -0.1389  0.6729  0.0394
  493TIP3    H123038   5.892   4.575   1.142  0.2044  0.2154 -1.4900
  493TIP3    H223039   5.764   4.650   1.173  0.7736  0.1835  1.1373
  494TIP3   OH223040   3.978   1.403   0.659  0.4826 -0.0037 -0.4629
  494TIP3    H123041   3.947   1.314   0.676 -0.2866  0.3304 -0.0649
  494TIP3    H223042   4.072   1.399   0.674  0.2208 -0.3471  1.3286
  495TIP3   OH223043   5.635   3.815   1.829 -0.4467 -0.3347  0.1099
  495TIP3    H123044   5.636   3.818   1.924 -0.2737 -0.8572  0.1310
  495TIP3    H223045   5.672   3.899   1.802  0.5263 -0.6154  0.5184
  496TIP3   OH223046   1.834   2.489   0.869 -0.9302  0.1050  0.6585
  496TIP3    H123047   1.892   2.529   0.934 -0.4980  1.1933 -0.3497
  496TIP3    H223048   1.759   2.549   0.865 -0.6940  0.3578 -0.2291
  497TIP3   OH223049   0.256   3.450   1.025 -0.4055 -0.6808  0.2060
  497TIP3    H123050   0.281   3.421   1.113  1.8318 -3.2722 -1.1218
  497TIP3    H223051   0.244   3.369   0.976 -0.6835  0.6819 -2.1074
  498TIP3   OH223052   5.519   6.127   1.721  0.7488  0.6108  0.5881
  498TIP3    H123053   5.450   6.091   1.778  0.8495 -1.0292 -0.2524
  498TIP3    H223054   5.483   6.118   1.632  2.4807 -1.4819  0.0119
  499TIP3   OH223055   6.772   0.853   3.393 -0.0979  0.3174  0.1873
  499TIP3    H123056   6.854   0.838   3.440 -0.6103 -2.1785  0.4262
  499TIP3    H223057   6.796   0.913   3.323  2.9866 -3.1788 -2.1890
  500TIP3   OH223058   5.890   2.591   3.133 -0.0366 -0.4879 -0.3192
  500TIP3    H123059   5.817   2.542   3.095 -0.2200 -0.0494 -0.5473
  500TIP3    H223060   5.960   2.526   3.144 -1.1492 -1.3999  1.8909
  501TIP3   OH223061   5.725   3.437   0.419  0.7002  0.2339 -0.5228
  501TIP3    H123062   5.747   3.351   0.455  1.8587  1.5094  2.1402
  501TIP3    H223063   5.759   3.436   0.330  1.4330 -1.7567 -0.2697
  502TIP3   OH223064   1.793   5.690   2.631  0.2595  0.1907  0.1453
  502TIP3    H123065   1.730   5.732   2.689 -1.4568 -0.6306 -1.0658
  502TIP3    H223066   1.820   5.760   2.571 -0.0334  0.3670  0.2157
  503TIP3   OH223067   6.895   2.433   0.801  0.1670 -0.4485 -0.1172
  503TIP3    H123068   6.809   2.407   0.835 -0.3922  0.1720 -1.0225
  503TIP3    H223069   6.883   2.437   0.706  1.0799  0.0759 -0.2207
  504TIP3   OH223070   1.874   2.393   2.689 -0.4255  0.0767 -0.0896
  504TIP3    H123071   1.782   2.409   2.667 -0.6316  0.3325  0.9136
  504TIP3    H223072   1.875   2.380   2.784  0.4489 -0.8717 -0.2032
  505TIP3   OH223073   2.271   3.745   1.559  0.6229 -0.6954 -0.0629
  505TIP3    H123074   2.235   3.694   1.487 -0.4087 -0.3658  0.1965
  505TIP3    H223075   2.195   3.769   1.611  1.4527 -1.8708  1.7775
  506TIP3   OH223076   5.152   5.187   0.093  0.2933  0.7140 -0.2154
  506TIP3    H123077   5.147   5.135   0.013 -2.0672 -0.8266  0.8208
  506TIP3    H223078   5.061   5.193   0.124  1.2632 -0.4442  3.3533
  507TIP3   OH223079   3.729   5.653   0.188 -0.7103  0.2599  0.0252
  507TIP3    H123080   3.706   5.724   0.248  1.6248  0.4507  0.8176
  507TIP3    H223081   3.776   5.697   0.117  0.0971 -0.3723  0.1478
  508TIP3   OH223082   2.181   2.093   1.004 -0.0362  0.2061 -0.0587
  508TIP3    H123083   2.131   2.012   0.997  0.3532 -0.1417  1.0910
  508TIP3    H223084   2.270   2.069   0.981  0.1775  0.1935  0.7594
  509TIP3   OH223085   3.516   4.047   8.398  0.4328  0.2865  0.3739
  509TIP3    H123086   3.504   4.070   8.306  1.7157  0.0494  0.1305
  509TIP3    H223087   3.509   4.131   8.444 -2.3604  0.1745  0.3580
  510TIP3   OH223088   4.251   1.333   0.723 -0.2597 -0.2598 -0.4446
  510TIP3    H123089   4.248   1.378   0.807 -2.1474 -0.5612 -0.3073
  510TIP3    H223090   4.335   1.285   0.724 -0.2948 -0.3442  1.2973
  511TIP3   OH223091   3.886   5.751   1.809  0.1750  0.3178  0.2417
  511TIP3    H123092   3.955   5.704   1.855  0.6163 -0.5492 -1.2626
  511TIP3    H223093   3.832   5.683   1.769 -0.6803  1.0312  0.1378
  512TIP3   OH223094   5.388   0.422   2.632  0.3292 -0.1144 -0.3264
  512TIP3    H123095   5.425   0.334   2.641 -1.4445 -0.9020 -0.2677
  512TIP3    H223096   5.398   0.442   2.539  0.9042 -0.2969 -0.3081
  513TIP3   OH223097   6.150   4.526   2.114  0.9478  0.0905  0.3877
  513TIP3    H123098   6.186   4.546   2.200  0.9441 -1.5915  0.8181
  513TIP3    H223099   6.099   4.446   2.127 -1.7215  1.5291 -0.5384
  514TIP3   OH223100   6.251   4.412   7.602 -0.8993 -0.5216 -0.0322
  514TIP3    H123101   6.302   4.465   7.541 -0.5789  1.1353  1.6031
  514TIP3    H223102   6.225   4.335   7.551 -0.1561  0.5092 -2.0590
  515TIP3   OH223103   6.652   4.235   1.228 -0.5402 -0.2691 -0.0323
  515TIP3    H123104   6.618   4.157   1.183 -0.9079 -0.0333 -0.1644
  515TIP3    H223105   6.638   4.217   1.321  0.3806 -0.8329  0.0105
  516TIP3   OH223106   0.175   5.724   0.654 -0.1972  0.2907  0.0632
  516TIP3    H123107   0.253   5.736   0.707  0.4924 -0.3015 -0.7918
  516TIP3    H223108   0.179   5.633   0.624 -1.1782  0.2721 -0.0453
  517TIP3   OH223109   1.816   4.912   0.634  0.7436  0.3674 -0.7223
  517TIP3    H123110   1.821   4.870   0.548 -2.0565 -2.0081  0.1196
  517TIP3    H223111   1.784   4.843   0.693 -2.3121  3.1359  1.1967
  518TIP3   OH223112   0.935   4.739   1.469 -0.0788 -0.1548  0.1345
  518TIP3    H123113   0.963   4.719   1.380 -0.4934 -0.0818 -0.0135
  518TIP3    H223114   0.850   4.697   1.478 -0.3712  0.4489  0.2541
  519TIP3   OH223115   2.118   4.459   1.828 -0.0151 -0.6700  0.0925
  519TIP3    H123116   2.158   4.491   1.746  1.3629 -0.8464  0.6687
  519TIP3    H223117   2.131   4.365   1.826 -0.9455 -0.8086  0.0334
  520TIP3   OH223118   2.443   4.859   0.877 -0.2921  0.3361 -0.0590
  520TIP3    H123119   2.469   4.773   0.909  0.3647  0.2386 -0.8038
  520TIP3    H223120   2.364   4.881   0.926  1.1653  0.6472  2.3307
  521TIP3   OH223121   0.143   1.683   1.997  0.5898 -0.3007 -0.5933
  521TIP3    H123122   0.098   1.736   1.932  1.2183  4.3878  2.3358
  521TIP3    H223123   0.236   1.690   1.975  0.5890 -2.3601 -1.4932
  522TIP3   OH223124   4.562   1.578   0.606  0.2278  0.4061 -0.5260
  522TIP3    H123125   4.645   1.617   0.634  0.7243 -0.5429 -0.6306
  522TIP3    H223126   4.510   1.652   0.575  0.4719  1.2220  0.9056
  523TIP3   OH223127   3.381   3.454   0.464  0.8561  0.1272  0.2574
  523TIP3    H123128   3.447   3.385   0.470  1.2459  0.2952 -1.7067
  523TIP3    H223129   3.429   3.530   0.432 -0.1154  0.5015 -0.3260
  524TIP3   OH223130   5.270   5.670   3.797 -0.2230  0.0164  0.0658
  524TIP3    H123131   5.352   5.622   3.814 -0.8981 -1.5414 -0.8388
  524TIP3    H223132   5.246   5.644   3.708 -2.3826 -0.6008  0.7841
  525TIP3   OH223133   5.751   5.999   8.407 -0.5282  0.1505  0.2670
  525TIP3    H123134   5.726   6.087   8.378  1.1472  0.5503 -0.0635
  525TIP3    H223135   5.815   6.014   8.476  1.6428 -0.7299 -1.4249
  526TIP3   OH223136   6.032   5.844   1.201  0.1188 -0.1559  0.0256
  526TIP3    H123137   5.948   5.878   1.169 -0.6856 -0.3708  1.7941
  526TIP3    H223138   6.041   5.881   1.289  3.9521  3.3331 -1.5209
  527TIP3   OH223139   0.011   2.142   2.203  0.3985 -0.5284 -0.5319
  527TIP3    H123140  -0.029   2.108   2.283 -1.9900  0.5310 -1.1909
  527TIP3    H223141   0.079   2.203   2.235 -2.2741  1.9828  0.8773
  528TIP3   OH223142   4.197   6.726   8.239  0.0629 -0.4721  0.2181
  528TIP3    H123143   4.173   6.754   8.150 -3.4206 -0.6510  0.9344
  528TIP3    H223144   4.228   6.636   8.228 -1.3529 -0.8885 -0.7996
  529TIP3   OH223145   5.774   3.791   3.045  0.7311  0.5057  0.0773
  529TIP3    H123146   5.715   3.769   3.117 -0.7521  2.1446 -0.5949
  529TIP3    H223147   5.728   3.763   2.966  1.2859  0.9083 -0.3979
  530TIP3   OH223148   5.777   2.016   2.755  0.4502 -0.1801  0.3534
  530TIP3    H123149   5.691   1.990   2.722  0.3448  0.1748  0.3460
  530TIP3    H223150   5.761   2.098   2.801  1.1440  1.0882 -1.5378
  531TIP3   OH223151   3.510   2.464   8.365  0.1381 -0.3588 -0.1318
  531TIP3    H123152   3.423   2.429   8.384  0.4492 -0.1839  1.9018
  531TIP3    H223153   3.494   2.538   8.306 -1.1846  0.0812  0.7179
  532TIP3   OH223154   2.665   2.803   1.268 -0.7671  0.4029  0.1155
  532TIP3    H123155   2.701   2.789   1.181 -1.8841 -1.3388 -0.1434
  532TIP3    H223156   2.731   2.768   1.328 -0.9922 -0.6023 -0.2040
  533TIP3   OH223157   6.670   5.547   0.383 -0.1819  0.0620  0.3988
  533TIP3    H123158   6.663   5.641   0.371 -0.5704 -0.1288 -0.9726
  533TIP3    H223159   6.600   5.525   0.445 -0.8297  0.5169 -0.1649
  534TIP3   OH223160   6.670   0.241   1.128 -0.2046 -0.5139 -0.0623
  534TIP3    H123161   6.637   0.152   1.128 -0.8849 -0.2796  0.8805
  534TIP3    H223162   6.697   0.257   1.218  1.2969 -0.2438 -0.5208
  535TIP3   OH223163   3.475   2.859   7.971  0.1849  0.3085 -0.1025
  535TIP3    H123164   3.413   2.927   7.946  1.8345  2.1336  0.5139
  535TIP3    H223165   3.491   2.810   7.890 -1.9466 -0.1832 -0.2871
  536TIP3   OH223166   2.121   3.693   0.338 -0.7587 -0.0734 -0.3157
  536TIP3    H123167   2.094   3.623   0.397 -0.2975  0.9503  1.1680
  536TIP3    H223168   2.202   3.661   0.298 -2.3923 -1.8752 -2.4787
  537TIP3   OH223169   6.582   0.971   3.547 -0.3755  0.2699  0.3831
  537TIP3    H123170   6.569   0.879   3.573 -0.1320  0.7931  2.5169
  537TIP3    H223171   6.658   0.969   3.490 -1.2579 -1.0305 -0.8111
  538TIP3   OH223172   0.001   5.229   1.729 -0.1589  0.4404  0.2861
  538TIP3    H123173   0.058   5.175   1.784 -0.7050  1.8737  2.4069
  538TIP3    H223174  -0.042   5.167   1.670  0.0468 -1.3072  1.8641
  539TIP3   OH223175   0.113   1.752   1.587 -0.2490  0.0738  0.4462
  539TIP3    H123176   0.174   1.677   1.583 -0.6391 -0.1953 -0.9255
  539TIP3    H223177   0.045   1.731   1.523  0.0040  1.9337 -0.4884
  540TIP3   OH223178   5.774   5.584   0.128  0.0864  0.1655 -0.2296
  540TIP3    H123179   5.711   5.521   0.093  0.5820 -0.3197 -0.2606
  540TIP3    H223180   5.730   5.621   0.205  0.2363 -1.0640  0.4781
  541TIP3   OH223181   0.038   5.331   2.710 -0.0026 -0.7050  0.3834
  541TIP3    H123182   0.037   5.244   2.669  0.2661 -0.6147  0.1861
  541TIP3    H223183   0.113   5.375   2.671 -0.1050 -0.4027  0.5282
  542TIP3   OH223184   4.405   1.462   2.625  0.6746 -0.1804 -0.1182
  542TIP3    H123185   4.337   1.488   2.687  0.5514  2.2185 -1.1333
  542TIP3    H223186   4.484   1.456   2.678  0.2237 -0.0165  0.5903
  543TIP3   OH223187   2.428   3.415   8.278 -0.2826 -0.1554 -0.0434
  543TIP3    H123188   2.482   3.386   8.205  0.7329 -0.0810  0.6688
  543TIP3    H223189   2.338   3.396   8.250 -0.0386  1.0723 -1.8605
  544TIP3   OH223190   2.947   0.467   8.367  0.0902 -0.0559 -0.5220
  544TIP3    H123191   2.925   0.451   8.459  0.6816  0.7679 -0.2261
  544TIP3    H223192   3.043   0.473   8.367 -0.0206  3.3139 -0.5937
  545TIP3   OH223193   4.718   1.096   1.346  0.0580 -0.4881 -0.6729
  545TIP3    H123194   4.655   1.152   1.300  2.3134  3.5219  0.7287
  545TIP3    H223195   4.797   1.099   1.292  0.6397 -1.2635  0.1040
  546TIP3   OH223196   0.944   1.628   1.381 -0.0089 -1.4660 -0.5102
  546TIP3    H123197   0.958   1.688   1.307  0.2928 -0.7113  0.1446
  546TIP3    H223198   0.935   1.685   1.457  2.4999 -2.2823  0.5179
  547TIP3   OH223199   2.042   6.869   0.965  0.3716 -0.0184 -0.1864
  547TIP3    H123200   1.967   6.812   0.953  0.5656 -0.3246  0.0530
  547TIP3    H223201   2.114   6.823   0.921  0.7331 -0.3898  0.7710
  548TIP3   OH223202   6.874   3.059   1.092  0.1090  0.5713 -0.0960
  548TIP3    H123203   6.846   3.114   1.018  2.6212  1.5069 -0.4305
  548TIP3    H223204   6.855   2.969   1.064 -0.8360  1.0370 -1.0132
  549TIP3   OH223205   6.451   5.158   7.646 -0.3499 -0.2341 -0.1157
  549TIP3    H123206   6.362   5.129   7.667 -0.9148 -0.5390 -2.6364
  549TIP3    H223207   6.438   5.228   7.582  1.1770  1.9702  1.8349
  550TIP3   OH223208   2.374   3.751   0.209 -0.2060 -0.1333 -0.5038
  550TIP3    H123209   2.429   3.694   0.155  0.7250 -1.1565  1.4331
  550TIP3    H223210   2.352   3.824   0.151  0.3436 -1.3949 -2.3882
  551TIP3   OH223211   2.717   3.904   0.359 -0.0147 -0.1208 -0.2709
  551TIP3    H123212   2.794   3.945   0.399  0.6805 -1.3508 -0.2775
  551TIP3    H223213   2.647   3.968   0.370  0.6096  0.3459  1.2428
  552TIP3   OH223214   5.174   4.732   1.966  0.9820  0.4818 -0.2988
  552TIP3    H123215   5.082   4.759   1.964  0.9900  0.5676  0.2674
  552TIP3    H223216   5.172   4.638   1.948  0.8108  0.5411 -0.5927
  553TIP3   OH223217   2.825   3.689   8.060  0.1992  0.3977  0.0626
  553TIP3    H123218   2.786   3.637   8.131  1.0059  0.4958  0.5866
  553TIP3    H223219   2.826   3.629   7.985  0.4932 -0.1322  0.4787
  554TIP3   OH223220   2.111   2.103   0.596 -0.1905 -0.1212  0.2360
  554TIP3    H123221   2.086   2.169   0.660 -0.0502  2.3533 -2.0681
  554TIP3    H223222   2.034   2.095   0.539 -0.1255 -1.8576  0.3219
  555TIP3   OH223223   1.971   6.718   1.241 -0.1696  0.1116  0.7189
  555TIP3    H123224   1.895   6.775   1.227  1.0001  1.9048  1.1936
  555TIP3    H223225   1.958   6.681   1.328 -1.2073 -0.7925  0.1919
  556TIP3   OH223226   6.379   4.146   2.736 -0.0092  0.6088 -0.4275
  556TIP3    H123227   6.398   4.095   2.658 -0.4274  1.8161 -1.3551
  556TIP3    H223228   6.465   4.176   2.767  0.2694 -0.8352  0.2994
  557TIP3   OH223229   3.875   1.017   2.238  0.6340  0.1692 -0.0083
  557TIP3    H123230   3.902   1.095   2.189 -1.4919  0.0747 -1.4496
  557TIP3    H223231   3.803   1.046   2.293  0.7160 -0.4964  0.4675
  558TIP3   OH223232   4.372   2.200   2.600 -0.5019 -0.3067  1.1661
  558TIP3    H123233   4.402   2.287   2.574  0.3459 -0.5246  1.3768
  558TIP3    H223234   4.404   2.189   2.690  0.0136 -1.0941  0.9077
  559TIP3   OH223235   2.710   5.364   2.563 -0.3370  0.3849  0.0767
  559TIP3    H123236   2.715   5.325   2.475  0.7361  0.5794  0.0366
  559TIP3    H223237   2.645   5.311   2.609 -0.1208 -0.4066 -0.5034
  560TIP3   OH223238   0.877   1.060   7.670  0.2670 -0.2478 -0.8276
  560TIP3    H123239   0.928   0.985   7.700  1.4335  1.5384  2.2398
  560TIP3    H223240   0.927   1.095   7.596  2.1439 -0.1101  0.4178
  561TIP3   OH223241   6.254   5.346   3.180 -0.1786  0.5058 -0.0805
  561TIP3    H123242   6.228   5.303   3.262 -2.5502  2.7243  0.4357
  561TIP3    H223243   6.182   5.326   3.119  1.8963 -1.7659 -2.0226
  562TIP3   OH223244   5.448   5.118   1.143 -0.2094 -0.1068 -0.2318
  562TIP3    H123245   5.438   5.058   1.069 -1.1862  1.2371 -1.2335
  562TIP3    H223246   5.359   5.147   1.163  0.0885 -0.1488  1.2351
  563TIP3   OH223247   3.509   5.960   2.959  0.7777 -0.2041  0.2684
  563TIP3    H123248   3.598   5.964   2.924  0.7749 -0.9857  0.1523
  563TIP3    H223249   3.493   6.047   2.996  1.5776 -0.0514  0.2619
  564TIP3   OH223250   0.605   4.809   0.293  0.1114  0.1479 -0.0611
  564TIP3    H123251   0.572   4.730   0.336  2.6573 -1.0722 -0.1397
  564TIP3    H223252   0.687   4.829   0.339 -0.3119  2.6147 -0.2335
  565TIP3   OH223253   4.594   5.453   3.074 -0.9272 -0.3212  0.3140
  565TIP3    H123254   4.646   5.399   3.134  2.1586 -1.2971 -2.8849
  565TIP3    H223255   4.525   5.394   3.042 -1.5878 -0.2793  1.6059
  566TIP3   OH223256   4.060   6.471   0.195 -0.4038 -0.0652 -0.0869
  566TIP3    H123257   3.987   6.530   0.178 -0.4214  0.0504  0.3812
  566TIP3    H223258   4.126   6.494   0.130 -0.1830  0.8648  0.4504
  567TIP3   OH223259   4.528   3.788   8.209 -0.2055 -0.1958  0.1692
  567TIP3    H123260   4.592   3.748   8.149 -1.3089 -0.3281 -0.9562
  567TIP3    H223261   4.529   3.881   8.187  0.0326 -0.1030  0.5686
  568TIP3   OH223262   6.523   6.492   3.718  0.0360 -0.4404 -0.0228
  568TIP3    H123263   6.500   6.423   3.781  1.0987  0.3365  1.2577
  568TIP3    H223264   6.483   6.571   3.754  0.0184 -0.1188 -0.7408
  569TIP3   OH223265   2.787   5.897   0.240 -0.2951 -0.2441  0.1820
  569TIP3    H123266   2.733   5.967   0.277  0.5413  0.5778 -0.1162
  569TIP3    H223267   2.761   5.892   0.148 -1.6658 -1.6137  0.5941
  570TIP3   OH223268   6.826   5.471   0.597  0.2025 -0.1080  0.1677
  570TIP3    H123269   6.772   5.506   0.527 -0.3285 -1.1861  0.0133
  570TIP3    H223270   6.796   5.517   0.676 -1.2891 -0.9812  0.1621
  571TIP3   OH223271   5.499   2.539   8.177 -0.1025  1.3823  0.1458
  571TIP3    H123272   5.498   2.555   8.083  0.9313  1.3424  0.1205
  571TIP3    H223273   5.514   2.624   8.217 -1.3887  1.5465  0.3339
  572TIP3   OH223274   6.468   6.708   1.133 -0.6469  0.0665  0.0666
  572TIP3    H123275   6.380   6.700   1.096 -0.7993  0.6382  0.3026
  572TIP3    H223276   6.524   6.662   1.070 -1.0969 -0.2113 -0.1379
  573TIP3   OH223277   2.741   0.788   1.070 -0.0191  0.1105  0.0248
  573TIP3    H123278   2.834   0.803   1.085  0.0126 -1.7756  2.3334
  573TIP3    H223279   2.729   0.803   0.977  3.1342 -1.9054 -0.8764
  574TIP3   OH223280   4.188   2.501   2.630  0.4581  0.2809  0.1605
  574TIP3    H123281   4.146   2.587   2.631  0.2433  0.1782  1.0393
  574TIP3    H223282   4.154   2.458   2.552  1.6687  1.5134 -1.1132
  575TIP3   OH223283   4.937   6.076   0.256 -0.5548 -0.2145 -0.0241
  575TIP3    H123284   4.874   6.073   0.329 -1.2421  1.0980 -0.5407
  575TIP3    H223285   4.973   6.164   0.260 -0.3508 -0.2470 -1.0683
  576TIP3   OH223286   0.030   2.148   2.671 -0.2000  0.3336  0.0073
  576TIP3    H123287   0.070   2.072   2.713  0.0301  0.6273  0.3204
  576TIP3    H223288  -0.012   2.196   2.742  0.4878  1.0220 -0.0316
  577TIP3   OH223289   0.964   6.679   0.715  0.8648  0.1152 -0.0613
  577TIP3    H123290   1.006   6.753   0.759 -1.0100 -0.8191  3.6914
  577TIP3    H223291   0.876   6.676   0.751 -0.7663 -1.2309 -3.6259
  578TIP3   OH223292   1.571   6.320   8.121 -0.0632 -0.1420 -0.1125
  578TIP3    H123293   1.649   6.295   8.071  0.2331 -2.3745  1.3196
  578TIP3    H223294   1.517   6.241   8.122 -1.4647  0.7754  0.5559
  579TIP3   OH223295   3.480   6.229   3.039  0.4969  0.1967 -0.4215
  579TIP3    H123296   3.402   6.271   3.002  1.1330  1.0127 -0.8826
  579TIP3    H223297   3.482   6.258   3.130 -0.5201 -1.0003  0.0032
  580TIP3   OH223298   6.586   0.437   2.605 -0.3225  0.0785  0.1809
  580TIP3    H123299   6.571   0.505   2.671 -1.2889  0.4006 -0.3480
  580TIP3    H223300   6.644   0.479   2.541 -0.7047  0.3301 -0.0072
  581TIP3   OH223301   3.930   3.673   2.294  0.3989 -0.2325  0.0940
  581TIP3    H123302   3.855   3.685   2.235  1.1527  0.6049 -0.7095
  581TIP3    H223303   3.891   3.673   2.382 -0.6487 -0.7420 -0.3584
  582TIP3   OH223304   3.467   5.357   8.013 -1.1131  0.2719 -0.6760
  582TIP3    H123305   3.437   5.442   7.982 -0.4385  0.8473  0.1846
  582TIP3    H223306   3.476   5.368   8.108  2.1777  0.3205 -0.8874
  583TIP3   OH223307   3.805   2.433   8.404 -0.2604 -0.9187 -0.1018
  583TIP3    H123308   3.714   2.464   8.400 -1.1854 -3.2615  0.7578
  583TIP3    H223309   3.846   2.466   8.324 -0.6769  3.4354  1.2077
  584TIP3   OH223310   3.442   3.592   7.578  0.2984  0.3529 -0.1714
  584TIP3    H123311   3.461   3.682   7.550  0.9583 -0.1925 -1.5601
  584TIP3    H223312   3.372   3.563   7.519 -1.7842  0.7778  1.9424
  585TIP3   OH223313   3.626   0.766   0.989 -1.0117  0.2100  0.1757
  585TIP3    H123314   3.593   0.855   1.004  1.3462  0.9758  1.3545
  585TIP3    H223315   3.670   0.771   0.905  0.1832  0.5341  0.8007
  586TIP3   OH223316   5.995   5.248   0.477 -0.2690  0.3472 -0.4771
  586TIP3    H123317   6.059   5.206   0.535 -0.4550  0.3191 -0.2879
  586TIP3    H223318   5.979   5.333   0.517  0.9402  1.0679 -1.4667
  587TIP3   OH223319   0.679   1.362   2.374 -0.0404 -0.1166  0.4746
  587TIP3    H123320   0.649   1.271   2.379 -0.2006 -0.0884  0.0499
  587TIP3    H223321   0.771   1.358   2.398 -0.1449 -0.3356  0.8549
  588TIP3   OH223322   3.069   0.117   2.883 -0.1558 -0.3824 -0.4942
  588TIP3    H123323   3.062   0.037   2.935 -2.8336  0.0370 -0.0408
  588TIP3    H223324   3.041   0.187   2.943 -3.2711  0.1406 -2.3293
  589TIP3   OH223325   6.350   1.000   3.863  0.6580  0.2249 -0.5684
  589TIP3    H123326   6.438   1.032   3.847  0.8188 -0.0698 -0.2998
  589TIP3    H223327   6.361   0.905   3.871  0.0692 -0.0002 -2.2108
  590TIP3   OH223328   6.787   0.979   7.535 -0.3399  0.3504  0.4319
  590TIP3    H123329   6.829   0.940   7.612 -0.0704  0.7349  0.4844
  590TIP3    H223330   6.855   1.034   7.497 -1.0111  1.5484  0.9229
  591TIP3   OH223331   1.781   6.815   3.006  0.3814 -0.1263  0.0751
  591TIP3    H123332   1.854   6.764   2.970  0.3299 -1.1915  1.3888
  591TIP3    H223333   1.762   6.773   3.090 -0.4277  1.3837  0.6838
  592TIP3   OH223334   1.497   0.587   0.121 -0.4066 -0.0716 -0.4151
  592TIP3    H123335   1.548   0.564   0.043  0.1521  0.6106 -0.2574
  592TIP3    H223336   1.554   0.563   0.194 -0.3791  0.5284 -0.2361
  593TIP3   OH223337   0.415   4.988   0.365 -0.2237  0.1996  0.0897
  593TIP3    H123338   0.462   5.034   0.435  0.8012  1.2602 -1.2435
  593TIP3    H223339   0.476   4.919   0.337 -0.3379  0.2202 -0.2154
  594TIP3   OH223340   1.115   2.285   1.958  0.2080  0.0092 -0.1284
  594TIP3    H123341   1.024   2.261   1.978  0.2343 -1.7610 -1.8697
  594TIP3    H223342   1.154   2.303   2.044 -1.2775 -1.0568  0.8246
  595TIP3   OH223343   6.749   5.661   2.006 -0.1595 -0.0168  0.2542
  595TIP3    H123344   6.767   5.696   1.919  0.9421 -1.6657 -0.2303
  595TIP3    H223345   6.669   5.610   1.996  1.0044 -1.8249 -0.3287
  596TIP3   OH223346   2.458   6.234   8.254 -0.4497  0.3053  0.4854
  596TIP3    H123347   2.378   6.200   8.214  0.9189 -3.3618  0.4347
  596TIP3    H223348   2.526   6.220   8.188  0.6269  1.1894  1.3607
  597TIP3   OH223349   4.870   2.463   0.593 -0.7661 -0.3582  0.0083
  597TIP3    H123350   4.936   2.394   0.593  1.5090  1.6905 -0.0372
  597TIP3    H223351   4.826   2.455   0.677  0.5898 -0.8699  0.6940
  598TIP3   OH223352   0.077   6.135   8.305  0.2911  0.1476 -0.7136
  598TIP3    H123353   0.131   6.203   8.343 -0.7768  0.3863  0.4663
  598TIP3    H223354  -0.012   6.172   8.305 -0.6029 -1.7924  1.5007
  599TIP3   OH223355   1.952   4.359   8.137 -0.1894 -0.4217  0.0286
  599TIP3    H123356   1.938   4.355   8.232 -0.6694  0.4055  0.0052
  599TIP3    H223357   1.925   4.273   8.105  1.4470 -1.2731  0.8048
  600TIP3   OH223358   3.082   2.954   3.559 -0.5683 -0.6051  0.2557
  600TIP3    H123359   3.100   2.966   3.466 -0.6391 -0.3589  0.2723
  600TIP3    H223360   3.118   3.033   3.601 -0.0978 -0.9457  0.4948
  601TIP3   OH223361   4.105   0.256   1.207 -0.2810  0.4273  0.0854
  601TIP3    H123362   4.100   0.180   1.149  1.2557  0.3083  0.0724
  601TIP3    H223363   4.015   0.271   1.234 -0.8150 -0.4658 -1.1111
  602TIP3   OH223364   4.802   4.861   7.638 -0.0021  0.8512  0.5851
  602TIP3    H123365   4.766   4.780   7.602  0.6626  0.1422  1.4582
  602TIP3    H223366   4.728   4.921   7.641 -0.9998 -0.3700  1.7762
  603TIP3   OH223367   0.061   5.844   8.490  0.0609 -0.2005 -0.1746
  603TIP3    H123368  -0.015   5.854   8.546 -0.4167  0.1283 -0.8619
  603TIP3    H223369   0.078   5.750   8.487  1.3305 -0.1121  2.1123
  604TIP3   OH223370   2.307   6.073   1.579  0.4707 -0.0147  0.0200
  604TIP3    H123371   2.361   6.139   1.622  3.4002 -1.6763 -0.7920
  604TIP3    H223372   2.315   5.996   1.635 -0.1187 -0.6299 -0.7168
  605TIP3   OH223373   2.659   0.995   8.170 -0.3320  0.4871  0.0526
  605TIP3    H123374   2.700   1.036   8.246 -0.1969 -0.0491  0.2755
  605TIP3    H223375   2.619   1.067   8.122  0.8553  1.0266 -0.1572
  606TIP3   OH223376   4.869   5.009   1.157 -0.1201 -0.1237 -0.1637
  606TIP3    H123377   4.873   5.083   1.097  4.1747  0.2995  0.2884
  606TIP3    H223378   4.841   5.047   1.240 -0.3773  0.4710 -0.5161
  607TIP3   OH223379   1.768   4.044   0.560 -0.3401  0.6227 -0.9584
  607TIP3    H123380   1.743   4.126   0.518 -2.3997  1.5478  1.8128
  607TIP3    H223381   1.845   4.065   0.612 -0.6642  0.7322 -0.5170
  608TIP3   OH223382   0.860   0.012   2.788 -0.1967 -0.2805 -0.4295
  608TIP3    H123383   0.795   0.074   2.822 -0.1654 -0.5990  0.2345
  608TIP3    H223384   0.816  -0.031   2.715 -1.3250 -1.5964  0.9619
  609TIP3   OH223385   3.820   2.703   7.386 -0.7044  0.3549  0.0527
  609TIP3    H123386   3.912   2.708   7.412 -0.4862 -0.4042 -0.5238
  609TIP3    H223387   3.792   2.615   7.412 -1.4592  0.8119  0.8126
  610TIP3   OH223388   6.051   1.681   1.125 -0.4957  0.2455  0.6149
  610TIP3    H123389   6.111   1.699   1.198  1.2386  4.0070 -1.4945
  610TIP3    H223390   6.084   1.599   1.087  0.0375 -0.4902  2.5508
  611TIP3   OH223391   4.305   1.455   2.296 -0.1102 -0.1570 -0.3251
  611TIP3    H123392   4.338   1.527   2.243 -1.6603  0.9269  0.1056
  611TIP3    H223393   4.350   1.465   2.380 -0.4457  0.4324 -0.2102
  612TIP3   OH223394   2.407   4.799   3.231  0.0670 -0.6365 -0.6245
  612TIP3    H123395   2.354   4.788   3.310  1.9248  0.8577  0.9267
  612TIP3    H223396   2.460   4.720   3.225 -1.1821 -1.4562 -1.3256
  613TIP3   OH223397   6.854   3.828   1.546  0.0432  0.2998  0.2010
  613TIP3    H123398   6.877   3.876   1.626  0.6379  0.8144 -0.2730
  613TIP3    H223399   6.793   3.886   1.500  2.1965  1.5260 -1.2947
  614TIP3   OH223400   0.514   5.977   3.459 -0.3826  0.4047  0.5390
  614TIP3    H123401   0.443   5.918   3.433  0.0722  0.6357 -1.3813
  614TIP3    H223402   0.589   5.949   3.406  1.4118 -0.6418  3.3687
  615TIP3   OH223403   0.270   4.711   2.913  0.0988  0.6732 -0.4044
  615TIP3    H123404   0.278   4.740   2.822  0.2651  0.5143 -0.4420
  615TIP3    H223405   0.213   4.775   2.954  1.9301  2.1440 -0.0152
  616TIP3   OH223406   6.229   3.807   8.186  0.1293  0.1084 -0.0573
  616TIP3    H123407   6.195   3.879   8.240  1.0874 -0.3964  1.2876
  616TIP3    H223408   6.252   3.848   8.103 -0.0868  1.1956  0.4032
  617TIP3   OH223409   2.817   5.202   2.358 -0.3879 -0.4196 -0.2651
  617TIP3    H123410   2.880   5.141   2.397  0.9016  0.2426 -1.2539
  617TIP3    H223411   2.870   5.262   2.306 -1.9482 -0.7979 -2.4600
  618TIP3   OH223412   2.185   5.550   0.203  0.4437  0.0250  0.6086
  618TIP3    H123413   2.267   5.598   0.198  0.0927  0.6658  0.9061
  618TIP3    H223414   2.126   5.607   0.251  0.4919 -1.3746  2.4492
  619TIP3   OH223415   0.593   0.564   8.287 -0.8080  0.1105  0.0116
  619TIP3    H123416   0.607   0.474   8.318  0.3605  0.1628 -0.2937
  619TIP3    H223417   0.588   0.617   8.366 -0.5270 -0.1099  0.1815
  620TIP3   OH223418   4.391   1.574   3.392 -0.1027 -0.0682  0.6792
  620TIP3    H123419   4.302   1.539   3.394 -0.0113 -0.6844 -2.2015
  620TIP3    H223420   4.447   1.497   3.397  0.2346  0.1679  0.5850
  621TIP3   OH223421   0.651   3.206   0.002 -0.3406 -0.2730  0.3371
  621TIP3    H123422   0.574   3.251   0.037 -0.5616  0.0558 -0.5558
  621TIP3    H223423   0.695   3.171   0.080 -1.0084  0.1354  0.9148
  622TIP3   OH223424   6.127   2.667   8.361 -0.3564 -0.3442 -0.1930
  622TIP3    H123425   6.161   2.580   8.378 -0.9987 -0.9413 -1.7277
  622TIP3    H223426   6.070   2.656   8.284 -1.0623  1.2766  0.0478
  623TIP3   OH223427   4.078   0.192   0.651  0.2546  0.1886 -0.1829
  623TIP3    H123428   4.155   0.178   0.596  0.0984  0.5021 -0.4837
  623TIP3    H223429   4.113   0.211   0.738  0.4884 -1.7050  0.1712
  624TIP3   OH223430   3.587   1.614   2.719 -0.1832 -0.6783 -0.1720
  624TIP3    H123431   3.508   1.616   2.665 -0.8602 -1.4668  0.7605
  624TIP3    H223432   3.579   1.691   2.775  0.1702 -0.2525 -0.6979
  625TIP3   OH223433   3.799   4.031   3.074 -0.7895 -0.2617  0.2913
  625TIP3    H123434   3.704   4.034   3.082 -0.7584  0.0276  0.5801
  625TIP3    H223435   3.824   3.950   3.119 -1.1110 -1.7813 -2.1135
  626TIP3   OH223436   4.980   1.645   0.195 -0.1251 -0.0280 -0.4661
  626TIP3    H123437   4.906   1.638   0.255 -1.2721 -0.7059 -1.9021
  626TIP3    H223438   4.985   1.738   0.174  0.0420  0.1583  0.3491
  627TIP3   OH223439   4.857   3.542   0.877 -0.0320  0.2920 -0.0314
  627TIP3    H123440   4.878   3.449   0.865  0.2816  0.4447 -0.7142
  627TIP3    H223441   4.848   3.553   0.972  1.1714 -0.1678  0.1510
  628TIP3   OH223442   2.025   1.405   1.322 -0.9918 -0.4251 -0.0634
  628TIP3    H123443   2.043   1.342   1.252  1.1911 -0.7465  0.7079
  628TIP3    H223444   2.083   1.478   1.305 -2.7725  1.0049 -0.3558
  629TIP3   OH223445   0.511   5.188   1.875 -0.0382 -0.7428  0.6469
  629TIP3    H123446   0.527   5.121   1.808 -1.5093  0.0027 -0.5089
  629TIP3    H223447   0.550   5.268   1.839 -0.8183 -0.3440  0.6758
  630TIP3   OH223448   2.559   5.830   1.385 -0.1805  0.3583  0.3996
  630TIP3    H123449   2.588   5.741   1.408  0.5722  1.0767  2.4986
  630TIP3    H223450   2.567   5.879   1.467 -1.2345  2.2135 -0.5496
  631TIP3   OH223451   6.216   5.557   7.761 -0.1381 -0.1129 -0.6308
  631TIP3    H123452   6.198   5.643   7.799 -0.6177  0.1777 -1.5122
  631TIP3    H223453   6.139   5.505   7.781  0.0265 -0.2567 -0.3575
  632TIP3   OH223454   1.499   2.002   0.915  0.5346 -0.4133 -0.4311
  632TIP3    H123455   1.479   2.078   0.860  1.4618 -0.3515 -0.7077
  632TIP3    H223456   1.423   1.944   0.905  0.6436 -0.3667 -1.7319
  633TIP3   OH223457   1.002   5.246   0.092 -0.3622  0.2267  0.0684
  633TIP3    H123458   1.078   5.281   0.138 -0.2560  0.0017  0.0668
  633TIP3    H223459   0.990   5.304   0.017 -0.0420  0.1221 -0.0670
  634TIP3   OH223460   4.919   0.251   1.123  0.2772 -0.0781  0.2346
  634TIP3    H123461   4.980   0.196   1.173  1.7093  0.3370 -0.9865
  634TIP3    H223462   4.973   0.292   1.056 -1.1452  1.2417 -0.1669
  635TIP3   OH223463   2.030   4.909   8.184 -0.4548 -0.3417 -0.2460
  635TIP3    H123464   2.016   5.004   8.181  4.0276  0.5382 -2.7651
  635TIP3    H223465   1.961   4.873   8.129 -2.2169  1.4235  0.7037
  636TIP3   OH223466   4.375   5.228   1.652  0.3620 -0.2490  0.1782
  636TIP3    H123467   4.303   5.291   1.654 -0.9275 -1.6967  0.7062
  636TIP3    H223468   4.412   5.238   1.564 -1.9449 -1.0467 -0.9527
  637TIP3   OH223469   6.454   6.867   1.370  0.4798  0.2978 -0.2800
  637TIP3    H123470   6.438   6.959   1.347 -0.4056  0.1114 -0.4452
  637TIP3    H223471   6.483   6.827   1.288 -1.5833 -0.1138 -0.8762
  638TIP3   OH223472   4.867   0.712   2.069  0.5280  0.3011  0.1303
  638TIP3    H123473   4.852   0.623   2.037  1.4436 -0.7291  2.3301
  638TIP3    H223474   4.803   0.724   2.139 -0.5883  1.9901 -1.1187
  639TIP3   OH223475   4.920   6.023   8.105 -0.0435  0.9845  0.0925
  639TIP3    H123476   4.886   6.100   8.058  0.2902  1.1298  0.0815
  639TIP3    H223477   4.850   5.998   8.165 -0.8807  0.2072 -1.1489
  640TIP3   OH223478   5.248   0.868   1.253  0.0953  0.5880  0.0159
  640TIP3    H123479   5.204   0.915   1.182  0.2623  1.0926  0.2444
  640TIP3    H223480   5.295   0.936   1.301 -1.4106  0.5550  1.6479
  641TIP3   OH223481   6.909   6.481   0.621 -0.0107 -0.0905 -0.3349
  641TIP3    H123482   6.928   6.431   0.700  1.8786 -1.2827 -1.4784
  641TIP3    H223483   6.970   6.555   0.623 -0.5886  0.3930 -0.2427
  642TIP3   OH223484   0.067   0.057   0.663  0.0199  0.1507  0.0050
  642TIP3    H123485   0.136   0.022   0.720  0.0242  0.2069  0.0341
  642TIP3    H223486   0.012   0.109   0.720 -0.8371 -0.9835  0.2631
  643TIP3   OH223487   4.269   3.812   2.895 -0.1695  0.4726  0.1076
  643TIP3    H123488   4.213   3.889   2.909  0.8653  1.0608  1.1411
  643TIP3    H223489   4.358   3.845   2.907  0.3841 -0.5816 -0.9111
  644TIP3   OH223490   4.980   1.840   8.183  0.0175  0.1873  0.2827
  644TIP3    H123491   4.999   1.930   8.207  1.4651 -0.0894  0.2546
  644TIP3    H223492   5.003   1.833   8.091  0.2424 -0.2957  0.3701
  645TIP3   OH223493   3.834   0.556   0.469 -0.2752 -0.3976  0.0082
  645TIP3    H123494   3.804   0.507   0.393 -1.6598  1.5879 -0.7774
  645TIP3    H223495   3.893   0.622   0.434 -0.2415 -0.0078  0.7731
  646TIP3   OH223496   0.391   6.148   1.629  0.4323  0.0370  0.1856
  646TIP3    H123497   0.450   6.122   1.559  0.8329 -0.8958  0.8467
  646TIP3    H223498   0.440   6.130   1.709 -0.1924  0.6553  0.7182
  647TIP3   OH223499   1.004   0.653   3.224  0.3556 -0.0755 -0.5833
  647TIP3    H123500   1.006   0.629   3.132 -0.0094  1.8058 -1.1342
  647TIP3    H223501   1.070   0.598   3.266  1.7576  0.2392 -2.2900
  648TIP3   OH223502   5.299   3.001   8.298  0.1605 -0.5527 -0.2238
  648TIP3    H123503   5.305   2.985   8.204 -0.9657 -0.9233 -0.2515
  648TIP3    H223504   5.349   3.082   8.311 -1.4111  0.7204 -1.5173
  649TIP3   OH223505   0.102   3.447   3.012  0.2501 -0.3082 -0.5528
  649TIP3    H123506   0.023   3.501   3.011  0.6554  0.3271  0.3260
  649TIP3    H223507   0.146   3.471   3.094  1.6981 -0.1516 -1.3549
  650TIP3   OH223508   0.892   1.811   2.490  0.4452 -0.1241  0.6561
  650TIP3    H123509   0.922   1.793   2.401 -1.5097 -0.2513 -0.0363
  650TIP3    H223510   0.888   1.725   2.532  0.1864 -0.2119  0.4550
  651TIP3   OH223511   6.636   5.286   0.072 -0.7959  0.3894  0.8126
  651TIP3    H123512   6.677   5.246  -0.006 -0.3461 -0.7096  1.5827
  651TIP3    H223513   6.561   5.335   0.037 -0.0811  0.6699 -0.4052
  652TIP3   OH223514   2.035   2.836   7.414 -0.7611  0.2750  0.8006
  652TIP3    H123515   2.062   2.928   7.407 -1.6798  0.5507  0.8209
  652TIP3    H223516   1.960   2.828   7.356 -0.7438 -0.4515  0.8653
  653TIP3   OH223517   4.710   2.352   3.472 -0.3212 -0.7092 -0.3021
  653TIP3    H123518   4.727   2.428   3.528 -1.4881 -0.6993  0.0733
  653TIP3    H223519   4.782   2.351   3.410  0.8461 -0.5376  1.0070
  654TIP3   OH223520   3.834   4.133   0.894 -0.2162  0.2724 -0.4582
  654TIP3    H123521   3.895   4.159   0.964 -0.4614  0.6365 -0.3782
  654TIP3    H223522   3.813   4.214   0.849 -1.6398  0.3702  0.3158
  655TIP3   OH223523   0.349   5.965   8.345 -0.3022 -0.0414  0.2888
  655TIP3    H123524   0.426   5.909   8.349  0.0713  0.5026  0.8803
  655TIP3    H223525   0.382   6.053   8.366 -0.6325  0.6546 -1.8835
  656TIP3   OH223526   5.646   2.351   0.153  0.5190 -0.2039 -0.1983
  656TIP3    H123527   5.602   2.305   0.224  1.9489 -2.5402 -0.6991
  656TIP3    H223528   5.649   2.286   0.082  1.5097  1.1317 -1.4265
  657TIP3   OH223529   4.507   0.958   1.091  0.2268 -0.0649  0.6262
  657TIP3    H123530   4.533   1.025   1.154  0.5382  0.3477  0.0658
  657TIP3    H223531   4.590   0.923   1.058  0.0621 -0.2767  0.4375
  658TIP3   OH223532   6.867   6.899   1.142 -0.2527 -0.0429 -0.4011
  658TIP3    H123533   6.781   6.940   1.132  0.2325  0.9600 -0.5471
  658TIP3    H223534   6.849   6.805   1.137 -1.4187  0.1290  0.2233
  659TIP3   OH223535   5.261   4.978   2.906 -0.0948 -0.1881 -0.4735
  659TIP3    H123536   5.213   5.001   2.986  0.5075 -0.2596 -0.0873
  659TIP3    H223537   5.210   4.907   2.867  0.0429 -0.6978  0.2680
  660TIP3   OH223538   5.052   4.432   0.938 -0.5040 -0.6481 -0.7170
  660TIP3    H123539   4.977   4.457   0.885 -0.2318  1.2182 -0.2845
  660TIP3    H223540   5.014   4.383   1.012 -1.1989 -0.4563 -0.9424
  661TIP3   OH223541   5.451   1.410   0.149 -0.2671 -0.3866 -0.5246
  661TIP3    H123542   5.381   1.476   0.150 -0.1189 -0.1971 -1.3609
  661TIP3    H223543   5.524   1.452   0.195 -0.3746 -0.1941 -0.5276
  662TIP3   OH223544   6.658   0.236   0.600 -0.8872 -0.1468 -0.3022
  662TIP3    H123545   6.711   0.272   0.670  0.5114  0.2877 -1.5332
  662TIP3    H223546   6.585   0.193   0.644  2.0398 -3.5582  1.7331
  663TIP3   OH223547   1.627   0.473   3.955 -0.3591  0.4887 -0.3715
  663TIP3    H123548   1.641   0.565   3.978 -0.3216  0.0720  1.4725
  663TIP3    H223549   1.698   0.451   3.895 -0.4122  1.6693 -0.8854
  664TIP3   OH223550   0.602   6.772   2.384 -0.6882 -0.2276 -0.0110
  664TIP3    H123551   0.644   6.704   2.332 -1.1171  0.1335 -0.8569
  664TIP3    H223552   0.578   6.839   2.320 -1.5413  0.0722  0.5990
  665TIP3   OH223553   5.577   4.561   0.192  0.6525  0.0143 -0.2738
  665TIP3    H123554   5.513   4.626   0.162  1.8229  0.3579 -2.1567
  665TIP3    H223555   5.550   4.541   0.282 -1.7777  0.5169 -0.8228
  666TIP3   OH223556   2.714   0.285   1.619  0.1955  0.0140  0.2930
  666TIP3    H123557   2.719   0.218   1.687  2.2454  0.0894  0.2878
  666TIP3    H223558   2.701   0.367   1.668 -0.4448 -0.1568  0.4228
  667TIP3   OH223559   1.754   1.023   8.185  0.0091  0.2164  0.5647
  667TIP3    H123560   1.727   1.104   8.142 -0.2078 -1.2687 -2.4185
  667TIP3    H223561   1.671   0.981   8.210 -0.0332 -0.0976 -0.0579
  668TIP3   OH223562   1.826   2.807   7.225  0.1807  0.1416  0.3073
  668TIP3    H123563   1.744   2.761   7.207 -0.0816  0.2031  1.2775
  668TIP3    H223564   1.809   2.898   7.200 -1.4224  1.0611  3.9564
  669TIP3   OH223565   5.006   4.802   2.396  0.2460  0.4526  0.1461
  669TIP3    H123566   5.010   4.713   2.429  1.4673  0.7820  0.9469
  669TIP3    H223567   4.915   4.813   2.367  0.2169 -1.2031 -0.4699
  670TIP3   OH223568   6.326   2.333   3.256  0.1529  0.4307  0.5373
  670TIP3    H123569   6.374   2.253   3.278 -1.3671 -0.4960  0.6219
  670TIP3    H223570   6.381   2.404   3.290  1.3248 -0.5806  0.8483
  671TIP3   OH223571   5.156   2.500   7.897 -0.2540  0.5294  0.2790
  671TIP3    H123572   5.077   2.483   7.847 -0.7410  0.9270  0.8972
  671TIP3    H223573   5.206   2.561   7.844 -0.8358  1.0637  0.3329
  672TIP3   OH223574   5.316   2.826   0.965  0.3478  0.0895  0.1739
  672TIP3    H123575   5.290   2.918   0.964  1.0818  0.3066 -1.0691
  672TIP3    H223576   5.341   2.807   0.874 -0.3630 -1.5081  0.2752
  673TIP3   OH223577   2.615   2.287   2.650  0.1950  0.4484  0.2321
  673TIP3    H123578   2.562   2.366   2.659  1.7638  1.5758  0.0349
  673TIP3    H223579   2.631   2.259   2.741 -0.5306  0.2277  0.2964
  674TIP3   OH223580   3.965   2.018   0.989 -0.2128 -0.0455 -0.1018
  674TIP3    H123581   3.978   1.987   1.079  1.0185 -2.5304 -1.0514
  674TIP3    H223582   4.047   2.063   0.968  0.0597 -0.7029 -0.4457
  675TIP3   OH223583   4.704   2.617   1.055 -0.0297 -0.3357  0.3920
  675TIP3    H123584   4.734   2.701   1.022 -0.7355 -0.7254 -1.3637
  675TIP3    H223585   4.615   2.633   1.085 -0.2326 -0.4820 -0.1191
  676TIP3   OH223586   1.242   5.382   8.181  0.3625 -0.1047 -0.2826
  676TIP3    H123587   1.245   5.431   8.262  1.0642 -0.6523  0.0415
  676TIP3    H223588   1.168   5.322   8.191 -0.0584  0.4020 -0.3887
  677TIP3   OH223589   0.423   3.915   0.571 -0.3498  0.1914 -0.2237
  677TIP3    H123590   0.433   4.003   0.606 -0.0431 -0.5431  1.6392
  677TIP3    H223591   0.331   3.893   0.588 -0.2280 -0.1312  0.0268
  678TIP3   OH223592   5.508   4.596   8.149 -0.3279  0.5601  0.2254
  678TIP3    H123593   5.453   4.621   8.223 -1.5291  0.0229 -0.4592
  678TIP3    H223594   5.451   4.544   8.093 -0.0148  2.4853 -2.0333
  679TIP3   OH223595   2.382   5.618   2.665  0.0414  0.2300 -0.5410
  679TIP3    H123596   2.303   5.648   2.620  0.4160 -0.6820 -1.8760
  679TIP3    H223597   2.352   5.548   2.722 -0.4755  1.5439  0.8800
  680TIP3   OH223598   0.127   6.175   1.619  0.0946 -0.7535 -0.5692
  680TIP3    H123599   0.213   6.132   1.624  1.0721  1.2787  2.6527
  680TIP3    H223600   0.125   6.211   1.530  2.2110 -1.5388 -1.0132
  681TIP3   OH223601   0.685   1.739   7.177 -0.3177 -0.0224 -0.6725
  681TIP3    H123602   0.740   1.791   7.236 -1.2663  0.4251 -0.1639
  681TIP3    H223603   0.601   1.732   7.222 -1.0737  0.3343 -1.9694
  682TIP3   OH223604   5.405   3.173   3.079  0.2821  0.0732 -0.0389
  682TIP3    H123605   5.455   3.101   3.118  1.8346  1.5544  0.8462
  682TIP3    H223606   5.314   3.154   3.100  0.8947 -0.2385  2.6068
  683TIP3   OH223607   3.289   5.832   2.022  0.1083  0.6381 -0.2989
  683TIP3    H123608   3.201   5.866   2.007  0.5739  1.9389 -0.2147
  683TIP3    H223609   3.345   5.910   2.025  1.3033 -0.1726 -0.6189
  684TIP3   OH223610   5.175   1.173   2.763 -0.1501  0.9827  0.6409
  684TIP3    H123611   5.201   1.256   2.804  2.1845  1.2500 -1.1724
  684TIP3    H223612   5.154   1.197   2.673 -2.0866 -0.0627  0.7623
  685TIP3   OH223613   5.781   4.329   3.107  0.6784 -0.3629 -0.5015
  685TIP3    H123614   5.730   4.256   3.139  1.1978 -0.3540  0.3818
  685TIP3    H223615   5.814   4.372   3.186 -0.3655  1.3808 -0.9618
  686TIP3   OH223616   0.965   5.391   2.489  0.6222  0.4455  0.2038
  686TIP3    H123617   1.015   5.459   2.534  1.4825  0.2648 -0.4347
  686TIP3    H223618   0.987   5.311   2.536  2.8330 -0.0233 -1.4209
  687TIP3   OH223619   0.638   3.485   3.001  0.1959  0.5484  0.3952
  687TIP3    H123620   0.698   3.535   2.945 -0.5515  0.1178 -0.8184
  687TIP3    H223621   0.551   3.502   2.964 -0.4640  1.2011  2.1547
  688TIP3   OH223622   5.689   1.464   1.829 -0.5947  0.3396  0.3474
  688TIP3    H123623   5.689   1.397   1.760  1.2630 -0.0616  0.6727
  688TIP3    H223624   5.636   1.535   1.793 -1.8599 -0.9158 -0.3858
  689TIP3   OH223625   6.542   4.892   7.650 -0.0320  0.0253  0.1790
  689TIP3    H123626   6.501   4.978   7.646  1.1322  0.7231  2.2383
  689TIP3    H223627   6.578   4.879   7.562 -1.2614  1.0688 -0.5178
  690TIP3   OH223628   3.731   2.609   1.069  0.5321 -0.1978 -0.3118
  690TIP3    H123629   3.781   2.529   1.084 -1.7740 -1.5746  0.4897
  690TIP3    H223630   3.788   2.679   1.100  1.3614 -1.8158  2.0237
  691TIP3   OH223631   3.346   3.083   1.958 -0.4527  0.1133 -0.5230
  691TIP3    H123632   3.292   3.098   1.880 -1.2184 -1.1163 -0.2524
  691TIP3    H223633   3.414   3.023   1.928 -0.7589 -0.3767 -0.2457
  692TIP3   OH223634   4.624   3.507   7.866 -0.0900  0.3983 -0.0914
  692TIP3    H123635   4.714   3.476   7.856 -0.2832 -0.4998  0.8904
  692TIP3    H223636   4.582   3.444   7.924 -1.0045  1.4977  0.4945
  693TIP3   OH223637   6.923   1.060   2.103  0.0460  0.1402  0.2914
  693TIP3    H123638   6.907   1.024   2.016  2.6316  0.8218 -0.5421
  693TIP3    H223639   6.941   0.983   2.157  0.1249 -0.1730 -0.1742
  694TIP3   OH223640   4.031   5.281   0.348 -0.4021 -0.6690 -0.1548
  694TIP3    H123641   4.003   5.286   0.257  0.4873  0.2083 -0.3921
  694TIP3    H223642   3.949   5.277   0.398 -0.9581  0.8230 -0.8866
  695TIP3   OH223643   1.719   4.153   2.040  0.2056  0.1216  0.7218
  695TIP3    H123644   1.693   4.235   2.082 -0.1875  1.0384 -1.1922
  695TIP3    H223645   1.716   4.173   1.946  1.0914 -1.8020  0.2474
  696TIP3   OH223646   3.210   5.553   3.486  0.0341  0.2214 -0.3880
  696TIP3    H123647   3.295   5.595   3.474 -0.5458  2.3672  2.0262
  696TIP3    H223648   3.230   5.475   3.538  0.6010  0.2525 -0.5458
  697TIP3   OH223649   5.043   1.666   1.501  0.0256 -0.5033  0.0757
  697TIP3    H123650   4.991   1.592   1.531 -0.9330 -0.9609 -2.4335
  697TIP3    H223651   5.116   1.627   1.454  1.8571  0.1697  2.1837
  698TIP3   OH223652   5.975   3.606   1.354 -0.6614  0.5478  0.4043
  698TIP3    H123653   6.066   3.635   1.367 -0.6719  1.5469 -1.4967
  698TIP3    H223654   5.928   3.685   1.330 -2.4812  0.3969  3.0277
  699TIP3   OH223655   2.903   1.849   3.522 -0.3049  0.2437 -0.1280
  699TIP3    H123656   2.984   1.893   3.497  0.7514 -1.0866  0.7791
  699TIP3    H223657   2.881   1.794   3.446 -0.0262  0.1612 -0.1495
  700TIP3   OH223658   4.778   1.620   3.417 -0.1255  0.1970  0.2033
  700TIP3    H123659   4.808   1.565   3.489 -1.0105  1.4673  1.5793
  700TIP3    H223660   4.740   1.697   3.459  0.4828  1.5798 -1.6515
  701TIP3   OH223661   0.876   0.906   2.810  0.0992 -0.0440  0.3621
  701TIP3    H123662   0.945   0.963   2.845  0.4790 -2.5704  4.4467
  701TIP3    H223663   0.921   0.824   2.791 -1.2378 -0.6299 -0.4078
  702TIP3   OH223664   6.216   4.343   0.850 -0.2798  0.3962 -0.2407
  702TIP3    H123665   6.283   4.297   0.799 -1.4495 -1.9271  0.1716
  702TIP3    H223666   6.150   4.367   0.786 -0.0290  0.8387 -0.3400
  703TIP3   OH223667   6.536   4.880   0.786  0.3930 -0.5032  0.3113
  703TIP3    H123668   6.506   4.920   0.867  0.2432  0.0962 -0.0295
  703TIP3    H223669   6.455   4.857   0.740  0.4523  0.1493 -0.1396
  704TIP3   OH223670   0.622   1.214   1.197 -0.2540  0.5331  0.2362
  704TIP3    H123671   0.691   1.186   1.136 -0.8744  0.1170 -0.2826
  704TIP3    H223672   0.556   1.146   1.191 -0.6450  0.8497  0.8603
  705TIP3   OH223673   3.112   4.711   1.451 -0.2342 -0.6082  0.1451
  705TIP3    H123674   3.160   4.717   1.368 -1.5636 -1.3715 -0.7100
  705TIP3    H223675   3.075   4.798   1.464 -1.6564 -0.9864 -1.1144
  706TIP3   OH223676   5.103   6.877   2.746 -0.1546  0.4453  0.7631
  706TIP3    H123677   5.044   6.802   2.750  1.0598 -0.5904  0.1403
  706TIP3    H223678   5.176   6.852   2.803  1.7280 -0.2608 -1.7677
  707TIP3   OH223679   0.676   1.376   0.524 -0.3034  0.4311 -0.0397
  707TIP3    H123680   0.730   1.303   0.556 -1.3124 -0.0987  0.4811
  707TIP3    H223681   0.735   1.424   0.465  1.7895  1.6804  2.8278
  708TIP3   OH223682   3.911   0.270   8.072  0.1361 -0.2837  0.2463
  708TIP3    H123683   3.982   0.335   8.072  0.2619 -0.4062  1.3986
  708TIP3    H223684   3.890   0.258   7.979  0.1042  1.3958  0.0105
  709TIP3   OH223685   6.028   2.029   2.630  0.7410  0.1434  0.5170
  709TIP3    H123686   5.936   2.036   2.656  0.4344  1.1134 -0.7212
  709TIP3    H223687   6.074   2.007   2.710 -0.3163  1.7698  1.6306
  710TIP3   OH223688   3.370   0.973   0.099 -0.0890  0.0040 -0.1196
  710TIP3    H123689   3.326   1.005   0.020 -0.4569 -0.3950 -0.0820
  710TIP3    H223690   3.399   1.052   0.144 -0.4311  0.2571 -0.3399
  711TIP3   OH223691   3.670   2.486   1.915  0.4675  0.8748  0.2623
  711TIP3    H123692   3.609   2.538   1.966  1.0948  0.7264  1.1882
  711TIP3    H223693   3.615   2.428   1.863 -0.1836  0.5053  1.3353
  712TIP3   OH223694   1.582   5.759   8.218  0.0482 -0.4543 -0.0714
  712TIP3    H123695   1.544   5.673   8.205  0.7515 -0.9941  1.2210
  712TIP3    H223696   1.551   5.811   8.144 -0.0651 -1.9170 -1.0822
  713TIP3   OH223697   0.323   2.178   0.551  0.0139  0.2244 -0.2458
  713TIP3    H123698   0.322   2.165   0.456 -1.5706 -1.9975 -0.0037
  713TIP3    H223699   0.231   2.187   0.575  0.0415 -2.5674  1.3850
  714TIP3   OH223700   5.177   2.261   1.000 -0.6226 -0.2221  0.2105
  714TIP3    H123701   5.213   2.277   0.913  0.0805  2.7136  0.9475
  714TIP3    H223702   5.249   2.218   1.048 -0.2741  0.0273 -0.0816
  715TIP3   OH223703   4.765   5.715   1.726  0.1900 -1.3652 -0.2314
  715TIP3    H123704   4.853   5.750   1.717  0.2067 -0.8876  1.4102
  715TIP3    H223705   4.775   5.621   1.713  0.6515 -1.1259 -1.6847
  716TIP3   OH223706   1.136   6.639   2.358 -0.5078 -0.3565  0.0065
  716TIP3    H123707   1.118   6.727   2.328  0.4786  0.5744  1.9441
  716TIP3    H223708   1.099   6.636   2.447  0.2129 -1.5951  0.2925
  717TIP3   OH223709   4.731   3.339   2.151  0.1412  0.1046  0.4341
  717TIP3    H123710   4.786   3.319   2.227 -2.4603 -0.3190  2.3525
  717TIP3    H223711   4.714   3.254   2.111 -0.5521 -0.0126  0.9510
  718TIP3   OH223712   3.445   6.559   2.945 -0.1566 -0.2878  0.0704
  718TIP3    H123713   3.538   6.580   2.931 -0.5366  3.2769  1.7891
  718TIP3    H223714   3.439   6.539   3.039 -0.7805 -3.6638 -0.5467
  719TIP3   OH223715   3.800   1.059   7.920 -0.7576 -0.3742  0.3443
  719TIP3    H123716   3.837   1.061   7.832  1.1453  1.2510  1.1155
  719TIP3    H223717   3.839   0.981   7.960 -2.1144 -1.4718 -0.4117
  720TIP3   OH223718   6.876   4.150   0.075 -0.1550 -0.3824  0.2752
  720TIP3    H123719   6.970   4.143   0.058  0.1574 -1.1158  2.1510
  720TIP3    H223720   6.856   4.243   0.060  0.3628 -0.6218 -2.3375
  721TIP3   OH223721   0.828   4.840   0.441  0.0179 -0.8395  0.6032
  721TIP3    H123722   0.826   4.850   0.536  0.4850 -1.2504  0.6611
  721TIP3    H223723   0.921   4.836   0.418 -0.0929 -1.3736  0.2036
  722TIP3   OH223724   3.570   3.401   0.173  0.2143 -0.1849 -0.1472
  722TIP3    H123725   3.632   3.470   0.151  0.8285 -0.2847  1.2121
  722TIP3    H223726   3.516   3.437   0.243 -2.6484  0.6396 -2.5513
  723TIP3   OH223727   2.515   2.788   2.469 -0.6134 -0.2921 -0.4858
  723TIP3    H123728   2.549   2.789   2.559  0.2475 -1.0575 -0.7906
  723TIP3    H223729   2.435   2.736   2.474 -1.2881  0.7494  0.0641
  724TIP3   OH223730   4.870   0.874   1.299 -0.2778 -0.2409 -0.5588
  724TIP3    H123731   4.803   0.806   1.295  0.4230 -0.9172 -0.9893
  724TIP3    H223732   4.861   0.911   1.386  0.0849 -1.6759  0.1193
  725TIP3   OH223733   2.750   4.515   1.786  0.5481 -0.1278  0.2589
  725TIP3    H123734   2.694   4.437   1.786 -0.7349  0.7505 -0.3695
  725TIP3    H223735   2.779   4.523   1.695  2.3941 -1.0113  0.7229
  726TIP3   OH223736   2.581   3.496   1.980  0.0618 -0.6237 -0.2716
  726TIP3    H123737   2.542   3.515   1.895 -1.2267 -1.2269  0.1666
  726TIP3    H223738   2.621   3.410   1.970 -0.9973 -1.1613  0.0178
  727TIP3   OH223739   4.562   3.351   1.701 -0.1070 -0.2612 -0.8070
  727TIP3    H123740   4.553   3.425   1.762 -0.5518  1.6452 -3.0418
  727TIP3    H223741   4.656   3.331   1.702  0.1087  0.6922 -0.5384
  728TIP3   OH223742   2.661   3.665   1.068 -0.5880  0.5928  0.2599
  728TIP3    H123743   2.568   3.684   1.074 -0.4566  0.9933  1.2639
  728TIP3    H223744   2.666   3.576   1.033 -1.3005  1.0943 -1.1739
  729TIP3   OH223745   0.574   0.243   0.209  0.1508  0.7290 -0.6204
  729TIP3    H123746   0.548   0.185   0.281 -1.5720  0.2031 -1.5955
  729TIP3    H223747   0.504   0.308   0.204  0.5255  1.0901 -1.4478
  730TIP3   OH223748   4.581   0.655   0.623  0.3306 -0.2706 -0.6089
  730TIP3    H123749   4.552   0.587   0.684 -1.3053 -0.4283 -1.5094
  730TIP3    H223750   4.569   0.737   0.670 -0.1358 -0.4471 -0.4099
  731TIP3   OH223751   5.832   0.966   1.218 -0.0849 -0.3931  0.0864
  731TIP3    H123752   5.870   0.944   1.303  0.1827  0.0124  0.0762
  731TIP3    H223753   5.776   0.892   1.196 -0.5624 -0.2682  0.8601
  732TIP3   OH223754   6.063   3.570   1.741 -0.0770  0.6926 -0.0237
  732TIP3    H123755   5.970   3.546   1.735 -0.1293  1.2873 -3.7634
  732TIP3    H223756   6.108   3.507   1.684  1.4580  1.9609 -0.2813
  733TIP3   OH223757   3.252   0.869   7.938 -0.7035 -0.5240  0.0032
  733TIP3    H123758   3.212   0.941   7.987 -0.1748 -0.3798  0.2308
  733TIP3    H223759   3.284   0.909   7.858 -1.1997 -0.6802 -0.2756
  734TIP3   OH223760   5.422   0.402   2.320 -0.5066 -0.1163  0.6767
  734TIP3    H123761   5.365   0.416   2.244 -0.9166  1.7407  1.2709
  734TIP3    H223762   5.392   0.319   2.357  0.9101 -2.0750 -2.1637
  735TIP3   OH223763   4.390   2.595   2.990 -0.3668  0.2403 -0.1751
  735TIP3    H123764   4.300   2.615   3.014  0.0496  0.9561  0.8651
  735TIP3    H223765   4.413   2.518   3.041 -0.5248 -0.2177 -0.7835
  736TIP3   OH223766   1.596   5.728   1.488  0.3048 -0.6788 -0.0738
  736TIP3    H123767   1.658   5.655   1.482  1.0239 -0.2217  1.3081
  736TIP3    H223768   1.550   5.713   1.571  0.5130  0.4659  0.2606
  737TIP3   OH223769   0.173   3.212   2.906 -0.1245  0.3440 -0.2990
  737TIP3    H123770   0.175   3.219   2.811  0.1046  1.9069 -0.1958
  737TIP3    H223771   0.107   3.275   2.934  2.4674  2.8028  0.7666
  738TIP3   OH223772   5.632   6.421   0.916  0.4750  0.4637  0.6397
  738TIP3    H123773   5.675   6.500   0.885 -0.6186  0.4769 -0.9394
  738TIP3    H223774   5.539   6.435   0.899 -0.0567 -0.1132  2.7308
  739TIP3   OH223775   3.054   2.216   2.431  0.1652 -0.1676  0.0236
  739TIP3    H123776   3.103   2.149   2.382 -0.2045 -0.4604  0.0498
  739TIP3    H223777   2.963   2.192   2.419  0.0609 -0.0552  0.5998
  740TIP3   OH223778   6.678   3.034   3.011 -0.4922  0.3371  0.7900
  740TIP3    H123779   6.631   3.114   3.034 -0.6835  0.6535 -0.6115
  740TIP3    H223780   6.609   2.970   2.993 -0.3451  0.1436  0.9093
  741TIP3   OH223781   1.068   3.203   7.786 -0.4388  0.2772 -0.1436
  741TIP3    H123782   1.108   3.290   7.796  0.8252 -0.4479  1.6749
  741TIP3    H223783   1.060   3.191   7.691  2.0180  1.2358 -0.5413
  742TIP3   OH223784   6.198   0.869   1.329 -0.0217  0.4677  0.1971
  742TIP3    H123785   6.218   0.878   1.422  0.2840  0.7979  0.1037
  742TIP3    H223786   6.164   0.954   1.303  0.0572  0.4312 -0.0299
  743TIP3   OH223787   3.665   3.334   1.785 -0.4058 -0.0029 -0.3047
  743TIP3    H123788   3.613   3.408   1.818 -1.0046  0.8889 -2.9970
  743TIP3    H223789   3.728   3.316   1.855  0.0634  3.3656  0.3258
  744TIP3   OH223790   0.762   6.160   8.278  0.0756 -0.5117 -0.0078
  744TIP3    H123791   0.760   6.239   8.331 -0.3700 -0.6396  0.1638
  744TIP3    H223792   0.697   6.102   8.318 -0.9857 -0.2359 -1.2827
  745TIP3   OH223793   5.132   3.908   2.925 -0.7334 -0.4667  0.1123
  745TIP3    H123794   5.076   3.939   2.854  1.2033  1.4500 -0.6822
  745TIP3    H223795   5.159   3.988   2.970 -1.2802 -1.5697  2.5842
  746TIP3   OH223796   4.476   3.161   8.059 -0.3938  0.1043 -0.2115
  746TIP3    H123797   4.503   3.094   8.121 -0.3910 -0.1950 -0.5335
  746TIP3    H223798   4.513   3.133   7.975 -1.4594 -0.1759 -0.6059
  747TIP3   OH223799   2.796   3.816   0.891  0.1093  0.0899 -0.2376
  747TIP3    H123800   2.757   3.785   0.973 -1.3050  1.8819 -0.1896
  747TIP3    H223801   2.882   3.774   0.889 -0.2628 -0.8707  1.6117
  748TIP3   OH223802   0.461   6.183   2.091  0.0048  0.4289  0.0380
  748TIP3    H123803   0.394   6.228   2.143  0.6657  0.1957  1.1098
  748TIP3    H223804   0.531   6.164   2.153  0.0890 -1.3999 -0.5659
  749TIP3   OH223805   1.208   0.717   1.521 -0.1070  0.1004  0.4173
  749TIP3    H123806   1.291   0.680   1.494  0.2677  0.8526  0.5142
  749TIP3    H223807   1.223   0.812   1.523 -0.9929  0.2521  0.3265
  750TIP3   OH223808   5.888   1.033   4.125 -0.3905  0.5895  0.9016
  750TIP3    H123809   5.907   1.090   4.199 -1.5576  2.6593 -0.3100
  750TIP3    H223810   5.938   1.070   4.052 -1.3246  0.2134  0.0422
  751TIP3   OH223811   0.299   6.471   1.620 -0.6154 -0.0842 -0.6273
  751TIP3    H123812   0.311   6.376   1.622 -0.0899 -0.0357  2.2485
  751TIP3    H223813   0.378   6.504   1.578 -0.4701 -0.8540 -0.9828
  752TIP3   OH223814   2.738   4.549   7.464  0.0603  0.0872  0.1470
  752TIP3    H123815   2.783   4.614   7.410 -1.4555  1.6370  0.6638
  752TIP3    H223816   2.795   4.538   7.541 -0.7711  2.7103  1.2359
  753TIP3   OH223817   2.567   4.652   0.062 -0.0671 -0.3943  0.3229
  753TIP3    H123818   2.582   4.558   0.059  1.7397 -0.1311 -1.2578
  753TIP3    H223819   2.591   4.683  -0.026  1.0808  1.7506  1.2987
  754TIP3   OH223820   3.137   5.442   1.389  0.3583  0.1006  0.1759
  754TIP3    H123821   3.049   5.465   1.360  0.1353  0.5980  1.2090
  754TIP3    H223822   3.191   5.515   1.361  0.2130  0.3885  0.6282
  755TIP3   OH223823   4.078   2.933   0.958  0.1169 -0.1978  0.2322
  755TIP3    H123824   4.090   2.923   1.053  2.1072  0.4007  0.0929
  755TIP3    H223825   4.139   3.003   0.933 -0.3789 -0.3315 -1.4917
  756TIP3   OH223826   2.977   3.692   0.609  0.5290 -0.0237  0.0999
  756TIP3    H123827   3.059   3.652   0.635  1.1110  1.3117  0.4328
  756TIP3    H223828   2.984   3.783   0.639  0.2826  1.0128 -2.6776
  757TIP3   OH223829   0.984   6.156   1.855 -0.3517  0.1535  0.4099
  757TIP3    H123830   1.034   6.133   1.776 -0.8609 -0.2469  0.1946
  757TIP3    H223831   1.042   6.212   1.905  0.3083 -0.3020  0.1607
  758TIP3   OH223832   0.279   6.876   0.777 -0.5611 -0.2610 -0.2476
  758TIP3    H123833   0.243   6.859   0.864 -0.5327  0.3765 -0.1091
  758TIP3    H223834   0.360   6.922   0.793 -0.6967  0.1112 -0.6219
  759TIP3   OH223835   6.469   5.239   2.668  0.3128 -0.1542 -0.3033
  759TIP3    H123836   6.466   5.293   2.589 -1.0884  0.8821  0.4082
  759TIP3    H223837   6.390   5.186   2.664  0.5538 -0.5466  0.0927
  760TIP3   OH223838   6.143   4.624   2.701  0.7285  0.8136  0.4193
  760TIP3    H123839   6.188   4.548   2.663 -1.1836 -0.2323  0.0935
  760TIP3    H223840   6.129   4.600   2.792 -1.3467 -0.0381 -0.0587
  761TIP3   OH223841   6.541   5.228   0.505 -0.1342  0.3231  0.4774
  761TIP3    H123842   6.585   5.194   0.583  0.4427  1.1429  0.5094
  761TIP3    H223843   6.593   5.195   0.431  0.6349  1.3979  0.5189
  762TIP3   OH223844   2.001   5.996   3.101  0.3205 -0.5182 -0.1277
  762TIP3    H123845   2.004   5.902   3.121 -1.6954 -0.1198  2.6439
  762TIP3    H223846   2.085   6.014   3.059  1.4066 -3.2801  0.6044
  763TIP3   OH223847   6.657   5.855   3.446 -0.0530  0.0845  0.2681
  763TIP3    H123848   6.726   5.847   3.380 -2.9938 -0.3938 -3.1055
  763TIP3    H223849   6.646   5.766   3.480  1.2633  0.2687  1.2517
  764TIP3   OH223850   2.953   2.681   8.373 -0.2034 -0.1065  0.8540
  764TIP3    H123851   3.027   2.688   8.312  0.6970  0.8832  2.0066
  764TIP3    H223852   2.990   2.635   8.449 -0.4611  1.3501  1.8866
  765TIP3   OH223853   4.712   2.017   0.977 -0.1380 -0.3514  0.1623
  765TIP3    H123854   4.629   2.057   0.951 -0.7144 -1.3896  0.3433
  765TIP3    H223855   4.698   1.988   1.067  0.3625 -0.6670  0.1432
  766TIP3   OH223856   1.526   4.571   2.300  0.3120 -0.9508 -0.3774
  766TIP3    H123857   1.595   4.552   2.363  0.0966 -1.0364 -0.1637
  766TIP3    H223858   1.485   4.651   2.332 -1.2881 -2.2105  0.9015
  767TIP3   OH223859   5.715   1.254   1.641  0.1751  0.2443  0.5545
  767TIP3    H123860   5.758   1.283   1.560  1.6299 -1.3818  0.6907
  767TIP3    H223861   5.630   1.221   1.613 -0.6539  2.5699  0.1390
  768TIP3   OH223862   4.433   0.400   1.862 -0.1202  0.3077 -0.6817
  768TIP3    H123863   4.466   0.440   1.781  0.5278 -0.8252 -0.9989
  768TIP3    H223864   4.344   0.372   1.840 -0.2857  0.8229 -0.7017
  769TIP3   OH223865   1.330   1.827   1.960  0.7144  0.4270 -0.2893
  769TIP3    H123866   1.272   1.860   2.029 -0.5028  0.4253 -1.2630
  769TIP3    H223867   1.415   1.866   1.979 -0.0798  2.0837  0.0525
  770TIP3   OH223868   3.320   4.545   1.987 -0.1472  0.1217  0.0175
  770TIP3    H123869   3.347   4.582   1.904 -0.4721 -0.4799 -0.3658
  770TIP3    H223870   3.253   4.480   1.964 -0.1377 -0.1529  0.7287
  771TIP3   OH223871   6.171   6.016   1.055  0.2515  0.3302 -0.3070
  771TIP3    H123872   6.229   6.023   1.131  0.9171 -0.2175 -0.7582
  771TIP3    H223873   6.119   5.937   1.071  0.2342  0.3398 -0.3153
  772TIP3   OH223874   1.015   4.989   1.545 -0.1484  0.0934 -0.9202
  772TIP3    H123875   0.994   4.896   1.531  1.0379 -0.3625  0.1548
  772TIP3    H223876   1.062   4.990   1.628 -3.0147  2.0843  0.8491
  773TIP3   OH223877   6.776   3.868   8.390  0.0558  0.3994 -0.2521
  773TIP3    H123878   6.826   3.929   8.336 -0.8171  0.6206 -0.8384
  773TIP3    H223879   6.806   3.781   8.362  1.3928  0.5355  0.6773
  774TIP3   OH223880   0.802   5.445   1.147  0.3844  0.4592  0.2691
  774TIP3    H123881   0.823   5.476   1.058  1.0449  0.2455  0.3511
  774TIP3    H223882   0.886   5.437   1.191  0.2393 -1.3452  0.2952
  775TIP3   OH223883   6.100   6.353   7.932  0.1454 -0.7748  0.0542
  775TIP3    H123884   6.161   6.284   7.906  0.7665 -0.1285 -0.2193
  775TIP3    H223885   6.104   6.417   7.861  1.5360  0.8274  1.4913
  776TIP3   OH223886   1.613   4.323   0.842 -0.2731  0.3056 -0.1062
  776TIP3    H123887   1.572   4.248   0.798  1.1268 -1.9558  2.1459
  776TIP3    H223888   1.706   4.312   0.827  0.2505 -0.3967  2.9611
  777TIP3   OH223889   2.605   1.829   3.091  0.0298  0.3404  0.0946
  777TIP3    H123890   2.570   1.864   3.010  1.4386 -0.0629 -0.7251
  777TIP3    H223891   2.574   1.739   3.094  0.9192  0.0009 -0.5979
  778TIP3   OH223892   3.760   1.171   3.629 -0.5863  0.1699 -1.0171
  778TIP3    H123893   3.801   1.255   3.649 -0.7545  0.1498 -0.5733
  778TIP3    H223894   3.676   1.175   3.674  1.2466 -2.0796  3.1569
  779TIP3   OH223895   6.852   3.196   7.419 -0.0571  0.0324  0.4743
  779TIP3    H123896   6.929   3.239   7.455  0.7329  1.2595 -2.3653
  779TIP3    H223897   6.785   3.265   7.420 -0.6505 -0.5315  1.3758
  780TIP3   OH223898   6.919   1.874   1.273  0.0785 -0.0730  0.4936
  780TIP3    H123899   6.921   1.788   1.316 -1.4272  0.1968  1.1957
  780TIP3    H223900   6.868   1.860   1.193  1.4419 -0.2112 -0.3757
  781TIP3   OH223901   5.812   6.128   2.529  0.0589  0.0270 -0.5678
  781TIP3    H123902   5.903   6.109   2.507 -0.0666 -0.2380 -0.8610
  781TIP3    H223903   5.773   6.155   2.446 -0.6099 -1.6922 -0.8375
  782TIP3   OH223904   4.985   5.496   8.040  0.1489 -0.5694 -0.1297
  782TIP3    H123905   5.075   5.487   8.069  0.2354 -0.1336 -0.2461
  782TIP3    H223906   4.977   5.435   7.966  0.0056 -1.4740  0.6145
  783TIP3   OH223907   0.145   1.859   0.308  0.5437  0.3457 -0.3328
  783TIP3    H123908   0.174   1.869   0.399  1.9379  0.3595 -0.7525
  783TIP3    H223909   0.223   1.828   0.261 -0.4785 -0.8381 -1.3066
  784TIP3   OH223910   1.038   2.331   2.296  0.0438  0.3238  0.3809
  784TIP3    H123911   1.125   2.369   2.287  0.0679  1.2574  3.2714
  784TIP3    H223912   0.978   2.401   2.270  0.1167 -0.2876 -1.5183
  785TIP3   OH223913   2.454   3.422   2.629 -0.1158 -0.6820 -0.3253
  785TIP3    H123914   2.413   3.336   2.637 -2.0710  0.2177 -0.1556
  785TIP3    H223915   2.412   3.475   2.697  0.8970  0.4656 -0.5621
  786TIP3   OH223916   4.526   6.220   0.980  0.4771 -0.2668 -0.3767
  786TIP3    H123917   4.475   6.176   1.048 -1.2314  1.5554 -0.3994
  786TIP3    H223918   4.504   6.172   0.900 -2.9466  1.6115 -0.7629
  787TIP3   OH223919   3.994   4.683   8.407 -0.0087  0.6165  0.2659
  787TIP3    H123920   4.007   4.612   8.344  0.1198  0.4332  0.4982
  787TIP3    H223921   3.967   4.639   8.487 -1.2277  0.9337  0.0372
  788TIP3   OH223922   5.780   6.197   2.211  0.6122 -0.1449  0.1841
  788TIP3    H123923   5.842   6.128   2.187  1.2231  0.8633 -1.2701
  788TIP3    H223924   5.722   6.205   2.135 -0.5308 -0.2000  1.0203
  789TIP3   OH223925   3.476   1.306   0.180  0.4159  0.4991 -0.1662
  789TIP3    H123926   3.384   1.287   0.194 -0.1562  1.5059 -2.2611
  789TIP3    H223927   3.479   1.359   0.101  2.8508  0.0636 -0.4628
  790TIP3   OH223928   0.699   1.615   8.447 -0.4602  0.3639  0.1727
  790TIP3    H123929   0.646   1.654   8.378 -0.2371  0.4557  0.0506
  790TIP3    H223930   0.753   1.688   8.479 -0.0214  0.1468 -0.0735
  791TIP3   OH223931   6.232   0.851   0.930 -0.3604  0.5386  0.3096
  791TIP3    H123932   6.253   0.942   0.952 -0.4252  0.5610  0.2790
  791TIP3    H223933   6.251   0.844   0.837 -0.3398  0.5161  0.3155
  792TIP3   OH223934   6.157   3.200   2.063  0.0129  0.2391 -0.0908
  792TIP3    H123935   6.171   3.293   2.084  1.4520 -0.0777  0.5021
  792TIP3    H223936   6.244   3.161   2.071 -0.9077 -1.5897  1.8310
  793TIP3   OH223937   3.376   3.393   1.053 -0.1570 -0.1465  0.0116
  793TIP3    H123938   3.383   3.309   1.008  0.8933 -0.7408  1.2056
  793TIP3    H223939   3.466   3.426   1.057 -0.0598 -0.4782  2.2482
  794TIP3   OH223940   0.486   6.865   2.697  0.4563 -0.8473  0.1037
  794TIP3    H123941   0.530   6.928   2.641  1.5754  3.0835  4.6958
  794TIP3    H223942   0.558   6.818   2.741 -0.2880 -2.2381 -0.1251
  795TIP3   OH223943   3.632   2.110   0.484 -0.1341  0.0556  0.2376
  795TIP3    H123944   3.708   2.112   0.542  0.0790  2.0903 -0.0555
  795TIP3    H223945   3.558   2.093   0.541  0.3452 -0.4466  0.7288
  796TIP3   OH223946   2.347   3.774   2.357 -0.3718 -0.4865 -0.3090
  796TIP3    H123947   2.413   3.706   2.343  0.1545  0.0887 -0.6999
  796TIP3    H223948   2.298   3.745   2.434  0.8192 -0.5776  0.4570
  797TIP3   OH223949   5.288   4.691   0.726 -0.1819  0.0385  0.2434
  797TIP3    H123950   5.351   4.723   0.791  0.2989 -0.6806  0.1375
  797TIP3    H223951   5.325   4.608   0.695 -1.0191 -0.2327 -0.0558
  798TIP3   OH223952   5.010   1.212   1.100 -0.4798 -0.2094  0.1506
  798TIP3    H123953   5.019   1.119   1.080  1.0614  0.3337 -2.1199
  798TIP3    H223954   5.014   1.255   1.014  1.1956  2.0687  1.2656
  799TIP3   OH223955   0.507   0.031   0.818 -0.1012 -0.0848  0.2091
  799TIP3    H123956   0.571   0.065   0.881  0.0137  0.4005 -0.1674
  799TIP3    H223957   0.529   0.074   0.735 -1.3396  0.6290  0.2158
  800TIP3   OH223958   4.433   4.910   2.139  0.2040 -0.2748  0.0311
  800TIP3    H123959   4.509   4.950   2.182  0.6956 -1.5727  0.4430
  800TIP3    H223960   4.466   4.882   2.054  0.3602 -1.2966  0.4079
  801TIP3   OH223961   1.093   0.440   8.487  0.1462 -0.0193  0.0247
  801TIP3    H123962   1.058   0.354   8.511 -0.9342  0.3134 -0.3193
  801TIP3    H223963   1.113   0.482   8.571  1.6005 -0.9515  0.1843
  802TIP3   OH223964   5.878   2.663   1.170 -0.0940 -0.0411 -0.0011
  802TIP3    H123965   5.889   2.584   1.223 -1.3183 -0.4474 -0.3087
  802TIP3    H223966   5.937   2.651   1.096  0.5749 -0.1260  0.5411
  803TIP3   OH223967   2.110   5.555   8.441  0.3983 -0.0252  0.2047
  803TIP3    H123968   2.093   5.460   8.440 -1.4695  0.2653  0.6287
  803TIP3    H223969   2.113   5.577   8.534 -0.3043  0.4982  0.1084
  804TIP3   OH223970   5.455   1.129   0.498 -0.5102 -0.2988  0.0370
  804TIP3    H123971   5.463   1.222   0.521  0.1384 -0.1709 -0.6531
  804TIP3    H223972   5.504   1.083   0.565  1.2096  0.0517 -0.9115
  805TIP3   OH223973   5.635   2.075   1.642 -0.2846 -0.1693  0.2668
  805TIP3    H123974   5.577   2.085   1.718  0.9157  2.5514  0.9443
  805TIP3    H223975   5.603   2.139   1.579  0.2469 -0.6724 -0.5358
  806TIP3   OH223976   1.918   0.795   7.453 -0.5851  0.0944 -0.4169
  806TIP3    H123977   1.994   0.828   7.405 -0.5359 -2.4368 -2.2879
  806TIP3    H223978   1.940   0.704   7.473 -1.0614  0.6788  3.6596
  807TIP3   OH223979   2.498   0.790   7.288 -0.4515 -0.7217  0.3506
  807TIP3    H123980   2.503   0.827   7.200 -0.4614 -2.3615 -0.3769
  807TIP3    H223981   2.445   0.852   7.338 -1.5302 -0.3890 -1.1469
  808TIP3   OH223982   6.560   0.119   0.193 -0.5919 -0.6320 -0.1288
  808TIP3    H123983   6.517   0.115   0.279 -1.6813  1.4757 -0.5200
  808TIP3    H223984   6.543   0.207   0.162  4.4804  0.5811 -0.1852
  809TIP3   OH223985   1.603   1.340   8.269  0.3965 -0.5851 -0.1670
  809TIP3    H123986   1.604   1.281   8.344 -2.0510 -0.0517  0.3632
  809TIP3    H223987   1.552   1.294   8.202 -0.9974  0.5855  0.0234
  810TIP3   OH223988   2.579   4.303   1.850  0.0948  0.0942 -0.3187
  810TIP3    H123989   2.527   4.305   1.930  0.3633  2.3627 -0.1403
  810TIP3    H223990   2.521   4.263   1.785 -0.4490 -0.9315  0.7444
  811TIP3   OH223991   1.556   3.215   2.931 -0.0184  0.5736 -0.2528
  811TIP3    H123992   1.494   3.144   2.950 -0.2955  0.3866 -1.7368
  811TIP3    H223993   1.550   3.272   3.008 -2.4280  0.8199 -0.5189
  812TIP3   OH223994   5.565   5.377   8.168 -0.1015  0.2054 -0.3306
  812TIP3    H123995   5.531   5.463   8.144 -1.0988 -0.4289 -1.2490
  812TIP3    H223996   5.604   5.344   8.087  1.4876  0.3298  0.3488
  813TIP3   OH223997   0.494   4.991   2.048 -0.2966 -0.5337 -0.4424
  813TIP3    H123998   0.588   4.980   2.037 -0.1386 -1.2819  1.3118
  813TIP3    H223999   0.473   5.069   1.998  0.9230 -1.3714 -2.3816
  814TIP3   OH224000   5.480   5.216   0.601 -0.5034 -0.2121  0.0672
  814TIP3    H124001   5.544   5.229   0.531 -1.4703 -0.0827 -0.8140
  814TIP3    H224002   5.408   5.275   0.579 -0.2970  0.7729  1.8539
  815TIP3   OH224003   0.351   3.575   3.362 -0.3949 -0.0005 -0.0166
  815TIP3    H124004   0.375   3.658   3.321 -0.7546 -0.1225 -0.4876
  815TIP3    H224005   0.429   3.520   3.353 -0.3776  0.0677 -0.2864
  816TIP3   OH224006   0.828   2.014   0.909  0.1769 -0.0328  0.1622
  816TIP3    H124007   0.867   1.994   0.994  2.0282  0.1532 -0.5845
  816TIP3    H224008   0.783   1.934   0.883  2.4485 -1.3026 -0.1373
  817TIP3   OH224009   0.103   2.920   3.667 -0.2840 -0.1682 -0.2265
  817TIP3    H124010   0.122   2.838   3.713  0.8639  0.3436  0.2413
  817TIP3    H224011   0.140   2.907   3.580  0.3874  0.0483  0.0215
  818TIP3   OH224012   2.123   2.529   1.583  0.4468  0.4263  0.4487
  818TIP3    H124013   2.052   2.587   1.613 -0.2615 -0.1585 -0.0625
  818TIP3    H224014   2.138   2.470   1.657 -0.3511 -0.1354  0.1722
  819TIP3   OH224015   3.148   0.718   0.474  0.7270 -0.7204 -0.0718
  819TIP3    H124016   3.206   0.656   0.430  2.2008  0.1607  0.5575
  819TIP3    H224017   3.206   0.774   0.525 -0.6245  0.6396  0.0722
  820TIP3   OH224018   0.252   0.797   2.572 -0.2486 -0.4038 -0.3244
  820TIP3    H124019   0.178   0.852   2.545  2.2614  3.0439 -0.9535
  820TIP3    H224020   0.310   0.796   2.496  0.7008 -2.4232  0.3558
  821TIP3   OH224021   0.916   6.165   2.235 -0.8147  0.3522 -0.0000
  821TIP3    H124022   0.976   6.238   2.249  1.0413 -0.7268 -1.7702
  821TIP3    H224023   0.873   6.153   2.319 -0.4646  2.8311  0.6036
  822TIP3   OH224024   0.084   2.910   2.167 -0.1514  0.2515  0.4122
  822TIP3    H124025   0.033   2.883   2.243  1.2215 -0.7488  1.0268
  822TIP3    H224026   0.174   2.882   2.187  0.2067 -0.2608 -1.6740
  823TIP3   OH224027   4.482   4.370   3.561 -0.0061  0.1054 -0.0314
  823TIP3    H124028   4.571   4.404   3.557 -1.0063  3.0555  0.6540
  823TIP3    H224029   4.488   4.295   3.620  1.9368  0.5234  0.3768
  824TIP3   OH224030   4.816   2.939   1.147 -0.7784 -0.1437  0.1176
  824TIP3    H124031   4.876   2.890   1.091 -0.6905 -0.6041  0.6171
  824TIP3    H224032   4.742   2.960   1.089  0.6454  2.0807 -1.0706
  825TIP3   OH224033   4.220   2.400   0.086  0.8778 -0.1093 -0.1305
  825TIP3    H124034   4.149   2.339   0.070 -0.7116  1.8526 -0.9886
  825TIP3    H224035   4.256   2.419  -0.001  0.4076  1.2099 -0.0641
  826TIP3   OH224036   1.599   3.713   1.425  0.7434  0.2158  0.0862
  826TIP3    H124037   1.609   3.619   1.410  1.7010  0.2299  0.5618
  826TIP3    H224038   1.687   3.744   1.443  0.2705  0.9634  1.2714
  827TIP3   OH224039   4.213   6.513   1.743  0.6494 -0.2505  0.6759
  827TIP3    H124040   4.203   6.589   1.685  1.1492 -0.5728  0.1476
  827TIP3    H224041   4.145   6.453   1.715  0.0228  0.1379  1.3328
  828TIP3   OH224042   4.015   4.782   1.038 -0.1585  0.1226  0.0244
  828TIP3    H124043   4.069   4.860   1.048  0.1103  0.2352 -2.0335
  828TIP3    H224044   4.049   4.721   1.105  1.0300  0.9881  0.2348
  829TIP3   OH224045   1.713   6.521   0.279  0.6951  0.2899  0.6091
  829TIP3    H124046   1.651   6.534   0.207  0.5215 -0.5589  0.5864
  829TIP3    H224047   1.798   6.513   0.236  0.5037 -0.9227  0.4151
  830TIP3   OH224048   1.413   4.747   1.758 -0.2894 -0.0114  0.1225
  830TIP3    H124049   1.475   4.795   1.703  0.6350 -1.3898 -0.0868
  830TIP3    H224050   1.355   4.702   1.696  2.3819 -3.7400 -0.0008
  831TIP3   OH224051   0.770   1.544   3.289  0.2206  0.5554 -0.4006
  831TIP3    H124052   0.725   1.463   3.312 -1.0877  1.0202 -1.2324
  831TIP3    H224053   0.768   1.596   3.369  0.3837  0.0828 -0.0842
  832TIP3   OH224054   1.733   6.696   3.247 -0.4274 -0.0206 -0.2715
  832TIP3    H124055   1.771   6.612   3.276 -0.2421 -0.3386 -1.3909
  832TIP3    H224056   1.772   6.761   3.305 -0.8886 -0.7434  0.8875
  833TIP3   OH224057   0.853   2.234   1.229  0.4114 -0.6217 -0.3686
  833TIP3    H124058   0.926   2.186   1.189  1.7679  0.8686  0.1586
  833TIP3    H224059   0.842   2.311   1.173  0.6916  0.2316  0.7105
  834TIP3   OH224060   3.740   2.712   8.167 -0.8444 -0.1325 -0.6021
  834TIP3    H124061   3.805   2.684   8.231 -1.3545  0.3638  0.1538
  834TIP3    H224062   3.702   2.792   8.205  0.1330  1.2727 -2.3873
  835TIP3   OH224063   0.868   1.362   3.652  0.3123  0.2750 -0.4028
  835TIP3    H124064   0.773   1.357   3.652  0.2880  0.6972  0.5928
  835TIP3    H224065   0.896   1.274   3.625 -0.3526  0.4984 -1.9575
  836TIP3   OH224066   0.521   1.328   8.322 -0.2778 -0.2871  0.1192
  836TIP3    H124067   0.590   1.359   8.262  0.3864 -0.3324  0.8411
  836TIP3    H224068   0.463   1.403   8.332 -0.5577 -0.3644 -0.7954
  837TIP3   OH224069   5.386   5.723   3.423 -0.3094  0.2446  0.0929
  837TIP3    H124070   5.479   5.701   3.418 -0.7629 -2.0190  0.3281
  837TIP3    H224071   5.351   5.662   3.488 -2.0863  0.5872 -0.4915
  838TIP3   OH224072   4.143   3.351   2.773  0.2656 -0.2368 -0.1092
  838TIP3    H124073   4.124   3.352   2.680  3.1001 -0.2850 -0.7744
  838TIP3    H224074   4.136   3.443   2.800 -1.0880 -0.2907 -0.1930
  839TIP3   OH224075   1.663   5.958   2.991 -0.5969  0.1056 -0.5150
  839TIP3    H124076   1.601   5.907   3.044 -0.6969  1.4513  0.7136
  839TIP3    H224077   1.731   5.894   2.967 -1.5150 -0.9658 -0.3546
  840TIP3   OH224078   6.870   3.010   3.308  0.1936 -0.7809 -0.5455
  840TIP3    H124079   6.938   2.968   3.361  1.1987 -0.4441 -1.5163
  840TIP3    H224080   6.894   2.988   3.217 -0.5622 -0.0319 -0.9419
  841TIP3   OH224081   1.547   5.853   2.400 -0.0171 -0.2998 -0.0661
  841TIP3    H124082   1.465   5.836   2.448 -0.6269  0.9043 -0.6548
  841TIP3    H224083   1.555   5.779   2.340 -0.1893 -0.8859  0.6048
  842TIP3   OH224084   2.346   6.545   2.942  0.4467  0.0219 -0.4010
  842TIP3    H124085   2.289   6.562   3.017  1.8251 -1.0129  0.9389
  842TIP3    H224086   2.303   6.589   2.869 -1.4639  0.2240  0.7781
  843TIP3   OH224087   3.842   3.712   2.979  0.0619 -0.3533 -0.0582
  843TIP3    H124088   3.835   3.781   3.045  0.8348 -0.3869  0.0634
  843TIP3    H224089   3.811   3.633   3.023  0.2666 -0.3110  0.1637
  844TIP3   OH224090   6.745   0.218   3.034  0.0833  0.0711 -0.1030
  844TIP3    H124091   6.823   0.251   2.990 -0.4343  1.8539  0.2137
  844TIP3    H224092   6.708   0.153   2.974  1.7931 -0.8071 -0.2442
  845TIP3   OH224093   1.828   2.175   1.764  0.0051  0.0381  0.0735
  845TIP3    H124094   1.736   2.150   1.757  0.5230 -1.7564 -0.8795
  845TIP3    H224095   1.854   2.196   1.674  0.7623 -0.4053  0.1819
  846TIP3   OH224096   0.056   1.312   8.381 -0.3167  0.1425 -0.0314
  846TIP3    H124097   0.014   1.226   8.385  0.7231 -0.6483 -3.1096
  846TIP3    H224098   0.041   1.342   8.291  0.7476  2.4881  0.4815
  847TIP3   OH224099   4.772   2.393   1.234 -0.0481 -0.2178 -0.5325
  847TIP3    H124100   4.776   2.456   1.162  1.1026  0.1918 -0.1199
  847TIP3    H224101   4.710   2.326   1.203  0.0641  0.1965 -1.7065
  848TIP3   OH224102   5.317   0.105   2.974 -0.4405 -0.3166 -0.0195
  848TIP3    H124103   5.372   0.028   2.990  1.1531  1.1347  2.1273
  848TIP3    H224104   5.378   0.178   2.973 -1.9182  0.9900 -1.9105
  849TIP3   OH224105   5.448   3.544   8.375 -0.1064 -0.3930 -0.0588
  849TIP3    H124106   5.433   3.637   8.392 -0.8822 -0.2842 -1.2233
  849TIP3    H224107   5.487   3.511   8.456  2.0055  1.3432 -0.2532
  850TIP3   OH224108   3.472   0.579   1.961 -0.0075 -0.0107  0.0609
  850TIP3    H124109   3.391   0.533   1.939 -0.3520  0.1948  0.8513
  850TIP3    H224110   3.444   0.667   1.987  0.5101  0.1982 -0.0648
  851TIP3   OH224111   6.838   5.509   1.152  0.1229 -0.6063 -0.0005
  851TIP3    H124112   6.842   5.474   1.241 -0.7712  2.7249  1.5088
  851TIP3    H224113   6.756   5.475   1.117  1.3099 -3.3913 -0.3430
  852TIP3   OH224114   2.030   0.562   2.120 -0.5031  0.6158  0.0105
  852TIP3    H124115   2.101   0.624   2.133 -1.1622  0.8928  2.9814
  852TIP3    H224116   2.037   0.501   2.193 -2.2831 -0.3844 -0.5881
  853TIP3   OH224117   4.069   1.266   2.431 -0.7982 -0.4710  0.0036
  853TIP3    H124118   4.121   1.309   2.363 -0.6142 -0.3992  0.1897
  853TIP3    H224119   4.065   1.329   2.502  0.7507 -1.3037  0.9036
  854TIP3   OH224120   2.892   5.634   2.085 -0.5841 -0.5554  0.2359
  854TIP3    H124121   2.800   5.659   2.093 -0.2326  0.9847 -0.2666
  854TIP3    H224122   2.900   5.606   1.993 -0.1986  0.9424 -0.2101
  855TIP3   OH224123   2.152   1.369   7.947  0.1920 -0.3140 -0.4899
  855TIP3    H124124   2.103   1.436   7.900  0.8783  1.0471  0.6777
  855TIP3    H224125   2.215   1.336   7.882 -0.8957 -0.6722 -1.4053
  856TIP3   OH224126   5.595   3.030   0.982  0.1959 -0.1025  0.6695
  856TIP3    H124127   5.562   3.081   1.055 -0.1221  0.0760  0.4031
  856TIP3    H224128   5.619   2.945   1.020  1.2797  0.4253  1.2360
  857TIP3   OH224129   4.803   0.783   0.185 -0.0242  0.3695  0.4392
  857TIP3    H124130   4.852   0.802   0.104  3.2392  0.5655  2.3003
  857TIP3    H224131   4.869   0.785   0.254 -2.5834 -0.3606  3.0970
  858TIP3   OH224132   0.045   0.979   3.305 -0.1442 -0.4500 -0.5806
  858TIP3    H124133   0.123   1.033   3.312  2.2656 -3.4510 -1.9891
  858TIP3    H224134  -0.027   1.037   3.331  2.3087  2.9242 -0.6897
  859TIP3   OH224135   2.935   1.061   0.159  0.0036 -0.0025  0.1864
  859TIP3    H124136   2.882   1.007   0.217 -0.5213 -0.9330 -1.1040
  859TIP3    H224137   2.990   0.998   0.111 -0.4950  0.5969 -1.2180
  860TIP3   OH224138   2.438   3.824   0.506  0.2317 -0.1324 -0.2073
  860TIP3    H124139   2.392   3.785   0.431 -0.5370 -1.4925  0.9147
  860TIP3    H224140   2.487   3.897   0.469 -2.7402  1.3722 -1.5092
  861TIP3   OH224141   5.319   0.688   0.960  0.6461 -0.2980  0.4257
  861TIP3    H124142   5.309   0.668   0.867  0.8491 -0.6236  0.4705
  861TIP3    H224143   5.232   0.677   0.997  0.5936 -0.3080  0.2991
  862TIP3   OH224144   6.875   6.141   0.249  0.2456 -0.2112  0.0534
  862TIP3    H124145   6.813   6.100   0.189 -0.1861 -0.7309  0.8378
  862TIP3    H224146   6.834   6.135   0.335  0.7975  0.6310  0.3993
  863TIP3   OH224147   3.430   5.305   1.327  0.6446 -0.5580  0.1093
  863TIP3    H124148   3.382   5.386   1.308  0.9080 -0.3574  0.2803
  863TIP3    H224149   3.383   5.237   1.279 -0.7480 -0.6393  1.4850
  864TIP3   OH224150   2.340   4.460   2.964 -0.1789 -0.2217 -0.2429
  864TIP3    H124151   2.299   4.524   2.906  1.1329  0.7069 -0.2071
  864TIP3    H224152   2.270   4.399   2.986 -1.8446  1.8604  0.6518
  865TIP3   OH224153   5.688   2.020   0.172 -0.5606 -0.0293 -0.2789
  865TIP3    H124154   5.770   1.973   0.155 -0.8981 -1.6034  2.0215
  865TIP3    H224155   5.631   1.995   0.100  1.2640  2.1291 -2.6869
  866TIP3   OH224156   4.504   0.056   0.524  0.2869  0.2526  0.4798
  866TIP3    H124157   4.450   0.131   0.550 -0.5167 -0.1221 -0.0876
  866TIP3    H224158   4.588   0.072   0.567 -0.3425  0.7146  1.5954
  867TIP3   OH224159   2.808   2.732   7.481  0.2259 -0.4359  0.2742
  867TIP3    H124160   2.841   2.643   7.471 -0.0274 -0.3630 -1.6708
  867TIP3    H224161   2.713   2.721   7.492  0.3686 -0.4629  1.5053
  868TIP3   OH224162   5.672   6.701   2.721  0.1615  0.1119  0.4296
  868TIP3    H124163   5.617   6.636   2.765  0.9685 -1.8531 -1.2962
  868TIP3    H224164   5.613   6.775   2.703 -0.8199 -0.1702  2.2840
  869TIP3   OH224165   3.767   3.511   7.364  0.1747 -0.1428  0.6714
  869TIP3    H124166   3.737   3.601   7.374 -0.7201 -0.0634 -1.8621
  869TIP3    H224167   3.736   3.466   7.443 -3.0389  0.9032  0.1673
  870TIP3   OH224168   4.749   2.787   8.190 -0.0164 -0.4943  0.2881
  870TIP3    H124169   4.838   2.822   8.195 -0.2336 -0.0424  1.5053
  870TIP3    H224170   4.759   2.693   8.199  0.3383 -0.4382  0.5026
  871TIP3   OH224171   3.075   2.632   0.686  0.4824  0.6518 -0.2106
  871TIP3    H124172   3.005   2.615   0.750 -0.0485 -3.4991 -1.5909
  871TIP3    H224173   3.141   2.566   0.706 -0.1836 -1.6171 -4.3734
  872TIP3   OH224174   1.003   4.127   0.840 -0.2218  0.7290 -0.2862
  872TIP3    H124175   0.947   4.077   0.899 -0.5028  1.9019  0.4744
  872TIP3    H224176   0.944   4.159   0.772 -0.0254 -0.0213 -0.8249
  873TIP3   OH224177   0.908   0.054   1.773  0.3665 -0.3968  0.2923
  873TIP3    H124178   0.872   0.050   1.862  0.3523 -1.5951  0.2431
  873TIP3    H224179   0.841   0.013   1.718 -0.5751  2.1776 -0.6261
  874TIP3   OH224180   2.258   0.900   1.173 -0.0713  0.4797  0.8114
  874TIP3    H124181   2.216   0.867   1.252  0.0874  2.3113  1.7262
  874TIP3    H224182   2.186   0.912   1.111 -0.3804  0.1888  1.1100
  875TIP3   OH224183   5.888   4.370   0.494 -0.1899 -0.2193 -0.2486
  875TIP3    H124184   5.807   4.415   0.519  0.4076  0.6341  0.2181
  875TIP3    H224185   5.956   4.413   0.546  0.8719  0.4699 -2.1318
  876TIP3   OH224186   5.602   3.264   1.872 -0.0789  0.7010 -0.1235
  876TIP3    H124187   5.686   3.295   1.838 -0.3812  1.0671 -0.5574
  876TIP3    H224188   5.580   3.189   1.817 -0.5956  1.3277 -0.8070
  877TIP3   OH224189   5.961   1.461   0.451 -0.2831 -0.0588 -0.1586
  877TIP3    H124190   5.994   1.410   0.377 -0.3135  0.3720 -0.4742
  877TIP3    H224191   5.935   1.396   0.516  0.7373 -0.4229 -0.0955
  878TIP3   OH224192   3.241   3.074   0.083  0.3975  0.2615 -0.2021
  878TIP3    H124193   3.265   3.087   0.174  1.7440 -0.5577 -0.4191
  878TIP3    H224194   3.272   3.153   0.038 -0.2606  0.6614  0.0396
  879TIP3   OH224195   6.491   6.633   8.050  0.0788  0.6706 -0.5881
  879TIP3    H124196   6.491   6.599   7.960  1.4804 -1.9846  0.3091
  879TIP3    H224197   6.560   6.699   8.051  1.6423 -0.9057 -0.9625
  880TIP3   OH224198   4.767   0.135   2.970 -0.0705 -0.0069 -0.5412
  880TIP3    H124199   4.766   0.183   3.053 -0.5031 -0.2757 -0.3883
  880TIP3    H224200   4.848   0.084   2.973  0.2357  0.4695 -0.5676
  881TIP3   OH224201   1.727   3.187   3.182  0.0733 -0.3464  0.4750
  881TIP3    H124202   1.640   3.227   3.189  0.6693  0.8371  1.6600
  881TIP3    H224203   1.710   3.092   3.180 -1.2342 -0.1328  0.7393
  882TIP3   OH224204   5.447   3.242   1.175  0.2856  0.0064 -0.2498
  882TIP3    H124205   5.420   3.305   1.242  2.4031 -0.4452  1.1353
  882TIP3    H224206   5.395   3.265   1.098 -0.4330  2.1621  0.7977
  883TIP3   OH224207   3.471   0.830   1.716  0.1871 -0.0762  0.4727
  883TIP3    H124208   3.533   0.808   1.646 -0.2163  0.1555  0.0433
  883TIP3    H224209   3.387   0.795   1.687 -0.4113  1.7171 -0.0774
  884TIP3   OH224210   3.598   0.994   2.311 -0.3725  0.4479  0.2979
  884TIP3    H124211   3.523   1.032   2.266  0.8502  1.3963 -1.0532
  884TIP3    H224212   3.619   0.916   2.260  2.2584  2.5860 -2.2689
  885TIP3   OH224213   0.859   3.075   2.774  0.0484  0.1056  0.0031
  885TIP3    H124214   0.765   3.093   2.774  0.4269  2.4140 -1.2377
  885TIP3    H224215   0.866   2.984   2.744 -1.7896 -0.4364  1.0514
  886TIP3   OH224216   2.856   1.342   0.199 -0.3029 -0.6373 -0.0612
  886TIP3    H124217   2.870   1.250   0.174  1.6894 -0.4278  0.1442
  886TIP3    H224218   2.918   1.391   0.144  0.0929  0.3782  1.2584
  887TIP3   OH224219   3.852   3.448   0.303 -0.1310  0.5738 -0.7433
  887TIP3    H124220   3.898   3.415   0.226 -0.6407 -0.1076 -0.7712
  887TIP3    H224221   3.875   3.541   0.307  3.1805 -0.1716  0.6593
  888TIP3   OH224222   3.937   0.042   1.338 -0.8763 -0.0290  0.9060
  888TIP3    H124223   3.982   0.125   1.355 -0.8068  0.3692 -1.0098
  888TIP3    H224224   3.852   0.068   1.303  0.1505 -0.6512 -2.3566
  889TIP3   OH224225   0.213   2.853   7.719 -0.2965 -0.0176  0.4504
  889TIP3    H124226   0.149   2.869   7.649 -0.4339 -0.6053  0.4359
  889TIP3    H224227   0.214   2.758   7.729 -0.4029  0.0776  1.3765
  890TIP3   OH224228   5.749   6.078   7.939  0.7621  0.0723  0.4380
  890TIP3    H124229   5.809   6.131   7.888  1.6462  0.1123  1.4753
  890TIP3    H224230   5.787   5.990   7.938  1.7687  0.4191  2.4168
  891TIP3   OH224231   5.538   1.759   0.468 -0.3807 -0.0224 -0.6004
  891TIP3    H124232   5.541   1.774   0.562  0.2952 -1.0369 -0.4480
  891TIP3    H224233   5.445   1.744   0.449 -0.3924 -0.8403  0.0777
  892TIP3   OH224234   0.124   3.724   1.970 -0.0084  0.0554  0.3540
  892TIP3    H124235   0.091   3.744   2.057  0.0349 -0.7873  0.5741
  892TIP3    H224236   0.060   3.662   1.934 -0.6318  1.2679 -0.6571
  893TIP3   OH224237   5.698   2.712   2.760  0.1040  0.2037 -0.2388
  893TIP3    H124238   5.690   2.779   2.828 -1.6573 -1.9773  1.8835
  893TIP3    H224239   5.614   2.712   2.715  0.1630 -0.3859 -0.3647
  894TIP3   OH224240   1.647   2.957   7.473 -0.5464  0.2509 -0.5839
  894TIP3    H124241   1.657   2.984   7.564  0.6095 -0.2665 -0.5416
  894TIP3    H224242   1.693   2.873   7.468 -0.8322  0.1419 -1.5839
  895TIP3   OH224243   1.004   5.765   2.552  0.8370 -0.0346 -0.0794
  895TIP3    H124244   1.062   5.696   2.520  1.1500 -0.4442  1.3218
  895TIP3    H224245   0.927   5.719   2.585  0.9416  0.2954  0.6452
  896TIP3   OH224246   3.121   0.285   7.649  0.3046  0.1402  0.1775
  896TIP3    H124247   3.143   0.192   7.650  0.6608  0.1956 -1.0147
  896TIP3    H224248   3.115   0.307   7.556  0.8444  1.4454  0.4342
  897TIP3   OH224249   0.149   2.398   1.571  0.0759  0.1919  0.3951
  897TIP3    H124250   0.087   2.332   1.541  0.7342  0.3555 -1.4762
  897TIP3    H224251   0.202   2.353   1.637 -1.8454  0.0051  1.8800
  898TIP3   OH224252   2.985   6.474   0.013  0.2286  0.3660  0.2685
  898TIP3    H124253   3.067   6.483  -0.036  0.1826 -0.6640 -0.0120
  898TIP3    H224254   2.923   6.531  -0.032  0.9128  1.5732  0.7959
  899TIP3   OH224255   6.273   3.437   1.190 -0.1793 -0.3642 -0.5572
  899TIP3    H124256   6.183   3.414   1.166 -0.8452  0.9572  0.5123
  899TIP3    H224257   6.324   3.420   1.111 -1.5410 -0.1860 -1.5140
  900TIP3   OH224258   2.253   3.576   0.609 -0.4927  0.2671 -0.5420
  900TIP3    H124259   2.304   3.536   0.680  0.5818  1.4769 -0.6128
  900TIP3    H224260   2.309   3.569   0.532 -1.0730  0.2369 -0.9696
  901TIP3   OH224261   6.366   6.210   0.914 -0.4560  0.1642  0.3025
  901TIP3    H124262   6.369   6.305   0.924 -0.0199  0.0087  2.0275
  901TIP3    H224263   6.328   6.179   0.997 -0.3691 -1.1760 -0.1403
  902TIP3   OH224264   5.305   6.705   7.871 -0.1297 -0.7999  0.3972
  902TIP3    H124265   5.266   6.758   7.801  2.3580 -0.1417 -0.5659
  902TIP3    H224266   5.384   6.752   7.896 -0.7541 -1.2168  3.4794
  903TIP3   OH224267   0.807   4.743   1.756 -0.0057  0.0319 -0.3427
  903TIP3    H124268   0.896   4.707   1.756 -0.8022 -2.2091 -2.7101
  903TIP3    H224269   0.759   4.690   1.692 -3.3440  0.4970  1.5403
  904TIP3   OH224270   0.212   2.292   1.178  0.2031  0.0048 -0.0889
  904TIP3    H124271   0.235   2.200   1.165  1.8980  0.1756  1.3402
  904TIP3    H224272   0.160   2.293   1.259 -0.4233  0.2328 -0.4873
  905TIP3   OH224273   1.097   5.642   1.536  0.1564  0.1308 -0.5417
  905TIP3    H124274   1.109   5.629   1.442  2.2818 -1.5980 -0.1199
  905TIP3    H224275   1.112   5.556   1.574 -1.1040  0.6999  1.3751
  906TIP3   OH224276   6.848   4.751   0.186  0.3824 -0.7350  0.3902
  906TIP3    H124277   6.866   4.834   0.230 -1.1310 -1.4950  2.5993
  906TIP3    H224278   6.763   4.763   0.145  0.7185 -0.8204 -0.3497
  907TIP3   OH224279   3.215   1.613   8.230  0.0664  0.0902 -0.3465
  907TIP3    H124280   3.195   1.524   8.200 -0.4755  0.5562 -1.4363
  907TIP3    H224281   3.161   1.625   8.308  1.4692 -1.1414  0.8655
  908TIP3   OH224282   5.434   2.408   0.848  0.1722  0.0271  0.2295
  908TIP3    H124283   5.525   2.380   0.857 -0.0039  0.1207  2.8106
  908TIP3    H224284   5.393   2.338   0.797  0.9663 -1.6887  1.8433
  909TIP3   OH224285   4.602   6.110   2.766  0.1775  0.1421  0.2988
  909TIP3    H124286   4.643   6.056   2.833  1.4106  1.2107  0.4481
  909TIP3    H224287   4.654   6.094   2.687  1.8651  2.5284  0.8100
  910TIP3   OH224288   1.931   3.170   0.012  0.2654  0.1802 -0.1343
  910TIP3    H124289   1.952   3.140   0.100 -0.6105 -0.7386 -0.2216
  910TIP3    H224290   1.954   3.095  -0.045  0.6945  0.7106 -0.6751
  911TIP3   OH224291   0.778   2.126   7.974  0.2982 -0.0247 -0.0720
  911TIP3    H124292   0.761   2.213   7.939 -0.7340 -0.3069 -0.3133
  911TIP3    H224293   0.873   2.114   7.967  0.6369  1.6040  1.1999
  912TIP3   OH224294   6.503   1.987   0.008 -0.0294 -0.0051 -0.3326
  912TIP3    H124295   6.524   2.080  -0.003  0.3693 -0.1714 -1.1004
  912TIP3    H224296   6.411   1.979  -0.017 -0.8539  0.5994  2.2716
  913TIP3   OH224297   2.923   1.390   2.129  0.0247  0.5991 -0.1001
  913TIP3    H124298   2.951   1.402   2.219  0.0557  2.8320 -0.3635
  913TIP3    H224299   2.829   1.371   2.136  0.1335  0.2135  0.4076
  914TIP3   OH224300   5.610   2.295   3.224  0.0662 -0.1655 -0.7922
  914TIP3    H124301   5.700   2.321   3.243  0.6315 -1.0773 -2.0786
  914TIP3    H224302   5.568   2.290   3.310  1.5917 -0.9498 -0.0353
  915TIP3   OH224303   3.855   0.249   2.370 -0.4471 -0.5753  0.5853
  915TIP3    H124304   3.789   0.212   2.312 -0.7188  0.2551  0.3510
  915TIP3    H224305   3.847   0.198   2.451  1.3626 -3.1695 -0.7575
  916TIP3   OH224306   3.451   2.245   2.055  0.1764 -0.8779 -0.4247
  916TIP3    H124307   3.440   2.267   2.148 -1.0613  0.1721 -0.7907
  916TIP3    H224308   3.535   2.199   2.052 -0.4295 -2.2443  1.4209
  917TIP3   OH224309   2.807   5.471   0.654  0.7590  0.3501  0.1880
  917TIP3    H124310   2.838   5.413   0.584 -0.6608  0.5081 -0.6113
  917TIP3    H224311   2.804   5.558   0.614  1.0994  0.6661  0.8266
  918TIP3   OH224312   6.291   5.109   8.139 -0.8588  0.7108 -0.1000
  918TIP3    H124313   6.350   5.183   8.124 -1.4544  1.1440 -0.3672
  918TIP3    H224314   6.345   5.044   8.185 -0.3292  1.3125  0.1480
  919TIP3   OH224315   4.993   3.174   7.788 -0.4323  0.6183  0.4638
  919TIP3    H124316   5.055   3.124   7.841  0.7263  1.2435 -0.2305
  919TIP3    H224317   5.013   3.149   7.698 -0.8683  1.1717  0.2051
  920TIP3   OH224318   0.297   0.377   8.203 -0.0514  0.0597  0.3428
  920TIP3    H124319   0.201   0.373   8.198 -0.1024  0.7439  0.6375
  920TIP3    H224320   0.316   0.359   8.295  0.3360 -3.5276 -0.2968
  921TIP3   OH224321   2.753   3.629   7.215 -0.0585  0.3758  0.3171
  921TIP3    H124322   2.666   3.649   7.249 -1.1559  1.9164 -2.9626
  921TIP3    H224323   2.801   3.711   7.220  0.4271  0.1158  0.0416
  922TIP3   OH224324   1.960   6.855   8.201 -0.0228 -0.3918  0.2173
  922TIP3    H124325   1.894   6.880   8.137  1.5088  2.1857 -0.4790
  922TIP3    H224326   1.924   6.884   8.285 -1.1023 -1.8858  0.3215
  923TIP3   OH224327   3.534   3.818   2.876  0.0670  0.8636  0.3269
  923TIP3    H124328   3.571   3.838   2.790 -1.4365  0.6534 -0.3994
  923TIP3    H224329   3.532   3.723   2.880  1.3959  0.8333  1.2010
  924TIP3   OH224330   0.241   1.253   0.955  0.0317  0.8694  0.5130
  924TIP3    H124331   0.283   1.235   1.039 -0.1318  0.0598  0.4300
  924TIP3    H224332   0.148   1.235   0.970  0.4320 -3.1136 -0.7986
  925TIP3   OH224333   3.617   0.254   0.958  0.1912 -0.2325  0.1486
  925TIP3    H124334   3.632   0.196   0.883 -0.1121 -0.7924  0.5083
  925TIP3    H224335   3.689   0.316   0.955 -0.9996  1.2012 -1.9188
  926TIP3   OH224336   4.937   4.269   1.753  0.6140 -0.3738  0.1318
  926TIP3    H124337   4.981   4.343   1.712  1.4961 -0.9889 -0.0679
  926TIP3    H224338   4.920   4.208   1.681 -2.6386  0.7666 -0.2130
  927TIP3   OH224339   5.752   2.804   3.234  0.1402 -0.0482  0.5616
  927TIP3    H124340   5.689   2.757   3.288  0.4320 -1.1862 -0.0467
  927TIP3    H224341   5.822   2.740   3.217  0.6190  0.6468 -0.1830
  928TIP3   OH224342   1.091   3.476   1.729 -0.0527  0.1677  0.1948
  928TIP3    H124343   1.083   3.494   1.635 -0.8034 -2.4577 -0.3098
  928TIP3    H224344   1.019   3.524   1.769 -1.1530 -0.5594 -0.8667
  929TIP3   OH224345   5.595   6.936   1.111 -0.3466 -0.2486  1.0290
  929TIP3    H124346   5.580   6.890   1.029 -0.7175  2.1655 -0.3519
  929TIP3    H224347   5.532   6.898   1.172 -1.2296 -0.9558 -0.2844
  930TIP3   OH224348   5.743   6.497   3.275 -0.8893 -0.1693 -0.1648
  930TIP3    H124349   5.783   6.420   3.314 -0.6096 -0.1277 -0.3747
  930TIP3    H224350   5.713   6.549   3.350  2.3947  1.4421  0.1957
  931TIP3   OH224351   3.588   1.283   0.589 -0.0560  1.4241  0.3019
  931TIP3    H124352   3.667   1.313   0.635  0.4324  1.5830 -0.6303
  931TIP3    H224353   3.616   1.268   0.499 -0.7571  0.0717  0.2811
  932TIP3   OH224354   2.377   3.825   1.874  0.1840  0.1647 -0.2358
  932TIP3    H124355   2.432   3.855   1.947  2.4038  0.0143 -1.7667
  932TIP3    H224356   2.436   3.777   1.817 -2.2629 -3.1143 -0.3118
  933TIP3   OH224357   2.538   0.570   7.422 -0.5450 -0.5981 -0.7781
  933TIP3    H124358   2.523   0.640   7.358  0.0188  0.2710  0.0158
  933TIP3    H224359   2.456   0.564   7.470  0.0059  0.9618  0.4899
  934TIP3   OH224360   0.837   3.152   8.300  0.0524  0.9649 -0.1162
  934TIP3    H124361   0.769   3.190   8.356  0.4967 -0.0695  1.1639
  934TIP3    H224362   0.792   3.084   8.250  0.0468  0.6418  0.3343
  935TIP3   OH224363   3.435   6.650   1.294 -0.1949 -0.2018  0.0672
  935TIP3    H124364   3.386   6.731   1.308 -0.5241 -0.4436  0.3316
  935TIP3    H224365   3.402   6.616   1.211  1.3280  0.9225 -1.0445
  936TIP3   OH224366   1.546   2.022   1.989  0.4722  0.0915  0.1185
  936TIP3    H124367   1.572   2.068   1.909 -3.2325 -1.5520 -2.3397
  936TIP3    H224368   1.467   2.068   2.019 -0.0144 -1.1839  0.9166
  937TIP3   OH224369   4.118   4.585   1.507 -0.0152  0.7079  0.3766
  937TIP3    H124370   4.176   4.656   1.534  0.7411  1.0787 -2.0433
  937TIP3    H224371   4.071   4.619   1.431  0.2038 -1.2682 -0.7116
  938TIP3   OH224372   0.666   6.070   3.670 -0.0712  0.2928  0.5845
  938TIP3    H124373   0.593   6.057   3.609  0.6906  1.6721 -0.6851
  938TIP3    H224374   0.706   5.984   3.676  0.1972  0.2174 -1.4039
  939TIP3   OH224375   4.051   6.279   2.539 -0.2193 -0.3157 -0.1877
  939TIP3    H124376   4.036   6.285   2.633 -0.9972 -0.7550 -0.2790
  939TIP3    H224377   4.140   6.314   2.527 -0.2064 -0.0291  0.6718
  940TIP3   OH224378   3.946   0.573   1.354 -0.0990 -0.0463 -0.0439
  940TIP3    H124379   3.937   0.656   1.307  0.9194  0.4710  0.6553
  940TIP3    H224380   3.900   0.587   1.437 -2.6640 -1.2447 -1.1568
  941TIP3   OH224381   0.926   0.807   0.242 -0.4676  0.3202  0.1477
  941TIP3    H124382   0.991   0.755   0.193 -0.0052  1.5988 -0.6542
  941TIP3    H224383   0.976   0.882   0.275 -1.2944  0.6916  0.5577
  942TIP3   OH224384   4.250   5.013   1.751 -0.3248  0.4331 -0.9753
  942TIP3    H124385   4.163   5.026   1.713 -1.1317  1.1032  0.9772
  942TIP3    H224386   4.302   5.087   1.720 -0.4669  0.0830 -2.0696
  943TIP3   OH224387   0.954   0.189   8.203  0.6938 -0.8383  0.4298
  943TIP3    H124388   0.937   0.095   8.212 -3.8612 -0.1578  1.9246
  943TIP3    H224389   0.906   0.214   8.124  2.1109  0.2666 -0.1271
  944TIP3   OH224390   4.793   0.912   1.876  0.4844  0.1502 -0.5570
  944TIP3    H124391   4.784   0.982   1.941 -2.9907  0.1577 -0.8809
  944TIP3    H224392   4.807   0.833   1.928 -0.8746  0.3562  0.1586
  945TIP3   OH224393   1.853   6.887   0.536 -0.6565 -0.4867 -0.0009
  945TIP3    H124394   1.837   6.948   0.608 -1.0454 -2.7794  1.9803
  945TIP3    H224395   1.808   6.926   0.461 -2.0350  0.9880  1.5186
  946TIP3   OH224396   5.490   3.774   0.922 -0.3095 -0.0506 -0.0240
  946TIP3    H124397   5.551   3.833   0.879 -0.7255  0.2308 -0.2282
  946TIP3    H224398   5.464   3.711   0.854 -0.0962 -0.2905  0.1146
  947TIP3   OH224399   1.429   1.011   2.822  0.1012  0.3001 -0.8250
  947TIP3    H124400   1.518   0.988   2.794 -0.6447 -3.0109 -0.7975
  947TIP3    H224401   1.372   0.965   2.761 -1.6786  2.0801 -0.6183
  948TIP3   OH224402   5.392   5.379   1.897  0.0266 -0.2967 -0.0465
  948TIP3    H124403   5.483   5.402   1.919 -0.0864  1.9506 -1.6218
  948TIP3    H224404   5.362   5.451   1.842 -3.1097 -0.3881  1.3391
  949TIP3   OH224405   4.615   3.947   0.467  0.1209  0.5929 -0.3745
  949TIP3    H124406   4.674   4.003   0.417  0.0374  0.7226 -0.3277
  949TIP3    H224407   4.639   3.858   0.440  1.6151  0.5289  1.0338
  950TIP3   OH224408   3.123   6.523   3.210  0.2349  0.6286  0.6814
  950TIP3    H124409   3.140   6.486   3.124 -1.2983  0.3596  0.4643
  950TIP3    H224410   3.181   6.599   3.216  1.5044 -0.2672  0.0729
  951TIP3   OH224411   6.280   5.006   2.673 -0.2699 -0.0005 -0.1260
  951TIP3    H124412   6.256   5.042   2.588 -0.5025  0.1597  0.0040
  951TIP3    H224413   6.334   4.930   2.653  1.4569  1.2414 -0.3919
  952TIP3   OH224414   4.605   6.499   1.964  0.8287 -0.0562 -0.1562
  952TIP3    H124415   4.532   6.489   1.902  1.3708  0.2807 -0.8736
  952TIP3    H224416   4.563   6.521   2.047  0.1322  4.3254 -1.3770
  953TIP3   OH224417   4.992   6.076   7.819 -0.0348  0.6221 -0.1776
  953TIP3    H124418   4.964   6.026   7.896  0.8660  0.8392  0.3075
  953TIP3    H224419   4.913   6.087   7.767 -0.2979 -1.1364 -0.1988
  954TIP3   OH224420   5.958   1.429   3.079 -0.0059  0.1323 -0.2684
  954TIP3    H124421   5.913   1.348   3.105  1.5383 -0.7654 -0.2546
  954TIP3    H224422   5.897   1.472   3.019 -1.1662 -0.6728  0.2810
  955TIP3   OH224423   4.185   4.135   0.773  0.0903  0.0085  0.0967
  955TIP3    H124424   4.180   4.183   0.690  1.3747 -0.0316 -0.0209
  955TIP3    H224425   4.251   4.068   0.759 -2.0625 -2.2518  0.0782
  956TIP3   OH224426   6.905   6.757   3.284  0.2876 -0.3442  0.1650
  956TIP3    H124427   6.835   6.820   3.273  1.5359  1.0294 -0.1825
  956TIP3    H224428   6.964   6.797   3.348  0.8691 -1.3799  0.3067
  957TIP3   OH224429   2.217   3.007   0.167  0.2417  0.5749 -0.1771
  957TIP3    H124430   2.300   2.987   0.210 -0.4823  2.4147  2.2586
  957TIP3    H224431   2.230   3.093   0.128 -0.9007  1.4718  1.3670
  958TIP3   OH224432   3.594   2.821   8.362  0.2183 -0.7039  0.1450
  958TIP3    H124433   3.622   2.869   8.439 -0.5697  1.1524 -0.6689
  958TIP3    H224434   3.500   2.808   8.373  0.1154 -0.5111 -0.4518
  959TIP3   OH224435   6.558   2.264   8.408 -0.2921  0.3191  0.0727
  959TIP3    H124436   6.592   2.300   8.490  0.7539 -0.3345 -0.0618
  959TIP3    H224437   6.576   2.332   8.343  2.1353 -0.5894 -0.2751
  960TIP3   OH224438   6.325   6.455   2.056 -0.0415 -0.2289  0.6386
  960TIP3    H124439   6.242   6.411   2.072  0.2826 -0.9425  0.3959
  960TIP3    H224440   6.348   6.493   2.140 -1.3982  1.3693  0.3365
  961TIP3   OH224441   6.001   1.160   0.547  0.5733  0.1093  0.1116
  961TIP3    H124442   6.017   1.093   0.614  0.3830  0.3488  0.4016
  961TIP3    H224443   6.087   1.178   0.510  0.5374 -0.7958 -0.4583
  962TIP3   OH224444   3.947   0.742   7.522 -0.3914 -0.5643 -0.4541
  962TIP3    H124445   4.009   0.692   7.574  1.1937 -0.1368 -1.8445
  962TIP3    H224446   3.863   0.699   7.537 -0.1131 -0.2780  2.6337
  963TIP3   OH224447   2.137   3.040   0.723  0.3787 -0.4601  0.3750
  963TIP3    H124448   2.052   3.061   0.761  0.5931 -0.4870  0.8736
  963TIP3    H224449   2.159   3.117   0.671 -0.5534 -0.9793 -0.8445
  964TIP3   OH224450   6.147   1.026   0.233  0.1825  0.0953  0.3647
  964TIP3    H124451   6.083   0.969   0.277  0.8619 -0.8966  0.1119
  964TIP3    H224452   6.118   1.026   0.142 -0.1020  0.5666  0.4533
  965TIP3   OH224453   3.133   2.915   0.742 -0.2449  0.4100  0.2635
  965TIP3    H124454   3.131   2.828   0.703 -1.1488  0.4387  0.2139
  965TIP3    H224455   3.088   2.971   0.679 -0.1247  0.8069  0.5260
  966TIP3   OH224456   1.793   2.862   0.596 -0.0780  0.6512 -0.3145
  966TIP3    H124457   1.852   2.788   0.608 -1.8197 -0.8025 -0.2218
  966TIP3    H224458   1.845   2.938   0.621  1.2953 -0.6922  1.2220
  967TIP3   OH224459   3.539   4.954   0.715  0.3695 -0.3200  0.1833
  967TIP3    H124460   3.558   5.012   0.789 -0.4857  1.5924 -1.0125
  967TIP3    H224461   3.607   4.887   0.720  2.5474  1.7706  0.6358
  968TIP3   OH224462   6.804   1.766   2.407  0.0042 -0.0338 -0.0824
  968TIP3    H124463   6.709   1.752   2.405 -0.2420  1.4667 -1.8085
  968TIP3    H224464   6.836   1.727   2.325  0.8145 -0.1050  0.2604
  969TIP3   OH224465   6.754   4.784   1.018 -0.3557 -0.0413  0.2935
  969TIP3    H124466   6.821   4.744   1.074  0.7091  1.4525  0.1522
  969TIP3    H224467   6.789   4.775   0.929  0.3146  1.8340  0.3174
  970TIP3   OH224468   1.416   0.290   3.808 -0.0695  0.2565  0.2108
  970TIP3    H124469   1.332   0.243   3.809  0.3011 -0.4251  1.1309
  970TIP3    H224470   1.461   0.259   3.886 -0.7497  3.8959  2.2447
  971TIP3   OH224471   2.050   4.160   2.674  0.0782 -0.2598  0.2050
  971TIP3    H124472   2.006   4.227   2.622  0.2237 -0.2949  0.0346
  971TIP3    H224473   2.073   4.092   2.611  1.6115  0.3794  0.0396
  972TIP3   OH224474   6.902   2.255   3.127 -0.8028  0.1849  0.4793
  972TIP3    H124475   6.844   2.331   3.131  1.5599  2.1030  0.3706
  972TIP3    H224476   6.921   2.235   3.219 -1.6012 -0.4532  0.5155
  973TIP3   OH224477   2.668   6.127   0.307 -0.6656 -0.1146  0.0621
  973TIP3    H124478   2.577   6.140   0.279 -0.6979  0.4093  0.4020
  973TIP3    H224479   2.693   6.211   0.346  0.0197 -0.2038 -0.1817
  974TIP3   OH224480   5.801   4.506   0.873  0.6447 -0.6034  0.0150
  974TIP3    H124481   5.861   4.432   0.864  3.3820  1.4388  0.0735
  974TIP3    H224482   5.844   4.564   0.936 -0.6573  1.6601 -1.0445
  975TIP3   OH224483   2.071   6.761   0.608 -0.4078 -0.3530 -0.4119
  975TIP3    H124484   2.139   6.829   0.612 -1.3554  0.6036 -0.0263
  975TIP3    H224485   1.989   6.810   0.604 -1.1869 -1.4709  0.9375
  976TIP3   OH224486   6.350   5.019   1.168  0.4426  0.0543  0.2423
  976TIP3    H124487   6.392   4.955   1.111  1.6556  1.0027  0.0447
  976TIP3    H224488   6.256   5.008   1.151  0.5813 -2.0627  0.6586
  977TIP3   OH224489   3.700   4.738   2.176  0.2124 -0.3886  0.6669
  977TIP3    H124490   3.675   4.823   2.211  2.6081 -0.9188  4.1555
  977TIP3    H224491   3.629   4.680   2.201 -0.2506  0.1149  0.5302
  978TIP3   OH224492   3.390   5.772   0.940  0.5131 -0.0430  0.1863
  978TIP3    H124493   3.364   5.785   0.849  0.4144  1.4525  0.3960
  978TIP3    H224494   3.481   5.799   0.944  1.4308 -2.8243 -0.0127
  979TIP3   OH224495   3.597   6.245   0.355 -0.0751 -0.5595 -0.1540
  979TIP3    H124496   3.686   6.219   0.377  0.1283 -0.3736 -0.7283
  979TIP3    H224497   3.607   6.300   0.278 -0.3021  2.4643  1.7897
  980TIP3   OH224498   5.376   0.009   2.186 -0.0303 -0.0428 -0.4653
  980TIP3    H124499   5.356  -0.053   2.256  1.7436  0.0327  0.1629
  980TIP3    H224500   5.317  -0.017   2.114 -1.9505 -0.0557  1.0312
  981TIP3   OH224501   5.289   0.251   1.723  0.1686  0.2250 -0.0312
  981TIP3    H124502   5.285   0.344   1.703  0.3170 -0.0307 -1.3041
  981TIP3    H224503   5.323   0.248   1.812 -0.5413  1.4034  0.3113
  982TIP3   OH224504   1.890   5.417   7.600  0.6770  0.3807 -0.5972
  982TIP3    H124505   1.847   5.385   7.679 -0.4256 -0.6252 -1.5641
  982TIP3    H224506   1.954   5.481   7.632  0.6413 -0.3925  1.1321
  983TIP3   OH224507   4.777   4.947   1.936 -0.9303  0.4815  0.5816
  983TIP3    H124508   4.751   4.876   1.876 -1.0165  2.0124 -1.3022
  983TIP3    H224509   4.853   4.913   1.982 -0.9585 -0.8257 -0.2934
  984TIP3   OH224510   5.663   4.298   8.319 -0.6140 -0.3772 -0.1966
  984TIP3    H124511   5.729   4.348   8.271 -0.5741 -0.2291  0.0132
  984TIP3    H224512   5.630   4.358   8.386  0.0215 -0.8925  0.5886
  985TIP3   OH224513   5.985   0.637   3.055 -0.4657  0.2918 -0.2199
  985TIP3    H124514   6.008   0.588   3.134 -1.4826 -0.8946 -0.6186
  985TIP3    H224515   5.984   0.571   2.985 -2.0051  0.8182 -0.7514
  986TIP3   OH224516   2.863   2.534   0.845  0.2727  0.3666 -0.2514
  986TIP3    H124517   2.824   2.612   0.886  0.2079  0.5491 -0.6555
  986TIP3    H224518   2.821   2.460   0.889  0.2378  0.5592  0.0440
  987TIP3   OH224519   4.120   3.502   0.763  0.6851  0.0429 -0.3516
  987TIP3    H124520   4.190   3.530   0.705  0.9869 -0.4052 -0.2068
  987TIP3    H224521   4.154   3.518   0.851 -0.2541  1.9230 -0.2808
  988TIP3   OH224522   6.429   3.628   0.681 -0.0423  0.8024 -0.0284
  988TIP3    H124523   6.375   3.602   0.755  0.5674  0.8367  0.4356
  988TIP3    H224524   6.408   3.566   0.612 -0.0901  0.3333  0.4073
  989TIP3   OH224525   4.152   2.609   0.386  0.6607  0.0195 -0.1473
  989TIP3    H124526   4.175   2.527   0.344  1.7012 -0.6720  1.6530
  989TIP3    H224527   4.103   2.583   0.464  1.9056  1.0087  1.0187
  990TIP3   OH224528   1.664   3.702   8.331 -0.7088  0.3981  0.4795
  990TIP3    H124529   1.639   3.706   8.423 -1.1647 -0.5834  0.4134
  990TIP3    H224530   1.750   3.744   8.328 -0.6795  0.4229  1.3591
  991TIP3   OH224531   1.186   6.442   3.064 -0.2332 -0.0355  0.1853
  991TIP3    H124532   1.133   6.410   2.992 -1.3504  1.3541  0.3359
  991TIP3    H224533   1.141   6.411   3.143 -0.7493  0.9653  0.3077
  992TIP3   OH224534   2.674   2.120   1.743 -0.0069  0.2133 -0.2778
  992TIP3    H124535   2.666   2.215   1.747  2.0108  0.4152 -0.2295
  992TIP3    H224536   2.756   2.100   1.788 -0.8139 -1.6495  0.4854
  993TIP3   OH224537   3.007   0.813   0.970 -0.0625 -0.2877 -0.1587
  993TIP3    H124538   3.031   0.726   0.939 -0.0982  0.2113 -1.6866
  993TIP3    H224539   3.042   0.818   1.059 -0.5461 -2.0442  0.1610
  994TIP3   OH224540   6.312   0.145   1.346  0.3161 -0.0421  0.0181
  994TIP3    H124541   6.229   0.113   1.310  0.7179 -1.4919  0.3352
  994TIP3    H224542   6.324   0.230   1.304 -1.6962  0.5456  0.5388
  995TIP3   OH224543   0.790   4.449   1.078  0.0314 -0.1373  0.2367
  995TIP3    H124544   0.776   4.544   1.076  0.7764  0.0475  1.8237
  995TIP3    H224545   0.722   4.416   1.137  1.2051 -0.2548  1.5775
  996TIP3   OH224546   2.082   1.253   1.954 -0.0787 -0.6102 -0.2168
  996TIP3    H124547   2.117   1.340   1.936  1.5066 -1.1321  0.2073
  996TIP3    H224548   2.084   1.245   2.049 -0.5160 -0.9922 -0.2339
  997TIP3   OH224549   3.441   6.422   3.239  0.0747 -0.1730 -0.2964
  997TIP3    H124550   3.380   6.495   3.233 -1.3565 -1.3621 -0.9544
  997TIP3    H224551   3.528   6.462   3.235 -0.6576  1.5243  0.1299
  998TIP3   OH224552   2.225   6.835   8.158 -0.1625 -0.5332 -0.3402
  998TIP3    H124553   2.133   6.821   8.180 -0.0627 -2.1469 -0.8051
  998TIP3    H224554   2.251   6.910   8.210 -1.8627  0.2439 -0.5430
  999TIP3   OH224555   4.729   6.248   2.184  0.4554  0.9405  0.2399
  999TIP3    H124556   4.744   6.164   2.227 -0.3161  1.5120  1.6786
  999TIP3    H224557   4.685   6.226   2.102  0.5008 -0.0719  0.4792
 1000TIP3   OH224558   0.907   5.458   3.085 -0.1551 -0.3818 -0.5151
 1000TIP3    H124559   0.959   5.398   3.139 -0.5812 -1.3647 -1.1847
 1000TIP3    H224560   0.818   5.453   3.122 -0.0878  0.2583 -0.2392
 1001TIP3   OH224561   5.788   6.746   0.179 -0.0076 -0.0100  0.2697
 1001TIP3    H124562   5.872   6.723   0.139  0.3155  3.1791 -1.1911
 1001TIP3    H224563   5.794   6.714   0.269  0.8558 -3.8809 -0.9681
 1002TIP3   OH224564   2.510   2.232   3.089  0.4938 -0.0309  0.1333
 1002TIP3    H124565   2.438   2.177   3.119 -1.4490  1.4032 -1.6799
 1002TIP3    H224566   2.511   2.305   3.150 -0.9539  0.9574 -0.9811
 1003TIP3   OH224567   2.664   0.718   7.738  0.9362  0.2402 -0.3584
 1003TIP3    H124568   2.569   0.727   7.731  0.7356 -0.9232  0.4807
 1003TIP3    H224569   2.684   0.748   7.827  1.2732 -0.0989 -0.3175
 1004TIP3   OH224570   5.593   1.757   0.995  0.2650  0.4114  0.7223
 1004TIP3    H124571   5.564   1.764   1.086  0.0731  0.6899  0.6413
 1004TIP3    H224572   5.649   1.679   0.994 -1.4031 -0.8492  0.6467
 1005TIP3   OH224573   4.119   5.061   2.300  0.6850  0.4723  0.3761
 1005TIP3    H124574   4.041   5.013   2.273  0.3262  1.8520 -1.1897
 1005TIP3    H224575   4.120   5.139   2.244  1.4082  2.1482  2.6031
 1006TIP3   OH224576   2.432   4.123   8.480  0.0923  0.3836 -0.2678
 1006TIP3    H124577   2.518   4.159   8.500  0.2861 -0.4162  0.3530
 1006TIP3    H224578   2.409   4.162   8.396  0.6995  1.2400 -0.0490
 1007TIP3   OH224579   6.282   6.482   1.424 -0.5398  0.1408  0.5616
 1007TIP3    H124580   6.206   6.481   1.482 -0.3888  0.9483  0.7797
 1007TIP3    H224581   6.253   6.531   1.347 -0.6927 -0.7989  0.0006
 1008TIP3   OH224582   2.067   3.034   2.327  0.3826  0.0919  0.4342
 1008TIP3    H124583   1.982   2.994   2.308 -1.9681  3.1368  3.4063
 1008TIP3    H224584   2.096   3.071   2.243 -1.1622 -1.0595 -0.6609
 1009TIP3   OH224585   6.613   4.915   1.359  0.3707 -0.0496  0.1569
 1009TIP3    H124586   6.529   4.932   1.403  1.4634 -0.0074  2.3328
 1009TIP3    H224587   6.630   4.822   1.378 -0.0676 -0.6119 -1.9458
 1010TIP3   OH224588   5.234   5.870   2.169  0.4355 -0.3661 -0.1513
 1010TIP3    H124589   5.241   5.820   2.087  0.0435 -0.1985 -0.2855
 1010TIP3    H224590   5.142   5.862   2.194  0.4106  0.1391 -0.0758
 1011TIP3   OH224591   5.802   5.180   1.920  0.0017  0.1330  0.2834
 1011TIP3    H124592   5.861   5.246   1.884  0.5199  0.4603  1.6869
 1011TIP3    H224593   5.722   5.188   1.868  0.9912  0.0368 -1.2998
 1012TIP3   OH224594   3.468   4.371   2.753  0.1635 -0.3078 -0.1158
 1012TIP3    H124595   3.501   4.410   2.834 -0.8445  2.1819 -0.7898
 1012TIP3    H224596   3.382   4.411   2.741  0.8696  0.5753 -3.1450
 1013TIP3   OH224597   2.951   6.815   2.064 -0.0103 -0.1551  0.5519
 1013TIP3    H124598   2.894   6.758   2.013  0.3559 -1.4640  1.5594
 1013TIP3    H224599   2.911   6.902   2.057 -0.6941 -0.5549 -0.8353
 1014TIP3   OH224600   5.773   6.374   3.912 -0.2992 -0.2563  0.1226
 1014TIP3    H124601   5.836   6.334   3.853 -0.1752  1.6195 -1.1318
 1014TIP3    H224602   5.704   6.406   3.854 -2.0688 -1.5876  1.3908
 1015TIP3   OH224603   3.811   6.467   0.813 -0.1209  0.3107 -0.1621
 1015TIP3    H124604   3.752   6.496   0.882  0.3866 -0.7030  0.7387
 1015TIP3    H224605   3.763   6.398   0.767  0.0545  0.0317  0.0680
 1016TIP3   OH224606   5.633   5.867   0.540  0.5262 -0.1481  0.1696
 1016TIP3    H124607   5.576   5.792   0.524 -1.5311  1.4747 -0.5789
 1016TIP3    H224608   5.627   5.883   0.634 -0.8993  0.4369  0.0061
 1017TIP3   OH224609   6.147   1.856   3.368 -0.1785 -0.3373  0.5365
 1017TIP3    H124610   6.194   1.779   3.337 -0.2846 -0.6185  1.0650
 1017TIP3    H224611   6.173   1.926   3.309  0.1447 -0.7153  0.2323
 1018TIP3   OH224612   6.106   2.377   1.910 -0.1262  0.0752  0.1717
 1018TIP3    H124613   6.037   2.424   1.956 -0.2446 -0.2879  0.3642
 1018TIP3    H224614   6.167   2.446   1.883  1.8618  0.1065  3.9894
 1019TIP3   OH224615   1.071   4.612   3.573 -0.1450 -1.0440  0.0972
 1019TIP3    H124616   1.007   4.653   3.632 -0.4440 -0.3381 -0.7001
 1019TIP3    H224617   1.117   4.685   3.533 -1.1395 -1.4279 -1.8537
 1020TIP3   OH224618   2.597   2.913   3.039 -0.4874 -0.1859 -0.3633
 1020TIP3    H124619   2.547   2.880   3.113 -0.6364 -1.2953 -0.9418
 1020TIP3    H224620   2.672   2.959   3.078 -1.3735  0.5832  0.4833
 1021TIP3   OH224621   5.710   4.043   3.035  0.1886 -0.6118  0.3666
 1021TIP3    H124622   5.683   4.033   3.126 -1.6243 -0.4261 -0.1049
 1021TIP3    H224623   5.769   3.969   3.020  0.5366 -0.6329  1.6871
 1022TIP3   OH224624   2.097   3.105   3.087 -0.2419 -0.4609 -0.5112
 1022TIP3    H124625   2.185   3.090   3.054  2.1808  1.2843  4.1958
 1022TIP3    H224626   2.076   3.194   3.059  0.6114  0.0178  0.3090
 1023TIP3   OH224627   4.272   2.680   0.017 -0.2891  0.0467  0.7413
 1023TIP3    H124628   4.239   2.702  -0.070 -0.2460  2.1597  1.2065
 1023TIP3    H224629   4.212   2.612   0.049 -2.6966  1.9132  0.5191
 1024TIP3   OH224630   5.674   1.857   0.701  0.0909 -0.5939 -0.0822
 1024TIP3    H124631   5.652   1.815   0.785 -0.0388  1.5601  1.0301
 1024TIP3    H224632   5.751   1.910   0.721  1.3107 -1.5717 -1.8796
 1025TIP3   OH224633   3.159   2.351   8.127 -0.0852  0.0638 -0.4804
 1025TIP3    H124634   3.171   2.370   8.034  3.3158 -1.3434 -0.4754
 1025TIP3    H224635   3.161   2.255   8.133  0.0477  0.1263  1.0628
 1026TIP3   OH224636   3.908   4.924   8.198  0.4681 -0.5286  0.3385
 1026TIP3    H124637   3.816   4.944   8.184  0.8341  0.1263 -1.4421
 1026TIP3    H224638   3.914   4.829   8.183  0.3923 -0.2522 -1.7725
 1027TIP3   OH224639   0.629   3.206   1.606 -0.8077  0.0701 -0.4302
 1027TIP3    H124640   0.722   3.185   1.597 -0.2632  1.5712  1.1183
 1027TIP3    H224641   0.592   3.193   1.519  1.0209  0.2306 -1.2620
 1028TIP3   OH224642   5.046   0.024   0.910 -0.9597  0.3914  0.5979
 1028TIP3    H124643   5.041   0.120   0.919 -1.4728  0.3978  0.2421
 1028TIP3    H224644   4.962  -0.008   0.943 -0.1796 -0.0615  2.2387
 1029TIP3   OH224645   5.444   2.822   3.060 -0.0665 -0.2027 -0.1303
 1029TIP3    H124646   5.528   2.846   3.100 -0.6471  1.8700 -0.0648
 1029TIP3    H224647   5.378   2.843   3.126 -0.6524 -2.7408  0.2109
 1030TIP3   OH224648   2.945   3.908   1.205 -0.3275  0.2062 -0.4863
 1030TIP3    H124649   2.915   3.819   1.224 -3.2481  1.3046  0.7288
 1030TIP3    H224650   2.864   3.959   1.195  1.2121  2.5796 -2.1118
 1031TIP3   OH224651   6.058   3.462   3.119  0.0498  0.1282  0.3895
 1031TIP3    H124652   5.989   3.401   3.144  0.0774  0.1031  0.4055
 1031TIP3    H224653   6.084   3.434   3.032  2.0198 -1.6947  1.4570
 1032TIP3   OH224654   2.426   4.437   0.783 -0.3142 -0.1769 -0.3613
 1032TIP3    H124655   2.506   4.412   0.737 -0.4137 -0.8169 -0.1988
 1032TIP3    H224656   2.380   4.494   0.722 -0.0278 -0.3076 -0.7026
 1033TIP3   OH224657   2.737   0.485   2.046  0.0125 -0.3285 -0.1298
 1033TIP3    H124658   2.722   0.486   1.952  0.6640  1.0599 -0.2558
 1033TIP3    H224659   2.676   0.420   2.080 -1.2589  0.1783 -1.3468
 1034TIP3   OH224660   4.879   2.763   2.493  0.1622  0.3829  0.9171
 1034TIP3    H124661   4.930   2.798   2.565  0.9705  0.5108  0.3024
 1034TIP3    H224662   4.875   2.669   2.509  1.5471  0.2147  0.4171
 1035TIP3   OH224663   5.046   1.966   1.173  0.5016  0.1704 -0.6840
 1035TIP3    H124664   5.010   1.882   1.202  1.0277 -0.9730 -3.0362
 1035TIP3    H224665   4.995   2.032   1.220 -1.9281 -1.4304 -0.8786
 1036TIP3   OH224666   4.822   6.847   1.679 -0.1653 -0.7674 -0.0969
 1036TIP3    H124667   4.869   6.800   1.611  0.7244  0.5667 -0.4581
 1036TIP3    H224668   4.866   6.932   1.683 -0.0658 -0.8611  2.2610
 1037TIP3   OH224669   4.309   3.502   3.102  0.1376  0.0864 -0.3381
 1037TIP3    H124670   4.240   3.555   3.144  0.2239 -2.3741  3.3148
 1037TIP3    H224671   4.388   3.556   3.109 -0.3946  0.8023  0.3355
 1038TIP3   OH224672   1.206   5.712   8.289 -0.2983 -0.4314 -0.5670
 1038TIP3    H124673   1.211   5.677   8.378 -1.7652  0.5447 -0.0842
 1038TIP3    H224674   1.128   5.671   8.251 -0.7994  0.6372 -0.7263
 1039TIP3   OH224675   0.501   2.446   0.796 -0.2775 -0.8096  0.5884
 1039TIP3    H124676   0.481   2.513   0.861 -0.1718  0.6411 -0.8165
 1039TIP3    H224677   0.473   2.364   0.837 -5.5616  0.5214  0.3411
 1040TIP3   OH224678   1.233   5.297   7.502 -0.0790 -0.7222  0.2582
 1040TIP3    H124679   1.230   5.390   7.479 -1.5860 -0.2184  2.1561
 1040TIP3    H224680   1.240   5.297   7.598  0.8883 -2.5955  0.2320
 1041TIP3   OH224681   2.348   5.332   8.382 -0.0113  0.0368 -0.1494
 1041TIP3    H124682   2.373   5.362   8.295  1.0444 -2.6540 -0.8915
 1041TIP3    H224683   2.429   5.338   8.434  0.6463 -2.6002 -0.7207
 1042TIP3   OH224684   6.237   1.548   2.275 -0.4316 -1.0074  0.3045
 1042TIP3    H124685   6.186   1.580   2.200  1.0993  1.3183  0.1440
 1042TIP3    H224686   6.246   1.625   2.332  2.4833 -1.3992  0.4951
 1043TIP3   OH224687   1.492   2.080   7.825  0.9389 -0.2389  0.5307
 1043TIP3    H124688   1.444   1.998   7.823 -0.8713  0.6125  3.2950
 1043TIP3    H224689   1.458   2.130   7.751 -0.7615 -0.5878  1.0319
 1044TIP3   OH224690   2.598   2.529   7.826 -0.2326 -0.4477 -0.3304
 1044TIP3    H124691   2.685   2.537   7.788  0.0217 -0.4587  0.2322
 1044TIP3    H224692   2.546   2.486   7.759 -0.4564  1.7227 -1.6591
 1045TIP3   OH224693   5.081   1.292   1.367 -0.2992 -0.0549  0.4764
 1045TIP3    H124694   5.021   1.329   1.432  1.1608  0.1528  1.7885
 1045TIP3    H224695   5.025   1.255   1.299 -1.8619  0.8890  1.2188
 1046TIP3   OH224696   0.653   2.941   8.243  0.4408  0.6068  0.3870
 1046TIP3    H124697   0.666   2.881   8.317  0.1609 -0.3917 -0.3454
 1046TIP3    H224698   0.584   2.900   8.191  1.1579  0.8946 -0.8352
 1047TIP3   OH224699   1.561   4.330   7.223  0.5739 -0.0064  0.6555
 1047TIP3    H124700   1.611   4.404   7.189  0.8106  0.2367  1.4988
 1047TIP3    H224701   1.611   4.300   7.299  0.5952 -1.1812  0.2079
 1048TIP3   OH224702   0.785   0.283   3.258 -0.0343  1.0091 -0.1244
 1048TIP3    H124703   0.877   0.269   3.283  0.2170  0.8194 -1.0990
 1048TIP3    H224704   0.770   0.376   3.275 -0.3119  0.6092  2.0237
 1049TIP3   OH224705   5.071   4.699   1.459 -0.3542 -0.2934  0.3291
 1049TIP3    H124706   5.088   4.757   1.385  0.4831 -1.9736 -0.8794
 1049TIP3    H224707   4.975   4.691   1.462 -0.3837 -1.7126 -1.9137
 1050TIP3   OH224708   4.582   0.475   8.222 -0.6397 -0.1761 -0.0127
 1050TIP3    H124709   4.667   0.519   8.227  0.2820 -1.0399 -4.0624
 1050TIP3    H224710   4.596   0.393   8.270 -0.5228  1.2272  2.5595
 1051TIP3   OH224711   1.390   3.064   0.164  0.0255 -0.2556 -0.4091
 1051TIP3    H124712   1.341   3.001   0.109  0.0678 -0.2798 -0.4189
 1051TIP3    H224713   1.428   3.125   0.102 -1.2135  0.6428 -0.3195
 1052TIP3   OH224714   2.099   2.222   2.624  0.1905  0.0878 -0.0768
 1052TIP3    H124715   2.012   2.259   2.634 -1.0168 -1.9022 -2.1963
 1052TIP3    H224716   2.096   2.139   2.670  1.3759  0.5182  0.8143
 1053TIP3   OH224717   5.004   6.514   8.082 -0.6733  0.1433 -0.1628
 1053TIP3    H124718   5.057   6.458   8.025 -0.4375 -0.0807  0.2704
 1053TIP3    H224719   5.029   6.603   8.058 -0.0432  0.0376  0.0919
 1054TIP3   OH224720   5.975   0.345   1.153  0.3908 -0.3103 -0.0377
 1054TIP3    H124721   5.881   0.336   1.169 -0.2189  0.9095 -2.4280
 1054TIP3    H224722   5.990   0.440   1.155  1.2491 -0.4071 -1.1021
 1055TIP3   OH224723   2.293   2.580   1.371 -0.1540  0.1786  0.0760
 1055TIP3    H124724   2.221   2.553   1.428  0.0937 -0.6272  0.0165
 1055TIP3    H224725   2.371   2.543   1.411  0.0998  0.1495 -0.4401
 1056TIP3   OH224726   3.888   2.039   0.034  0.6672 -0.3323 -0.6609
 1056TIP3    H124727   3.954   1.993  -0.016  0.5032  0.2321 -1.4197
 1056TIP3    H224728   3.930   2.121   0.060  1.8183 -1.8294  2.7819
 1057TIP3   OH224729   4.693   6.832   0.121  0.7021 -0.0587 -0.0022
 1057TIP3    H124730   4.750   6.882   0.179  1.0014  0.9150 -1.0919
 1057TIP3    H224731   4.746   6.758   0.093  0.4694 -0.6783  1.1322
 1058TIP3   OH224732   1.392   0.722   1.198  0.0667 -0.1031 -0.2318
 1058TIP3    H124733   1.302   0.707   1.170  0.2355  0.8304 -1.3331
 1058TIP3    H224734   1.410   0.812   1.174  0.5386  0.5092  2.1309
 1059TIP3   OH224735   2.662   0.501   1.752 -0.6714  0.1917 -0.4742
 1059TIP3    H124736   2.621   0.583   1.722  1.0909  1.5789  0.7214
 1059TIP3    H224737   2.588   0.446   1.778 -1.8858  2.5673  1.5632
 1060TIP3   OH224738   6.578   6.747   3.854  0.1701 -0.1280 -0.0588
 1060TIP3    H124739   6.601   6.680   3.918 -0.4210 -0.7166 -0.4600
 1060TIP3    H224740   6.539   6.817   3.907  2.1907  0.6236  0.5596
 1061TIP3   OH224741   3.010   3.028   2.174  0.0752 -0.0462  0.1629
 1061TIP3    H124742   3.099   3.005   2.199 -0.1454  0.2108  1.2243
 1061TIP3    H224743   3.000   3.120   2.198  0.1457  0.5174 -1.7858
 1062TIP3   OH224744   6.350   1.897   1.961  0.1314 -0.1333 -0.1916
 1062TIP3    H124745   6.271   1.848   1.939  1.3414 -3.8718  2.6544
 1062TIP3    H224746   6.397   1.906   1.878 -0.6978 -3.0689 -1.0942
 1063TIP3   OH224747   6.354   0.683   1.184 -0.2923  0.3200 -0.2828
 1063TIP3    H124748   6.343   0.713   1.094  0.3834  0.2190 -0.4023
 1063TIP3    H224749   6.311   0.749   1.237  0.6532  1.1916 -0.5784
 1064TIP3   OH224750   4.862   3.978   2.949  0.3440  0.4615 -0.3905
 1064TIP3    H124751   4.859   4.048   3.014  0.3338  0.9770 -0.9355
 1064TIP3    H224752   4.890   3.900   2.998  2.0348  1.2203 -0.0950
 1065TIP3   OH224753   1.315   2.188   0.808  0.1778 -0.3636  0.5379
 1065TIP3    H124754   1.248   2.120   0.800  0.2456 -0.2832 -1.0967
 1065TIP3    H224755   1.277   2.265   0.765  1.0953 -0.1392  0.1036
 1066TIP3   OH224756   6.529   0.777   2.771 -0.3085  0.5079  0.3310
 1066TIP3    H124757   6.560   0.845   2.710  0.2995 -2.4565 -2.9755
 1066TIP3    H224758   6.607   0.752   2.821  1.0665 -1.6250 -2.5890
 1067TIP3   OH224759   5.106   1.842   2.458 -0.0867  0.0343 -0.1575
 1067TIP3    H124760   5.163   1.780   2.504  0.9979  1.4519  0.4929
 1067TIP3    H224761   5.026   1.793   2.440  0.5842 -1.4218  0.6829
 1068TIP3   OH224762   6.352   6.681   2.230  0.1484  0.1580 -0.0855
 1068TIP3    H124763   6.417   6.735   2.185  1.4864 -1.7097 -0.5014
 1068TIP3    H224764   6.268   6.711   2.196  0.9620  0.7493 -1.6558
 1069TIP3   OH224765   2.940   2.179   2.771 -0.8962 -0.6204  0.2978
 1069TIP3    H124766   2.924   2.091   2.735 -0.0106 -0.6257 -0.1215
 1069TIP3    H224767   2.918   2.238   2.698  1.3824 -0.6517 -0.4975
 1070TIP3   OH224768   3.505   2.212   0.271 -0.0426 -0.0744 -0.2601
 1070TIP3    H124769   3.549   2.176   0.347 -0.0366 -0.1977 -0.3225
 1070TIP3    H224770   3.413   2.187   0.282  0.3297 -2.2259 -1.5259
 1071TIP3   OH224771   2.124   4.719   2.488  0.2400 -0.3094  0.5823
 1071TIP3    H124772   2.200   4.727   2.432  0.2098  0.3455  0.6287
 1071TIP3    H224773   2.072   4.648   2.450  0.0527  0.3495 -0.4088
 1072TIP3   OH224774   4.885   5.529   2.507 -1.0522  0.1193  0.0733
 1072TIP3    H124775   4.856   5.528   2.416  0.7501  0.8114 -0.5523
 1072TIP3    H224776   4.935   5.449   2.517  1.4884  1.5188 -0.5672
 1073TIP3   OH224777   5.303   1.219   2.277  0.0801  0.1610 -0.7256
 1073TIP3    H124778   5.347   1.183   2.200  0.3997 -0.7044 -0.1593
 1073TIP3    H224779   5.272   1.142   2.324 -1.7849  0.7283 -0.9368
 1074TIP3   OH224780   2.596   5.810   2.475 -0.2311 -0.2568  0.6576
 1074TIP3    H124781   2.552   5.891   2.501 -0.4858 -0.1671 -0.0340
 1074TIP3    H224782   2.526   5.754   2.441 -0.2238 -1.1936  2.0878
 1075TIP3   OH224783   1.516   2.141   7.337  0.6533  0.2606  0.2571
 1075TIP3    H124784   1.521   2.219   7.282  0.6034  0.3914  0.4401
 1075TIP3    H224785   1.482   2.073   7.279  1.1625  0.2528 -0.0352
 1076TIP3   OH224786   0.404   0.845   3.042  0.0502 -0.6065 -0.1484
 1076TIP3    H124787   0.468   0.916   3.050  0.5111 -0.6465 -2.5833
 1076TIP3    H224788   0.327   0.877   3.090 -0.1144  2.0471 -1.9177
 1077TIP3   OH224789   4.128   5.793   0.874 -0.0932  0.6282  0.0240
 1077TIP3    H124790   4.174   5.837   0.946  1.7674 -1.8822  0.5105
 1077TIP3    H224791   4.036   5.796   0.899  0.1130  2.8492  0.7382
 1078TIP3   OH224792   4.277   2.844   0.310  0.0189 -0.2068 -0.6755
 1078TIP3    H124793   4.270   2.860   0.216  2.7883 -0.9902 -1.1067
 1078TIP3    H224794   4.214   2.774   0.327 -3.6225  2.6926 -1.0033
 1079TIP3   OH224795   0.413   4.533   0.922  0.1546  0.2054  0.8397
 1079TIP3    H124796   0.443   4.458   0.973 -1.7271 -1.5093 -0.4166
 1079TIP3    H224797   0.454   4.523   0.837  0.1842  0.8139  0.7796
 1080TIP3   OH224798   2.224   3.079   8.229  0.2015 -0.0934 -0.0880
 1080TIP3    H124799   2.195   3.053   8.142 -0.6192  0.5125 -0.0091
 1080TIP3    H224800   2.172   3.026   8.289  0.5138 -0.2534  0.0489
 1081TIP3   OH224801   1.108   3.846   1.704  0.4510 -0.2185  0.1457
 1081TIP3    H124802   1.090   3.911   1.636  0.7225  2.0503  2.1062
 1081TIP3    H224803   1.180   3.793   1.669  1.9275  2.1298 -0.6404
 1082TIP3   OH224804   0.564   2.659   7.840  0.7961 -0.6370 -0.0573
 1082TIP3    H124805   0.592   2.659   7.749 -1.1557  0.8959 -0.7321
 1082TIP3    H224806   0.501   2.588   7.847  0.2766 -0.1959 -0.1587
 1083TIP3   OH224807   3.698   5.516   1.168 -0.3325 -0.4640 -0.4117
 1083TIP3    H124808   3.691   5.533   1.074 -0.3365  0.6017 -0.2391
 1083TIP3    H224809   3.720   5.602   1.206 -3.9375  0.0588  0.9700
 1084TIP3   OH224810   1.737   0.581   8.111  0.3846 -0.9054  0.3865
 1084TIP3    H124811   1.655   0.621   8.082 -0.3211 -1.8178  1.0586
 1084TIP3    H224812   1.800   0.602   8.042  0.3793  2.2960  1.1875
 1085TIP3   OH224813   5.341   0.757   3.348 -0.0848  0.1217  0.3273
 1085TIP3    H124814   5.409   0.806   3.301  0.1234  0.4139  0.9227
 1085TIP3    H224815   5.269   0.749   3.286 -0.0336  0.9958  0.1485
 1086TIP3   OH224816   3.497   1.265   3.354  0.0348  0.4484 -0.4628
 1086TIP3    H124817   3.586   1.258   3.319  0.0894  0.9921 -0.4360
 1086TIP3    H224818   3.503   1.329   3.425 -0.1291 -0.4565  0.3942
 1087TIP3   OH224819   1.444   6.257   2.813 -0.0693 -0.4381 -0.0315
 1087TIP3    H124820   1.396   6.339   2.826 -0.0656 -0.4176 -0.1445
 1087TIP3    H224821   1.383   6.189   2.843  1.1551 -0.2167  3.3788
 1088TIP3   OH224822   1.763   3.547   1.641  0.2460 -0.2838 -0.2387
 1088TIP3    H124823   1.701   3.610   1.676  0.2981 -0.6003  0.4401
 1088TIP3    H224824   1.713   3.497   1.576 -0.0267 -0.1056 -0.1667
 1089TIP3   OH224825   5.122   4.996   2.542 -0.2933 -0.6905 -0.3138
 1089TIP3    H124826   5.058   5.025   2.607 -2.2093 -0.6801 -2.0636
 1089TIP3    H224827   5.078   4.925   2.495  1.4443 -1.4530 -0.8906
 1090TIP3   OH224828   3.660   3.462   0.709 -0.0952 -0.0658  0.7708
 1090TIP3    H124829   3.715   3.453   0.787  0.2980  0.5502  0.5708
 1090TIP3    H224830   3.637   3.554   0.707 -1.1530 -0.3202  0.8556
 1091TIP3   OH224831   5.457   4.378   1.529  0.3450  0.1493  0.1465
 1091TIP3    H124832   5.387   4.374   1.464  0.7234 -0.0691 -0.2489
 1091TIP3    H224833   5.537   4.360   1.480  0.4954 -1.4528  0.9190
 1092TIP3   OH224834   5.463   3.513   1.266  0.2541  0.0231 -0.3805
 1092TIP3    H124835   5.395   3.548   1.209 -0.8480  0.4436  1.1270
 1092TIP3    H224836   5.437   3.539   1.354  0.8409 -2.2608  0.5494
 1093TIP3   OH224837   5.938   2.338   0.092 -0.9124 -0.1058  0.1384
 1093TIP3    H124838   5.949   2.431   0.109 -0.8083  0.1068 -0.9993
 1093TIP3    H224839   5.843   2.325   0.083 -1.0216 -0.3421  1.4554
 1094TIP3   OH224840   0.484   0.803   8.482  0.5510 -0.0381 -0.0390
 1094TIP3    H124841   0.553   0.800   8.547  0.5165 -0.1587 -0.0077
 1094TIP3    H224842   0.464   0.896   8.472  1.9473  0.1674 -1.3437
 1095TIP3   OH224843   2.345   2.098   1.794  0.3812  0.1544  0.1328
 1095TIP3    H124844   2.271   2.098   1.855 -1.2608  2.8970 -1.5947
 1095TIP3    H224845   2.419   2.068   1.846 -1.3505  0.0593  2.7790
 1096TIP3   OH224846   6.008   2.519   3.566 -0.4328 -0.2165 -0.0628
 1096TIP3    H124847   6.084   2.528   3.624 -0.6561  2.5813 -0.0598
 1096TIP3    H224848   6.040   2.467   3.493  1.3017  0.2818  0.2838
 1097TIP3   OH224849   5.431   2.171   0.141  0.3511 -0.0107 -0.1014
 1097TIP3    H124850   5.399   2.086   0.172 -0.1560  0.1743 -0.1078
 1097TIP3    H224851   5.352   2.220   0.121  0.6516  0.3509 -0.4057
 1098TIP3   OH224852   3.362   6.180   2.241 -0.6774  0.2682 -0.3280
 1098TIP3    H124853   3.283   6.133   2.216  0.6585 -1.1996 -2.0884
 1098TIP3    H224854   3.415   6.115   2.287  0.2007  0.7167 -0.6780
 1099TIP3   OH224855   0.731   1.747   0.893 -0.3627  0.2075 -0.2919
 1099TIP3    H124856   0.704   1.670   0.944 -0.5585  1.2526  1.2332
 1099TIP3    H224857   0.649   1.791   0.871 -0.2870 -0.2693 -1.6230
 1100TIP3   OH224858   5.256   6.088   0.991  0.4139  0.1892 -0.1166
 1100TIP3    H124859   5.195   6.048   1.052  1.2912 -1.2299 -0.1072
 1100TIP3    H224860   5.232   6.181   0.989  0.6035  0.3821  2.6574
 1101TIP3   OH224861   2.426   0.190   0.447  0.3534 -0.6578 -0.5317
 1101TIP3    H124862   2.394   0.280   0.440  2.3143  0.0139 -1.7936
 1101TIP3    H224863   2.478   0.177   0.368  0.5278 -2.7370 -0.1209
 1102TIP3   OH224864   3.570   3.161   2.527  0.3438 -0.2271 -0.0977
 1102TIP3    H124865   3.627   3.097   2.571  1.0148 -0.8827 -1.8360
 1102TIP3    H224866   3.483   3.122   2.533  0.6655 -1.0682 -0.6650
 1103TIP3   OH224867   5.194   0.877   3.053 -0.1800 -0.0761 -0.1570
 1103TIP3    H124868   5.180   0.783   3.046  0.4306 -0.1713 -0.1958
 1103TIP3    H224869   5.147   0.914   2.978  0.6707 -0.4768 -0.9217
 1104TIP3   OH224870   3.130   2.758   3.092 -0.3332 -0.5331 -0.0106
 1104TIP3    H124871   3.163   2.693   3.154  0.2457  0.3136  0.6107
 1104TIP3    H224872   3.143   2.719   3.006 -0.6830 -1.5336  0.3830
 1105TIP3   OH224873   2.417   3.134   7.929 -0.4269 -0.5629  0.3933
 1105TIP3    H124874   2.437   3.160   7.839  0.8252 -0.1734  0.7742
 1105TIP3    H224875   2.322   3.121   7.929 -0.4997 -0.1631 -0.8807
 1106TIP3   OH224876   0.341   3.080   1.363 -0.1269 -0.0985  1.6817
 1106TIP3    H124877   0.274   3.045   1.305  1.6358 -0.8532 -0.0466
 1106TIP3    H224878   0.384   3.002   1.399  0.1206  0.3547  2.3799
 1107TIP3   OH224879   4.689   3.803   1.203 -0.7213 -0.0743  0.2092
 1107TIP3    H124880   4.684   3.762   1.290  2.3763 -3.5906 -0.9612
 1107TIP3    H224881   4.634   3.747   1.147  0.0995 -0.0149 -0.6827
 1108TIP3   OH224882   2.665   2.134   3.782  0.1558  0.3350 -0.2132
 1108TIP3    H124883   2.596   2.192   3.813  1.2235  1.1043  0.8114
 1108TIP3    H224884   2.730   2.192   3.742  1.1796 -0.1221  0.7079
 1109TIP3   OH224885   1.839   2.362   1.480  0.5024  0.1801  0.6449
 1109TIP3    H124886   1.784   2.336   1.554 -0.5103  2.4535  0.7924
 1109TIP3    H224887   1.843   2.458   1.487 -1.0354  0.6913 -3.1317
 1110TIP3   OH224888   1.387   4.214   8.148 -0.0685  0.9283 -0.2208
 1110TIP3    H124889   1.338   4.270   8.209 -0.7634  0.5783 -0.4436
 1110TIP3    H224890   1.459   4.179   8.200 -2.4558 -2.0280  1.4664
 1111TIP3   OH224891   6.040   5.618   8.033  0.3138  0.4351 -0.4413
 1111TIP3    H124892   5.976   5.565   7.987  1.1754  0.5054 -1.7761
 1111TIP3    H224893   6.067   5.684   7.970 -1.3934  3.1247  1.4521
 1112TIP3   OH224894   5.329   4.444   8.027  0.3523 -0.4840 -0.4240
 1112TIP3    H124895   5.310   4.415   7.938  2.3416 -0.8842 -0.7512
 1112TIP3    H224896   5.330   4.364   8.079 -0.6042 -0.2720 -0.0577
 1113TIP3   OH224897   4.368   3.928   0.569 -0.3697 -0.3445  0.6530
 1113TIP3    H124898   4.460   3.933   0.543 -0.2571 -0.9821  0.9091
 1113TIP3    H224899   4.328   3.872   0.503 -0.8402  0.9054 -0.1485
 1114TIP3   OH224900   2.254   3.906   0.015 -0.5630  0.1797  0.4627
 1114TIP3    H124901   2.177   3.945  -0.026  0.0953 -1.0423 -2.1718
 1114TIP3    H224902   2.317   3.979   0.020 -1.7873  1.1740  2.6140
 1115TIP3   OH224903   3.752   1.413   1.907  0.2843 -0.0558 -0.3573
 1115TIP3    H124904   3.703   1.495   1.893  1.0177  0.2266 -1.3894
 1115TIP3    H224905   3.684   1.348   1.924 -0.4123  0.4920 -0.9584
 1116TIP3   OH224906   3.812   6.871   2.625  0.0680 -0.0902  0.4870
 1116TIP3    H124907   3.749   6.803   2.648  1.5658 -1.4215  0.8066
 1116TIP3    H224908   3.835   6.853   2.534  0.8781 -0.3853  0.7353
 1117TIP3   OH224909   0.959   3.119   0.257 -0.1194 -0.2518 -0.0214
 1117TIP3    H124910   0.989   3.050   0.316 -0.2636  0.2757  0.6832
 1117TIP3    H224911   0.867   3.099   0.240 -0.1867 -0.1837  0.2586
 1118TIP3   OH224912   4.723   2.982   3.119 -0.3689 -0.0394  0.5209
 1118TIP3    H124913   4.685   2.976   3.207 -1.4042  0.9798  0.1710
 1118TIP3    H224914   4.649   3.003   3.062  0.1370 -1.4562 -0.7408
 1119TIP3   OH224915   6.444   1.166   1.708  0.5055 -0.3268  0.1823
 1119TIP3    H124916   6.522   1.174   1.764 -0.5782  0.7563  1.6066
 1119TIP3    H224917   6.427   1.255   1.678  0.2779 -0.6951 -0.8078
 1120TIP3   OH224918   0.844   3.095   2.424  0.2484  0.2410 -0.2845
 1120TIP3    H124919   0.864   3.040   2.500 -0.7624  1.8635  1.2186
 1120TIP3    H224920   0.774   3.152   2.454 -0.9900  0.1722 -2.8424
 1121TIP3   OH224921   4.784   5.589   1.259  0.1797 -0.0989  0.1620
 1121TIP3    H124922   4.716   5.641   1.303  0.6312  1.1566 -0.5687
 1121TIP3    H224923   4.866   5.620   1.298  0.4571 -0.2570 -0.2972
 1122TIP3   OH224924   6.122   0.483   2.103 -0.3153  0.5374  0.0316
 1122TIP3    H124925   6.191   0.433   2.061 -1.1912 -0.1364 -0.6560
 1122TIP3    H224926   6.089   0.425   2.172 -1.1388  0.2733 -0.5760
 1123TIP3   OH224927   6.581   3.080   0.235  0.1299 -0.3233  0.4736
 1123TIP3    H124928   6.662   3.129   0.219  0.5871 -1.2990 -0.2435
 1123TIP3    H224929   6.547   3.118   0.316  0.7389  0.8350  0.2147
 1124TIP3   OH224930   6.722   5.029   8.085 -0.2618  0.0786 -0.1248
 1124TIP3    H124931   6.733   5.110   8.034  0.6279 -0.9989 -1.7450
 1124TIP3    H224932   6.740   5.055   8.175  0.1771  1.6564 -0.6325
 1125TIP3   OH224933   1.088   3.759   3.080 -0.3289 -0.7237 -0.5117
 1125TIP3    H124934   1.110   3.680   3.030 -0.8480 -1.8692  1.0001
 1125TIP3    H224935   1.170   3.784   3.123 -0.2037 -0.5059 -0.8658
 1126TIP3   OH224936   2.427   4.220   1.647 -0.4663  0.2981 -0.0332
 1126TIP3    H124937   2.340   4.230   1.609 -1.9532 -0.4557  2.9345
 1126TIP3    H224938   2.448   4.127   1.634 -0.9942  0.0299  0.9489
 1127TIP3   OH224939   2.733   6.129   1.808  0.1766 -0.5011  0.3518
 1127TIP3    H124940   2.658   6.101   1.757  0.9021 -0.8851 -0.5265
 1127TIP3    H224941   2.695   6.172   1.885 -0.9286 -0.7455 -0.0417
 1128TIP3   OH224942   6.735   3.422   7.522 -0.1365  0.0975 -0.3023
 1128TIP3    H124943   6.793   3.472   7.580 -0.9246  1.4056 -0.6013
 1128TIP3    H224944   6.652   3.470   7.524 -2.1097 -2.9862  1.9850
 1129TIP3   OH224945   1.322   4.015   8.461  0.1459 -0.2810  0.3199
 1129TIP3    H124946   1.340   3.998   8.368  0.3986  0.5027  0.2184
 1129TIP3    H224947   1.231   4.043   8.463  0.4192  0.6482  0.1729
 1130TIP3   OH224948   0.648   4.113   0.947 -0.3346 -0.1512  0.1813
 1130TIP3    H124949   0.642   4.195   0.997 -0.3467 -0.5664  0.8865
 1130TIP3    H224950   0.578   4.119   0.882 -0.6688  0.1798  0.5652
 1131TIP3   OH224951   1.049   4.871   8.335  0.5976 -0.2077  0.1145
 1131TIP3    H124952   1.028   4.957   8.370 -3.5344 -0.4250 -1.3032
 1131TIP3    H224953   1.000   4.810   8.389 -0.2704 -1.1654 -1.6526
 1132TIP3   OH224954   3.739   6.916   3.175  0.2390 -0.5651  0.4840
 1132TIP3    H124955   3.758   7.009   3.159  0.9407 -0.9649 -1.2037
 1132TIP3    H224956   3.729   6.910   3.270 -1.5756  1.5465  0.5095
 1133TIP3   OH224957   3.448   5.815   8.288  0.2620  0.5751 -0.5710
 1133TIP3    H124958   3.353   5.810   8.291  0.2818  0.4753  0.4950
 1133TIP3    H224959   3.472   5.774   8.205 -0.5326 -1.1437 -0.0209
 1134TIP3   OH224960   2.547   5.350   1.168  0.5876 -0.2578  0.1474
 1134TIP3    H124961   2.581   5.421   1.223  0.6569 -1.6944  2.0740
 1134TIP3    H224962   2.453   5.370   1.158  0.2909 -0.6066  1.9137
 1135TIP3   OH224963   6.351   3.510   7.575 -0.0329 -0.0599  0.4243
 1135TIP3    H124964   6.361   3.416   7.564  0.1668 -0.0657  0.6440
 1135TIP3    H224965   6.433   3.547   7.544  0.3447 -0.0437  1.4089
 1136TIP3   OH224966   4.619   4.962   8.364 -0.3207  0.1842  0.1668
 1136TIP3    H124967   4.528   4.946   8.341  0.2073 -0.2307 -1.8168
 1136TIP3    H224968   4.634   5.054   8.344 -0.3348  0.2864  0.6180
 1137TIP3   OH224969   3.107   2.566   0.073 -0.0770  0.1955  0.2947
 1137TIP3    H124970   3.176   2.516   0.030 -0.0899 -0.1859  0.7087
 1137TIP3    H224971   3.143   2.587   0.159 -0.6042 -0.3061  0.6458
 1138TIP3   OH224972   2.206   4.373   0.923 -0.0602  0.2650  0.2178
 1138TIP3    H124973   2.240   4.385   1.012  0.7885 -0.6583  0.0198
 1138TIP3    H224974   2.280   4.390   0.866 -0.0532 -1.1850 -0.2354
 1139TIP3   OH224975   0.978   3.607   2.595 -0.2857 -0.0617  0.4441
 1139TIP3    H124976   1.057   3.654   2.566  1.0608 -2.5078 -0.1553
 1139TIP3    H224977   0.964   3.542   2.527 -1.6083 -1.0281  1.6073
 1140TIP3   OH224978   5.755   0.750   3.227 -0.8283 -0.2457  0.1773
 1140TIP3    H124979   5.734   0.733   3.135 -0.4996  2.1301 -0.4207
 1140TIP3    H224980   5.841   0.712   3.240 -0.9833 -0.8211 -0.4330
 1141TIP3   OH224981   3.237   0.211   2.703 -0.8104  0.3567  0.3095
 1141TIP3    H124982   3.191   0.170   2.777 -0.6955 -0.2766  0.0411
 1141TIP3    H224983   3.175   0.272   2.666 -0.7537  0.9373  1.1456
 1142TIP3   OH224984   1.042   6.283   0.509  0.2537 -0.3940  0.3662
 1142TIP3    H124985   0.950   6.266   0.532  0.3486 -3.0178 -0.8240
 1142TIP3    H224986   1.043   6.282   0.414  1.6022 -0.9610  0.3711
 1143TIP3   OH224987   0.214   0.406   2.022 -0.7815 -0.3616 -0.3887
 1143TIP3    H124988   0.142   0.459   1.987  0.4950  0.0988 -2.4886
 1143TIP3    H224989   0.232   0.444   2.108 -1.6667  0.8579 -0.7180
 1144TIP3   OH224990   0.252   0.826   1.652  0.2943 -0.3258  0.1069
 1144TIP3    H124991   0.181   0.763   1.638 -0.2069  0.7223 -2.6572
 1144TIP3    H224992   0.269   0.822   1.746 -1.1663 -2.9968  0.3518
 1145TIP3   OH224993   3.309   4.338   0.405  1.1214 -0.2198  0.3788
 1145TIP3    H124994   3.383   4.336   0.466  1.2902  0.6978  0.2275
 1145TIP3    H224995   3.321   4.420   0.357  1.7107 -1.4900 -1.8066
 1146TIP3   OH224996   3.021   3.479   1.001 -0.2723  0.1606  0.7590
 1146TIP3    H124997   3.087   3.546   1.022 -0.6070  1.4119 -1.7676
 1146TIP3    H224998   3.071   3.409   0.960 -0.2514  0.0771  0.9259
 1147TIP3   OH224999   1.787   6.585   8.284  0.1794  0.8645  0.4646
 1147TIP3    H125000   1.817   6.589   8.375 -0.2180 -0.3177  0.6661
 1147TIP3    H225001   1.800   6.674   8.250  0.2670  1.3405  1.6991
 1148TIP3   OH225002   5.105   0.678   1.114 -0.5823 -0.0957  0.7502
 1148TIP3    H125003   5.053   0.616   1.164  0.4268 -2.0086 -0.4769
 1148TIP3    H225004   5.143   0.736   1.181 -2.5785  0.0720  1.8139
 1149TIP3   OH225005   0.619   0.473   0.553  0.2092  0.4106  0.2271
 1149TIP3    H125006   0.600   0.541   0.489  0.6034  0.5486  0.2549
 1149TIP3    H225007   0.610   0.517   0.638  0.4188  0.4181  0.2461
 1150TIP3   OH225008   3.442   2.599   2.888 -0.7296 -0.0848 -0.0187
 1150TIP3    H125009   3.534   2.581   2.869 -0.1849  1.6346  0.7428
 1150TIP3    H225010   3.405   2.514   2.913  0.8176 -0.6825  0.3341
 1151TIP3   OH225011   3.467   0.700   8.201 -0.5204 -0.4708  0.0218
 1151TIP3    H125012   3.409   0.665   8.133  1.2518  1.6429 -2.8135
 1151TIP3    H225013   3.555   0.675   8.173  0.6461  3.7468 -0.9058
 1152TIP3   OH225014   3.836   0.760   1.528  0.0780  0.1518 -0.1601
 1152TIP3    H125015   3.911   0.819   1.526  2.3949 -2.3483  2.7109
 1152TIP3    H225016   3.809   0.758   1.620 -0.7747 -2.1552 -0.3779
 1153TIP3   OH225017   3.157   5.930   1.589  0.0311  0.2673 -0.3844
 1153TIP3    H125018   3.155   5.990   1.515  0.6455 -0.4455 -0.9982
 1153TIP3    H225019   3.065   5.913   1.609 -0.1895 -0.9430 -2.1833
 1154TIP3   OH225020   1.301   4.042   2.558  0.5700  0.0834 -0.4077
 1154TIP3    H125021   1.281   4.048   2.652  0.9788 -0.4731 -0.2835
 1154TIP3    H225022   1.298   4.132   2.528  0.2600  0.2538  0.1048
 1155TIP3   OH225023   0.498   2.434   2.215 -0.3298  0.5598  0.2909
 1155TIP3    H125024   0.434   2.505   2.214  0.7333  1.5347 -0.1519
 1155TIP3    H225025   0.534   2.433   2.126 -1.0882 -1.2654 -0.0435
 1156TIP3   OH225026   3.403   2.635   2.398  0.0479  0.0393  0.0726
 1156TIP3    H125027   3.444   2.595   2.474  1.1932  0.6072 -0.2047
 1156TIP3    H225028   3.349   2.706   2.433  2.2145  1.6943  0.3172
 1157TIP3   OH225029   0.186   1.607   7.652 -0.4638 -0.2804  0.4478
 1157TIP3    H125030   0.270   1.563   7.666 -1.2673 -1.6664  1.1073
 1157TIP3    H225031   0.198   1.695   7.689  1.0222 -0.0697 -0.4650
 1158TIP3   OH225032   6.809   0.303   0.817 -0.3035  0.5008 -0.6864
 1158TIP3    H125033   6.864   0.270   0.888 -0.8477 -0.2785 -0.6051
 1158TIP3    H225034   6.738   0.350   0.861  0.6631  2.1652 -0.8126
 1159TIP3   OH225035   5.334   3.151   7.573 -0.4006 -0.3322 -0.5322
 1159TIP3    H125036   5.248   3.111   7.563  0.0548 -1.1730 -1.2178
 1159TIP3    H225037   5.362   3.126   7.661 -1.4234  1.1097  0.2389
 1160TIP3   OH225038   6.745   1.328   0.037 -0.2615  0.5417 -0.3451
 1160TIP3    H125039   6.779   1.399  -0.017  0.4152 -0.0261 -0.6805
 1160TIP3    H225040   6.820   1.269   0.049 -0.4578  0.5358  1.0109
 1161TIP3   OH225041   1.493   5.425   1.035 -0.1543  0.5386 -0.2770
 1161TIP3    H125042   1.418   5.455   1.085  0.1127  1.0417 -0.1766
 1161TIP3    H225043   1.456   5.372   0.965 -0.4955 -1.0107  1.0055
 1162TIP3   OH225044   4.048   2.276   2.444 -0.2241  0.4035 -0.0190
 1162TIP3    H125045   4.035   2.199   2.499 -4.0439  0.2571 -0.8509
 1162TIP3    H225046   4.102   2.245   2.372 -0.1091 -0.9909  0.6328
 1163TIP3   OH225047   0.995   1.217   0.875  0.0086  0.0712 -0.5679
 1163TIP3    H125048   0.978   1.193   0.784 -1.0387 -0.6364 -0.2086
 1163TIP3    H225049   1.043   1.300   0.869 -0.2380  0.1511 -1.7593
 1164TIP3   OH225050   6.388   5.590   1.228  0.2749  0.6698 -0.6630
 1164TIP3    H125051   6.451   5.657   1.254 -0.1662  1.9252 -2.6212
 1164TIP3    H225052   6.374   5.538   1.308  2.0074  1.7653  0.4224
 1165TIP3   OH225053   1.247   2.105   0.394 -0.3457 -0.1579  0.0548
 1165TIP3    H125054   1.203   2.145   0.469 -2.3732  1.2908 -1.7549
 1165TIP3    H225055   1.319   2.164   0.373 -0.6219  0.1885  0.0672
 1166TIP3   OH225056   4.995   1.220   0.815 -0.4792  0.4068  0.2014
 1166TIP3    H125057   4.915   1.175   0.787 -0.1954 -0.0936  0.1809
 1166TIP3    H225058   5.066   1.173   0.771 -0.2182  1.3885 -0.4739
 1167TIP3   OH225059   1.152   1.340   8.478  0.3727 -0.3189  0.4581
 1167TIP3    H125060   1.076   1.352   8.421  0.1367 -1.5907  0.4756
 1167TIP3    H225061   1.221   1.393   8.438  0.1075 -0.9132 -0.8118
 1168TIP3   OH225062   6.073   2.062   7.409 -0.0886 -0.1116 -0.4853
 1168TIP3    H125063   6.163   2.072   7.379 -0.0250 -1.3211 -0.7316
 1168TIP3    H225064   6.038   1.989   7.358 -1.7507  1.3596 -1.5842
 1169TIP3   OH225065   4.807   0.877   1.611 -0.9855 -0.2122  0.3486
 1169TIP3    H125066   4.832   0.894   1.702  0.1562 -1.8459  0.3866
 1169TIP3    H225067   4.779   0.785   1.611 -2.3500  0.1760 -0.6886
 1170TIP3   OH225068   3.142   0.782   1.559 -0.0101 -0.6559 -0.0893
 1170TIP3    H125069   3.209   0.812   1.497  0.0909  0.8192  0.6868
 1170TIP3    H225070   3.123   0.858   1.613  0.3862 -2.0321  2.1402
 1171TIP3   OH225071   0.845   2.212   2.061  0.9076  0.8156 -1.0455
 1171TIP3    H125072   0.788   2.274   2.017  0.7495  0.7395 -0.9467
 1171TIP3    H225073   0.807   2.201   2.148  1.8376  1.8093 -0.4946
 1172TIP3   OH225074   1.958   4.705   7.985  0.2379  0.5481 -0.4466
 1172TIP3    H125075   1.926   4.688   7.896 -0.0719  1.4024 -0.5032
 1172TIP3    H225076   1.879   4.712   8.038  0.4295 -0.2356 -0.0396
 1173TIP3   OH225077   0.262   6.217   2.712 -0.1490  0.0327  0.1936
 1173TIP3    H125078   0.334   6.267   2.674 -0.5620  0.5267  0.0442
 1173TIP3    H225079   0.280   6.216   2.806 -0.0894  0.3907  0.1872
 1174TIP3   OH225080   1.266   2.169   2.694 -0.3569  0.4229  0.4668
 1174TIP3    H125081   1.348   2.149   2.739 -1.3611  0.1211  2.2801
 1174TIP3    H225082   1.209   2.094   2.714 -0.6770 -0.0298 -1.8956
 1175TIP3   OH225083   4.359   1.971   1.837  0.1826  0.6427 -0.6468
 1175TIP3    H125084   4.316   2.034   1.780 -0.9409  0.9788  0.5245
 1175TIP3    H225085   4.395   2.023   1.909 -0.9647 -0.0135  0.4624
 1176TIP3   OH225086   5.863   5.532   3.616 -0.2456 -0.3859 -0.3327
 1176TIP3    H125087   5.828   5.517   3.528  0.6581  0.5959 -0.8710
 1176TIP3    H225088   5.850   5.448   3.661 -0.4749 -0.9852 -1.4792
 1177TIP3   OH225089   1.657   2.024   0.342 -0.0247 -0.0985 -0.3037
 1177TIP3    H125090   1.593   2.080   0.298 -0.0705  0.3520  0.3143
 1177TIP3    H225091   1.604   1.963   0.393  0.0128 -1.2111 -1.5627
 1178TIP3   OH225092   0.147   5.477   0.590 -0.3587 -0.2540  0.8276
 1178TIP3    H125093   0.180   5.396   0.630 -0.9646 -0.8860  0.0941
 1178TIP3    H225094   0.052   5.462   0.583 -0.9810  1.7272  3.4145
 1179TIP3   OH225095   2.182   0.776   0.246  0.3120 -0.3266  0.0222
 1179TIP3    H125096   2.213   0.866   0.241  1.6145 -0.7182  0.5033
 1179TIP3    H225097   2.234   0.729   0.181 -0.7454 -0.6473 -0.6218
 1180TIP3   OH225098   5.429   3.615   2.691  0.1305 -0.2404 -0.1003
 1180TIP3    H125099   5.524   3.603   2.696  0.4587  1.5892 -1.1905
 1180TIP3    H225100   5.418   3.708   2.676 -1.8592 -0.4629 -0.1866
 1181TIP3   OH225101   5.751   2.732   8.417 -0.5754 -0.0162 -0.0863
 1181TIP3    H125102   5.813   2.675   8.371  1.2140  1.0780  0.8451
 1181TIP3    H225103   5.685   2.754   8.351  0.7585 -0.1873 -1.5435
 1182TIP3   OH225104   1.328   3.295   7.920 -0.1059  0.1787  0.0588
 1182TIP3    H125105   1.269   3.364   7.890 -0.8348 -0.4594 -0.0017
 1182TIP3    H225106   1.337   3.311   8.014  1.0347  1.3171 -0.2134
 1183TIP3   OH225107   1.774   5.416   3.196  0.1317  0.6818  0.0625
 1183TIP3    H125108   1.721   5.339   3.174 -0.2423  1.3903 -1.6478
 1183TIP3    H225109   1.725   5.490   3.160  2.2956  1.3610 -1.7305
 1184TIP3   OH225110   0.952   2.849   2.690 -0.4246 -0.2438  0.3445
 1184TIP3    H125111   1.039   2.861   2.652 -0.7284 -0.3038 -0.3727
 1184TIP3    H225112   0.967   2.788   2.763  0.3963  1.0055  1.2647
 1185TIP3   OH225113   1.147   6.880   1.731  0.5819  0.0329  0.1100
 1185TIP3    H125114   1.188   6.917   1.810  0.2447 -0.5501  0.5649
 1185TIP3    H225115   1.057   6.913   1.733 -0.1584 -1.8701  1.2779
 1186TIP3   OH225116   1.397   0.556   7.618 -0.0026 -0.1891 -0.2241
 1186TIP3    H125117   1.383   0.547   7.523 -0.7576 -0.6519 -0.0729
 1186TIP3    H225118   1.310   0.571   7.653 -0.0424 -2.1709  0.6475
 1187TIP3   OH225119   2.054   1.390   8.278 -0.2666  0.1662 -0.6533
 1187TIP3    H125120   2.028   1.478   8.307  0.7292 -0.6455  3.3688
 1187TIP3    H225121   2.148   1.396   8.262 -0.0288 -0.2968  0.4795
 1188TIP3   OH225122   2.786   2.845   1.911 -0.8740  0.3466  0.1551
 1188TIP3    H125123   2.751   2.831   1.999  0.9640  0.9436  1.0430
 1188TIP3    H225124   2.713   2.881   1.861 -2.3561 -1.3356  1.0275
 1189TIP3   OH225125   2.976   1.073   0.851 -0.0260  0.1874  0.0157
 1189TIP3    H125126   2.883   1.086   0.867 -0.3609  0.8458 -2.1011
 1189TIP3    H225127   2.997   0.989   0.893 -1.9154 -0.6844 -0.6796
 1190TIP3   OH225128   4.929   0.189   1.946 -0.2488  0.2350  0.0724
 1190TIP3    H125129   4.884   0.107   1.964  0.0767  0.5409  2.6437
 1190TIP3    H225130   4.964   0.216   2.031  1.0624  2.2005 -1.0275
 1191TIP3   OH225131   2.222   3.671   8.021  0.0497 -0.0875  0.0980
 1191TIP3    H125132   2.303   3.639   8.060  0.6770 -1.1788 -1.9279
 1191TIP3    H225133   2.160   3.599   8.032 -0.0554 -0.0215 -0.0561
 1192TIP3   OH225134   0.398   0.971   1.439 -0.9183  0.7377  0.1265
 1192TIP3    H125135   0.383   0.958   1.345  0.4351 -1.5200  0.1473
 1192TIP3    H225136   0.333   0.915   1.481  0.6766 -0.9878  0.4060
 1193TIP3   OH225137   0.393   1.907   8.225  0.0991 -0.1849 -0.4327
 1193TIP3    H125138   0.372   1.999   8.208  1.2061  0.0572 -0.5730
 1193TIP3    H225139   0.469   1.910   8.282 -0.3196 -1.0270  0.1993
 1194TIP3   OH225140   0.588   6.156   1.412 -0.6651 -0.2371  0.4199
 1194TIP3    H125141   0.659   6.093   1.419 -0.1921  0.4396  2.3150
 1194TIP3    H225142   0.616   6.230   1.465 -1.1158  1.7080 -1.8799
 1195TIP3   OH225143   2.474   0.970   2.132  0.2337  0.2129  0.0516
 1195TIP3    H125144   2.560   1.010   2.121 -0.5229  1.7544 -0.6697
 1195TIP3    H225145   2.462   0.963   2.226  0.1957  2.2869  0.2459
 1196TIP3   OH225146   3.596   0.125   8.396 -0.4778  0.0479  0.0288
 1196TIP3    H125147   3.610   0.101   8.305 -0.4806  0.6254 -0.1272
 1196TIP3    H225148   3.676   0.171   8.421 -0.9170  0.8357 -0.0061
 1197TIP3   OH225149   3.830   2.873   0.866 -0.3530  0.5863 -0.6386
 1197TIP3    H125150   3.779   2.924   0.802  0.9944  0.5983 -1.7541
 1197TIP3    H225151   3.918   2.910   0.861  0.2663 -0.7789 -0.2863
 1198TIP3   OH225152   0.837   0.717   2.444  0.4835 -0.4037 -0.2916
 1198TIP3    H125153   0.873   0.630   2.426  1.9393  0.1287 -0.1008
 1198TIP3    H225154   0.746   0.701   2.466  0.1952 -1.6808 -2.2023
 1199TIP3   OH225155   5.816   2.782   2.444 -0.7707 -0.4592  0.7061
 1199TIP3    H125156   5.865   2.863   2.454 -0.0730 -0.4901 -1.7317
 1199TIP3    H225157   5.796   2.755   2.534 -0.2679  1.9156  1.6183
 1200TIP3   OH225158   2.108   1.621   0.156 -0.7279 -0.2720  0.3666
 1200TIP3    H125159   2.139   1.640   0.245  0.9331  1.2695 -0.4827
 1200TIP3    H225160   2.146   1.536   0.135  1.4796  0.7412  0.0477
 1201TIP3   OH225161   3.215   3.362   0.240 -0.6597  0.4041  0.1451
 1201TIP3    H125162   3.186   3.453   0.239  1.3037  1.0783 -1.0678
 1201TIP3    H225163   3.245   3.348   0.330 -1.0892  0.8997  0.3738
 1202TIP3   OH225164   5.769   6.184   1.535 -0.0123  0.5439 -0.6994
 1202TIP3    H125165   5.860   6.163   1.559 -0.1188  0.9752  0.1414
 1202TIP3    H225166   5.724   6.191   1.619 -0.8918  0.0721 -1.1227
 1203TIP3   OH225167   2.306   1.592   2.547 -0.5397 -0.5218  0.0918
 1203TIP3    H125168   2.245   1.660   2.576 -0.3486  0.1546 -1.0225
 1203TIP3    H225169   2.260   1.510   2.561 -1.7003 -0.0246 -0.6994
 1204TIP3   OH225170   1.202   2.271   1.554  0.0102 -0.1781 -0.5870
 1204TIP3    H125171   1.159   2.205   1.608 -1.0608  0.1425 -1.0163
 1204TIP3    H225172   1.282   2.294   1.602  0.0858 -1.3322 -0.1351
 1205TIP3   OH225173   0.530   0.966   1.853 -0.2918 -0.0846 -0.4462
 1205TIP3    H125174   0.585   0.960   1.774  2.2606  1.0978  1.1140
 1205TIP3    H225175   0.494   1.055   1.850  1.5581  0.7630  0.7009
 1206TIP3   OH225176   6.725   6.602   3.570 -0.1390 -0.4402 -0.3213
 1206TIP3    H125177   6.809   6.584   3.612 -0.1381  0.6312  0.1618
 1206TIP3    H225178   6.660   6.575   3.634 -0.1463 -0.0729 -0.1697
 1207TIP3   OH225179   2.280   4.205   2.429 -0.0598 -0.0656  0.2947
 1207TIP3    H125180   2.340   4.185   2.500  0.5090 -0.5984 -0.3174
 1207TIP3    H225181   2.331   4.259   2.368 -0.3816 -0.0330  0.0445
 1208TIP3   OH225182   1.476   1.324   1.504 -0.2108  0.4237  0.2714
 1208TIP3    H125183   1.559   1.318   1.457  0.2807 -0.4101  1.2162
 1208TIP3    H225184   1.410   1.303   1.438  0.6449 -4.0105  0.5141
 1209TIP3   OH225185   4.774   4.850   2.294  0.2198 -0.5023 -0.1096
 1209TIP3    H125186   4.715   4.801   2.351  1.1061  1.6475  2.8912
 1209TIP3    H225187   4.724   4.927   2.267  0.6952 -0.1509 -0.0077
 1210TIP3   OH225188   5.499   0.692   8.468  0.6672  0.1987  0.0528
 1210TIP3    H125189   5.527   0.624   8.529 -0.5313  0.3299  0.7668
 1210TIP3    H225190   5.512   0.774   8.515  1.1400  0.4106 -0.4302
 1211TIP3   OH225191   5.645   1.538   0.337  0.4501  0.0469  0.0374
 1211TIP3    H125192   5.616   1.629   0.341 -0.4273 -0.2258 -0.0056
 1211TIP3    H225193   5.740   1.543   0.346  0.4973  1.0343 -0.8062
 1212TIP3   OH225194   5.727   4.786   0.742 -0.6932 -0.3381  0.3708
 1212TIP3    H125195   5.654   4.848   0.741 -0.2829  0.1474 -0.5476
 1212TIP3    H225196   5.783   4.817   0.813 -0.4682  0.3851 -0.1099
 1213TIP3   OH225197   2.909   0.603   0.318 -0.1194 -0.4113 -0.5362
 1213TIP3    H125198   2.973   0.675   0.312 -1.6967  1.1015 -0.0345
 1213TIP3    H225199   2.890   0.596   0.411 -0.1935 -1.3158 -0.6177
 1214TIP3   OH225200   0.066   4.704   8.078  0.0131 -0.5203  0.3533
 1214TIP3    H125201   0.014   4.741   8.007 -0.6028 -2.0261 -0.0283
 1214TIP3    H225202   0.146   4.672   8.035 -0.1552 -1.0140  0.3966
 1215TIP3   OH225203   5.158   6.331   3.318 -0.1963  0.0706  0.0765
 1215TIP3    H125204   5.078   6.299   3.360 -0.6610 -0.4533 -1.1525
 1215TIP3    H225205   5.219   6.345   3.390 -0.8568 -1.0890  0.8970
 1216TIP3   OH225206   5.301   1.945   1.111  0.3312  0.5821 -0.1553
 1216TIP3    H125207   5.359   2.018   1.132 -1.9275  3.0191 -1.7144
 1216TIP3    H225208   5.214   1.976   1.136 -0.5710 -2.2501  0.5525
 1217TIP3   OH225209   6.093   5.220   0.855 -0.3805 -0.6524 -0.0366
 1217TIP3    H125210   6.102   5.315   0.843  0.1820 -1.0751 -4.5953
 1217TIP3    H225211   6.001   5.208   0.881 -0.5758  1.0856  0.2027
 1218TIP3   OH225212   0.429   6.054   2.359  0.1736 -0.3056  0.0545
 1218TIP3    H125213   0.358   6.113   2.334 -0.0605 -0.5130  0.2276
 1218TIP3    H225214   0.405   5.969   2.321  0.5765 -0.2604 -0.3102
 1219TIP3   OH225215   2.658   6.000   1.165 -0.1094  0.2812  0.2050
 1219TIP3    H125216   2.631   5.958   1.083 -0.7816  1.2130 -0.0608
 1219TIP3    H225217   2.617   5.947   1.233  0.4185 -0.4753 -0.0482
 1220TIP3   OH225218   2.688   4.615   1.207 -0.7003 -0.3659  0.4660
 1220TIP3    H125219   2.660   4.688   1.261  0.5353  1.4458 -1.1703
 1220TIP3    H225220   2.644   4.629   1.123  1.2645 -0.1802 -0.5870
 1221TIP3   OH225221   5.091   5.328   2.516 -0.5738  0.4248 -0.3029
 1221TIP3    H125222   5.153   5.282   2.574  0.0741  1.2282 -0.3406
 1221TIP3    H225223   5.132   5.324   2.430 -0.0419  1.8439 -0.1483
 1222TIP3   OH225224   5.259   2.975   2.806 -0.2452  0.1361  0.8469
 1222TIP3    H125225   5.193   3.039   2.779 -0.4941 -0.2859  0.4453
 1222TIP3    H225226   5.249   2.970   2.901 -0.6668  0.2103  0.8105
 1223TIP3   OH225227   4.619   4.518   2.280 -0.6586  0.1148 -0.4459
 1223TIP3    H125228   4.629   4.570   2.359  1.6911  1.8954 -1.7955
 1223TIP3    H225229   4.701   4.468   2.274 -1.1971 -0.6983 -1.2973
 1224TIP3   OH225230   0.445   5.544   1.495  0.3043  0.0755  0.3401
 1224TIP3    H125231   0.461   5.549   1.589 -1.6296  1.3649  0.6622
 1224TIP3    H225232   0.405   5.458   1.482 -1.0391  0.5727  1.0106
 1225TIP3   OH225233   4.414   5.875   2.470  0.1333  0.3927 -0.3916
 1225TIP3    H125234   4.347   5.813   2.442  0.6145  0.7764 -2.5661
 1225TIP3    H225235   4.381   5.961   2.443 -0.0655  1.0452  1.6884
 1226TIP3   OH225236   5.509   0.788   3.596 -0.2045  0.0040 -0.1506
 1226TIP3    H125237   5.494   0.813   3.505  1.8153  1.5715 -0.1355
 1226TIP3    H225238   5.553   0.864   3.634 -0.7966 -0.7049  2.0884
 1227TIP3   OH225239   2.516   4.221   7.900  0.4261  0.1886  0.1262
 1227TIP3    H125240   2.547   4.211   7.989  1.4679  1.2269 -0.0939
 1227TIP3    H225241   2.590   4.258   7.852 -0.5993  1.1134 -0.8194
 1228TIP3   OH225242   1.533   0.711   2.191  0.2453  0.3505 -0.5033
 1228TIP3    H125243   1.532   0.768   2.267  0.1443 -0.1958 -0.0869
 1228TIP3    H225244   1.556   0.768   2.118 -0.7274  1.0905 -0.2482
 1229TIP3   OH225245   4.174   3.687   2.106 -0.3850  0.4298 -0.0380
 1229TIP3    H125246   4.112   3.696   2.034 -0.6519  0.5277  0.2022
 1229TIP3    H225247   4.151   3.758   2.167 -0.7543 -0.2131  0.5828
 1230TIP3   OH225248   2.565   2.198   1.215 -0.1113  0.6801  0.0386
 1230TIP3    H125249   2.537   2.159   1.298  0.4027  0.7467  0.2495
 1230TIP3    H225250   2.496   2.259   1.192 -0.3208  0.5618  0.3508
 1231TIP3   OH225251   1.386   1.890   1.556  0.1052  0.1857  0.2340
 1231TIP3    H125252   1.312   1.898   1.616 -0.8713 -0.8551 -0.7728
 1231TIP3    H225253   1.380   1.967   1.500 -0.2463  0.0955  0.1410
 1232TIP3   OH225254   0.081   2.360   2.498  0.0640  0.3778 -0.2531
 1232TIP3    H125255   0.135   2.407   2.561  1.5560 -2.0443  0.4393
 1232TIP3    H225256   0.015   2.316   2.552  0.0491 -0.0529 -0.6211
 1233TIP3   OH225257   6.741   2.107   0.563 -0.4190 -0.4319 -0.0752
 1233TIP3    H125258   6.715   2.021   0.531 -1.7093 -1.0334  2.3865
 1233TIP3    H225259   6.658   2.156   0.568 -0.3668 -0.4933  2.5311
 1234TIP3   OH225260   2.228   2.422   0.691 -0.4502  0.4699 -0.0696
 1234TIP3    H125261   2.166   2.357   0.725 -0.1521  1.0051  1.5887
 1234TIP3    H225262   2.214   2.500   0.745  0.2020  1.3052 -1.0730
 1235TIP3   OH225263   6.877   4.673   0.789  0.7948 -0.5681  0.1392
 1235TIP3    H125264   6.953   4.625   0.822 -0.1152 -1.6798  0.6683
 1235TIP3    H225265   6.826   4.608   0.741  1.6217  0.7965 -2.8217
 1236TIP3   OH225266   1.616   3.659   0.956 -0.5879 -0.2620 -0.4290
 1236TIP3    H125267   1.532   3.655   1.003  0.2862 -1.1513  1.1409
 1236TIP3    H225268   1.636   3.567   0.935  0.0566 -0.0713 -0.6725
 1237TIP3   OH225269   5.230   1.663   2.641 -0.5730 -0.1298  0.0294
 1237TIP3    H125270   5.279   1.597   2.591 -0.3073 -0.2128  0.4001
 1237TIP3    H225271   5.293   1.699   2.702 -0.9046 -0.0433  0.3242
 1238TIP3   OH225272   3.047   1.782   0.701 -0.2296  0.6876 -0.7001
 1238TIP3    H125273   2.961   1.822   0.685 -0.7904  0.2176  0.8917
 1238TIP3    H225274   3.037   1.692   0.670  0.4505  1.2175 -2.5979
 1239TIP3   OH225275   2.087   6.683   1.916  0.5076 -0.3171  0.2760
 1239TIP3    H125276   2.073   6.591   1.892 -0.3550 -0.5351  1.4818
 1239TIP3    H225277   2.163   6.681   1.975  1.6267  0.0047 -1.1117
 1240TIP3   OH225278   4.305   2.379   8.055 -0.4335 -0.5798  0.2800
 1240TIP3    H125279   4.317   2.446   7.987 -1.0304 -0.3270  0.4183
 1240TIP3    H225280   4.338   2.298   8.015  0.2078 -0.2264  0.0758
 1241TIP3   OH225281   3.278   1.932   1.912  0.2502  0.2432 -0.0333
 1241TIP3    H125282   3.240   1.846   1.892 -1.8960  0.6221  2.0687
 1241TIP3    H225283   3.338   1.915   1.984  2.1575  0.1064 -1.5650
 1242TIP3   OH225284   4.295   4.761   8.385  0.0351 -0.1612  0.3975
 1242TIP3    H125285   4.267   4.702   8.315  0.6544  0.3332 -0.2830
 1242TIP3    H225286   4.216   4.775   8.437  0.0577 -2.3011  1.1397
 1243TIP3   OH225287   6.914   3.268   1.262  0.2008  0.2183 -0.2409
 1243TIP3    H125288   6.927   3.187   1.213  0.0021  0.2855 -0.4073
 1243TIP3    H225289   6.858   3.321   1.206 -1.6674 -0.4653  0.9124
 1244TIP3   OH225290   0.519   6.003   1.866 -0.0130 -0.0290 -0.5667
 1244TIP3    H125291   0.503   6.057   1.943 -0.6294  0.5346 -1.0714
 1244TIP3    H225292   0.484   5.917   1.889  0.9713 -0.2290  0.2420
 1245TIP3   OH225293   5.176   5.033   8.364  0.4809 -0.0940 -0.1915
 1245TIP3    H125294   5.256   5.036   8.310 -0.2633 -0.8255 -1.3805
 1245TIP3    H225295   5.155   4.940   8.370 -0.5220  0.1251 -0.2469
 1246TIP3   OH225296   0.931   1.232   2.446  0.8082  0.1298  0.1231
 1246TIP3    H125297   0.903   1.159   2.501 -0.8621  0.6777  0.0585
 1246TIP3    H225298   0.956   1.191   2.363 -1.8604 -0.2584 -0.5569
 1247TIP3   OH225299   1.961   4.486   2.764  0.2310  0.2170 -0.0337
 1247TIP3    H125300   1.951   4.394   2.739  3.1253  0.1055 -1.2710
 1247TIP3    H225301   2.056   4.496   2.777  0.0605  3.1753 -0.5244
 1248TIP3   OH225302   2.838   6.045   2.666 -0.4302 -0.3806  0.9648
 1248TIP3    H125303   2.930   6.047   2.639 -0.3803  0.6038  1.1660
 1248TIP3    H225304   2.823   6.130   2.708 -1.4841 -0.4533  0.7721
 1249TIP3   OH225305   0.340   5.505   8.294 -0.2172 -0.0867 -0.0826
 1249TIP3    H125306   0.425   5.469   8.316 -0.0947 -0.7789 -1.5394
 1249TIP3    H225307   0.277   5.446   8.335 -0.0339  0.5819  1.2303
 1250TIP3   OH225308   0.026   3.165   3.586  0.1293 -0.0453 -0.1079
 1250TIP3    H125309   0.030   3.131   3.496  3.2433  0.0667 -0.0964
 1250TIP3    H225310   0.032   3.087   3.641  0.4979  0.0482 -0.0159
 1251TIP3   OH225311   2.112   5.471   0.909 -0.0236 -0.2374 -0.5101
 1251TIP3    H125312   2.101   5.561   0.880  1.0831 -0.2253 -0.9200
 1251TIP3    H225313   2.196   5.443   0.872 -0.2263 -1.3519 -0.1781
 1252TIP3   OH225314   2.168   5.999   3.462  0.1190 -0.2419 -0.2552
 1252TIP3    H125315   2.246   6.008   3.516 -0.2128 -0.6706  0.2978
 1252TIP3    H225316   2.198   6.020   3.373  0.8156 -0.2115 -0.0150
 1253TIP3   OH225317   4.825   4.789   0.921  0.0033  0.2450 -0.3628
 1253TIP3    H125318   4.811   4.788   1.016  1.5044  0.4666 -0.1148
 1253TIP3    H225319   4.919   4.802   0.911  0.1183 -1.4040 -1.8723
 1254TIP3   OH225320   5.778   3.322   8.366 -0.0444 -0.1335 -0.3028
 1254TIP3    H125321   5.795   3.404   8.412 -0.7991 -0.4275  0.5361
 1254TIP3    H225322   5.776   3.347   8.274 -0.3690  0.8214 -0.0543
 1255TIP3   OH225323   4.015   5.107   1.368 -0.2026 -0.2861  0.0055
 1255TIP3    H125324   3.933   5.080   1.328 -0.5564  1.2918 -0.4080
 1255TIP3    H225325   4.056   5.164   1.303  1.0409 -0.7402  0.3650
 1256TIP3   OH225326   1.172   2.438   0.813  0.6481  0.2493  0.6285
 1256TIP3    H125327   1.231   2.509   0.789 -0.1729  0.3634 -1.1859
 1256TIP3    H225328   1.084   2.475   0.804  0.2444 -0.3815  1.7344
 1257TIP3   OH225329   6.800   1.561   0.247 -0.2673  0.4039  0.1086
 1257TIP3    H125330   6.712   1.597   0.251 -0.6696 -0.4277 -0.7828
 1257TIP3    H225331   6.844   1.609   0.177 -0.6183 -0.3950 -0.6864
 1258TIP3   OH225332   4.778   1.301   1.785 -0.1362  0.6490 -0.4958
 1258TIP3    H125333   4.747   1.218   1.748  1.4847 -1.9440  3.3686
 1258TIP3    H225334   4.703   1.334   1.834  0.1702 -0.4246  0.7564
 1259TIP3   OH225335   6.874   0.272   1.812 -0.1739  0.3580  0.4456
 1259TIP3    H125336   6.843   0.216   1.740 -1.4195  0.2403  1.0404
 1259TIP3    H225337   6.842   0.359   1.789 -0.5022  0.3354  0.8094
 1260TIP3   OH225338   5.862   6.476   3.031  0.2063  0.6044 -0.1049
 1260TIP3    H125339   5.831   6.489   3.120  2.6796  1.1712  0.7517
 1260TIP3    H225340   5.872   6.381   3.023  0.0699  0.5583  0.2334
 1261TIP3   OH225341   0.338   5.101   2.828 -0.8683  0.2884  0.0378
 1261TIP3    H125342   0.406   5.042   2.862 -1.1825 -0.6158 -0.8711
 1261TIP3    H225343   0.298   5.138   2.907  0.7299  0.9308  0.6011
 1262TIP3   OH225344   6.289   2.981   2.724  0.3483 -0.4803  0.4638
 1262TIP3    H125345   6.263   3.058   2.673  0.2692 -0.2562  0.8431
 1262TIP3    H225346   6.234   2.911   2.690 -2.0387  0.3236  2.4104
 1263TIP3   OH225347   0.537   3.215   3.383 -0.2987 -0.0051 -0.5983
 1263TIP3    H125348   0.609   3.160   3.412 -1.1334  0.0932  1.8746
 1263TIP3    H225349   0.579   3.293   3.347  0.9154  1.0382  2.7637
 1264TIP3   OH225350   2.196   2.028   7.712 -0.1156  0.2985  0.0739
 1264TIP3    H125351   2.109   2.052   7.681 -0.6986 -2.8816 -1.1595
 1264TIP3    H225352   2.187   1.936   7.737  2.9031 -0.1196 -0.0548
 1265TIP3   OH225353   2.483   1.937   2.860 -0.2201  0.5975  0.2391
 1265TIP3    H125354   2.479   1.874   2.788 -2.4045  0.7632  0.1717
 1265TIP3    H225355   2.484   2.022   2.817  1.2035  0.6742  0.3752
 1266TIP3   OH225356   5.237   5.880   2.855 -0.6020 -0.3112 -2.0056
 1266TIP3    H125357   5.216   5.796   2.813  0.4560 -3.0785  2.3174
 1266TIP3    H225358   5.332   5.876   2.870 -0.6133  1.4389 -1.2517
 1267TIP3   OH225359   6.515   5.819   2.326  0.1374  0.1153  0.5800
 1267TIP3    H125360   6.479   5.853   2.243 -0.2665 -1.5619  0.0353
 1267TIP3    H225361   6.608   5.806   2.307 -0.3836 -2.7058 -0.5395
 1268TIP3   OH225362   6.887   5.825   8.213  0.0409  0.2809  0.3781
 1268TIP3    H125363   6.840   5.862   8.138  1.5407 -0.6010 -1.0592
 1268TIP3    H225364   6.821   5.776   8.262 -0.8204  0.2482 -0.7920
 1269TIP3   OH225365   4.388   3.307   2.887  1.0010  0.5615 -0.4069
 1269TIP3    H125366   4.409   3.340   2.975  0.7396 -2.0755  0.7184
 1269TIP3    H225367   4.302   3.344   2.868  0.5301  0.2286  0.9612
 1270TIP3   OH225368   3.932   2.486   1.553 -0.0467  0.3303  0.2071
 1270TIP3    H125369   3.871   2.479   1.480  0.3820 -1.3096 -0.0338
 1270TIP3    H225370   3.901   2.423   1.618  2.4040 -2.0772 -0.7508
 1271TIP3   OH225371   6.424   0.127   0.735 -0.4628  0.5984 -0.3072
 1271TIP3    H125372   6.357   0.058   0.731 -0.9874  1.1007 -0.3278
 1271TIP3    H225373   6.399   0.180   0.810 -1.1822  1.8776 -1.3971
 1272TIP3   OH225374   2.654   4.336   1.230  0.0450  0.0294  0.0775
 1272TIP3    H125375   2.567   4.312   1.199 -0.3151 -0.0622  1.1405
 1272TIP3    H225376   2.655   4.432   1.226  0.3337  0.0004 -1.0560
 1273TIP3   OH225377   5.321   6.714   3.832 -0.2074 -0.3037 -0.1154
 1273TIP3    H125378   5.415   6.726   3.815 -0.2048 -0.8455 -0.5143
 1273TIP3    H225379   5.291   6.800   3.861  0.3877 -0.0916 -0.1062
 1274TIP3   OH225380   0.486   2.884   1.581  0.1210  0.0309  0.3026
 1274TIP3    H125381   0.578   2.887   1.555  0.1798  1.3640  0.5930
 1274TIP3    H225382   0.467   2.791   1.592  0.5308 -0.5297 -2.8479
 1275TIP3   OH225383   5.675   5.329   1.635 -0.4972  0.1809 -0.0849
 1275TIP3    H125384   5.643   5.408   1.679  1.0387  0.4528  0.6089
 1275TIP3    H225385   5.747   5.359   1.580 -0.2743 -0.6495 -0.2635
 1276TIP3   OH225386   6.213   2.174   2.057 -0.0151  0.4345 -0.6657
 1276TIP3    H125387   6.299   2.151   2.021 -0.4231 -1.8159 -0.3793
 1276TIP3    H225388   6.172   2.227   1.989  0.8657 -0.1263 -1.6726
 1277TIP3   OH225389   0.325   4.779   0.974 -0.0738 -0.1634 -0.8924
 1277TIP3    H125390   0.373   4.699   0.953  0.5926  0.2082 -0.7957
 1277TIP3    H225391   0.312   4.823   0.890 -1.1729 -0.7644 -1.0606
 1278TIP3   OH225392   0.101   6.909   3.474 -0.2999  0.4616 -0.3919
 1278TIP3    H125393   0.133   6.989   3.432 -0.9259  1.3017  0.6652
 1278TIP3    H225394   0.181   6.864   3.502  0.1141  2.6085  2.3397
 1279TIP3   OH225395   6.811   2.629   0.995  0.3405  0.4151 -0.3135
 1279TIP3    H125396   6.860   2.589   0.923  0.1583 -0.1658 -0.1154
 1279TIP3    H225397   6.862   2.609   1.073 -0.9611 -1.5456  0.1137
 1280TIP3   OH225398   1.936   0.204   2.870  0.1519  0.3357 -0.1808
 1280TIP3    H125399   1.991   0.138   2.828  0.7717 -0.2375  1.4750
 1280TIP3    H225400   1.874   0.230   2.801  0.1258 -1.6681 -0.9907
 1281TIP3   OH225401   3.140   1.366   8.145 -0.6386 -0.0436 -0.8741
 1281TIP3    H125402   3.090   1.353   8.064  0.0458 -1.3218 -1.1140
 1281TIP3    H225403   3.100   1.307   8.208  1.1167 -1.8319 -1.3440
 1282TIP3   OH225404   6.941   6.167   3.172  0.7118 -0.3107 -0.3083
 1282TIP3    H125405   6.909   6.086   3.131 -0.4311 -0.2952  0.4904
 1282TIP3    H225406   6.892   6.237   3.129 -1.4123 -0.3740  1.7819
 1283TIP3   OH225407   3.294   4.267   8.231  0.0206  0.0429 -0.2734
 1283TIP3    H125408   3.365   4.262   8.167  0.3198 -1.3391  0.1346
 1283TIP3    H225409   3.277   4.176   8.255 -2.2757  0.2644 -0.7898
 1284TIP3   OH225410   5.830   5.893   2.252 -0.5313  0.0049 -0.2084
 1284TIP3    H125411   5.769   5.870   2.321  0.1391 -0.4475  0.2449
 1284TIP3    H225412   5.879   5.813   2.235 -0.5249  0.1745 -1.0473
 1285TIP3   OH225413   4.245   3.505   1.006  0.1098  0.4371 -0.1634
 1285TIP3    H125414   4.328   3.458   0.996 -0.1111  0.2354 -1.2504
 1285TIP3    H225415   4.215   3.483   1.094  0.6061 -0.4839 -0.2130
 1286TIP3   OH225416   2.925   6.903   2.586  0.2337  0.3495  0.2216
 1286TIP3    H125417   2.893   6.852   2.660 -1.8340  0.5896 -0.4466
 1286TIP3    H225418   2.935   6.992   2.621  0.3471  0.2364  0.4818
 1287TIP3   OH225419   2.123   3.417   1.627 -0.9859 -0.3534 -0.3313
 1287TIP3    H125420   2.066   3.345   1.598  0.6335 -1.3816 -1.1524
 1287TIP3    H225421   2.138   3.469   1.548  1.7911 -1.9903 -1.0142
 1288TIP3   OH225422   1.120   1.612   8.053  0.3199 -0.3280 -0.2731
 1288TIP3    H125423   1.136   1.569   7.969 -0.4572  1.0404 -1.1525
 1288TIP3    H225424   1.207   1.620   8.092  0.7085 -0.8253 -1.0095
 1289TIP3   OH225425   1.799   5.388   0.857  0.2967 -0.4195  0.0739
 1289TIP3    H125426   1.732   5.450   0.831  1.2227  0.1013 -1.1671
 1289TIP3    H225427   1.881   5.437   0.853  0.9290 -1.4344  0.1067
 1290TIP3   OH225428   2.895   6.576   1.066 -0.3248  1.0186 -0.0219
 1290TIP3    H125429   2.853   6.567   0.981 -1.7713 -0.6291  0.7993
 1290TIP3    H225430   2.919   6.487   1.091  1.4639  1.6562  0.6498
 1291TIP3   OH225431   2.336   5.039   8.467  0.1760 -0.2320 -0.0024
 1291TIP3    H125432   2.407   4.998   8.417 -0.6223 -0.2963 -1.1151
 1291TIP3    H225433   2.347   5.133   8.451  0.1274 -0.2267 -0.0034
 1292TIP3   OH225434   3.340   1.987   2.507  0.3071  0.8544  0.1201
 1292TIP3    H125435   3.337   2.082   2.502 -0.0551  0.8451  0.1318
 1292TIP3    H225436   3.431   1.966   2.527 -0.0260  1.3127  2.3953
 1293TIP3   OH225437   4.215   1.795   2.032  0.2970 -0.0896 -0.2109
 1293TIP3    H125438   4.259   1.826   1.953 -0.6436 -1.5459 -1.3693
 1293TIP3    H225439   4.190   1.705   2.012 -1.4789  0.0445  1.1084
 1294TIP3   OH225440   2.572   1.357   0.854 -0.4750  1.0101 -0.1311
 1294TIP3    H125441   2.506   1.340   0.920  1.3535 -2.0279  1.1464
 1294TIP3    H225442   2.588   1.271   0.814  1.2682  2.0235 -1.7707
 1295TIP3   OH225443   4.339   6.629   3.417  0.7510 -0.6209 -0.3271
 1295TIP3    H125444   4.250   6.618   3.382  0.8837 -0.0164 -0.8871
 1295TIP3    H225445   4.396   6.589   3.351  1.1119  1.7963 -1.5870
 1296TIP3   OH225446   5.206   6.534   0.915 -0.0915 -0.4045 -0.6836
 1296TIP3    H125447   5.143   6.603   0.934  1.2272  1.3963 -2.4601
 1296TIP3    H225448   5.162   6.479   0.849 -0.8335 -0.8459  0.1525
 1297TIP3   OH225449   3.897   0.094   2.066  0.0978 -0.1092 -0.4181
 1297TIP3    H125450   3.811   0.092   2.108 -0.3410  0.0385 -1.2887
 1297TIP3    H225451   3.910   0.186   2.043 -0.9697 -0.5688 -3.1752
 1298TIP3   OH225452   3.182   6.015   8.324 -0.8236 -0.1695 -0.2217
 1298TIP3    H125453   3.202   6.023   8.230 -1.4973  2.7295 -0.2090
 1298TIP3    H225454   3.091   6.045   8.331 -0.4013  0.7965  1.4885
 1299TIP3   OH225455   0.381   1.857   0.511  0.1598 -0.2521 -0.0634
 1299TIP3    H125456   0.455   1.817   0.556 -0.2245 -0.2250  0.5935
 1299TIP3    H225457   0.365   1.939   0.557  0.8428  0.6113 -1.3040
 1300TIP3   OH225458   3.931   0.840   3.228 -0.1665  0.4503 -0.7146
 1300TIP3    H125459   4.012   0.843   3.281  1.4707  0.5321 -3.0745
 1300TIP3    H225460   3.875   0.907   3.267 -0.1015 -1.1036  2.3903
 1301TIP3   OH225461   0.312   1.224   7.925  0.3108 -0.3146 -0.5344
 1301TIP3    H125462   0.362   1.285   7.870  0.7313  0.1956  0.3909
 1301TIP3    H225463   0.234   1.203   7.873  0.3763  0.6590 -1.0512
 1302TIP3   OH225464   6.177   5.210   7.905  0.2574  0.0475 -0.5467
 1302TIP3    H125465   6.233   5.255   7.969 -1.0110  1.2590 -0.2376
 1302TIP3    H225466   6.091   5.204   7.947  0.3885 -2.9368 -0.4896
 1303TIP3   OH225467   4.613   5.781   1.430  0.2659  0.1331  0.2846
 1303TIP3    H125468   4.651   5.852   1.482 -0.9545  1.1222 -0.1121
 1303TIP3    H225469   4.519   5.802   1.426  0.4971  1.2123 -3.8503
 1304TIP3   OH225470   2.594   0.984   7.701 -0.1734  0.0406 -0.4527
 1304TIP3    H125471   2.527   0.997   7.635  0.3935  0.2168 -1.0090
 1304TIP3    H225472   2.649   0.914   7.667 -1.2005 -1.4948  0.9245
 1305TIP3   OH225473   4.885   1.687   2.459 -0.3256 -0.3383  0.3130
 1305TIP3    H125474   4.832   1.735   2.396  3.2096  0.8043 -2.0783
 1305TIP3    H225475   4.874   1.595   2.436 -1.1245 -0.1115 -0.2262
 1306TIP3   OH225476   5.433   4.777   2.708  0.0011  0.3293  0.5165
 1306TIP3    H125477   5.369   4.715   2.674  1.5635 -0.7347 -0.6401
 1306TIP3    H225478   5.391   4.862   2.698 -1.7858 -0.4456  1.1727
 1307TIP3   OH225479   2.344   5.264   1.956 -0.1582 -0.6736  0.2339
 1307TIP3    H125480   2.253   5.296   1.952 -0.3259 -1.1430  0.1790
 1307TIP3    H225481   2.364   5.239   1.866 -0.4062 -1.7213  0.4549
 1308TIP3   OH225482   3.209   0.578   1.815  0.4297  0.6967  0.5534
 1308TIP3    H125483   3.267   0.546   1.746 -1.5507  0.3915 -1.0387
 1308TIP3    H225484   3.253   0.657   1.848  1.9568  0.2355 -0.2625
 1309TIP3   OH225485   3.732   3.571   8.212  0.1751  0.5372  0.4146
 1309TIP3    H125486   3.713   3.661   8.186  0.1064  0.7440  1.1496
 1309TIP3    H225487   3.808   3.546   8.160 -0.8648  0.4015 -1.0955
 1310TIP3   OH225488   0.408   0.775   7.376  0.8203  0.5569 -0.3524
 1310TIP3    H125489   0.383   0.866   7.358  3.0779  1.6094  1.4116
 1310TIP3    H225490   0.497   0.780   7.411  1.9751 -2.5481 -2.3300
 1311TIP3   OH225491   0.803   0.546   1.560  0.6876  0.1538  0.3358
 1311TIP3    H125492   0.720   0.590   1.540  0.8346 -0.0298 -0.7463
 1311TIP3    H225493   0.783   0.492   1.636  0.1918  1.1701  0.9582
 1312TIP3   OH225494   2.499   3.274   1.638  0.0316 -0.3672 -0.1663
 1312TIP3    H125495   2.464   3.288   1.726 -0.0462 -0.7329 -0.1393
 1312TIP3    H225496   2.431   3.225   1.593  0.4229 -0.9009 -0.1787
 1313TIP3   OH225497   6.434   0.290   1.003 -0.4524 -0.2541 -0.3449
 1313TIP3    H125498   6.421   0.375   0.960 -1.6736  0.0615  0.6155
 1313TIP3    H225499   6.527   0.289   1.025 -0.0359  0.0618 -1.9401
 1314TIP3   OH225500   5.826   4.615   1.442 -0.0831 -0.5267 -0.6753
 1314TIP3    H125501   5.780   4.608   1.525  1.5938 -0.6351  0.3025
 1314TIP3    H225502   5.804   4.702   1.408 -0.1320 -0.1526  0.3002
 1315TIP3   OH225503   0.524   1.733   1.425  0.1673 -0.4705 -0.0579
 1315TIP3    H125504   0.588   1.790   1.382  0.3682  0.2917  1.1961
 1315TIP3    H225505   0.549   1.645   1.398  0.1851 -0.0307 -1.6090
 1316TIP3   OH225506   4.982   3.177   1.988 -0.4192 -0.9074 -0.8577
 1316TIP3    H125507   5.043   3.200   1.918 -1.0390 -1.2724 -1.5292
 1316TIP3    H225508   5.035   3.128   2.051  0.3086  0.0397 -0.6968
 1317TIP3   OH225509   1.318   0.433   1.727 -0.3107 -0.5529  0.2179
 1317TIP3    H125510   1.351   0.479   1.649  1.7910  0.1469  1.4378
 1317TIP3    H225511   1.368   0.352   1.730  0.5453 -0.0045  1.4816
 1318TIP3   OH225512   4.422   1.024   1.427  0.0641  0.4968 -0.2063
 1318TIP3    H125513   4.517   1.014   1.437  0.1039 -0.1600 -1.0572
 1318TIP3    H225514   4.385   0.945   1.467 -0.2587  1.6183  1.7981
 1319TIP3   OH225515   0.555   1.712   1.683  0.1032  0.0677 -0.5692
 1319TIP3    H125516   0.566   1.720   1.588  0.5883 -0.0967 -0.5277
 1319TIP3    H225517   0.631   1.663   1.712 -0.8145 -1.2493 -0.2982
 1320TIP3   OH225518   4.214   6.101   1.279  0.1815  0.0361  0.0751
 1320TIP3    H125519   4.209   6.193   1.307  0.1234  0.1978 -0.4524
 1320TIP3    H225520   4.160   6.054   1.342 -0.0950  0.4214  0.1305
 1321TIP3   OH225521   1.097   3.208   7.480 -0.2095 -0.1015 -0.1456
 1321TIP3    H125522   1.160   3.137   7.493 -0.2591 -0.3905 -1.3752
 1321TIP3    H225523   1.145   3.287   7.505  0.1543 -0.4699  0.3343
 1322TIP3   OH225524   5.397   0.155   2.405  0.3232  0.2601 -0.1920
 1322TIP3    H125525   5.470   0.095   2.424 -0.9805 -0.9361  1.3041
 1322TIP3    H225526   5.361   0.122   2.323 -0.1672 -0.8450  0.4400
 1323TIP3   OH225527   3.443   2.076   0.694  0.2476  0.0124 -0.3871
 1323TIP3    H125528   3.513   2.016   0.720 -0.4163 -0.2251  0.9053
 1323TIP3    H225529   3.443   2.145   0.760  0.3288  0.9080 -1.2925
 1324TIP3   OH225530   4.972   0.051   7.703  0.7367 -0.0579 -0.0661
 1324TIP3    H125531   4.952   0.124   7.762  0.6447 -0.3546  0.2676
 1324TIP3    H225532   4.888   0.025   7.667  0.9805  1.3342 -1.7712
 1325TIP3   OH225533   4.489   6.948   1.335 -0.1200  0.0047  0.0103
 1325TIP3    H125534   4.450   6.875   1.383  0.7784 -0.6089 -0.1770
 1325TIP3    H225535   4.537   6.907   1.263  1.3245  0.6820  0.5492
 1326TIP3   OH225536   1.484   5.526   8.116  0.2681  0.0044  0.6978
 1326TIP3    H125537   1.535   5.465   8.168 -0.7976 -1.0867  0.4973
 1326TIP3    H225538   1.397   5.487   8.111 -0.1266  0.9646 -0.4056
 1327TIP3   OH225539   6.757   6.088   2.501 -0.4389  0.0737  0.0076
 1327TIP3    H125540   6.769   6.115   2.410 -0.9380 -0.2116 -0.1457
 1327TIP3    H225541   6.719   6.165   2.544 -3.1671 -0.7693 -0.7366
 1328TIP3   OH225542   4.744   2.629   1.764  0.8138 -0.1513  0.5140
 1328TIP3    H125543   4.825   2.677   1.752  0.5153  0.4240  0.7923
 1328TIP3    H225544   4.762   2.543   1.725  1.0202  0.4961 -0.8853
 1329TIP3   OH225545   0.902   2.590   2.243  0.8539 -0.4471 -0.2285
 1329TIP3    H125546   0.970   2.558   2.184 -0.1708 -0.8880 -1.2078
 1329TIP3    H225547   0.849   2.649   2.190  1.6034  1.5111  1.0557
 1330TIP3   OH225548   2.640   2.962   0.082 -0.3306  0.3022 -0.4328
 1330TIP3    H125549   2.603   2.996   0.163 -0.9023  0.4780 -0.7634
 1330TIP3    H225550   2.640   3.037   0.022  1.9134  0.7257 -0.0103
 1331TIP3   OH225551   5.159   4.159   3.022 -0.1097  0.1826 -0.1020
 1331TIP3    H125552   5.233   4.215   3.046  0.9324 -0.6900 -1.1247
 1331TIP3    H225553   5.082   4.208   3.048  0.8217  1.3146  0.6133
 1332TIP3   OH225554   5.726   4.056   8.466  0.8305  0.3111 -0.3870
 1332TIP3    H125555   5.677   4.135   8.489  1.6758  0.7123  0.0836
 1332TIP3    H225556   5.732   4.007   8.548 -0.1906 -0.5380 -0.7969
 1333TIP3   OH225557   4.694   0.780   2.267 -0.4171  0.2957 -0.4217
 1333TIP3    H125558   4.724   0.846   2.329 -1.3078  1.5148 -1.2419
 1333TIP3    H225559   4.602   0.767   2.289  0.3286 -2.8009  1.5464
 1334TIP3   OH225560   5.774   5.500   1.112 -0.0088  0.2908 -0.5438
 1334TIP3    H125561   5.718   5.430   1.077  0.6325 -0.4899 -0.0538
 1334TIP3    H225562   5.814   5.540   1.035 -0.3520  0.0933 -0.8291
 1335TIP3   OH225563   6.096   1.210   3.383  0.5044 -0.4771  0.4384
 1335TIP3    H125564   6.074   1.221   3.476 -0.2942 -0.4737  0.2582
 1335TIP3    H225565   6.013   1.222   3.337  0.8810 -0.5411 -0.2762
 1336TIP3   OH225566   6.377   1.730   7.961 -0.3299  0.2381 -0.5086
 1336TIP3    H125567   6.357   1.821   7.983  0.3365 -0.0209  1.3467
 1336TIP3    H225568   6.466   1.732   7.927 -0.5064  0.3357 -0.9732
 1337TIP3   OH225569   2.384   4.534   8.271 -0.0950  0.2069  0.1789
 1337TIP3    H125570   2.302   4.542   8.223  0.6538 -1.6038 -1.5561
 1337TIP3    H225571   2.438   4.606   8.238 -0.5589  0.6684  0.4195
 1338TIP3   OH225572   3.969   5.397   2.308 -0.1927  0.0653  0.4147
 1338TIP3    H125573   3.924   5.465   2.258 -1.8271  0.0011  1.7336
 1338TIP3    H225574   4.036   5.363   2.248 -0.0685  2.0555 -0.6521
 1339TIP3   OH225575   3.849   0.411   0.964  0.5482  1.0079 -0.5624
 1339TIP3    H125576   3.891   0.326   0.949 -0.3075  0.3526  0.6481
 1339TIP3    H225577   3.922   0.472   0.978  1.1376  0.0620  0.6179
 1340TIP3   OH225578   3.613   0.640   2.218 -0.0014 -0.4355  0.2971
 1340TIP3    H125579   3.638   0.593   2.298 -3.5387 -0.8724  1.2819
 1340TIP3    H225580   3.595   0.572   2.154 -1.1313 -0.2874  0.4403
 1341TIP3   OH225581   5.036   1.366   1.997 -0.4933  0.1688 -0.2689
 1341TIP3    H125582   5.003   1.434   2.056 -0.9179 -0.4136  0.1760
 1341TIP3    H225583   4.978   1.371   1.921 -2.6270 -1.7766  1.0792
 1342TIP3   OH225584   3.001   1.035   2.321  0.3276 -0.2457 -0.2725
 1342TIP3    H125585   3.083   1.081   2.337  0.0219  0.4904 -0.7732
 1342TIP3    H225586   2.936   1.104   2.313 -0.1925 -0.7803 -0.7267
 1343TIP3   OH225587   5.497   1.643   3.157  0.4793 -0.1035  0.1398
 1343TIP3    H125588   5.499   1.555   3.121  1.9494  0.2992 -0.8713
 1343TIP3    H225589   5.422   1.644   3.216  0.4681 -2.0291  0.1967
 1344TIP3   OH225590   6.009   3.839   1.655  0.1036 -0.6636  0.1587
 1344TIP3    H125591   6.059   3.758   1.653  2.0093  0.4526  0.2131
 1344TIP3    H225592   6.049   3.894   1.588  0.2159  0.9892  1.5124
 1345TIP3   OH225593   2.923   3.167   1.686 -0.5684 -0.3739 -0.3577
 1345TIP3    H125594   2.968   3.105   1.744 -2.5693 -0.7053  0.9431
 1345TIP3    H225595   2.908   3.118   1.605  1.3480 -0.2433 -0.8437
 1346TIP3   OH225596   3.493   2.601   7.563  0.2816 -0.4301  0.1223
 1346TIP3    H125597   3.461   2.642   7.483  1.1151 -0.3976 -0.2017
 1346TIP3    H225598   3.584   2.579   7.544  0.7747  0.4384  1.3991
 1347TIP3   OH225599   0.905   6.546   1.057  0.7702  0.2304 -0.2796
 1347TIP3    H125600   0.985   6.591   1.029  0.0813  1.3080 -0.5825
 1347TIP3    H225601   0.869   6.509   0.977  1.0052 -0.3547 -0.1249
 1348TIP3   OH225602   6.222   5.693   3.185  0.2898 -0.2503  0.1266
 1348TIP3    H125603   6.250   5.784   3.194  0.4961 -0.2408 -0.5342
 1348TIP3    H225604   6.300   5.648   3.152  0.1928 -0.6683  0.4660
 1349TIP3   OH225605   3.956   4.103   0.240  0.1602 -0.5598  0.8082
 1349TIP3    H125606   3.903   4.097   0.161 -0.4561  1.3547  1.0231
 1349TIP3    H225607   3.907   4.053   0.306  0.4341 -1.7480  0.1332
 1350TIP3   OH225608   4.787   1.057   0.811 -0.1004 -0.5365 -0.3903
 1350TIP3    H125609   4.787   0.998   0.736 -0.7606  1.4487 -2.0492
 1350TIP3    H225610   4.725   1.018   0.872 -0.5820 -1.5065 -1.4579
 1351TIP3   OH225611   2.802   1.786   8.266 -0.2690 -1.0655 -0.4426
 1351TIP3    H125612   2.726   1.827   8.306  1.5066  1.6846  0.4009
 1351TIP3    H225613   2.822   1.841   8.190  0.3262 -2.3198 -1.2404
 1352TIP3   OH225614   3.220   6.805   2.111 -0.3485 -0.4762 -0.3187
 1352TIP3    H125615   3.266   6.737   2.061 -1.3031 -0.4334 -1.2903
 1352TIP3    H225616   3.132   6.771   2.122 -0.6345  0.2864 -0.1802
 1353TIP3   OH225617   3.816   1.821   2.527  0.4495  0.0159 -0.0496
 1353TIP3    H125618   3.833   1.727   2.520  1.7326  0.0697  1.7880
 1353TIP3    H225619   3.844   1.856   2.442 -1.0441 -1.3481 -1.1708
 1354TIP3   OH225620   3.206   4.136   0.259 -0.2392  0.5318 -0.3774
 1354TIP3    H125621   3.217   4.079   0.335 -0.8816  0.2253 -0.5109
 1354TIP3    H225622   3.250   4.218   0.284  1.9018 -0.4599 -0.7064
 1355TIP3   OH225623   4.757   3.084   2.819  0.6964 -0.0043  0.8396
 1355TIP3    H125624   4.819   3.023   2.858  1.3509  1.7392  2.6701
 1355TIP3    H225625   4.768   3.164   2.869 -3.0204  0.4141  1.2305
 1356TIP3   OH225626   1.911   1.671   8.338  0.3083  0.0124 -0.3770
 1356TIP3    H125627   1.911   1.690   8.432  1.4521  0.3944 -0.4384
 1356TIP3    H225628   1.819   1.662   8.315  0.0578 -2.3128  1.2086
 1357TIP3   OH225629   4.801   1.649   1.851 -0.0583  0.2533 -0.0489
 1357TIP3    H125630   4.750   1.702   1.912 -1.4917 -1.4146  0.2756
 1357TIP3    H225631   4.788   1.559   1.880 -0.3461 -0.5633 -2.4778
 1358TIP3   OH225632   2.483   2.925   1.494  0.2091 -0.1197  0.3978
 1358TIP3    H125633   2.425   2.851   1.510 -0.0017 -0.0926 -0.1996
 1358TIP3    H225634   2.555   2.888   1.442  0.2361  0.0391  0.3203
 1359TIP3   OH225635   5.982   3.033   2.528  0.1468  0.2900 -0.1917
 1359TIP3    H125636   6.067   3.075   2.541 -0.3091  1.0538  0.4572
 1359TIP3    H225637   5.950   3.015   2.616  0.3796 -1.5783 -0.4658
 1360TIP3   OH225638   4.309   6.527   3.674 -0.3345 -0.0585 -0.2699
 1360TIP3    H125639   4.388   6.564   3.714 -1.0008  0.5830  0.4854
 1360TIP3    H225640   4.309   6.562   3.585 -0.0574  0.3855 -0.0986
 1361TIP3   OH225641   4.289   2.244   7.666 -0.2197 -0.1174 -0.3058
 1361TIP3    H125642   4.262   2.332   7.695 -2.4758 -1.3342  1.6411
 1361TIP3    H225643   4.367   2.225   7.718  0.5552  0.8609 -1.0648
 1362TIP3   OH225644   6.558   2.366   2.919 -0.0313 -0.0640 -0.0468
 1362TIP3    H125645   6.528   2.277   2.937  1.2439 -0.3500  0.8436
 1362TIP3    H225646   6.498   2.422   2.969 -1.1748 -0.3582 -1.0434
 1363TIP3   OH225647   6.882   1.386   1.866 -0.3289  0.0966 -0.0951
 1363TIP3    H125648   6.898   1.376   1.960 -0.7707  3.2331  0.4264
 1363TIP3    H225649   6.965   1.416   1.830 -0.3320 -0.4999 -0.6362
 1364TIP3   OH225650   4.525   5.293   3.481  0.1433  0.2482 -0.6915
 1364TIP3    H125651   4.446   5.346   3.473 -0.6216 -0.7010  0.1942
 1364TIP3    H225652   4.527   5.240   3.402  1.4150  2.1688 -2.0365
 1365TIP3   OH225653   0.190   3.577   7.586  0.2133 -0.0605 -0.7807
 1365TIP3    H125654   0.257   3.600   7.521  1.2955 -0.9560 -0.0186
 1365TIP3    H225655   0.220   3.617   7.667  1.8460 -3.3375  0.4530
 1366TIP3   OH225656   5.186   2.554   1.345  0.0375 -0.2488  0.3422
 1366TIP3    H125657   5.148   2.517   1.265 -1.3654  0.1932  0.7735
 1366TIP3    H225658   5.127   2.625   1.369  0.4209 -0.3946  1.7938
 1367TIP3   OH225659   3.126   2.062   2.174 -0.2481  0.1044  0.4013
 1367TIP3    H125660   3.055   2.119   2.145 -0.1804 -0.4550 -0.9121
 1367TIP3    H225661   3.145   2.005   2.099  0.2142 -1.1295  1.4041
 1368TIP3   OH225662   6.832   6.638   1.436 -0.7009  0.3613  0.3319
 1368TIP3    H125663   6.907   6.664   1.383 -0.3913 -1.6603 -0.2763
 1368TIP3    H225664   6.761   6.626   1.372 -0.9813  0.2191  0.6646
 1369TIP3   OH225665   5.967   4.475   2.927 -0.0787 -0.2752 -0.0525
 1369TIP3    H125666   6.041   4.414   2.923  0.0950 -0.0888  0.2938
 1369TIP3    H225667   5.897   4.426   2.971  0.0037 -0.2850  0.0679
 1370TIP3   OH225668   4.361   4.853   0.244 -0.2338  0.0044  0.2494
 1370TIP3    H125669   4.325   4.916   0.306  0.4115  0.0950  0.5470
 1370TIP3    H225670   4.303   4.777   0.250 -0.8089  0.4339  0.1496
 1371TIP3   OH225671   2.622   1.761   0.397 -0.4426  0.1716  0.5396
 1371TIP3    H125672   2.659   1.849   0.392  0.9993 -0.3342  1.3511
 1371TIP3    H225673   2.699   1.703   0.396 -1.2795 -1.0045  1.1952
 1372TIP3   OH225674   4.143   0.072   8.196 -0.1652 -0.4789  0.0938
 1372TIP3    H125675   4.049   0.090   8.192 -0.0485 -0.1610 -2.4546
 1372TIP3    H225676   4.149  -0.024   8.196 -0.4689 -0.5030  0.6169
 1373TIP3   OH225677   6.125   4.305   2.281 -0.3106  0.0023 -0.2244
 1373TIP3    H125678   6.068   4.362   2.333 -1.2737 -1.4304  0.3541
 1373TIP3    H225679   6.076   4.223   2.274  0.8450 -0.6148 -1.4076
 1374TIP3   OH225680   1.139   1.275   7.681  0.0833 -0.6598  0.0524
 1374TIP3    H125681   1.121   1.203   7.620 -1.7164 -1.1458  1.0992
 1374TIP3    H225682   1.140   1.234   7.767  3.3202 -0.1062  0.3883
 1375TIP3   OH225683   2.608   1.811   7.816  0.1831  0.1308 -0.0839
 1375TIP3    H125684   2.652   1.740   7.769  0.7483  0.1731  0.3733
 1375TIP3    H225685   2.524   1.773   7.843  1.4845 -1.2314  2.3442
 1376TIP3   OH225686   5.971   4.522   7.652 -0.2428  0.1090  0.4222
 1376TIP3    H125687   5.990   4.609   7.687 -0.1789  0.6420 -0.8767
 1376TIP3    H225688   6.054   4.475   7.659  0.2051  0.7344 -0.4601
 1377TIP3   OH225689   1.984   5.732   0.188 -0.4226  0.8848 -0.0342
 1377TIP3    H125690   2.037   5.812   0.184  0.0551  0.5207 -1.6196
 1377TIP3    H225691   1.927   5.737   0.111 -0.6256 -0.1363  0.0422
 1378TIP3   OH225692   6.069   2.855   1.319  0.1321  0.1985  0.3910
 1378TIP3    H125693   6.124   2.906   1.259 -1.0063  1.1794  0.1503
 1378TIP3    H225694   6.017   2.799   1.263  1.2370 -1.1503  0.6480
 1379TIP3   OH225695   1.237   0.476   2.356 -0.6454  0.5120  0.8363
 1379TIP3    H125696   1.222   0.569   2.340 -0.2685  0.2075 -1.8260
 1379TIP3    H225697   1.150   0.439   2.366 -0.7681  1.2270  2.7843
 1380TIP3   OH225698   0.962   4.234   7.492 -0.1888 -0.0002  0.3711
 1380TIP3    H125699   1.027   4.179   7.537  1.5196  2.9707  1.8123
 1380TIP3    H225700   0.960   4.198   7.403  0.7696 -2.3916  1.2237
 1381TIP3   OH225701   4.112   0.459   7.993  0.6271 -0.6006 -0.4256
 1381TIP3    H125702   4.178   0.522   8.023 -0.5424  1.9349 -2.7623
 1381TIP3    H225703   4.145   0.428   7.909  0.6291 -2.3228  0.1725
 1382TIP3   OH225704   6.469   3.235   8.170  0.0378  0.0787 -0.1752
 1382TIP3    H125705   6.519   3.314   8.148 -1.3008  0.5599 -1.6798
 1382TIP3    H225706   6.408   3.264   8.238  0.4402 -0.0180  0.2355
 1383TIP3   OH225707   6.685   6.840   0.052 -0.1277 -0.1203 -0.3130
 1383TIP3    H125708   6.773   6.855   0.087 -0.1690  0.0323 -0.2756
 1383TIP3    H225709   6.629   6.902   0.098 -0.0177  0.7519 -1.3263
 1384TIP3   OH225710   1.600   5.582   0.758  0.5291  0.1294 -0.1011
 1384TIP3    H125711   1.516   5.547   0.787 -0.1476 -0.0533 -2.0862
 1384TIP3    H225712   1.595   5.579   0.662  1.2378  3.7476 -0.4116
 1385TIP3   OH225713   5.678   1.083   8.329 -0.1141 -0.3008 -0.1185
 1385TIP3    H125714   5.618   1.102   8.256  0.4783  1.2331 -0.2449
 1385TIP3    H225715   5.658   1.150   8.394  1.2779  0.0853 -0.0578
 1386TIP3   OH225716   6.804   6.436   2.822  0.6194 -0.1922 -0.5292
 1386TIP3    H125717   6.763   6.397   2.899  0.5318 -0.5557 -0.7564
 1386TIP3    H225718   6.898   6.422   2.835  0.5697 -0.7714 -0.7606
 1387TIP3   OH225719   5.373   6.558   2.795 -0.1913 -0.3529  0.3987
 1387TIP3    H125720   5.433   6.504   2.846 -0.2214 -0.6659  0.1078
 1387TIP3    H225721   5.342   6.500   2.725  0.2782  0.2236 -0.3055
 1388TIP3   OH225722   4.816   3.233   3.751  0.5220  0.1832  0.1971
 1388TIP3    H125723   4.909   3.253   3.753  0.2839  1.2873  0.8271
 1388TIP3    H225724   4.783   3.260   3.837 -0.5404  0.6400 -0.3322
 1389TIP3   OH225725   3.604   1.046   7.391  0.5275 -0.2756 -0.0119
 1389TIP3    H125726   3.583   1.119   7.332 -0.5145 -0.7074 -0.1990
 1389TIP3    H225727   3.699   1.051   7.402  0.2425  2.8860  2.3276
 1390TIP3   OH225728   0.703   3.867   0.611  0.1860 -0.1720  0.2933
 1390TIP3    H125729   0.727   3.959   0.623  1.0813 -0.3024 -0.4011
 1390TIP3    H225730   0.609   3.865   0.629  0.3433  0.6813  1.3572
 1391TIP3   OH225731   5.368   2.424   3.465  0.9999  0.4682  0.1604
 1391TIP3    H125732   5.305   2.373   3.516  2.1202 -2.4433 -1.1405
 1391TIP3    H225733   5.320   2.447   3.385  0.6524  0.9580  0.5109
 1392TIP3   OH225734   4.804   1.424   1.265  0.5445 -0.0059 -0.0967
 1392TIP3    H125735   4.710   1.429   1.279  0.7653 -0.7895  2.0652
 1392TIP3    H225736   4.814   1.369   1.187 -0.7760 -0.6635  0.1654
 1393TIP3   OH225737   3.687   2.086   2.022  0.4637  0.3053 -0.2520
 1393TIP3    H125738   3.666   2.055   2.110  0.8202  2.2200  0.5608
 1393TIP3    H225739   3.783   2.090   2.021  0.4731  0.0177 -0.8411
 1394TIP3   OH225740   3.324   1.073   1.101 -0.5544  0.2610 -0.0007
 1394TIP3    H125741   3.278   1.051   1.021 -1.4961  1.2598  0.2338
 1394TIP3    H225742   3.417   1.066   1.079 -0.7464 -2.4588 -0.3007
 1395TIP3   OH225743   2.036   5.415   2.116 -0.1176 -0.1788 -0.1678
 1395TIP3    H125744   2.067   5.464   2.040 -1.4210 -0.8020 -1.1239
 1395TIP3    H225745   2.085   5.452   2.190 -1.4963  3.0451 -0.7090
 1396TIP3   OH225746   6.667   5.671   8.288  0.0790 -0.5385 -0.0156
 1396TIP3    H125747   6.607   5.610   8.247 -1.7504  1.3767 -0.3428
 1396TIP3    H225748   6.647   5.666   8.381  1.4420 -1.9517  0.2400
 1397TIP3   OH225749   4.346   4.240   0.526 -0.3108  0.0118  0.5979
 1397TIP3    H125750   4.290   4.314   0.504  0.6116  0.2454 -1.1630
 1397TIP3    H225751   4.330   4.176   0.456 -0.6373 -1.2207  1.7566
 1398TIP3   OH225752   4.142   5.250   2.831 -0.5166  0.2316 -0.1556
 1398TIP3    H125753   4.082   5.220   2.762 -0.9367  1.9120 -0.5683
 1398TIP3    H225754   4.163   5.340   2.807 -0.1142  0.6299  1.5423
 1399TIP3   OH225755   6.521   2.585   2.010  0.9855 -0.4949 -0.2377
 1399TIP3    H125756   6.579   2.516   2.043  1.3660 -0.6610 -1.2059
 1399TIP3    H225757   6.581   2.650   1.972  0.6472  0.4963  0.8451
 1400TIP3   OH225758   6.290   0.679   2.645 -0.2749 -0.9218  0.4473
 1400TIP3    H125759   6.329   0.691   2.558  1.1577 -2.2538  0.8654
 1400TIP3    H225760   6.354   0.716   2.706 -1.1893 -0.1631  0.9739
 1401TIP3   OH225761   5.021   3.033   2.224 -0.2612  0.5377  0.3467
 1401TIP3    H125762   4.970   2.953   2.210  0.9321 -0.1488 -0.1858
 1401TIP3    H225763   4.970   3.082   2.288 -1.8207  0.0958 -0.5114
 1402TIP3   OH225764   4.615   3.200   0.894  0.5607 -0.6573  0.6828
 1402TIP3    H125765   4.619   3.106   0.916 -0.5405 -0.0713  3.9451
 1402TIP3    H225766   4.699   3.234   0.925  0.9984 -0.5409 -0.5911
 1403TIP3   OH225767   6.360   4.816   2.130  0.4202  0.6789  0.2819
 1403TIP3    H125768   6.444   4.815   2.085 -0.3570  0.1100 -1.2150
 1403TIP3    H225769   6.296   4.834   2.061 -0.6450  1.7931  1.4919
 1404TIP3   OH225770   0.380   4.580   0.365  0.4179  1.0478 -0.0829
 1404TIP3    H125771   0.295   4.567   0.407  1.3895 -2.0229  1.2838
 1404TIP3    H225772   0.366   4.555   0.273  0.1003 -1.1653  0.5037
 1405TIP3   OH225773   0.628   4.893   2.620 -0.3813 -0.2371 -0.3446
 1405TIP3    H125774   0.631   4.974   2.569 -0.8036  0.3627  0.5548
 1405TIP3    H225775   0.720   4.873   2.640 -0.3567  0.9728  0.8732
 1406TIP3   OH225776   0.790   3.630   2.265 -0.4489 -0.6140  0.4613
 1406TIP3    H125777   0.872   3.680   2.265  0.0427 -1.4143  0.5033
 1406TIP3    H225778   0.722   3.697   2.258  0.0231  0.3951  3.7051
 1407TIP3   OH225779   6.086   4.925   2.342 -0.0981  0.1764  0.5868
 1407TIP3    H125780   6.015   4.878   2.386  0.2163 -1.6436 -0.7217
 1407TIP3    H225781   6.046   4.958   2.261  0.4473 -0.6623 -0.0452
 1408TIP3   OH225782   4.640   1.816   2.365 -0.5178 -0.1816 -0.4401
 1408TIP3    H125783   4.627   1.817   2.460  3.6221  1.7910  0.3026
 1408TIP3    H225784   4.631   1.908   2.338 -2.1660 -0.7669 -2.1646
 1409TIP3   OH225785   0.028   5.399   1.414 -0.5672  0.6001  0.5622
 1409TIP3    H125786   0.091   5.459   1.373 -0.9085 -0.2143 -1.2739
 1409TIP3    H225787   0.018   5.432   1.503  1.0482  1.8449  0.3421
 1410TIP3   OH225788   5.982   3.128   8.423 -0.2913  0.4914  0.2339
 1410TIP3    H125789   5.908   3.187   8.435  1.0945  2.4602 -0.2159
 1410TIP3    H225790   5.967   3.087   8.338 -0.6601  1.1914 -0.0464
 1411TIP3   OH225791   2.875   3.286   0.360  0.4878 -0.1591 -0.2607
 1411TIP3    H125792   2.934   3.362   0.362  0.3077 -0.0075 -0.6738
 1411TIP3    H225793   2.788   3.324   0.357  0.4237 -0.3390 -2.5362
 1412TIP3   OH225794   3.925   2.424   8.116  0.1962 -0.7979 -0.7101
 1412TIP3    H125795   3.958   2.363   8.050 -1.4018 -1.6687 -0.7717
 1412TIP3    H225796   4.003   2.463   8.155  1.2519 -2.3179 -1.2135
 1413TIP3   OH225797   5.746   6.695   0.823  0.0912 -0.4924 -0.2799
 1413TIP3    H125798   5.700   6.753   0.762 -0.0828 -1.8361 -1.4964
 1413TIP3    H225799   5.811   6.751   0.865 -0.1035  0.5871 -1.3526
 1414TIP3   OH225800   1.517   1.567   0.965  0.0922 -0.5588 -0.3016
 1414TIP3    H125801   1.569   1.647   0.954 -1.8095  0.9316  0.7540
 1414TIP3    H225802   1.581   1.498   0.980  1.7739  1.0477  0.2570
 1415TIP3   OH225803   6.315   3.550   8.059  0.3443 -0.0368 -0.2060
 1415TIP3    H125804   6.266   3.488   8.112  0.2279 -1.3818 -1.8229
 1415TIP3    H225805   6.285   3.636   8.089 -0.2324 -0.7594  1.3815
 1416TIP3   OH225806   2.628   6.117   0.748  0.6996  0.7754 -0.6255
 1416TIP3    H125807   2.655   6.149   0.834 -0.1857 -1.3593  0.5129
 1416TIP3    H225808   2.705   6.070   0.715  0.3049 -0.4183  0.0865
 1417TIP3   OH225809   6.113   3.977   3.715 -0.4634 -0.1670 -0.5657
 1417TIP3    H125810   6.165   4.021   3.648 -1.0463 -0.6611 -1.3695
 1417TIP3    H225811   6.108   4.039   3.787  1.4400 -0.2114 -0.3522
 1418TIP3   OH225812   4.837   2.800   0.840 -0.2839  0.6109 -0.2832
 1418TIP3    H125813   4.912   2.769   0.891 -1.0765  0.3868  0.7901
 1418TIP3    H225814   4.865   2.792   0.749  0.2830 -1.4128  0.0082
 1419TIP3   OH225815   4.294   2.049   2.375  0.1494 -0.2295 -0.5508
 1419TIP3    H125816   4.308   2.091   2.460  0.0198  1.4601 -1.3261
 1419TIP3    H225817   4.293   1.955   2.395  0.8588  0.0884  1.1948
 1420TIP3   OH225818   5.336   2.900   1.872  0.0733 -0.0222  0.2614
 1420TIP3    H125819   5.376   2.953   1.942 -0.0175 -0.1553  0.4156
 1420TIP3    H225820   5.406   2.840   1.846  1.2220  2.0896 -1.9973
 1421TIP3   OH225821   1.142   4.405   0.848 -0.0922  0.0018  0.8162
 1421TIP3    H125822   1.054   4.398   0.809 -0.1625  1.6826  0.5943
 1421TIP3    H225823   1.201   4.396   0.774  0.0155 -2.3058  1.1157
 1422TIP3   OH225824   6.157   3.701   3.711  0.8994  0.1921  0.6545
 1422TIP3    H125825   6.107   3.669   3.786  0.1918  0.4474  0.3042
 1422TIP3    H225826   6.151   3.796   3.717  1.5850  0.2268  0.7655
 1423TIP3   OH225827   0.803   0.268   7.681  0.1102 -0.2893  0.8397
 1423TIP3    H125828   0.862   0.262   7.606 -0.9748 -1.0063  0.0140
 1423TIP3    H225829   0.751   0.347   7.664 -0.0916 -0.4159  0.8636
 1424TIP3   OH225830   2.911   2.580   2.533  0.0328 -0.1725 -0.3876
 1424TIP3    H125831   2.860   2.633   2.594  0.7655  0.7481 -0.5577
 1424TIP3    H225832   2.982   2.544   2.585 -0.0255 -0.3765 -0.4448
 1425TIP3   OH225833   1.558   5.774   2.769 -0.0369 -0.4542 -0.3102
 1425TIP3    H125834   1.566   5.729   2.853  1.1695 -0.4962 -0.4355
 1425TIP3    H225835   1.468   5.757   2.742 -0.3695 -0.6474  0.8491
 1426TIP3   OH225836   0.653   3.705   1.466 -0.4561  0.1082  0.2533
 1426TIP3    H125837   0.578   3.756   1.434 -0.5873  1.3148  2.2735
 1426TIP3    H225838   0.629   3.681   1.555  1.5695  0.5523  0.9688
 1427TIP3   OH225839   5.668   5.762   3.437 -0.1201  0.4892  0.7393
 1427TIP3    H125840   5.755   5.763   3.477 -0.0639 -0.6441  0.6753
 1427TIP3    H225841   5.685   5.763   3.343 -0.1479 -0.0852  0.7203
 1428TIP3   OH225842   1.120   1.908   7.286  0.9601  0.5540 -0.3115
 1428TIP3    H125843   1.072   1.985   7.317  1.5615  2.1123 -2.8365
 1428TIP3    H225844   1.055   1.839   7.281 -0.4652  1.8733 -1.1243
 1429TIP3   OH225845   4.239   0.017   0.425  0.1115  0.2020  0.3305
 1429TIP3    H125846   4.215  -0.065   0.469  1.0529 -0.8552 -1.0399
 1429TIP3    H225847   4.333   0.008   0.407 -0.1298  0.8306 -1.3631
 1430TIP3   OH225848   1.922   5.519   1.156 -0.4431  0.0606  0.1743
 1430TIP3    H125849   1.945   5.492   1.067 -0.4278 -0.8332  0.4408
 1430TIP3    H225850   1.974   5.463   1.213  0.7587  1.6949  0.7795
 1431TIP3   OH225851   5.446   3.181   0.135 -0.2804 -0.3581  0.4314
 1431TIP3    H125852   5.352   3.175   0.119  0.1789  1.0700 -4.2288
 1431TIP3    H225853   5.461   3.275   0.150  0.6116 -0.0322 -2.0392
 1432TIP3   OH225854   1.437   6.731   7.493 -0.0170  0.6848  0.2683
 1432TIP3    H125855   1.343   6.746   7.498 -0.4227 -1.6686  0.9568
 1432TIP3    H225856   1.475   6.819   7.488 -2.2530  1.6769 -0.9331
 1433TIP3   OH225857   3.724   3.142   2.988 -0.5678  0.1739 -0.2132
 1433TIP3    H125858   3.702   3.080   2.917 -0.5702 -1.1036  0.8541
 1433TIP3    H225859   3.690   3.100   3.067 -1.3184  1.9685  0.4654
 1434TIP3   OH225860   1.173   0.487   2.643 -0.4369 -0.0937  0.2374
 1434TIP3    H125861   1.190   0.484   2.549  0.4435  1.7794  0.2841
 1434TIP3    H225862   1.161   0.395   2.668 -1.6623 -0.5706 -1.8324
 1435TIP3   OH225863   2.044   4.940   1.805 -0.1265  0.6419  0.4245
 1435TIP3    H125864   2.129   4.949   1.761  0.6536  1.6406  2.0288
 1435TIP3    H225865   1.996   4.877   1.752  1.7102 -0.1251 -0.4164
 1436TIP3   OH225866   5.055   0.384   8.219 -0.0971  0.4708  0.0743
 1436TIP3    H125867   5.059   0.434   8.137  0.2710 -0.1768 -0.3178
 1436TIP3    H225868   4.966   0.398   8.251 -0.0220  1.3107 -0.0586
 1437TIP3   OH225869   0.733   0.656   0.074  0.2415 -0.6795  0.9804
 1437TIP3    H125870   0.789   0.714   0.125 -0.0775  0.8816 -0.3402
 1437TIP3    H225871   0.756   0.568   0.102  3.5034 -0.1345  0.3771
 1438TIP3   OH225872   1.606   4.225   1.775  0.4609 -0.1782  0.4417
 1438TIP3    H125873   1.559   4.306   1.756  2.6821  1.4493  1.3274
 1438TIP3    H225874   1.653   4.205   1.694  0.7271  0.0510  0.5347
 1439TIP3   OH225875   6.442   5.333   8.016 -0.2493  0.2450  0.1554
 1439TIP3    H125876   6.419   5.392   7.943  1.3787  2.0925  1.0424
 1439TIP3    H225877   6.522   5.290   7.986  0.5453  1.1720  0.9022
 1440TIP3   OH225878   4.672   5.558   0.031  0.6066 -0.3020  0.0345
 1440TIP3    H125879   4.640   5.642   0.063  2.1577  0.5832 -0.6408
 1440TIP3    H225880   4.596   5.518  -0.011 -0.4117  0.2865  1.2396
 1441TIP3   OH225881   6.110   5.122   0.231  0.3897 -0.0371 -0.1672
 1441TIP3    H125882   6.107   5.027   0.220  1.7363 -0.0586 -0.4541
 1441TIP3    H225883   6.040   5.140   0.294 -0.0777 -1.1795 -0.3288
 1442TIP3   OH225884   6.884   4.166   1.080  0.2153 -0.1416  0.4127
 1442TIP3    H125885   6.814   4.177   1.144  1.9250 -0.6739  2.4827
 1442TIP3    H225886   6.936   4.246   1.088  2.1186 -1.4450  1.9418
 1443TIP3   OH225887   4.978   2.948   8.141 -0.0929  0.2567  0.3974
 1443TIP3    H125888   4.894   2.986   8.116 -0.8167 -1.1816  0.5522
 1443TIP3    H225889   5.038   2.973   8.071 -1.1718 -0.4773 -0.8392
 1444TIP3   OH225890   6.160   2.107   0.565 -0.2667 -0.0243 -0.4531
 1444TIP3    H125891   6.068   2.089   0.583 -0.0481 -1.4374 -0.6462
 1444TIP3    H225892   6.174   2.074   0.476  0.7288 -1.0686  0.0573
 1445TIP3   OH225893   0.524   4.389   3.163 -0.6076  0.6489 -0.2429
 1445TIP3    H125894   0.528   4.368   3.257 -0.1910  0.4577 -0.3017
 1445TIP3    H225895   0.515   4.303   3.120 -1.1873  0.7645 -0.3561
 1446TIP3   OH225896   2.920   1.803   0.136  0.5479 -0.2856  0.0443
 1446TIP3    H125897   2.880   1.777   0.054 -0.6062 -0.5333  0.6631
 1446TIP3    H225898   2.894   1.735   0.198  0.7123  0.3259  0.8024
 1447TIP3   OH225899   3.695   6.180   2.858 -0.0548 -0.3625  0.4347
 1447TIP3    H125900   3.636   6.206   2.928  0.3584 -1.8597  1.3927
 1447TIP3    H225901   3.726   6.262   2.820 -2.2417  0.4721  0.3037
 1448TIP3   OH225902   3.460   1.414   1.045 -0.3106 -0.4225 -0.1386
 1448TIP3    H125903   3.447   1.387   0.955 -2.0578  2.4173 -0.8573
 1448TIP3    H225904   3.372   1.426   1.080  0.3432 -0.6801  1.7231
 1449TIP3   OH225905   6.948   6.888   0.115 -0.0649 -0.2919  0.8574
 1449TIP3    H125906   6.997   6.826   0.169  1.1339 -0.1251 -0.0119
 1449TIP3    H225907   6.984   6.974   0.138 -1.4860  0.0841  1.8066
 1450TIP3   OH225908   3.258   3.645   1.041 -0.1227  0.4410  0.4419
 1450TIP3    H125909   3.277   3.668   1.132  0.3009  2.1331 -0.0363
 1450TIP3    H225910   3.323   3.578   1.019  0.2289  0.5315  1.1704
 1451TIP3   OH225911   1.254   3.354   2.576  0.4822 -0.3952 -0.1331
 1451TIP3    H125912   1.190   3.387   2.513 -0.3622  1.3573  1.5508
 1451TIP3    H225913   1.204   3.297   2.634  0.4819  0.6745  0.9556
 1452TIP3   OH225914   0.759   6.339   3.608  0.1154  0.5715  0.0898
 1452TIP3    H125915   0.786   6.247   3.616 -3.0802 -0.5696 -1.0213
 1452TIP3    H225916   0.783   6.364   3.519  1.2757  0.9924  0.4924
 1453TIP3   OH225917   6.273   5.931   2.758  0.0253 -0.6315 -0.7691
 1453TIP3    H125918   6.330   5.930   2.835 -1.2503  1.3377  0.2955
 1453TIP3    H225919   6.332   5.932   2.683  1.3633  0.0091  0.2541
 1454TIP3   OH225920   0.920   5.182   1.342  0.5184  0.4546  0.4867
 1454TIP3    H125921   1.004   5.228   1.344  1.3412 -0.9908  1.3223
 1454TIP3    H225922   0.930   5.113   1.407 -2.1549  1.6243  2.3190
 1455TIP3   OH225923   6.206   5.011   3.182  0.7693 -0.3673  0.2287
 1455TIP3    H125924   6.236   4.960   3.107  1.3105 -1.2153  0.9979
 1455TIP3    H225925   6.201   4.948   3.254 -1.4122  0.0416  0.5257
 1456TIP3   OH225926   4.549   4.935   0.518 -0.6795 -0.0379 -0.2641
 1456TIP3    H125927   4.609   4.898   0.583 -0.1018  2.7675  0.9273
 1456TIP3    H225928   4.589   5.018   0.492 -1.0038 -0.8873 -4.1276
 1457TIP3   OH225929   2.257   0.406   0.634 -0.5975  0.2338  0.0725
 1457TIP3    H125930   2.267   0.497   0.606 -1.8278  0.7062  1.0686
 1457TIP3    H225931   2.185   0.372   0.580 -0.9866  0.2474  0.5759
 1458TIP3   OH225932   3.211   3.935   0.499  0.1116  0.3457  0.4650
 1458TIP3    H125933   3.235   3.975   0.582 -0.7854 -0.9059  1.3606
 1458TIP3    H225934   3.265   3.856   0.493  0.7113  0.8029 -0.5192
 1459TIP3   OH225935   4.842   2.183   0.108  0.9404  0.2493 -0.0144
 1459TIP3    H125936   4.806   2.263   0.147  1.5690  0.5162  0.0285
 1459TIP3    H225937   4.928   2.209   0.075 -0.2588  0.5356 -3.2782
 1460TIP3   OH225938   5.422   3.651   7.952  0.2969 -0.1738 -0.4077
 1460TIP3    H125939   5.408   3.741   7.922 -0.6151 -0.0980  0.2201
 1460TIP3    H225940   5.360   3.599   7.902 -0.1870 -0.2526  0.2697
 1461TIP3   OH225941   0.446   2.189   0.913 -0.2527  0.2587 -0.1738
 1461TIP3    H125942   0.478   2.116   0.967  2.2565  1.6702  0.3898
 1461TIP3    H225943   0.372   2.152   0.865  0.1922 -2.3198  0.9458
 1462TIP3   OH225944   5.701   4.603   2.217  0.2709 -0.0506 -0.5058
 1462TIP3    H125945   5.673   4.653   2.294 -0.3298 -0.9656 -0.1166
 1462TIP3    H225946   5.653   4.521   2.223  1.5214 -0.8394 -0.9327
 1463TIP3   OH225947   2.494   2.226   8.089 -0.1494  0.0634 -0.0503
 1463TIP3    H125948   2.558   2.211   8.019 -0.7589  0.9080 -0.8137
 1463TIP3    H225949   2.410   2.230   8.044 -0.4680  1.4206  0.6094
 1464TIP3   OH225950   2.078   4.940   2.615  0.1404 -0.1345  0.8965
 1464TIP3    H125951   2.107   4.869   2.558 -0.4551  0.2104  0.1496
 1464TIP3    H225952   2.061   5.013   2.556 -2.3309 -0.3530  1.2325
 1465TIP3   OH225953   2.081   4.901   0.019 -0.3272 -0.4774  0.2322
 1465TIP3    H125954   2.057   4.898  -0.074  2.9642 -1.3931 -0.7306
 1465TIP3    H225955   2.149   4.968   0.024 -0.2411 -0.6568  1.9189
 1466TIP3   OH225956   4.827   2.967   0.049  0.4791 -0.2063 -0.2937
 1466TIP3    H125957   4.780   3.047   0.072  1.2523  0.6923 -1.7103
 1466TIP3    H225958   4.917   2.983   0.077  0.7232 -0.4209 -0.9392
 1467TIP3   OH225959   3.686   4.443   1.386  0.0207  0.4515  0.1850
 1467TIP3    H125960   3.765   4.453   1.438 -0.0179 -0.4486  0.4323
 1467TIP3    H225961   3.713   4.463   1.297  0.8843 -1.2426  0.0292
 1468TIP3   OH225962   2.656   2.665   0.592  0.2060 -0.2228  0.6204
 1468TIP3    H125963   2.600   2.678   0.669  1.4871  0.6437  1.4318
 1468TIP3    H225964   2.666   2.570   0.586  0.9144 -0.2752  2.1568
 1469TIP3   OH225965   5.873   3.331   1.401 -0.3635  0.2713 -0.0592
 1469TIP3    H125966   5.896   3.424   1.393  0.4828  0.1076  0.3185
 1469TIP3    H225967   5.856   3.303   1.311  2.5772  0.0285 -0.6673
 1470TIP3   OH225968   0.300   0.960   0.801 -0.3988 -0.2503  0.0241
 1470TIP3    H125969   0.363   1.029   0.823 -1.0924 -0.2651  2.2444
 1470TIP3    H225970   0.214   1.002   0.811 -0.8033 -1.0123 -0.1643
 1471TIP3   OH225971   6.135   5.743   1.968 -0.5803  0.0393 -0.3913
 1471TIP3    H125972   6.136   5.706   2.056  2.1465  2.6623  0.8764
 1471TIP3    H225973   6.200   5.692   1.920 -0.9431 -0.3976 -0.4248
 1472TIP3   OH225974   4.862   1.104   3.226  0.2635  0.0323 -0.0098
 1472TIP3    H125975   4.872   1.018   3.185 -0.9324  0.0978 -0.4700
 1472TIP3    H225976   4.873   1.087   3.320 -0.4770 -0.7240 -0.0476
 1473TIP3   OH225977   1.043   1.931   0.509 -0.3975 -0.0212  0.5690
 1473TIP3    H125978   0.961   1.975   0.486 -1.6365 -3.2374 -1.8944
 1473TIP3    H225979   1.107   1.966   0.447 -0.5765  0.4640  0.6532
 1474TIP3   OH225980   2.288   1.450   8.167 -0.1420  0.1398  0.6344
 1474TIP3    H125981   2.363   1.461   8.108 -1.4308  1.3025 -0.8908
 1474TIP3    H225982   2.221   1.408   8.112 -1.6607  1.9925  0.9845
 1475TIP3   OH225983   6.378   1.666   3.347  0.5344 -0.2479  0.3255
 1475TIP3    H125984   6.452   1.656   3.287  1.0639 -0.5217  1.0106
 1475TIP3    H225985   6.322   1.591   3.328  0.6138 -0.2456  0.0663
 1476TIP3   OH225986   6.172   6.271   0.400 -0.0154 -0.5430 -0.4677
 1476TIP3    H125987   6.199   6.211   0.469  1.3516 -0.3698 -0.8169
 1476TIP3    H225988   6.158   6.215   0.323  0.4309 -0.5100 -0.5731
 1477TIP3   OH225989   5.146   1.905   3.177 -0.4318 -0.2209 -0.0726
 1477TIP3    H125990   5.133   1.991   3.217 -2.7523 -0.9822  0.9649
 1477TIP3    H225991   5.202   1.858   3.238  0.2937  0.2945 -0.3183
 1478TIP3   OH225992   5.023   6.623   2.879 -0.6593 -0.0769 -0.1022
 1478TIP3    H125993   5.020   6.543   2.931  1.1996 -0.4273 -0.4810
 1478TIP3    H225994   5.022   6.593   2.789 -0.5853  0.3641 -0.2523
 1479TIP3   OH225995   5.082   6.455   2.156 -0.0265  0.1739 -0.6443
 1479TIP3    H125996   5.145   6.474   2.226 -1.8145  0.5500  0.9360
 1479TIP3    H225997   5.135   6.418   2.086  1.9536  0.4854  0.6114
 1480TIP3   OH225998   0.504   6.471   0.042  0.2833  0.1933  0.2234
 1480TIP3    H125999   0.411   6.481   0.064  0.3950  1.5892  0.1566
 1480TIP3    H226000   0.514   6.515  -0.042  0.8684 -0.6333 -0.1546
 1481TIP3   OH226001   0.972   0.463   8.221  0.4497  0.3595 -0.0543
 1481TIP3    H126002   0.999   0.485   8.310 -0.3863 -1.3461  0.6644
 1481TIP3    H226003   0.989   0.369   8.214  0.6238  0.4889 -1.7559
 1482TIP3   OH226004   4.212   6.104   1.962  0.7470  0.0823  1.3731
 1482TIP3    H126005   4.166   6.071   2.040  0.0960 -0.6476  0.7085
 1482TIP3    H226006   4.189   6.197   1.958  1.3034  0.2724  2.3995
 1483TIP3   OH226007   6.490   2.251   0.535 -0.0897  0.2116  0.6718
 1483TIP3    H126008   6.435   2.252   0.457  1.1500 -0.1331 -0.2297
 1483TIP3    H226009   6.506   2.344   0.554 -1.2837  0.3326  1.1934
 1484TIP3   OH226010   5.902   5.431   1.515  0.0440  0.1122 -0.0962
 1484TIP3    H126011   5.905   5.416   1.421  1.6273  0.3597 -0.1131
 1484TIP3    H226012   5.985   5.476   1.535 -0.3560  0.2535  1.3744
 1485TIP3   OH226013   0.736   2.545   3.079  0.1075  0.1883 -0.3826
 1485TIP3    H126014   0.727   2.629   3.033 -0.2923  0.4221  0.1118
 1485TIP3    H226015   0.747   2.568   3.171 -1.5899 -0.3120 -0.0054
 1486TIP3   OH226016   2.687   3.911   7.931  0.3954 -0.2434 -0.1310
 1486TIP3    H126017   2.745   3.836   7.942 -0.7915 -1.2581 -0.6404
 1486TIP3    H226018   2.694   3.933   7.838 -0.1246 -0.4434 -0.2181
 1487TIP3   OH226019   0.493   3.351   2.029 -0.2172 -0.3184  0.7453
 1487TIP3    H126020   0.522   3.265   1.999  1.6107  0.2045  0.8764
 1487TIP3    H226021   0.483   3.402   1.948 -0.6876 -0.4670  0.7071
 1488TIP3   OH226022   4.353   1.868   8.432  0.0371 -0.2240  0.4606
 1488TIP3    H126023   4.395   1.790   8.395 -0.5610 -0.2774 -0.1164
 1488TIP3    H226024   4.385   1.871   8.523  1.5247 -0.0750 -0.0503
 1489TIP3   OH226025   5.307   4.548   2.932 -0.3712  0.1261  0.2714
 1489TIP3    H126026   5.393   4.507   2.942 -0.5378 -0.2682  0.1199
 1489TIP3    H226027   5.288   4.538   2.839  0.6411  2.6728 -0.2962
 1490TIP3   OH226028   1.996   2.010   2.762 -0.6873 -0.1131 -0.1552
 1490TIP3    H126029   1.994   1.959   2.843  0.6364  0.8866  0.5306
 1490TIP3    H226030   1.913   2.058   2.762 -0.7723 -0.2559  0.5105
 1491TIP3   OH226031   5.581   5.320   1.002 -0.2389  0.6253 -0.0307
 1491TIP3    H126032   5.527   5.383   0.956 -0.9730  0.7112  0.9217
 1491TIP3    H226033   5.520   5.254   1.034  0.3781  0.0412 -0.0227
 1492TIP3   OH226034   6.038   5.472   0.066  0.1256 -0.2216  0.7858
 1492TIP3    H126035   6.014   5.510  -0.018 -0.4734 -0.6007  0.7807
 1492TIP3    H226036   5.954   5.447   0.106  0.4982 -1.4138  0.8462
 1493TIP3   OH226037   1.532   6.064   0.759  0.0778 -0.7001  0.2964
 1493TIP3    H126038   1.474   6.017   0.818 -1.5769  0.2711 -0.4759
 1493TIP3    H226039   1.480   6.078   0.680  0.0469  3.1855  0.8017
 1494TIP3   OH226040   0.314   0.794   1.913  0.2330  0.6393 -0.5165
 1494TIP3    H126041   0.395   0.845   1.912 -1.1797  3.0286 -0.7838
 1494TIP3    H226042   0.275   0.813   1.998 -0.0331 -0.5490 -0.3568
 1495TIP3   OH226043   1.828   0.200   0.637 -0.3301 -0.3505 -0.5339
 1495TIP3    H126044   1.766   0.222   0.707 -0.2006 -0.5104 -0.3678
 1495TIP3    H226045   1.911   0.187   0.682  0.0657  0.8740 -0.8756
 1496TIP3   OH226046   4.976   4.055   2.204  0.3600 -0.0010  0.2080
 1496TIP3    H126047   4.901   3.996   2.197 -1.2732  1.7954  1.5349
 1496TIP3    H226048   4.960   4.122   2.137  1.1561  0.0173  0.0289
 1497TIP3   OH226049   1.547   5.053   8.289  0.1632 -0.4426  0.2049
 1497TIP3    H126050   1.550   5.149   8.285  0.5443 -0.3782  1.6336
 1497TIP3    H226051   1.457   5.033   8.314 -0.0127 -0.4801 -0.4468
 1498TIP3   OH226052   6.917   1.801   1.807 -0.1427  0.0703  0.3805
 1498TIP3    H126053   6.972   1.776   1.733 -1.7674  1.8376 -1.5501
 1498TIP3    H226054   6.847   1.737   1.807  1.4491 -1.8037  2.4476
 1499TIP3   OH226055   1.295   5.414   2.567 -0.4781 -0.1878 -0.1367
 1499TIP3    H126056   1.231   5.435   2.634  0.5370  0.8096  0.5615
 1499TIP3    H226057   1.379   5.414   2.614  0.1195 -0.6504 -1.1763
 1500TIP3   OH226058   1.164   4.342   3.698  0.1122  0.0747 -0.4903
 1500TIP3    H126059   1.082   4.302   3.727 -0.2475  1.2569  0.1840
 1500TIP3    H226060   1.140   4.431   3.671  1.2699  0.7141  0.4589
 1501TIP3   OH226061   1.093   3.245   8.353  0.4229 -0.6426 -0.3591
 1501TIP3    H126062   1.011   3.203   8.327  0.8641 -1.0591 -1.1256
 1501TIP3    H226063   1.123   3.195   8.429 -0.3432 -0.0859  0.3296
 1502TIP3   OH226064   4.756   3.067   7.996  0.2080  0.6281  0.0547
 1502TIP3    H126065   4.802   3.051   7.913  0.4007  0.3256  0.2186
 1502TIP3    H226066   4.679   3.010   7.992 -0.0479  0.9861 -0.1330
 1503TIP3   OH226067   0.888   4.724   7.780  0.1646  0.3079 -0.1550
 1503TIP3    H126068   0.895   4.808   7.734 -0.3782 -0.2543 -1.3004
 1503TIP3    H226069   0.841   4.745   7.861 -0.5228  1.0020 -0.7201
 1504TIP3   OH226070   3.672   4.960   1.976 -0.2675  0.3033  0.0349
 1504TIP3    H126071   3.681   4.993   2.066  0.2261 -2.1441  0.9443
 1504TIP3    H226072   3.761   4.950   1.945 -0.4307  0.6153 -0.5509
 1505TIP3   OH226073   2.257   5.957   1.821  0.1265  0.3273  0.1460
 1505TIP3    H126074   2.308   6.015   1.877 -1.2148 -0.3609  2.2507
 1505TIP3    H226075   2.169   5.958   1.860 -0.2540 -2.0946 -0.4824
 1506TIP3   OH226076   4.730   2.127   2.602  0.0068 -0.0026 -0.1161
 1506TIP3    H126077   4.743   2.120   2.697 -1.1087 -1.7139 -0.0483
 1506TIP3    H226078   4.801   2.077   2.564  0.5799  0.8665 -0.2047
 1507TIP3   OH226079   3.549   0.156   1.568 -0.4284 -0.1970  0.0258
 1507TIP3    H126080   3.487   0.132   1.498  0.9678 -1.5258 -0.8119
 1507TIP3    H226081   3.594   0.234   1.535 -0.8939  0.1427  0.1768
 1508TIP3   OH226082   2.573   2.052   1.450 -0.2989 -0.2165 -0.0253
 1508TIP3    H126083   2.594   2.078   1.540  1.0184  0.9794 -0.6460
 1508TIP3    H226084   2.657   2.042   1.407 -0.9109 -0.8671 -1.1147
 1509TIP3   OH226085   3.687   6.343   8.320  0.0294  0.5811 -0.1543
 1509TIP3    H126086   3.716   6.410   8.259  0.0642  1.1329  0.4575
 1509TIP3    H226087   3.601   6.317   8.288 -0.4832  1.7304  0.2408
 1510TIP3   OH226088   6.186   1.695   3.677 -0.0593 -0.2106 -0.2369
 1510TIP3    H126089   6.231   1.768   3.634 -1.0731  1.4733  1.4266
 1510TIP3    H226090   6.251   1.659   3.736  0.0910  0.1274 -0.1899
 1511TIP3   OH226091   0.807   4.164   1.726 -0.4443  0.5941  0.2999
 1511TIP3    H126092   0.898   4.158   1.754 -0.4504  0.3479  0.2716
 1511TIP3    H226093   0.769   4.232   1.782 -0.6273 -0.3608  1.3876
 1512TIP3   OH226094   6.076   1.369   1.777 -0.2756 -0.2463  0.0761
 1512TIP3    H126095   6.006   1.324   1.824  0.8538 -1.9600  0.1957
 1512TIP3    H226096   6.146   1.379   1.842 -0.5881  1.9999  0.1345
 1513TIP3   OH226097   0.013   6.454   1.923 -0.1457 -0.8386  0.4987
 1513TIP3    H126098   0.091   6.507   1.904 -2.2311  1.9514 -1.0987
 1513TIP3    H226099  -0.000   6.463   2.017  0.1730  0.6676  0.4263
 1514TIP3   OH226100   2.095   5.600   2.570  0.0267 -0.1817 -0.2713
 1514TIP3    H126101   2.143   5.530   2.614  0.4115 -0.0473 -0.4774
 1514TIP3    H226102   2.009   5.600   2.613 -1.6357 -3.6584 -3.0301
 1515TIP3   OH226103   0.141   4.564   0.463  0.2656  0.4254 -0.0662
 1515TIP3    H126104   0.078   4.537   0.397 -0.2890  1.2569  0.1072
 1515TIP3    H226105   0.143   4.659   0.457  0.7668  0.4666  0.6090
 1516TIP3   OH226106   3.125   5.227   0.754 -0.0245  0.1924  0.8550
 1516TIP3    H126107   3.045   5.174   0.760  0.1346 -0.3501 -0.9169
 1516TIP3    H226108   3.095   5.310   0.716  0.5060 -0.9607 -2.4025
 1517TIP3   OH226109   2.517   1.279   8.391  0.3388  0.4228 -0.5222
 1517TIP3    H126110   2.456   1.344   8.425 -1.2734 -0.7884 -1.0082
 1517TIP3    H226111   2.467   1.229   8.327  0.9235 -2.4739  1.1162
 1518TIP3   OH226112   3.638   3.994   1.975 -0.0366  0.2045  0.2532
 1518TIP3    H126113   3.611   3.917   2.026 -0.4091 -0.5081 -0.9758
 1518TIP3    H226114   3.733   3.985   1.968 -0.0404  0.0320  0.4010
 1519TIP3   OH226115   5.767   2.400   1.598 -0.2094  0.0133 -0.6396
 1519TIP3    H126116   5.828   2.467   1.566  0.3667 -0.6395 -0.9337
 1519TIP3    H226117   5.790   2.322   1.549 -1.1648 -0.2964 -0.6020
 1520TIP3   OH226118   3.386   1.674   3.042 -0.3265 -0.6782 -0.2726
 1520TIP3    H126119   3.449   1.734   3.002 -0.8588 -0.2319 -0.4474
 1520TIP3    H226120   3.423   1.655   3.128  0.6133 -1.3075 -0.8009
 1521TIP3   OH226121   2.047   5.266   0.570 -0.7131 -0.2859 -0.7057
 1521TIP3    H126122   2.096   5.277   0.489  0.5686  1.4796  0.2393
 1521TIP3    H226123   1.955   5.269   0.543 -0.3919 -2.6166 -2.3852
 1522TIP3   OH226124   6.076   0.059   3.048  0.1382 -0.2995  0.5970
 1522TIP3    H126125   6.079  -0.027   3.090  2.4223 -0.7001 -0.2556
 1522TIP3    H226126   6.079   0.041   2.954  2.1810  0.6941  0.4200
 1523TIP3   OH226127   5.501   2.193   1.430 -0.1655  0.2695  0.2823
 1523TIP3    H126128   5.455   2.129   1.375  0.6082 -0.4229  0.4120
 1523TIP3    H226129   5.484   2.277   1.388 -0.5702 -0.1119 -0.3412
 1524TIP3   OH226130   2.370   5.507   3.044  0.4636 -0.1205  0.0230
 1524TIP3    H126131   2.304   5.473   2.983  0.2423 -0.6146  0.5327
 1524TIP3    H226132   2.332   5.587   3.080  0.3766 -0.1066 -0.0990
 1525TIP3   OH226133   0.545   4.564   0.660  0.3268  0.2380 -0.6177
 1525TIP3    H126134   0.581   4.594   0.577  1.5590 -0.7124 -0.4539
 1525TIP3    H226135   0.452   4.553   0.643  0.3018  1.5203 -1.4264
 1526TIP3   OH226136   6.510   3.058   1.404  0.5975 -0.3472 -0.5041
 1526TIP3    H126137   6.565   3.041   1.481 -2.0339  0.5952  1.7527
 1526TIP3    H226138   6.502   2.973   1.361  1.6521 -1.0289  0.5892
 1527TIP3   OH226139   4.604   5.466   0.330  0.0100 -0.2823  0.1293
 1527TIP3    H126140   4.593   5.482   0.236 -0.7207  1.6599  0.5174
 1527TIP3    H226141   4.669   5.530   0.358  1.2296 -1.7138  0.7553
 1528TIP3   OH226142   0.205   6.152   7.816 -0.4712 -0.0743 -0.2087
 1528TIP3    H126143   0.235   6.230   7.862 -0.7817  1.3088 -2.2254
 1528TIP3    H226144   0.218   6.172   7.723  0.7535 -2.9851 -0.7729
 1529TIP3   OH226145   5.894   5.470   3.095  0.4134 -0.0085 -0.0429
 1529TIP3    H126146   5.862   5.492   3.008 -4.8113 -2.7286  0.7742
 1529TIP3    H226147   5.954   5.396   3.081  0.6001  0.3734 -1.3580
 1530TIP3   OH226148   4.212   4.743   2.424  0.3018 -0.1227  0.6442
 1530TIP3    H126149   4.217   4.838   2.409 -0.1679  0.1231  1.9345
 1530TIP3    H226150   4.256   4.705   2.348 -0.0835  1.1052 -0.2379
 1531TIP3   OH226151   2.881   1.895   1.810 -0.1288  0.9536  0.2840
 1531TIP3    H126152   2.804   1.867   1.760  2.2886 -1.9567 -2.2517
 1531TIP3    H226153   2.851   1.899   1.901 -3.3630  0.6308 -0.6446
 1532TIP3   OH226154   6.624   5.169   7.272 -0.6044 -0.0480 -0.0499
 1532TIP3    H126155   6.688   5.127   7.330 -0.1140  0.9334  0.1436
 1532TIP3    H226156   6.591   5.098   7.217  1.2668 -0.4501 -0.7340
 1533TIP3   OH226157   3.420   2.230   2.546  0.0504 -0.1518  0.0761
 1533TIP3    H126158   3.462   2.215   2.631 -0.6582 -1.6304  0.1990
 1533TIP3    H226159   3.395   2.322   2.548  0.2895 -0.0914  1.3748
 1534TIP3   OH226160   2.203   2.640   0.853  0.1785  0.0165 -0.5016
 1534TIP3    H126161   2.207   2.679   0.940 -0.0619  1.6787 -1.1813
 1534TIP3    H226162   2.269   2.688   0.802 -0.0464 -0.5623 -1.3692
 1535TIP3   OH226163   4.036   0.268   1.494 -0.2895 -0.1839 -0.0678
 1535TIP3    H126164   4.019   0.322   1.417 -1.1218 -0.8830 -0.3911
 1535TIP3    H226165   3.968   0.295   1.556  0.6369  0.6862  0.6093
 1536TIP3   OH226166   3.649   2.960   3.169 -0.3176  0.0694  0.2105
 1536TIP3    H126167   3.686   2.871   3.167 -0.6402 -0.0551 -0.3304
 1536TIP3    H226168   3.580   2.955   3.234 -2.0497 -0.7785 -1.5847
 1537TIP3   OH226169   5.285   6.092   3.597  0.3852 -0.2248 -0.1001
 1537TIP3    H126170   5.219   6.037   3.639  1.1199 -0.8193  0.3081
 1537TIP3    H226171   5.242   6.176   3.585 -0.8726 -0.9449 -0.9939
 1538TIP3   OH226172   3.798   1.506   3.522 -0.1642  0.6165 -0.2222
 1538TIP3    H126173   3.847   1.476   3.446  0.4761 -1.3616  0.9206
 1538TIP3    H226174   3.864   1.527   3.587 -0.7181 -2.2129  1.3894
 1539TIP3   OH226175   5.123   2.952   1.727  0.6498 -0.4306 -0.3722
 1539TIP3    H126176   5.116   3.042   1.694 -2.0686  0.1863  1.5641
 1539TIP3    H226177   5.210   2.949   1.768  1.9389  0.3562 -2.7871
 1540TIP3   OH226178   6.428   2.329   1.780 -0.1292  0.4688  0.6535
 1540TIP3    H126179   6.372   2.385   1.726 -0.1136  0.4225  0.5891
 1540TIP3    H226180   6.467   2.388   1.844 -0.3558  0.4799  0.7808
 1541TIP3   OH226181   6.685   3.822   3.023 -0.1526  0.3691  0.2014
 1541TIP3    H126182   6.609   3.860   2.978  0.5123  1.0962 -0.3428
 1541TIP3    H226183   6.684   3.861   3.110 -1.2666 -0.7993  0.7281
 1542TIP3   OH226184   2.787   0.311   8.229  0.1568  0.3864  0.2303
 1542TIP3    H126185   2.820   0.223   8.213 -1.9323 -0.2084 -1.2710
 1542TIP3    H226186   2.863   0.360   8.261  2.5597 -0.8016 -3.0882
 1543TIP3   OH226187   4.420   6.110   0.744  0.7329 -0.3789  0.3718
 1543TIP3    H126188   4.420   6.015   0.733  1.3977 -0.2651 -0.7343
 1543TIP3    H226189   4.329   6.132   0.761 -0.0542 -0.8792 -2.6540
 1544TIP3   OH226190   3.563   4.413   3.007  0.3128  0.6251  0.3172
 1544TIP3    H126191   3.535   4.359   3.081  0.7879 -0.2145 -0.0993
 1544TIP3    H226192   3.585   4.497   3.046 -2.5135  1.2658  0.6865
 1545TIP3   OH226193   2.026   2.924   0.332  0.0487  0.3578 -0.3981
 1545TIP3    H126194   2.103   2.939   0.277  0.3191 -0.5113 -0.2643
 1545TIP3    H226195   1.971   3.001   0.317  0.8145  0.8553 -0.7050
 1546TIP3   OH226196   4.545   6.556   0.385 -0.5855  0.1687 -0.2487
 1546TIP3    H126197   4.632   6.596   0.387 -0.7429  0.5383 -0.5606
 1546TIP3    H226198   4.529   6.527   0.475  0.3121 -0.9016 -0.4002
 1547TIP3   OH226199   2.816   4.969   1.317 -0.1835  0.9940  0.3843
 1547TIP3    H126200   2.846   4.987   1.228 -0.3304  2.0844  0.5383
 1547TIP3    H226201   2.896   4.973   1.370  0.2271 -1.6044  0.0743
 1548TIP3   OH226202   1.369   3.750   1.692 -0.3490  0.1440  0.1458
 1548TIP3    H126203   1.447   3.776   1.642 -1.4195  1.0839 -1.1122
 1548TIP3    H226204   1.346   3.829   1.742  0.8571 -0.8611  2.4020
 1549TIP3   OH226205   1.968   6.474   0.231 -0.0837  0.1628 -0.3271
 1549TIP3    H126206   2.034   6.405   0.238  0.0547  0.3121 -0.1709
 1549TIP3    H226207   1.986   6.534   0.304 -0.9691 -0.2855  0.2851
 1550TIP3   OH226208   2.681   1.619   1.395 -0.5605 -0.5201  0.3825
 1550TIP3    H126209   2.749   1.682   1.369 -0.5574 -0.9954 -0.8442
 1550TIP3    H226210   2.610   1.633   1.333 -0.9857 -1.0182  0.7476
 1551TIP3   OH226211   4.082   6.030   0.258 -0.7930  0.1206 -0.3658
 1551TIP3    H126212   4.148   6.099   0.258 -0.4842 -0.0803  2.2089
 1551TIP3    H226213   4.108   5.972   0.186  2.0447 -0.0752  0.6855
 1552TIP3   OH226214   6.905   0.862   3.061 -0.5785  0.3298 -0.3269
 1552TIP3    H126215   6.927   0.800   3.131  2.0009 -0.3346 -1.5982
 1552TIP3    H226216   6.962   0.937   3.077  0.3254 -0.0004 -1.9219
 1553TIP3   OH226217   3.997   1.976   2.022 -1.0895  0.8190  0.4781
 1553TIP3    H126218   4.016   2.001   1.932 -1.3533 -0.5768  0.0230
 1553TIP3    H226219   4.045   1.895   2.037 -1.3011  0.8571  1.4914
 1554TIP3   OH226220   6.429   6.136   1.203 -0.7583  0.5342 -0.0814
 1554TIP3    H126221   6.495   6.206   1.211 -2.3997  2.2344 -0.6215
 1554TIP3    H226222   6.465   6.077   1.137  1.4716 -0.1317  1.6127
 1555TIP3   OH226223   4.266   1.249   0.438 -0.9649 -0.0816 -0.0893
 1555TIP3    H126224   4.345   1.281   0.393 -0.3022 -1.1093  0.3054
 1555TIP3    H226225   4.275   1.282   0.527 -0.6770 -0.6798  0.1091
 1556TIP3   OH226226   3.816   1.177   0.708 -0.8584  0.8499 -0.4016
 1556TIP3    H126227   3.813   1.126   0.789 -2.0579  1.0781 -0.2855
 1556TIP3    H226228   3.847   1.114   0.642 -1.4879  0.1995 -0.0920
 1557TIP3   OH226229   0.580   0.176   3.080 -0.2557 -0.1124 -0.1162
 1557TIP3    H126230   0.637   0.246   3.108  0.9337 -1.3689  0.7233
 1557TIP3    H226231   0.499   0.189   3.129  0.1652  0.3243  0.4652
 1558TIP3   OH226232   3.638   6.836   1.554 -0.2877 -0.1623 -0.0131
 1558TIP3    H126233   3.599   6.923   1.558  0.6362  0.2287  0.5960
 1558TIP3    H226234   3.653   6.820   1.461 -0.0776  0.4917 -0.0901
 1559TIP3   OH226235   2.673   0.916   0.557  0.0023 -0.3573 -0.4775
 1559TIP3    H126236   2.735   0.986   0.537 -1.5407  0.9743 -0.7165
 1559TIP3    H226237   2.704   0.879   0.639  0.4604  1.0438 -0.0012
 1560TIP3   OH226238   0.018   0.953   1.107 -0.0808  0.3733  0.4684
 1560TIP3    H126239  -0.013   0.871   1.069  0.8652  0.3578 -0.3172
 1560TIP3    H226240   0.043   0.930   1.197  0.0003 -0.1554  0.3122
 1561TIP3   OH226241   6.650   2.285   3.592  0.1142 -0.1520 -0.0084
 1561TIP3    H126242   6.602   2.361   3.624  0.9700  0.4918 -0.1980
 1561TIP3    H226243   6.586   2.214   3.589 -1.1666  1.0233 -1.6249
 1562TIP3   OH226244   5.149   5.070   1.381 -0.1341 -0.3964  0.3942
 1562TIP3    H126245   5.190   5.154   1.403  0.5049 -0.5987  0.0018
 1562TIP3    H226246   5.056   5.089   1.376  0.1741  0.8241 -1.9894
 1563TIP3   OH226247   6.045   5.794   2.675  0.1356  0.1892 -0.4955
 1563TIP3    H126248   6.022   5.763   2.762 -0.2853 -0.2955 -0.7700
 1563TIP3    H226249   6.117   5.856   2.689 -0.3873  0.6414  0.2544
 1564TIP3   OH226250   3.918   4.546   3.063  0.0044 -0.4599  0.8815
 1564TIP3    H126251   3.883   4.611   3.124  0.6081  0.3037  0.4387
 1564TIP3    H226252   3.882   4.463   3.093 -0.0146 -0.0522  2.0478
 1565TIP3   OH226253   2.892   5.819   1.246  0.3189  0.0744  0.1422
 1565TIP3    H126254   2.905   5.902   1.200  0.5640  0.3329  0.6796
 1565TIP3    H226255   2.855   5.761   1.179 -0.2109  0.7231 -0.1443
 1566TIP3   OH226256   6.615   6.230   1.724 -0.1605  0.7356  0.3976
 1566TIP3    H126257   6.605   6.313   1.678  0.7657  1.2198  1.0460
 1566TIP3    H226258   6.700   6.236   1.767  0.4700 -1.0326 -0.5022
 1567TIP3   OH226259   4.531   6.794   8.361  0.5205 -0.5664  0.5516
 1567TIP3    H126260   4.512   6.723   8.422  0.2180 -0.1104  0.9873
 1567TIP3    H226261   4.623   6.816   8.378  1.0845 -1.8042 -0.5768
 1568TIP3   OH226262   2.327   5.955   1.329  0.1538  0.9088 -0.3288
 1568TIP3    H126263   2.334   6.014   1.405 -0.0192  0.0662  0.3615
 1568TIP3    H226264   2.400   5.894   1.339 -0.0007  0.6551 -0.7148
 1569TIP3   OH226265   2.697   4.018   1.208  0.0970  0.6327  0.0201
 1569TIP3    H126266   2.644   3.948   1.248 -1.0697  2.2255  1.3982
 1569TIP3    H226267   2.634   4.078   1.169  1.1414  0.2891 -2.3714
 1570TIP3   OH226268   6.650   6.575   3.317 -0.5643 -0.2080  0.4906
 1570TIP3    H126269   6.664   6.480   3.309 -0.8305 -0.3530  1.6304
 1570TIP3    H226270   6.669   6.595   3.408  0.9191  1.1119 -0.0734
 1571TIP3   OH226271   6.728   5.999   1.617  0.4239  0.1216  0.4797
 1571TIP3    H126272   6.780   6.009   1.537  1.6168  0.1552  1.2254
 1571TIP3    H226273   6.687   6.084   1.630  1.2881  0.5286  0.6027
 1572TIP3   OH226274   4.001   3.528   8.405  0.1943  0.1011 -0.0389
 1572TIP3    H126275   3.999   3.623   8.403  0.7991  0.1780  1.5502
 1572TIP3    H226276   3.986   3.501   8.314  0.0004  1.6965 -0.4979
 1573TIP3   OH226277   2.282   2.676   2.512  0.3401 -0.3480 -0.1840
 1573TIP3    H126278   2.274   2.604   2.574  0.0226  0.6544  0.9876
 1573TIP3    H226279   2.234   2.748   2.553  2.6035  1.2565 -0.1608
 1574TIP3   OH226280   4.185   1.614   1.610  0.7640 -0.3631 -0.2126
 1574TIP3    H126281   4.233   1.561   1.546 -0.7592 -0.9665 -0.9159
 1574TIP3    H226282   4.225   1.701   1.604  1.5130 -0.7436 -1.0361
 1575TIP3   OH226283   5.963   1.958   0.118  0.0567  0.4903  0.1205
 1575TIP3    H126284   6.010   2.013   0.056 -1.6213  0.1699 -1.5117
 1575TIP3    H226285   5.988   1.868   0.094 -0.5537  0.3657 -0.0545
 1576TIP3   OH226286   3.125   2.241   1.000 -0.1057  0.1775 -0.1169
 1576TIP3    H126287   3.085   2.216   0.917 -0.4618 -0.4415  0.2310
 1576TIP3    H226288   3.129   2.336   0.998  0.7085  0.1351 -1.2206
 1577TIP3   OH226289   0.907   4.373   2.035  0.1419  0.5838 -0.3195
 1577TIP3    H126290   0.914   4.284   2.069 -0.4787  0.5464 -0.2879
 1577TIP3    H226291   0.827   4.373   1.983  1.4462  0.4440 -2.4252
 1578TIP3   OH226292   4.250   3.781   0.382 -0.3324 -0.7194  0.3270
 1578TIP3    H126293   4.334   3.735   0.378  1.0266  1.5772  0.5984
 1578TIP3    H226294   4.219   3.783   0.291  1.5010  1.0308 -0.3482
 1579TIP3   OH226295   1.597   5.025   2.066 -0.1102 -0.4352 -0.8179
 1579TIP3    H126296   1.673   4.979   2.032 -0.6768 -2.1247  0.0550
 1579TIP3    H226297   1.528   4.958   2.069 -0.9151  0.4087  0.7277
 1580TIP3   OH226298   1.126   2.290   1.039 -0.4534 -0.6733  0.0426
 1580TIP3    H126299   1.206   2.338   1.062 -0.1018 -0.5033 -1.4184
 1580TIP3    H226300   1.106   2.319   0.950 -0.0727 -3.3724 -1.0277
 1581TIP3   OH226301   2.759   6.849   0.856 -0.1149  0.3710  0.4947
 1581TIP3    H126302   2.790   6.822   0.770 -2.8158 -0.0363 -0.4399
 1581TIP3    H226303   2.770   6.944   0.857  1.4028  0.2180  0.3727
 1582TIP3   OH226304   2.489   0.383   1.144 -0.3389  1.0031  0.1204
 1582TIP3    H126305   2.492   0.290   1.122 -1.0400  0.9897  0.0593
 1582TIP3    H226306   2.396   0.401   1.159  0.0317  1.0192  2.9485
 1583TIP3   OH226307   3.739   3.215   0.067  0.0674 -0.2708  0.1332
 1583TIP3    H126308   3.667   3.265   0.105  0.6523  0.0821  0.8055
 1583TIP3    H226309   3.816   3.271   0.078  0.9125 -1.6329  1.7097
 1584TIP3   OH226310   5.494   5.729   8.455  0.3643 -0.6366 -0.2247
 1584TIP3    H126311   5.476   5.721   8.549  0.1647 -0.2316 -0.2294
 1584TIP3    H226312   5.540   5.648   8.433  1.1276 -0.3828  0.3905
 1585TIP3   OH226313   5.261   1.728   0.437 -0.2665  0.2742 -0.0622
 1585TIP3    H126314   5.222   1.641   0.435 -0.9081  0.5607 -0.0147
 1585TIP3    H226315   5.191   1.786   0.466  0.5129  0.6245  1.2142
 1586TIP3   OH226316   1.819   2.102   8.450  0.1086 -0.0529 -0.2130
 1586TIP3    H126317   1.849   2.061   8.531  1.1463 -0.1507 -0.6200
 1586TIP3    H226318   1.772   2.180   8.478 -0.0304 -0.3890  0.5024
 1587TIP3   OH226319   0.976   5.829   0.475 -0.2778 -0.0927 -0.0135
 1587TIP3    H126320   0.918   5.759   0.445 -0.5222 -0.0465  0.3306
 1587TIP3    H226321   1.062   5.808   0.439 -0.2630 -0.7840  0.4143
 1588TIP3   OH226322   4.215   0.328   2.521  0.1626  0.1567 -0.7689
 1588TIP3    H126323   4.171   0.268   2.460 -1.1065  0.3442 -0.0664
 1588TIP3    H226324   4.271   0.271   2.574 -1.4348 -0.5108  0.2493
 1589TIP3   OH226325   6.188   0.785   8.423  0.0289 -0.0139 -0.7412
 1589TIP3    H126326   6.142   0.869   8.422  1.9938  1.1991 -3.6124
 1589TIP3    H226327   6.154   0.738   8.347  0.5976 -0.8677 -0.4853
 1590TIP3   OH226328   5.491   6.173   2.481 -0.2306 -0.2644  0.0946
 1590TIP3    H126329   5.460   6.115   2.551 -1.5317 -1.3554 -1.3319
 1590TIP3    H226330   5.523   6.114   2.413  0.7403  0.7734 -0.3810
 1591TIP3   OH226331   2.489   2.716   0.815  0.4465 -0.8073 -0.0206
 1591TIP3    H126332   2.522   2.714   0.905 -0.5435 -2.9639  0.3425
 1591TIP3    H226333   2.435   2.795   0.812  1.9116  0.2881  0.6968
 1592TIP3   OH226334   2.368   0.305   8.075 -0.6645  0.0368 -0.4767
 1592TIP3    H126335   2.446   0.360   8.063 -0.5407 -0.2648 -1.0979
 1592TIP3    H226336   2.387   0.225   8.026 -1.2560 -0.1479 -0.4112
 1593TIP3   OH226337   6.195   6.178   1.365 -0.6721  0.4348  0.6786
 1593TIP3    H126338   6.150   6.230   1.299  0.4905 -1.4317 -1.7426
 1593TIP3    H226339   6.288   6.185   1.343 -0.2334 -0.2143  2.1546
 1594TIP3   OH226340   2.507   4.149   7.604 -0.1832 -0.4195 -0.1936
 1594TIP3    H126341   2.514   4.236   7.643  1.0505  0.4550 -2.2289
 1594TIP3    H226342   2.580   4.099   7.641 -1.1187 -0.7483  1.2679
 1595TIP3   OH226343   2.660   0.458   1.335 -0.4916 -0.6186 -0.0170
 1595TIP3    H126344   2.591   0.460   1.269  0.3040 -1.5747 -0.9042
 1595TIP3    H226345   2.621   0.413   1.410 -0.6841 -1.6136 -0.7041
 1596TIP3   OH226346   3.415   1.277   0.807 -0.0317 -0.1582 -0.6006
 1596TIP3    H126347   3.481   1.277   0.738 -0.0749 -0.0603 -0.6428
 1596TIP3    H226348   3.365   1.197   0.792 -0.5279  0.2411 -1.1550
 1597TIP3   OH226349   0.539   4.346   1.087 -0.2660 -0.1509 -0.2515
 1597TIP3    H126350   0.549   4.404   1.162  0.2388 -0.5747  0.0140
 1597TIP3    H226351   0.497   4.268   1.122  1.2998 -0.9556 -0.0970
 1598TIP3   OH226352   1.206   0.283   0.446  0.1075 -0.1439 -0.0677
 1598TIP3    H126353   1.182   0.375   0.442 -0.5258 -0.3531 -2.8457
 1598TIP3    H226354   1.136   0.242   0.497 -0.1960  0.7367  0.2377
 1599TIP3   OH226355   2.465   3.979   1.005  0.0591 -0.2355  0.3807
 1599TIP3    H126356   2.383   3.986   0.955  0.7689  1.1702 -0.6723
 1599TIP3    H226357   2.440   3.935   1.086 -1.3881 -1.4557 -0.6599
 1600TIP3   OH226358   6.324   4.702   1.289  0.3110  0.8182  0.5640
 1600TIP3    H126359   6.374   4.737   1.216  0.1671 -1.6006 -0.7776
 1600TIP3    H226360   6.232   4.720   1.266  0.2338 -0.4078 -0.1513
 1601TIP3   OH226361   4.440   1.771   3.996  0.4631 -0.6882 -0.3457
 1601TIP3    H126362   4.348   1.769   3.968  0.1085 -2.3388  0.7844
 1601TIP3    H226363   4.453   1.860   4.027 -1.0183 -0.6387  0.2252
 1602TIP3   OH226364   6.254   4.753   3.336  0.1496  0.4778  1.2355
 1602TIP3    H126365   6.283   4.824   3.393 -1.1839  1.9112  0.1923
 1602TIP3    H226366   6.159   4.750   3.348 -0.0165  0.0680 -0.0515
 1603TIP3   OH226367   0.968   2.251   0.346 -0.0048 -0.3890  0.5667
 1603TIP3    H126368   0.880   2.246   0.381 -0.9062 -0.7778 -1.5665
 1603TIP3    H226369   0.976   2.342   0.316  1.0207  0.1455  2.3502
 1604TIP3   OH226370   1.353   5.972   1.509 -0.0827 -0.1535  0.3816
 1604TIP3    H126371   1.441   6.008   1.502 -0.1080 -0.3123 -1.1938
 1604TIP3    H226372   1.366   5.877   1.505 -0.3991 -0.1587 -1.6356
 1605TIP3   OH226373   1.343   4.989   0.940  0.1840  0.5870  0.4111
 1605TIP3    H126374   1.279   4.926   0.908  0.6000  0.1322  0.4733
 1605TIP3    H226375   1.407   4.997   0.870  1.1329 -0.4594  1.1308
 1606TIP3   OH226376   4.324   6.161   2.305 -0.6826 -0.1459 -0.1022
 1606TIP3    H126377   4.348   6.139   2.215  0.1679 -0.2606  0.1449
 1606TIP3    H226378   4.250   6.222   2.296  0.4604  1.1892 -0.9270
 1607TIP3   OH226379   0.144   3.250   7.831  0.2122 -0.1255  0.0763
 1607TIP3    H126380   0.103   3.258   7.745 -3.3285 -1.1532  1.4595
 1607TIP3    H226381   0.198   3.171   7.825 -2.0688 -1.7428 -0.5668
 1608TIP3   OH226382   1.043   4.811   2.511  0.1594 -0.2001  0.0103
 1608TIP3    H126383   1.109   4.794   2.579  0.4195 -0.8405 -0.3967
 1608TIP3    H226384   0.978   4.742   2.523 -0.2990  0.2604  0.2245
 1609TIP3   OH226385   5.688   0.150   0.354 -0.3994 -0.0387  0.7791
 1609TIP3    H126386   5.686   0.219   0.420  0.7102  1.6583 -0.8775
 1609TIP3    H226387   5.702   0.069   0.404 -1.8114  0.8578  2.7773
 1610TIP3   OH226388   1.493   3.657   8.098 -0.1908 -0.0063  0.4291
 1610TIP3    H126389   1.551   3.733   8.100 -0.0768 -0.0280 -0.8056
 1610TIP3    H226390   1.518   3.611   8.018 -0.5280 -1.1359  0.9570
 1611TIP3   OH226391   3.301   4.623   2.516  0.4079 -0.1453 -0.4027
 1611TIP3    H126392   3.345   4.697   2.558  0.4439 -0.4916  0.1699
 1611TIP3    H226393   3.238   4.664   2.456 -0.1661  0.3608  0.5132
 1612TIP3   OH226394   0.193   1.225   2.093 -0.7566  0.3738  0.0632
 1612TIP3    H126395   0.115   1.172   2.107 -1.6128  1.2956 -1.0560
 1612TIP3    H226396   0.261   1.161   2.069 -1.5182 -0.3166 -0.3100
 1613TIP3   OH226397   4.148   1.197   8.038  0.1938 -0.2654  0.0292
 1613TIP3    H126398   4.115   1.255   8.106 -0.8121 -0.1600 -0.5306
 1613TIP3    H226399   4.198   1.131   8.084 -0.0128  0.1190  0.8145
 1614TIP3   OH226400   2.275   5.792   2.341 -0.1022  0.3977 -0.3978
 1614TIP3    H126401   2.224   5.830   2.269  0.2727 -0.5512 -1.1873
 1614TIP3    H226402   2.230   5.709   2.361  0.3122  0.2262 -0.1540
 1615TIP3   OH226403   5.634   4.954   0.432 -0.6925  0.1820  0.6714
 1615TIP3    H126404   5.718   4.913   0.412 -1.2733 -2.4830  2.9651
 1615TIP3    H226405   5.656   5.043   0.457  1.8172 -0.9275  3.0043
 1616TIP3   OH226406   3.765   5.462   3.355  0.1903  0.5083 -0.5726
 1616TIP3    H126407   3.697   5.397   3.374 -0.4338  1.4664  0.5684
 1616TIP3    H226408   3.721   5.546   3.362  1.4841  1.1520  0.1961
 1617TIP3   OH226409   4.764   3.508   2.448  0.0983 -0.1291 -0.3480
 1617TIP3    H126410   4.669   3.503   2.457  0.0247  1.1165 -0.2615
 1617TIP3    H226411   4.783   3.601   2.445  1.3813 -0.3517  0.2302
 1618TIP3   OH226412   3.402   5.630   1.307 -0.0865  0.0200 -0.2052
 1618TIP3    H126413   3.478   5.646   1.249 -1.3433  0.5815 -1.7854
 1618TIP3    H226414   3.408   5.699   1.373  0.8357 -0.0066 -0.2495
 1619TIP3   OH226415   2.570   5.643   1.175  0.5324  0.2278  0.5777
 1619TIP3    H126416   2.477   5.635   1.155  0.9705 -0.9167 -1.1693
 1619TIP3    H226417   2.578   5.610   1.265 -0.6083 -0.5459  0.4052
 1620TIP3   OH226418   6.922   0.710   1.668  0.2043  0.1988  0.3700
 1620TIP3    H126419   6.872   0.777   1.621  0.8406 -0.1811 -0.8905
 1620TIP3    H226420   6.904   0.629   1.622  1.8181  0.0187 -0.0238
 1621TIP3   OH226421   4.531   3.144   0.612  0.9869 -0.1076 -0.2187
 1621TIP3    H126422   4.468   3.074   0.594  0.4628  0.4437 -0.5621
 1621TIP3    H226423   4.532   3.152   0.707  0.9883 -0.5237 -0.1808
 1622TIP3   OH226424   0.310   4.187   1.103  0.1139  0.0715  0.0528
 1622TIP3    H126425   0.229   4.160   1.146 -0.7127 -1.6692 -2.3861
 1622TIP3    H226426   0.376   4.126   1.134 -0.7648 -2.0495 -1.9348
 1623TIP3   OH226427   2.856   3.037   8.389  0.0036 -0.3371  0.0964
 1623TIP3    H126428   2.876   3.120   8.347  0.7979 -0.2463  0.6345
 1623TIP3    H226429   2.904   3.040   8.472 -0.5494 -1.0224  0.4551
 1624TIP3   OH226430   0.362   4.008   3.261 -0.1170 -0.9549  0.0457
 1624TIP3    H126431   0.397   3.975   3.344 -0.3425  3.0658  1.9424
 1624TIP3    H226432   0.271   3.977   3.260 -0.1325 -1.0308  1.3663
 1625TIP3   OH226433   1.752   6.264   0.423  0.5239 -0.1518  0.7241
 1625TIP3    H126434   1.724   6.348   0.386  0.7788 -0.2460  0.3191
 1625TIP3    H226435   1.737   6.274   0.517 -0.0777  0.1053  0.6057
 1626TIP3   OH226436   2.675   3.231   1.894  0.0087  1.0142  0.2248
 1626TIP3    H126437   2.770   3.228   1.887  0.5504 -3.8899  3.9762
 1626TIP3    H226438   2.644   3.168   1.830 -0.8047  2.5225 -0.9180
 1627TIP3   OH226439   4.057   2.602   7.486 -0.2837 -0.0475 -0.5674
 1627TIP3    H126440   4.118   2.582   7.415 -1.6946 -1.4777 -1.4505
 1627TIP3    H226441   4.056   2.523   7.539  0.1444  0.7212  0.6231
 1628TIP3   OH226442   6.293   6.739   1.521  0.1335  0.1831  0.9122
 1628TIP3    H126443   6.323   6.649   1.533 -1.8389 -0.6487  0.0043
 1628TIP3    H226444   6.352   6.776   1.455  0.7301 -0.5558  1.0205
 1629TIP3   OH226445   1.279   1.238   1.349 -0.3982  0.0210  0.4301
 1629TIP3    H126446   1.235   1.322   1.350 -0.8188 -0.0689 -2.3061
 1629TIP3    H226447   1.319   1.232   1.262  0.9184 -1.9583  1.0822
 1630TIP3   OH226448   3.959   3.112   1.233  0.2399  0.2681  0.3057
 1630TIP3    H126449   4.042   3.137   1.272  0.7578 -0.1438 -0.5101
 1630TIP3    H226450   3.952   3.165   1.154 -1.3680  1.9815  1.5151
 1631TIP3   OH226451   4.969   1.104   0.015  0.5202 -0.2111 -0.4832
 1631TIP3    H126452   4.997   1.117  -0.075  1.0385  0.4285 -0.2323
 1631TIP3    H226453   4.893   1.161   0.026 -0.6760 -1.6398 -1.0409
 1632TIP3   OH226454   2.784   0.827   8.433  0.4027  0.4141  0.0109
 1632TIP3    H126455   2.860   0.787   8.477  1.3369  0.5005 -1.4706
 1632TIP3    H226456   2.790   0.798   8.342 -0.8129  1.2138 -0.3522
 1633TIP3   OH226457   0.822   1.953   3.485  0.1851  0.7724  0.3302
 1633TIP3    H126458   0.799   2.046   3.492  0.1011  0.7048  1.1501
 1633TIP3    H226459   0.916   1.952   3.469  0.0795  1.0063 -0.3291
 1634TIP3   OH226460   4.753   3.398   0.642 -0.3089 -0.5673 -0.1315
 1634TIP3    H126461   4.802   3.338   0.585 -2.1726 -1.7834 -0.5434
 1634TIP3    H226462   4.714   3.341   0.708  0.6418  0.6557  1.5831
 1635TIP3   OH226463   4.890   2.474   1.566 -0.3989  0.2828  0.1039
 1635TIP3    H126464   4.969   2.524   1.549 -0.0174  0.1966  1.5204
 1635TIP3    H226465   4.921   2.387   1.593 -1.0144 -0.1267 -0.4483
 1636TIP3   OH226466   1.620   3.788   0.127 -0.0159 -0.2477 -0.1053
 1636TIP3    H126467   1.619   3.880   0.103 -0.4021 -0.6046 -1.5546
 1636TIP3    H226468   1.711   3.770   0.150  0.9676 -0.3407 -3.4958
 1637TIP3   OH226469   6.849   4.931   0.388 -0.1640  0.6356 -0.1933
 1637TIP3    H126470   6.809   5.017   0.374 -3.1554 -0.6641 -0.3630
 1637TIP3    H226471   6.787   4.884   0.443  1.4517 -1.3956  0.0127
 1638TIP3   OH226472   6.090   0.366   0.473  0.4776 -0.4923 -0.3276
 1638TIP3    H126473   6.094   0.392   0.381 -1.9186  0.9970 -0.0778
 1638TIP3    H226474   6.103   0.447   0.522 -1.3567 -0.7021  0.5782
 1639TIP3   OH226475   6.390   2.594   0.767  0.6194  0.1764 -0.6834
 1639TIP3    H126476   6.304   2.556   0.747 -1.1304  2.3835  1.8532
 1639TIP3    H226477   6.398   2.668   0.706  1.1812 -0.5365 -1.5016
 1640TIP3   OH226478   0.191   2.903   8.264  0.1510  0.1388 -0.4079
 1640TIP3    H126479   0.198   2.808   8.269  2.6986  0.2777  0.0127
 1640TIP3    H226480   0.211   2.924   8.173 -0.2582  0.2763 -0.4653
 1641TIP3   OH226481   2.188   5.498   2.327 -0.4211  0.3859  0.0106
 1641TIP3    H126482   2.264   5.466   2.375 -3.1665 -3.7745  2.2266
 1641TIP3    H226483   2.132   5.537   2.394 -1.9854 -0.4666 -0.7538
 1642TIP3   OH226484   3.515   3.919   1.480 -0.1885 -0.0244  0.5307
 1642TIP3    H126485   3.518   3.998   1.426 -1.5051 -0.2145  0.1391
 1642TIP3    H226486   3.549   3.947   1.565  1.1490  0.4778 -0.1436
 1643TIP3   OH226487   1.102   2.629   2.497 -0.3244 -0.3380  0.2706
 1643TIP3    H126488   1.116   2.557   2.558  1.0796 -1.0373 -0.8372
 1643TIP3    H226489   1.096   2.588   2.411 -0.4990  0.7834 -0.2726
 1644TIP3   OH226490   4.365   4.716   3.440 -0.2352  0.5379  0.4950
 1644TIP3    H126491   4.394   4.806   3.429  1.2268 -0.0680 -1.0109
 1644TIP3    H226492   4.445   4.665   3.442 -1.0800 -0.9601 -1.1151
 1645TIP3   OH226493   0.349   6.839   0.436  0.4788 -0.5646  0.1962
 1645TIP3    H126494   0.367   6.925   0.398 -0.4286  0.1982  1.4140
 1645TIP3    H226495   0.434   6.808   0.466  1.1013 -0.8792 -1.7612
 1646TIP3   OH226496   3.794   5.076   0.538 -0.1838 -0.0899  0.2763
 1646TIP3    H126497   3.758   5.146   0.593 -0.3090 -0.5923  0.8521
 1646TIP3    H226498   3.874   5.049   0.583  0.2835  0.2158 -0.3630
 1647TIP3   OH226499   0.071   0.966   2.342 -0.8243  0.9619  0.1054
 1647TIP3    H126500  -0.011   0.945   2.386  0.0275  0.2598  1.4165
 1647TIP3    H226501   0.124   1.011   2.408  1.6499 -2.6815  0.9190
 1648TIP3   OH226502   0.914   0.922   1.481  0.1727  0.9029 -0.3029
 1648TIP3    H126503   0.980   0.875   1.531 -0.7124  0.7716  0.7931
 1648TIP3    H226504   0.962   0.991   1.435  1.1657  0.3172 -0.1793
 1649TIP3   OH226505   2.149   6.343   3.130  1.0208  0.0282 -0.5492
 1649TIP3    H126506   2.162   6.438   3.131  2.5928 -0.1083 -2.4212
 1649TIP3    H226507   2.074   6.329   3.072  2.6195  0.0333 -2.7231
 1650TIP3   OH226508   0.060   4.490   3.304 -0.7567 -0.0838 -0.3766
 1650TIP3    H126509  -0.025   4.448   3.321 -0.1501 -1.7048 -1.1574
 1650TIP3    H226510   0.124   4.434   3.347 -0.1121  1.6999  1.1171
 1651TIP3   OH226511   5.430   6.083   0.755  0.1683 -0.1860 -0.0796
 1651TIP3    H126512   5.378   6.018   0.708 -0.5325  0.9116 -0.8640
 1651TIP3    H226513   5.374   6.111   0.828  0.5129 -0.5242  0.3231
 1652TIP3   OH226514   4.211   0.181   7.867 -0.3970  0.3923 -0.1252
 1652TIP3    H126515   4.121   0.169   7.837 -0.3372 -0.6571  0.0818
 1652TIP3    H226516   4.232   0.272   7.844 -1.2549  0.4251 -0.8309
 1653TIP3   OH226517   5.869   4.625   2.673  0.2126 -0.0058  0.3819
 1653TIP3    H126518   5.962   4.642   2.660  0.2530  0.7564  1.4898
 1653TIP3    H226519   5.859   4.621   2.768 -1.1802  1.7972  0.3594
 1654TIP3   OH226520   2.949   1.569   8.334  0.1497 -0.3018  0.2429
 1654TIP3    H126521   2.890   1.493   8.332  0.7294 -0.7543 -1.2793
 1654TIP3    H226522   2.896   1.641   8.301  0.8967 -1.1410 -3.2354
 1655TIP3   OH226523   0.342   4.630   8.253  0.4707  0.2637  0.4553
 1655TIP3    H126524   0.282   4.685   8.303 -0.0406  1.9973 -1.8839
 1655TIP3    H226525   0.294   4.548   8.240 -0.5008  0.8133  0.4757
 1656TIP3   OH226526   0.517   5.589   2.380  0.3339 -0.2076 -0.2862
 1656TIP3    H126527   0.508   5.593   2.285  2.0936  0.9454 -0.4467
 1656TIP3    H226528   0.583   5.521   2.395 -0.0930 -0.5374  0.1402
 1657TIP3   OH226529   1.247   3.869   2.045 -0.5894  0.5118 -0.0618
 1657TIP3    H126530   1.272   3.937   1.983  2.4018 -0.4395 -0.0251
 1657TIP3    H226531   1.169   3.828   2.006  0.9724  0.1517 -3.0601
 1658TIP3   OH226532   5.894   5.318   3.764 -0.1978  0.0650 -0.0839
 1658TIP3    H126533   5.905   5.332   3.858  0.7333  0.8461 -0.2924
 1658TIP3    H226534   5.891   5.223   3.754  0.3037 -0.0359  0.6841
 1659TIP3   OH226535   6.848   1.603   0.602 -0.5560 -0.5234 -0.4062
 1659TIP3    H126536   6.797   1.664   0.550 -0.2151 -0.7052 -0.9687
 1659TIP3    H226537   6.845   1.521   0.553 -0.8404 -0.9082  0.2377
 1660TIP3   OH226538   4.536   3.163   0.210 -0.5059 -0.3125 -0.1575
 1660TIP3    H126539   4.583   3.233   0.165  1.5362 -2.6436 -1.9440
 1660TIP3    H226540   4.474   3.130   0.145 -1.6225 -0.0415  0.7446
 1661TIP3   OH226541   5.455   3.837   1.181  0.2353  0.0183 -0.2232
 1661TIP3    H126542   5.535   3.801   1.220  0.3907  1.0962  0.5003
 1661TIP3    H226543   5.460   3.812   1.089  1.8507  0.7835 -0.3908
 1662TIP3   OH226544   5.305   5.079   8.105  0.1108  0.1064 -0.4950
 1662TIP3    H126545   5.279   5.150   8.047  1.1694  0.6382 -0.3219
 1662TIP3    H226546   5.344   5.013   8.047 -2.0953 -0.9891 -0.8511
 1663TIP3   OH226547   5.160   1.885   2.186  0.1402 -0.2780  0.2715
 1663TIP3    H126548   5.066   1.883   2.169  0.0858 -0.5552  0.5940
 1663TIP3    H226549   5.168   1.868   2.280  0.5654 -1.4645  0.0463
 1664TIP3   OH226550   0.471   1.766   2.660  0.2134  0.3180  0.0600
 1664TIP3    H126551   0.432   1.798   2.579  2.6251  0.7309 -1.0119
 1664TIP3    H226552   0.484   1.672   2.645  0.0824  0.2686  0.2418
 1665TIP3   OH226553   6.547   5.645   2.847 -0.1470  0.1628  0.1841
 1665TIP3    H126554   6.614   5.639   2.915  1.1817  1.4225 -0.9513
 1665TIP3    H226555   6.582   5.595   2.774 -0.7897  0.2386 -0.1875
 1666TIP3   OH226556   3.814   0.223   3.196 -0.3170  0.4465 -0.1283
 1666TIP3    H126557   3.853   0.302   3.157 -0.0743  0.6715  0.5425
 1666TIP3    H226558   3.841   0.227   3.288 -1.7996  0.5270  0.3271
 1667TIP3   OH226559   5.285   2.523   8.363  0.3913  0.4834 -0.2541
 1667TIP3    H126560   5.223   2.482   8.304  2.0916 -0.7244 -1.2910
 1667TIP3    H226561   5.363   2.538   8.309  1.7544  0.0027  1.4848
 1668TIP3   OH226562   1.115   1.839   0.098  0.2323  0.2619  0.4175
 1668TIP3    H126563   1.057   1.913   0.079 -0.0467  0.0523  0.4553
 1668TIP3    H226564   1.059   1.774   0.140  0.1034 -0.6280 -1.0485
 1669TIP3   OH226565   0.740   6.234   3.896 -0.4826 -0.1315 -0.1076
 1669TIP3    H126566   0.752   6.167   3.829 -0.4908  0.1219 -0.3626
 1669TIP3    H226567   0.754   6.317   3.851 -1.2468  0.0797  0.0183
 1670TIP3   OH226568   0.155   2.449   8.394  0.2615 -0.4951  0.3355
 1670TIP3    H126569   0.226   2.507   8.365  1.3230 -1.0529  1.6750
 1670TIP3    H226570   0.100   2.504   8.449 -0.1022 -0.1821 -0.3212
 1671TIP3   OH226571   5.366   5.283   2.648 -0.3994  0.4036 -0.3700
 1671TIP3    H126572   5.372   5.192   2.678  3.4210  0.7254  0.3196
 1671TIP3    H226573   5.435   5.328   2.696 -1.5427  3.5057 -1.4279
 1672TIP3   OH226574   3.843   4.103   8.470  0.2930  0.2094  0.8651
 1672TIP3    H126575   3.889   4.126   8.389 -0.2898 -1.4536  0.0118
 1672TIP3    H226576   3.760   4.151   8.464  0.4326  0.4292  0.6775
 1673TIP3   OH226577   6.908   4.292   7.988 -0.4897 -0.4224  0.8410
 1673TIP3    H126578   6.817   4.295   7.958  0.1844  2.3330 -1.2659
 1673TIP3    H226579   6.947   4.221   7.937 -0.7187  0.5779 -0.8103
 1674TIP3   OH226580   6.924   2.552   0.085 -0.0350 -0.0888 -0.5691
 1674TIP3    H126581   6.853   2.516   0.139 -0.8598 -0.9090 -2.1065
 1674TIP3    H226582   6.992   2.578   0.147 -0.7506 -1.3906  0.8127
 1675TIP3   OH226583   1.653   2.413   3.159 -0.0174 -0.2436 -0.2558
 1675TIP3    H126584   1.652   2.382   3.249 -0.6526 -1.8775 -0.7725
 1675TIP3    H226585   1.620   2.338   3.108  0.3176  0.6361 -1.8333
 1676TIP3   OH226586   3.075   3.577   1.866  0.4980 -0.0936 -0.3652
 1676TIP3    H126587   3.162   3.551   1.833 -0.1342 -2.1530 -0.5949
 1676TIP3    H226588   3.031   3.616   1.791  0.9128  0.1261 -0.4965
 1677TIP3   OH226589   3.676   4.793   1.656  0.3266 -0.2900  0.0786
 1677TIP3    H126590   3.638   4.717   1.612 -2.8878  1.6344 -0.8228
 1677TIP3    H226591   3.681   4.767   1.748 -1.2293 -1.4224 -0.1126
 1678TIP3   OH226592   0.363   2.467   7.859 -0.0259 -0.2693 -0.0346
 1678TIP3    H126593   0.308   2.544   7.848  0.8575  0.3778 -0.0562
 1678TIP3    H226594   0.304   2.393   7.848 -0.6919  0.4007 -1.0590
 1679TIP3   OH226595   0.265   3.814   0.084  0.6949 -0.3472 -0.1078
 1679TIP3    H126596   0.331   3.852   0.143  0.1849  0.9738 -0.3636
 1679TIP3    H226597   0.186   3.866   0.100  0.1198 -0.9815 -0.8480
 1680TIP3   OH226598   1.139   3.263   2.284 -0.0433 -0.4077 -0.7239
 1680TIP3    H126599   1.071   3.320   2.248 -0.8567 -2.0334 -1.8894
 1680TIP3    H226600   1.219   3.316   2.281 -1.1701  1.4929  0.5277
 1681TIP3   OH226601   3.968   5.638   1.503 -0.6321  0.3046  0.0309
 1681TIP3    H126602   3.967   5.568   1.438  0.6913  1.4027 -1.2287
 1681TIP3    H226603   3.908   5.608   1.571 -2.1513 -0.8542 -1.7246
 1682TIP3   OH226604   3.378   2.948   3.294  0.1243 -0.1967 -0.4604
 1682TIP3    H126605   3.373   2.868   3.241  0.4811  1.0350 -2.4586
 1682TIP3    H226606   3.288   2.980   3.299  0.1897  0.0557 -0.9145
 1683TIP3   OH226607   3.204   3.926   1.965 -0.4915  0.2210 -0.6564
 1683TIP3    H126608   3.161   3.940   2.049  0.1786 -1.4602  0.0065
 1683TIP3    H226609   3.187   4.006   1.916 -1.5893  0.9076  0.7700
 1684TIP3   OH226610   4.807   5.724   8.066 -0.0458 -0.0683 -0.2650
 1684TIP3    H126611   4.795   5.722   8.161 -0.7167  0.7906 -0.3199
 1684TIP3    H226612   4.850   5.641   8.045 -0.3106 -0.4658  0.7358
 1685TIP3   OH226613   1.545   2.392   1.271 -0.4048  0.8418 -0.0142
 1685TIP3    H126614   1.605   2.323   1.240 -0.1800  0.6125  0.9063
 1685TIP3    H226615   1.600   2.470   1.275  0.3211  0.2961  2.3902
 1686TIP3   OH226616   0.425   5.640   1.040 -0.2609 -0.3330 -0.0660
 1686TIP3    H126617   0.479   5.676   1.111 -0.8188 -0.6938  0.5552
 1686TIP3    H226618   0.359   5.707   1.024  1.5362  1.0205 -2.2324
 1687TIP3   OH226619   5.137   3.468   3.132 -0.0482  0.0824  0.5511
 1687TIP3    H126620   5.199   3.472   3.205  2.4520 -1.7833 -1.2950
 1687TIP3    H226621   5.114   3.375   3.126  0.5393  0.0311 -1.5255
 1688TIP3   OH226622   4.344   0.312   1.090 -0.1159 -0.8009  0.2032
 1688TIP3    H126623   4.258   0.299   1.130 -0.7005 -1.7716 -1.2664
 1688TIP3    H226624   4.357   0.406   1.089 -0.9419 -0.6718  0.8856
 1689TIP3   OH226625   4.072   2.875   2.024  0.1450  0.2536 -0.4241
 1689TIP3    H126626   4.050   2.866   2.117 -0.4158  0.2923 -0.5506
 1689TIP3    H226627   3.994   2.915   1.985 -0.0152 -0.6513 -1.0835
 1690TIP3   OH226628   4.639   3.113   1.359  0.6209 -0.1998 -0.6289
 1690TIP3    H126629   4.580   3.187   1.343 -0.5864 -0.9102  0.3093
 1690TIP3    H226630   4.709   3.150   1.413 -0.5902  0.0691  0.8548
 1691TIP3   OH226631   5.301   5.593   2.398 -0.9496  0.4026  0.4390
 1691TIP3    H126632   5.347   5.509   2.402  1.3503  1.4304 -1.7610
 1691TIP3    H226633   5.256   5.591   2.313 -3.6786  0.1615  1.7843
 1692TIP3   OH226634   6.336   2.523   1.259  0.2170  0.5650 -0.1769
 1692TIP3    H126635   6.268   2.458   1.244  0.8120  0.1988 -1.4784
 1692TIP3    H226636   6.401   2.505   1.191  0.3114  2.6440 -0.6768
 1693TIP3   OH226637   5.968   2.622   1.594  0.4790  0.0627 -0.0323
 1693TIP3    H126638   6.049   2.669   1.575  0.7282 -0.7562 -1.1708
 1693TIP3    H226639   5.940   2.656   1.679  0.5215  2.3878 -0.8690
 1694TIP3   OH226640   3.625   2.735   1.429 -0.1555 -0.5211  0.5195
 1694TIP3    H126641   3.565   2.685   1.484 -1.0224  0.2517  0.3010
 1694TIP3    H226642   3.584   2.821   1.419 -0.3546 -0.8158 -1.8168
 1695TIP3   OH226643   1.521   4.295   2.786  0.4189 -0.0646  0.3530
 1695TIP3    H126644   1.545   4.382   2.819  1.8043 -0.1192 -0.4292
 1695TIP3    H226645   1.571   4.234   2.842 -0.1603 -0.3444  0.5751
 1696TIP3   OH226646   1.092   5.389   1.624  0.4182 -0.0104 -0.6659
 1696TIP3    H126647   1.109   5.345   1.707  3.3191  0.0747 -1.1046
 1696TIP3    H226648   1.061   5.319   1.566 -4.7769  0.4130  1.0702
 1697TIP3   OH226649   3.978   4.519   0.158  0.4780 -0.5261 -0.0337
 1697TIP3    H126650   4.073   4.520   0.175  0.3166  0.5577  1.0045
 1697TIP3    H226651   3.944   4.451   0.217  0.6482 -1.2226 -0.7266
 1698TIP3   OH226652   4.979   0.992   0.279  0.0455  0.8212  1.0050
 1698TIP3    H126653   5.052   1.032   0.325  0.3741  1.6845 -0.1984
 1698TIP3    H226654   4.991   1.019   0.188 -1.1521  0.0477  0.5948
 1699TIP3   OH226655   2.662   0.794   1.969 -0.4373  0.1930  0.0238
 1699TIP3    H126656   2.580   0.783   2.016  0.1262 -0.1294  0.9700
 1699TIP3    H226657   2.698   0.706   1.962 -1.4686 -0.1029 -2.9005
 1700TIP3   OH226658   3.025   0.387   2.482 -0.7963  0.3287  0.3709
 1700TIP3    H126659   3.008   0.311   2.537  0.1807 -1.5536 -1.7761
 1700TIP3    H226660   3.007   0.357   2.393  2.1358  1.7951 -0.8322
 1701TIP3   OH226661   3.104   0.870   3.173  0.3119  0.2589  0.2578
 1701TIP3    H126662   3.186   0.859   3.125  1.5916 -0.4637  2.4473
 1701TIP3    H226663   3.112   0.955   3.216 -2.3861  2.6688 -3.4480
 1702TIP3   OH226664   1.590   0.422   8.315 -0.1161  0.0473  0.1673
 1702TIP3    H126665   1.608   0.492   8.253  0.2368 -0.6955 -0.5987
 1702TIP3    H226666   1.494   0.414   8.316 -0.1100 -0.3766 -0.8221
 1703TIP3   OH226667   4.470   1.775   3.196  0.5991  0.1223 -0.1564
 1703TIP3    H126668   4.431   1.823   3.269  0.1425  1.1677 -1.0472
 1703TIP3    H226669   4.495   1.690   3.233 -0.1091  0.4220  1.0681
 1704TIP3   OH226670   0.220   4.289   3.393 -0.0153  0.5942  0.4496
 1704TIP3    H126671   0.304   4.249   3.368 -0.6857 -0.4955 -0.1224
 1704TIP3    H226672   0.202   4.254   3.479  0.2701  1.1048  0.7255
 1705TIP3   OH226673   0.626   6.886   1.599 -0.6856  0.4296 -0.6489
 1705TIP3    H126674   0.664   6.861   1.683 -0.4720  2.3441 -0.1460
 1705TIP3    H226675   0.533   6.897   1.617 -0.7236  0.3412 -0.7875
 1706TIP3   OH226676   1.153   6.175   2.853  0.4687 -0.0184  0.2020
 1706TIP3    H126677   1.086   6.202   2.790  1.9895  0.6476 -1.2147
 1706TIP3    H226678   1.122   6.090   2.886  0.2016 -1.0515 -2.4292
 1707TIP3   OH226679   5.629   6.694   3.419  0.4119  0.1126 -0.3566
 1707TIP3    H126680   5.537   6.692   3.446  0.4737 -1.3922 -0.1581
 1707TIP3    H226681   5.677   6.669   3.497  0.7810 -1.7714 -1.1415
 1708TIP3   OH226682   1.367   3.784   2.271 -0.1594 -0.2348  0.2815
 1708TIP3    H126683   1.323   3.805   2.189 -0.5139 -1.9050  0.0162
 1708TIP3    H226684   1.460   3.791   2.251 -0.2525  0.3899  0.0395
 1709TIP3   OH226685   0.981   6.157   3.172  0.0282 -0.1812 -0.2887
 1709TIP3    H126686   1.007   6.243   3.208 -1.1301  0.8530 -1.8158
 1709TIP3    H226687   0.950   6.108   3.249 -2.6377  2.0493  0.2424
 1710TIP3   OH226688   6.545   2.547   2.381  0.3028  0.6108  0.7589
 1710TIP3    H126689   6.524   2.461   2.417 -0.4344 -0.0423 -1.1269
 1710TIP3    H226690   6.637   2.540   2.354  0.4911  0.7053  1.3558
 1711TIP3   OH226691   1.586   6.663   1.752 -0.0685 -0.1409 -0.0695
 1711TIP3    H126692   1.539   6.711   1.820  0.0901  0.9712 -0.7049
 1711TIP3    H226693   1.550   6.697   1.670  0.3362 -0.8370 -0.5468
 1712TIP3   OH226694   0.263   0.032   2.818  0.4720  0.4157 -0.1913
 1712TIP3    H126695   0.294   0.114   2.856  1.5129 -1.8897  4.6753
 1712TIP3    H226696   0.342  -0.014   2.792 -0.0999  0.7054 -2.7483
 1713TIP3   OH226697   6.787   1.814   1.049  0.4476  0.2396 -0.1101
 1713TIP3    H126698   6.748   1.757   0.982  3.8908  1.2862 -3.3832
 1713TIP3    H226699   6.731   1.891   1.050 -0.6056 -0.4977 -0.5433
 1714TIP3   OH226700   4.675   0.701   2.692  0.2379  0.3824 -0.2702
 1714TIP3    H126701   4.626   0.783   2.688  0.9709  0.7819 -1.9151
 1714TIP3    H226702   4.638   0.647   2.622  0.9333 -0.0066 -0.3460
 1715TIP3   OH226703   3.529   1.587   1.919 -0.9339 -0.2221 -0.1729
 1715TIP3    H126704   3.547   1.675   1.886  0.1772 -0.1056  0.6964
 1715TIP3    H226705   3.444   1.565   1.881 -1.6815  1.5887  0.3334
 1716TIP3   OH226706   2.809   0.395   7.603 -0.2500  0.2283 -0.1719
 1716TIP3    H126707   2.836   0.351   7.522 -0.4035  1.1696 -0.7498
 1716TIP3    H226708   2.758   0.329   7.650  1.4951 -0.9894  0.0992
 1717TIP3   OH226709   6.561   0.718   1.905 -0.2871  0.5920  0.3836
 1717TIP3    H126710   6.507   0.674   1.839  0.9374  0.6977 -0.7404
 1717TIP3    H226711   6.529   0.809   1.904 -0.1033  0.6595 -0.2851
 1718TIP3   OH226712   0.364   2.104   0.273 -0.4824 -0.2687 -0.0668
 1718TIP3    H126713   0.303   2.158   0.223  0.8675  1.6270  0.2024
 1718TIP3    H226714   0.344   2.014   0.247 -2.6080  0.3629 -0.7940
 1719TIP3   OH226715   0.523   0.986   1.041  0.0866  0.3821  0.5359
 1719TIP3    H126716   0.589   0.954   1.102 -1.9368 -5.1950  0.3034
 1719TIP3    H226717   0.559   0.967   0.954 -0.7872 -0.4849  0.3460
 1720TIP3   OH226718   0.410   1.852   0.180  0.3079 -0.0230  0.3513
 1720TIP3    H126719   0.449   1.843   0.266  0.5996  1.0499  0.3520
 1720TIP3    H226720   0.480   1.890   0.126 -1.0924  3.6234  0.7685
 1721TIP3   OH226721   4.504   6.212   0.498 -0.3472 -0.5045 -1.2445
 1721TIP3    H126722   4.451   6.288   0.472 -1.9601 -1.2665 -0.3007
 1721TIP3    H226723   4.464   6.181   0.579 -0.4789 -3.1094 -2.2413
 1722TIP3   OH226724   1.113   5.121   0.961  0.1836  0.9985  0.7673
 1722TIP3    H126725   1.054   5.067   1.013  0.2977  1.0394  0.9399
 1722TIP3    H226726   1.189   5.066   0.946 -0.7766  0.1009 -1.3464
 1723TIP3   OH226727   3.462   5.664   2.648  0.3427  0.1507  0.6517
 1723TIP3    H126728   3.392   5.703   2.595  0.1084  0.0835  0.9130
 1723TIP3    H226729   3.418   5.601   2.704  0.3481  1.3445  2.0617
 1724TIP3   OH226730   2.541   4.697   1.984  0.0385 -0.5194 -0.3714
 1724TIP3    H126731   2.589   4.700   1.902 -0.1139 -1.4440 -0.5075
 1724TIP3    H226732   2.462   4.646   1.964 -0.9369  0.8361 -0.1226
 1725TIP3   OH226733   1.511   6.708   2.674  0.2798 -0.3488  0.4502
 1725TIP3    H126734   1.554   6.786   2.710  1.2966  1.6485 -4.3166
 1725TIP3    H226735   1.481   6.736   2.587  0.3564 -5.1746 -1.4163
 1726TIP3   OH226736   3.109   1.575   7.319  0.2544  0.5790 -0.3550
 1726TIP3    H126737   3.137   1.490   7.350  0.6149  1.3030  1.3847
 1726TIP3    H226738   3.044   1.605   7.383 -0.4768  1.2693 -1.3760
 1727TIP3   OH226739   4.833   4.799   0.016 -0.5249  0.3750  0.2596
 1727TIP3    H126740   4.752   4.842  -0.012 -1.7351 -2.2335 -0.5659
 1727TIP3    H226741   4.823   4.788   0.110 -1.8812 -1.2261 -0.0247
 1728TIP3   OH226742   3.027   1.182   8.335  0.3118 -0.4030  0.4972
 1728TIP3    H126743   3.074   1.134   8.404  1.3496  1.5767  1.2456
 1728TIP3    H226744   2.935   1.160   8.349  0.5271 -0.3177  2.3539
 1729TIP3   OH226745   5.516   0.603   2.827  0.0068 -0.1666 -0.3889
 1729TIP3    H126746   5.491   0.535   2.764  0.9736 -0.5744 -0.3430
 1729TIP3    H226747   5.433   0.629   2.868 -0.9928  1.5293 -3.1898
 1730TIP3   OH226748   6.444   0.512   2.363  0.1993  1.1133 -0.3865
 1730TIP3    H126749   6.471   0.600   2.335  0.8167  1.0467 -0.0314
 1730TIP3    H226750   6.401   0.525   2.447 -1.8663  1.3396 -1.4328
 1731TIP3   OH226751   1.641   1.622   1.610  0.0245  0.3894 -0.3712
 1731TIP3    H126752   1.715   1.682   1.606  1.0418 -0.7210  0.8172
 1731TIP3    H226753   1.651   1.565   1.534  1.4043 -0.8199  0.6514
 1732TIP3   OH226754   6.592   4.614   0.349 -0.4210 -0.1663 -0.1136
 1732TIP3    H126755   6.618   4.664   0.427  0.5656  0.4987 -0.8379
 1732TIP3    H226756   6.634   4.529   0.359  0.7984  0.3690 -0.5236
 1733TIP3   OH226757   3.900   0.750   1.110  0.4250 -0.2809 -0.2661
 1733TIP3    H126758   3.939   0.769   1.024  0.6916 -2.3893 -0.6732
 1733TIP3    H226759   3.809   0.777   1.101  0.8753  1.2663 -0.5479
 1734TIP3   OH226760   0.422   4.761   0.078  0.0527 -0.4332 -0.3161
 1734TIP3    H126761   0.486   4.700   0.043 -1.1060 -1.9751  0.1276
 1734TIP3    H226762   0.467   4.804   0.151  0.3450 -2.1160  0.5420
 1735TIP3   OH226763   1.953   3.002   3.594  0.0818  0.1299  0.1801
 1735TIP3    H126764   1.876   2.955   3.626 -0.8492 -0.3220 -2.4755
 1735TIP3    H226765   1.925   3.094   3.592 -0.0712  0.0826  0.1041
 1736TIP3   OH226766   1.637   6.075   1.458 -0.4667 -0.2232 -0.0264
 1736TIP3    H126767   1.689   6.041   1.385  0.3275 -1.4409  1.0645
 1736TIP3    H226768   1.618   6.166   1.434  1.3215 -0.0461 -0.9076
 1737TIP3   OH226769   3.418   0.276   7.839  0.3798  0.2624  0.3058
 1737TIP3    H126770   3.345   0.214   7.839  1.1304 -0.6567  0.6646
 1737TIP3    H226771   3.438   0.290   7.932  2.3282 -1.5995  0.2668
 1738TIP3   OH226772   1.441   1.883   2.720  0.0127  0.3557 -0.4714
 1738TIP3    H126773   1.470   1.947   2.785  0.7448 -0.9708  0.5342
 1738TIP3    H226774   1.488   1.803   2.742 -1.5568 -0.7898 -1.1751
 1739TIP3   OH226775   4.010   6.429   1.222  0.2346 -0.6560 -0.2857
 1739TIP3    H126776   3.958   6.485   1.280 -0.7876  1.3623 -2.9147
 1739TIP3    H226777   4.091   6.413   1.270 -0.8568  0.2247  1.9835
 1740TIP3   OH226778   0.263   5.231   0.706  0.5566  0.4638  0.0437
 1740TIP3    H126779   0.177   5.189   0.713  0.6743  0.0906 -0.6347
 1740TIP3    H226780   0.291   5.245   0.796 -0.7220  1.6360  0.2962
 1741TIP3   OH226781   0.709   1.300   0.907  0.1934 -0.8556 -0.0624
 1741TIP3    H126782   0.640   1.306   0.841 -2.5589 -1.4709  2.4895
 1741TIP3    H226783   0.703   1.383   0.955  0.5350 -1.3290  0.8244
 1742TIP3   OH226784   4.713   1.288   0.461 -0.0473  0.0357  0.7262
 1742TIP3    H126785   4.763   1.359   0.422  0.0729 -0.3807  0.1050
 1742TIP3    H226786   4.777   1.219   0.477 -0.3500 -0.3444  0.3120
 1743TIP3   OH226787   6.668   3.132   2.114 -0.0062  0.0659  0.1701
 1743TIP3    H126788   6.732   3.077   2.068  0.5361  0.9243 -0.1334
 1743TIP3    H226789   6.668   3.099   2.204 -0.0057 -0.6949 -0.1031
 1744TIP3   OH226790   1.981   6.624   0.032 -0.8060  0.0951  0.2306
 1744TIP3    H126791   2.030   6.692   0.079  1.7878  0.2282 -2.3660
 1744TIP3    H226792   1.973   6.553   0.095  3.1364 -0.0422  0.8642
 1745TIP3   OH226793   6.375   4.985   0.463  0.2877  0.2760  0.3112
 1745TIP3    H126794   6.355   5.028   0.380  0.4944  0.8921  0.5733
 1745TIP3    H226795   6.372   5.056   0.528 -3.4798 -0.7316  1.4572
 1746TIP3   OH226796   2.393   4.896   7.840  0.5465 -0.0060 -0.3956
 1746TIP3    H126797   2.355   4.887   7.928  1.2993  0.7949  0.0279
 1746TIP3    H226798   2.441   4.815   7.826  1.7678  0.5017  0.6260
 1747TIP3   OH226799   6.607   4.806   0.541 -0.3918  0.3782 -0.1486
 1747TIP3    H126800   6.617   4.795   0.635  0.3163  0.9050 -0.1507
 1747TIP3    H226801   6.528   4.860   0.532  0.0356  1.0904  0.2047
 1748TIP3   OH226802   1.350   5.556   1.737 -0.4755  0.3569  0.5921
 1748TIP3    H126803   1.418   5.614   1.769 -1.1316 -0.2074  3.2396
 1748TIP3    H226804   1.268   5.602   1.755 -0.9805 -1.0768  2.1988
 1749TIP3   OH226805   5.278   5.205   7.599 -0.4551  0.5531 -0.3694
 1749TIP3    H126806   5.358   5.205   7.651 -0.5023  0.1732 -0.2929
 1749TIP3    H226807   5.262   5.297   7.578 -1.4672  0.9480  1.8656
 1750TIP3   OH226808   6.889   0.116   2.789 -0.7183  0.0965  0.1094
 1750TIP3    H126809   6.808   0.153   2.754 -0.6107  0.0155 -0.2316
 1750TIP3    H226810   6.931   0.189   2.835 -0.9049  0.1793  0.1499
 1751TIP3   OH226811   5.296   1.499   0.909 -0.3317  0.5809 -0.2112
 1751TIP3    H126812   5.255   1.559   0.972  0.5697 -1.7863  2.8795
 1751TIP3    H226813   5.385   1.488   0.941  0.5338  0.0442 -2.6053
 1752TIP3   OH226814   2.706   2.033   7.450 -0.5086  0.3694 -0.6964
 1752TIP3    H126815   2.791   2.069   7.426 -0.7113  0.4332 -1.3227
 1752TIP3    H226816   2.722   1.939   7.461  0.2132  0.6849  1.7717
 1753TIP3   OH226817   0.906   5.869   0.810  0.1186 -0.3340  0.1437
 1753TIP3    H126818   0.996   5.901   0.817  1.0059 -2.1917 -1.6396
 1753TIP3    H226819   0.867   5.922   0.741 -0.1102  0.3423  0.7836
 1754TIP3   OH226820   5.889   6.250   3.336 -0.3726 -0.3972 -0.1793
 1754TIP3    H126821   5.956   6.214   3.393  0.9368  0.8930 -0.8370
 1754TIP3    H226822   5.902   6.207   3.252  1.0874  1.3587 -0.9192
 1755TIP3   OH226823   2.900   5.556   1.373  0.4129 -0.1587 -0.6019
 1755TIP3    H126824   2.862   5.573   1.459  1.0791 -0.8752 -0.1492
 1755TIP3    H226825   2.890   5.638   1.325  0.1676  0.2886  0.2049
 1756TIP3   OH226826   1.976   5.973   7.451 -0.3093  0.0461 -0.2185
 1756TIP3    H126827   2.037   5.913   7.408 -0.3607  0.0057 -0.2345
 1756TIP3    H226828   1.890   5.948   7.418 -0.4677 -0.6797  0.7356
 1757TIP3   OH226829   2.949   0.783   2.536  0.1497  0.1774  0.2667
 1757TIP3    H126830   3.021   0.833   2.497 -2.5900  2.8297 -1.8617
 1757TIP3    H226831   2.976   0.771   2.627  2.5314  2.5918  0.0252
 1758TIP3   OH226832   4.365   6.870   0.726  0.0642 -0.2346  0.1814
 1758TIP3    H126833   4.316   6.793   0.698  0.1169 -0.4094  0.5666
 1758TIP3    H226834   4.409   6.901   0.647  0.4047 -0.8668  0.1240
 1759TIP3   OH226835   1.298   4.394   0.632 -0.0374 -0.4606 -0.3640
 1759TIP3    H126836   1.339   4.311   0.657  2.4936  0.7821 -0.1326
 1759TIP3    H226837   1.275   4.382   0.540 -0.3193 -1.6138 -0.1726
 1760TIP3   OH226838   3.778   4.658   2.819  0.3542 -0.1795  0.6565
 1760TIP3    H126839   3.717   4.717   2.864  1.5850  0.9628  0.8825
 1760TIP3    H226840   3.811   4.600   2.888 -1.9660 -2.2367  0.1975
 1761TIP3   OH226841   2.775   0.845   7.483 -1.0740 -0.1743 -0.1635
 1761TIP3    H126842   2.732   0.911   7.430 -2.8396 -0.9265  0.2598
 1761TIP3    H226843   2.851   0.890   7.521 -1.5997  1.2717 -0.7607
 1762TIP3   OH226844   1.949   6.921   1.910 -0.4372 -0.5481 -0.6183
 1762TIP3    H126845   2.017   6.855   1.923 -0.0382  0.3590  2.6313
 1762TIP3    H226846   1.986   6.981   1.845  1.1015 -1.0593 -0.2609
 1763TIP3   OH226847   4.223   3.777   2.489 -0.1514  0.0313  0.5967
 1763TIP3    H126848   4.185   3.854   2.448  0.8145  1.1819  1.7497
 1763TIP3    H226849   4.148   3.724   2.517 -0.9136  1.5227  1.5186
 1764TIP3   OH226850   3.727   5.539   0.895  0.1850 -0.5342  0.4189
 1764TIP3    H126851   3.642   5.547   0.853 -0.1506 -1.6633  0.8535
 1764TIP3    H226852   3.790   5.557   0.826 -0.3897  0.6643  0.1732
 1765TIP3   OH226853   4.484   0.015   2.932  0.2545  0.1769  0.1158
 1765TIP3    H126854   4.503  -0.049   2.864 -4.1730 -0.0592 -1.2159
 1765TIP3    H226855   4.570   0.051   2.957  2.3925 -2.3294 -2.9254
 1766TIP3   OH226856   5.930   4.742   2.419 -0.6193 -0.5294 -0.1732
 1766TIP3    H126857   5.966   4.660   2.386 -0.2024 -0.3842 -0.0833
 1766TIP3    H226858   5.896   4.721   2.506 -0.9546 -0.7186 -0.3497
 1767TIP3   OH226859   3.686   1.594   1.062  0.0006  0.4132 -0.5031
 1767TIP3    H126860   3.610   1.536   1.051  0.9227 -0.9110 -0.1411
 1767TIP3    H226861   3.749   1.563   0.996  2.1999 -1.9120  2.4133
 1768TIP3   OH226862   4.772   1.355   3.526 -0.0490 -0.0618  0.2216
 1768TIP3    H126863   4.775   1.263   3.552 -0.0834  0.1692  1.0521
 1768TIP3    H226864   4.864   1.380   3.515  0.0201  0.0946  1.0626
 1769TIP3   OH226865   3.964   4.590   2.210  0.0119  0.4924  0.0211
 1769TIP3    H126866   3.873   4.569   2.194 -0.1619 -1.4678  2.7331
 1769TIP3    H226867   3.962   4.668   2.266 -0.1010  0.0146  0.7056
 1770TIP3   OH226868   1.271   2.616   2.775  0.2265 -0.4207  0.4671
 1770TIP3    H126869   1.320   2.574   2.845  1.4720 -0.7412 -0.5592
 1770TIP3    H226870   1.216   2.546   2.739 -0.1411 -0.3457  0.8778
 1771TIP3   OH226871   3.099   1.738   1.673  0.4500  0.5511  0.2041
 1771TIP3    H126872   3.021   1.769   1.719  1.2660  1.0728  1.2823
 1771TIP3    H226873   3.070   1.729   1.582 -0.6160  1.6908  0.3864
 1772TIP3   OH226874   1.511   5.257   0.045 -0.2190  0.3668  0.9768
 1772TIP3    H126875   1.591   5.280   0.090  0.5908 -2.2341  1.0378
 1772TIP3    H226876   1.481   5.177   0.088 -0.0465 -1.5992 -2.1735
 1773TIP3   OH226877   3.757   2.345   3.148  0.4374 -0.2770 -0.0576
 1773TIP3    H126878   3.848   2.361   3.122 -0.1554 -0.9355 -2.8291
 1773TIP3    H226879   3.764   2.278   3.217  2.0523 -0.1533 -0.0579
 1774TIP3   OH226880   5.186   0.737   2.542  0.0509  0.0374 -0.1417
 1774TIP3    H126881   5.275   0.718   2.512  0.4362  0.1304  0.9047
 1774TIP3    H226882   5.130   0.688   2.483  0.8210 -0.5255 -0.4250
 1775TIP3   OH226883   0.132   4.947   1.819 -0.0597  0.4130  0.3805
 1775TIP3    H126884   0.038   4.940   1.802 -0.4818  0.9160  2.2725
 1775TIP3    H226885   0.138   4.970   1.911  1.8781  2.3224 -0.1452
 1776TIP3   OH226886   6.677   2.309   2.462  0.1474 -0.3541 -0.1489
 1776TIP3    H126887   6.680   2.327   2.556 -0.3902 -1.0767  0.0125
 1776TIP3    H226888   6.723   2.226   2.452 -1.0799 -1.0333 -0.3258
 1777TIP3   OH226889   2.228   4.875   1.318  0.2410 -0.3922  0.4314
 1777TIP3    H126890   2.136   4.891   1.299  0.1378  1.0301  1.9215
 1777TIP3    H226891   2.266   4.962   1.332  1.7051 -0.9782  0.3125
 1778TIP3   OH226892   6.565   1.121   3.760 -0.1291  0.3254 -0.2923
 1778TIP3    H126893   6.595   1.208   3.734  0.9903 -0.4687 -1.8228
 1778TIP3    H226894   6.588   1.065   3.686 -2.3394 -0.9899 -0.0636
 1779TIP3   OH226895   5.355   0.502   3.482 -0.7038 -0.3391 -0.1444
 1779TIP3    H126896   5.386   0.483   3.570 -1.0558  0.7197  0.2200
 1779TIP3    H226897   5.385   0.591   3.464 -1.7370 -0.0585 -0.5807
 1780TIP3   OH226898   4.588   6.728   1.785  0.6541  0.1943  0.1723
 1780TIP3    H126899   4.669   6.770   1.755  0.2409  1.1998  0.4284
 1780TIP3    H226900   4.618   6.662   1.848  1.2257  1.5170  1.3755
 1781TIP3   OH226901   1.694   0.376   1.511 -0.1253  0.2934  0.0770
 1781TIP3    H126902   1.630   0.344   1.574 -0.2331  1.0373  0.3578
 1781TIP3    H226903   1.748   0.437   1.561 -0.9119  1.7581 -0.8062
 1782TIP3   OH226904   4.310   5.759   8.313 -0.4830 -0.3245 -0.4502
 1782TIP3    H126905   4.278   5.838   8.270  0.0123  0.3494  0.3765
 1782TIP3    H226906   4.359   5.713   8.246 -2.3250 -0.8917 -1.4702
 1783TIP3   OH226907   0.329   4.168   2.128 -0.0503  0.0298  0.8426
 1783TIP3    H126908   0.406   4.225   2.131 -0.6853  0.9411  0.0639
 1783TIP3    H226909   0.332   4.121   2.211  1.8880 -0.6775  0.4425
 1784TIP3   OH226910   5.048   4.266   2.380 -0.1659 -0.0104 -0.0010
 1784TIP3    H126911   5.045   4.183   2.333 -0.5401 -0.0843  0.1503
 1784TIP3    H226912   5.141   4.288   2.383 -0.1509  0.0588 -0.8778
 1785TIP3   OH226913   3.205   4.998   8.431  0.3041 -0.3582 -0.4534
 1785TIP3    H126914   3.217   4.937   8.504 -0.9128 -1.2986 -1.0006
 1785TIP3    H226915   3.228   4.947   8.353 -2.5914 -0.8419 -1.1130
 1786TIP3   OH226916   4.269   5.534   0.123 -0.1107  0.4862  0.2779
 1786TIP3    H126917   4.177   5.545   0.100 -0.1276 -1.1667 -0.5901
 1786TIP3    H226918   4.267   5.484   0.204  0.0315  2.1646  1.3666
 1787TIP3   OH226919   4.152   0.954   7.549  0.6190 -0.2551  0.0079
 1787TIP3    H126920   4.110   0.923   7.469 -1.6740  0.8801  0.7078
 1787TIP3    H226921   4.140   1.049   7.548  1.0853 -0.1542  1.4076
 1788TIP3   OH226922   5.174   5.317   0.326  0.4186  0.7877 -0.2119
 1788TIP3    H126923   5.184   5.236   0.376 -0.0125  0.8779  0.0261
 1788TIP3    H226924   5.203   5.294   0.238 -2.0650 -0.3828 -0.8250
 1789TIP3   OH226925   5.384   1.148   3.363 -0.3811 -0.6704 -0.5682
 1789TIP3    H126926   5.440   1.089   3.412 -0.3110 -0.5837 -0.5427
 1789TIP3    H226927   5.299   1.106   3.362 -0.7063 -0.0861  0.7073
 1790TIP3   OH226928   4.090   6.291   1.643 -0.1480 -0.5446  0.4415
 1790TIP3    H126929   4.000   6.257   1.639 -0.0601 -0.7049 -2.1825
 1790TIP3    H226930   4.141   6.230   1.589  0.8673  1.2897 -0.8021
 1791TIP3   OH226931   3.056   1.320   0.455  0.4243  0.2274  0.5660
 1791TIP3    H126932   3.151   1.316   0.440  0.6084  3.2487  0.3340
 1791TIP3    H226933   3.018   1.314   0.368  0.3334 -1.3806  0.6904
 1792TIP3   OH226934   2.697   3.282   2.907 -0.1642  0.6408 -0.6865
 1792TIP3    H126935   2.619   3.293   2.852 -0.8726 -1.0765 -0.0993
 1792TIP3    H226936   2.679   3.336   2.984 -0.0153  1.5610 -1.2866
 1793TIP3   OH226937   5.707   3.876   3.559  0.3451  0.2373 -0.4514
 1793TIP3    H126938   5.691   3.804   3.620  1.6490 -1.0217 -1.5136
 1793TIP3    H226939   5.765   3.935   3.607  1.1353 -0.5988 -0.3469
 1794TIP3   OH226940   4.368   6.865   1.871 -0.6745 -0.0069  0.4521
 1794TIP3    H126941   4.323   6.920   1.807 -2.6665 -1.6212  0.3957
 1794TIP3    H226942   4.439   6.824   1.822 -0.5878  0.7471 -0.0605
 1795TIP3   OH226943   6.055   6.250   0.950 -0.6227 -0.9873  0.3833
 1795TIP3    H126944   6.045   6.282   1.039 -2.7482 -1.5143  0.3831
 1795TIP3    H226945   6.088   6.161   0.959  1.6681 -0.1718  0.5119
 1796TIP3   OH226946   6.365   1.231   1.216  0.1858 -0.4206  0.0523
 1796TIP3    H126947   6.370   1.323   1.239  0.9432 -0.1836 -0.9525
 1796TIP3    H226948   6.453   1.197   1.234  0.0107 -0.8597  0.0912
 1797TIP3   OH226949   4.928   5.779   0.937 -0.5520  0.1762 -0.1411
 1797TIP3    H126950   4.841   5.817   0.926 -0.8986 -0.3592  0.7171
 1797TIP3    H226951   4.957   5.810   1.023 -0.2034 -0.2619 -0.0999
 1798TIP3   OH226952   6.833   3.890   0.565 -0.0279 -0.6039 -0.5990
 1798TIP3    H126953   6.848   3.798   0.545  1.0255 -0.9776  1.5576
 1798TIP3    H226954   6.797   3.889   0.654  0.1590  1.0835 -0.4694
 1799TIP3   OH226955   3.598   0.668   7.747  0.1815  0.3690  1.0047
 1799TIP3    H126956   3.577   0.745   7.694  0.8361  0.0756  0.3038
 1799TIP3    H226957   3.517   0.647   7.793  0.2843  2.1501  2.0972
 1800TIP3   OH226958   2.157   5.907   2.567  0.0797  0.3806  0.3938
 1800TIP3    H126959   2.068   5.878   2.548  0.4679 -2.7196  2.4580
 1800TIP3    H226960   2.208   5.882   2.491 -0.2796 -1.1374  0.6152
 1801TIP3   OH226961   0.229   6.212   2.266 -0.2169 -0.6088 -0.4630
 1801TIP3    H126962   0.189   6.295   2.292  0.3641 -0.2433 -0.7288
 1801TIP3    H226963   0.156   6.150   2.266 -0.4575 -0.3487  0.8097
 1802TIP3   OH226964   5.488   5.379   2.369  0.5064  0.0899  0.6908
 1802TIP3    H126965   5.456   5.289   2.382 -0.6656  0.7588  2.8471
 1802TIP3    H226966   5.583   5.372   2.380  0.5856 -1.0882 -0.5287
 1803TIP3   OH226967   4.729   3.104   2.046  0.0654  0.0279 -0.3176
 1803TIP3    H126968   4.725   3.010   2.065 -0.0902  0.0311 -0.3330
 1803TIP3    H226969   4.822   3.121   2.029  0.2404  0.0612  0.6093
 1804TIP3   OH226970   3.427   3.753   0.604 -0.4478 -0.8373  0.7715
 1804TIP3    H126971   3.416   3.834   0.653 -5.6183  1.1837 -2.7882
 1804TIP3    H226972   3.400   3.684   0.666  2.0770  0.2177  3.2507
 1805TIP3   OH226973   1.449   2.813   2.530  0.8609 -0.3884 -0.3480
 1805TIP3    H126974   1.379   2.815   2.596  2.5510 -1.2255  1.5594
 1805TIP3    H226975   1.423   2.880   2.466 -0.2154  1.3763  1.8058
 1806TIP3   OH226976   4.847   3.842   0.723 -0.2420 -0.5620 -0.8995
 1806TIP3    H126977   4.769   3.868   0.771  1.1361  0.3002  1.0088
 1806TIP3    H226978   4.888   3.924   0.697  0.0834 -0.9969 -1.8037
 1807TIP3   OH226979   1.477   0.240   1.644 -0.3119  0.1515  0.1852
 1807TIP3    H126980   1.460   0.148   1.620 -2.2584  0.7822 -1.0927
 1807TIP3    H226981   1.496   0.237   1.738  1.4329 -1.7257 -0.1390
 1808TIP3   OH226982   5.608   2.339   3.604  0.1558 -0.2830  0.0106
 1808TIP3    H126983   5.555   2.304   3.677 -1.5007 -0.9299 -1.4341
 1808TIP3    H226984   5.649   2.262   3.566 -0.9133 -0.2918 -1.1849
 1809TIP3   OH226985   1.092   2.545   3.204  0.2092  0.1273  0.1350
 1809TIP3    H126986   1.081   2.495   3.284 -0.7051  0.0344 -0.0293
 1809TIP3    H226987   1.046   2.493   3.137  2.8632 -0.9566 -0.9611
 1810TIP3   OH226988   5.506   2.537   7.898 -0.3582 -0.3286 -0.1305
 1810TIP3    H126989   5.552   2.455   7.884  0.2205  0.0585 -0.5205
 1810TIP3    H226990   5.448   2.546   7.822  2.6703  1.6977 -2.4187
 1811TIP3   OH226991   0.739   6.561   2.244 -0.1661  1.0395  0.1974
 1811TIP3    H126992   0.682   6.533   2.173  2.4095 -0.8835 -1.2995
 1811TIP3    H226993   0.806   6.613   2.201  0.9378  0.6088  1.3400
 1812TIP3   OH226994   0.934   0.530   2.989 -0.2305  0.0276 -0.1873
 1812TIP3    H126995   0.846   0.564   3.005  0.0710  0.8553 -0.2462
 1812TIP3    H226996   0.942   0.531   2.893  0.7616  2.4215 -0.1385
 1813TIP3   OH226997   3.931   5.357   8.212  0.2336  0.5495 -0.2223
 1813TIP3    H126998   3.859   5.421   8.213  1.5251  2.0733 -0.9113
 1813TIP3    H226999   4.010   5.410   8.223  1.2328 -1.1755  1.3522
 1814TIP3   OH227000   6.533   4.221   0.404 -0.7350 -0.6205  0.5440
 1814TIP3    H127001   6.539   4.155   0.336 -0.0434 -0.7073  0.6844
 1814TIP3    H227002   6.617   4.267   0.401 -0.2438 -1.3240  2.0267
 1815TIP3   OH227003   4.845   6.931   1.076  0.2427  0.0176 -0.0286
 1815TIP3    H127004   4.821   7.023   1.073  0.7070  0.1327 -0.2526
 1815TIP3    H227005   4.764   6.886   1.098 -0.3678  0.3222 -1.5439
 1816TIP3   OH227006   2.157   4.663   7.792 -0.2221  0.0285 -0.2667
 1816TIP3    H127007   2.150   4.713   7.874 -1.0985  0.0605 -0.3492
 1816TIP3    H227008   2.067   4.642   7.769 -0.0413  0.6143 -1.6065
 1817TIP3   OH227009   4.997   5.454   0.625  0.0656  0.0233 -0.1239
 1817TIP3    H127010   4.973   5.387   0.561 -0.5267  0.5278 -0.4319
 1817TIP3    H227011   4.923   5.458   0.685  0.3332  0.0271  0.2144
 1818TIP3   OH227012   2.475   3.623   7.307  0.3098  0.4032 -0.2650
 1818TIP3    H127013   2.488   3.549   7.366 -1.1379  0.5854  0.3375
 1818TIP3    H227014   2.412   3.592   7.243  0.4109  0.8170 -0.5711
 1819TIP3   OH227015   4.258   3.047   1.926 -0.0351 -0.1311 -0.1660
 1819TIP3    H127016   4.267   3.057   1.832 -0.0753  2.3716  0.0295
 1819TIP3    H227017   4.175   3.000   1.938 -0.1829 -0.1833 -1.3513
 1820TIP3   OH227018   3.132   0.647   8.146  0.1393  0.1309  0.3242
 1820TIP3    H127019   3.158   0.703   8.072 -2.8254  0.5493 -0.5394
 1820TIP3    H227020   3.138   0.558   8.111  3.3091 -0.1152  1.1939
 1821TIP3   OH227021   6.416   0.352   3.426 -0.2738 -0.6467  0.1474
 1821TIP3    H127022   6.462   0.268   3.434  1.4289  0.1398 -0.9453
 1821TIP3    H227023   6.362   0.357   3.505  1.2163 -1.8130  1.2900
 1822TIP3   OH227024   6.295   3.363   3.256  0.0106  0.1209 -0.2336
 1822TIP3    H127025   6.224   3.422   3.228  0.2700  0.7167  0.3353
 1822TIP3    H227026   6.272   3.339   3.345  0.3286  0.0124 -0.1798
 1823TIP3   OH227027   5.703   1.872   7.544  0.2657 -0.0082 -0.3565
 1823TIP3    H127028   5.689   1.831   7.629  0.9988 -0.5738 -0.4959
 1823TIP3    H227029   5.675   1.805   7.481  0.5580  0.0688 -0.5697
 1824TIP3   OH227030   0.384   1.779   3.424  0.1580 -0.8796  0.1655
 1824TIP3    H127031   0.372   1.767   3.330 -0.2328  1.2490 -0.1050
 1824TIP3    H227032   0.296   1.786   3.459  0.3225  0.4288  0.3582
 1825TIP3   OH227033   1.063   2.721   8.410  0.4243  0.0546 -0.2542
 1825TIP3    H127034   1.067   2.630   8.380  1.3926  0.0956 -0.2944
 1825TIP3    H227035   0.994   2.721   8.477  1.6770 -1.1411  1.1203
 1826TIP3   OH227036   1.512   2.929   1.004 -0.3775 -0.0699  0.6090
 1826TIP3    H127037   1.430   2.979   1.001 -0.7206 -0.3625  3.1278
 1826TIP3    H227038   1.491   2.848   0.958 -1.5590 -0.1923  1.3158
 1827TIP3   OH227039   6.788   0.673   3.684  0.4136  0.7176 -0.2527
 1827TIP3    H127040   6.699   0.698   3.659  0.1991 -1.0981 -1.5320
 1827TIP3    H227041   6.780   0.639   3.773 -0.2865  0.0479 -0.5618
 1828TIP3   OH227042   4.127   5.654   1.924  0.2227 -0.3575  0.4800
 1828TIP3    H127043   4.172   5.737   1.943 -1.0020  0.7335 -1.1997
 1828TIP3    H227044   4.185   5.609   1.863  0.5539 -0.4453  0.8508
 1829TIP3   OH227045   2.247   5.284   0.332  0.3687  0.1306  0.0044
 1829TIP3    H127046   2.321   5.268   0.390  0.8940  1.6726 -0.2104
 1829TIP3    H227047   2.264   5.370   0.294 -0.5664 -0.3291 -1.5287
 1830TIP3   OH227048   2.291   2.509   2.990 -0.3196 -0.7177 -0.1187
 1830TIP3    H127049   2.206   2.468   3.001 -0.7480  0.2101  0.1008
 1830TIP3    H227050   2.323   2.524   3.079  0.1773 -1.2482 -0.1960
 1831TIP3   OH227051   5.848   2.977   2.062  0.4817  0.8038 -0.0688
 1831TIP3    H127052   5.914   3.006   1.999 -0.7662  1.0738 -1.2941
 1831TIP3    H227053   5.898   2.929   2.128  1.7937  0.1048 -1.4898
 1832TIP3   OH227054   2.357   6.537   0.169 -0.1691 -0.3921 -0.3387
 1832TIP3    H127055   2.384   6.482   0.096  0.7744 -1.2830  0.6371
 1832TIP3    H227056   2.278   6.581   0.139 -0.9525 -2.2783 -1.1482
 1833TIP3   OH227057   6.125   2.811   0.290  0.0635  0.6872 -0.5338
 1833TIP3    H127058   6.195   2.785   0.229 -0.9373  0.5041 -1.6399
 1833TIP3    H227059   6.054   2.840   0.234 -0.8819  0.5674  0.5625
 1834TIP3   OH227060   4.639   3.996   1.765  0.4265  0.3795  0.2742
 1834TIP3    H127061   4.697   3.926   1.794 -1.0184 -0.7553  0.5643
 1834TIP3    H227062   4.604   4.034   1.846 -4.0865 -3.1925  0.4637
 1835TIP3   OH227063   0.196   1.953   3.148  0.3463  0.0185  0.1226
 1835TIP3    H127064   0.230   2.042   3.133  1.9510 -0.3525  1.3546
 1835TIP3    H227065   0.132   1.963   3.218 -0.3884  0.3587 -0.5745
 1836TIP3   OH227066   0.093   1.164   1.414 -0.1690  0.0590 -0.5024
 1836TIP3    H127067   0.066   1.172   1.505 -1.1985 -0.3992 -0.7541
 1836TIP3    H227068   0.075   1.072   1.392  1.5509 -0.2549 -0.7080
 1837TIP3   OH227069   2.106   4.615   1.311 -0.4612 -0.9992  0.5707
 1837TIP3    H127070   2.166   4.685   1.333  0.4933 -1.5659 -0.1726
 1837TIP3    H227071   2.019   4.655   1.319 -0.1045 -0.6119  3.2415
 1838TIP3   OH227072   4.851   1.620   3.707 -0.6453 -0.1245  0.3294
 1838TIP3    H127073   4.779   1.615   3.770 -0.1387  0.8552  1.0212
 1838TIP3    H227074   4.863   1.714   3.691 -1.5376 -0.3728 -2.1877
 1839TIP3   OH227075   3.079   4.450   1.479  0.2849  0.3670  0.4189
 1839TIP3    H127076   3.082   4.545   1.477  0.6225  0.3739  1.0535
 1839TIP3    H227077   3.050   4.425   1.391  1.2843  1.0060 -0.1030
 1840TIP3   OH227078   0.181   1.698   1.042  0.2833  0.4027  0.3650
 1840TIP3    H127079   0.111   1.759   1.064 -0.1655 -0.5529  1.7186
 1840TIP3    H227080   0.136   1.623   1.004  0.7742  0.6191 -0.6902
 1841TIP3   OH227081   2.913   3.253   8.202  0.5332 -0.0809 -0.4173
 1841TIP3    H127082   2.877   3.288   8.121  0.7302  2.0057  0.3347
 1841TIP3    H227083   3.001   3.222   8.179 -0.2575 -1.6553 -1.4447
 1842TIP3   OH227084   0.016   3.588   1.557 -0.6860 -0.4143 -0.5601
 1842TIP3    H127085  -0.035   3.558   1.631 -2.9917  0.5878 -1.6474
 1842TIP3    H227086  -0.027   3.669   1.529  3.1707  2.1219  0.1374
 1843TIP3   OH227087   1.238   1.540   7.803  0.3753  0.3402 -0.0186
 1843TIP3    H127088   1.324   1.500   7.814  0.0459 -0.9392 -1.7154
 1843TIP3    H227089   1.196   1.489   7.734 -0.9121  2.3418 -0.7998
 1844TIP3   OH227090   2.784   6.278   8.353 -0.2052 -0.5319  0.5764
 1844TIP3    H127091   2.848   6.241   8.414  0.0923 -1.0626 -0.0436
 1844TIP3    H227092   2.703   6.231   8.371  0.0991 -1.3113 -0.0135
 1845TIP3   OH227093   1.832   3.212   2.797 -0.1174 -0.0748 -0.6120
 1845TIP3    H127094   1.739   3.215   2.823  0.1559 -0.7844  0.5428
 1845TIP3    H227095   1.878   3.251   2.871  0.6770 -1.8138 -0.1341
 1846TIP3   OH227096   2.621   4.740   2.229  0.0608  0.2701 -0.3832
 1846TIP3    H127097   2.556   4.748   2.299  0.8093  0.2928  0.3164
 1846TIP3    H227098   2.569   4.729   2.149 -0.8358  1.3758  0.0155
 1847TIP3   OH227099   6.035   5.460   0.660  0.2790  0.3842 -0.8319
 1847TIP3    H127100   5.978   5.524   0.618 -0.9444 -1.8926 -2.9162
 1847TIP3    H227101   6.117   5.464   0.611  0.1657  0.3151 -1.0307
 1848TIP3   OH227102   5.599   5.128   0.161  0.0023 -1.1421 -0.1086
 1848TIP3    H127103   5.547   5.050   0.181 -0.5275 -0.8830 -0.4543
 1848TIP3    H227104   5.534   5.195   0.140  0.3880 -0.3155  1.1682
 1849TIP3   OH227105   5.946   1.697   3.172 -0.0119 -0.1271 -0.0405
 1849TIP3    H127106   6.027   1.700   3.122 -0.3621  0.0599 -0.6017
 1849TIP3    H227107   5.952   1.616   3.223  1.0400  0.4665  0.8117
 1850TIP3   OH227108   0.639   1.196   7.708 -0.2955 -0.3880  0.3554
 1850TIP3    H127109   0.647   1.167   7.798  0.4326  0.6403  0.6428
 1850TIP3    H227110   0.717   1.161   7.664  0.0853  0.2999  0.4736
 1851TIP3   OH227111   0.025   5.616   2.171 -0.0575 -0.0007 -0.6305
 1851TIP3    H127112   0.087   5.612   2.098 -0.2549  0.5932 -0.8344
 1851TIP3    H227113  -0.061   5.622   2.130 -0.1223  1.0308 -0.3584
 1852TIP3   OH227114   0.160   1.125   2.572  0.7776  0.4548  0.3421
 1852TIP3    H127115   0.107   1.097   2.647  0.4901  0.6565  0.2172
 1852TIP3    H227116   0.245   1.148   2.609  0.4909  0.9996  0.6772
 1853TIP3   OH227117   6.394   0.627   1.717 -0.4761 -0.2765  0.8666
 1853TIP3    H127118   6.339   0.705   1.724 -1.3407 -0.6765 -0.8990
 1853TIP3    H227119   6.364   0.584   1.637  1.0420 -1.6037  0.9696
 1854TIP3   OH227120   0.413   2.483   0.166 -0.0417  0.1304  0.4687
 1854TIP3    H127121   0.356   2.406   0.159  0.1430  0.1094 -1.3168
 1854TIP3    H227122   0.354   2.557   0.156  0.2230  0.1008 -2.2430
 1855TIP3   OH227123   0.643   6.911   1.184 -0.2101 -0.2984  0.1168
 1855TIP3    H127124   0.647   6.833   1.239  2.4414 -2.0699 -2.3052
 1855TIP3    H227125   0.681   6.980   1.238 -1.8479 -0.7809  2.0142
 1856TIP3   OH227126   3.112   3.306   7.244  0.3339  0.0845 -0.0464
 1856TIP3    H127127   3.101   3.214   7.220 -0.4071  0.7261 -2.4595
 1856TIP3    H227128   3.042   3.351   7.197  0.8999  1.9303  0.8041
 1857TIP3   OH227129   3.426   4.413   2.406 -0.3239 -0.1649  0.0346
 1857TIP3    H127130   3.330   4.407   2.409 -0.5057  1.7353 -0.6240
 1857TIP3    H227131   3.448   4.473   2.478  0.3350 -0.1779 -0.1520
 1858TIP3   OH227132   0.795   0.983   2.537 -1.0955 -0.3641  0.7124
 1858TIP3    H127133   0.818   0.977   2.630 -2.0650 -0.5490  0.9492
 1858TIP3    H227134   0.805   0.893   2.504 -0.4351 -0.2390  0.5486
 1859TIP3   OH227135   4.050   3.616   2.593  0.2070 -0.3723 -0.0583
 1859TIP3    H127136   3.966   3.585   2.627  0.2954  0.5919  1.0810
 1859TIP3    H227137   4.102   3.637   2.670  0.2071  2.4295 -0.6832
 1860TIP3   OH227138   5.583   6.603   0.054 -0.4330  0.6508 -0.4320
 1860TIP3    H127139   5.649   6.657   0.098 -0.0952  0.0275 -0.1611
 1860TIP3    H227140   5.596   6.515   0.090 -0.9259  0.3708 -0.9212
 1861TIP3   OH227141   5.185   3.249   0.127  0.1367 -0.4672  0.0473
 1861TIP3    H127142   5.134   3.250   0.046  2.0488  1.2638 -1.2672
 1861TIP3    H227143   5.185   3.341   0.156 -0.0710 -0.9675  1.7524
 1862TIP3   OH227144   1.714   6.057   0.238  0.2617 -0.9755 -0.1175
 1862TIP3    H127145   1.734   6.137   0.286  0.6753 -0.8588 -0.4768
 1862TIP3    H227146   1.741   6.075   0.148  1.2367 -1.8368 -0.0208
 1863TIP3   OH227147   6.747   5.494   3.035  0.1747  0.1261  0.5563
 1863TIP3    H127148   6.722   5.419   2.982 -3.5711  2.0482 -0.7165
 1863TIP3    H227149   6.725   5.469   3.125  0.1282 -0.7002  0.3225
 1864TIP3   OH227150   0.731   6.140   7.482 -0.6957 -0.0259 -0.5449
 1864TIP3    H127151   0.698   6.067   7.535  1.3335 -0.2952  0.4375
 1864TIP3    H227152   0.784   6.098   7.415 -1.9899  0.4184 -1.8994
 1865TIP3   OH227153   5.263   2.524   2.390  0.1783 -0.3496  0.4579
 1865TIP3    H127154   5.334   2.526   2.326  0.0930 -3.6001  0.1054
 1865TIP3    H227155   5.185   2.549   2.340  0.5600  0.0447  0.0470
 1866TIP3   OH227156   2.302   5.472   0.699  0.3080 -0.4173  0.3922
 1866TIP3    H127157   2.319   5.431   0.614  2.9048  0.0584  0.6002
 1866TIP3    H227158   2.350   5.555   0.695 -1.1841  0.5539  1.6112
 1867TIP3   OH227159   2.559   6.821   2.837  0.3296  0.1391 -0.1338
 1867TIP3    H127160   2.562   6.776   2.753  0.1266 -0.9767  0.4476
 1867TIP3    H227161   2.466   6.838   2.851  0.3286 -0.0342  0.0594
 1868TIP3   OH227162   2.402   4.691   1.190 -0.4012  0.7074 -0.5784
 1868TIP3    H127163   2.323   4.743   1.207 -0.2474  1.4851 -2.0421
 1868TIP3    H227164   2.467   4.724   1.252 -0.6243  1.5423 -0.7787
 1869TIP3   OH227165   3.262   3.501   7.344 -0.6209 -0.1305  0.1710
 1869TIP3    H127166   3.198   3.439   7.308 -1.1131 -0.0387  0.8697
 1869TIP3    H227167   3.317   3.524   7.269 -0.5916 -1.2123 -0.1547
 1870TIP3   OH227168   4.686   6.008   1.548 -0.1178  0.0490 -0.3268
 1870TIP3    H127169   4.751   6.076   1.530  1.7246 -1.0068  1.8331
 1870TIP3    H227170   4.606   6.057   1.569  1.0943  1.6233  0.9583
 1871TIP3   OH227171   2.241   6.284   0.522 -0.7326 -0.2243  0.3415
 1871TIP3    H127172   2.218   6.371   0.490  0.5913 -0.5563 -1.7244
 1871TIP3    H227173   2.328   6.294   0.560  0.0940 -0.8479 -1.2569
 1872TIP3   OH227174   5.948   0.987   0.960 -0.2657  0.0962  0.4561
 1872TIP3    H127175   5.909   0.966   1.045  1.5156 -0.6035  1.1663
 1872TIP3    H227176   5.977   1.078   0.969  0.4307 -0.1511  0.8413
 1873TIP3   OH227177   5.159   3.545   0.880  0.3900 -0.0433  0.2994
 1873TIP3    H127178   5.066   3.554   0.897  0.0438 -1.1784 -0.8977
 1873TIP3    H227179   5.178   3.610   0.812  0.9378  1.6155  1.9344
 1874TIP3   OH227180   5.557   6.619   2.278  0.1247  0.9059 -0.2706
 1874TIP3    H127181   5.628   6.676   2.248 -0.0304  0.5065 -1.4488
 1874TIP3    H227182   5.595   6.568   2.349  0.5913  1.6809  0.0589
 1875TIP3   OH227183   2.860   3.036   7.952  0.4580 -0.1187 -0.0784
 1875TIP3    H127184   2.931   3.034   8.017 -1.8572 -0.2889  2.6640
 1875TIP3    H227185   2.846   3.130   7.936  1.9820 -0.0988 -1.5558
 1876TIP3   OH227186   6.389   4.128   7.947  0.6243  0.0542 -0.0076
 1876TIP3    H127187   6.418   4.100   8.034  0.8153 -0.7974 -0.3362
 1876TIP3    H227188   6.329   4.059   7.918 -0.3448  0.9091 -0.0814
 1877TIP3   OH227189   5.216   4.945   1.618 -0.0993  0.3012  0.4171
 1877TIP3    H127190   5.192   4.981   1.533 -1.5797 -0.1615  0.6102
 1877TIP3    H227191   5.273   4.871   1.598  0.9753  1.2262 -0.0723
 1878TIP3   OH227192   2.368   5.251   7.445 -0.5131 -0.1563  0.0294
 1878TIP3    H127193   2.398   5.314   7.511  1.4612 -1.8091  0.8052
 1878TIP3    H227194   2.393   5.290   7.362  2.0950 -0.5067  0.5672
 1879TIP3   OH227195   2.439   6.435   2.418  0.1424  0.0420 -0.5955
 1879TIP3    H127196   2.452   6.369   2.485 -0.1521  0.8750  0.2989
 1879TIP3    H227197   2.467   6.392   2.337 -3.0307 -2.3013 -0.6183
 1880TIP3   OH227198   2.833   4.086   2.931 -0.2948  0.2507 -0.2393
 1880TIP3    H127199   2.801   4.000   2.902  1.1264 -0.4898  0.2739
 1880TIP3    H227200   2.898   4.111   2.866 -0.9799  1.1359 -0.5944
 1881TIP3   OH227201   5.862   2.376   3.372 -0.3895 -0.2460 -0.3102
 1881TIP3    H127202   5.938   2.327   3.340  1.2189  2.0539 -0.2482
 1881TIP3    H227203   5.870   2.373   3.467  1.7590  2.8642 -0.2446
 1882TIP3   OH227204   4.765   1.947   8.454  0.1307  0.4698  0.1036
 1882TIP3    H127205   4.768   1.980   8.364 -0.9466 -0.7522 -0.4027
 1882TIP3    H227206   4.796   2.021   8.507  1.0095  1.1395 -1.2732
 1883TIP3   OH227207   0.361   3.345   1.260 -0.1181  0.1788 -0.1701
 1883TIP3    H127208   0.393   3.258   1.284  3.1409  0.6001 -2.3530
 1883TIP3    H227209   0.414   3.405   1.312 -0.1681  0.8950 -0.9355
 1884TIP3   OH227210   2.869   0.838   1.500  0.3060 -0.5228 -0.5639
 1884TIP3    H127211   2.874   0.911   1.438 -0.4066  1.0325  1.1332
 1884TIP3    H227212   2.960   0.813   1.515  0.6284  0.7392 -0.3572
 1885TIP3   OH227213   2.884   2.805   2.264  0.2215  0.1477  0.0350
 1885TIP3    H127214   2.814   2.850   2.313 -0.4661  0.7689 -1.4662
 1885TIP3    H227215   2.929   2.875   2.217  1.0672 -0.4047  0.0027
 1886TIP3   OH227216   4.526   2.672   1.581  0.3917 -0.1072 -0.4192
 1886TIP3    H127217   4.462   2.742   1.596  0.3117 -0.1148 -0.7190
 1886TIP3    H227218   4.590   2.683   1.651  0.0063 -0.1662 -0.0558
 1887TIP3   OH227219   3.992   3.918   7.983 -0.5867 -0.1084  0.2028
 1887TIP3    H127220   3.930   3.982   8.019 -0.6964  0.3806 -0.8112
 1887TIP3    H227221   3.959   3.900   7.895 -0.2656 -1.1874  0.2909
 1888TIP3   OH227222   3.984   0.458   2.601  0.2414  0.3597  0.1842
 1888TIP3    H127223   4.077   0.436   2.599 -0.1198 -1.9812  2.6203
 1888TIP3    H227224   3.940   0.377   2.573 -1.0760  0.5945  1.4607
 1889TIP3   OH227225   0.857   5.055   2.441  0.1418  0.1240 -0.4497
 1889TIP3    H127226   0.910   4.981   2.413 -1.0656 -0.6044 -0.8920
 1889TIP3    H227227   0.804   5.077   2.364 -0.1654  0.8522 -0.0390
 1890TIP3   OH227228   2.707   0.279   0.963 -0.5737 -0.1732  0.3642
 1890TIP3    H127229   2.615   0.276   0.936 -0.0814 -1.5292 -1.3584
 1890TIP3    H227230   2.725   0.192   0.998  0.4016 -0.3960 -0.6384
 1891TIP3   OH227231   5.742   4.957   1.126 -0.1118 -0.1596  0.0098
 1891TIP3    H127232   5.797   5.033   1.149 -0.5522  0.1527  0.0490
 1891TIP3    H227233   5.654   4.993   1.118 -0.1866 -0.4975 -0.8827
 1892TIP3   OH227234   0.925   6.168   0.978 -0.3215  0.3092 -0.0625
 1892TIP3    H127235   0.912   6.124   1.062 -0.5031  1.8581  0.7656
 1892TIP3    H227236   0.837   6.172   0.939 -0.4991  0.9435  0.3928
 1893TIP3   OH227237   0.313   5.758   7.919  0.4229 -0.1675  0.1189
 1893TIP3    H127238   0.351   5.691   7.861  2.9834  0.4025  1.0098
 1893TIP3    H227239   0.365   5.836   7.903  0.4417  0.3385  2.2808
 1894TIP3   OH227240   3.520   0.777   0.524 -0.5850  0.4463 -0.3149
 1894TIP3    H127241   3.474   0.743   0.447 -0.6946 -1.6326  0.5921
 1894TIP3    H227242   3.586   0.837   0.488  0.4193 -1.6396 -2.2231
 1895TIP3   OH227243   3.011   5.583   3.300  0.2231  0.3522 -0.3662
 1895TIP3    H127244   3.088   5.543   3.341  1.9550  1.1391 -2.6258
 1895TIP3    H227245   3.047   5.639   3.232 -2.3080  2.4991 -0.0873
 1896TIP3   OH227246   4.522   3.340   0.404 -0.7018  0.2138  0.0229
 1896TIP3    H127247   4.502   3.283   0.478  1.5788  0.5435  0.9755
 1896TIP3    H227248   4.534   3.279   0.330 -0.4135 -0.3553  0.5290
 1897TIP3   OH227249   3.493   2.042   1.467 -0.3460 -0.0678 -0.1439
 1897TIP3    H127250   3.538   1.961   1.440  2.7749  1.2734  0.6246
 1897TIP3    H227251   3.413   2.011   1.510  0.0361 -2.6644 -1.0867
 1898TIP3   OH227252   6.129   0.280   3.201 -0.3134  0.7519  0.4776
 1898TIP3    H127253   6.044   0.321   3.217 -0.7924 -0.5881  1.5204
 1898TIP3    H227254   6.108   0.202   3.150  0.1473 -0.1936  1.7033
 1899TIP3   OH227255   2.438   5.727   8.490  0.2292 -0.5760 -0.4445
 1899TIP3    H127256   2.503   5.674   8.443 -1.3255 -3.2434  0.1731
 1899TIP3    H227257   2.451   5.704   8.582 -0.1762  0.5398 -0.1001
 1900TIP3   OH227258   0.309   6.717   2.141  0.2510  0.0493 -0.5051
 1900TIP3    H127259   0.286   6.746   2.053 -1.4367 -2.2633 -0.9296
 1900TIP3    H227260   0.269   6.630   2.149 -1.6220  1.0293  3.3121
 1901TIP3   OH227261   5.107   6.574   0.344 -0.0691 -0.9645 -0.3681
 1901TIP3    H127262   5.143   6.633   0.410  3.1909 -0.9990 -1.9023
 1901TIP3    H227263   5.063   6.631   0.281 -0.3855 -0.6088  0.1672
 1902TIP3   OH227264   1.039   2.116   0.134 -0.0051 -0.0249  0.6575
 1902TIP3    H127265   1.132   2.131   0.116 -0.7249  3.6979 -0.7491
 1902TIP3    H227266   1.023   2.157   0.219 -0.7437  1.3863 -0.1296
 1903TIP3   OH227267   2.645   6.046   8.389 -0.3627 -0.4470 -0.0268
 1903TIP3    H127268   2.571   6.036   8.329 -2.2293  1.1769  1.8206
 1903TIP3    H227269   2.609   6.025   8.475  1.4840 -0.1233  0.8831
 1904TIP3   OH227270   1.617   5.037   2.374 -0.2532 -0.6081  0.0604
 1904TIP3    H127271   1.687   5.101   2.364 -0.2155 -0.6836 -0.1694
 1904TIP3    H227272   1.577   5.031   2.287 -0.4656 -0.6567  0.1597
 1905TIP3   OH227273   5.628   3.466   2.859 -0.4182 -0.1476  0.0595
 1905TIP3    H127274   5.536   3.449   2.881 -0.1182  1.0326  2.6472
 1905TIP3    H227275   5.676   3.396   2.903 -0.0701 -1.3508 -2.1144
 1906TIP3   OH227276   4.065   2.355   0.849 -0.3399  0.6320  0.4144
 1906TIP3    H127277   4.124   2.299   0.899 -0.8992  0.4081  0.8282
 1906TIP3    H227278   4.030   2.417   0.913 -1.2704  0.1667  0.3692
 1907TIP3   OH227279   6.683   1.986   2.781 -0.4122  0.7479  0.2283
 1907TIP3    H127280   6.705   1.893   2.774 -1.6132  0.4729 -0.1421
 1907TIP3    H227281   6.633   2.005   2.702 -0.7210  1.5490  0.6017
 1908TIP3   OH227282   4.355   1.736   0.877  0.3781 -0.2356  0.6351
 1908TIP3    H127283   4.444   1.704   0.890 -0.4966 -2.5683  1.3664
 1908TIP3    H227284   4.302   1.684   0.937 -1.8848 -1.0517 -1.8923
 1909TIP3   OH227285   1.553   3.719   2.006 -0.3337 -0.2495 -0.5916
 1909TIP3    H127286   1.573   3.642   2.060  0.8081 -0.3614 -1.1336
 1909TIP3    H227287   1.470   3.697   1.962  0.1938 -1.3691 -1.0699
 1910TIP3   OH227288   6.219   6.883   8.422  0.2836  0.8980 -0.1196
 1910TIP3    H127289   6.281   6.828   8.375  0.3403  1.2939 -0.5184
 1910TIP3    H227290   6.168   6.822   8.475 -0.4038  0.3149 -1.3920
 1911TIP3   OH227291   3.323   0.365   1.264 -0.2372  0.4449  0.5493
 1911TIP3    H127292   3.249   0.306   1.247  1.4997 -1.3755 -1.2274
 1911TIP3    H227293   3.307   0.440   1.207  0.4503 -1.0472 -1.6957
 1912TIP3   OH227294   0.083   3.132   8.360  0.4100  0.1368  0.1853
 1912TIP3    H127295   0.087   3.167   8.271  0.9060 -0.4523 -0.0351
 1912TIP3    H227296   0.124   3.046   8.354 -1.3916 -0.8078  0.5596
 1913TIP3   OH227297   2.282   6.554   2.657  0.3484 -0.1458  0.1913
 1913TIP3    H127298   2.360   6.602   2.629  0.6635  0.2895  1.7350
 1913TIP3    H227299   2.209   6.601   2.617  0.6478  1.7173  1.7466
 1914TIP3   OH227300   0.016   0.335   2.923 -0.2317 -0.3252 -0.9905
 1914TIP3    H127301   0.003   0.411   2.865  0.4455 -0.0053 -0.7395
 1914TIP3    H227302   0.111   0.325   2.927 -0.3119 -0.9857 -0.7515
 1915TIP3   OH227303   3.111   1.047   8.088  0.2336  0.3465 -0.9404
 1915TIP3    H127304   3.036   1.096   8.122  0.3389  0.1122 -0.3573
 1915TIP3    H227305   3.187   1.098   8.117  0.3443 -0.1439 -0.3353
 1916TIP3   OH227306   2.852   1.926   2.662 -0.0117 -0.5079  0.1440
 1916TIP3    H127307   2.844   1.889   2.750 -1.1903 -0.6484  0.0032
 1916TIP3    H227308   2.854   1.850   2.605  2.2660 -0.4812  0.0959
 1917TIP3   OH227309   0.661   3.210   7.675  0.3952 -0.4051  0.5642
 1917TIP3    H127310   0.573   3.208   7.637  1.0123  2.6620 -1.4256
 1917TIP3    H227311   0.717   3.174   7.606  0.9496 -0.0946  0.8469
 1918TIP3   OH227312   0.828   3.908   7.909  0.2564  0.2347  0.2251
 1918TIP3    H127313   0.891   3.838   7.929  0.5911  0.4960  0.0887
 1918TIP3    H227314   0.779   3.875   7.833 -1.0150 -0.7628  1.4062
 1919TIP3   OH227315   0.440   0.254   2.660  0.3522 -0.1509 -0.5161
 1919TIP3    H127316   0.386   0.215   2.591 -2.8708  1.0131  1.0938
 1919TIP3    H227317   0.408   0.345   2.667  0.7308 -0.1261  2.2057
 1920TIP3   OH227318   3.593   4.017   0.339 -0.5553 -0.5238 -0.3280
 1920TIP3    H127319   3.591   4.112   0.334  0.2238 -0.5117 -0.5131
 1920TIP3    H227320   3.547   3.987   0.261  0.2150 -0.2974 -0.8767
 1921TIP3   OH227321   4.459   2.362   1.751 -0.1359 -0.4578  0.2721
 1921TIP3    H127322   4.392   2.429   1.737  0.8233  0.5613  0.4148
 1921TIP3    H227323   4.538   2.399   1.712  0.1357 -2.0692 -0.7983
 1922TIP3   OH227324   1.818   3.853   2.373 -0.0829  0.3618  0.4859
 1922TIP3    H127325   1.732   3.849   2.414 -0.7553  2.9795 -0.4658
 1922TIP3    H227326   1.799   3.853   2.279  1.3242 -3.8794 -0.0281
 1923TIP3   OH227327   0.884   4.998   7.722 -0.3049 -0.4142  0.0310
 1923TIP3    H127328   0.867   5.083   7.762  0.7780 -0.0126 -0.3486
 1923TIP3    H227329   0.951   5.015   7.656 -1.0346 -1.3286 -0.9754
 1924TIP3   OH227330   5.687   6.195   8.193 -0.7943 -0.4317 -0.2292
 1924TIP3    H127331   5.751   6.264   8.172  0.0320 -0.6951  1.2519
 1924TIP3    H227332   5.671   6.151   8.110  0.2555  0.2362 -0.8175
 1925TIP3   OH227333   2.339   1.076   1.642 -0.3531 -0.4990  0.3905
 1925TIP3    H127334   2.398   1.045   1.574  2.7521  2.1574  1.5952
 1925TIP3    H227335   2.286   1.144   1.599  0.3458 -0.0747  0.1822
 1926TIP3   OH227336   5.112   4.136   0.213  0.2589 -0.3601 -0.3115
 1926TIP3    H127337   5.135   4.229   0.212 -0.9517 -0.0510 -0.2351
 1926TIP3    H227338   5.130   4.106   0.123 -0.2094  0.1709 -0.5901
 1927TIP3   OH227339   3.631   1.553   7.928  0.1404 -0.5148  0.2563
 1927TIP3    H127340   3.723   1.535   7.947  0.3681 -1.6607 -1.7255
 1927TIP3    H227341   3.633   1.622   7.861 -0.4283 -0.8907 -0.1559
 1928TIP3   OH227342   3.481   5.414   8.286 -0.7341  0.2902  0.0273
 1928TIP3    H127343   3.469   5.339   8.345 -1.4030 -1.0009 -1.6644
 1928TIP3    H227344   3.416   5.478   8.316 -2.1535 -0.9692 -0.2323
 1929TIP3   OH227345   2.104   1.780   7.845  0.0358 -0.4778  0.3670
 1929TIP3    H127346   2.117   1.743   7.758 -2.3828  1.1386 -0.7923
 1929TIP3    H227347   2.027   1.733   7.879 -1.3205  1.3764  0.0299
 1930TIP3   OH227348   5.338   1.749   1.481 -0.1665 -0.2944  0.1360
 1930TIP3    H127349   5.310   1.667   1.522  1.3731 -0.7494  0.3493
 1930TIP3    H227350   5.391   1.793   1.547  1.3148 -0.4504 -0.8936
 1931TIP3   OH227351   4.526   0.049   2.072 -0.7490  0.3137  0.5960
 1931TIP3    H127352   4.485   0.028   1.988  1.7415 -0.6762 -0.4731
 1931TIP3    H227353   4.477   0.125   2.105 -2.1106  0.4128 -1.5073
 1932TIP3   OH227354   4.438   5.762   1.024 -0.0133  0.0766  0.0367
 1932TIP3    H127355   4.363   5.820   1.033 -1.1637 -1.3398 -0.1603
 1932TIP3    H227356   4.441   5.714   1.107  0.5083 -0.0930 -0.0775
 1933TIP3   OH227357   3.220   0.112   7.958 -0.3068  0.1235  0.2359
 1933TIP3    H127358   3.242   0.098   8.050 -1.5200 -0.1650  0.4993
 1933TIP3    H227359   3.125   0.124   7.958 -0.4430 -0.8071 -1.0834
 1934TIP3   OH227360   4.611   4.074   7.829  0.4758 -0.1616  0.4289
 1934TIP3    H127361   4.556   4.139   7.786  1.3074 -0.1072 -0.6167
 1934TIP3    H227362   4.593   4.083   7.922 -1.2245 -0.1207  0.1189
 1935TIP3   OH227363   6.039   6.262   8.275  0.4168  0.8178  0.4800
 1935TIP3    H127364   6.026   6.214   8.357  2.4120  1.4931  1.2391
 1935TIP3    H227365   6.114   6.218   8.234 -0.1329  0.9229 -0.6634
 1936TIP3   OH227366   5.570   0.596   3.781 -0.4040 -0.2080  0.0957
 1936TIP3    H127367   5.665   0.591   3.791 -0.5372  0.7104  2.3682
 1936TIP3    H227368   5.557   0.647   3.701  0.9901 -0.9788 -0.6582
 1937TIP3   OH227369   5.865   4.643   2.002 -0.8499  0.1848  1.0052
 1937TIP3    H127370   5.906   4.722   1.968 -1.8769 -0.0830 -1.0157
 1937TIP3    H227371   5.796   4.674   2.061 -0.6013  0.7681  0.9861
 1938TIP3   OH227372   5.782   6.750   2.219 -0.1923  0.1071  0.1529
 1938TIP3    H127373   5.782   6.753   2.123  2.3039 -0.9818  0.0398
 1938TIP3    H227374   5.853   6.689   2.241 -1.1125 -0.1550  2.6978
 1939TIP3   OH227375   4.158   1.373   8.280  0.8825 -0.2258 -0.0351
 1939TIP3    H127376   4.248   1.403   8.294  0.2660  0.7800  2.1310
 1939TIP3    H227377   4.104   1.448   8.303 -0.5589 -0.5322 -2.1031
 1940TIP3   OH227378   1.074   3.793   0.026 -0.3700  0.1694  0.0359
 1940TIP3    H127379   1.070   3.887   0.041  2.3780  0.3820 -0.0768
 1940TIP3    H227380   1.002   3.775  -0.035 -1.0541  2.1460  0.2157
 1941TIP3   OH227381   1.645   6.862   0.903 -0.1443 -0.3604  0.2877
 1941TIP3    H127382   1.584   6.859   0.830  0.6361 -0.8349 -0.3656
 1941TIP3    H227383   1.634   6.950   0.939  1.2998  0.9014 -2.0552
 1942TIP3   OH227384   0.251   2.905   0.806  0.9472 -0.2869  0.1237
 1942TIP3    H127385   0.174   2.851   0.788  1.2129 -1.1026  1.2558
 1942TIP3    H227386   0.313   2.881   0.737  0.3482  0.0599 -0.5466
 1943TIP3   OH227387   0.134   4.737   8.471 -0.2477 -0.4745  0.1765
 1943TIP3    H127388   0.136   4.795   8.547 -0.5283 -2.7038  2.0093
 1943TIP3    H227389   0.041   4.734   8.446  0.1241  2.1836 -1.9580
 1944TIP3   OH227390   5.919   6.212   3.041  0.2267  0.0293  0.5873
 1944TIP3    H127391   5.929   6.193   2.948  0.0467 -0.1440  0.6032
 1944TIP3    H227392   5.897   6.128   3.081  0.0453  0.1503  0.7488
 1945TIP3   OH227393   6.951   4.804   2.313  0.0613  0.2316 -0.4773
 1945TIP3    H127394   6.874   4.845   2.350 -0.1557 -0.3395 -0.2863
 1945TIP3    H227395   6.927   4.785   2.223 -0.0560 -0.0301 -0.3917
 1946TIP3   OH227396   6.570   3.216   2.527  0.3835  0.0575 -0.0452
 1946TIP3    H127397   6.557   3.218   2.622  0.5744 -2.9342  0.1625
 1946TIP3    H227398   6.560   3.306   2.499 -1.4104  0.7858  2.5885
 1947TIP3   OH227399   1.568   2.078   1.708  0.2256  0.5616 -0.2814
 1947TIP3    H127400   1.531   1.996   1.676  1.8083  0.1947 -1.2662
 1947TIP3    H227401   1.538   2.144   1.645 -1.7623  0.9532  0.9816
 1948TIP3   OH227402   4.722   4.548   0.828  0.2276 -0.1112  0.0014
 1948TIP3    H127403   4.735   4.489   0.902 -0.4335 -0.0533  0.1686
 1948TIP3    H227404   4.744   4.635   0.862 -1.0758  0.0644  0.4424
 1949TIP3   OH227405   5.052   0.102   2.941  0.0516 -0.0161 -0.1243
 1949TIP3    H127406   5.140   0.066   2.928  0.3736  0.2052  1.2961
 1949TIP3    H227407   5.014   0.105   2.853  0.9435 -1.4107 -0.5829
 1950TIP3   OH227408   2.255   1.034   0.254 -0.1594  0.1794  0.7646
 1950TIP3    H127409   2.325   1.056   0.315  0.1085  1.5269  0.0002
 1950TIP3    H227410   2.293   1.045   0.167 -0.9084 -0.4725  0.3286
 1951TIP3   OH227411   3.528   4.123   8.113  0.2685 -0.4577 -0.0006
 1951TIP3    H127412   3.610   4.074   8.105 -0.2562 -1.2955 -0.3343
 1951TIP3    H227413   3.507   4.150   8.023 -0.3670 -1.1704 -0.0798
 1952TIP3   OH227414   1.563   5.990   8.383  0.0500  0.3742 -0.0379
 1952TIP3    H127415   1.575   5.909   8.333 -0.2147  1.1276 -1.3756
 1952TIP3    H227416   1.474   6.018   8.362  0.1879  1.0877  0.2975
 1953TIP3   OH227417   4.409   1.838   1.601  0.7329 -0.3128 -0.3587
 1953TIP3    H127418   4.487   1.782   1.608  1.9045  1.1816 -0.9803
 1953TIP3    H227419   4.410   1.889   1.682 -0.5975 -1.4463  0.4207
 1954TIP3   OH227420   1.713   3.578   3.008  0.1344 -0.3303 -0.2803
 1954TIP3    H127421   1.742   3.488   3.023 -0.3985 -0.0213  3.7616
 1954TIP3    H227422   1.632   3.586   3.057  1.5539  2.9741  1.9279
 1955TIP3   OH227423   2.227   1.366   1.092 -0.4422  0.2219  0.0572
 1955TIP3    H127424   2.308   1.319   1.073  0.0327  0.9489  0.2546
 1955TIP3    H227425   2.173   1.301   1.138 -0.1217 -0.3782 -0.3950
 1956TIP3   OH227426   1.248   6.155   0.675  0.7070  0.1075  0.1902
 1956TIP3    H127427   1.293   6.121   0.597  0.3777 -2.2369  0.9447
 1956TIP3    H227428   1.172   6.202   0.640  1.0118 -0.1941 -0.9372
 1957TIP3   OH227429   6.686   3.442   2.411 -0.8058  0.2357  0.2780
 1957TIP3    H127430   6.723   3.413   2.328 -1.6510 -0.9986  0.3057
 1957TIP3    H227431   6.756   3.427   2.475 -0.3687  0.6126 -0.1051
 1958TIP3   OH227432   4.077   3.139   0.428 -0.2142 -0.2067  0.9779
 1958TIP3    H127433   4.125   3.216   0.397  1.0942 -0.4608  2.2817
 1958TIP3    H227434   4.014   3.174   0.491  1.2139 -0.2820  2.5032
 1959TIP3   OH227435   6.397   1.406   1.595 -0.1104 -0.2669 -0.3419
 1959TIP3    H127436   6.362   1.492   1.615  0.3682 -0.2568  0.4794
 1959TIP3    H227437   6.347   1.377   1.518 -2.3475 -0.5052  1.1171
 1960TIP3   OH227438   1.603   1.713   2.168 -0.1243 -0.2668 -0.1546
 1960TIP3    H127439   1.577   1.679   2.083 -0.5403 -1.6352  0.4973
 1960TIP3    H227440   1.670   1.653   2.200  0.1982  0.3609  0.3896
 1961TIP3   OH227441   4.063   3.798   1.368 -0.0709 -0.3739 -0.6717
 1961TIP3    H127442   4.117   3.827   1.295 -0.2774 -2.2427 -1.6101
 1961TIP3    H227443   3.973   3.819   1.342 -0.1489 -1.0863 -0.9835
 1962TIP3   OH227444   5.943   0.565   0.006  0.1600 -0.0359  0.0723
 1962TIP3    H127445   5.926   0.471   0.002 -1.1848  0.2335 -1.2139
 1962TIP3    H227446   5.999   0.582  -0.070  0.6568  0.1677  0.4758
 1963TIP3   OH227447   3.362   0.224   1.768  0.0281  0.0636 -0.0145
 1963TIP3    H127448   3.346   0.152   1.829  0.8628 -0.3655 -0.2816
 1963TIP3    H227449   3.435   0.193   1.714  0.1039  0.9330 -0.4219
 1964TIP3   OH227450   6.410   3.302   1.805  0.1238  0.0317  0.0505
 1964TIP3    H127451   6.368   3.333   1.886 -1.9025 -0.7668 -0.6300
 1964TIP3    H227452   6.503   3.322   1.817 -0.1388  0.0692  2.5006
 1965TIP3   OH227453   5.913   2.031   7.623 -0.2586 -0.1961  0.0922
 1965TIP3    H127454   5.976   2.054   7.554 -0.3643  1.6103  0.5468
 1965TIP3    H227455   5.857   1.964   7.583  1.4290 -1.2723 -0.5862
 1966TIP3   OH227456   4.712   2.597   3.618 -0.2842  0.3894 -0.2258
 1966TIP3    H127457   4.695   2.682   3.577 -0.1438  0.7840  0.5069
 1966TIP3    H227458   4.679   2.607   3.707  0.2169 -0.1497  0.0271
 1967TIP3   OH227459   0.847   5.033   8.030 -0.1853 -0.3569  0.1576
 1967TIP3    H127460   0.830   4.941   8.047  2.4532 -1.1278 -0.9445
 1967TIP3    H227461   0.802   5.051   7.947  0.0342 -0.8882 -0.0774
 1968TIP3   OH227462   3.291   3.427   1.721 -0.4637  0.7284  0.2196
 1968TIP3    H127463   3.352   3.444   1.793 -0.7093  1.9938  0.1494
 1968TIP3    H227464   3.295   3.332   1.709  1.3511  0.7396  0.3516
 1969TIP3   OH227465   0.829   0.105   0.723  0.0842  0.3649 -0.1877
 1969TIP3    H127466   0.803   0.094   0.815 -0.4449 -1.0755 -0.4773
 1969TIP3    H227467   0.918   0.141   0.728  1.2996 -2.4619  0.9996
 1970TIP3   OH227468   3.892   1.609   2.940 -0.1926  0.4814  0.3720
 1970TIP3    H127469   3.937   1.691   2.959 -2.4277  1.6620  0.7879
 1970TIP3    H227470   3.827   1.600   3.010 -1.7368 -0.2936 -1.1082
 1971TIP3   OH227471   4.162   2.326   1.499 -0.1859 -0.3062  0.1483
 1971TIP3    H127472   4.095   2.392   1.517  0.3521  0.0714  0.7853
 1971TIP3    H227473   4.136   2.288   1.415 -2.3709 -1.6152  1.3227
 1972TIP3   OH227474   2.681   6.590   1.479 -0.8975 -0.2120 -0.2098
 1972TIP3    H127475   2.695   6.497   1.498 -0.3391  0.1826  1.5281
 1972TIP3    H227476   2.601   6.613   1.526 -1.9950 -0.1472 -1.9968
 1973TIP3   OH227477   4.569   4.119   1.519  0.1623  0.6149 -0.0719
 1973TIP3    H127478   4.592   4.208   1.542 -1.5391  0.8535  0.8667
 1973TIP3    H227479   4.569   4.071   1.602 -0.4993  0.1235 -0.3455
 1974TIP3   OH227480   6.486   5.510   3.151  0.2024  0.6042  0.2931
 1974TIP3    H127481   6.533   5.458   3.216  0.9824  0.4083 -0.4056
 1974TIP3    H227482   6.413   5.455   3.124 -0.8401  1.1577  1.8424
 1975TIP3   OH227483   6.931   4.847   1.375 -0.3188 -0.6248  0.6846
 1975TIP3    H127484   6.967   4.809   1.295  2.8151 -0.8983  2.0890
 1975TIP3    H227485   6.937   4.942   1.361  0.4724 -0.6707  0.7038
 1976TIP3   OH227486   2.666   4.253   1.495 -0.3265 -0.5861 -0.2528
 1976TIP3    H127487   2.650   4.266   1.401  0.7228  1.4486 -0.1956
 1976TIP3    H227488   2.579   4.232   1.531 -1.3705  1.7192 -1.2327
 1977TIP3   OH227489   6.332   0.167   2.987  0.2035 -0.5479 -0.7159
 1977TIP3    H127490   6.352   0.159   2.894 -0.0391  0.7385 -0.8892
 1977TIP3    H227491   6.244   0.131   2.997  0.0948 -0.3733 -1.0472
 1978TIP3   OH227492   4.843   0.754   3.463 -0.5437  0.0186 -0.6164
 1978TIP3    H127493   4.770   0.695   3.482 -1.2721  1.2589  0.6735
 1978TIP3    H227494   4.917   0.717   3.511 -1.0062  0.1455  0.2244
 1979TIP3   OH227495   2.848   0.440   7.271 -0.3723 -0.8512 -0.0103
 1979TIP3    H127496   2.877   0.501   7.202 -0.6883 -1.2912 -0.5443
 1979TIP3    H227497   2.929   0.418   7.318 -0.0714 -0.8884 -0.5279
 1980TIP3   OH227498   2.280   1.754   0.959 -0.7359  0.1779 -0.1387
 1980TIP3    H127499   2.251   1.726   1.046 -0.3716 -1.4512 -0.5144
 1980TIP3    H227500   2.203   1.794   0.920 -1.4135 -0.6912  0.2736
 1981TIP3   OH227501   2.439   2.564   2.198 -0.1948 -0.1182  0.5728
 1981TIP3    H127502   2.475   2.562   2.287  0.9987 -1.0587  0.0916
 1981TIP3    H227503   2.372   2.496   2.198  0.2261 -0.5437  0.6016
 1982TIP3   OH227504   3.793   0.860   0.128 -0.1660  0.5768 -0.5526
 1982TIP3    H127505   3.730   0.881   0.198 -0.7633  0.5844 -1.0810
 1982TIP3    H227506   3.739   0.825   0.057  0.3471  1.2322 -1.2845
 1983TIP3   OH227507   2.594   0.302   2.185 -0.5047  0.2069  0.0451
 1983TIP3    H127508   2.605   0.219   2.231  1.2310  0.2571 -0.1811
 1983TIP3    H227509   2.520   0.344   2.228 -0.7069 -0.9779  0.9026
 1984TIP3   OH227510   1.277   6.620   0.463  0.0258 -0.3257 -0.3353
 1984TIP3    H127511   1.234   6.624   0.548 -0.5368  0.6814 -0.6494
 1984TIP3    H227512   1.370   6.634   0.482  0.0678 -1.3369  0.2283
 1985TIP3   OH227513   5.558   4.311   1.791  0.7196 -0.3213  0.3419
 1985TIP3    H127514   5.520   4.335   1.707  0.3242  0.3785  0.7122
 1985TIP3    H227515   5.652   4.309   1.776  0.6929  0.4748  0.0528
 1986TIP3   OH227516   2.979   4.979   2.423  0.4599  0.3340  0.6833
 1986TIP3    H127517   2.964   4.889   2.453  0.0849 -0.2101 -1.0089
 1986TIP3    H227518   3.070   4.997   2.443  0.5321 -0.4306  1.0480
 1987TIP3   OH227519   6.259   2.276   2.900  0.5167  0.3744  0.5629
 1987TIP3    H127520   6.311   2.204   2.936  2.2616  1.5893  0.5917
 1987TIP3    H227521   6.271   2.270   2.806  0.0298  0.1773  0.5108
 1988TIP3   OH227522   6.259   1.023   1.558  0.1453 -0.0564 -0.0117
 1988TIP3    H127523   6.184   1.083   1.555  0.2759  0.0621 -1.9834
 1988TIP3    H227524   6.318   1.061   1.622  0.7767  2.6582 -2.0481
 1989TIP3   OH227525   5.015   6.197   3.569  0.1087  0.2385 -0.0638
 1989TIP3    H127526   4.926   6.178   3.540  1.0354 -0.4549 -2.8607
 1989TIP3    H227527   5.022   6.292   3.566  0.2677  0.2514 -3.0498
 1990TIP3   OH227528   5.174   1.443   0.447  0.0260 -0.3768  0.1320
 1990TIP3    H127529   5.186   1.364   0.395  0.6861 -1.2256  1.5037
 1990TIP3    H227530   5.085   1.436   0.481  0.7503 -1.6470  1.9337
 1991TIP3   OH227531   1.816   3.406   7.926  0.0351 -0.2998  0.1230
 1991TIP3    H127532   1.731   3.418   7.885  0.2464 -0.3927 -0.3539
 1991TIP3    H227533   1.867   3.482   7.898 -0.8557  1.5254  3.0373
 1992TIP3   OH227534   1.509   3.222   2.578 -0.2384  0.1350  0.4525
 1992TIP3    H127535   1.426   3.270   2.578 -0.9243 -0.9836 -0.5581
 1992TIP3    H227536   1.486   3.134   2.607  0.2708 -0.6350 -1.3303
 1993TIP3   OH227537   0.454   4.018   8.108  0.0843 -0.1849  0.8749
 1993TIP3    H127538   0.366   4.054   8.116  0.0736 -0.1277  0.5070
 1993TIP3    H227539   0.472   4.019   8.014  0.8015  0.5768  1.0165
 1994TIP3   OH227540   3.251   5.538   2.831 -0.7175  0.2258  0.6092
 1994TIP3    H127541   3.231   5.481   2.758 -0.7362 -0.0039  0.7918
 1994TIP3    H227542   3.292   5.481   2.896 -1.1262  0.3282  0.9680
 1995TIP3   OH227543   4.306   2.342   2.000 -0.0489 -0.5874 -0.1902
 1995TIP3    H127544   4.332   2.253   2.022 -1.6866 -1.5672 -1.8409
 1995TIP3    H227545   4.353   2.360   1.918 -0.5221 -0.3610 -0.4143
 1996TIP3   OH227546   3.547   1.581   0.317  0.0510 -0.1748  0.0966
 1996TIP3    H127547   3.514   1.547   0.401  0.5453 -1.0515 -0.0451
 1996TIP3    H227548   3.502   1.530   0.251 -0.8332  0.9723 -0.2159
 1997TIP3   OH227549   6.025   6.768   0.409 -0.6066  0.7895  0.4410
 1997TIP3    H127550   6.084   6.815   0.351 -0.8988  1.1156  0.4027
 1997TIP3    H227551   6.079   6.699   0.448 -0.0648  1.4013  0.8045
 1998TIP3   OH227552   1.442   4.158   0.640 -0.9590 -0.3113  0.3024
 1998TIP3    H127553   1.387   4.085   0.669 -2.6720  0.8995  0.2751
 1998TIP3    H227554   1.488   4.125   0.563 -2.0032 -1.2615  0.0596
 1999TIP3   OH227555   6.513   1.781   1.486  0.0494  0.1533 -0.4850
 1999TIP3    H127556   6.445   1.772   1.553 -1.0464  2.0873 -1.2737
 1999TIP3    H227557   6.489   1.860   1.437  1.9086 -0.0970 -1.9144
 2000TIP3   OH227558   5.428   0.002   0.607  0.2818  0.0222  0.7777
 2000TIP3    H127559   5.432   0.087   0.563 -0.6104 -0.4758 -0.3135
 2000TIP3    H227560   5.350   0.007   0.662 -0.5907 -0.5484 -0.3560
 2001TIP3   OH227561   5.894   3.950   2.789  0.4980  0.0715 -0.7961
 2001TIP3    H127562   5.919   4.004   2.714  1.8119  1.0043  0.2784
 2001TIP3    H227563   5.977   3.915   2.822 -0.0478 -0.1941  0.3359
 2002TIP3   OH227564   0.606   3.882   2.276  0.1315  0.1811 -0.4561
 2002TIP3    H127565   0.589   3.840   2.361  0.9569  2.9929  1.2583
 2002TIP3    H227566   0.526   3.867   2.225 -0.1768 -2.0596  0.5744
 2003TIP3   OH227567   1.005   6.523   1.881 -0.0715 -0.3330 -0.1905
 2003TIP3    H127568   0.966   6.545   1.965 -2.1567  0.4635 -1.2741
 2003TIP3    H227569   1.092   6.563   1.883 -0.2984  0.1255  1.3764
 2004TIP3   OH227570   5.712   4.758   8.095  0.0863 -0.1660  0.4025
 2004TIP3    H127571   5.681   4.814   8.024  0.5542 -0.8043 -0.3251
 2004TIP3    H227572   5.644   4.691   8.104  1.0669 -1.4149 -1.0179
 2005TIP3   OH227573   2.551   4.363   2.185 -0.2699 -0.4092  0.6448
 2005TIP3    H127574   2.475   4.336   2.134 -0.2793  1.1369 -0.2226
 2005TIP3    H227575   2.515   4.397   2.266 -0.3786 -1.1639  0.9231
 2006TIP3   OH227576   5.504   4.267   3.459 -0.0837  0.4202 -0.9767
 2006TIP3    H127577   5.541   4.352   3.436 -0.9697  1.4403  1.1430
 2006TIP3    H227578   5.414   4.269   3.426 -0.2477  0.4979 -0.5340
 2007TIP3   OH227579   0.372   3.209   0.668 -0.2968 -0.2623 -0.5177
 2007TIP3    H127580   0.400   3.123   0.637  1.4792 -0.4132  1.2804
 2007TIP3    H227581   0.360   3.199   0.762 -0.6624  1.3040 -0.3618
 2008TIP3   OH227582   1.800   0.385   2.063 -0.0058  0.0280  0.1984
 2008TIP3    H127583   1.817   0.410   2.153 -1.0043  0.4388  0.2883
 2008TIP3    H227584   1.814   0.465   2.012 -0.8559  0.1668  0.1771
 2009TIP3   OH227585   3.644   4.043   1.697  0.1121  0.0340 -0.2635
 2009TIP3    H127586   3.640   4.002   1.784 -0.8379 -1.3911 -0.9579
 2009TIP3    H227587   3.733   4.079   1.693 -0.2751  1.4187  1.8398
 2010TIP3   OH227588   6.537   1.028   2.681  0.8262  0.4196  0.1750
 2010TIP3    H127589   6.568   1.087   2.612  1.6531 -1.4540 -1.1200
 2010TIP3    H227590   6.444   1.049   2.690  0.8211  1.0370 -1.1646
 2011TIP3   OH227591   5.338   3.782   1.776 -0.3555  0.4840  0.2873
 2011TIP3    H127592   5.315   3.779   1.683 -0.5037 -0.0804  0.3350
 2011TIP3    H227593   5.432   3.802   1.777 -0.1774 -0.2791 -0.0168
 2012TIP3   OH227594   2.732   2.224   7.912 -0.3385  0.0810  0.4455
 2012TIP3    H127595   2.813   2.260   7.876  0.1587 -0.2410  1.2040
 2012TIP3    H227596   2.682   2.196   7.835  1.3783 -2.0566 -0.0108
 2013TIP3   OH227597   4.818   6.454   0.317 -0.3258  0.0262 -0.0954
 2013TIP3    H127598   4.820   6.503   0.235  0.8607  0.2009  0.0260
 2013TIP3    H227599   4.880   6.499   0.374  1.9848 -2.4418 -0.4743
 2014TIP3   OH227600   5.485   2.770   3.481  0.0536 -0.3780 -0.1677
 2014TIP3    H127601   5.499   2.842   3.420 -0.7322 -0.4662 -0.4690
 2014TIP3    H227602   5.403   2.793   3.526 -0.6928 -1.5061 -0.9036
 2015TIP3   OH227603   4.109   1.319   1.706 -0.3782 -0.0616  0.3858
 2015TIP3    H127604   4.190   1.329   1.656  0.3085 -1.1103  1.2478
 2015TIP3    H227605   4.040   1.323   1.640  0.5253 -1.8437 -0.7474
 2016TIP3   OH227606   0.343   4.644   1.998  0.0504 -0.4560 -0.0665
 2016TIP3    H127607   0.249   4.658   2.009  0.2852  0.0953  1.4076
 2016TIP3    H227608   0.384   4.699   2.065  1.3284 -2.3715  0.8175
 2017TIP3   OH227609   3.161   5.325   0.479 -0.0023  0.2108  0.2280
 2017TIP3    H127610   3.253   5.300   0.472  0.2680  1.2613 -0.2544
 2017TIP3    H227611   3.163   5.420   0.492 -1.0368  0.4685 -1.2053
 2018TIP3   OH227612   4.547   6.517   0.881 -0.3705  0.4966  0.1083
 2018TIP3    H127613   4.548   6.594   0.938 -0.4556  0.6279 -0.0660
 2018TIP3    H227614   4.621   6.464   0.911 -0.7674  0.2756  0.7311
 2019TIP3   OH227615   6.840   1.764   7.752  0.4447  0.8581  0.4030
 2019TIP3    H127616   6.825   1.829   7.684  2.5471  0.2456 -0.7327
 2019TIP3    H227617   6.931   1.777   7.778  0.5018 -0.7445  1.1223
 2020TIP3   OH227618   2.494   6.331   0.636 -0.2287 -0.7301  0.2909
 2020TIP3    H127619   2.586   6.351   0.622  0.1215 -0.0108  3.0233
 2020TIP3    H227620   2.494   6.265   0.705 -1.7574 -0.7218  0.3366
 2021TIP3   OH227621   5.035   5.789   1.741  0.4095 -0.4648  0.4739
 2021TIP3    H127622   5.079   5.767   1.823 -0.1989  1.1761  1.2827
 2021TIP3    H227623   5.102   5.777   1.674  1.5538  0.1833  1.4676
 2022TIP3   OH227624   1.313   3.693   2.665  0.0046  0.0418  0.3153
 2022TIP3    H127625   1.275   3.607   2.647 -1.1382  0.4683  0.6443
 2022TIP3    H227626   1.277   3.750   2.596 -0.4844  0.5920  1.0116
 2023TIP3   OH227627   6.658   4.442   2.323 -0.9361  0.0146  0.2158
 2023TIP3    H127628   6.683   4.503   2.393 -0.3007 -0.3062  0.2792
 2023TIP3    H227629   6.564   4.430   2.335 -1.0871  1.0450  0.1448
 2024TIP3   OH227630   4.547   2.085   0.094 -0.3733  0.0377  0.6084
 2024TIP3    H127631   4.623   2.122   0.050 -1.2267  0.0882 -0.8745
 2024TIP3    H227632   4.508   2.159   0.139 -0.3386  0.3064  0.2025
 2025TIP3   OH227633   2.743   1.110   0.953  0.2644 -0.1143 -0.6970
 2025TIP3    H127634   2.662   1.077   0.915  0.6352 -1.8694 -0.0427
 2025TIP3    H227635   2.722   1.125   1.045 -0.1348  2.4457 -1.1064
 2026TIP3   OH227636   1.065   3.512   2.140  0.3225  0.2066  0.1719
 2026TIP3    H127637   1.040   3.594   2.184 -2.1848 -0.6015  0.3897
 2026TIP3    H227638   0.985   3.482   2.097  1.7868 -0.9463 -1.9217
 2027TIP3   OH227639   2.098   4.975   3.218  0.0035  0.1822 -0.0159
 2027TIP3    H127640   2.162   5.039   3.185  0.6221 -1.6609 -2.6496
 2027TIP3    H227641   2.013   5.012   3.195  0.3609  0.0702 -1.6141
 2028TIP3   OH227642   0.660   1.447   1.359 -0.2830  0.4910  0.2897
 2028TIP3    H127643   0.755   1.445   1.362 -0.2766  1.0854  0.7080
 2028TIP3    H227644   0.636   1.375   1.300  0.4093  0.1820  0.3756
 2029TIP3   OH227645   5.978   2.278   8.146 -0.2966  0.9318  0.6216
 2029TIP3    H127646   5.954   2.245   8.060 -1.1735  0.1941  1.1275
 2029TIP3    H227647   5.895   2.309   8.184 -0.0946  0.3561  1.5638
 2030TIP3   OH227648   2.809   2.207   0.468 -0.3774  0.1525  0.2703
 2030TIP3    H127649   2.852   2.293   0.476 -0.4151  0.2685 -0.6305
 2030TIP3    H227650   2.870   2.156   0.415 -0.1528 -0.5308  1.1660
 2031TIP3   OH227651   2.839   0.999   1.953  0.3472  0.1772 -0.3919
 2031TIP3    H127652   2.774   1.066   1.970  1.6181  1.2489  0.3901
 2031TIP3    H227653   2.802   0.919   1.990  0.1991  1.1206  1.5821
 2032TIP3   OH227654   3.757   1.008   3.411  0.7732  0.1968  0.0856
 2032TIP3    H127655   3.765   1.030   3.503  2.0729 -1.4468  0.4137
 2032TIP3    H227656   3.665   0.982   3.400  1.1987 -2.1761  1.5780
 2033TIP3   OH227657   2.716   5.054   0.804 -0.4213  0.8785  0.2304
 2033TIP3    H127658   2.651   5.097   0.747 -0.5900 -0.2331 -0.4349
 2033TIP3    H227659   2.688   5.076   0.893 -2.0031  0.0490 -0.0236
 2034TIP3   OH227660   1.973   3.244   2.010 -0.8312 -0.4809  0.0002
 2034TIP3    H127661   1.974   3.291   1.926 -0.0000 -1.7014 -0.7100
 2034TIP3    H227662   1.886   3.205   2.014 -0.8331 -0.5236 -0.3748
 2035TIP3   OH227663   4.562   5.839   1.885 -0.0712 -0.2607 -0.2438
 2035TIP3    H127664   4.611   5.919   1.905 -0.0991  0.1608 -1.7487
 2035TIP3    H227665   4.614   5.796   1.816 -0.6387 -0.9655 -0.2390
 2036TIP3   OH227666   6.753   1.521   8.317  0.1070  0.3863  0.1240
 2036TIP3    H127667   6.779   1.443   8.268 -1.9067 -1.0021  1.1545
 2036TIP3    H227668   6.676   1.554   8.270 -0.6875  0.1385  1.2116
 2037TIP3   OH227669   1.515   0.663   7.966  0.1166  0.0762  0.7377
 2037TIP3    H127670   1.424   0.680   7.989 -0.3901 -0.8480 -0.4614
 2037TIP3    H227671   1.535   0.729   7.900  0.3090  0.2565  0.9756
 2038TIP3   OH227672   4.571   5.551   2.003 -0.3296  0.2210  0.0750
 2038TIP3    H127673   4.539   5.531   1.915 -0.3562  0.1157  0.1083
 2038TIP3    H227674   4.567   5.646   2.009 -0.2195  0.2369 -0.0793
 2039TIP3   OH227675   5.303   4.554   0.404 -0.1820  0.1467  0.2958
 2039TIP3    H127676   5.252   4.501   0.343  0.8507 -0.9138  0.3197
 2039TIP3    H227677   5.280   4.645   0.383 -1.8217 -0.2766  0.1080
 2040TIP3   OH227678   3.882   2.169   7.708  0.3614  0.0530 -0.4763
 2040TIP3    H127679   3.819   2.192   7.641  0.3196 -0.5169 -0.6351
 2040TIP3    H227680   3.883   2.073   7.709  2.1130  0.0110 -1.3453
 2041TIP3   OH227681   4.947   0.843   8.452  0.0353 -0.2732 -0.5886
 2041TIP3    H127682   4.967   0.933   8.479 -0.3397 -0.4815  0.4083
 2041TIP3    H227683   4.959   0.844   8.357 -1.2844  1.1806 -0.7911
 2042TIP3   OH227684   5.699   2.635   0.193  0.3470 -0.2733  0.1455
 2042TIP3    H127685   5.701   2.676   0.106  0.5814  0.5382  0.5214
 2042TIP3    H227686   5.706   2.541   0.175 -1.3609 -0.2697 -0.8107
 2043TIP3   OH227687   6.360   5.954   8.387  0.0700  0.3684  0.0872
 2043TIP3    H127688   6.440   5.992   8.352 -0.5527  1.5893 -0.0796
 2043TIP3    H227689   6.321   6.025   8.439 -0.9275 -0.1733  0.1050
 2044TIP3   OH227690   5.894   5.837   1.920  0.6611 -0.2526  0.0798
 2044TIP3    H127691   5.985   5.818   1.945  0.0608 -0.4947  2.2068
 2044TIP3    H227692   5.845   5.759   1.945 -0.2947  0.2752 -0.1162
 2045TIP3   OH227693   1.576   0.863   3.979 -0.3797  0.2565 -0.4529
 2045TIP3    H127694   1.495   0.811   3.975  0.5263 -1.2328 -0.0752
 2045TIP3    H227695   1.549   0.951   3.952 -2.7491  0.6004  2.5103
 2046TIP3   OH227696   3.514   3.050   0.558 -0.3122  0.5891 -0.6032
 2046TIP3    H127697   3.519   3.138   0.520  2.2339  1.5176  1.5912
 2046TIP3    H227698   3.598   3.010   0.535 -0.2328 -0.1437  0.9096
 2047TIP3   OH227699   2.753   2.270   0.194  0.3486  0.9236 -0.1187
 2047TIP3    H127700   2.743   2.238   0.283 -1.1138 -0.2279 -0.6604
 2047TIP3    H227701   2.685   2.337   0.185  1.1441  1.7549 -0.0764
 2048TIP3   OH227702   5.646   4.929   2.538 -0.3988  0.3119 -0.0464
 2048TIP3    H127703   5.557   4.946   2.569 -0.4161 -0.3534  0.2926
 2048TIP3    H227704   5.698   4.921   2.618 -0.4135 -1.2747 -0.1748
 2049TIP3   OH227705   3.633   0.844   2.038 -0.0100  0.5522  0.2586
 2049TIP3    H127706   3.721   0.831   2.002 -0.0147 -0.5701  0.6187
 2049TIP3    H227707   3.617   0.767   2.092 -1.6864  0.1274 -0.7520
 2050TIP3   OH227708   0.815   2.059   1.442  0.2856 -0.0839 -0.5014
 2050TIP3    H127709   0.732   2.084   1.482  1.2688  1.2856  0.8019
 2050TIP3    H227710   0.825   2.119   1.368  0.4836  0.3044 -0.1639
 2051TIP3   OH227711   5.973   3.536   1.005 -0.2265  0.7264 -0.0710
 2051TIP3    H127712   5.891   3.552   1.052  0.4443  0.7558  1.1533
 2051TIP3    H227713   5.995   3.445   1.026 -0.7788  0.1693 -1.7690
 2052TIP3   OH227714   6.521   5.391   8.308  0.1771  0.5753 -0.1178
 2052TIP3    H127715   6.541   5.345   8.226  1.1169  0.6682  0.0524
 2052TIP3    H227716   6.431   5.422   8.296  0.6498  1.4964 -1.5448
 2053TIP3   OH227717   4.511   4.311   1.799  0.0923 -0.6549 -0.4646
 2053TIP3    H127718   4.504   4.352   1.885 -0.1913 -0.7715 -0.4306
 2053TIP3    H227719   4.420   4.296   1.772  0.1924 -2.0895 -0.0823
 2054TIP3   OH227720   0.380   0.110   2.040 -0.1559 -0.1484  0.0041
 2054TIP3    H127721   0.429   0.086   2.118  0.6441 -1.1628 -0.7779
 2054TIP3    H227722   0.431   0.179   1.998 -0.6544  0.4919  0.4343
 2055TIP3   OH227723   3.645   1.211   1.526 -0.0192 -0.1844 -0.0258
 2055TIP3    H127724   3.591   1.149   1.574 -0.1106  1.4377  2.0794
 2055TIP3    H227725   3.598   1.224   1.443 -1.2743 -1.0261  0.5219
 2056TIP3   OH227726   4.679   6.582   8.196 -0.2327 -0.1845 -0.1921
 2056TIP3    H127727   4.742   6.646   8.230 -0.1265 -1.4706  2.2320
 2056TIP3    H227728   4.700   6.501   8.242 -1.9060 -1.3634 -1.3924
 2057TIP3   OH227729   5.624   0.001   2.346  0.0448  0.3848 -0.6021
 2057TIP3    H127730   5.681  -0.065   2.307  0.1092  1.1889 -1.9283
 2057TIP3    H227731   5.678   0.080   2.350 -1.3628  1.6163 -3.3880
 2058TIP3   OH227732   6.715   2.191   1.560 -0.2309 -0.1242 -0.5587
 2058TIP3    H127733   6.763   2.152   1.633 -2.2217 -0.2809  0.7360
 2058TIP3    H227734   6.734   2.134   1.486  1.6600 -0.0817 -0.1697
 2059TIP3   OH227735   6.677   4.692   8.316  0.3753 -0.2094  0.5566
 2059TIP3    H127736   6.659   4.653   8.401 -0.8251 -1.3089 -0.1651
 2059TIP3    H227737   6.601   4.669   8.262  0.4166  1.6980 -0.4150
 2060TIP3   OH227738   5.868   4.178   0.309  0.0520  0.5592  0.5596
 2060TIP3    H127739   5.925   4.175   0.232 -1.9293  4.4140 -1.3414
 2060TIP3    H227740   5.901   4.253   0.359 -0.4617 -0.1299  1.9654
 2061TIP3   OH227741   1.888   5.873   2.450 -0.0800 -0.0733  0.0685
 2061TIP3    H127742   1.949   5.911   2.386 -0.4278  1.4252  0.5848
 2061TIP3    H227743   1.802   5.882   2.409 -0.2746  0.6393  0.6213
 2062TIP3   OH227744   3.983   3.320   0.106  0.3643 -0.9935  0.2737
 2062TIP3    H127745   3.971   3.369   0.024 -3.3437 -2.2582 -0.1257
 2062TIP3    H227746   4.005   3.231   0.078 -2.0275 -1.7192  0.4614
 2063TIP3   OH227747   3.210   0.265   0.377 -0.3434 -0.5501  0.1970
 2063TIP3    H127748   3.231   0.318   0.300  0.9961  1.3247  1.7457
 2063TIP3    H227749   3.116   0.275   0.389 -0.6562 -1.2576 -1.4225
 2064TIP3   OH227750   3.399   3.252   3.039 -0.1455  0.0676  0.1855
 2064TIP3    H127751   3.479   3.249   2.987 -0.1723  1.0674  0.0656
 2064TIP3    H227752   3.350   3.174   3.013  0.9359 -0.7350  0.5070
 2065TIP3   OH227753   5.517   2.979   3.312 -0.4648  0.0188  0.3877
 2065TIP3    H127754   5.583   3.048   3.298 -1.0473  0.9084  1.8075
 2065TIP3    H227755   5.463   3.012   3.384 -0.6758 -1.9970  1.2166
 2066TIP3   OH227756   6.690   3.472   0.614 -0.5305  0.1249  0.4175
 2066TIP3    H127757   6.613   3.422   0.586  0.9528 -1.8595 -0.3000
 2066TIP3    H227758   6.662   3.513   0.696 -2.5672  0.0682 -0.1757
 2067TIP3   OH227759   6.033   4.982   2.045 -0.0855  0.1445 -0.1028
 2067TIP3    H127760   5.962   5.017   1.992 -0.6724 -0.8566 -0.0034
 2067TIP3    H227761   6.054   4.897   2.005  0.3400 -0.0433  0.4961
 2068TIP3   OH227762   3.787   0.812   2.855 -0.0374  0.5322 -0.3862
 2068TIP3    H127763   3.803   0.782   2.765  2.3246  0.5930 -0.0397
 2068TIP3    H227764   3.873   0.837   2.888 -1.3296  4.3831  0.5820
 2069TIP3   OH227765   5.782   3.709   8.373 -0.2312 -0.1733  0.1232
 2069TIP3    H127766   5.712   3.770   8.349 -1.2054 -1.2556  0.1306
 2069TIP3    H227767   5.768   3.691   8.466 -1.9170 -2.7719 -0.5182
 2070TIP3   OH227768   1.928   3.735   0.090  0.5524  0.0123  0.3610
 2070TIP3    H127769   1.970   3.796   0.151  1.0693 -1.4105  1.4764
 2070TIP3    H227770   1.994   3.667   0.075 -0.4871 -0.9949  0.2332
 2071TIP3   OH227771   6.756   3.347   2.864  0.2719 -0.2732  0.3428
 2071TIP3    H127772   6.733   3.273   2.919 -1.4984  0.2822  0.4373
 2071TIP3    H227773   6.746   3.424   2.921  0.5274  0.1522 -0.1716
 2072TIP3   OH227774   5.024   1.058   8.229  0.1962  0.8259 -0.2440
 2072TIP3    H127775   4.983   1.076   8.144 -2.4320 -0.5200  0.6147
 2072TIP3    H227776   5.117   1.050   8.210 -0.3204  0.4432 -3.0369
 2073TIP3   OH227777   4.434   6.483   0.636  0.1667 -0.0232 -0.0277
 2073TIP3    H127778   4.395   6.569   0.653 -0.1674  0.1524 -1.5464
 2073TIP3    H227779   4.466   6.454   0.721 -1.3626  0.7843  0.8598
 2074TIP3   OH227780   0.302   3.699   0.890  0.2789 -0.4708  0.3670
 2074TIP3    H127781   0.368   3.760   0.922 -0.3158 -0.0297  0.7599
 2074TIP3    H227782   0.319   3.617   0.938  0.3892 -0.2892  0.6382
 2075TIP3   OH227783   4.037   0.812   0.016 -0.2337 -0.2278  0.1931
 2075TIP3    H127784   4.097   0.879   0.050 -0.1135 -1.3728  2.4362
 2075TIP3    H227785   3.962   0.814   0.076 -0.3545 -1.8977  0.1511
 2076TIP3   OH227786   5.632   5.891   0.804 -0.2761 -0.8399 -0.4172
 2076TIP3    H127787   5.578   5.970   0.804 -0.3564 -0.8576  1.3058
 2076TIP3    H227788   5.606   5.844   0.884  0.0975 -2.3791 -1.1603
 2077TIP3   OH227789   0.238   3.593   1.415  0.0346 -0.2104 -0.3612
 2077TIP3    H127790   0.154   3.591   1.460 -1.5145 -0.6955 -3.0615
 2077TIP3    H227791   0.258   3.501   1.397  0.2293  0.0045 -1.2820
 2078TIP3   OH227792   5.426   3.922   7.869 -0.5399 -0.8804  0.5295
 2078TIP3    H127793   5.442   4.006   7.912  0.6635  0.6505 -2.5908
 2078TIP3    H227794   5.342   3.935   7.824 -0.3460 -1.3609  0.0263
 2079TIP3   OH227795   1.157   3.567   0.754 -0.6908  0.6677 -0.0413
 2079TIP3    H127796   1.151   3.640   0.693 -0.5279  0.2885 -0.5208
 2079TIP3    H227797   1.218   3.597   0.821  0.8574  0.3173 -1.2100
 2080TIP3   OH227798   1.226   0.222   1.182 -0.0294  0.5352  0.5257
 2080TIP3    H127799   1.278   0.242   1.104 -0.9460  3.2133  0.5093
 2080TIP3    H227800   1.160   0.160   1.151  0.7281  0.1471 -0.3724
 2081TIP3   OH227801   2.821   1.603   1.686  0.0684  0.0350 -0.0328
 2081TIP3    H127802   2.871   1.605   1.767 -0.0883 -3.3340  0.3115
 2081TIP3    H227803   2.729   1.606   1.714  0.0176  0.8638 -0.2622
 2082TIP3   OH227804   1.998   0.693   1.064  0.3455 -0.4313  0.2314
 2082TIP3    H127805   1.998   0.633   1.139  1.0121  1.8891  2.2208
 2082TIP3    H227806   2.080   0.675   1.019  0.7995 -0.6556  1.1217
 2083TIP3   OH227807   5.340   1.836   0.835 -0.5300  0.3462  0.2096
 2083TIP3    H127808   5.285   1.854   0.911 -0.7868 -2.1651  0.7365
 2083TIP3    H227809   5.425   1.810   0.872 -0.5567 -0.5994 -0.3417
 2084TIP3   OH227810   0.975   5.252   2.924 -0.5954  0.4106 -0.2932
 2084TIP3    H127811   0.919   5.222   2.852 -1.3800  2.0576 -0.4296
 2084TIP3    H227812   0.944   5.341   2.942 -0.8592 -0.1838  2.5403
 2085TIP3   OH227813   5.316   6.222   2.210  0.4623  0.0147  0.2298
 2085TIP3    H127814   5.361   6.196   2.291 -1.0797 -1.3349  0.6833
 2085TIP3    H227815   5.362   6.302   2.184  1.8007 -0.1752  1.7609
 2086TIP3   OH227816   6.316   1.023   3.555 -0.3729 -0.1991 -0.1503
 2086TIP3    H127817   6.399   0.987   3.589  0.0004 -0.3503 -1.1934
 2086TIP3    H227818   6.310   0.988   3.466 -2.1556 -1.1615  0.2992
 2087TIP3   OH227819   1.056   6.191   1.437 -0.1015  0.1494 -0.2417
 2087TIP3    H127820   1.099   6.229   1.514 -0.7448  0.0571  0.1677
 2087TIP3    H227821   1.090   6.101   1.433 -1.0619 -0.2769  0.7248
 2088TIP3   OH227822   1.243   0.035   0.344  0.7232  0.0938 -0.3094
 2088TIP3    H127823   1.324  -0.001   0.379  0.3898  0.1818  0.5750
 2088TIP3    H227824   1.236   0.122   0.384 -0.2820 -0.2884  0.3741
 2089TIP3   OH227825   1.132   6.669   8.084  0.3219  0.1799  0.5461
 2089TIP3    H127826   1.172   6.687   7.999 -0.3794 -0.9632 -0.0559
 2089TIP3    H227827   1.060   6.609   8.065  0.6132 -0.7067  2.0290
 2090TIP3   OH227828   2.187   4.175   7.776  0.1752  0.2003 -0.7946
 2090TIP3    H127829   2.107   4.159   7.727 -0.1647  0.0413 -0.1939
 2090TIP3    H227830   2.199   4.270   7.771  0.3642  0.1453 -1.5156
 2091TIP3   OH227831   3.347   6.226   0.467  0.0486 -0.0556  0.1901
 2091TIP3    H127832   3.437   6.237   0.436  0.5212  0.2596  1.5580
 2091TIP3    H227833   3.344   6.136   0.499 -0.0935 -0.0350  0.2323
 2092TIP3   OH227834   2.076   5.195   0.877 -0.2581  0.6270  0.1437
 2092TIP3    H127835   2.089   5.155   0.963 -0.7492 -0.0794 -0.1059
 2092TIP3    H227836   2.064   5.288   0.896  1.0861  0.7162  0.7110
 2093TIP3   OH227837   4.252   2.679   2.016  0.2329 -0.7105 -0.1960
 2093TIP3    H127838   4.270   2.646   1.928  0.2251  1.0506 -0.8962
 2093TIP3    H227839   4.205   2.761   2.002  2.7420  1.1294  1.3178
 2094TIP3   OH227840   0.549   0.706   2.563  0.1225  0.2061 -0.8722
 2094TIP3    H127841   0.523   0.766   2.632  0.5120 -0.1136 -0.4389
 2094TIP3    H227842   0.483   0.636   2.565  0.9641 -0.5896  0.2078
 2095TIP3   OH227843   5.552   5.479   0.364 -0.6576 -0.6295 -0.7192
 2095TIP3    H127844   5.577   5.392   0.394  0.1873 -0.7053 -1.5904
 2095TIP3    H227845   5.629   5.534   0.382 -0.9647 -0.1978 -0.7064
 2096TIP3   OH227846   2.053   6.520   1.035  0.7138 -0.0472  0.5418
 2096TIP3    H127847   2.029   6.585   1.101  1.8026  1.1080 -0.1451
 2096TIP3    H227848   2.035   6.563   0.951  0.6225 -0.9731  0.0716
 2097TIP3   OH227849   4.418   1.420   7.566  0.1647 -0.1541  0.0725
 2097TIP3    H127850   4.434   1.326   7.558 -1.5967 -0.6113  1.2804
 2097TIP3    H227851   4.328   1.432   7.534  0.4118  1.1569 -0.2112
 2098TIP3   OH227852   2.181   4.797   0.974 -0.4335  0.3822  0.5535
 2098TIP3    H127853   2.135   4.809   1.057 -0.2135  0.4340  0.6677
 2098TIP3    H227854   2.161   4.707   0.948 -0.9710  0.5486  0.3767
 2099TIP3   OH227855   3.548   5.754   3.120  0.3420  0.2472  0.2391
 2099TIP3    H127856   3.520   5.823   3.060 -0.9730 -0.8910 -0.5233
 2099TIP3    H227857   3.628   5.788   3.162 -0.4835  2.3511  0.1833
 2100TIP3   OH227858   1.210   2.277   3.034 -0.1813  0.0920 -0.5994
 2100TIP3    H127859   1.266   2.297   3.110 -3.6820  2.5739  1.6217
 2100TIP3    H227860   1.246   2.332   2.964  0.8849  0.6975  0.3766
 2101TIP3   OH227861   1.532   1.254   0.241  0.6212 -0.0201  0.3077
 2101TIP3    H127862   1.440   1.271   0.222  0.4463 -1.5506 -0.3872
 2101TIP3    H227863   1.532   1.211   0.326  0.6526 -0.2593  0.1899
 2102TIP3   OH227864   3.601   5.945   2.191  0.2676  0.4152 -0.5462
 2102TIP3    H127865   3.689   5.982   2.203  1.3083 -1.9797 -0.1783
 2102TIP3    H227866   3.582   5.958   2.098  1.3578  0.3037 -0.7983
 2103TIP3   OH227867   0.656   1.358   0.074 -0.1232 -0.9156 -0.8025
 2103TIP3    H127868   0.617   1.319  -0.005 -0.9130 -2.0046  0.0873
 2103TIP3    H227869   0.661   1.452   0.054 -0.8391 -1.0920 -1.9263
 2104TIP3   OH227870   3.886   1.851   0.604  0.7367  0.1667 -0.0621
 2104TIP3    H127871   3.888   1.905   0.524  2.6152  0.2012 -0.0405
 2104TIP3    H227872   3.978   1.829   0.619  0.1102 -2.3087  0.4429
 2105TIP3   OH227873   2.492   0.891   2.398 -0.3770  0.4687  0.5257
 2105TIP3    H127874   2.527   0.809   2.362 -2.1233 -1.5936  3.0703
 2105TIP3    H227875   2.563   0.926   2.451 -0.1909 -0.4576  0.9173
 2106TIP3   OH227876   5.476   6.457   2.069 -0.3769 -0.0770 -0.2527
 2106TIP3    H127877   5.489   6.512   2.146  0.8519 -1.0028  0.2227
 2106TIP3    H227878   5.413   6.506   2.015 -0.9148  0.7896  1.1131
 2107TIP3   OH227879   6.823   4.174   3.130 -0.2258 -0.2082  0.6041
 2107TIP3    H127880   6.741   4.223   3.127 -0.3608 -0.3028  1.9404
 2107TIP3    H227881   6.801   4.093   3.175 -0.0000 -1.5631 -1.5764
 2108TIP3   OH227882   3.651   4.970   2.316 -0.1201 -0.0203 -0.5013
 2108TIP3    H127883   3.637   5.006   2.404  0.1493 -2.1212  0.4720
 2108TIP3    H227884   3.563   4.963   2.279 -0.2487  0.7615 -0.3621
 2109TIP3   OH227885   6.328   3.674   3.166 -0.2083  0.1242 -0.9987
 2109TIP3    H127886   6.333   3.711   3.254 -1.2938 -0.6086 -0.6125
 2109TIP3    H227887   6.235   3.677   3.143 -0.1126 -0.8673 -1.5993
 2110TIP3   OH227888   3.761   6.146   1.851  0.7430  0.1995  0.7273
 2110TIP3    H127889   3.779   6.137   1.945 -0.0220 -0.9225  0.7877
 2110TIP3    H227890   3.686   6.204   1.846  1.4406  1.1168  0.7401
 2111TIP3   OH227891   2.501   6.313   2.929  0.0105  0.2816 -0.4104
 2111TIP3    H127892   2.453   6.395   2.943  0.2876  0.2256  1.0505
 2111TIP3    H227893   2.433   6.245   2.934  0.0675  0.2814  0.5606
 2112TIP3   OH227894   2.392   5.432   2.467 -0.5799  0.2911 -0.0299
 2112TIP3    H127895   2.443   5.482   2.531 -0.5993 -0.7093  0.7971
 2112TIP3    H227896   2.356   5.359   2.517 -0.3364 -0.7026 -1.2466
 2113TIP3   OH227897   2.470   0.309   1.483  0.1408  0.3923 -0.1953
 2113TIP3    H127898   2.469   0.351   1.568  0.6233  0.5715 -0.2778
 2113TIP3    H227899   2.523   0.230   1.495  0.5183  0.6082 -0.4150
 2114TIP3   OH227900   4.887   2.117   1.954 -0.2635 -0.3667 -0.9513
 2114TIP3    H127901   4.847   2.191   1.998 -0.3334 -0.6487 -0.5356
 2114TIP3    H227902   4.978   2.116   1.985 -0.4509 -0.8796 -0.3957
 2115TIP3   OH227903   6.664   6.521   2.219  0.0570  0.0229 -0.1504
 2115TIP3    H127904   6.686   6.482   2.134 -1.7252 -0.1876 -0.5531
 2115TIP3    H227905   6.654   6.614   2.200 -1.1102 -0.1308 -0.3628
 2116TIP3   OH227906   2.947   4.356   2.222 -0.7494  0.3094  0.4830
 2116TIP3    H127907   3.011   4.304   2.174  0.0965  1.2724  0.5480
 2116TIP3    H227908   2.926   4.428   2.163  0.0587  1.3311  1.4032
 2117TIP3   OH227909   2.047   4.460   0.090 -0.1805 -0.2294 -0.3004
 2117TIP3    H127910   2.118   4.522   0.073 -0.5734  0.0349 -1.0176
 2117TIP3    H227911   2.092   4.379   0.113  0.3391  0.3791  0.8975
 2118TIP3   OH227912   1.163   1.535   1.684 -0.1630 -0.5599 -0.1076
 2118TIP3    H127913   1.225   1.526   1.756 -0.6715  3.0316  1.0025
 2118TIP3    H227914   1.083   1.493   1.716 -0.6268  1.6410  1.9137
 2119TIP3   OH227915   4.079   6.398   0.956 -0.4734  0.3448 -0.7616
 2119TIP3    H127916   4.083   6.425   1.047 -0.4927 -2.0281  0.0109
 2119TIP3    H227917   3.993   6.426   0.926 -1.0120 -0.0265  0.3860
 2120TIP3   OH227918   0.220   4.166   0.629  0.3022 -0.1337 -0.2770
 2120TIP3    H127919   0.141   4.151   0.681 -0.6987  3.2892 -0.5833
 2120TIP3    H227920   0.190   4.166   0.538  0.6377  0.9893 -0.4075
 2121TIP3   OH227921   6.793   5.377   8.216  0.2381 -0.2037  0.6618
 2121TIP3    H127922   6.878   5.420   8.204 -0.3147  0.3376 -2.1377
 2121TIP3    H227923   6.731   5.450   8.228 -0.2707 -0.3110 -0.9795
 2122TIP3   OH227924   5.846   6.822   2.891 -0.2659 -0.2256 -0.2993
 2122TIP3    H127925   5.771   6.806   2.833  0.2933  0.7570 -1.3435
 2122TIP3    H227926   5.907   6.751   2.872 -0.6405 -0.6559  0.0728
 2123TIP3   OH227927   0.423   1.138   0.493 -0.2461  0.1890  0.4585
 2123TIP3    H127928   0.350   1.087   0.459  0.6209  0.2642 -1.7277
 2123TIP3    H227929   0.479   1.074   0.536 -0.2854 -0.3493 -0.2705
 2124TIP3   OH227930   1.879   3.011   2.635  0.5373  0.2519  0.2840
 2124TIP3    H127931   1.860   3.086   2.691 -2.1519 -0.5073  0.5509
 2124TIP3    H227932   1.967   3.027   2.602  1.0801  2.1693  2.4207
 2125TIP3   OH227933   2.969   0.466   1.749 -0.1300  0.2377 -0.1731
 2125TIP3    H127934   2.956   0.486   1.657  1.2790 -0.1415 -0.4731
 2125TIP3    H227935   3.056   0.500   1.770 -0.3039  0.0538  0.9418
 2126TIP3   OH227936   5.585   6.226   2.005  0.6560  0.2748  0.2279
 2126TIP3    H127937   5.551   6.314   2.023  1.0773  0.4521  0.1571
 2126TIP3    H227938   5.510   6.178   1.969  1.0610  1.3387 -2.1841
 2127TIP3   OH227939   5.134   3.166   3.067 -0.3924 -0.2117 -0.0359
 2127TIP3    H127940   5.133   3.206   2.980  0.4480  1.6747  0.7896
 2127TIP3    H227941   5.047   3.184   3.103 -0.2515  0.2430  0.0702
 2128TIP3   OH227942   0.229   5.080   2.590 -0.0665 -0.6722 -0.3180
 2128TIP3    H127943   0.172   5.007   2.616  0.0249 -0.1799  1.3643
 2128TIP3    H227944   0.282   5.098   2.667 -0.7532  1.8286 -0.3625
 2129TIP3   OH227945   0.961   4.943   1.096  0.5577 -0.4813 -0.2527
 2129TIP3    H127946   0.953   4.968   1.188  0.3569  1.8669 -0.8484
 2129TIP3    H227947   0.872   4.950   1.061  0.9275  0.5405 -1.0403
 2130TIP3   OH227948   3.901   4.255   3.207 -0.0666 -0.3663  0.0827
 2130TIP3    H127949   3.874   4.172   3.166 -0.8647 -0.5233  0.8964
 2130TIP3    H227950   3.820   4.305   3.214  0.8713  2.1851 -3.9903
 2131TIP3   OH227951   3.609   5.511   1.491 -0.0240  0.5068  0.1395
 2131TIP3    H127952   3.513   5.500   1.495 -0.1940  0.9340 -1.9363
 2131TIP3    H227953   3.628   5.520   1.398  2.0741  0.3351  0.5206
 2132TIP3   OH227954   0.239   4.144   0.176 -0.0220 -0.1763 -0.7050
 2132TIP3    H127955   0.196   4.122   0.259 -0.5722 -1.2835 -1.2534
 2132TIP3    H227956   0.310   4.203   0.200 -0.4332 -0.1501  0.5029
 2133TIP3   OH227957   6.297   5.327   1.093 -0.2686  0.3427 -0.3846
 2133TIP3    H127958   6.305   5.284   1.178  3.2179 -0.0504 -0.7430
 2133TIP3    H227959   6.330   5.415   1.108 -0.4303  0.5352 -1.1463
 2134TIP3   OH227960   5.081   6.076   0.735  0.3772 -0.3019 -0.1027
 2134TIP3    H127961   4.993   6.089   0.702 -0.0107 -1.2080  0.5356
 2134TIP3    H227962   5.083   6.122   0.818  1.1058  1.2953 -0.9541
 2135TIP3   OH227963   5.370   0.881   0.761  0.1197  0.3617  0.2674
 2135TIP3    H127964   5.388   0.853   0.851 -0.2419  1.5389  0.7262
 2135TIP3    H227965   5.454   0.914   0.729  0.0572  0.7089  0.4623
 2136TIP3   OH227966   6.685   1.972   3.281  0.4736  0.4433 -0.6435
 2136TIP3    H127967   6.746   1.951   3.352 -0.0665  1.4550  0.1543
 2136TIP3    H227968   6.739   1.973   3.202  0.6434 -3.4003 -0.7571
 2137TIP3   OH227969   0.301   4.530   1.248 -0.3298 -0.0964  0.2249
 2137TIP3    H127970   0.395   4.539   1.231 -0.3557  0.0496  0.1555
 2137TIP3    H227971   0.296   4.513   1.342 -0.3419  2.1251  0.6964
 2138TIP3   OH227972   4.976   5.994   1.923  0.1950 -0.1540 -0.6564
 2138TIP3    H127973   4.996   5.952   2.007 -0.3306 -0.2796 -0.5900
 2138TIP3    H227974   4.961   5.922   1.863 -0.0073 -0.0626 -0.7162
 2139TIP3   OH227975   0.250   6.568   1.873  0.3110 -0.0639 -0.2504
 2139TIP3    H127976   0.306   6.645   1.861 -1.7636  1.1675 -2.8510
 2139TIP3    H227977   0.266   6.514   1.796  0.8775 -1.7983  0.9903
 2140TIP3   OH227978   6.478   2.954   1.730  0.9436  0.2281  0.2130
 2140TIP3    H127979   6.563   2.995   1.746  1.9139 -2.0462  1.3763
 2140TIP3    H227980   6.445   2.932   1.818  0.6883 -1.7295 -0.3175
 2141TIP3   OH227981   5.072   3.548   1.608  0.1166 -0.1785 -0.6027
 2141TIP3    H127982   5.061   3.487   1.680 -0.7465 -1.0013 -1.4052
 2141TIP3    H227983   5.110   3.626   1.648 -1.2943 -0.2237  0.9402
 2142TIP3   OH227984   2.813   4.323   2.478 -0.1815 -0.9669  0.3751
 2142TIP3    H127985   2.851   4.236   2.472 -0.0637 -0.8263 -1.8558
 2142TIP3    H227986   2.832   4.363   2.393 -2.0005  0.4935  0.5872
 2143TIP3   OH227987   1.213   3.969   0.769  0.4291  0.0017  0.8637
 2143TIP3    H127988   1.140   4.025   0.797  0.3159 -0.0990  0.7768
 2143TIP3    H227989   1.253   3.939   0.850 -1.0789 -1.8464  1.0063
 2144TIP3   OH227990   2.504   3.371   3.110 -0.0615  0.0550 -0.0447
 2144TIP3    H127991   2.420   3.414   3.125  0.2167  0.4549  0.4095
 2144TIP3    H227992   2.514   3.312   3.185  2.3866  3.7037  2.9040
 2145TIP3   OH227993   4.088   0.066   3.125 -0.6386 -0.1829  0.5925
 2145TIP3    H127994   4.068  -0.015   3.172  3.0533 -0.2957  2.3263
 2145TIP3    H227995   4.083   0.135   3.191 -0.0866  0.4078  0.0428
 2146TIP3   OH227996   2.029   4.495   2.338 -0.4103 -0.5240 -0.0378
 2146TIP3    H127997   2.053   4.423   2.281  0.0338 -0.3625 -0.0622
 2146TIP3    H227998   1.979   4.554   2.282  0.9633  0.1796 -0.5873
 2147TIP3   OH227999   0.404   3.460   0.102  0.0954 -0.5056 -0.7739
 2147TIP3    H128000   0.364   3.531   0.152 -0.3623 -1.2973 -0.0014
 2147TIP3    H228001   0.350   3.453   0.023  0.1012 -0.0604 -0.8226
 2148TIP3   OH228002   4.184   5.507   0.770 -0.4122 -0.0041 -0.5189
 2148TIP3    H128003   4.248   5.521   0.700 -0.3910 -1.3361 -0.7926
 2148TIP3    H228004   4.168   5.595   0.806 -0.8199  0.8179 -2.5342
 2149TIP3   OH228005   2.784   1.086   8.394  0.2921  0.4145  0.5351
 2149TIP3    H128006   2.710   1.140   8.424 -1.0111 -0.0502 -1.6140
 2149TIP3    H228007   2.770   1.001   8.435 -0.4588  0.3005  0.0733
 2150TIP3   OH228008   1.342   3.067   0.790 -0.3546 -0.6610  0.4694
 2150TIP3    H128009   1.296   3.149   0.773 -0.1931 -0.5919  0.3631
 2150TIP3    H228010   1.289   3.000   0.748  0.7875 -0.3341 -1.6189
 2151TIP3   OH228011   0.396   0.162   0.436  0.0633 -0.6894 -0.5846
 2151TIP3    H128012   0.304   0.175   0.459 -0.0844 -0.9961 -0.9884
 2151TIP3    H228013   0.445   0.209   0.503 -0.3064 -2.7932  1.2721
 2152TIP3   OH228014   2.924   1.173   2.714  0.1827  0.4926  0.1459
 2152TIP3    H128015   2.864   1.154   2.642  1.4701  0.3984 -0.9276
 2152TIP3    H228016   2.970   1.091   2.730  0.9649  0.9040  0.0623
 2153TIP3   OH228017   3.886   5.144   2.915 -0.3153 -0.6726  0.1210
 2153TIP3    H128018   3.798   5.170   2.943  0.5434  0.2181  2.2086
 2153TIP3    H228019   3.874   5.113   2.826 -2.5565  0.5398 -0.0833
 2154TIP3   OH228020   4.906   0.619   2.459 -0.2082 -0.5413 -0.7486
 2154TIP3    H128021   4.904   0.712   2.436  0.0166 -0.4141 -0.2776
 2154TIP3    H228022   4.831   0.581   2.414  0.6527 -0.4671 -2.3301
 2155TIP3   OH228023   1.988   4.685   0.236  0.6095 -0.2258 -0.4528
 2155TIP3    H128024   2.023   4.761   0.188  2.2200 -0.4190  0.3616
 2155TIP3    H228025   2.022   4.610   0.188 -0.9088 -0.4686 -1.2014
 2156TIP3   OH228026   6.811   0.095   1.617 -0.2440 -0.5577 -0.0828
 2156TIP3    H128027   6.881   0.067   1.557 -1.6101  1.6384 -2.9571
 2156TIP3    H228028   6.742   0.030   1.605 -0.3014 -0.4214 -0.5250
 2157TIP3   OH228029   5.586   1.293   2.030 -0.6641  1.1513 -0.1936
 2157TIP3    H128030   5.637   1.347   1.969 -0.4497  0.1855 -0.8993
 2157TIP3    H228031   5.498   1.331   2.028 -0.4560  1.6242 -0.4924
 2158TIP3   OH228032   0.824   5.855   1.133  0.4962 -0.3904  0.1626
 2158TIP3    H128033   0.854   5.941   1.162  1.0525 -0.6011  0.2353
 2158TIP3    H228034   0.863   5.844   1.047 -0.7771  0.0373 -0.4942
 2159TIP3   OH228035   4.765   6.186   3.060  0.1987  0.0652  0.2210
 2159TIP3    H128036   4.760   6.090   3.059 -0.0387  0.0662  0.7475
 2159TIP3    H228037   4.708   6.212   3.132  0.8161  0.5662  0.5429
 2160TIP3   OH228038   2.898   6.089   0.627  0.1491  0.3850  0.6940
 2160TIP3    H128039   2.958   6.062   0.557 -1.2884  1.1736 -0.8970
 2160TIP3    H228040   2.934   6.172   0.659  0.0120  0.7730 -0.1406
 2161TIP3   OH228041   2.847   0.921   3.080 -0.1269  0.0911 -0.5314
 2161TIP3    H128042   2.922   0.885   3.128  0.4767  1.9936  0.0356
 2161TIP3    H228043   2.876   1.007   3.052 -1.3066 -0.0581 -2.3625
 2162TIP3   OH228044   5.700   3.248   3.013 -0.1107  0.7691 -0.0894
 2162TIP3    H128045   5.744   3.260   3.097 -1.3482  0.6734  0.5911
 2162TIP3    H228046   5.611   3.224   3.035 -0.3344  0.2329 -1.4423
 2163TIP3   OH228047   5.921   4.342   1.519 -0.5432  0.1278  0.5124
 2163TIP3    H128048   5.905   4.284   1.443 -2.2722 -0.5861  1.3599
 2163TIP3    H228049   5.875   4.423   1.497 -0.5389  0.1359  0.5328
 2164TIP3   OH228050   4.323   0.723   1.775 -0.3642 -0.0839 -0.3480
 2164TIP3    H128051   4.417   0.721   1.756 -0.4749  0.1819 -0.9521
 2164TIP3    H228052   4.282   0.744   1.691 -1.0371 -1.2520 -0.3361
 2165TIP3   OH228053   4.510   4.207   0.798 -0.0688 -0.5272 -0.2035
 2165TIP3    H128054   4.464   4.243   0.873  1.7595  1.0648  0.2095
 2165TIP3    H228055   4.443   4.200   0.730 -1.0995  0.9127  0.6195
 2166TIP3   OH228056   2.139   4.558   8.129  0.2073  0.0913 -0.0018
 2166TIP3    H128057   2.096   4.474   8.145  0.9982 -0.3747 -0.2453
 2166TIP3    H228058   2.075   4.609   8.080 -0.4846 -0.1661  0.6102
 2167TIP3   OH228059   6.060   6.665   2.342 -0.2056  0.2173 -0.8768
 2167TIP3    H128060   6.130   6.605   2.316 -0.4273  1.3745 -4.8165
 2167TIP3    H228061   5.988   6.608   2.368  0.6944 -1.1123 -1.1974
 2168TIP3   OH228062   2.515   6.800   1.033 -0.8266 -0.0871  0.6662
 2168TIP3    H128063   2.516   6.775   1.125 -1.0816 -0.1564  0.6487
 2168TIP3    H228064   2.606   6.789   1.005 -0.9005 -0.8056  0.7043
 2169TIP3   OH228065   1.246   0.061   1.929  0.0541 -0.0020 -0.4677
 2169TIP3    H128066   1.290   0.056   2.014 -2.0163 -1.8366  0.5712
 2169TIP3    H228067   1.202   0.146   1.931 -0.9669 -0.5301  0.8353
 2170TIP3   OH228068   5.255   6.843   0.795 -0.2610  0.1560  0.0175
 2170TIP3    H128069   5.318   6.809   0.858 -0.5739  0.9744  0.8082
 2170TIP3    H228070   5.196   6.897   0.847  0.3888  2.1370 -1.1767
 2171TIP3   OH228071   3.113   2.662   2.061  0.5007  0.2509 -0.1682
 2171TIP3    H128072   3.070   2.732   2.109 -1.0841  1.6904 -3.4287
 2171TIP3    H228073   3.042   2.616   2.017  1.8031 -1.4923 -0.5632
 2172TIP3   OH228074   3.143   6.040   7.733 -0.5135  0.1411  0.0206
 2172TIP3    H128075   3.187   6.111   7.779  0.7304 -1.0391  0.7424
 2172TIP3    H228076   3.051   6.048   7.758 -0.0580  0.2448  1.7991
 2173TIP3   OH228077   1.776   5.203   0.570 -0.2013 -0.2414  0.3832
 2173TIP3    H128078   1.715   5.169   0.505 -0.7259 -1.2294  1.3515
 2173TIP3    H228079   1.733   5.281   0.604  0.5325  0.8690 -1.1176
 2174TIP3   OH228080   2.115   2.417   7.796 -0.4877 -0.9722  0.0955
 2174TIP3    H128081   2.153   2.465   7.722 -0.0174 -1.6272 -0.0972
 2174TIP3    H228082   2.066   2.346   7.755 -1.3883 -0.5285  0.3695
 2175TIP3   OH228083   2.893   2.555   1.913 -0.1962  0.5184 -0.0852
 2175TIP3    H128084   2.850   2.471   1.898 -0.9257  1.1649 -1.8374
 2175TIP3    H228085   2.827   2.621   1.891  1.3404  1.5361 -1.9828
 2176TIP3   OH228086   1.724   5.471   7.385  0.6589  0.0863 -0.7557
 2176TIP3    H128087   1.721   5.383   7.346  1.1069 -0.3189  0.0854
 2176TIP3    H228088   1.784   5.462   7.459  0.1315  0.9252 -0.2089
 2177TIP3   OH228089   3.631   6.371   0.112 -0.0103  0.0852  0.2613
 2177TIP3    H128090   3.643   6.353   0.018  1.2097 -0.6808  0.5430
 2177TIP3    H228091   3.684   6.449   0.128  0.6101 -0.3791  0.5074
 2178TIP3   OH228092   3.668   0.546   1.174  0.4564  0.3123  0.4464
 2178TIP3    H128093   3.635   0.626   1.135  2.4152  0.5970 -0.7567
 2178TIP3    H228094   3.747   0.525   1.124 -0.4227 -2.8428  0.1649
 2179TIP3   OH228095   3.151   0.231   3.419  0.2885 -0.0533 -0.6021
 2179TIP3    H128096   3.200   0.293   3.472 -0.5873 -0.4906  0.7825
 2179TIP3    H228097   3.193   0.147   3.435 -0.1979 -0.2438 -0.3113
 2180TIP3   OH228098   5.820   3.236   1.108  0.3409  0.5200  0.2905
 2180TIP3    H128099   5.770   3.154   1.114 -0.7128  0.9871 -1.4166
 2180TIP3    H228100   5.754   3.304   1.101  1.2148  1.5483  1.6050
 2181TIP3   OH228101   6.936   3.996   2.933  0.0764 -0.4087  0.1237
 2181TIP3    H128102   6.880   4.023   3.006  0.5513  2.3992 -0.4281
 2181TIP3    H228103   7.024   4.017   2.962  0.4232 -0.7575 -0.6577
 2182TIP3   OH228104   1.884   0.853   0.771  0.3330 -0.1143  0.1339
 2182TIP3    H128105   1.952   0.919   0.764 -0.0178  0.3366  0.9345
 2182TIP3    H228106   1.932   0.771   0.788  0.6323  0.6648  4.0529
 2183TIP3   OH228107   0.504   3.871   0.306  0.4523  0.3756  0.1475
 2183TIP3    H128108   0.484   3.893   0.397  1.3789  0.8787  0.2440
 2183TIP3    H228109   0.528   3.778   0.308 -0.6146  0.0904  0.2241
 2184TIP3   OH228110   4.973   2.294   2.663 -0.0059  0.5812 -0.0108
 2184TIP3    H128111   4.969   2.245   2.581 -0.0090  1.2605 -0.4296
 2184TIP3    H228112   5.064   2.323   2.669 -0.2797  1.5679 -0.4111
 2185TIP3   OH228113   3.744   3.606   7.895  0.0233 -0.0329  0.1695
 2185TIP3    H128114   3.814   3.544   7.912  2.7844  2.5359 -0.9440
 2185TIP3    H228115   3.748   3.622   7.800 -1.1324  1.2402  0.2982
 2186TIP3   OH228116   6.110   3.524   2.451  0.1972 -0.2230 -0.5481
 2186TIP3    H128117   6.133   3.558   2.365  0.3351  0.6703 -0.1652
 2186TIP3    H228118   6.032   3.574   2.476  1.8362  1.6713  1.1013
 2187TIP3   OH228119   6.421   5.191   1.368 -0.1628 -0.0472 -0.2810
 2187TIP3    H128120   6.396   5.151   1.451 -1.0533 -0.8534 -0.9214
 2187TIP3    H228121   6.392   5.129   1.301 -0.5215  1.1182 -1.2467
 2188TIP3   OH228122   6.627   1.675   7.413 -0.4159  0.2228 -0.2227
 2188TIP3    H128123   6.684   1.737   7.368  0.5573  0.5894  1.4356
 2188TIP3    H228124   6.539   1.698   7.383  0.1781  0.5149 -1.8077
 2189TIP3   OH228125   1.828   3.797   0.498 -0.2438 -0.2937 -0.0187
 2189TIP3    H128126   1.921   3.780   0.511 -0.6580 -1.0592  2.5713
 2189TIP3    H228127   1.818   3.890   0.517  0.1706  0.1252 -1.7319
 2190TIP3   OH228128   3.255   4.812   0.126  0.5196 -0.0934  0.1369
 2190TIP3    H128129   3.259   4.857   0.210  0.9183  1.1204 -0.4901
 2190TIP3    H228130   3.345   4.783   0.110  0.4485 -0.3057  0.1198
 2191TIP3   OH228131   5.942   4.391   1.926  0.0302  0.1096  0.3176
 2191TIP3    H128132   5.905   4.461   1.980  0.7200 -0.6413  1.8210
 2191TIP3    H228133   6.004   4.435   1.869 -0.2580  0.8539  0.5672
 2192TIP3   OH228134   6.549   0.923   1.571 -0.1784 -0.0146  0.3995
 2192TIP3    H128135   6.513   0.891   1.654 -2.5763 -0.1444 -0.6163
 2192TIP3    H228136   6.509   1.009   1.559  1.0821  0.5277 -0.0818
 2193TIP3   OH228137   2.586   1.452   1.743 -0.6194 -0.2847 -0.2377
 2193TIP3    H128138   2.569   1.366   1.783  1.1634 -0.4923  0.1320
 2193TIP3    H228139   2.505   1.502   1.759 -1.4673 -1.6925  0.0421
 2194TIP3   OH228140   3.496   6.157   2.667  0.5771  0.6860  0.1146
 2194TIP3    H128141   3.548   6.149   2.747 -0.2548  0.0766  0.6110
 2194TIP3    H228142   3.486   6.067   2.636 -1.4727  0.5869  0.8887
 2195TIP3   OH228143   2.827   4.794   0.248 -0.0166  0.4235 -0.0440
 2195TIP3    H128144   2.806   4.709   0.287 -0.6524 -0.7408 -2.6975
 2195TIP3    H228145   2.896   4.774   0.185  1.1452  2.2688  0.5701
 2196TIP3   OH228146   1.874   4.105   8.061  0.0192  0.2032 -0.1558
 2196TIP3    H128147   1.946   4.043   8.053 -1.4652 -1.5712 -0.5793
 2196TIP3    H228148   1.836   4.110   7.974 -2.2932 -1.4203  0.6607
 2197TIP3   OH228149   1.304   0.487   0.810  1.1696  0.0166 -0.2316
 2197TIP3    H128150   1.306   0.392   0.814  1.4941 -0.0437 -1.3625
 2197TIP3    H228151   1.233   0.512   0.869 -1.2879 -1.1380 -2.4954
 2198TIP3   OH228152   3.735   2.472   1.349 -0.2934 -0.3529 -0.4237
 2198TIP3    H128153   3.661   2.412   1.351 -0.2887 -0.3278  0.7489
 2198TIP3    H228154   3.697   2.557   1.327 -0.4822 -0.5177 -0.7374
 2199TIP3   OH228155   1.140   6.363   2.291 -0.3925  0.1589 -0.8037
 2199TIP3    H128156   1.129   6.457   2.302 -1.0148 -0.0220  0.3816
 2199TIP3    H228157   1.208   6.339   2.355 -1.8672 -0.5018  0.5879
 2200TIP3   OH228158   1.990   5.496   2.909 -0.1830  0.2641  0.2843
 2200TIP3    H128159   2.051   5.452   2.850 -1.8269 -2.2344  0.3034
 2200TIP3    H228160   2.026   5.481   2.996  1.3418  2.5014  0.1260
 2201TIP3   OH228161   2.621   3.778   1.445 -0.1793 -0.0094 -0.5755
 2201TIP3    H128162   2.581   3.696   1.473  0.6693 -1.1490 -2.4376
 2201TIP3    H228163   2.703   3.783   1.495 -0.7113  0.2259  0.2758
 2202TIP3   OH228164   5.838   1.013   8.119 -0.3581 -0.1001 -0.2906
 2202TIP3    H128165   5.813   1.045   8.206  0.4959  0.8749 -0.3894
 2202TIP3    H228166   5.797   0.927   8.113 -0.9575  0.0848  0.8261
 2203TIP3   OH228167   5.511   5.795   3.173  0.2025 -0.4513 -0.5386
 2203TIP3    H128168   5.510   5.879   3.219  2.2375 -0.4843 -0.3205
 2203TIP3    H228169   5.509   5.820   3.080 -1.3187 -0.2759 -0.4755
 2204TIP3   OH228170   5.300   3.320   0.959 -0.3468 -0.0199  0.1836
 2204TIP3    H128171   5.358   3.343   0.887 -0.3796  1.2233  0.5214
 2204TIP3    H228172   5.247   3.398   0.972 -0.8038 -0.4719  1.1110
 2205TIP3   OH228173   3.657   1.853   1.035 -0.0115 -0.8273  0.5277
 2205TIP3    H128174   3.577   1.862   1.087  0.4185 -0.7541  1.1949
 2205TIP3    H228175   3.677   1.760   1.040 -0.3762 -0.9431 -0.1340
 2206TIP3   OH228176   3.551   6.760   0.994 -0.3302 -0.6883 -0.1606
 2206TIP3    H128177   3.571   6.773   0.902 -1.3206 -1.4908 -0.5083
 2206TIP3    H228178   3.458   6.784   1.002 -1.1253 -3.4172 -0.0347
 2207TIP3   OH228179   2.457   0.352   0.849 -0.0160  0.6453  0.0365
 2207TIP3    H128180   2.391   0.361   0.918 -0.3979 -0.0704 -0.2272
 2207TIP3    H228181   2.411   0.374   0.768  0.5483  1.9393  0.0378
 2208TIP3   OH228182   1.903   6.340   2.185 -0.3528  0.1775 -0.2347
 2208TIP3    H128183   1.912   6.423   2.233  3.5365 -0.0515 -0.2357
 2208TIP3    H228184   1.859   6.282   2.247  0.0170  1.3026  1.1532
 2209TIP3   OH228185   5.147   2.262   1.826  0.7435  0.0673 -0.1417
 2209TIP3    H128186   5.183   2.186   1.872  0.6888  0.2358  0.1784
 2209TIP3    H228187   5.223   2.311   1.797  0.7789 -0.0896 -0.3171
 2210TIP3   OH228188   6.811   4.242   2.400 -0.5368 -0.1325  0.3447
 2210TIP3    H128189   6.762   4.316   2.365  2.1919  0.8632 -1.6994
 2210TIP3    H228190   6.889   4.281   2.440  0.3379 -1.8073  0.3868
 2211TIP3   OH228191   5.885   0.990   3.020 -0.3076  0.0738  0.4459
 2211TIP3    H128192   5.879   1.018   3.112 -0.9608  1.5156 -0.0093
 2211TIP3    H228193   5.795   0.992   2.989 -0.0045  0.2955 -0.4247
 2212TIP3   OH228194   6.866   2.072   1.755  0.1912  0.2170  0.3670
 2212TIP3    H128195   6.932   2.128   1.797  0.5962  1.0915 -1.3339
 2212TIP3    H228196   6.893   1.983   1.778  0.7836  0.6243  1.3528
 2213TIP3   OH228197   1.421   0.748   1.787 -0.4622  0.0293  0.3756
 2213TIP3    H128198   1.329   0.735   1.808 -0.1455 -1.2619  1.0380
 2213TIP3    H228199   1.441   0.678   1.724  0.2430 -0.1293  0.7726
 2214TIP3   OH228200   3.382   5.140   2.097  0.4604  0.4686 -0.0584
 2214TIP3    H128201   3.456   5.195   2.072  1.3174 -0.4423  0.4113
 2214TIP3    H228202   3.418   5.077   2.159 -0.4438 -0.7351 -0.7067
 2215TIP3   OH228203   4.843   0.001   0.330 -0.2585 -0.2123 -0.3185
 2215TIP3    H128204   4.841   0.072   0.394 -3.2988 -1.3556  1.0573
 2215TIP3    H228205   4.925   0.014   0.282  1.4087  1.6423  2.7149
 2216TIP3   OH228206   0.434   1.321   2.811 -0.5922 -0.1894 -0.2843
 2216TIP3    H128207   0.361   1.369   2.773 -1.0227 -1.1027 -0.6403
 2216TIP3    H228208   0.509   1.379   2.800 -1.2628  0.7850  0.1377
 2217TIP3   OH228209   6.616   2.455   0.784  0.0766 -0.3434  0.2435
 2217TIP3    H128210   6.541   2.515   0.786  0.7368  0.5150  0.2467
 2217TIP3    H228211   6.662   2.477   0.703 -0.8415 -2.3708 -0.8823
 2218TIP3   OH228212   4.412   0.969   3.045 -0.4729  0.5598 -0.0567
 2218TIP3    H128213   4.473   0.896   3.042 -1.1122 -0.0292  0.7977
 2218TIP3    H228214   4.419   1.010   2.959 -0.6688 -0.9708 -0.8370
 2219TIP3   OH228215   4.191   3.406   0.324 -0.6550  0.5477 -0.1491
 2219TIP3    H128216   4.154   3.468   0.387 -1.5465  0.5900 -0.6841
 2219TIP3    H228217   4.144   3.425   0.243 -0.9521 -0.8234 -0.3257
 2220TIP3   OH228218   5.742   0.700   0.156  0.8395 -0.1806  0.0297
 2220TIP3    H128219   5.728   0.757   0.081 -0.0742 -0.3636  0.0534
 2220TIP3    H228220   5.817   0.646   0.131 -1.3067 -2.4631 -2.1526
 2221TIP3   OH228221   6.757   5.421   2.416 -0.2393 -0.5003  0.3813
 2221TIP3    H128222   6.815   5.497   2.421  0.4331 -1.0163  0.5739
 2221TIP3    H228223   6.669   5.457   2.427 -0.0799  0.4633 -1.1936
 2222TIP3   OH228224   4.971   3.787   7.918  0.0207  0.2284  0.8678
 2222TIP3    H128225   4.943   3.850   7.852  0.5014 -0.2170  0.2333
 2222TIP3    H228226   5.048   3.827   7.958  1.0257 -0.4366 -0.3222
 2223TIP3   OH228227   3.824   3.894   1.251  0.4439 -0.0056  0.2079
 2223TIP3    H128228   3.731   3.875   1.258  0.3876  0.2841  0.2447
 2223TIP3    H228229   3.829   3.988   1.236  0.7103 -0.0877 -0.2402
 2224TIP3   OH228230   4.137   1.849   0.452 -0.3191 -0.2636  0.0311
 2224TIP3    H128231   4.230   1.857   0.432 -0.4541  1.5435 -0.1184
 2224TIP3    H228232   4.099   1.930   0.417 -2.0751 -1.2968 -0.5702
 2225TIP3   OH228233   5.229   5.815   1.563 -0.2826  0.7823  0.0559
 2225TIP3    H128234   5.217   5.910   1.564 -1.2869  0.7190 -1.5058
 2225TIP3    H228235   5.282   5.799   1.485 -0.7321  0.0027 -0.0937
 2226TIP3   OH228236   1.097   3.145   2.659  0.1787  0.2456 -0.0645
 2226TIP3    H128237   1.135   3.063   2.628 -1.4524 -0.4516 -0.3553
 2226TIP3    H228238   1.010   3.121   2.690 -1.2968  2.1710 -2.3272
 2227TIP3   OH228239   5.019   0.704   2.772 -0.4918  0.0557  0.0184
 2227TIP3    H128240   4.990   0.784   2.817  0.0077 -0.7361  1.8624
 2227TIP3    H228241   5.090   0.732   2.716  1.2648  0.6333  2.3705
 2228TIP3   OH228242   0.337   0.447   0.245 -0.2913  0.3749 -0.0434
 2228TIP3    H128243   0.289   0.530   0.239 -2.0282 -0.7033 -2.4470
 2228TIP3    H228244   0.317   0.414   0.332  0.6499  2.5284  1.0820
 2229TIP3   OH228245   1.298   1.875   7.839 -0.0612 -0.2024 -0.2232
 2229TIP3    H128246   1.281   1.781   7.831  1.3405 -0.3269 -2.9579
 2229TIP3    H228247   1.214   1.916   7.819 -0.2750 -0.8760 -0.7719
 2230TIP3   OH228248   1.717   6.425   1.653 -0.6080 -0.3838 -0.1311
 2230TIP3    H128249   1.714   6.405   1.559 -0.5271  1.1162 -0.4738
 2230TIP3    H228250   1.683   6.514   1.660  0.2932 -0.1136  1.1604
 2231TIP3   OH228251   6.319   2.477   2.187 -0.7626 -0.1327 -0.1093
 2231TIP3    H128252   6.352   2.480   2.098  0.4419 -0.2739  0.3210
 2231TIP3    H228253   6.376   2.415   2.232 -1.3310 -0.0318  0.7681
 2232TIP3   OH228254   3.376   1.687   1.318  0.3578 -1.0226  0.2835
 2232TIP3    H128255   3.439   1.621   1.347  0.8390 -0.5928  0.2223
 2232TIP3    H228256   3.339   1.652   1.237  2.0158 -0.3514 -0.8065
 2233TIP3   OH228257   2.116   1.528   7.418  0.2370 -0.0203 -0.1218
 2233TIP3    H128258   2.209   1.549   7.410  0.2609  0.0167  0.2186
 2233TIP3    H228259   2.100   1.462   7.351 -0.0172  1.6336 -1.7799
 2234TIP3   OH228260   6.282   6.133   8.167 -0.5263  0.1020  0.4685
 2234TIP3    H128261   6.300   6.059   8.110 -1.5878 -1.0752  1.6007
 2234TIP3    H228262   6.314   6.209   8.118  1.5804 -1.1682 -0.2824
 2235TIP3   OH228263   1.422   5.824   0.827 -0.2162 -0.5218  0.2699
 2235TIP3    H128264   1.428   5.761   0.755  2.2537 -0.5528  0.4397
 2235TIP3    H228265   1.492   5.799   0.887 -0.7005  0.9647  1.5216
 2236TIP3   OH228266   2.920   2.883   2.987  0.1960 -0.4233  0.4594
 2236TIP3    H128267   2.998   2.839   3.019 -1.1923 -1.0139  3.2604
 2236TIP3    H228268   2.906   2.955   3.048 -1.1014  0.0746 -0.3810
 2237TIP3   OH228269   4.869   2.028   7.966  0.1911 -0.0289 -0.5853
 2237TIP3    H128270   4.812   2.087   7.917 -2.3522 -1.4445  0.5038
 2237TIP3    H228271   4.907   2.083   8.034 -1.3986  0.5984 -0.1632
 2238TIP3   OH228272   3.509   5.050   2.828 -0.0829  0.0182  0.3900
 2238TIP3    H128273   3.563   4.975   2.856  1.2559 -0.1942 -2.3891
 2238TIP3    H228274   3.541   5.123   2.881 -0.3946 -1.0222  2.1146
 2239TIP3   OH228275   4.049   1.108   3.111  0.1421  0.4369 -0.0665
 2239TIP3    H128276   4.063   1.202   3.119 -1.5038  0.6648  0.6792
 2239TIP3    H228277   4.109   1.069   3.174 -0.6665  1.1546  1.1902
 2240TIP3   OH228278   2.260   4.635   0.069  0.5776  0.4454 -0.0415
 2240TIP3    H128279   2.212   4.718   0.061 -1.9059 -0.9875 -1.3119
 2240TIP3    H228280   2.341   4.649   0.021  1.3976  2.8472  1.8183
 2241TIP3   OH228281   5.262   6.847   0.341 -0.4479 -1.0594 -0.4002
 2241TIP3    H128282   5.333   6.909   0.357 -1.5579 -0.1304  1.1984
 2241TIP3    H228283   5.270   6.783   0.412 -1.1252 -1.0169 -0.2828
 2242TIP3   OH228284   2.148   1.658   1.533 -0.0228  0.0032  0.2713
 2242TIP3    H128285   2.226   1.711   1.519  0.1765  0.0014  1.3079
 2242TIP3    H228286   2.114   1.642   1.445  1.0158  0.1862 -0.1789
 2243TIP3   OH228287   1.536   2.142   2.254  0.2023  0.0580 -0.1297
 2243TIP3    H128288   1.623   2.123   2.220 -0.2994 -0.8422 -0.9631
 2243TIP3    H228289   1.529   2.089   2.333 -0.1917 -1.2419 -0.9911
 2244TIP3   OH228290   6.784   5.868   2.227 -0.1423  0.2220  0.0236
 2244TIP3    H128291   6.813   5.950   2.187 -1.7116  0.3518 -0.9420
 2244TIP3    H228292   6.785   5.804   2.156  0.7758 -0.5357  0.6991
 2245TIP3   OH228293   5.652   3.789   2.814 -0.3249  0.4824  0.1942
 2245TIP3    H128294   5.657   3.747   2.728  0.2685  0.3078  0.3058
 2245TIP3    H228295   5.710   3.864   2.807  0.3945 -0.0102  0.6938
 2246TIP3   OH228296   3.854   6.264   2.354  0.5587  0.1274  0.1544
 2246TIP3    H128297   3.918   6.276   2.424 -0.3859  1.3175  0.8536
 2246TIP3    H228298   3.770   6.286   2.394  0.0427  1.2432 -1.4470
 2247TIP3   OH228299   4.038   2.352   7.281 -0.1322 -0.8001 -0.1864
 2247TIP3    H128300   4.087   2.292   7.337 -2.8226 -1.6957  1.4107
 2247TIP3    H228301   4.097   2.426   7.267  2.2005 -2.4650  0.2545
 2248TIP3   OH228302   5.307   6.644   1.917 -0.0115 -0.3442 -0.8232
 2248TIP3    H128303   5.229   6.629   1.970  0.5102  0.0038  0.0665
 2248TIP3    H228304   5.318   6.739   1.917  0.4530 -0.3944 -0.8663
 2249TIP3   OH228305   4.299   0.506   2.236 -0.3561  0.7041  0.0456
 2249TIP3    H128306   4.205   0.501   2.251 -0.9178  1.0253 -2.7735
 2249TIP3    H228307   4.307   0.549   2.151  2.2451 -0.9017 -0.6330
 2250TIP3   OH228308   2.923   4.136   0.162  0.0347 -0.1968  0.4103
 2250TIP3    H128309   2.944   4.095   0.246  0.0850 -0.2774  0.3590
 2250TIP3    H228310   3.007   4.148   0.119  0.0196 -0.0329  0.4271
 2251TIP3   OH228311   0.332   1.397   0.723 -0.0868  0.1894 -0.6725
 2251TIP3    H128312   0.307   1.346   0.800 -1.1662 -0.1564 -1.2409
 2251TIP3    H228313   0.254   1.448   0.702  0.3785  0.6922 -1.2201
 2252TIP3   OH228314   4.658   0.499   7.606  0.0956 -0.1417 -0.5217
 2252TIP3    H128315   4.704   0.440   7.666  0.9053  1.3302  0.3806
 2252TIP3    H228316   4.653   0.451   7.524 -0.5759 -2.0312  0.5589
 2253TIP3   OH228317   6.592   0.484   0.798  0.3635  0.3974  0.1532
 2253TIP3    H128318   6.671   0.524   0.762  0.1505  0.0801 -0.7135
 2253TIP3    H228319   6.542   0.557   0.835  1.0689  0.5935  0.7425
 2254TIP3   OH228320   2.572   3.330   8.063  0.4427  0.1613  0.0806
 2254TIP3    H128321   2.529   3.287   7.989 -1.6469 -0.4184  1.5511
 2254TIP3    H228322   2.666   3.322   8.043  0.0069 -1.3761 -1.7261
 2255TIP3   OH228323   4.944   4.222   2.763  0.5977  0.1249  0.4689
 2255TIP3    H128324   4.877   4.226   2.694 -0.3307 -0.4508  1.3005
 2255TIP3    H228325   4.919   4.146   2.816  2.6721 -0.9014  0.0654
 2256TIP3   OH228326   3.510   2.437   7.781  0.6031  0.2201  0.1480
 2256TIP3    H128327   3.477   2.492   7.710 -0.6063  2.3132  2.2243
 2256TIP3    H228328   3.455   2.458   7.856  1.6647 -2.0929  1.6932
 2257TIP3   OH228329   0.062   6.411   8.363 -0.4782 -0.2531  0.2607
 2257TIP3    H128330   0.120   6.426   8.438 -1.3709 -1.1933  1.1779
 2257TIP3    H228331  -0.010   6.473   8.376  0.4105  1.0904 -1.0099
 2258TIP3   OH228332   4.120   5.265   2.543  0.0797  0.4571  0.2742
 2258TIP3    H128333   4.207   5.281   2.505  0.9912 -2.7286  0.7501
 2258TIP3    H228334   4.067   5.238   2.468  0.2066  0.0327  0.3327
 2259TIP3   OH228335   3.212   1.175   2.427 -0.4036  0.2230 -0.3346
 2259TIP3    H128336   3.202   1.268   2.447 -0.3945 -0.0820  1.1662
 2259TIP3    H228337   3.299   1.153   2.460  0.5734  0.1700 -2.7433
 2260TIP3   OH228338   6.056   0.635   0.931 -0.7673  0.5316 -0.1465
 2260TIP3    H128339   6.124   0.703   0.935 -0.9548  0.6620  0.9967
 2260TIP3    H228340   5.982   0.672   0.980 -0.7748 -0.6080  0.7194
 2261TIP3   OH228341   1.374   6.547   1.065 -0.6118 -0.4993 -0.1928
 2261TIP3    H128342   1.392   6.630   1.022 -2.0801  1.0751  2.0118
 2261TIP3    H228343   1.299   6.511   1.018 -0.7608  0.0352 -0.3631
 2262TIP3   OH228344   2.089   6.550   8.258  0.5593 -0.2109 -0.5213
 2262TIP3    H128345   1.998   6.542   8.228  0.6590  2.4004 -1.7932
 2262TIP3    H228346   2.081   6.586   8.347  0.3726 -3.0853  0.7287
 2263TIP3   OH228347   3.383   4.947   1.894  0.0988 -0.4468 -0.1442
 2263TIP3    H128348   3.464   4.961   1.942 -0.1823 -1.2371  0.5919
 2263TIP3    H228349   3.389   4.857   1.862 -1.1055 -1.0354  1.1829
 2264TIP3   OH228350   1.562   0.136   1.048  0.1243  0.4159 -0.2235
 2264TIP3    H128351   1.493   0.139   0.982 -0.8394 -0.8092  0.6631
 2264TIP3    H228352   1.542   0.210   1.106 -0.6444 -0.1150  0.2025
 2265TIP3   OH228353   4.414   5.460   1.402  0.2670  0.6901 -0.3426
 2265TIP3    H128354   4.361   5.481   1.325  1.7265  1.2205 -1.2465
 2265TIP3    H228355   4.411   5.540   1.455  1.4334  1.3504 -1.1934
 2266TIP3   OH228356   5.016   2.569   0.326 -0.5624  0.4760  0.2063
 2266TIP3    H128357   4.961   2.505   0.370 -0.6259  0.2964 -0.1378
 2266TIP3    H228358   4.968   2.651   0.333 -1.6541  0.0316 -1.4839
 2267TIP3   OH228359   4.756   0.393   1.832 -0.1836 -0.4511 -0.0002
 2267TIP3    H128360   4.698   0.317   1.829  0.9566 -1.3386 -1.2215
 2267TIP3    H228361   4.827   0.368   1.891  0.7567 -0.8233 -1.2228
 2268TIP3   OH228362   4.413   0.114   2.468  0.6748  0.0192  0.0746
 2268TIP3    H128363   4.332   0.105   2.417  0.9885  0.5689 -0.5473
 2268TIP3    H228364   4.475   0.056   2.425  0.2640 -1.4373  1.3596
 2269TIP3   OH228365   6.151   5.798   1.709 -0.2012 -0.7204  0.6051
 2269TIP3    H128366   6.150   5.796   1.805  0.3968 -0.2342  0.6313
 2269TIP3    H228367   6.225   5.854   1.688 -1.8231  1.2598 -0.1301
 2270TIP3   OH228368   1.008   3.767   2.215  0.3810 -0.1909 -0.2441
 2270TIP3    H128369   1.022   3.852   2.257  0.7953 -0.8690  1.0541
 2270TIP3    H228370   0.992   3.788   2.123  0.5341  1.2826  0.0372
 2271TIP3   OH228371   2.916   1.259   8.003 -0.1683  0.1725  0.2088
 2271TIP3    H128372   2.849   1.229   7.941  1.0215  0.0860 -1.1072
 2271TIP3    H228373   2.867   1.285   8.081 -1.6057 -1.1167 -0.2100
 2272TIP3   OH228374   2.000   1.126   1.726  0.0049 -0.2147 -0.3634
 2272TIP3    H128375   2.033   1.172   1.804  2.2733 -1.0602 -0.7557
 2272TIP3    H228376   1.953   1.050   1.762  0.6367 -0.3533  0.1876
 2273TIP3   OH228377   2.356   0.110   2.569 -0.2674 -0.6223  0.3716
 2273TIP3    H128378   2.277   0.164   2.565 -0.7842 -1.3610  0.5128
 2273TIP3    H228379   2.357   0.060   2.488 -0.9144 -1.9306  1.1341
 2274TIP3   OH228380   6.799   3.582   8.359  0.1863 -0.9512  0.1264
 2274TIP3    H128381   6.727   3.522   8.339  0.3467 -0.8131 -0.8941
 2274TIP3    H228382   6.873   3.548   8.309 -0.3152  1.3926 -2.4062
 2275TIP3   OH228383   3.985   6.732   7.993  0.3945 -0.0411 -0.4894
 2275TIP3    H128384   3.917   6.722   7.927  0.4472  0.6247 -0.6498
 2275TIP3    H228385   4.057   6.775   7.948  0.5893  0.0448 -0.1052
 2276TIP3   OH228386   3.927   2.662   2.345 -0.0360 -0.0268 -0.5431
 2276TIP3    H128387   3.884   2.716   2.280  1.1623  1.1052 -0.4347
 2276TIP3    H228388   3.934   2.717   2.423  0.2394 -0.7022 -0.0727
 2277TIP3   OH228389   2.168   3.971   0.310  0.5328 -0.0731  0.1613
 2277TIP3    H128390   2.117   3.996   0.387 -0.2651 -0.2124 -0.3208
 2277TIP3    H228391   2.158   3.876   0.304  0.0039  0.0219 -0.5290
 2278TIP3   OH228392   3.120   3.696   2.108  0.5855 -0.1887 -0.8443
 2278TIP3    H128393   3.179   3.753   2.059  0.5831 -1.7125 -2.7758
 2278TIP3    H228394   3.102   3.623   2.048  0.0129 -1.8457  1.2110
 2279TIP3   OH228395   2.068   4.224   0.553  0.0234 -0.0023 -0.4480
 2279TIP3    H128396   2.037   4.190   0.636  0.7687  0.4662  0.0362
 2279TIP3    H228397   1.998   4.282   0.522  0.0890  0.4657  0.2617
 2280TIP3   OH228398   0.219   1.727   8.116  0.2164  0.2291 -0.1655
 2280TIP3    H128399   0.274   1.784   8.169  1.7364 -1.7493  0.5348
 2280TIP3    H228400   0.279   1.692   8.050 -1.0372  0.6072 -1.5668
 2281TIP3   OH228401   0.372   3.122   2.652  0.3052 -0.0020 -0.0304
 2281TIP3    H128402   0.334   3.209   2.662 -0.4417 -0.2364 -0.7749
 2281TIP3    H228403   0.315   3.077   2.590  1.4541 -0.5627 -0.7227
 2282TIP3   OH228404   3.262   4.022   2.842 -0.5202  0.0863 -0.6556
 2282TIP3    H128405   3.297   4.071   2.767  1.0677  1.8861  1.1332
 2282TIP3    H228406   3.339   3.988   2.887 -1.3030  0.3909  1.0065
 2283TIP3   OH228407   3.801   4.840   0.894 -0.1975 -0.0576 -0.3288
 2283TIP3    H128408   3.885   4.832   0.939 -0.8918 -0.3809  0.9649
 2283TIP3    H228409   3.818   4.810   0.805  0.3719 -3.0592  0.7038
 2284TIP3   OH228410   3.104   2.609   2.862 -0.1711  0.2438 -0.1101
 2284TIP3    H128411   3.170   2.545   2.887 -0.6166 -0.3432 -0.4009
 2284TIP3    H228412   3.023   2.558   2.856 -0.7725  1.0525  0.8401
 2285TIP3   OH228413   2.330   1.865   3.307  0.0212  1.0173  0.0654
 2285TIP3    H128414   2.305   1.952   3.277 -0.1020  2.0160  2.7240
 2285TIP3    H228415   2.419   1.878   3.343  0.4937 -0.2527 -0.6099
 2286TIP3   OH228416   5.384   2.023   3.541 -0.6340 -0.6113 -0.0585
 2286TIP3    H128417   5.427   2.104   3.570  0.6236 -1.6926  1.2698
 2286TIP3    H228418   5.301   2.023   3.588 -0.6171 -0.1048 -0.0187
 2287TIP3   OH228419   6.276   4.452   7.864 -0.3507  0.0828 -0.0594
 2287TIP3    H128420   6.355   4.442   7.917  0.5530 -0.0122 -1.3796
 2287TIP3    H228421   6.302   4.426   7.776 -1.9245 -0.1821 -0.4910
 2288TIP3   OH228422   4.529   0.112   0.242  0.1901  0.5159  0.8020
 2288TIP3    H128423   4.514   0.083   0.332 -2.6586  2.0679  0.9375
 2288TIP3    H228424   4.589   0.186   0.249  1.8349 -0.7781  1.1163
 2289TIP3   OH228425   0.036   0.342   2.498  0.0210 -0.3362  0.7623
 2289TIP3    H128426   0.012   0.396   2.573  0.2315  2.5836 -1.1013
 2289TIP3    H228427  -0.044   0.336   2.446  0.8272  1.3206 -0.7803
 2290TIP3   OH228428   5.314   4.261   0.789  0.3888  0.6013  0.0971
 2290TIP3    H128429   5.297   4.330   0.853 -2.7152  2.0406 -1.9948
 2290TIP3    H228430   5.323   4.308   0.705  0.7516 -1.3715 -1.0257
 2291TIP3   OH228431   3.784   2.723   3.135  0.1353 -0.1531  1.0350
 2291TIP3    H128432   3.787   2.739   3.229 -1.8117 -1.2426  1.3318
 2291TIP3    H228433   3.819   2.635   3.125  0.1714 -0.1064  0.7405
 2292TIP3   OH228434   0.241   3.336   3.571  0.2162  0.2327 -0.3960
 2292TIP3    H128435   0.287   3.280   3.634 -0.1900  0.3478  0.0047
 2292TIP3    H228436   0.152   3.303   3.570 -0.2967  1.5411  0.6417
 2293TIP3   OH228437   0.475   5.440   0.851 -0.6351 -0.6702  0.0992
 2293TIP3    H128438   0.447   5.509   0.912 -1.4932 -0.4060 -0.5821
 2293TIP3    H228439   0.544   5.481   0.799 -1.1769 -0.3014 -0.3373
 2294TIP3   OH228440   1.825   3.282   1.174  0.2225 -0.0857  0.4817
 2294TIP3    H128441   1.805   3.313   1.085  0.9530 -0.7935  0.0515
 2294TIP3    H228442   1.741   3.281   1.219 -0.7012 -2.6060 -1.1265
 2295TIP3   OH228443   0.708   1.116   8.284  0.6917 -0.4874  0.4644
 2295TIP3    H128444   0.620   1.134   8.250  0.6149 -0.8638  0.4561
 2295TIP3    H228445   0.760   1.095   8.207  1.0087  0.5808  0.3759
 2296TIP3   OH228446   1.231   6.415   2.567 -0.0013  0.7513 -0.0929
 2296TIP3    H128447   1.173   6.491   2.573 -1.9108 -0.6782  0.5652
 2296TIP3    H228448   1.271   6.409   2.653 -0.3843  0.6262  0.0800
 2297TIP3   OH228449   5.639   5.970   7.490  0.0860 -0.7309  0.4021
 2297TIP3    H128450   5.544   5.958   7.493  0.1819 -1.5528  0.3582
 2297TIP3    H228451   5.674   5.882   7.478  0.8822 -0.5052  0.9700
 2298TIP3   OH228452   5.786   5.747   7.437  0.4078 -0.1341  0.0121
 2298TIP3    H128453   5.816   5.682   7.501  0.5556 -0.5737 -0.4977
 2298TIP3    H228454   5.862   5.761   7.380 -0.4676 -1.6289 -1.5950
 2299TIP3   OH228455   1.675   1.214   0.777  0.4225 -0.3601  0.5128
 2299TIP3    H128456   1.616   1.287   0.759  2.2306  1.2550  0.8760
 2299TIP3    H228457   1.697   1.179   0.691 -0.2957 -0.3469  0.3224
 2300TIP3   OH228458   5.666   4.364   1.334 -0.0098 -0.4828 -0.6196
 2300TIP3    H128459   5.699   4.453   1.348  0.2420 -0.7732  0.7666
 2300TIP3    H228460   5.742   4.314   1.304 -0.3192 -0.0963 -2.1740
 2301TIP3   OH228461   1.349   6.748   8.248 -0.2763 -0.2396 -0.0777
 2301TIP3    H128462   1.359   6.686   8.320 -1.5857  2.2117  2.4179
 2301TIP3    H228463   1.272   6.716   8.200 -0.0239 -1.3414  0.2236
 2302TIP3   OH228464   3.274   2.965   2.190 -0.3400 -0.0895  0.2601
 2302TIP3    H128465   3.329   2.886   2.185  1.0598  0.8003  0.8448
 2302TIP3    H228466   3.307   3.021   2.121 -0.5068  0.4702  0.6295
 2303TIP3   OH228467   2.835   3.580   2.753  0.7812 -0.0934 -0.3171
 2303TIP3    H128468   2.841   3.550   2.662  1.2951 -1.3011  0.0892
 2303TIP3    H228469   2.743   3.566   2.776  0.6506  0.2121 -0.6500
 2304TIP3   OH228470   3.926   1.948   0.318 -0.6570 -0.7697  0.3932
 2304TIP3    H128471   3.896   1.861   0.293 -1.6121 -0.6628  1.0835
 2304TIP3    H228472   3.898   2.005   0.246  1.8357 -1.2894 -1.1072
 2305TIP3   OH228473   5.343   4.685   8.348 -0.1449 -0.0742  0.3036
 2305TIP3    H128474   5.263   4.737   8.350  1.5793  2.7145  1.0675
 2305TIP3    H228475   5.372   4.682   8.439  0.6080 -1.1202  0.0452
 2306TIP3   OH228476   6.145   6.732   3.115  0.3666  0.6155  0.5212
 2306TIP3    H128477   6.206   6.718   3.042 -0.7482 -1.7802 -0.0696
 2306TIP3    H228478   6.062   6.695   3.085 -0.7993  1.7593  2.1294
 2307TIP3   OH228479   6.732   2.063   1.326  0.0940  0.0407  0.5713
 2307TIP3    H128480   6.770   1.978   1.346 -1.4540 -0.7608  0.2664
 2307TIP3    H228481   6.671   2.046   1.254 -1.6010  1.0366  1.6861
 2308TIP3   OH228482   2.349   2.192   2.842 -0.4416 -0.2931 -0.1407
 2308TIP3    H128483   2.264   2.185   2.885 -1.2181 -1.5948 -1.7682
 2308TIP3    H228484   2.412   2.186   2.914 -1.6822  1.4393  1.1783
 2309TIP3   OH228485   5.316   1.718   2.922  0.0475  0.5386  0.0068
 2309TIP3    H128486   5.258   1.650   2.956  0.0189 -0.4542 -1.9136
 2309TIP3    H228487   5.272   1.800   2.944 -1.5658 -0.1606 -0.4698
 2310TIP3   OH228488   3.165   2.632   8.166  0.0847 -0.1485  0.2682
 2310TIP3    H128489   3.197   2.543   8.179  0.8012  0.2885  1.6425
 2310TIP3    H228490   3.074   2.620   8.137  0.0427 -1.3122  0.8091
 2311TIP3   OH228491   3.934   5.462   2.026 -0.1397  0.4090  0.7267
 2311TIP3    H128492   3.981   5.527   1.973 -1.0586  1.8267  1.5708
 2311TIP3    H228493   3.974   5.379   2.003 -1.3118  0.7268 -3.1734
 2312TIP3   OH228494   0.765   5.667   2.630  0.2605  0.2864  0.0474
 2312TIP3    H128495   0.718   5.710   2.559  0.7073  1.1421  0.2534
 2312TIP3    H228496   0.761   5.729   2.703  1.8154  0.4698  0.0258
 2313TIP3   OH228497   1.223   5.948   8.419  0.4664 -0.1279 -0.4325
 2313TIP3    H128498   1.160   6.010   8.382  2.0078 -0.3250 -3.7683
 2313TIP3    H228499   1.202   5.865   8.378 -0.0465 -1.3629  2.1512
 2314TIP3   OH228500   2.165   0.777   7.150  0.2482  0.4873  0.1383
 2314TIP3    H128501   2.214   0.831   7.087 -1.0099 -0.3514 -1.6519
 2314TIP3    H228502   2.157   0.832   7.228  2.2568  1.3983 -0.2469
 2315TIP3   OH228503   4.449   5.450   8.416 -0.0781  0.3681 -0.2416
 2315TIP3    H128504   4.385   5.483   8.478  0.6034 -2.4266  2.1411
 2315TIP3    H228505   4.424   5.359   8.401  2.9832 -0.7022  0.4449
 2316TIP3   OH228506   5.032   2.621   2.245  0.0466  0.0978 -0.1433
 2316TIP3    H128507   4.963   2.679   2.278  0.3767  0.2702  0.2512
 2316TIP3    H228508   5.096   2.680   2.206 -0.4326 -0.1145 -1.3054
 2317TIP3   OH228509   4.651   3.281   8.449  0.0838  0.2843 -0.2352
 2317TIP3    H128510   4.566   3.322   8.432  0.4129  1.7946  1.4878
 2317TIP3    H228511   4.678   3.248   8.363 -2.3774 -0.5896 -0.7822
 2318TIP3   OH228512   6.486   3.617   0.047 -0.8005  0.3138 -0.1122
 2318TIP3    H128513   6.410   3.660   0.087 -0.0459  3.2842 -1.5858
 2318TIP3    H228514   6.548   3.605   0.118 -2.0168 -0.7484  0.8125
 2319TIP3   OH228515   3.997   1.735   0.955 -0.2934 -0.0704  0.1447
 2319TIP3    H128516   3.981   1.828   0.943 -1.9317 -0.2036  0.9772
 2319TIP3    H228517   4.045   1.708   0.877 -1.2690  1.1373 -0.9138
 2320TIP3   OH228518   5.063   1.141   1.818  0.4466  0.0282 -0.2222
 2320TIP3    H128519   4.990   1.189   1.778 -0.6386 -0.9430  0.5269
 2320TIP3    H228520   5.098   1.201   1.884 -2.4083 -0.9592  2.3865
 2321TIP3   OH228521   3.566   5.760   1.962 -0.6968 -0.1015  0.0075
 2321TIP3    H128522   3.475   5.760   1.993 -0.6889 -2.9204  0.3430
 2321TIP3    H228523   3.615   5.717   2.032  1.0613  1.8933  0.0877
 2322TIP3   OH228524   2.988   0.626   7.499 -0.4485 -0.4130 -0.4790
 2322TIP3    H128525   3.060   0.680   7.532 -1.1567  0.6236 -0.5699
 2322TIP3    H228526   3.021   0.536   7.503  0.5385 -0.0347  0.2730
 2323TIP3   OH228527   4.994   1.807   2.726 -0.2189  0.2315  0.2225
 2323TIP3    H128528   5.052   1.733   2.709  2.0779  1.8739  0.3381
 2323TIP3    H228529   4.940   1.814   2.647  0.7220 -0.5450 -0.5209
 2324TIP3   OH228530   5.631   3.746   0.108  0.6499  0.3520  0.1881
 2324TIP3    H128531   5.590   3.778   0.188  0.2130 -0.1174  0.1548
 2324TIP3    H228532   5.704   3.692   0.138  0.7721  0.5540  0.2583
 2325TIP3   OH228533   2.689   0.357   0.572  0.4776  0.5346  0.0636
 2325TIP3    H128534   2.641   0.293   0.625 -0.4876 -0.4383 -1.8847
 2325TIP3    H228535   2.637   0.437   0.577 -2.0956 -0.7642 -2.7943
 2326TIP3   OH228536   3.963   6.197   0.617  0.2074 -0.0830 -0.1831
 2326TIP3    H128537   4.004   6.115   0.643  0.5510 -0.4072 -1.6648
 2326TIP3    H228538   4.029   6.264   0.637  0.5842 -0.3544 -0.5133
 2327TIP3   OH228539   2.240   6.900   1.995  0.4549 -0.5453 -0.4816
 2327TIP3    H128540   2.325   6.880   1.957  0.6897  0.8900 -0.7625
 2327TIP3    H228541   2.256   6.975   2.053 -0.4858 -0.7015  0.0070
 2328TIP3   OH228542   2.934   4.166   1.534 -0.3230  0.1709 -0.0396
 2328TIP3    H128543   2.852   4.216   1.539  0.1224  0.8238  1.3934
 2328TIP3    H228544   2.996   4.226   1.492 -0.6930 -0.5317 -1.6609
 2329TIP3   OH228545   0.990   0.088   0.494 -0.0141  0.1138  0.1516
 2329TIP3    H128546   0.909   0.079   0.543 -0.4718 -2.1701 -0.8740
 2329TIP3    H228547   1.040   0.009   0.515  1.9526  1.4339  0.6953
 2330TIP3   OH228548   4.514   3.878   0.951  0.2308 -0.3992  0.0733
 2330TIP3    H128549   4.591   3.876   1.008  1.1007 -0.0593 -1.0488
 2330TIP3    H228550   4.455   3.942   0.992  0.7718 -0.2757  0.6650
 2331TIP3   OH228551   3.065   4.124   3.479  0.1805  0.0478  0.4564
 2331TIP3    H128552   3.068   4.105   3.573 -1.6121 -1.0167  0.3421
 2331TIP3    H228553   3.021   4.208   3.473 -1.1703 -0.6275  0.5321
 2332TIP3   OH228554   1.245   1.734   8.347 -0.0331 -0.2348  0.0528
 2332TIP3    H128555   1.212   1.757   8.434  0.4530  0.3897  0.0806
 2332TIP3    H228556   1.312   1.668   8.363  2.5446  2.2792  0.5343
 2333TIP3   OH228557   3.929   2.585   2.824 -0.1130  0.0135  0.3734
 2333TIP3    H128558   3.999   2.645   2.849 -0.2523  1.2087 -1.8865
 2333TIP3    H228559   3.958   2.547   2.741 -0.6409 -2.0922  1.0796
 2334TIP3   OH228560   1.545   5.377   2.682 -0.1415  0.0506 -0.2741
 2334TIP3    H128561   1.496   5.301   2.712  1.8994 -0.2301  2.7129
 2334TIP3    H228562   1.606   5.397   2.753 -0.7755  4.7152 -0.6836
 2335TIP3   OH228563   1.993   2.734   3.491 -0.1682  0.0794  0.4676
 2335TIP3    H128564   2.052   2.750   3.418 -0.7024  0.0648  0.0315
 2335TIP3    H228565   2.006   2.810   3.549  1.0150 -0.4111  0.8817
 2336TIP3   OH228566   0.818   5.203   2.705  0.0177  0.1385 -0.5534
 2336TIP3    H128567   0.815   5.166   2.617 -3.1889 -1.7790  0.1817
 2336TIP3    H228568   0.758   5.278   2.702 -1.6803 -1.1037  0.3361
 2337TIP3   OH228569   3.160   4.192   2.140  0.6315  0.1966 -0.1963
 2337TIP3    H128570   3.219   4.150   2.202  0.8269  0.9218  0.1180
 2337TIP3    H228571   3.218   4.233   2.075  0.4566  0.2647 -0.3131
 2338TIP3   OH228572   6.248   3.417   1.617  0.2455  0.1601  0.1983
 2338TIP3    H128573   6.300   3.386   1.691  0.2201 -0.8226 -0.1772
 2338TIP3    H228574   6.281   3.367   1.542  1.4751  2.3309 -0.8296
 2339TIP3   OH228575   0.839   4.118   0.597  0.0048 -0.1660  0.2250
 2339TIP3    H128576   0.775   4.190   0.602 -0.4280 -0.5405  0.1349
 2339TIP3    H228577   0.872   4.122   0.507  0.1528  0.0643  0.2878
 2340TIP3   OH228578   4.424   1.817   0.415  0.0280  0.3689  0.1177
 2340TIP3    H128579   4.418   1.900   0.463  0.3671  1.3215 -1.4136
 2340TIP3    H228580   4.479   1.838   0.339 -2.1665 -0.5039 -1.8255
 2341TIP3   OH228581   0.698   6.107   2.408 -0.3795  0.0418  0.5989
 2341TIP3    H128582   0.686   6.113   2.503  0.6654 -0.3954  0.7801
 2341TIP3    H228583   0.611   6.090   2.374 -0.9294  1.1568  1.3851
 2342TIP3   OH228584   0.196   4.541   2.257  0.3121  0.2441 -0.0501
 2342TIP3    H128585   0.284   4.516   2.286  1.1886  2.3894 -0.6770
 2342TIP3    H228586   0.138   4.505   2.324  1.7385 -0.4161  0.8827
 2343TIP3   OH228587   0.772   2.698   0.494  0.8196  0.1787 -0.5280
 2343TIP3    H128588   0.725   2.616   0.508  1.5761 -0.4295 -1.3910
 2343TIP3    H228589   0.709   2.756   0.454  0.2400  0.0655  0.2007
 2344TIP3   OH228590   3.657   3.787   3.360  0.0514 -0.2267 -0.1229
 2344TIP3    H128591   3.693   3.713   3.409  1.6679  0.7765  0.2738
 2344TIP3    H228592   3.565   3.764   3.347 -0.0964 -1.2004  2.1239
 2345TIP3   OH228593   1.283   2.848   8.051  0.0018  0.4891 -0.4686
 2345TIP3    H128594   1.327   2.832   8.134 -0.8072  1.3268  0.1461
 2345TIP3    H228595   1.190   2.841   8.071 -0.1831 -1.1641 -1.7267
 2346TIP3   OH228596   4.615   2.929   0.944  0.0763  0.0766  0.1106
 2346TIP3    H128597   4.535   2.878   0.955  0.0639 -0.6720 -2.6061
 2346TIP3    H228598   4.676   2.869   0.901  0.8875  1.6359 -1.0317
 2347TIP3   OH228599   2.085   5.228   8.351  0.3155 -0.0988  0.3291
 2347TIP3    H128600   2.081   5.233   8.255 -1.3094  2.1942  0.4244
 2347TIP3    H228601   2.170   5.267   8.373  0.2468  0.3373 -0.1575
 2348TIP3   OH228602   3.925   1.265   1.514  0.3643 -0.3244  0.1396
 2348TIP3    H128603   3.920   1.287   1.421 -0.5079  0.2942  0.3168
 2348TIP3    H228604   3.835   1.241   1.538 -0.1458  2.5037  1.4994
 2349TIP3   OH228605   4.070   3.197   8.331 -0.3978 -0.4108  0.6346
 2349TIP3    H128606   4.029   3.259   8.270  0.8817  1.2991  1.4440
 2349TIP3    H228607   4.164   3.209   8.318 -0.0985 -2.0953  0.9594
 2350TIP3   OH228608   3.475   6.890   3.035  0.5396 -0.6351 -0.2075
 2350TIP3    H128609   3.533   6.901   3.110  1.3502 -2.8084 -0.4353
 2350TIP3    H228610   3.524   6.926   2.961 -0.3336  1.6771  0.2551
 2351TIP3   OH228611   2.881   6.495   2.765 -0.8970  0.0017  0.5393
 2351TIP3    H128612   2.875   6.585   2.796 -0.5527 -0.0871  0.8786
 2351TIP3    H228613   2.975   6.479   2.755 -0.9974 -0.0517 -0.3221
 2352TIP3   OH228614   5.168   5.659   1.958 -0.0524 -0.1349  0.5522
 2352TIP3    H128615   5.251   5.619   1.986  0.4980  0.1299 -0.6375
 2352TIP3    H228616   5.102   5.621   2.017  0.8343 -0.7546  1.1733
 2353TIP3   OH228617   6.372   2.894   1.984  0.1363  0.5381  0.0451
 2353TIP3    H128618   6.374   2.986   2.012  0.0170  0.6075 -0.1708
 2353TIP3    H228619   6.403   2.845   2.061  2.5174  0.9232 -0.5912
 2354TIP3   OH228620   0.411   2.592   8.307 -0.1622 -0.5962 -0.0642
 2354TIP3    H128621   0.486   2.645   8.334  0.1061  0.1166 -2.0454
 2354TIP3    H228622   0.446   2.528   8.246 -0.8935 -1.4708  0.4070
 2355TIP3   OH228623   2.628   5.933   0.524  0.2837  0.1080 -0.2109
 2355TIP3    H128624   2.559   5.957   0.586  1.3224 -0.5011  1.2688
 2355TIP3    H228625   2.632   6.006   0.462 -0.2884  1.1333  0.9215
 2356TIP3   OH228626   0.724   6.340   0.243  0.0990 -0.0078 -0.6924
 2356TIP3    H128627   0.712   6.319   0.336  0.6791  0.9203 -0.3920
 2356TIP3    H228628   0.650   6.396   0.222  0.0001 -0.1695 -0.7732
 2357TIP3   OH228629   2.397   1.152   2.596  0.0305  0.0292 -0.0960
 2357TIP3    H128630   2.339   1.198   2.535 -2.1338 -1.6883  0.4917
 2357TIP3    H228631   2.447   1.091   2.541  0.7686  1.0148 -0.5337
 2358TIP3   OH228632   1.737   1.473   1.370  0.8497 -0.6995  0.1401
 2358TIP3    H128633   1.738   1.392   1.318  2.0923 -0.3834 -0.3779
 2358TIP3    H228634   1.830   1.491   1.386  0.5851  0.5876  0.3078
 2359TIP3   OH228635   5.328   0.152   1.192  0.0805  0.4064  0.6597
 2359TIP3    H128636   5.256   0.215   1.189 -1.8136 -1.4146  3.0695
 2359TIP3    H228637   5.379   0.178   1.269  0.6941  0.3707  0.2692
 2360TIP3   OH228638   5.401   4.961   0.269  0.2488 -0.3599 -0.2103
 2360TIP3    H128639   5.458   4.970   0.346 -0.4498  1.4877  0.1310
 2360TIP3    H228640   5.315   4.989   0.300  0.0188  0.7368 -1.7547
 2361TIP3   OH228641   5.466   3.505   1.765 -0.3136 -0.5423  0.5647
 2361TIP3    H128642   5.429   3.550   1.841 -1.1534 -1.5672  0.7907
 2361TIP3    H228643   5.501   3.423   1.800  0.0150 -0.6609 -0.0281
 2362TIP3   OH228644   1.996   2.344   1.913 -0.2162  0.4922  0.5801
 2362TIP3    H128645   1.929   2.294   1.866 -2.4541  2.3164  1.6156
 2362TIP3    H228646   2.066   2.356   1.849  0.0105 -2.9876 -0.0058
 2363TIP3   OH228647   0.523   2.421   1.444 -0.1786  0.0806 -0.5028
 2363TIP3    H128648   0.513   2.444   1.352 -0.8332  0.1524 -0.4172
 2363TIP3    H228649   0.483   2.494   1.491  2.2453  1.2402 -0.0668
 2364TIP3   OH228650   0.995   3.856   2.813  0.3791  0.5347  0.1207
 2364TIP3    H128651   1.071   3.838   2.867 -0.9712 -0.3850  1.8089
 2364TIP3    H228652   0.983   3.777   2.760 -0.7136 -0.3159  1.5572
 2365TIP3   OH228653   5.825   0.240   7.633 -0.9366 -0.0642  0.2952
 2365TIP3    H128654   5.755   0.178   7.655  0.7479 -1.2005  3.1106
 2365TIP3    H228655   5.850   0.277   7.718  0.6253  1.7134 -0.8779
 2366TIP3   OH228656   3.785   6.399   2.714  0.2676 -0.2564  0.1222
 2366TIP3    H128657   3.726   6.440   2.776  1.1939  0.0158  0.8406
 2366TIP3    H228658   3.848   6.468   2.691  0.1400 -0.4472 -0.8702
 2367TIP3   OH228659   3.147   0.423   2.046  0.0685  0.4216  0.0651
 2367TIP3    H128660   3.161   0.468   1.963  2.3286  1.0245  0.7073
 2367TIP3    H228661   3.195   0.474   2.111 -2.6955  0.7176  2.0739
 2368TIP3   OH228662   3.371   6.809   2.765 -0.0445  0.4132 -0.1248
 2368TIP3    H128663   3.360   6.761   2.847  0.4095 -1.7382 -1.2542
 2368TIP3    H228664   3.304   6.772   2.707  0.5567  0.8870 -1.1437
 2369TIP3   OH228665   2.709   6.227   1.335 -0.1762  0.4031  0.1565
 2369TIP3    H128666   2.796   6.267   1.334 -0.9469  2.1842 -1.1673
 2369TIP3    H228667   2.712   6.161   1.266 -0.2521  1.4201 -0.8493
 2370TIP3   OH228668   1.133   1.571   3.108 -0.1169  0.2003 -0.1178
 2370TIP3    H128669   1.228   1.581   3.115  0.0115  0.0891 -1.4843
 2370TIP3    H228670   1.116   1.482   3.138  0.3471 -0.1616 -0.9162
 2371TIP3   OH228671   0.614   3.689   1.754 -0.1645  0.1007 -0.0573
 2371TIP3    H128672   0.520   3.680   1.772 -0.4547 -0.0199 -1.5291
 2371TIP3    H228673   0.628   3.783   1.750 -0.7249  0.1478 -2.0917
 2372TIP3   OH228674   4.900   5.010   3.546  0.4154 -0.2895  0.5630
 2372TIP3    H128675   4.916   5.067   3.471  0.5333  0.5706  1.2281
 2372TIP3    H228676   4.823   5.047   3.588  0.3230 -0.7936  0.8408
 2373TIP3   OH228677   2.278   3.136   1.458  0.2316  0.2691  0.5176
 2373TIP3    H128678   2.351   3.074   1.458 -1.1455 -1.4352 -0.0286
 2373TIP3    H228679   2.273   3.166   1.367 -0.1006 -0.0827  0.4153
 2374TIP3   OH228680   2.276   1.488   0.804 -0.3514 -0.1620 -0.0695
 2374TIP3    H128681   2.263   1.421   0.871 -1.1820 -0.6174 -0.6663
 2374TIP3    H228682   2.305   1.565   0.852 -1.3059 -0.3657  0.8604
 2375TIP3   OH228683   0.927   6.333   2.498  0.5391 -0.1471 -0.6253
 2375TIP3    H128684   0.846   6.383   2.511  0.0254 -0.9274 -0.7321
 2375TIP3    H228685   0.939   6.331   2.403  0.8347  0.2052 -0.5943
 2376TIP3   OH228686   4.454   3.347   1.034  0.4643  0.0646  0.2476
 2376TIP3    H128687   4.517   3.306   0.975  1.2228  0.5651  0.6887
 2376TIP3    H228688   4.475   3.313   1.120 -0.2416 -0.1929  0.3286
 2377TIP3   OH228689   6.638   4.278   7.946  0.2136 -0.2441  0.1053
 2377TIP3    H128690   6.601   4.363   7.969 -2.1792 -1.3789  0.7534
 2377TIP3    H228691   6.563   4.225   7.921  1.7176 -1.9784 -1.0021
 2378TIP3   OH228692   1.322   3.005   2.365 -0.0177 -0.0510 -0.2948
 2378TIP3    H128693   1.370   3.069   2.312 -0.6954  0.6759 -0.0480
 2378TIP3    H228694   1.237   2.998   2.322 -0.2454 -0.1527  0.1689
 2379TIP3   OH228695   0.339   3.781   1.843 -0.2031  0.1701  0.1602
 2379TIP3    H128696   0.361   3.815   1.929 -0.6391 -0.9006  0.7067
 2379TIP3    H228697   0.249   3.749   1.852 -0.4559  0.5514 -0.8445
 2380TIP3   OH228698   2.420   4.177   1.244  0.0199  0.3678 -0.1715
 2380TIP3    H128699   2.363   4.254   1.248  0.3470  0.6009  0.1502
 2380TIP3    H228700   2.363   4.103   1.264  0.0695  0.7318  1.4713
 2381TIP3   OH228701   2.392   5.419   8.087 -0.3140  0.2813  0.9927
 2381TIP3    H128702   2.329   5.356   8.052  0.1762  0.4145 -0.1560
 2381TIP3    H228703   2.420   5.470   8.011  2.7991 -1.1843  1.0196
 2382TIP3   OH228704   2.561   1.321   1.409 -0.4983 -0.0307  0.0552
 2382TIP3    H128705   2.498   1.389   1.383  0.0235  0.9895  1.3484
 2382TIP3    H228706   2.521   1.239   1.381 -1.3762  0.7610 -1.1143
 2383TIP3   OH228707   5.067   1.713   1.814  0.2267  0.5319 -0.0370
 2383TIP3    H128708   4.973   1.706   1.829 -0.1860 -0.6965 -2.6495
 2383TIP3    H228709   5.075   1.746   1.724  2.3259  2.1169  0.6612
 2384TIP3   OH228710   1.564   5.718   1.757  0.4012 -0.4641 -0.2431
 2384TIP3    H128711   1.570   5.800   1.805 -1.3918 -1.2770  1.5373
 2384TIP3    H228712   1.614   5.656   1.810 -1.4539 -1.3347  0.5904
 2385TIP3   OH228713   0.562   0.844   8.095  0.6231 -0.4417  0.6211
 2385TIP3    H128714   0.535   0.935   8.087 -0.3327 -0.8124 -0.5430
 2385TIP3    H228715   0.495   0.804   8.151  1.7165 -0.1877  2.1962
 2386TIP3   OH228716   1.240   3.283   0.523  0.3783  0.0293  0.1667
 2386TIP3    H128717   1.301   3.357   0.531 -0.9115  1.0804  0.8519
 2386TIP3    H228718   1.165   3.309   0.578 -0.6250 -1.2616 -0.5473
 2387TIP3   OH228719   2.509   3.586   2.269  0.2084 -0.3915  0.1230
 2387TIP3    H128720   2.508   3.567   2.175 -1.7827 -1.1862  0.2494
 2387TIP3    H228721   2.581   3.533   2.303  0.3638 -0.8157 -0.8361
 2388TIP3   OH228722   4.970   1.624   8.384 -0.3157 -0.0788  0.5696
 2388TIP3    H128723   5.024   1.679   8.441 -1.0554  0.4964  0.7210
 2388TIP3    H228724   4.917   1.685   8.334  0.5379 -0.5621 -0.9841
 2389TIP3   OH228725   3.942   2.265   0.168 -0.2783 -0.3434  0.1268
 2389TIP3    H128726   3.922   2.321   0.243  0.1269 -0.1396  0.0838
 2389TIP3    H228727   3.887   2.299   0.097 -0.8916 -0.7318  0.4120
 2390TIP3   OH228728   6.802   5.791   1.772  0.5490  0.8120  0.4788
 2390TIP3    H128729   6.893   5.769   1.752  0.9693  2.4524  0.4428
 2390TIP3    H228730   6.784   5.870   1.720 -1.5167 -0.5202 -0.9885
 2391TIP3   OH228731   0.824   4.211   8.226 -0.3676 -0.3008 -0.1664
 2391TIP3    H128732   0.824   4.301   8.259 -0.5304  0.2751 -1.6555
 2391TIP3    H228733   0.884   4.212   8.151 -0.2203 -1.4858 -0.0918
 2392TIP3   OH228734   2.687   6.289   2.731  0.1338  0.5041 -0.1607
 2392TIP3    H128735   2.757   6.353   2.746  1.6950 -1.0397 -0.4220
 2392TIP3    H228736   2.628   6.299   2.806 -0.0929  2.7162 -0.5776
 2393TIP3   OH228737   0.511   0.070   8.094  0.2643  0.1699 -0.1023
 2393TIP3    H128738   0.500   0.033   8.006  0.2245 -1.5965  0.6192
 2393TIP3    H228739   0.532   0.162   8.078 -0.9008  0.1817 -1.9368
 2394TIP3   OH228740   3.461   0.259   2.188  0.2473 -0.2404 -0.3949
 2394TIP3    H128741   3.410   0.340   2.190  0.5910  0.0066 -1.3881
 2394TIP3    H228742   3.395   0.190   2.191 -0.1195  0.0741 -1.0718
 2395TIP3   OH228743   5.593   0.162   2.066 -0.2488  0.1402  0.2685
 2395TIP3    H128744   5.648   0.187   2.140  2.5745 -3.3451 -0.3775
 2395TIP3    H228745   5.524   0.107   2.105 -1.1264  1.4585  0.6490
 2396TIP3   OH228746   3.169   4.018   1.336 -0.0848 -0.8440  0.1785
 2396TIP3    H128747   3.105   3.949   1.322 -2.2472  0.9397  0.7440
 2396TIP3    H228748   3.157   4.078   1.262 -0.3732  0.4285  1.2180
 2397TIP3   OH228749   0.093   4.226   2.708 -0.3782  0.3391 -0.1383
 2397TIP3    H128750   0.014   4.251   2.756 -1.2713 -1.5875 -0.5148
 2397TIP3    H228751   0.158   4.210   2.777 -0.7237  0.6267  0.2596
 2398TIP3   OH228752   6.175   1.537   8.038 -0.1403  0.3276 -0.6192
 2398TIP3    H128753   6.227   1.613   8.013  1.7572  0.1326  2.1462
 2398TIP3    H228754   6.117   1.569   8.107  0.0690 -0.5250 -0.0295
 2399TIP3   OH228755   6.781   0.665   2.561 -0.2467  0.5271 -0.3258
 2399TIP3    H128756   6.777   0.727   2.635 -0.5723  0.2167 -0.0790
 2399TIP3    H228757   6.769   0.720   2.484 -2.4207  0.5897 -0.0260
 2400TIP3   OH228758   2.566   3.318   0.778 -0.1987 -0.1780 -0.3477
 2400TIP3    H128759   2.572   3.356   0.691  0.5901 -1.0365 -0.6880
 2400TIP3    H228760   2.657   3.314   0.809 -0.4234 -0.3344  0.3149
 2401TIP3   OH228761   1.030   4.353   0.132 -0.2923 -0.1317 -0.0387
 2401TIP3    H128762   0.980   4.399   0.064 -0.5725 -0.8398 -0.3307
 2401TIP3    H228763   1.122   4.365   0.107 -0.2388  1.7189  0.8493
 2402TIP3   OH228764   6.866   3.365   2.602  0.2346 -0.5847  0.0221
 2402TIP3    H128765   6.902   3.450   2.625 -1.5555  1.0799 -2.7184
 2402TIP3    H228766   6.820   3.336   2.681  0.1140  1.4531  0.7578
 2403TIP3   OH228767   0.167   3.703   3.805 -0.6057 -0.3374 -0.0207
 2403TIP3    H128768   0.123   3.768   3.861  1.6643 -0.5892  2.2733
 2403TIP3    H228769   0.137   3.618   3.838 -1.2475 -0.4852 -0.9685
 2404TIP3   OH228770   0.673   5.378   2.402 -0.1512  0.0319  0.4967
 2404TIP3    H128771   0.766   5.401   2.395 -0.8023  2.3037 -2.2604
 2404TIP3    H228772   0.664   5.300   2.347 -0.3497  1.7272 -2.0222
 2405TIP3   OH228773   5.881   1.333   0.197 -0.0072 -0.6706 -0.5019
 2405TIP3    H128774   5.890   1.336   0.102  0.6587  0.6134 -0.4250
 2405TIP3    H228775   5.964   1.370   0.230 -0.4378 -0.6181  0.5530
 2406TIP3   OH228776   1.610   2.419   1.646  0.2671  0.4834 -0.8613
 2406TIP3    H128777   1.598   2.513   1.659  1.4485  0.5197  0.2660
 2406TIP3    H228778   1.522   2.383   1.647 -0.1311  1.1014  3.1615
 2407TIP3   OH228779   5.381   1.379   8.291  0.2413  0.1431  0.7358
 2407TIP3    H128780   5.393   1.359   8.384  1.7244 -0.4077  0.4589
 2407TIP3    H228781   5.392   1.294   8.248 -0.4792  0.3924  0.0618
 2408TIP3   OH228782   5.769   1.572   1.069 -0.3342  0.3191  0.1487
 2408TIP3    H128783   5.851   1.571   1.018 -0.4695 -1.2891 -0.0898
 2408TIP3    H228784   5.798   1.563   1.160 -0.2674 -1.6030 -0.0321
 2409TIP3   OH228785   0.885   1.354   8.406  0.1291  0.1299  0.1004
 2409TIP3    H128786   0.825   1.283   8.432 -1.3198  1.5675  0.9108
 2409TIP3    H228787   0.843   1.393   8.329  1.6307 -0.7150 -1.1939
 2410TIP3   OH228788   1.140   4.529   2.003 -0.2166  0.4670 -0.0988
 2410TIP3    H128789   1.123   4.562   1.915 -0.1596  3.3852  0.8956
 2410TIP3    H228790   1.062   4.476   2.024 -1.7385  2.3299 -0.7625
 2411TIP3   OH228791   0.350   6.163   0.409 -0.6747  0.3678 -0.3737
 2411TIP3    H128792   0.331   6.093   0.347 -0.2002  0.7331 -0.9363
 2411TIP3    H228793   0.316   6.131   0.492 -0.0817 -0.7237 -0.5319
 2412TIP3   OH228794   2.425   1.226   1.854 -0.0002 -0.3608  0.1557
 2412TIP3    H128795   2.421   1.199   1.763 -1.0811 -0.1782  0.1398
 2412TIP3    H228796   2.337   1.256   1.875  0.2382 -0.3610  1.2544
 2413TIP3   OH228797   5.789   5.951   1.117  0.0657 -0.0650  0.1733
 2413TIP3    H128798   5.748   6.002   1.187  0.4840 -0.0895  0.4370
 2413TIP3    H228799   5.787   6.008   1.041  2.0425  1.0168  0.8739
 2414TIP3   OH228800   5.264   4.073   3.268 -0.4319  0.2798 -0.3212
 2414TIP3    H128801   5.346   4.121   3.254 -0.2533 -0.1487 -0.7797
 2414TIP3    H228802   5.206   4.104   3.199 -0.5312  0.2912 -0.2342
 2415TIP3   OH228803   6.385   4.805   1.537  0.0504  0.0081  1.1691
 2415TIP3    H128804   6.344   4.786   1.453  1.3965  0.4069  0.4010
 2415TIP3    H228805   6.417   4.720   1.569  0.6913  0.0441  0.6415
 2416TIP3   OH228806   5.764   4.044   1.807  0.3978 -0.2894 -0.0612
 2416TIP3    H128807   5.762   4.048   1.903  0.6875  0.5135 -0.0771
 2416TIP3    H228808   5.847   4.085   1.783  0.9296 -1.6614 -0.6182
 2417TIP3   OH228809   1.948   6.207   7.669 -0.0955  0.0619 -0.1615
 2417TIP3    H128810   1.940   6.300   7.648 -0.8216  0.4931  1.7351
 2417TIP3    H228811   1.971   6.165   7.587 -2.0852  1.6171 -1.6198
 2418TIP3   OH228812   3.699   1.942   3.445 -0.4491  0.1280  0.5882
 2418TIP3    H128813   3.790   1.942   3.475  0.0054 -1.4204 -0.6600
 2418TIP3    H228814   3.651   1.894   3.513 -0.0266 -0.4935  0.4525
 2419TIP3   OH228815   2.558   2.670   1.702  0.3172  0.5402  0.0372
 2419TIP3    H128816   2.601   2.756   1.710  2.0737 -0.2865  0.0387
 2419TIP3    H228817   2.478   2.678   1.754  1.0294  1.8231  1.0015
 2420TIP3   OH228818   2.273   6.824   2.806  0.4011  0.3493 -0.5078
 2420TIP3    H128819   2.253   6.788   2.720  0.0823  0.2225 -0.3849
 2420TIP3    H228820   2.187   6.836   2.847  0.5208  0.8809 -0.3978
 2421TIP3   OH228821   1.713   0.967   2.886  0.3361 -0.0780 -0.0980
 2421TIP3    H128822   1.771   0.998   2.956  0.6698  0.2933 -0.5371
 2421TIP3    H228823   1.751   0.883   2.860 -1.3530 -1.6158  2.0475
 2422TIP3   OH228824   6.565   0.972   3.205 -0.0992 -0.2911 -0.7507
 2422TIP3    H128825   6.602   1.031   3.271 -1.3773 -1.1670  0.8165
 2422TIP3    H228826   6.568   1.023   3.123 -1.9403  2.3399  0.6651
 2423TIP3   OH228827   0.210   0.262   1.279  0.0546  0.5803 -0.2014
 2423TIP3    H128828   0.176   0.186   1.328 -0.0277  1.0866  0.5442
 2423TIP3    H228829   0.201   0.335   1.340  1.6702  0.8982 -0.2925
 2424TIP3   OH228830   2.124   5.686   3.332  0.0513  0.6800  0.5405
 2424TIP3    H128831   2.042   5.724   3.364  0.1600  0.7027  0.7950
 2424TIP3    H228832   2.189   5.756   3.342 -0.1890  1.1699 -1.0299
 2425TIP3   OH228833   0.193   0.413   0.474 -0.3706  0.2783  0.3307
 2425TIP3    H128834   0.118   0.461   0.438 -0.0413  1.0137  0.6048
 2425TIP3    H228835   0.194   0.436   0.567  0.8283  1.1301  0.1211
 2426TIP3   OH228836   4.041   5.660   3.403 -0.4779  0.0910  0.7186
 2426TIP3    H128837   3.960   5.611   3.394 -0.6651  0.3581  0.9492
 2426TIP3    H228838   4.023   5.726   3.470 -0.6097  1.2672 -0.4348
 2427TIP3   OH228839   5.772   0.491   2.762  0.1285  0.0162  0.2704
 2427TIP3    H128840   5.711   0.559   2.790 -0.9988 -0.9879  0.3112
 2427TIP3    H228841   5.747   0.471   2.672 -0.7485 -1.6089  0.8458
 2428TIP3   OH228842   4.822   2.006   1.479  0.1802  0.2740  0.0594
 2428TIP3    H128843   4.779   2.052   1.551  1.3100  1.5553 -0.0304
 2428TIP3    H228844   4.865   2.076   1.429  0.7892 -0.7627 -0.9064
 2429TIP3   OH228845   0.439   2.645   2.763  0.2770 -0.2436  0.1084
 2429TIP3    H128846   0.472   2.710   2.701 -0.9160  0.7165  0.4446
 2429TIP3    H228847   0.353   2.621   2.728  0.1292 -0.6379  0.7284
 2430TIP3   OH228848   4.801   0.663   7.819 -0.1135  0.4547  0.1383
 2430TIP3    H128849   4.772   0.575   7.843  1.0508  0.6630  2.6196
 2430TIP3    H228850   4.892   0.652   7.793 -0.2942  0.7986 -0.6683
 2431TIP3   OH228851   4.755   3.852   2.178 -0.2288 -0.0039 -0.2227
 2431TIP3    H128852   4.718   3.939   2.166  0.1045  0.3988  1.3530
 2431TIP3    H228853   4.716   3.820   2.260  0.6995 -0.7458 -0.0411
 2432TIP3   OH228854   1.935   4.167   1.627  0.0399  0.5058  0.0117
 2432TIP3    H128855   2.014   4.218   1.647 -0.9656  1.9418  0.5192
 2432TIP3    H228856   1.914   4.122   1.709  1.1789 -1.1521 -0.5596
 2433TIP3   OH228857   1.828   3.552   3.257  0.1207 -0.1240  0.9095
 2433TIP3    H128858   1.772   3.599   3.319  1.6331 -0.3841  2.5654
 2433TIP3    H228859   1.826   3.606   3.177  0.1816  1.6725  2.0605
 2434TIP3   OH228860   0.222   6.517   0.086 -0.3694 -0.1984 -0.2252
 2434TIP3    H128861   0.210   6.589   0.147 -0.4139  0.4426 -0.9816
 2434TIP3    H228862   0.194   6.439   0.135  0.2907  0.1993  0.8189
 2435TIP3   OH228863   3.543   6.259   7.819  0.2066  0.1508  0.5522
 2435TIP3    H128864   3.591   6.185   7.855 -0.8664 -1.1273 -0.5538
 2435TIP3    H228865   3.453   6.227   7.810  0.1787  0.7591 -2.1538
 2436TIP3   OH228866   4.094   5.192   8.065 -0.2567 -0.5398  0.8076
 2436TIP3    H128867   4.038   5.244   8.123  0.3125  0.4352  0.5138
 2436TIP3    H228868   4.182   5.228   8.078  0.1707 -1.5123  0.6647
 2437TIP3   OH228869   0.593   5.732   1.232 -0.0748 -0.3605  0.2432
 2437TIP3    H128870   0.551   5.798   1.286 -0.4429 -0.3821 -0.0124
 2437TIP3    H228871   0.657   5.780   1.179 -1.9052  0.1823 -1.6000
 2438TIP3   OH228872   1.579   0.280   7.480 -0.0729 -0.2159  0.3013
 2438TIP3    H128873   1.661   0.266   7.432 -0.2896 -0.0842 -0.1156
 2438TIP3    H228874   1.531   0.343   7.426  1.3967  3.2765  2.6908
 2439TIP3   OH228875   3.279   4.698   0.856  1.1085 -0.0272 -0.2899
 2439TIP3    H128876   3.345   4.753   0.899  0.0135  0.1916  1.2147
 2439TIP3    H228877   3.202   4.753   0.852 -0.2893 -1.6124  2.0338
 2440TIP3   OH228878   2.100   3.287   1.026 -0.3696 -1.5458  0.0842
 2440TIP3    H128879   2.065   3.242   0.949 -0.1913  0.5440 -1.2895
 2440TIP3    H228880   2.023   3.317   1.073 -0.6048  1.1601 -1.7932
 2441TIP3   OH228881   1.830   2.931   1.399  0.0407  0.0677 -0.0109
 2441TIP3    H128882   1.886   2.999   1.437 -0.4379  0.5346 -0.1340
 2441TIP3    H228883   1.818   2.958   1.308  0.9684 -0.9119 -0.4459
 2442TIP3   OH228884   3.649   0.148   7.692 -0.3216  0.2475  0.0325
 2442TIP3    H128885   3.589   0.181   7.760 -0.4901  0.0021  0.0043
 2442TIP3    H228886   3.617   0.060   7.673  0.6063 -0.2486  0.6874
 2443TIP3   OH228887   2.823   2.005   3.045  0.4434  0.4760  1.3009
 2443TIP3    H128888   2.763   1.931   3.056  1.5179 -0.8237 -1.0124
 2443TIP3    H228889   2.910   1.968   3.062  0.9141  1.4704  1.1145
 2444TIP3   OH228890   1.199   4.791   0.798  0.6024  0.3623  0.5129
 2444TIP3    H128891   1.251   4.710   0.801  2.4457  1.4890  1.8371
 2444TIP3    H228892   1.113   4.766   0.831 -1.0982 -2.3330 -4.8713
 2445TIP3   OH228893   0.173   2.207   7.007  0.2735  0.2079 -0.5603
 2445TIP3    H128894   0.092   2.214   6.956  0.5041 -0.1838 -0.9823
 2445TIP3    H228895   0.240   2.243   6.949 -0.0135  3.5184  0.8908
 2446TIP3   OH228896   5.017   6.412   2.642 -0.0125 -0.3767  0.4044
 2446TIP3    H128897   4.936   6.452   2.610  0.3874 -1.2580 -1.9151
 2446TIP3    H228898   4.988   6.337   2.693 -0.6699  0.2573  0.9888
 2447TIP3   OH228899   1.978   2.655   0.076 -0.1975 -0.2696  0.3559
 2447TIP3    H128900   1.882   2.652   0.077 -0.2378  0.4051  2.1179
 2447TIP3    H228901   2.004   2.621   0.162  1.1477 -0.2906 -0.0327
 2448TIP3   OH228902   2.092   0.059   2.717  0.2237 -0.0681  0.3986
 2448TIP3    H128903   2.181   0.043   2.686  0.6021  2.1161  0.1820
 2448TIP3    H228904   2.036   0.012   2.656  1.1664  0.1365 -0.6623
 2449TIP3   OH228905   4.853   5.427   1.665  0.5743 -0.4160  0.8363
 2449TIP3    H128906   4.819   5.382   1.587  1.3250 -1.9625  1.3678
 2449TIP3    H228907   4.856   5.359   1.732  0.2237  0.8279  2.1556
 2450TIP3   OH228908   0.518   4.103   3.087 -0.1043  0.1722  0.7936
 2450TIP3    H128909   0.597   4.062   3.123  0.4020 -1.4294 -1.8434
 2450TIP3    H228910   0.452   4.091   3.155  0.4105 -3.9503  0.8361
 2451TIP3   OH228911   5.785   2.540   0.795  0.1933  0.1312 -0.2124
 2451TIP3    H128912   5.861   2.527   0.852 -0.0855  2.0907  0.6846
 2451TIP3    H228913   5.769   2.634   0.798 -2.3582 -0.2503 -0.2716
 2452TIP3   OH228914   2.496   6.876   1.871  0.4369 -0.1557 -0.0481
 2452TIP3    H128915   2.585   6.844   1.851  1.2950  2.2531 -0.3801
 2452TIP3    H228916   2.474   6.933   1.797 -0.6836  0.6554  0.8806
 2453TIP3   OH228917   0.160   1.995   1.112  0.1359  0.6363  0.4312
 2453TIP3    H128918   0.073   1.977   1.149 -0.1651  0.1498 -0.4721
 2453TIP3    H228919   0.221   1.958   1.176 -0.3117  1.1061  1.1435
 2454TIP3   OH228920   3.365   0.062   7.205  0.3141 -1.0188 -0.7221
 2454TIP3    H128921   3.329   0.135   7.254 -0.0261 -2.0324  0.5702
 2454TIP3    H228922   3.321   0.066   7.120 -1.9028 -1.4428  0.3498
 2455TIP3   OH228923   6.875   2.818   2.362 -0.3733 -0.3781 -0.3878
 2455TIP3    H128924   6.835   2.904   2.370  2.3466  0.8820  1.1034
 2455TIP3    H228925   6.850   2.771   2.442 -0.2141 -0.2092 -0.2388
 2456TIP3   OH228926   6.252   2.565   3.669  0.1921  0.1015 -0.3368
 2456TIP3    H128927   6.258   2.654   3.703  0.1437  0.2111 -0.6135
 2456TIP3    H228928   6.342   2.538   3.654  0.1620  0.6628 -1.6871
 2457TIP3   OH228929   5.475   4.919   1.336  0.5250 -0.1661 -0.0692
 2457TIP3    H128930   5.475   5.006   1.297  0.3429 -0.6134 -1.1111
 2457TIP3    H228931   5.522   4.929   1.419  2.8017  0.4205 -1.3427
 2458TIP3   OH228932   4.003   2.236   7.943  0.0069  0.7475 -0.2213
 2458TIP3    H128933   4.085   2.188   7.957  0.2108  1.3109  0.6380
 2458TIP3    H228934   3.972   2.207   7.858  0.6606 -0.1224 -0.1771
 2459TIP3   OH228935   2.240   1.949   8.025  0.3840 -0.2456 -0.0512
 2459TIP3    H128936   2.199   1.898   7.955  0.6673 -0.9314  0.2707
 2459TIP3    H228937   2.252   2.036   7.987 -0.9515 -0.1519 -0.2992
 2460TIP3   OH228938   5.439   4.938   0.941 -0.0162 -0.0940  0.2923
 2460TIP3    H128939   5.449   4.973   0.852  0.1334  0.6130  0.5840
 2460TIP3    H228940   5.497   4.862   0.943  0.8637  0.5615  0.1352
 2461TIP3   OH228941   1.851   6.328   8.195 -0.0882  0.7394 -0.0843
 2461TIP3    H128942   1.823   6.257   8.253  0.3857  0.2725 -0.4239
 2461TIP3    H228943   1.830   6.408   8.244 -2.4973  0.4522 -0.5124
 2462TIP3   OH228944   2.461   1.184   8.038  0.2218 -0.5727 -0.0905
 2462TIP3    H128945   2.431   1.247   7.973 -0.4849 -0.0731  0.6984
 2462TIP3    H228946   2.403   1.108   8.027  0.5496 -0.7681 -0.4976
 2463TIP3   OH228947   5.566   5.990   3.578  0.2162  0.0501 -0.2725
 2463TIP3    H128948   5.552   5.900   3.546  0.8388 -0.7349  1.5257
 2463TIP3    H228949   5.479   6.030   3.573 -0.4068 -1.1546  0.2829
 2464TIP3   OH228950   1.250   4.002   7.903 -0.5863 -0.6309  0.3937
 2464TIP3    H128951   1.199   4.023   7.825  0.9099 -1.2192 -0.7923
 2464TIP3    H228952   1.285   3.914   7.886  1.3485 -0.0000  0.8337
 2465TIP3   OH228953   4.690   2.364   2.034  0.0138  0.2398  0.2183
 2465TIP3    H128954   4.768   2.402   1.993 -0.0473  0.7496  0.5608
 2465TIP3    H228955   4.643   2.439   2.070  0.0918 -0.1933  1.2552
 2466TIP3   OH228956   3.834   3.656   7.630  0.0801  0.1985 -0.3660
 2466TIP3    H128957   3.867   3.572   7.599 -0.2951 -0.4066  0.8061
 2466TIP3    H228958   3.758   3.674   7.575 -0.9070 -1.1208  0.4982
 2467TIP3   OH228959   6.536   4.004   1.187  0.7634  0.1311  0.5073
 2467TIP3    H128960   6.479   3.943   1.233  0.9360  0.2498  0.8915
 2467TIP3    H228961   6.506   4.003   1.097  2.6572 -2.8499 -0.2293
 2468TIP3   OH228962   1.856   1.885   1.493  0.5648 -0.2556 -0.2197
 2468TIP3    H128963   1.831   1.966   1.449  0.1842 -0.5490 -0.5513
 2468TIP3    H228964   1.946   1.870   1.465  0.3801 -0.3532 -0.7783
 2469TIP3   OH228965   3.245   2.777   1.816  0.3191  0.2737 -0.2131
 2469TIP3    H128966   3.215   2.775   1.907  3.2493  0.2699  0.8829
 2469TIP3    H228967   3.246   2.870   1.793 -0.9382  0.2364 -0.4489
 2470TIP3   OH228968   3.683   6.524   8.108  0.3430 -0.7618  0.4144
 2470TIP3    H128969   3.697   6.615   8.131 -1.4895 -0.6290  1.1903
 2470TIP3    H228970   3.635   6.526   8.025 -0.5032 -0.9464  0.8759
 2471TIP3   OH228971   1.098   1.177   7.198  0.0719 -0.1679  0.5980
 2471TIP3    H128972   1.087   1.177   7.103 -0.6292 -1.4849  0.6499
 2471TIP3    H228973   1.179   1.225   7.214  0.3671 -0.2275 -0.6830
 2472TIP3   OH228974   5.552   0.912   3.309 -0.4024 -0.7519 -0.4803
 2472TIP3    H128975   5.580   0.997   3.275 -1.4144 -0.3773 -0.4141
 2472TIP3    H228976   5.624   0.853   3.288  1.0415  0.4256  0.8673
 2473TIP3   OH228977   3.295   0.111   8.230 -0.1092  0.1648  1.0515
 2473TIP3    H128978   3.332   0.024   8.217 -2.5646 -0.5841 -2.5765
 2473TIP3    H228979   3.271   0.114   8.323  1.5405 -2.3344  1.6535
 2474TIP3   OH228980   4.272   6.443   7.782  0.1412 -0.4470 -0.2246
 2474TIP3    H128981   4.214   6.498   7.728 -1.4762 -1.8483 -0.0076
 2474TIP3    H228982   4.319   6.389   7.719  0.8348  0.3180 -0.3764
 2475TIP3   OH228983   4.265   5.637   2.407 -0.5442  0.4865  0.5533
 2475TIP3    H128984   4.289   5.545   2.403 -0.9627  0.3999 -0.4683
 2475TIP3    H228985   4.227   5.655   2.321  1.1750  2.0769  0.0780
 2476TIP3   OH228986   0.735   5.667   0.815  0.0025 -0.7272 -0.0245
 2476TIP3    H128987   0.708   5.661   0.723  1.6372 -1.6887 -0.4830
 2476TIP3    H228988   0.792   5.744   0.818  0.9970 -1.4379 -0.1312
 2477TIP3   OH228989   1.085   0.553   0.954  0.4776  0.6359  0.0692
 2477TIP3    H128990   1.027   0.483   0.984  1.1257 -0.2754 -0.7263
 2477TIP3    H228991   1.087   0.615   1.026 -0.3030 -0.0466  0.7055
 2478TIP3   OH228992   3.896   5.237   0.042 -0.1294  0.0614 -0.5264
 2478TIP3    H128993   3.946   5.202  -0.031  0.1116 -1.0304  0.1255
 2478TIP3    H228994   3.831   5.294   0.002  0.6263  0.2633 -1.5055
 2479TIP3   OH228995   6.765   6.904   2.339 -0.2098  0.4170  0.4325
 2479TIP3    H128996   6.762   6.998   2.320 -0.2537  0.0793 -1.5324
 2479TIP3    H228997   6.674   6.879   2.353 -0.6218  0.1766 -2.1677
 2480TIP3   OH228998   4.015   2.391   7.674  0.3597 -0.1522  0.1157
 2480TIP3    H128999   3.990   2.300   7.691  1.3616 -0.8979 -1.9914
 2480TIP3    H229000   4.105   2.397   7.707  0.8205 -0.4050 -1.0231
 2481TIP3   OH229001   6.640   1.478   2.232  0.5343 -0.4497  0.0654
 2481TIP3    H129002   6.723   1.511   2.200  0.5514 -1.0830 -0.5812
 2481TIP3    H229003   6.647   1.383   2.223  0.3225 -0.6267  1.4501
 2482TIP3   OH229004   1.509   2.548   0.612  0.0615 -0.0646  0.1032
 2482TIP3    H129005   1.506   2.636   0.575  0.4915 -0.0306  0.1429
 2482TIP3    H229006   1.517   2.562   0.707 -0.8688 -0.1504  0.2080
 2483TIP3   OH229007   3.569   3.929   3.625  0.2109  0.0587  0.1453
 2483TIP3    H129008   3.642   3.976   3.665  0.4064 -0.0579 -0.0760
 2483TIP3    H229009   3.607   3.848   3.591 -0.2015 -0.4513  0.8770
 2484TIP3   OH229010   4.668   5.369   1.454  0.1422  0.6168  0.4884
 2484TIP3    H129011   4.643   5.379   1.362 -1.0252 -1.2510  0.5508
 2484TIP3    H229012   4.604   5.421   1.502 -0.3758  0.1423  0.3262
 2485TIP3   OH229013   6.458   5.962   2.553  0.5305  0.5515  0.0464
 2485TIP3    H129014   6.462   5.930   2.462  0.0108  1.2181 -0.2192
 2485TIP3    H229015   6.550   5.975   2.577  0.7264 -0.5077 -0.0568
 2486TIP3   OH229016   5.194   3.586   1.163 -0.3933  0.2191 -0.4739
 2486TIP3    H129017   5.146   3.641   1.225  1.1399  1.7542 -0.5544
 2486TIP3    H229018   5.165   3.614   1.077  0.8159  1.3902 -0.5329
 2487TIP3   OH229019   6.932   6.167   2.827  0.5499  0.3961  0.8889
 2487TIP3    H129020   6.999   6.208   2.772 -0.1828  0.5071  0.0589
 2487TIP3    H229021   6.974   6.086   2.859  0.8400  0.0881 -0.2157
 2488TIP3   OH229022   3.782   6.456   1.992  0.4892 -0.6572  0.1957
 2488TIP3    H129023   3.825   6.525   1.941  1.6383 -0.4988  1.3200
 2488TIP3    H229024   3.704   6.434   1.942  1.1746  0.0250 -1.2232
 2489TIP3   OH229025   6.391   0.218   1.606  0.5321 -0.1273 -0.0189
 2489TIP3    H129026   6.431   0.305   1.614 -1.5333  0.9799 -0.8567
 2489TIP3    H229027   6.428   0.183   1.525  3.0357 -1.0385  1.4159
 2490TIP3   OH229028   1.037   3.760   7.976  0.0193  0.7846  0.4064
 2490TIP3    H129029   1.076   3.678   8.006  1.0647  1.1180 -0.0065
 2490TIP3    H229030   1.092   3.828   8.014  1.3795  1.2348 -2.1093
 2491TIP3   OH229031   5.324   4.727   0.143 -0.2869  0.4592  0.0265
 2491TIP3    H129032   5.232   4.741   0.164 -0.6222  1.0670 -1.6883
 2491TIP3    H229033   5.368   4.806   0.175 -0.4092  0.3131  0.5562
 2492TIP3   OH229034   5.462   2.228   2.806  0.4030 -0.0835  0.0985
 2492TIP3    H129035   5.549   2.221   2.845 -0.1004 -0.4656  1.1793
 2492TIP3    H229036   5.402   2.231   2.880 -0.4691  0.9280 -0.6155
 2493TIP3   OH229037   0.245   4.389   8.346  0.0632 -0.2857 -0.0945
 2493TIP3    H129038   0.275   4.298   8.338 -0.7022 -0.5855  0.3484
 2493TIP3    H229039   0.152   4.386   8.323  0.0862  0.4288 -0.3083
 2494TIP3   OH229040   6.508   1.594   3.048 -0.4699  0.1521  0.4881
 2494TIP3    H129041   6.555   1.553   2.976 -0.2249 -2.6955  2.1002
 2494TIP3    H229042   6.417   1.566   3.037 -0.5142  0.0615  1.0253
 2495TIP3   OH229043   5.908   1.670   0.268 -0.1771 -0.2491 -0.8817
 2495TIP3    H129044   5.939   1.605   0.330 -0.1146  0.4317 -0.1859
 2495TIP3    H229045   5.884   1.746   0.322  3.5412  1.9078 -1.8725
 2496TIP3   OH229046   5.599   4.643   2.486  0.0393 -0.0888 -0.1650
 2496TIP3    H129047   5.599   4.737   2.504  0.1038  0.0983 -1.0939
 2496TIP3    H229048   5.508   4.624   2.461  0.0968 -0.2121 -0.2763
 2497TIP3   OH229049   1.626   6.530   0.971  0.0795  0.3700 -0.5284
 2497TIP3    H129050   1.680   6.474   1.026  1.2491  2.1824  0.2509
 2497TIP3    H229051   1.536   6.513   0.999  0.5982  0.7028  1.4509
 2498TIP3   OH229052   6.441   2.843   2.893  0.1280 -0.3397 -0.1176
 2498TIP3    H129053   6.359   2.811   2.930 -0.4269 -0.4868 -1.4323
 2498TIP3    H229054   6.415   2.910   2.830  1.0381 -0.2458 -0.4102
 2499TIP3   OH229055   1.096   2.448   8.343 -0.0768 -0.2187 -0.4718
 2499TIP3    H129056   1.109   2.409   8.256  0.1381  0.7778 -0.8919
 2499TIP3    H229057   1.180   2.435   8.387 -0.0780 -0.4352 -0.5304
 2500TIP3   OH229058   3.390   4.524   8.278 -0.0499 -0.1742  0.1933
 2500TIP3    H129059   3.381   4.432   8.304 -0.3264 -0.0105  0.6893
 2500TIP3    H229060   3.461   4.557   8.332  0.0694 -0.1007 -0.0072
 2501TIP3   OH229061   1.389   0.046   2.148 -0.0684 -0.0414  0.0353
 2501TIP3    H129062   1.372   0.133   2.186  0.2305  1.5213 -3.0527
 2501TIP3    H229063   1.482   0.030   2.166  0.2885  1.0609 -0.7324
 2502TIP3   OH229064   4.399   5.835   0.706  0.0885 -0.4189  0.2560
 2502TIP3    H129065   4.397   5.810   0.799 -0.0700  0.0339  0.3762
 2502TIP3    H229066   4.452   5.767   0.665  0.3283 -0.5198  0.7138
 2503TIP3   OH229067   5.699   2.807   0.808  0.3819 -0.4659 -0.5669
 2503TIP3    H129068   5.689   2.873   0.877 -1.0737 -0.2611 -0.9575
 2503TIP3    H229069   5.769   2.841   0.752 -1.7888  1.9100 -2.0164
 2504TIP3   OH229070   3.768   2.307   7.275 -0.1665  0.7036 -0.0773
 2504TIP3    H129071   3.861   2.318   7.254 -0.3635  1.0544 -0.8004
 2504TIP3    H229072   3.723   2.325   7.193 -0.9914  2.4938  0.7014
 2505TIP3   OH229073   4.018   0.484   2.277 -0.0523  0.0463 -0.4404
 2505TIP3    H129074   3.979   0.473   2.190 -1.8427  1.2410  0.1573
 2505TIP3    H229075   3.981   0.412   2.328 -2.0462  1.5023  0.2765
 2506TIP3   OH229076   2.861   1.424   2.606 -0.3416 -0.8347  0.0289
 2506TIP3    H129077   2.918   1.358   2.645  0.0905 -0.5696 -0.1533
 2506TIP3    H229078   2.864   1.498   2.667  0.8301 -0.1750 -0.8030
 2507TIP3   OH229079   4.087   2.745   2.578  0.0828 -0.2053  0.0412
 2507TIP3    H129080   4.096   2.810   2.647 -0.8771 -0.6085  0.5674
 2507TIP3    H229081   4.136   2.781   2.504  0.9603  0.3237  0.8581
 2508TIP3   OH229082   3.829   0.308   1.257 -0.0841 -0.1102  0.4630
 2508TIP3    H129083   3.743   0.326   1.220 -0.7497  1.9620  2.6920
 2508TIP3    H229084   3.841   0.378   1.322  3.0744 -0.6332  0.5756
 2509TIP3   OH229085   3.377   6.376   3.495 -0.0193  0.3484  0.3222
 2509TIP3    H129086   3.420   6.391   3.411 -0.8705  0.2491 -0.1432
 2509TIP3    H229087   3.372   6.280   3.502 -1.0502  0.3580 -0.1048
 2510TIP3   OH229088   4.735   1.776   7.993  0.0913 -0.6622  0.6108
 2510TIP3    H129089   4.826   1.750   7.976  0.8227  0.0698  2.9999
 2510TIP3    H229090   4.733   1.869   7.972 -0.3304 -0.8422 -0.1692
 2511TIP3   OH229091   0.603   5.668   0.565  0.1645  0.4257 -0.7209
 2511TIP3    H129092   0.605   5.758   0.533 -0.5166  0.2928 -1.1512
 2511TIP3    H229093   0.648   5.618   0.497 -2.9176 -0.1512 -2.5218
 2512TIP3   OH229094   3.222   2.204   0.269 -0.0735  0.1592 -0.2058
 2512TIP3    H129095   3.157   2.252   0.217  0.7306  0.5365 -0.8894
 2512TIP3    H229096   3.170   2.147   0.325 -0.9975 -0.8807 -1.9980
 2513TIP3   OH229097   2.319   3.348   1.834  0.4469 -0.2396  0.0666
 2513TIP3    H129098   2.294   3.423   1.889 -0.2584  0.2316 -0.8672
 2513TIP3    H229099   2.276   3.365   1.751  0.6469 -1.4768 -0.2978
 2514TIP3   OH229100   2.982   1.525   0.628 -0.5067  0.1424 -0.1718
 2514TIP3    H129101   3.022   1.458   0.572  4.3710  0.4667  2.4686
 2514TIP3    H229102   2.945   1.475   0.701  0.4926  0.1199  0.3318
 2515TIP3   OH229103   6.711   3.090   1.755  0.1790 -0.5008 -0.5407
 2515TIP3    H129104   6.737   3.177   1.725 -0.0740 -1.0849 -2.6217
 2515TIP3    H229105   6.793   3.039   1.755  0.2523 -0.3958  0.2434
 2516TIP3   OH229106   4.104   5.983   2.165 -0.4459 -0.1071 -0.6535
 2516TIP3    H129107   4.141   6.000   2.251 -0.4658  0.7854 -0.8112
 2516TIP3    H229108   4.090   5.889   2.163  1.1553 -0.3755 -0.3247
 2517TIP3   OH229109   6.351   6.590   1.773 -0.2475  0.5555 -0.1448
 2517TIP3    H129110   6.266   6.633   1.759  0.6433  2.7085  0.6028
 2517TIP3    H229111   6.334   6.525   1.842 -2.0033 -1.6241 -2.4513
 2518TIP3   OH229112   5.040   4.474   8.197 -0.1474 -0.6361  0.5938
 2518TIP3    H129113   4.953   4.449   8.165 -0.5903 -2.1152  2.7398
 2518TIP3    H229114   5.095   4.398   8.179  0.3775 -0.2294  0.4671
 2519TIP3   OH229115   5.985   0.965   2.744  0.5406  0.1983 -0.4684
 2519TIP3    H129116   5.963   1.052   2.777  1.1398  0.1099  0.1977
 2519TIP3    H229117   5.905   0.933   2.703 -0.2635  0.2997  0.9644
 2520TIP3   OH229118   3.006   5.628   8.338 -0.5389 -0.4272 -0.3238
 2520TIP3    H129119   2.966   5.656   8.256 -1.5822 -0.9108  0.0034
 2520TIP3    H229120   2.956   5.550   8.364 -0.5223 -0.0298  0.9908
 2521TIP3   OH229121   2.870   2.536   2.258  0.0004  0.1072  0.3981
 2521TIP3    H129122   2.887   2.562   2.348  2.0074  0.2579  0.0305
 2521TIP3    H229123   2.841   2.617   2.215  0.0778  0.2855  0.6820
 2522TIP3   OH229124   5.795   5.260   0.026  0.0532 -0.0276 -0.3267
 2522TIP3    H129125   5.732   5.312  -0.023  0.9959  1.5034  0.0132
 2522TIP3    H229126   5.742   5.204   0.082 -1.0835 -1.9530 -3.0753
 2523TIP3   OH229127   0.575   4.752   8.294  0.7232 -0.5928  0.4987
 2523TIP3    H129128   0.504   4.702   8.256  1.0118  0.2704 -1.3430
 2523TIP3    H229129   0.534   4.832   8.327  0.7404 -0.3227 -0.1081
 2524TIP3   OH229130   5.119   0.390   8.476  0.0112  0.4245 -0.4545
 2524TIP3    H129131   5.085   0.389   8.387 -1.1181  0.1317 -0.0374
 2524TIP3    H229132   5.156   0.478   8.487 -1.3828  1.0647 -0.6588
 2525TIP3   OH229133   6.335   5.926   7.995 -0.2476 -0.1203  0.4465
 2525TIP3    H129134   6.302   5.886   7.914  0.2543  0.3986 -0.0210
 2525TIP3    H229135   6.429   5.910   7.993  0.0635  1.6237 -0.0717
 2526TIP3   OH229136   4.037   5.998   1.483 -0.3061  0.1577 -0.7427
 2526TIP3    H129137   3.963   5.970   1.536  0.4058 -2.4279 -0.9922
 2526TIP3    H229138   4.112   5.995   1.542  0.0891 -0.3225 -1.2515
 2527TIP3   OH229139   2.740   4.806   8.310 -0.6166 -0.1762 -0.6649
 2527TIP3    H129140   2.832   4.790   8.290 -0.2156 -2.1781  2.2989
 2527TIP3    H229141   2.738   4.894   8.347  0.2005 -0.3486 -0.2094
 2528TIP3   OH229142   6.579   2.250   7.445 -0.2720 -0.3985 -0.1087
 2528TIP3    H129143   6.622   2.332   7.421 -1.2041  0.3209  0.5814
 2528TIP3    H229144   6.624   2.183   7.394 -1.2283  0.8413 -2.7571
 2529TIP3   OH229145   5.897   0.300   1.791  0.4403 -0.1135 -0.2649
 2529TIP3    H129146   5.940   0.384   1.810 -0.4343 -0.1339  2.0948
 2529TIP3    H229147   5.835   0.320   1.721  0.7314  1.0542 -0.2115
 2530TIP3   OH229148   3.882   3.811   8.443 -0.0502  0.0796  0.1275
 2530TIP3    H129149   3.837   3.896   8.448 -0.7480 -0.3009  0.5019
 2530TIP3    H229150   3.934   3.816   8.363 -0.6932  0.5780 -0.2725
 2531TIP3   OH229151   6.424   2.655   2.643  0.1728 -0.1876  0.2916
 2531TIP3    H129152   6.380   2.571   2.630  0.8650 -0.6020  0.5405
 2531TIP3    H229153   6.486   2.660   2.570 -0.2793  0.3921 -0.0604
 2532TIP3   OH229154   4.198   0.453   0.825 -0.1381  0.3933  0.2864
 2532TIP3    H129155   4.180   0.491   0.911  0.5557  1.9511 -0.2227
 2532TIP3    H229156   4.137   0.497   0.766 -0.8513 -0.9189  0.0048
 2533TIP3   OH229157   5.507   5.575   0.794 -0.6996  0.6163 -0.1003
 2533TIP3    H129158   5.515   5.630   0.872 -1.7118  0.2465  0.2776
 2533TIP3    H229159   5.491   5.637   0.723 -0.4716  0.9059  0.0996
 2534TIP3   OH229160   5.311   0.226   8.313 -0.6009 -0.3643  0.2799
 2534TIP3    H129161   5.253   0.285   8.360  0.1294 -0.3187  1.1545
 2534TIP3    H229162   5.254   0.154   8.284 -1.3867  0.4744 -0.3060
 2535TIP3   OH229163   6.912   5.234   2.274 -0.1763 -0.0472 -0.0709
 2535TIP3    H129164   6.877   5.154   2.314 -1.6463  1.2752  1.4329
 2535TIP3    H229165   6.895   5.303   2.339  0.6440  1.5841 -1.5018
 2536TIP3   OH229166   2.877   5.386   8.417  0.2885  0.1642  0.6734
 2536TIP3    H129167   2.909   5.309   8.465 -0.0386  0.0126  0.6488
 2536TIP3    H229168   2.827   5.349   8.344  0.6374  0.3956  0.3142
 2537TIP3   OH229169   4.477   2.995   3.632  0.1262  0.1987 -0.5968
 2537TIP3    H129170   4.394   3.038   3.655  0.6795  1.2422 -0.4965
 2537TIP3    H229171   4.452   2.905   3.611 -0.7277 -0.2045  1.8180
 2538TIP3   OH229172   6.509   4.285   8.443  0.7775  0.0904 -0.1135
 2538TIP3    H129173   6.529   4.195   8.469  1.2022  0.2531  0.1431
 2538TIP3    H229174   6.513   4.284   8.348 -2.2711 -0.8557 -0.3295
 2539TIP3   OH229175   2.347   2.441   0.227  0.0458 -0.1380  0.3161
 2539TIP3    H129176   2.434   2.446   0.187  0.1632 -1.2302  0.3896
 2539TIP3    H229177   2.332   2.528   0.264 -0.1045  0.9563 -2.1527
 2540TIP3   OH229178   4.234   4.458   3.503 -0.0877  0.2372 -0.1391
 2540TIP3    H129179   4.296   4.395   3.540 -0.4922  0.1716  0.4591
 2540TIP3    H229180   4.286   4.536   3.484  0.2362  0.0695  0.0538
 2541TIP3   OH229181   3.716   3.543   8.485  0.0339 -0.7043  0.5370
 2541TIP3    H129182   3.705   3.538   8.390  0.8151 -0.1877  0.4179
 2541TIP3    H229183   3.793   3.598   8.498 -0.0687 -0.7675  1.4731
 2542TIP3   OH229184   6.441   1.372   7.598 -0.1773 -0.1844  0.2840
 2542TIP3    H129185   6.503   1.302   7.581 -0.5459 -0.2783 -0.8080
 2542TIP3    H229186   6.414   1.401   7.510 -1.0438  0.3986  0.7284
 2543TIP3   OH229187   6.723   3.448   1.478 -0.8803  0.0114 -0.5413
 2543TIP3    H129188   6.816   3.466   1.488 -0.8745 -0.1390 -0.3238
 2543TIP3    H229189   6.715   3.417   1.387 -0.8792  0.9955 -0.8915
 2544TIP3   OH229190   4.076   6.884   1.933 -0.2355  0.7156  0.1689
 2544TIP3    H129191   4.165   6.919   1.932  0.6020 -1.2262  0.4037
 2544TIP3    H229192   4.023   6.951   1.976  1.3432  1.4546  1.0192
 2545TIP3   OH229193   2.943   2.259   2.108  0.2670 -0.6104  0.6755
 2545TIP3    H129194   2.850   2.256   2.131  0.2225  0.5475  0.7114
 2545TIP3    H229195   2.972   2.344   2.138  1.6364 -1.4094  1.7007
 2546TIP3   OH229196   6.653   5.234   2.977 -0.0241  0.0675  0.8284
 2546TIP3    H129197   6.604   5.224   2.895 -0.9542  1.0800  1.2390
 2546TIP3    H229198   6.595   5.197   3.044  1.4483 -2.3647  0.8648
 2547TIP3   OH229199   1.766   6.674   1.942 -0.3988 -0.1131  0.1075
 2547TIP3    H129200   1.854   6.682   1.905 -1.1215 -2.1070 -2.2830
 2547TIP3    H229201   1.721   6.612   1.885 -2.4453 -1.5277  3.0305
 2548TIP3   OH229202   3.552   2.257   1.314 -0.0344  0.1689  0.0086
 2548TIP3    H129203   3.479   2.239   1.255 -0.3725 -0.2788  0.5519
 2548TIP3    H229204   3.542   2.193   1.385  1.2637 -0.3653 -0.2448
 2549TIP3   OH229205   3.019   6.479   1.808 -0.1541  0.2413 -0.1156
 2549TIP3    H129206   3.030   6.449   1.718  0.7012 -1.7469  0.6140
 2549TIP3    H229207   3.055   6.568   1.808  0.4748  0.0111 -1.5707
 2550TIP3   OH229208   0.541   3.166   2.267 -0.8048 -0.2088 -0.1008
 2550TIP3    H129209   0.559   3.260   2.273 -1.4557  0.0956 -2.0819
 2550TIP3    H229210   0.451   3.161   2.236 -0.9361 -1.5073  0.4528
 2551TIP3   OH229211   4.837   2.104   0.717 -0.2616 -0.7523 -0.4098
 2551TIP3    H129212   4.786   2.035   0.758 -2.5109  0.7325 -0.5477
 2551TIP3    H229213   4.871   2.157   0.790 -2.3949  0.5893 -0.3023
 2552TIP3   OH229214   1.190   3.629   3.452  0.2639  0.1305  0.1747
 2552TIP3    H129215   1.250   3.613   3.380  0.2509  1.0782 -0.0587
 2552TIP3    H229216   1.207   3.558   3.514  3.1163  1.4782  1.1019
 2553TIP3   OH229217   3.617   5.265   2.117  0.0118  0.4019  0.3094
 2553TIP3    H129218   3.614   5.294   2.208  1.0915 -0.4512  0.6406
 2553TIP3    H229219   3.611   5.346   2.066 -1.7988  0.8119  1.0839
 2554TIP3   OH229220   5.005   2.461   7.359 -0.3535  0.0864  0.4234
 2554TIP3    H129221   4.927   2.438   7.308  0.7203 -0.7579 -0.8925
 2554TIP3    H229222   4.982   2.438   7.449 -1.3490 -0.8915 -0.0606
 2555TIP3   OH229223   3.759   5.299   0.683 -0.2934 -0.1141  0.0159
 2555TIP3    H129224   3.839   5.291   0.734 -0.3618 -1.7580 -0.0852
 2555TIP3    H229225   3.689   5.308   0.748 -0.3099 -1.5346  0.2213
 2556TIP3   OH229226   3.669   0.486   0.767 -0.2778 -0.6198 -0.6706
 2556TIP3    H129227   3.650   0.403   0.723 -0.9737 -0.5709 -0.4692
 2556TIP3    H229228   3.743   0.466   0.825  0.2725 -0.8267 -1.4186
 2557TIP3   OH229229   4.124   0.497   0.246  0.1144 -0.3441 -0.5550
 2557TIP3    H129230   4.122   0.485   0.151 -0.9527 -0.0997 -0.5739
 2557TIP3    H229231   4.098   0.412   0.282  0.8680 -0.5430 -0.4630
 2558TIP3   OH229232   6.553   4.592   0.919 -0.2093  0.1314 -0.2222
 2558TIP3    H129233   6.635   4.631   0.949  0.2544 -0.8829 -0.1468
 2558TIP3    H229234   6.549   4.507   0.963 -0.4325 -0.5959 -1.5984
 2559TIP3   OH229235   1.008   6.051   8.291 -0.4377 -0.3980 -0.2617
 2559TIP3    H129236   0.920   6.081   8.315 -1.1258 -2.8267  0.5725
 2559TIP3    H229237   0.995   5.995   8.214 -0.1713 -3.1144  1.5012
 2560TIP3   OH229238   4.982   0.650   0.426 -0.4071  0.2276 -0.2144
 2560TIP3    H129239   5.010   0.594   0.353  1.0384  1.3732 -0.5802
 2560TIP3    H229240   4.946   0.589   0.491  1.5707 -1.2087 -0.3920
 2561TIP3   OH229241   0.047   5.389   0.891  0.2534  0.2660  0.4542
 2561TIP3    H129242  -0.011   5.361   0.961 -0.5424  0.8253  0.0429
 2561TIP3    H229243  -0.008   5.445   0.835  1.2198  0.9257  0.1245
 2562TIP3   OH229244   3.961   0.794   2.372  0.0671  0.3759 -0.1281
 2562TIP3    H129245   3.919   0.869   2.330 -2.5753 -0.3116  1.0797
 2562TIP3    H229246   3.965   0.727   2.304  0.8262  0.9949 -0.7189
 2563TIP3   OH229247   0.140   3.304   7.556 -0.0779 -0.0436  0.4453
 2563TIP3    H129248   0.164   3.395   7.574 -0.4379  0.2089 -0.2944
 2563TIP3    H229249   0.223   3.261   7.535  0.0979  0.1059  0.8356
 2564TIP3   OH229250   5.899   3.046   2.782  0.1270 -0.1989  0.1653
 2564TIP3    H129251   5.869   3.135   2.762 -2.8676 -1.3180 -0.8435
 2564TIP3    H229252   5.845   3.019   2.856  2.8349 -0.3690  2.2431
 2565TIP3   OH229253   2.327   1.322   2.322  0.0438 -0.8111  0.0311
 2565TIP3    H129254   2.327   1.417   2.337 -2.2443 -0.7456 -0.0486
 2565TIP3    H229255   2.246   1.306   2.274  0.6134 -2.7735 -0.3353
 2566TIP3   OH229256   2.341   3.958   2.147 -0.2750 -0.4193 -0.2001
 2566TIP3    H129257   2.311   3.883   2.199 -0.2546  0.4465  1.0952
 2566TIP3    H229258   2.283   4.030   2.171 -0.2669  0.0102 -1.3990
 2567TIP3   OH229259   4.238   6.087   7.366  0.0441  0.0740  0.2424
 2567TIP3    H129260   4.161   6.090   7.310  0.7885  0.3379 -0.8053
 2567TIP3    H229261   4.221   6.015   7.427 -1.9895  1.5308  1.5279
 2568TIP3   OH229262   5.771   6.465   3.593 -0.0516  0.4690  0.4781
 2568TIP3    H129263   5.841   6.413   3.633  1.4274  0.1867 -2.2540
 2568TIP3    H229264   5.781   6.552   3.630  0.3229 -0.0945  1.7481
 2569TIP3   OH229265   3.114   6.060   2.606 -0.3526  0.0461 -0.0693
 2569TIP3    H129266   3.159   6.106   2.535 -0.8155 -0.0752 -0.4551
 2569TIP3    H229267   3.177   5.996   2.638 -0.4862 -0.6281 -1.0999
 2570TIP3   OH229268   2.513   1.346   7.659  0.5161  0.0934 -0.1487
 2570TIP3    H129269   2.543   1.398   7.584  2.6710  0.5145  0.9138
 2570TIP3    H229270   2.585   1.285   7.676 -0.5578 -0.9997  0.6915
 2571TIP3   OH229271   5.988   4.473   1.247 -0.2779  0.0966 -0.2514
 2571TIP3    H129272   6.062   4.427   1.287 -0.8362 -0.8952 -0.3247
 2571TIP3    H229273   5.973   4.549   1.304 -0.8405 -1.0950  1.2612
 2572TIP3   OH229274   4.719   2.995   1.663 -0.1059 -0.2738 -0.0509
 2572TIP3    H129275   4.754   3.083   1.654 -1.1774  0.3483  1.4428
 2572TIP3    H229276   4.756   2.946   1.590  3.5678  0.3742  1.2009
 2573TIP3   OH229277   5.125   4.307   1.974  0.9000 -0.0881 -1.1763
 2573TIP3    H129278   5.190   4.239   1.989 -0.2907 -1.0872 -0.2729
 2573TIP3    H229279   5.088   4.287   1.889  0.8748 -0.2911 -1.1176
 2574TIP3   OH229280   2.553   3.689   2.562 -0.2768  0.8696  0.1537
 2574TIP3    H129281   2.515   3.601   2.553 -1.2103  1.3422 -0.8251
 2574TIP3    H229282   2.506   3.727   2.636 -0.6473  0.9083 -0.0945
 2575TIP3   OH229283   6.621   6.326   1.138  0.1390  0.1954 -0.1547
 2575TIP3    H129284   6.669   6.294   1.062 -2.9172  0.9874 -2.5690
 2575TIP3    H229285   6.661   6.410   1.158 -0.0126  0.7048 -1.9066
 2576TIP3   OH229286   1.407   3.057   0.430 -0.3773  0.4035 -0.4779
 2576TIP3    H129287   1.372   3.052   0.341 -2.4222 -0.2674  0.3130
 2576TIP3    H229288   1.367   3.137   0.467 -0.0069  0.3684  0.0120
 2577TIP3   OH229289   6.461   4.550   0.671  0.1438  0.4090 -0.3790
 2577TIP3    H129290   6.471   4.555   0.766 -3.0020  1.1285  0.0391
 2577TIP3    H229291   6.391   4.612   0.651 -0.0718 -0.5520 -3.0396
 2578TIP3   OH229292   4.373   2.391   2.318  0.0679  0.3564  0.1563
 2578TIP3    H129293   4.384   2.300   2.291 -0.7988  0.3590 -0.2488
 2578TIP3    H229294   4.283   2.413   2.293  0.4182  1.4771 -0.2216
 2579TIP3   OH229295   5.960   2.907   0.754 -0.1116  0.2608 -0.3022
 2579TIP3    H129296   5.947   2.857   0.674  0.0192  1.8034 -1.3326
 2579TIP3    H229297   6.051   2.937   0.749 -0.3841  1.1520 -0.0455
 2580TIP3   OH229298   6.252   0.849   3.350  0.1132  0.2686 -0.4969
 2580TIP3    H129299   6.299   0.784   3.402  0.0653 -0.0078 -0.8002
 2580TIP3    H229300   6.160   0.831   3.366  0.1070  0.8188  0.1074
 2581TIP3   OH229301   4.835   3.237   1.761 -0.4676  0.4297 -0.6530
 2581TIP3    H129302   4.816   3.192   1.843 -2.1045  1.2636 -0.5354
 2581TIP3    H229303   4.903   3.300   1.783 -0.0646 -0.1496 -0.2142
 2582TIP3   OH229304   0.912   5.884   8.098  0.1132 -0.0466  0.0185
 2582TIP3    H129305   0.874   5.800   8.122 -1.7594  0.4521 -0.9414
 2582TIP3    H229306   0.981   5.863   8.035  0.4089 -0.9163  0.6245
 2583TIP3   OH229307   6.591   3.328   3.766  0.1122  0.3770 -0.2359
 2583TIP3    H129308   6.507   3.372   3.781 -0.3259 -0.2405 -0.7790
 2583TIP3    H229309   6.596   3.318   3.671  0.6857  0.1877 -0.1903
 2584TIP3   OH229310   6.943   0.508   2.736  0.1622  0.1548  0.1810
 2584TIP3    H129311   6.974   0.574   2.799 -1.6187  0.3985  0.8510
 2584TIP3    H229312   6.895   0.558   2.671  1.5685 -0.1585 -1.1613
 2585TIP3   OH229313   4.854   5.196   1.797 -0.4597 -0.3052  0.1259
 2585TIP3    H129314   4.836   5.129   1.863 -0.1023 -0.3964  0.1325
 2585TIP3    H229315   4.934   5.239   1.828  0.6791 -1.4668 -1.1215
 2586TIP3   OH229316   3.978   5.194   7.730 -0.3473 -0.0227  0.1927
 2586TIP3    H129317   4.068   5.220   7.751 -0.9994  1.7391  0.9311
 2586TIP3    H229318   3.970   5.105   7.767  1.4793 -0.7800 -1.0875
 2587TIP3   OH229319   3.078   3.983   3.246 -0.1336 -0.4922 -0.2371
 2587TIP3    H129320   3.116   3.997   3.332 -1.0830  1.1874 -0.0419
 2587TIP3    H229321   3.013   4.053   3.237 -1.5658 -1.8812 -1.4499
 2588TIP3   OH229322   0.349   0.864   0.281  0.1232 -0.4313  0.2094
 2588TIP3    H129323   0.341   0.812   0.201 -0.3841  0.1821 -0.1525
 2588TIP3    H229324   0.443   0.878   0.292  0.2121 -0.7484 -0.1291
 2589TIP3   OH229325   4.119   1.778   3.412  0.3804 -0.1314  0.0285
 2589TIP3    H129326   4.213   1.795   3.408  0.0612  1.7393 -3.3128
 2589TIP3    H229327   4.102   1.721   3.337 -1.1329 -0.4968  0.6205
 2590TIP3   OH229328   5.018   6.846   2.133  0.3077  0.8353 -0.3040
 2590TIP3    H129329   4.927   6.860   2.108  0.2511  0.7941 -0.1244
 2590TIP3    H229330   5.019   6.854   2.229  0.3551  0.1261 -0.2351
 2591TIP3   OH229331   2.294   2.823   7.887 -0.1861  0.6007  0.0144
 2591TIP3    H129332   2.247   2.894   7.930  0.3237  1.5274 -0.8918
 2591TIP3    H229333   2.380   2.861   7.866  0.6471 -0.7548  0.8125
 2592TIP3   OH229334   4.228   3.012   1.208 -0.6303 -0.1390 -0.1120
 2592TIP3    H129335   4.261   3.072   1.141 -0.2279  0.5831  0.7017
 2592TIP3    H229336   4.306   2.988   1.259 -0.7958 -1.3355 -0.3994
 2593TIP3   OH229337   6.323   6.664   2.939  0.3949  0.2715 -0.1491
 2593TIP3    H129338   6.314   6.705   2.853  1.1600 -0.8434 -0.7912
 2593TIP3    H229339   6.280   6.579   2.929 -0.8619  0.7334  1.0446
 2594TIP3   OH229340   2.975   2.506   3.388  0.2543  0.2907  0.5594
 2594TIP3    H129341   3.013   2.497   3.475  2.4787  1.4320 -0.2084
 2594TIP3    H229342   3.049   2.531   3.332 -1.2641  0.4761 -1.4855
 2595TIP3   OH229343   3.625   1.986   0.169 -0.7704  0.1171 -0.0679
 2595TIP3    H129344   3.698   2.013   0.113  1.4923  1.1460  3.0905
 2595TIP3    H229345   3.591   2.068   0.204 -1.2124 -0.5511  1.1078
 2596TIP3   OH229346   1.077   2.740   1.098 -0.2633 -0.0488 -0.3420
 2596TIP3    H129347   1.125   2.660   1.120  1.2789  0.5264 -1.4381
 2596TIP3    H229348   1.002   2.710   1.048  0.5677 -0.7913 -1.1828
 2597TIP3   OH229349   4.805   3.781   1.844  0.0423 -0.3417  0.1422
 2597TIP3    H129350   4.797   3.705   1.902  0.7495 -0.4919  0.0610
 2597TIP3    H229351   4.887   3.822   1.871  0.4090 -0.4426 -0.7771
 2598TIP3   OH229352   3.159   6.902   0.625  0.2186  0.6362 -0.2879
 2598TIP3    H129353   3.210   6.962   0.678  0.6780  0.6222 -0.7112
 2598TIP3    H229354   3.197   6.909   0.537  0.4332 -0.4488 -0.2928
 2599TIP3   OH229355   6.089   6.463   1.642  0.1743  0.1811 -0.1435
 2599TIP3    H129356   6.086   6.368   1.649  1.5283 -0.0069 -1.6912
 2599TIP3    H229357   6.072   6.494   1.731  0.6127 -1.5201  0.5698
 2600TIP3   OH229358   6.089   4.853   0.209  0.5062  0.1195  0.2650
 2600TIP3    H129359   6.049   4.825   0.128 -1.0843 -0.5005  1.2244
 2600TIP3    H229360   6.152   4.785   0.231 -0.4315 -0.6855  0.5078
 2601TIP3   OH229361   4.015   4.613   1.818 -0.4993 -0.2388 -0.6612
 2601TIP3    H129362   4.023   4.681   1.752  0.2580 -0.7730 -1.1354
 2601TIP3    H229363   3.942   4.641   1.873 -1.2106  0.1585 -1.7805
 2602TIP3   OH229364   4.357   1.175   2.492 -0.0240 -0.0824 -0.0639
 2602TIP3    H129365   4.354   1.134   2.578 -0.7044  0.1592  0.0322
 2602TIP3    H229366   4.277   1.227   2.487 -0.7034 -1.1868 -1.3881
 2603TIP3   OH229367   4.479   3.643   1.146 -0.1906  0.4188  0.1837
 2603TIP3    H129368   4.397   3.691   1.159  0.2127  0.8916  1.0871
 2603TIP3    H229369   4.456   3.573   1.086 -0.7983  1.7362 -1.1796
 2604TIP3   OH229370   1.563   3.133   7.258  0.0435 -0.3808 -0.1280
 2604TIP3    H129371   1.484   3.186   7.254  0.9109  1.2319  2.0385
 2604TIP3    H229372   1.557   3.085   7.341  0.6377 -1.4620 -0.6718
 2605TIP3   OH229373   0.573   2.082   0.611 -0.2631  0.2943  0.4543
 2605TIP3    H129374   0.592   2.160   0.662  0.8693  1.3137 -1.4158
 2605TIP3    H229375   0.518   2.113   0.538  2.7447  0.0988 -2.1143
 2606TIP3   OH229376   0.888   4.853   2.805 -0.7090 -0.2520  0.3025
 2606TIP3    H129377   0.856   4.782   2.860 -0.3026 -0.5470  0.1629
 2606TIP3    H229378   0.977   4.827   2.781 -0.7664  0.0184 -0.2337
 2607TIP3   OH229379   6.570   3.554   3.229 -0.9149  0.5423  0.5356
 2607TIP3    H129380   6.481   3.567   3.197 -1.2862  0.3527  1.4623
 2607TIP3    H229381   6.586   3.629   3.286  0.4421  1.9161 -1.4965
 2608TIP3   OH229382   0.139   1.084   1.667  0.7161 -0.1409  0.3613
 2608TIP3    H129383   0.181   1.011   1.621 -0.2133  0.6644 -1.8717
 2608TIP3    H229384   0.209   1.121   1.722  1.8625 -1.1761 -0.3525
 2609TIP3   OH229385   6.604   3.993   2.584  0.6447  0.0466 -0.1823
 2609TIP3    H129386   6.658   4.013   2.661  0.1301  1.7953 -0.2191
 2609TIP3    H229387   6.648   4.038   2.512 -0.1795  0.4451 -0.4442
 2610TIP3   OH229388   2.021   6.902   2.295 -0.4721 -0.3999  0.4548
 2610TIP3    H129389   1.980   6.974   2.248 -0.3384 -0.7118 -0.1555
 2610TIP3    H229390   2.007   6.826   2.239 -0.1982 -0.7595  0.8633
 2611TIP3   OH229391   1.510   0.827   2.452  0.8344  0.2121 -0.6259
 2611TIP3    H129392   1.458   0.904   2.473 -3.1879 -1.0635 -4.3838
 2611TIP3    H229393   1.495   0.767   2.525 -1.2179  0.7917 -0.5085
 2612TIP3   OH229394   5.553   6.643   1.166 -0.2414 -0.1239  0.9828
 2612TIP3    H129395   5.491   6.678   1.229  0.2956  1.0777  0.8763
 2612TIP3    H229396   5.592   6.567   1.209 -0.8542 -0.1229  1.5473
 2613TIP3   OH229397   1.536   4.118   0.365  0.0394 -0.1521  0.2898
 2613TIP3    H129398   1.603   4.113   0.297 -0.6886  1.9749 -0.6676
 2613TIP3    H229399   1.461   4.069   0.330 -0.1830  0.5825 -0.2807
 2614TIP3   OH229400   3.699   2.945   0.107 -0.3511  0.5978 -0.3106
 2614TIP3    H129401   3.696   3.040   0.097 -0.0449  0.5813 -0.5777
 2614TIP3    H229402   3.775   2.929   0.163  0.4704  0.4256 -1.4420
 2615TIP3   OH229403   4.241   4.496   0.152  0.3455 -0.5445  0.1633
 2615TIP3    H129404   4.324   4.537   0.126 -0.0498  0.2793  0.1723
 2615TIP3    H229405   4.264   4.404   0.167  0.9851 -0.6218 -1.1321
 2616TIP3   OH229406   1.472   3.016   2.094 -0.0992  0.0044  0.0832
 2616TIP3    H129407   1.435   3.102   2.113  0.0631  0.5745 -1.8953
 2616TIP3    H229408   1.417   2.981   2.024  0.4854 -1.0176  0.1120
 2617TIP3   OH229409   1.776   0.706   1.929  0.1330 -0.0006 -0.0616
 2617TIP3    H129410   1.700   0.755   1.959  0.2793  0.7680 -0.9104
 2617TIP3    H229411   1.847   0.734   1.987  0.1302  0.5032 -0.2998
 2618TIP3   OH229412   4.613   0.396   0.018  0.1475 -0.0931  0.3667
 2618TIP3    H129413   4.689   0.340   0.028  0.9845  0.7915 -0.7954
 2618TIP3    H229414   4.541   0.336   0.000  0.9312 -0.8435 -0.3620
 2619TIP3   OH229415   5.195   1.150   0.614  0.2658  0.6858  0.0491
 2619TIP3    H129416   5.283   1.177   0.587 -0.3082  0.7006 -1.9862
 2619TIP3    H229417   5.183   1.064   0.574 -0.9961  1.1224 -0.5662
 2620TIP3   OH229418   1.657   5.042   0.319 -0.1116 -0.6668 -0.1221
 2620TIP3    H129419   1.661   4.956   0.361 -0.3057 -0.7715 -0.3181
 2620TIP3    H229420   1.721   5.037   0.248  1.4210  0.0481  1.1285
 2621TIP3   OH229421   6.252   1.997   3.171  0.4611 -0.1336  0.1821
 2621TIP3    H129422   6.315   2.054   3.214  0.2965  1.1882 -1.2492
 2621TIP3    H229423   6.305   1.927   3.133  0.6465 -1.1100  2.1013
 2622TIP3   OH229424   5.590   1.793   1.640  0.1114 -0.4545 -0.3743
 2622TIP3    H129425   5.649   1.748   1.579 -0.7004 -0.9694 -0.8034
 2622TIP3    H229426   5.606   1.886   1.623  0.7942 -0.5821 -0.4823
 2623TIP3   OH229427   2.877   6.704   3.383 -0.1355 -0.2837  0.2254
 2623TIP3    H129428   2.857   6.740   3.297 -2.9727  0.4156  1.0385
 2623TIP3    H229429   2.971   6.715   3.393  0.1246  0.5260 -2.3547
 2624TIP3   OH229430   6.112   2.136   8.467  0.7880 -0.3054  0.0792
 2624TIP3    H129431   6.071   2.214   8.505 -1.0902 -2.0316  1.8905
 2624TIP3    H229432   6.164   2.169   8.394 -0.8094  2.4916  0.0652
 2625TIP3   OH229433   3.581   6.261   2.073 -0.1109 -0.8156 -0.2107
 2625TIP3    H129434   3.666   6.299   2.095 -0.3496  1.2344 -2.4505
 2625TIP3    H229435   3.518   6.314   2.121 -0.2864 -0.1233 -1.1815
 2626TIP3   OH229436   4.647   1.111   1.623  0.3074 -0.4873 -0.0609
 2626TIP3    H129437   4.679   1.032   1.666  1.1785 -0.4646 -0.6344
 2626TIP3    H229438   4.692   1.111   1.538  0.3013  0.6033 -0.0733
 2627TIP3   OH229439   1.642   1.806   1.319 -0.4012 -0.0782 -0.0110
 2627TIP3    H129440   1.678   1.850   1.396 -0.6254  1.5417 -0.8020
 2627TIP3    H229441   1.587   1.736   1.356  1.9019 -1.3534  1.2269
 2628TIP3   OH229442   6.616   4.101   2.110  0.1873  0.0806  0.4891
 2628TIP3    H129443   6.584   4.011   2.105  0.3218  0.0813 -0.5377
 2628TIP3    H229444   6.669   4.103   2.190 -0.7567 -0.4341  1.1449
 2629TIP3   OH229445   6.502   2.750   8.372  0.3369 -0.0856  0.2786
 2629TIP3    H129446   6.514   2.679   8.308  0.5451 -1.4394  1.7460
 2629TIP3    H229447   6.590   2.769   8.403  0.3176  1.0784 -0.3329
 2630TIP3   OH229448   0.444   3.331   0.338  0.1655  0.1951  0.4930
 2630TIP3    H129449   0.421   3.355   0.248  0.0779 -1.5702  0.0147
 2630TIP3    H229450   0.368   3.359   0.390 -0.0694  0.6224 -0.0696
 2631TIP3   OH229451   6.258   1.102   2.707  0.0754  0.1369 -0.0972
 2631TIP3    H129452   6.243   1.111   2.613 -0.6702 -0.4435 -0.0463
 2631TIP3    H229453   6.195   1.035   2.735  1.7780 -1.3220  0.4324
 2632TIP3   OH229454   2.350   3.725   0.983 -0.2146  0.2892 -0.1140
 2632TIP3    H129455   2.399   3.763   0.910  0.5754 -0.4392  0.0341
 2632TIP3    H229456   2.328   3.637   0.954 -0.8097  0.3570  0.1180
 2633TIP3   OH229457   4.939   2.905   2.971  0.1300 -0.2558  0.6546
 2633TIP3    H129458   4.994   2.845   3.022  2.1885  2.0137  1.2684
 2633TIP3    H229459   4.867   2.927   3.031 -0.1398 -1.3455  0.7562
 2634TIP3   OH229460   0.667   6.265   0.957 -0.3593 -0.5236 -0.3244
 2634TIP3    H129461   0.594   6.210   0.987  0.1541 -0.9031  0.2428
 2634TIP3    H229462   0.694   6.312   1.036  1.5971 -2.1872  0.0803
 2635TIP3   OH229463   6.631   2.485   2.699  0.7574 -0.4252 -0.1318
 2635TIP3    H129464   6.570   2.556   2.716  2.9385  1.4362  0.4479
 2635TIP3    H229465   6.619   2.425   2.772 -0.8881 -0.5167 -0.4495
 2636TIP3   OH229466   5.210   2.423   2.643  0.1247 -0.8731 -0.0845
 2636TIP3    H129467   5.214   2.458   2.554 -2.9722  0.8160  0.3003
 2636TIP3    H229468   5.249   2.491   2.698  0.4733 -1.1559  0.0212
 2637TIP3   OH229469   4.859   3.987   0.312 -0.2193 -0.0281  0.7646
 2637TIP3    H129470   4.891   3.947   0.393  0.0044 -3.0277 -0.6824
 2637TIP3    H229471   4.918   4.061   0.297  0.8824 -0.5158  2.3754
 2638TIP3   OH229472   3.046   0.517   0.923 -0.5055  0.1308 -0.3455
 2638TIP3    H129473   2.983   0.491   0.990 -0.7702 -0.0677 -0.6661
 2638TIP3    H229474   3.029   0.457   0.850  1.7591 -1.6820  0.4866
 2639TIP3   OH229475   3.726   3.223   7.330  0.2740 -0.0160  0.3807
 2639TIP3    H129476   3.633   3.235   7.310  0.1438 -0.1693  0.9022
 2639TIP3    H229477   3.765   3.307   7.306  0.0511 -0.0392 -0.0992
 2640TIP3   OH229478   6.474   2.637   8.105  0.3161 -0.3373  0.6597
 2640TIP3    H129479   6.395   2.637   8.050  1.7404 -1.6868 -1.5000
 2640TIP3    H229480   6.546   2.655   8.045  1.7585  0.4586  2.5086
 2641TIP3   OH229481   2.723   4.322   2.985  0.8356 -0.3876 -0.1191
 2641TIP3    H129482   2.776   4.378   2.928 -0.2184 -1.0182 -1.7745
 2641TIP3    H229483   2.763   4.236   2.979  0.1554 -0.6711 -0.6854
 2642TIP3   OH229484   4.099   1.535   2.776 -0.2327 -0.3127 -0.0951
 2642TIP3    H129485   4.032   1.566   2.837  0.1653  0.2817  0.0512
 2642TIP3    H229486   4.054   1.471   2.722 -1.3310  1.0882 -0.9378
 2643TIP3   OH229487   4.683   0.644   1.685 -0.6169 -0.0901 -0.9981
 2643TIP3    H129488   4.631   0.596   1.621 -1.4911  0.1585 -0.4893
 2643TIP3    H229489   4.704   0.579   1.752  0.7523 -0.4846 -1.7723
 2644TIP3   OH229490   5.774   1.784   2.950 -0.4300 -0.3498  0.1469
 2644TIP3    H129491   5.845   1.769   3.012 -0.0961 -1.9773 -0.5837
 2644TIP3    H229492   5.812   1.840   2.883 -0.0289 -0.6412  0.1256
 2645TIP3   OH229493   3.186   2.997   0.451  0.1002  0.5686  0.1408
 2645TIP3    H129494   3.103   3.044   0.448  0.7984  1.8144 -0.5626
 2645TIP3    H229495   3.233   3.035   0.526  0.6043  0.9049 -0.3344
 2646TIP3   OH229496   2.160   5.740   1.594 -0.2292  0.7787 -0.7861
 2646TIP3    H129497   2.207   5.686   1.531 -0.1911 -0.9925  0.6825
 2646TIP3    H229498   2.137   5.819   1.546  3.6227  1.4780 -1.8275
 2647TIP3   OH229499   5.978   0.422   0.788  0.5474  0.1071  0.0379
 2647TIP3    H129500   5.983   0.483   0.862  1.1630  1.7463 -1.3001
 2647TIP3    H229501   5.999   0.475   0.711 -0.0613 -1.5476 -1.3383
 2648TIP3   OH229502   6.441   0.100   0.443 -0.2556  0.1303 -0.8044
 2648TIP3    H129503   6.420   0.170   0.505 -0.3690 -0.3137 -0.3335
 2648TIP3    H229504   6.382   0.029   0.467 -1.2363  0.3991 -2.2660
 2649TIP3   OH229505   2.858   3.661   1.290  0.6627 -0.3568 -0.1964
 2649TIP3    H129506   2.774   3.692   1.257  1.4203  0.7267 -1.1884
 2649TIP3    H229507   2.837   3.582   1.339 -0.7026 -1.1937 -2.0304
 2650TIP3   OH229508   6.762   4.377   0.429 -0.5762 -0.0106  0.5983
 2650TIP3    H129509   6.794   4.379   0.518 -0.5930  0.9600  0.5909
 2650TIP3    H229510   6.840   4.385   0.374 -0.5206 -1.0234  0.4977
 2651TIP3   OH229511   4.018   6.647   0.750 -0.4379 -0.4418 -0.0837
 2651TIP3    H129512   4.045   6.672   0.838 -0.3463 -0.8489  0.0075
 2651TIP3    H229513   3.953   6.578   0.763  0.3253 -1.2217 -0.3503
 2652TIP3   OH229514   1.841   2.583   1.629 -0.4474  0.1245 -0.0630
 2652TIP3    H129515   1.813   2.588   1.720  0.4685  0.3517  0.2214
 2652TIP3    H229516   1.776   2.635   1.581 -2.2652 -1.8608  0.1014
 2653TIP3   OH229517   5.689   3.621   2.552  0.3945  0.5052  0.0245
 2653TIP3    H129518   5.778   3.650   2.570  0.0072  1.0482  1.1745
 2653TIP3    H229519   5.687   3.607   2.457  2.2406 -1.4599  0.2234
 2654TIP3   OH229520   0.129   3.140   3.895  0.1041 -0.2477 -0.0874
 2654TIP3    H129521   0.039   3.109   3.895 -0.0977  0.3325  0.0649
 2654TIP3    H229522   0.162   3.120   3.807 -0.3889  0.1669 -0.3678
 2655TIP3   OH229523   1.373   2.552   3.014  0.1691  0.5147 -0.0719
 2655TIP3    H129524   1.448   2.498   3.041 -0.5973 -0.3546  0.3846
 2655TIP3    H229525   1.397   2.641   3.039  0.1009 -0.0575  2.2387
 2656TIP3   OH229526   3.317   3.652   7.890 -0.4055 -0.7979 -0.3348
 2656TIP3    H129527   3.376   3.723   7.866  0.2551 -1.2570 -0.0989
 2656TIP3    H229528   3.373   3.589   7.936 -1.5225 -0.1540  2.0749
 2657TIP3   OH229529   2.010   1.875   2.025 -0.3411  0.1537  0.4187
 2657TIP3    H129530   1.993   1.854   1.933 -0.3100 -0.8424  0.6251
 2657TIP3    H229531   1.924   1.879   2.064 -0.3526  0.5413  0.3520
 2658TIP3   OH229532   5.510   5.548   1.389  0.2373 -0.2730 -0.3177
 2658TIP3    H129533   5.554   5.633   1.374 -0.2453 -0.0194 -0.3003
 2658TIP3    H229534   5.498   5.512   1.301 -0.4387  0.1245 -0.3909
 2659TIP3   OH229535   5.246   0.604   2.904 -0.0111  0.1933  0.0172
 2659TIP3    H129536   5.183   0.604   2.832 -0.5698 -1.6107  0.4532
 2659TIP3    H229537   5.233   0.519   2.947 -0.4926  1.5863  2.9118
 2660TIP3   OH229538   4.598   5.943   3.264 -0.1119 -0.2187 -0.5732
 2660TIP3    H129539   4.686   5.919   3.294 -0.0843 -0.4221 -0.8179
 2660TIP3    H229540   4.572   5.873   3.205 -0.3782 -0.0813 -0.6231
 2661TIP3   OH229541   6.571   1.109   2.945  0.5444  0.3879 -0.3371
 2661TIP3    H129542   6.621   1.190   2.939 -0.2753  0.7977 -2.3545
 2661TIP3    H229543   6.587   1.064   2.862 -0.6822 -0.4990 -0.1299
 2662TIP3   OH229544   2.935   5.388   2.986 -0.4286  0.1382  0.2015
 2662TIP3    H129545   2.987   5.467   3.000 -0.5880  0.3822 -0.5016
 2662TIP3    H229546   2.867   5.392   3.053  0.7192 -0.4286  1.4344
 2663TIP3   OH229547   5.734   0.696   0.969  0.2957 -0.5575  0.3751
 2663TIP3    H129548   5.686   0.626   0.925  0.0174  0.6185 -1.3042
 2663TIP3    H229549   5.739   0.668   1.060  2.0171 -3.7702 -0.5427
 2664TIP3   OH229550   1.701   0.657   0.939 -0.6066  0.3433 -0.4887
 2664TIP3    H129551   1.726   0.709   0.862  0.9683 -2.2113 -1.8658
 2664TIP3    H229552   1.782   0.648   0.988 -0.5955 -1.4703 -0.7726
 2665TIP3   OH229553   3.050   5.828   0.615 -0.5783  0.3465 -0.0621
 2665TIP3    H129554   3.032   5.846   0.523  1.0010 -0.0955 -0.4837
 2665TIP3    H229555   3.130   5.876   0.634  0.7492 -1.8536  0.2413
 2666TIP3   OH229556   5.295   3.063   2.314 -0.0574 -0.3169 -0.8880
 2666TIP3    H129557   5.226   3.021   2.263  0.5531 -2.4224 -0.1026
 2666TIP3    H229558   5.251   3.097   2.392 -0.5904  0.7276 -1.6191
 2667TIP3   OH229559   2.450   1.197   0.430 -0.2021  0.2459 -0.1603
 2667TIP3    H129560   2.514   1.227   0.366 -0.0689  0.7525  0.2094
 2667TIP3    H229561   2.370   1.245   0.409 -0.9316 -1.4899 -1.5870
 2668TIP3   OH229562   2.341   0.453   2.851 -0.5517 -0.1342 -0.4805
 2668TIP3    H129563   2.425   0.471   2.808 -0.4742  1.6477  0.3464
 2668TIP3    H229564   2.365   0.413   2.935 -0.6168 -1.2544 -0.9786
 2669TIP3   OH229565   6.513   6.433   0.137  0.3374  0.3053  0.1698
 2669TIP3    H129566   6.500   6.485   0.058  3.0378  1.2765  0.2420
 2669TIP3    H229567   6.569   6.488   0.192 -1.8658 -0.1203  3.0353
 2670TIP3   OH229568   6.192   0.883   3.056 -0.6411  0.3378  0.0611
 2670TIP3    H129569   6.206   0.883   3.151 -1.3085  0.2123  0.1676
 2670TIP3    H229570   6.238   0.960   3.025  2.2682 -1.2394  0.0476
 2671TIP3   OH229571   0.481   1.109   8.100 -0.3888  0.4448  0.1317
 2671TIP3    H129572   0.557   1.167   8.090 -0.1580  0.1939  0.3968
 2671TIP3    H229573   0.422   1.135   8.030  0.7135 -0.5211 -1.2314
 2672TIP3   OH229574   5.830   4.259   2.554 -0.3132  0.7741 -0.3217
 2672TIP3    H129575   5.794   4.229   2.637 -1.0223  0.7911 -0.6137
 2672TIP3    H229576   5.922   4.232   2.556 -0.6535 -0.4282 -0.1074
 2673TIP3   OH229577   5.978   5.518   2.683  0.6041  0.2257 -0.0169
 2673TIP3    H129578   6.027   5.598   2.666  0.7083 -0.0304 -0.9557
 2673TIP3    H229579   5.890   5.548   2.704  0.7514  0.6072  0.0672
 2674TIP3   OH229580   5.983   5.171   1.260  0.0341 -0.0384  0.1164
 2674TIP3    H129581   5.895   5.197   1.288 -0.0345  0.4076 -0.4962
 2674TIP3    H229582   6.037   5.184   1.338 -0.3448  0.1911  0.3446
 2675TIP3   OH229583   3.465   3.916   1.135 -0.4058  0.1901 -0.5287
 2675TIP3    H129584   3.421   3.847   1.185 -0.1862 -0.2570 -0.9567
 2675TIP3    H229585   3.426   3.997   1.169 -0.6539 -0.1345 -0.0165
 2676TIP3   OH229586   5.033   5.348   7.796 -0.5006  0.4575  0.2410
 2676TIP3    H129587   5.126   5.338   7.773 -0.9054 -1.4700 -0.7503
 2676TIP3    H229588   4.986   5.318   7.719 -1.9422 -1.2853  1.7249
 2677TIP3   OH229589   0.764   2.726   0.810  0.2966 -0.4533  0.2939
 2677TIP3    H129590   0.736   2.745   0.721 -0.6644 -1.2481  0.4045
 2677TIP3    H229591   0.682   2.716   0.859  0.7879  1.1636  1.5475
 2678TIP3   OH229592   6.441   1.002   2.180 -0.4928  0.0730  0.2590
 2678TIP3    H129593   6.518   1.057   2.164 -0.2511 -0.4767 -0.5416
 2678TIP3    H229594   6.370   1.064   2.196  0.0223  0.5933  0.5525
 2679TIP3   OH229595   3.373   6.758   0.023 -0.5140 -0.1619 -0.2646
 2679TIP3    H129596   3.375   6.725   0.112 -0.4891  0.4214 -0.0412
 2679TIP3    H229597   3.458   6.802   0.012 -0.3430 -0.6015 -0.7206
 2680TIP3   OH229598   1.089   1.272   0.614  0.0304  0.1286 -0.8045
 2680TIP3    H129599   1.164   1.253   0.670 -2.2946  2.4456  3.6027
 2680TIP3    H229600   1.116   1.348   0.562  0.5712  1.4337  1.2923
 2681TIP3   OH229601   5.385   6.798   2.421  0.8841 -0.2377 -0.4805
 2681TIP3    H129602   5.474   6.786   2.388  1.2345  1.5631 -0.3061
 2681TIP3    H229603   5.395   6.850   2.501 -0.3331  0.4267 -0.7194
 2682TIP3   OH229604   3.152   0.013   7.573  0.1890  0.4068  0.3217
 2682TIP3    H129605   3.106  -0.062   7.611  1.3225  0.7785  2.6213
 2682TIP3    H229606   3.215  -0.026   7.512 -0.8491 -0.3291 -0.3059
 2683TIP3   OH229607   5.443   0.355   1.951  0.4211  0.1647  0.5288
 2683TIP3    H129608   5.492   0.428   1.912  0.9135  0.7502  2.1644
 2683TIP3    H229609   5.509   0.286   1.963  0.2031 -0.1312  0.0580
 2684TIP3   OH229610   0.845   1.529   2.605  0.3605 -0.4793  0.4646
 2684TIP3    H129611   0.920   1.499   2.554  1.4135  1.6546  0.6621
 2684TIP3    H229612   0.875   1.527   2.696  0.3253  0.7524  0.5112
 2685TIP3   OH229613   0.727   6.946   3.673  0.4015 -0.2218 -0.6036
 2685TIP3    H129614   0.703   6.854   3.663 -0.6636 -0.0817  0.5371
 2685TIP3    H229615   0.710   6.984   3.587  0.2330 -0.9498 -0.8995
 2686TIP3   OH229616   3.713   3.324   2.354 -0.7062  0.0163 -0.2154
 2686TIP3    H129617   3.645   3.347   2.417 -0.8505  0.6438 -0.5963
 2686TIP3    H229618   3.704   3.229   2.342 -1.8035  0.1693 -0.6093
 2687TIP3   OH229619   5.741   6.934   8.316 -1.1767 -0.5109  0.7837
 2687TIP3    H129620   5.668   6.874   8.301 -2.3859  0.4836  2.3165
 2687TIP3    H229621   5.699   7.012   8.353  0.4251  0.9716 -0.3866
 2688TIP3   OH229622   5.860   3.549   3.382  0.1898  0.3841  0.0357
 2688TIP3    H129623   5.948   3.587   3.379 -0.2632  1.4742  0.0408
 2688TIP3    H229624   5.865   3.472   3.326  0.6914  1.4494 -1.4574
 2689TIP3   OH229625   5.371   3.426   2.954 -0.1162 -0.3016 -0.1191
 2689TIP3    H129626   5.312   3.486   3.001  1.3454  0.7484  0.4391
 2689TIP3    H229627   5.379   3.350   3.013 -1.0642 -0.5712 -0.3076
 2690TIP3   OH229628   0.341   0.496   2.608 -0.9559 -0.2622 -0.1314
 2690TIP3    H129629   0.301   0.540   2.683 -0.0156  0.5464 -0.0902
 2690TIP3    H229630   0.284   0.517   2.534 -0.7205  0.7410 -0.0390
 2691TIP3   OH229631   2.186   4.465   7.571  0.7298  0.6777 -0.3895
 2691TIP3    H129632   2.177   4.374   7.544  1.5759  0.3969  0.2214
 2691TIP3    H229633   2.101   4.505   7.551  0.0860 -0.4324  0.0326
 2692TIP3   OH229634   2.722   0.109   1.821 -0.9911 -0.4203 -0.1391
 2692TIP3    H129635   2.770   0.115   1.904 -0.8909  0.9821 -0.2755
 2692TIP3    H229636   2.764   0.037   1.775 -1.1209 -1.3083  1.0633
 2693TIP3   OH229637   1.995   2.106   3.114 -0.0142 -0.8477  0.2597
 2693TIP3    H129638   1.947   2.091   3.196 -1.9031 -2.5769 -1.0621
 2693TIP3    H229639   2.013   2.018   3.081  1.4993 -0.1883 -0.7962
 2694TIP3   OH229640   4.965   5.671   2.722  0.2521  0.1072  0.3772
 2694TIP3    H129641   4.945   5.624   2.641 -0.2843 -0.0797  0.6132
 2694TIP3    H229642   4.899   5.640   2.784 -0.4543  1.5783  0.3980
 2695TIP3   OH229643   0.273   2.523   3.079 -0.5991  0.1116  0.3102
 2695TIP3    H129644   0.263   2.589   3.148  0.3254  3.0258 -2.0920
 2695TIP3    H229645   0.202   2.542   3.017  0.5715 -0.1040 -1.1608
 2696TIP3   OH229646   5.236   0.546   0.739 -0.3849 -0.0121  0.0508
 2696TIP3    H129647   5.227   0.457   0.705  1.3073 -0.0985 -0.2182
 2696TIP3    H229648   5.254   0.599   0.661 -0.6540  0.4554  0.3032
 2697TIP3   OH229649   0.981   5.391   0.524  0.0754  0.3623  0.4641
 2697TIP3    H129650   0.946   5.325   0.583 -1.8022  0.8597 -0.0164
 2697TIP3    H229651   1.056   5.349   0.482  1.0593 -0.2262  2.6634
 2698TIP3   OH229652   4.640   2.904   3.401  0.0611  0.2379 -0.2471
 2698TIP3    H129653   4.578   2.972   3.426  1.2855  1.7083 -1.0530
 2698TIP3    H229654   4.714   2.916   3.461  1.1403  0.9571 -1.6760
 2699TIP3   OH229655   1.595   4.487   0.084 -0.7077  0.3061 -0.0338
 2699TIP3    H129656   1.618   4.579   0.075 -1.5613  0.4159 -1.1757
 2699TIP3    H229657   1.677   4.445   0.114 -0.5809  1.5552  1.5187
 2700TIP3   OH229658   1.033   0.988   1.167  0.5392  0.1057  0.1269
 2700TIP3    H129659   1.072   1.027   1.246  1.8610 -0.2004 -0.3466
 2700TIP3    H229660   1.060   1.047   1.096 -0.2116  0.1006 -0.1638
 2701TIP3   OH229661   5.642   6.209   2.764  0.3373  0.3773  0.6709
 2701TIP3    H129662   5.555   6.186   2.795  0.0480  1.9518  1.0979
 2701TIP3    H229663   5.633   6.217   2.669  0.9141 -3.0860  0.1835
 2702TIP3   OH229664   0.391   0.399   0.875  0.2938  0.2608 -0.1820
 2702TIP3    H129665   0.430   0.311   0.873  1.0090  0.5233  1.1344
 2702TIP3    H229666   0.422   0.437   0.957 -1.8367  0.9230  0.3892
 2703TIP3   OH229667   6.692   3.356   0.247 -0.0357 -0.1003  0.2653
 2703TIP3    H129668   6.739   3.307   0.179 -0.4037  0.3126 -0.2976
 2703TIP3    H229669   6.751   3.427   0.270  1.1220 -1.5676  2.1088
 2704TIP3   OH229670   3.148   5.643   8.074 -0.3168 -0.0274 -1.3460
 2704TIP3    H129671   3.222   5.632   8.015  0.9496 -1.8201  0.4628
 2704TIP3    H229672   3.072   5.612   8.023  1.0342 -3.6733 -1.4558
 2705TIP3   OH229673   3.381   3.931   0.128 -0.6829 -0.1283 -0.2238
 2705TIP3    H129674   3.315   3.993   0.157 -0.8033  0.9015 -2.5036
 2705TIP3    H229675   3.415   3.968   0.046  0.4243 -2.2287 -0.7937
 2706TIP3   OH229676   3.909   0.528   2.874 -0.0551  0.0503  0.1160
 2706TIP3    H129677   3.876   0.617   2.868 -0.5491 -0.0595  1.0396
 2706TIP3    H229678   3.915   0.499   2.783 -1.5407  0.4376 -0.1363
 2707TIP3   OH229679   3.342   1.361   0.461 -0.4794 -0.0814 -0.1365
 2707TIP3    H129680   3.374   1.443   0.498 -0.8975  0.1712 -0.3220
 2707TIP3    H229681   3.404   1.295   0.490  0.0812  0.3629 -0.3095
 2708TIP3   OH229682   2.522   6.739   8.460 -0.5755 -0.2872  0.3168
 2708TIP3    H129683   2.493   6.649   8.475 -0.8463 -0.1673  0.5178
 2708TIP3    H229684   2.445   6.784   8.426 -0.8293  0.1868  1.4553
 2709TIP3   OH229685   0.809   3.284   1.356  0.7784  0.2927 -0.5941
 2709TIP3    H129686   0.858   3.202   1.363  1.7294  0.9341  0.8825
 2709TIP3    H229687   0.849   3.330   1.283  1.8637  0.4507  0.0796
 2710TIP3   OH229688   3.192   3.183   3.623 -0.4179  0.4218  0.5297
 2710TIP3    H129689   3.139   3.230   3.559 -1.3274  0.5477  1.3664
 2710TIP3    H229690   3.195   3.241   3.699  2.3297  1.2091 -0.0473
 2711TIP3   OH229691   5.020   2.803   2.718 -0.0791  0.1332 -0.1128
 2711TIP3    H129692   5.108   2.764   2.717 -0.9769 -1.9990 -0.0203
 2711TIP3    H229693   5.015   2.848   2.803  0.6753 -0.3115  0.1754
 2712TIP3   OH229694   0.845   0.280   1.496 -0.6911  0.6335  0.2355
 2712TIP3    H129695   0.853   0.374   1.515  1.0077  0.8597 -1.3902
 2712TIP3    H229696   0.869   0.272   1.404  1.0120 -1.6206  0.8024
 2713TIP3   OH229697   4.449   4.483   3.275 -0.1749 -0.1022  0.6726
 2713TIP3    H129698   4.417   4.471   3.365 -0.1261 -0.9128  0.5949
 2713TIP3    H229699   4.436   4.397   3.234 -1.0725  0.5176 -0.3896
 2714TIP3   OH229700   6.803   5.009   1.602  0.0044  0.2174 -0.0847
 2714TIP3    H129701   6.813   4.958   1.521 -4.4301 -0.2991 -0.5405
 2714TIP3    H229702   6.793   4.943   1.670 -5.0554  0.0968 -0.5787
 2715TIP3   OH229703   6.883   4.007   8.173 -0.5537  0.4879  0.7095
 2715TIP3    H129704   6.962   3.973   8.214  0.7990  1.5982 -0.8278
 2715TIP3    H229705   6.873   3.954   8.093 -1.8522 -0.1686  1.2761
 2716TIP3   OH229706   1.366   4.316   2.567  0.3612  0.2401  0.2299
 2716TIP3    H129707   1.278   4.352   2.574 -0.1420 -0.8877 -0.0628
 2716TIP3    H229708   1.395   4.304   2.657 -0.1642 -0.2621  0.3349
 2717TIP3   OH229709   4.988   6.328   2.398 -0.0550  0.1165  0.5364
 2717TIP3    H129710   5.025   6.358   2.481  1.5928 -0.5752  0.0802
 2717TIP3    H229711   4.952   6.407   2.357  0.7580  0.7845  1.0848
 2718TIP3   OH229712   0.624   1.809   2.382  0.4970  0.2810  1.1175
 2718TIP3    H129713   0.609   1.717   2.357 -0.9596  1.1529 -1.6571
 2718TIP3    H229714   0.718   1.815   2.396  0.5983 -1.6736  1.5873
 2719TIP3   OH229715   6.380   4.396   1.963 -0.3426  0.5392  0.0801
 2719TIP3    H129716   6.349   4.410   1.873 -1.0680 -1.7722 -0.0904
 2719TIP3    H229717   6.299   4.391   2.015 -0.0313 -0.2829  0.4997
 2720TIP3   OH229718   5.807   1.393   0.744  0.4877  0.2219  0.4344
 2720TIP3    H129719   5.765   1.361   0.665  0.9908  1.2367 -0.2626
 2720TIP3    H229720   5.803   1.319   0.805 -1.4945  0.0073  0.0897
 2721TIP3   OH229721   3.595   1.979   2.587 -0.3289  0.5545  0.0480
 2721TIP3    H129722   3.625   2.069   2.600 -0.8909  0.7483  0.0668
 2721TIP3    H229723   3.673   1.930   2.563  0.5048  0.4848  2.6493
 2722TIP3   OH229724   5.517   5.915   2.926 -0.2684 -0.2921  0.7473
 2722TIP3    H129725   5.523   6.010   2.919  1.6112 -0.4748 -1.6697
 2722TIP3    H229726   5.558   5.882   2.846  0.3930 -3.1694  2.1111
 2723TIP3   OH229727   2.323   1.927   0.620 -0.2058  1.1682  0.2075
 2723TIP3    H129728   2.362   1.924   0.708  0.0344  4.2952  0.2894
 2723TIP3    H229729   2.267   2.005   0.620  0.4685  1.7697 -2.6835
 2724TIP3   OH229730   4.827   5.345   1.157  0.1399 -0.2052  0.3162
 2724TIP3    H129731   4.787   5.430   1.176 -0.2366  0.8842 -4.1463
 2724TIP3    H229732   4.906   5.344   1.211  0.0381  2.9030  0.7269
 2725TIP3   OH229733   2.926   6.738   1.500 -0.1792  0.0885 -0.3266
 2725TIP3    H129734   2.924   6.831   1.479  0.0810 -0.0226 -0.8557
 2725TIP3    H229735   2.845   6.704   1.461 -1.1584  0.3922  1.3555
 2726TIP3   OH229736   5.638   4.113   7.927  0.2926 -0.0252 -0.4160
 2726TIP3    H129737   5.700   4.185   7.912  0.6533 -0.3067 -0.3195
 2726TIP3    H229738   5.688   4.034   7.905 -0.0901 -0.2474 -0.4974
 2727TIP3   OH229739   4.308   4.718   2.867  0.0413 -0.3842 -0.2003
 2727TIP3    H129740   4.260   4.636   2.878  2.4611 -1.7358  1.1464
 2727TIP3    H229741   4.400   4.692   2.863  0.8535  2.2281 -0.4200
 2728TIP3   OH229742   2.113   1.717   1.264 -0.0670  0.3193  0.4573
 2728TIP3    H129743   2.143   1.808   1.271 -1.0632  0.7773 -0.7318
 2728TIP3    H229744   2.052   1.718   1.190  2.6887 -2.0325 -2.1240
 2729TIP3   OH229745   0.531   1.516   2.170  0.0938  0.2872  0.3189
 2729TIP3    H129746   0.569   1.442   2.218  0.9275  0.6336  0.2217
 2729TIP3    H229747   0.472   1.558   2.233  0.3378  0.0931  0.6805
 2730TIP3   OH229748   0.653   2.713   8.407 -0.0330 -0.3460  0.1530
 2730TIP3    H129749   0.701   2.635   8.381  2.7277  0.9508  1.0121
 2730TIP3    H229750   0.655   2.711   8.503 -3.0996 -0.9839  0.3103
 2731TIP3   OH229751   2.474   3.478   0.078 -0.9285 -0.5676 -0.0147
 2731TIP3    H129752   2.554   3.426   0.090 -0.4794 -0.1538 -1.0898
 2731TIP3    H229753   2.451   3.466  -0.014 -2.1487 -0.7207  0.2977
 2732TIP3   OH229754   6.711   5.809   2.563 -0.0014 -0.2579 -0.1357
 2732TIP3    H129755   6.731   5.899   2.537 -0.3143 -0.2128 -0.2285
 2732TIP3    H229756   6.741   5.803   2.653  2.1724 -0.7643 -0.8494
 2733TIP3   OH229757   3.235   5.192   0.199  0.6017 -0.2001  0.0928
 2733TIP3    H129758   3.224   5.115   0.255 -1.0977 -0.1889 -0.1646
 2733TIP3    H229759   3.252   5.264   0.260  2.2984 -0.7535  0.3315
 2734TIP3   OH229760   1.856   3.159   0.308  0.1333  0.3850 -0.1290
 2734TIP3    H129761   1.822   3.217   0.241  0.7359  1.2038  0.2566
 2734TIP3    H229762   1.778   3.129   0.355 -0.1960  0.7752 -0.4177
 2735TIP3   OH229763   2.888   1.700   2.486  0.3128 -0.0077 -0.1613
 2735TIP3    H129764   2.943   1.757   2.433 -0.7113  1.4770  0.3079
 2735TIP3    H229765   2.943   1.625   2.507  2.5970  1.9812  1.3712
 2736TIP3   OH229766   3.807   5.227   2.424  0.5320  0.4849  0.3209
 2736TIP3    H129767   3.868   5.279   2.371  2.8607 -1.4548  0.9386
 2736TIP3    H229768   3.721   5.259   2.398  1.6495  1.4760 -2.6645
 2737TIP3   OH229769   2.577   6.718   2.267  0.0708  0.1378 -0.6779
 2737TIP3    H129770   2.629   6.679   2.337  0.4616 -1.7602 -1.9573
 2737TIP3    H229771   2.628   6.703   2.188 -2.1267 -1.2776 -1.9107
 2738TIP3   OH229772   2.405   2.114   2.589  0.2730  0.2405  0.4854
 2738TIP3    H129773   2.362   2.145   2.669 -1.0228 -0.6330  0.1494
 2738TIP3    H229774   2.480   2.173   2.579 -0.2583  1.1732  1.6459
 2739TIP3   OH229775   0.290   1.165   1.214  0.2113  0.5746  0.5444
 2739TIP3    H129776   0.291   1.070   1.213 -0.3618  0.5335 -1.7175
 2739TIP3    H229777   0.222   1.188   1.277  1.8094 -0.3936  2.7772
 2740TIP3   OH229778   3.844   6.115   0.389 -0.3272  0.4419  0.0910
 2740TIP3    H129779   3.919   6.115   0.329  0.1259  0.1921  0.6557
 2740TIP3    H229780   3.881   6.131   0.475 -0.8756 -0.0656  0.4320
 2741TIP3   OH229781   1.322   4.516   8.042  0.8238  0.4029 -0.0927
 2741TIP3    H129782   1.338   4.602   8.083 -0.1551 -0.0176  1.2324
 2741TIP3    H229783   1.242   4.528   7.991  0.6210  0.2424  0.1889
 2742TIP3   OH229784   3.176   5.435   0.045  0.0873  0.3914 -0.1141
 2742TIP3    H129785   3.204   5.350   0.078  0.8181  0.1679 -1.2594
 2742TIP3    H229786   3.120   5.471   0.114 -1.2311 -1.5437 -0.1239
 2743TIP3   OH229787   3.141   5.761   0.063  0.5590 -0.2433  0.1216
 2743TIP3    H129788   3.109   5.741  -0.025  1.9927 -0.8997 -0.2911
 2743TIP3    H229789   3.229   5.797   0.049 -0.9904  4.5230  0.9830
 2744TIP3   OH229790   6.881   2.216   8.430 -0.2034  0.3658  0.6450
 2744TIP3    H129791   6.836   2.267   8.497  0.8240 -0.1563  1.7638
 2744TIP3    H229792   6.965   2.260   8.418 -0.4031  0.5025 -0.3850
 2745TIP3   OH229793   4.658   4.210   8.308 -0.0050  0.1127 -0.0994
 2745TIP3    H129794   4.721   4.184   8.375 -1.4582  1.2247  1.8079
 2745TIP3    H229795   4.631   4.299   8.334 -1.0403  0.3616 -1.8546
 2746TIP3   OH229796   1.714   4.561   1.639  0.5009 -0.0587 -0.1396
 2746TIP3    H129797   1.640   4.606   1.679  2.8851  5.1689 -0.8320
 2746TIP3    H229798   1.764   4.526   1.712 -0.6053 -0.2041  0.5732
 2747TIP3   OH229799   3.726   5.271   1.839 -0.2362  0.0515 -0.8533
 2747TIP3    H129800   3.802   5.249   1.892 -0.9951  1.8765  1.1132
 2747TIP3    H229801   3.664   5.199   1.855 -0.2524  0.3163  0.3437
 2748TIP3   OH229802   6.015   1.119   7.959 -0.0175  0.0294 -0.3278
 2748TIP3    H129803   6.077   1.161   8.020 -0.0990 -2.9022  2.0145
 2748TIP3    H229804   5.949   1.079   8.016  1.2300 -5.0896 -1.9461
 2749TIP3   OH229805   1.210   3.935   7.390 -0.1762  0.2051 -0.4411
 2749TIP3    H129806   1.161   3.997   7.337 -1.1541  0.8521  1.1340
 2749TIP3    H229807   1.285   3.985   7.422  1.5786 -0.7546 -2.7673
 2750TIP3   OH229808   3.283   0.432   3.552  0.0217 -0.0724 -0.3313
 2750TIP3    H129809   3.290   0.519   3.513 -0.1156  0.3017  0.4622
 2750TIP3    H229810   3.361   0.423   3.607  1.0273 -1.2208 -1.8655
 2751TIP3   OH229811   4.885   5.855   1.453 -0.1389 -0.3840  0.3054
 2751TIP3    H129812   4.816   5.898   1.503  0.1913 -0.9034  1.2361
 2751TIP3    H229813   4.929   5.926   1.405 -0.6265  0.0863  0.5513
 2752TIP3   OH229814   0.518   1.862   0.781  0.1721 -0.3370 -0.3435
 2752TIP3    H129815   0.431   1.880   0.815  0.3385  0.2243 -0.2093
 2752TIP3    H229816   0.543   1.941   0.734  0.7854 -0.3273 -0.0191
 2753TIP3   OH229817   5.784   6.023   3.167 -0.2481  0.0578 -0.3700
 2753TIP3    H129818   5.764   5.936   3.201 -0.0965 -0.3348 -1.2609
 2753TIP3    H229819   5.710   6.077   3.195 -1.2718 -0.7810 -1.3711
 2754TIP3   OH229820   1.997   1.209   0.856  0.3128  0.2551 -0.8845
 2754TIP3    H129821   1.911   1.230   0.819 -0.5885 -0.0659  0.8995
 2754TIP3    H229822   2.051   1.286   0.839 -0.4764  0.6615 -1.6017
 2755TIP3   OH229823   0.268   5.002   1.585  0.1779 -0.1321  0.1196
 2755TIP3    H129824   0.291   5.094   1.598  1.8466 -0.5767  0.6571
 2755TIP3    H229825   0.239   4.973   1.672  2.6513 -0.8349  0.8094
 2756TIP3   OH229826   5.987   5.689   2.413  0.6389  0.1862 -0.2834
 2756TIP3    H129827   5.994   5.751   2.486 -1.0761  1.6604 -1.2825
 2756TIP3    H229828   5.924   5.624   2.444  0.8380  0.1262  0.0011
 2757TIP3   OH229829   2.130   4.954   0.737 -0.5456  0.3852 -0.5931
 2757TIP3    H129830   2.137   4.894   0.811 -0.5714  2.4171  1.1345
 2757TIP3    H229831   2.219   4.984   0.722 -0.9099  2.3018  0.7014
 2758TIP3   OH229832   2.114   1.421   2.605 -0.0424 -0.3372 -0.4186
 2758TIP3    H129833   2.101   1.473   2.684  1.8500 -0.6062  0.1407
 2758TIP3    H229834   2.054   1.348   2.613 -1.1891  0.6112 -0.1580
 2759TIP3   OH229835   6.328   6.049   1.689 -0.1276 -0.2519 -0.3408
 2759TIP3    H129836   6.397   6.098   1.735  0.8908 -1.5340 -0.4389
 2759TIP3    H229837   6.367   6.026   1.605 -1.7749  1.5914 -1.6947
 2760TIP3   OH229838   5.375   6.733   1.380  0.0816  0.8627 -0.4225
 2760TIP3    H129839   5.382   6.752   1.474 -0.4651  1.7748 -0.5497
 2760TIP3    H229840   5.288   6.694   1.370  1.8780 -3.8862  0.1316
 2761TIP3   OH229841   6.577   2.834   0.315 -0.4683 -0.1055 -0.3708
 2761TIP3    H129842   6.581   2.916   0.266  0.2879  0.5623  0.7444
 2761TIP3    H229843   6.669   2.808   0.324 -0.6749 -0.8381 -0.3153
 2762TIP3   OH229844   3.149   6.365   2.197  0.1988  0.5174 -0.5680
 2762TIP3    H129845   3.204   6.288   2.217 -2.1789 -1.2258 -0.3147
 2762TIP3    H229846   3.187   6.435   2.250  2.3912 -0.4816 -0.6908
 2763TIP3   OH229847   2.351   2.608   0.515 -0.2178 -0.2112 -0.0534
 2763TIP3    H129848   2.301   2.558   0.580  0.4549 -0.1215  0.5498
 2763TIP3    H229849   2.442   2.585   0.533 -0.0431 -0.3968 -1.1579
 2764TIP3   OH229850   5.001   1.289   3.018  0.0996  0.2702  0.2082
 2764TIP3    H129851   4.921   1.250   2.982  0.2286 -0.2096  0.4302
 2764TIP3    H229852   5.064   1.282   2.947  0.5199 -1.1998  0.6845
 2765TIP3   OH229853   3.900   6.612   1.388  0.3059 -0.0297 -0.0821
 2765TIP3    H129854   3.820   6.663   1.376  1.1685  1.9459  1.9199
 2765TIP3    H229855   3.966   6.659   1.338  0.7361 -0.2794  0.2510
 2766TIP3   OH229856   5.898   2.083   1.564  0.4924 -0.5723 -0.0132
 2766TIP3    H129857   5.956   2.085   1.640  0.1783  1.0370  0.2368
 2766TIP3    H229858   5.810   2.088   1.602  0.3386  0.3272 -0.4566
 2767TIP3   OH229859   2.450   2.832   1.120 -0.7045 -0.1917 -0.0588
 2767TIP3    H129860   2.511   2.856   1.190  0.3424 -2.7589  0.0212
 2767TIP3    H229861   2.426   2.915   1.080  0.4847  1.1581  1.8519
 2768TIP3   OH229862   3.321   4.458   0.126  0.3007 -0.4132  0.0517
 2768TIP3    H129863   3.258   4.485   0.059 -0.1641 -0.1734  0.5812
 2768TIP3    H229864   3.341   4.539   0.173  1.7257 -0.2964 -0.7033
 2769TIP3   OH229865   5.796   1.869   0.409 -0.3349  0.1720  0.6658
 2769TIP3    H129866   5.708   1.844   0.438 -0.2979  1.1763  1.7520
 2769TIP3    H229867   5.781   1.938   0.344 -0.3739 -0.8408 -0.4251
 2770TIP3   OH229868   3.109   1.654   3.003 -0.0915  0.3527 -0.2437
 2770TIP3    H129869   3.204   1.651   3.006  0.0212  1.7400 -1.1371
 2770TIP3    H229870   3.081   1.563   3.003  1.2076 -0.0628  0.5331
 2771TIP3   OH229871   0.771   0.881   1.231 -0.2831  0.3528  0.3327
 2771TIP3    H129872   0.783   0.870   1.326  1.1814 -2.3029 -0.0418
 2771TIP3    H229873   0.858   0.906   1.199  0.0388 -1.7483 -0.5829
 2772TIP3   OH229874   5.299   1.284   1.166 -0.3568  0.0482  0.6631
 2772TIP3    H129875   5.206   1.265   1.171 -0.4752 -0.3296 -1.7162
 2772TIP3    H229876   5.329   1.236   1.088  1.5472  1.2162  0.6093
 2773TIP3   OH229877   6.118   2.442   3.087  0.6743 -0.6910 -0.5225
 2773TIP3    H129878   6.139   2.391   3.009  3.4988 -1.4283  0.6105
 2773TIP3    H229879   6.174   2.405   3.156 -3.6058 -1.9934  2.6857
 2774TIP3   OH229880   6.133   2.254   3.440 -0.7317  0.9576 -0.1976
 2774TIP3    H129881   6.199   2.274   3.373 -0.6665  0.2405 -0.3534
 2774TIP3    H229882   6.178   2.197   3.502 -1.1649  0.5527 -0.2468
 2775TIP3   OH229883   5.654   2.327   0.975 -0.1517  0.0122 -0.5528
 2775TIP3    H129884   5.686   2.237   0.983 -0.7385 -0.3145 -1.7719
 2775TIP3    H229885   5.728   2.375   0.938 -0.4049 -0.3438 -1.5465
 2776TIP3   OH229886   2.611   3.355   0.392  0.3917 -0.1645  0.1434
 2776TIP3    H129887   2.640   3.361   0.301 -0.3165  0.5505 -0.0441
 2776TIP3    H229888   2.526   3.398   0.393  0.0183 -0.8858  0.9866
 2777TIP3   OH229889   6.599   4.782   2.013  0.2581 -0.4906  0.1043
 2777TIP3    H129890   6.648   4.739   2.082 -0.1447 -0.7920  0.2110
 2777TIP3    H229891   6.584   4.714   1.948 -0.4111 -0.5317  0.2874
 2778TIP3   OH229892   3.892   1.939   3.149 -0.0674 -0.4103 -0.0238
 2778TIP3    H129893   3.824   1.987   3.101  1.0892  0.9882 -0.3240
 2778TIP3    H229894   3.944   2.007   3.191  0.4989 -1.5095  1.1149
 2779TIP3   OH229895   5.659   6.186   0.617 -0.3190  0.2826 -0.0257
 2779TIP3    H129896   5.590   6.228   0.566 -0.3424  0.1204 -0.1285
 2779TIP3    H229897   5.619   6.170   0.703 -0.5666 -0.2395 -0.2306
 2780TIP3   OH229898   3.417   1.885   2.161  0.3512 -0.3061 -0.3074
 2780TIP3    H129899   3.351   1.922   2.219  1.5211  0.0447  0.8254
 2780TIP3    H229900   3.500   1.919   2.193  1.1230 -0.9050 -1.5802
 2781TIP3   OH229901   0.589   0.023   8.362 -1.2983 -0.1907 -0.0923
 2781TIP3    H129902   0.545  -0.005   8.282 -2.2955 -0.7163  0.6242
 2781TIP3    H229903   0.657  -0.044   8.377 -0.2079  0.6304 -1.2057
 2782TIP3   OH229904   2.249   2.233   7.509 -0.3653  0.0900 -0.4155
 2782TIP3    H129905   2.165   2.260   7.471 -0.4730 -0.8536 -0.8749
 2782TIP3    H229906   2.225   2.166   7.572  0.2087 -2.1249 -2.4134
 2783TIP3   OH229907   3.915   4.928   1.864 -0.2073 -0.2589  0.1180
 2783TIP3    H129908   3.932   4.845   1.907  0.8172 -0.5768 -0.8369
 2783TIP3    H229909   3.894   4.905   1.774 -1.6119  0.4279  0.2503
 2784TIP3   OH229910   4.362   4.991   2.449  0.4725 -0.5262 -0.0912
 2784TIP3    H129911   4.291   5.053   2.462  1.1147  0.1379  0.3108
 2784TIP3    H229912   4.360   4.971   2.355 -0.3745 -0.6921 -0.0474
 2785TIP3   OH229913   4.784   6.427   1.795  0.0353  0.2450 -0.2012
 2785TIP3    H129914   4.839   6.350   1.807  0.1477  0.5581  1.6238
 2785TIP3    H229915   4.728   6.428   1.873 -2.1062  0.3105 -1.6695
 2786TIP3   OH229916   1.805   5.283   8.396 -0.0148 -0.0148 -0.1957
 2786TIP3    H129917   1.772   5.245   8.477 -0.0759 -3.5830 -1.6976
 2786TIP3    H229918   1.896   5.252   8.391 -0.4366 -1.0876 -2.0978
 2787TIP3   OH229919   5.776   0.059   1.891 -0.8501  0.4545 -0.3750
 2787TIP3    H129920   5.816   0.141   1.863 -1.9436  0.6980 -1.2884
 2787TIP3    H229921   5.704   0.086   1.948 -0.0728  0.0429  0.8391
 2788TIP3   OH229922   1.560   3.463   7.834  0.1130 -0.0197  0.1488
 2788TIP3    H129923   1.515   3.382   7.812 -0.4111  0.7571 -1.8412
 2788TIP3    H229924   1.604   3.489   7.753  1.8816  0.6940  1.2836
 2789TIP3   OH229925   2.909   6.432   2.063  0.4669 -1.1281  0.4175
 2789TIP3    H129926   2.983   6.428   2.124  2.0115  0.8148 -1.1507
 2789TIP3    H229927   2.949   6.457   1.980 -1.9319 -0.4000 -0.6023
 2790TIP3   OH229928   3.892   1.888   2.797 -0.0535  0.3207  0.4120
 2790TIP3    H129929   3.842   1.833   2.737  0.2749 -1.5751  1.7936
 2790TIP3    H229930   3.827   1.923   2.858  0.0259 -0.5688  1.0251
 2791TIP3   OH229931   0.139   5.273   7.655 -0.2423  0.1143 -0.6603
 2791TIP3    H129932   0.232   5.276   7.635 -0.9685  1.7121 -4.8028
 2791TIP3    H229933   0.131   5.206   7.723  3.8095 -0.5144 -0.5591
 2792TIP3   OH229934   2.484   1.698   1.199 -0.0582  0.0890  0.0278
 2792TIP3    H129935   2.532   1.682   1.118 -1.0850 -1.1134 -0.3812
 2792TIP3    H229936   2.483   1.794   1.208 -0.0808  0.2591 -1.4751
 2793TIP3   OH229937   1.994   3.711   7.413  0.1238 -0.1913  0.2485
 2793TIP3    H129938   2.017   3.804   7.403  0.7636 -0.3604  0.1021
 2793TIP3    H229939   1.943   3.707   7.494 -2.7112  0.7915 -1.3137
 2794TIP3   OH229940   0.645   0.936   7.526 -0.0081 -0.4791 -0.0535
 2794TIP3    H129941   0.621   1.028   7.518  0.3399 -0.3252  0.6069
 2794TIP3    H229942   0.643   0.919   7.620 -0.6559 -1.3105 -0.2096
 2795TIP3   OH229943   5.214   4.249   8.195  0.0094  0.0807  0.2617
 2795TIP3    H129944   5.280   4.202   8.246 -0.7191 -1.7697 -0.4124
 2795TIP3    H229945   5.146   4.184   8.177 -0.5766  1.1153 -1.5956
 2796TIP3   OH229946   1.884   1.978   0.193  0.0377 -0.0554  0.1308
 2796TIP3    H129947   1.839   1.898   0.168  0.4155 -0.5521  1.0078
 2796TIP3    H229948   1.839   2.007   0.273 -1.0162  1.3876 -0.9278
 2797TIP3   OH229949   3.320   4.889   3.566 -0.0992 -0.5510  0.7425
 2797TIP3    H129950   3.325   4.978   3.600  0.2368 -0.6205  0.8857
 2797TIP3    H229951   3.231   4.880   3.532 -0.4183 -0.4579  1.5328
 2798TIP3   OH229952   4.520   5.187   2.954 -0.2563 -0.4340  0.0848
 2798TIP3    H129953   4.484   5.186   3.043  3.6664 -1.9289  1.8447
 2798TIP3    H229954   4.474   5.115   2.910 -0.8767 -0.9873  1.5332
 2799TIP3   OH229955   1.973   2.229   7.680 -0.0302  0.1907  0.5999
 2799TIP3    H129956   1.895   2.279   7.704 -0.8262 -1.1887  0.9650
 2799TIP3    H229957   1.940   2.144   7.650  1.3333 -0.4645  0.8588
 2800TIP3   OH229958   4.469   0.479   7.923  0.7855 -0.3263 -0.1492
 2800TIP3    H129959   4.438   0.484   7.832 -0.6659  0.7006  0.3481
 2800TIP3    H229960   4.564   0.476   7.916  0.8576  2.3887 -1.6741
 2801TIP3   OH229961   5.064   2.740   1.015  0.3543  0.2243  0.7560
 2801TIP3    H129962   5.153   2.761   0.990  0.3592 -0.8573 -0.2255
 2801TIP3    H229963   5.063   2.645   1.023 -0.7181  0.2168  0.7115
 2802TIP3   OH229964   1.291   0.068   8.272  0.1621 -0.0754 -0.0220
 2802TIP3    H129965   1.317  -0.018   8.239 -2.3503  0.2088 -3.2284
 2802TIP3    H229966   1.229   0.049   8.342 -0.4154 -0.9069 -0.7440
 2803TIP3   OH229967   0.269   6.345   3.158  0.8125 -0.9265  0.6352
 2803TIP3    H129968   0.197   6.368   3.099 -0.7595 -1.7388  2.1711
 2803TIP3    H229969   0.256   6.401   3.234  4.0782  1.7032 -0.4840
 2804TIP3   OH229970   4.288   4.986   1.078  0.1120  0.2971 -0.3706
 2804TIP3    H129971   4.382   4.974   1.087  0.1463  0.9587  0.1655
 2804TIP3    H229972   4.275   5.005   0.985  0.6849  1.7472 -0.1768
 2805TIP3   OH229973   1.280   3.992   2.968  0.2482  0.0034 -0.2950
 2805TIP3    H129974   1.351   4.025   3.024 -0.3899 -1.7571  1.6797
 2805TIP3    H229975   1.302   3.899   2.956 -2.0228 -0.7722  0.9829
 2806TIP3   OH229976   1.037   4.335   1.235  0.3258  0.4541  0.2221
 2806TIP3    H129977   1.093   4.310   1.161  1.1935  2.2588  0.2053
 2806TIP3    H229978   0.962   4.379   1.194  0.6748  1.2124  0.3770
 2807TIP3   OH229979   4.108   4.242   1.022  0.3819 -0.2456  0.3857
 2807TIP3    H129980   4.138   4.199   1.102 -0.0833  0.0565  0.7302
 2807TIP3    H229981   4.166   4.210   0.954  1.3439  0.1531  1.0007
 2808TIP3   OH229982   3.802   1.447   2.740 -0.1224 -0.0844  0.3572
 2808TIP3    H129983   3.843   1.492   2.813  0.0787  1.1159 -0.4623
 2808TIP3    H229984   3.724   1.500   2.720 -2.9145 -2.9254  2.6415
 2809TIP3   OH229985   2.940   1.317   1.600  0.1483 -0.5000 -0.0166
 2809TIP3    H129986   3.026   1.319   1.559 -0.0006 -0.3081 -0.3261
 2809TIP3    H229987   2.956   1.334   1.692  0.2375  1.8006 -0.4076
 2810TIP3   OH229988   2.225   0.428   8.367  0.3963 -0.8121  0.0799
 2810TIP3    H129989   2.145   0.423   8.315  0.0331  1.7885  0.2565
 2810TIP3    H229990   2.294   0.402   8.306 -0.3258 -0.5452 -0.8815
 2811TIP3   OH229991   4.226   2.135   0.938  0.0019 -0.5631 -0.3741
 2811TIP3    H129992   4.294   2.095   0.883  1.0164 -0.7593  0.9671
 2811TIP3    H229993   4.263   2.133   1.026 -0.9232  1.2018  0.0864
 2812TIP3   OH229994   3.401   6.060   1.453  0.7245  0.4194 -0.1673
 2812TIP3    H129995   3.462   6.131   1.472  0.2483  0.8920 -0.3957
 2812TIP3    H229996   3.321   6.103   1.424  0.0792 -0.1672  0.6612
 2813TIP3   OH229997   6.611   1.239   2.466  0.0273  0.3600 -0.3026
 2813TIP3    H129998   6.538   1.298   2.451 -0.0948 -0.1147 -1.7665
 2813TIP3    H229999   6.677   1.292   2.511 -0.6618  1.1791 -0.2441
 2814TIP3   OH230000   5.734   0.982   3.740  0.0234 -0.3218  0.6559
 2814TIP3    H130001   5.779   0.900   3.759  1.4495  0.4305  0.7192
 2814TIP3    H230002   5.794   1.050   3.772 -0.1064  0.8119 -1.3145
 2815TIP3   OH230003   6.328   1.129   0.939  0.5300  0.0841 -0.2268
 2815TIP3    H130004   6.304   1.191   0.871 -1.4252 -1.4446 -1.0359
 2815TIP3    H230005   6.300   1.171   1.021 -0.1452  0.5581 -0.6907
 2816TIP3   OH230006   3.954   2.520   1.928  0.0632  0.5170  0.3258
 2816TIP3    H130007   3.859   2.514   1.921  0.1252  0.1853 -0.2663
 2816TIP3    H230008   3.979   2.582   1.859  0.3049  0.3757  0.2871
 2817TIP3   OH230009   5.626   2.111   2.456  0.2030  0.0480 -0.1008
 2817TIP3    H130010   5.618   2.033   2.511 -0.5118 -0.7786 -1.3247
 2817TIP3    H230011   5.557   2.170   2.488  0.3510 -0.0692  0.4368
 2818TIP3   OH230012   2.288   0.621   0.050 -0.1325  0.2361  0.8193
 2818TIP3    H130013   2.337   0.679  -0.009 -3.9152  2.6990 -0.2951
 2818TIP3    H230014   2.279   0.539   0.002  1.0832  0.4426  0.2008
 2819TIP3   OH230015   4.154   0.079   2.365  0.0936 -0.1061 -0.1937
 2819TIP3    H130016   4.203   0.028   2.301 -0.5435  0.0456 -0.8226
 2819TIP3    H230017   4.073   0.030   2.378 -0.0145  0.1396  0.0939
 2820TIP3   OH230018   6.475   6.006   2.965 -0.3190 -0.2685  0.2632
 2820TIP3    H130019   6.514   5.921   2.984  1.1657  0.5944  1.2296
 2820TIP3    H230020   6.543   6.055   2.920 -0.4521  1.0761  1.4617
 2821TIP3   OH230021   1.966   6.466   7.651 -0.3896 -0.2778  0.5246
 2821TIP3    H130022   1.998   6.508   7.571  0.6326  0.0589  1.0888
 2821TIP3    H230023   1.912   6.533   7.694 -0.3003 -0.1859  0.4950
 2822TIP3   OH230024   0.452   5.123   1.353  0.1509  0.4631 -0.4982
 2822TIP3    H130025   0.455   5.094   1.444 -0.2086  0.7661 -0.3906
 2822TIP3    H230026   0.407   5.053   1.306  0.7950  0.0679 -0.5351
 2823TIP3   OH230027   3.312   0.906   1.368 -0.4918 -0.2253 -0.2886
 2823TIP3    H130028   3.314   0.997   1.338 -0.3762 -0.0323  0.2882
 2823TIP3    H230029   3.401   0.874   1.355 -0.4865 -0.1977 -0.3197
 2824TIP3   OH230030   4.254   6.676   0.030 -0.0569  0.2074 -0.3769
 2824TIP3    H130031   4.218   6.682  -0.059 -0.9312  0.0333 -0.0455
 2824TIP3    H230032   4.348   6.661   0.017 -0.5353 -2.4955 -1.2975
 2825TIP3   OH230033   1.825   0.352   2.628 -0.7420  0.0112  0.3868
 2825TIP3    H130034   1.736   0.322   2.609 -1.1077  1.3698 -0.1656
 2825TIP3    H230035   1.843   0.416   2.560  0.0117  1.0004  1.4795
 2826TIP3   OH230036   3.966   6.920   1.599  0.2799 -0.4288 -0.2552
 2826TIP3    H130037   3.888   6.945   1.650  2.2155  1.8948  1.7921
 2826TIP3    H230038   3.958   6.970   1.518 -0.5401 -0.5120 -0.2350
 2827TIP3   OH230039   2.652   5.524   0.406  0.1505  0.6345  0.3127
 2827TIP3    H130040   2.717   5.489   0.344 -0.0172 -1.8185  1.4181
 2827TIP3    H230041   2.699   5.592   0.454  1.1978  0.4707 -0.4438
 2828TIP3   OH230042   3.450   2.874   0.244  0.3522  0.2559 -0.3573
 2828TIP3    H130043   3.524   2.899   0.190  1.7807 -2.4660  0.1566
 2828TIP3    H230044   3.462   2.922   0.326  1.0367  0.5339 -0.6200
 2829TIP3   OH230045   0.669   6.062   0.170  0.0595 -0.7087  0.4939
 2829TIP3    H130046   0.716   6.129   0.221  0.9274 -2.2288  1.8007
 2829TIP3    H230047   0.739   6.014   0.125 -0.6490  0.1350 -1.6448
 2830TIP3   OH230048   0.540   2.831   0.397  0.0708  0.4317  0.2789
 2830TIP3    H130049   0.469   2.804   0.455  0.6034  0.0407  0.7584
 2830TIP3    H230050   0.543   2.927   0.404  0.5142  0.3515  1.3652
 2831TIP3   OH230051   5.099   0.155   2.594 -0.6222  0.0437 -0.0712
 2831TIP3    H130052   5.116   0.075   2.645  1.3926 -0.4248 -1.3583
 2831TIP3    H230053   5.184   0.179   2.559 -1.6311  1.3664 -1.7525
 2832TIP3   OH230054   1.073   0.942   8.284  0.0520 -0.5736  0.4478
 2832TIP3    H130055   1.125   0.957   8.363  0.2179  1.0187  0.0599
 2832TIP3    H230056   1.029   0.858   8.300  1.7721 -1.3658  1.2906
 2833TIP3   OH230057   1.357   1.252   1.077  0.0971 -0.2484 -0.2749
 2833TIP3    H130058   1.376   1.342   1.103  0.6747  0.2205 -2.1695
 2833TIP3    H230059   1.319   1.259   0.990 -2.0402 -1.7129  0.4402
 2834TIP3   OH230060   2.079   6.300   7.894  0.1110 -0.0883 -0.5047
 2834TIP3    H130061   2.061   6.391   7.917  0.3255 -0.5112  1.5431
 2834TIP3    H230062   2.017   6.280   7.825 -0.3590  1.4334 -0.5617
 2835TIP3   OH230063   1.082   4.141   1.811 -0.6971 -0.5674 -0.1830
 2835TIP3    H130064   1.170   4.140   1.851 -0.6240 -0.6226 -0.3438
 2835TIP3    H230065   1.098   4.122   1.719 -1.0788 -3.0818  0.1864
 2836TIP3   OH230066   5.795   0.223   0.924  0.0428  0.0707 -0.2122
 2836TIP3    H130067   5.824   0.137   0.955 -0.5291  0.0939  0.4382
 2836TIP3    H230068   5.778   0.272   1.005 -0.8486  0.3690 -0.5696
 2837TIP3   OH230069   4.094   4.319   2.074  0.7063 -0.5220 -0.6759
 2837TIP3    H130070   4.088   4.413   2.054 -1.8975 -0.6303 -0.7211
 2837TIP3    H230071   4.087   4.315   2.170 -0.0128 -0.6915 -0.7296
 2838TIP3   OH230072   3.519   0.391   2.769 -0.5675  0.2220  0.2877
 2838TIP3    H130073   3.610   0.373   2.790 -0.7754  0.3447  1.3309
 2838TIP3    H230074   3.485   0.308   2.737 -0.2765 -0.0074  0.5735
 2839TIP3   OH230075   3.159   4.166   1.113 -0.3705  0.1334  0.4110
 2839TIP3    H130076   3.080   4.220   1.103 -2.4907 -2.6287  0.9726
 2839TIP3    H230077   3.137   4.083   1.070  2.6468 -0.4295 -0.2713
 2840TIP3   OH230078   2.915   4.207   3.161  0.4520  0.0731  0.8273
 2840TIP3    H130079   2.913   4.171   3.072  2.6512  0.2509  0.6560
 2840TIP3    H230080   2.825   4.239   3.175 -0.6062 -2.1292 -0.3654
 2841TIP3   OH230081   0.132   5.966   1.259  0.2367 -0.1877 -0.4219
 2841TIP3    H130082   0.175   5.927   1.335 -1.2893  1.2003  1.2311
 2841TIP3    H230083   0.106   5.891   1.205 -1.0813 -1.4199  1.7996
 2842TIP3   OH230084   6.241   1.740   2.464  0.6583 -0.1396  0.0980
 2842TIP3    H130085   6.183   1.719   2.537  0.8025 -0.4504  0.1270
 2842TIP3    H230086   6.211   1.825   2.432 -0.2898 -0.6458 -0.3732
 2843TIP3   OH230087   3.565   4.187   2.440  0.0837  0.2199  0.5049
 2843TIP3    H130088   3.523   4.273   2.445  0.2158  0.4179 -1.3798
 2843TIP3    H230089   3.657   4.204   2.462  0.1176  0.5671  0.0892
 2844TIP3   OH230090   6.712   4.005   0.315 -0.4977 -0.3689 -0.4592
 2844TIP3    H130091   6.716   4.002   0.411 -2.0461 -0.6576 -0.3912
 2844TIP3    H230092   6.801   4.030   0.289 -0.8368  3.1431  1.1741
 2845TIP3   OH230093   0.074   5.113   0.104 -0.2139 -1.0544  0.6001
 2845TIP3    H130094   0.163   5.087   0.079 -0.4762 -1.5347  0.1399
 2845TIP3    H230095   0.085   5.163   0.185  0.5738 -0.3103  0.0554
 2846TIP3   OH230096   3.551   4.817   0.981 -0.0318 -0.2847 -0.0993
 2846TIP3    H130097   3.541   4.825   1.076 -0.4672  0.8660 -0.2241
 2846TIP3    H230098   3.646   4.818   0.967  0.0584 -1.1778  0.3581
 2847TIP3   OH230099   5.340   4.199   8.481 -0.3083 -0.2077 -0.3606
 2847TIP3    H130100   5.426   4.209   8.522 -0.6285  1.1469  0.0449
 2847TIP3    H230101   5.311   4.289   8.465 -1.2999 -0.6655 -1.2473
 2848TIP3   OH230102   2.784   3.174   1.335 -0.2036  0.3421  0.4141
 2848TIP3    H130103   2.767   3.149   1.245  0.7769 -2.9910  1.0114
 2848TIP3    H230104   2.776   3.092   1.385 -0.9553  2.0813  3.4220
 2849TIP3   OH230105   2.932   6.812   7.959 -0.1644 -0.3934 -0.6048
 2849TIP3    H130106   2.925   6.889   7.903  0.2070 -1.4798 -2.1992
 2849TIP3    H230107   3.019   6.778   7.942 -0.3123 -1.1654  0.1076
 2850TIP3   OH230108   4.896   3.704   3.024  0.2537 -0.6755 -0.6431
 2850TIP3    H130109   4.842   3.650   2.966 -0.3694 -0.3870 -0.3427
 2850TIP3    H230110   4.841   3.718   3.101 -0.5999  2.4049 -1.6765
 2851TIP3   OH230111   1.576   3.018   1.478 -0.3888  0.5942 -0.6977
 2851TIP3    H130112   1.655   2.973   1.449  1.0259  0.9972  2.1904
 2851TIP3    H230113   1.605   3.072   1.552 -3.4140  0.4967  0.6871
 2852TIP3   OH230114   1.491   6.810   1.124 -0.4604 -0.0305  0.6976
 2852TIP3    H130115   1.570   6.758   1.108 -0.9673 -0.7787  0.5513
 2852TIP3    H230116   1.470   6.848   1.038 -0.1608  0.3287  0.7779
 2853TIP3   OH230117   6.464   1.860   3.065  0.2642  0.0161  0.1892
 2853TIP3    H130118   6.468   1.766   3.052  0.3268  0.2918 -2.2015
 2853TIP3    H230119   6.547   1.883   3.107  1.6471 -0.6479 -2.0462
 2854TIP3   OH230120   4.285   5.421   3.486  0.4317  0.0295 -0.2379
 2854TIP3    H130121   4.230   5.348   3.514  0.8269 -0.3032 -0.3223
 2854TIP3    H230122   4.273   5.487   3.554 -0.8541  0.3628 -0.7695
 2855TIP3   OH230123   2.783   2.133   2.500  0.4520 -0.2770 -0.1392
 2855TIP3    H130124   2.717   2.173   2.555  0.3904  0.2683 -0.5959
 2855TIP3    H230125   2.802   2.049   2.542 -0.7716 -0.5990 -0.1879
 2856TIP3   OH230126   3.866   1.276   2.160 -0.3899 -0.5381 -0.0680
 2856TIP3    H130127   3.837   1.294   2.071 -0.2658 -0.2575 -0.0529
 2856TIP3    H230128   3.957   1.306   2.162 -0.4619 -0.3292  0.2159
 2857TIP3   OH230129   3.769   1.212   0.048  0.4286 -0.3272  0.2134
 2857TIP3    H130130   3.749   1.199  -0.045  0.1572  4.0861 -0.5541
 2857TIP3    H230131   3.687   1.242   0.087  1.9386  5.2584 -0.0712
 2858TIP3   OH230132   3.887   6.084   0.875  0.7189 -0.0561 -0.3012
 2858TIP3    H130133   3.913   6.128   0.955  0.7453  0.7089 -0.7240
 2858TIP3    H230134   3.874   6.154   0.811 -0.6552 -0.5392 -0.5945
 2859TIP3   OH230135   2.503   5.713   2.181  0.1843  0.4482 -0.1645
 2859TIP3    H130136   2.417   5.732   2.218  0.0304 -0.3143 -0.1208
 2859TIP3    H230137   2.501   5.619   2.161  0.1222  0.8747 -2.4347
 2860TIP3   OH230138   3.884   1.319   7.991 -0.1935  0.0596  0.3065
 2860TIP3    H130139   3.973   1.332   7.957  0.1445 -1.1635  0.6871
 2860TIP3    H230140   3.856   1.237   7.953 -1.8410  1.2249 -1.1404
 2861TIP3   OH230141   1.959   4.504   0.498 -0.3189  0.0481  0.2225
 2861TIP3    H130142   1.883   4.447   0.489  0.6194 -1.3029  0.4733
 2861TIP3    H230143   1.972   4.542   0.411  0.0793 -1.5425 -0.4467
 2862TIP3   OH230144   1.063   4.023   0.380  0.2923 -0.5216  0.0491
 2862TIP3    H130145   1.127   3.969   0.333 -0.7383  0.8721 -3.2524
 2862TIP3    H230146   0.983   3.971   0.378  0.3500 -0.6439  0.7238
 2863TIP3   OH230147   0.130   4.953   3.232  0.6176  0.3087 -0.0267
 2863TIP3    H130148   0.055   4.988   3.280 -1.4558 -1.0917 -2.0385
 2863TIP3    H230149   0.157   4.876   3.281 -0.4140 -0.1626 -0.1740
 2864TIP3   OH230150   0.725   2.727   2.100 -0.3752  0.2177  0.6371
 2864TIP3    H130151   0.649   2.746   2.044  0.1481 -0.2305 -0.2481
 2864TIP3    H230152   0.797   2.776   2.060 -0.0139 -0.0299  0.9791
 2865TIP3   OH230153   2.437   5.640   0.278 -0.2302  0.0243 -0.1717
 2865TIP3    H130154   2.399   5.691   0.349 -1.2789 -0.7828 -0.1345
 2865TIP3    H230155   2.509   5.592   0.318  0.8540  1.5190 -0.2313
 2866TIP3   OH230156   1.074   4.087   0.017 -0.7279  0.1401  0.6725
 2866TIP3    H130157   1.036   4.127   0.095 -1.1814 -0.6113  0.8363
 2866TIP3    H230158   1.021   4.120  -0.056 -1.3017 -0.4138  0.8391
 2867TIP3   OH230159   5.259   2.339   1.563  0.1559 -0.0271  0.6372
 2867TIP3    H130160   5.294   2.255   1.590  0.6402  0.1405  0.5366
 2867TIP3    H230161   5.284   2.347   1.471  1.0068  0.6794  0.9194
 2868TIP3   OH230162   1.135   1.948   8.187  0.2812 -0.2184 -0.0414
 2868TIP3    H130163   1.216   1.996   8.203 -0.5814  1.1911  0.2258
 2868TIP3    H230164   1.152   1.860   8.221  0.9523  0.6651  2.0358
 2869TIP3   OH230165   0.708   3.879   2.749  0.0998 -0.1250  0.2453
 2869TIP3    H130166   0.689   3.789   2.776  0.2154 -0.6879 -1.3926
 2869TIP3    H230167   0.802   3.889   2.762 -0.1474  0.3072  1.8697
 2870TIP3   OH230168   3.975   2.252   2.871  0.2799  0.1924  0.1114
 2870TIP3    H130169   4.058   2.248   2.825  0.7501 -0.1824  0.9816
 2870TIP3    H230170   3.991   2.309   2.947 -0.2170  0.0013  0.3691
 2871TIP3   OH230171   1.275   5.760   2.830 -0.6543 -0.1837 -0.0578
 2871TIP3    H130172   1.184   5.789   2.834 -0.4169  0.6192 -0.3780
 2871TIP3    H230173   1.293   5.724   2.917 -0.6264  1.6339  0.7320
 2872TIP3   OH230174   0.365   1.434   1.889  0.1361  0.2596  0.0694
 2872TIP3    H130175   0.382   1.421   1.982 -1.3014  1.9631  0.6065
 2872TIP3    H230176   0.387   1.525   1.872  0.4306 -0.0318 -1.2933
 2873TIP3   OH230177   3.260   1.496   0.259  0.0844 -0.1694 -0.6289
 2873TIP3    H130178   3.281   1.442   0.335  1.0215  0.8194 -0.1614
 2873TIP3    H230179   3.210   1.569   0.294  0.6659  0.3840 -0.9206
 2874TIP3   OH230180   2.762   1.872   2.065  0.1296 -0.5156  0.5597
 2874TIP3    H130181   2.736   1.943   2.124  0.6723  1.0374 -0.9791
 2874TIP3    H230182   2.758   1.794   2.119 -1.7415  0.4805  1.9944
 2875TIP3   OH230183   4.770   4.979   1.610 -0.5340  0.0653 -0.6060
 2875TIP3    H130184   4.803   5.036   1.678 -2.5503 -0.0498  0.5417
 2875TIP3    H230185   4.777   4.891   1.647  0.6225 -0.2583 -1.5411
 2876TIP3   OH230186   4.651   5.720   2.704  0.0311 -0.4107 -0.3525
 2876TIP3    H130187   4.627   5.630   2.682 -0.1971 -0.1213 -1.3278
 2876TIP3    H230188   4.708   5.711   2.781 -2.0518 -1.2129  1.1790
 2877TIP3   OH230189   0.601   2.754   7.466  0.1383 -0.1316  0.4504
 2877TIP3    H130190   0.599   2.661   7.488 -0.8197 -0.5247 -1.0748
 2877TIP3    H230191   0.681   2.765   7.415 -0.5104 -0.5077 -0.7062
 2878TIP3   OH230192   0.139   6.631   1.313 -0.3128 -0.9078 -0.2773
 2878TIP3    H130193   0.155   6.544   1.349  0.0697 -0.1423  1.4743
 2878TIP3    H230194   0.220   6.653   1.267  0.4846 -0.5789  1.2154
 2879TIP3   OH230195   0.081   2.104   1.412 -0.1104 -0.6207 -0.1412
 2879TIP3    H130196   0.057   2.080   1.501 -1.4174  1.5382  0.1602
 2879TIP3    H230197   0.029   2.045   1.357 -0.5888 -0.8271  0.5244
 2880TIP3   OH230198   6.020   0.140   0.623 -0.2681 -0.2693  0.8228
 2880TIP3    H130199   6.057   0.190   0.550 -0.8281 -1.1086 -0.0666
 2880TIP3    H230200   6.043   0.190   0.701 -0.4310  1.1341  0.0002
 2881TIP3   OH230201   4.623   4.715   2.476 -0.0303  0.1870 -0.1269
 2881TIP3    H130202   4.655   4.770   2.548  1.4317 -2.0276  1.0289
 2881TIP3    H230203   4.539   4.680   2.507  1.0941 -1.6198  1.0844
 2882TIP3   OH230204   0.005   3.887   0.168  0.5190  0.3415 -0.3094
 2882TIP3    H130205  -0.008   3.797   0.140  3.6932 -0.6390  0.9405
 2882TIP3    H230206  -0.042   3.940   0.103 -2.3437 -2.1391 -0.4853
 2883TIP3   OH230207   0.809   2.673   2.510  0.1465 -0.0051  0.0709
 2883TIP3    H130208   0.887   2.708   2.553  0.4340  0.1262 -0.5466
 2883TIP3    H230209   0.839   2.649   2.422 -0.8046  1.3074 -0.6515
 2884TIP3   OH230210   3.400   3.517   3.162  0.0447 -0.2512  0.2076
 2884TIP3    H130211   3.414   3.424   3.144  0.3644 -0.0260 -0.7695
 2884TIP3    H230212   3.375   3.520   3.254  3.7726 -0.9516  1.4211
 2885TIP3   OH230213   6.891   0.993   8.349 -0.1719 -0.3090 -0.1127
 2885TIP3    H130214   6.906   0.899   8.364 -0.7936 -1.0314 -3.2737
 2885TIP3    H230215   6.920   1.008   8.259 -1.0816  2.2962 -0.0507
 2886TIP3   OH230216   5.404   6.427   3.825 -0.0319  0.2815 -0.1305
 2886TIP3    H130217   5.337   6.474   3.874 -2.8384 -0.4193 -2.9459
 2886TIP3    H230218   5.411   6.342   3.868 -0.7099  0.4835  0.3926
 2887TIP3   OH230219   6.033   4.740   8.446 -0.4614  0.5596 -0.6097
 2887TIP3    H130220   5.947   4.735   8.404 -1.2353 -2.1368  1.0286
 2887TIP3    H230221   6.051   4.651   8.473  2.3710  1.2745  0.1417
 2888TIP3   OH230222   1.489   0.473   7.306  0.2215  0.4046  0.1121
 2888TIP3    H130223   1.572   0.520   7.316  1.2428 -1.3453  0.3390
 2888TIP3    H230224   1.427   0.539   7.277  2.1488  1.4056 -2.0305
 2889TIP3   OH230225   5.318   6.792   2.881 -0.3233  0.3742 -0.2591
 2889TIP3    H130226   5.324   6.699   2.859  1.4915  0.7163 -1.4537
 2889TIP3    H230227   5.362   6.799   2.966 -2.9096 -0.2050  1.2292
 2890TIP3   OH230228   3.727   4.446   3.296  0.3948 -0.4639 -0.4273
 2890TIP3    H130229   3.696   4.520   3.243  0.6928 -1.0219 -1.4051
 2890TIP3    H230230   3.651   4.388   3.301 -0.2798  0.4977  1.4975
 2891TIP3   OH230231   2.271   2.195   8.249  0.6799  0.8192 -0.3343
 2891TIP3    H130232   2.359   2.218   8.220  0.1945  1.9940 -0.9441
 2891TIP3    H230233   2.220   2.275   8.236 -0.7969 -0.2270 -1.3357
 2892TIP3   OH230234   1.838   4.603   1.411 -0.0899 -0.0767 -0.3878
 2892TIP3    H130235   1.786   4.673   1.371 -2.6844 -1.2272  0.7481
 2892TIP3    H230236   1.792   4.583   1.493  2.0917 -1.3261  0.6136
 2893TIP3   OH230237   0.450   2.637   1.727 -0.6637 -0.2166 -0.3551
 2893TIP3    H130238   0.533   2.589   1.733  0.0419  0.7305 -1.9793
 2893TIP3    H230239   0.384   2.573   1.754  0.5391 -1.1473  0.4836
 2894TIP3   OH230240   5.903   2.598   8.237  0.5989  0.7349  0.3532
 2894TIP3    H130241   5.884   2.511   8.204 -0.6777  0.7580  0.9848
 2894TIP3    H230242   5.923   2.650   8.158 -0.0819  0.2281 -0.1613
 2895TIP3   OH230243   3.520   0.712   2.814 -0.1996 -0.5772  0.2666
 2895TIP3    H130244   3.607   0.751   2.809 -0.4943  0.2713  1.3925
 2895TIP3    H230245   3.493   0.701   2.723  0.1901  1.2208 -0.0942
 2896TIP3   OH230246   0.161   3.764   1.118  0.0444  0.4038 -0.2815
 2896TIP3    H130247   0.207   3.701   1.173 -0.6052  1.0091  1.0110
 2896TIP3    H230248   0.183   3.739   1.028 -0.7179 -2.0677  0.1390
 2897TIP3   OH230249   1.623   5.596   0.399  0.5601  0.7405 -0.2196
 2897TIP3    H130250   1.574   5.599   0.317  0.9224 -0.8767 -0.5292
 2897TIP3    H230251   1.709   5.561   0.375  0.4425 -0.4160  0.9176
 2898TIP3   OH230252   5.675   3.043   0.083 -0.4074 -0.5470 -0.2022
 2898TIP3    H130253   5.678   3.025  -0.011 -2.3274 -1.8431 -0.0507
 2898TIP3    H230254   5.584   3.066   0.101 -0.2868 -1.2571  1.5031
 2899TIP3   OH230255   2.162   0.421   1.590  0.0422  0.0609 -0.4624
 2899TIP3    H130256   2.101   0.356   1.554 -0.8381  1.9005 -2.4942
 2899TIP3    H230257   2.117   0.455   1.667 -0.9195  0.4026 -1.1471
 2900TIP3   OH230258   5.421   5.941   0.228 -0.4577  0.0913  0.0740
 2900TIP3    H130259   5.356   5.918   0.163 -0.6592 -1.3147  0.7357
 2900TIP3    H230260   5.494   5.882   0.212  0.7616  1.7122 -0.7254
 2901TIP3   OH230261   0.245   3.390   0.536  0.3600 -0.2216 -0.4697
 2901TIP3    H130262   0.167   3.421   0.582 -0.0738 -1.1243 -0.5766
 2901TIP3    H230263   0.280   3.320   0.592  1.1813  0.2785 -0.3496
 2902TIP3   OH230264   4.727   6.021   1.177 -0.2440  0.3719  0.0924
 2902TIP3    H130265   4.783   6.004   1.253 -0.5303 -2.2561 -0.1704
 2902TIP3    H230266   4.642   6.043   1.214  0.4045  2.4415  0.4822
 2903TIP3   OH230267   3.113   4.363   1.874  0.7984  0.4909 -0.5231
 2903TIP3    H130268   3.039   4.310   1.844  0.5612 -0.2395  1.2712
 2903TIP3    H230269   3.190   4.313   1.850  0.6705  0.5067 -0.9865
 2904TIP3   OH230270   5.947   0.554   2.432  0.3927 -0.1872 -0.2591
 2904TIP3    H130271   5.942   0.547   2.337  0.0000 -2.0367 -0.1407
 2904TIP3    H230272   5.975   0.467   2.461  0.6350  0.3822  1.3168
 2905TIP3   OH230273   0.566   2.999   1.119  0.3210  0.2226 -0.6552
 2905TIP3    H130274   0.582   2.904   1.118 -0.4583  0.0620  0.3719
 2905TIP3    H230275   0.524   3.015   1.203  0.0188  1.4174 -1.0163
 2906TIP3   OH230276   2.222   4.171   1.476  0.2628 -0.6201  0.4213
 2906TIP3    H130277   2.146   4.224   1.451 -0.5187 -0.2290  3.2985
 2906TIP3    H230278   2.215   4.092   1.422 -1.5807 -0.1269 -0.1318
 2907TIP3   OH230279   5.924   4.825   0.944  0.4806  0.0452  0.2115
 2907TIP3    H130280   5.880   4.798   1.025  2.6584 -1.1977  1.0675
 2907TIP3    H230281   5.987   4.892   0.972  1.1257 -0.2588 -0.4758
 2908TIP3   OH230282   5.856   3.168   0.809  0.7615 -0.8635  0.2600
 2908TIP3    H130283   5.866   3.073   0.800 -0.1170 -1.1320  1.8310
 2908TIP3    H230284   5.866   3.185   0.903 -1.1135  0.3228  0.2975
 2909TIP3   OH230285   6.838   3.642   0.135  0.0473 -0.8597  0.0263
 2909TIP3    H130286   6.757   3.645   0.186 -1.5333 -2.2450 -2.2500
 2909TIP3    H230287   6.812   3.670   0.047  1.8260 -2.3353 -1.0293
 2910TIP3   OH230288   2.018   0.286   1.180 -0.1905  0.1748 -0.2676
 2910TIP3    H130289   2.032   0.192   1.170 -1.4730  0.0802 -1.4726
 2910TIP3    H230290   2.094   0.316   1.230  0.1560 -1.5159  0.2988
 2911TIP3   OH230291   0.099   4.911   2.948  0.9401  0.0965  0.4158
 2911TIP3    H130292   0.122   4.938   3.037 -2.0605 -1.0465  1.6625
 2911TIP3    H230293   0.049   4.984   2.912  0.1818 -0.3402  0.5605
 2912TIP3   OH230294   5.517   0.501   1.046  0.1250 -0.1686 -0.2176
 2912TIP3    H130295   5.461   0.569   1.010  0.4377  0.2604  0.0938
 2912TIP3    H230296   5.501   0.424   0.990 -3.1451 -1.0920  1.7211
 2913TIP3   OH230297   2.644   4.165   0.922  0.3937 -0.0882 -0.1034
 2913TIP3    H130298   2.580   4.095   0.936 -0.3204  0.8996  2.1764
 2913TIP3    H230299   2.602   4.224   0.860  0.0146 -0.5469 -0.2885
 2914TIP3   OH230300   6.009   0.623   8.233  0.2540 -0.2744  0.6343
 2914TIP3    H130301   5.976   0.545   8.188 -0.0295 -0.4216  1.0964
 2914TIP3    H230302   6.046   0.677   8.163 -0.6670 -0.2555  0.1492
 2915TIP3   OH230303   2.433   3.138   2.626 -0.2418 -0.2077  0.2587
 2915TIP3    H130304   2.446   3.090   2.544 -1.3066 -1.3243  0.7215
 2915TIP3    H230305   2.501   3.103   2.684 -0.3223 -0.3570  0.2625
 2916TIP3   OH230306   5.048   3.907   1.872  0.6883  0.0402 -0.4748
 2916TIP3    H130307   5.108   3.894   1.798  0.3951 -1.5571 -0.4727
 2916TIP3    H230308   5.102   3.945   1.941  1.7561 -1.4326 -0.4447
 2917TIP3   OH230309   4.335   0.294   0.579 -0.4141  0.3921  0.3094
 2917TIP3    H130310   4.349   0.334   0.493 -0.4712  0.5011  0.3513
 2917TIP3    H230311   4.323   0.368   0.639  1.2354  0.3897  0.7000
 2918TIP3   OH230312   0.706   1.068   2.084  0.0981 -0.0871 -0.4600
 2918TIP3    H130313   0.697   1.021   2.001 -1.9887 -0.4039 -0.1228
 2918TIP3    H230314   0.717   1.159   2.059  0.0633 -0.2529 -1.0974
 2919TIP3   OH230315   4.931   4.749   2.088 -0.5182  0.0237 -0.1015
 2919TIP3    H130316   4.945   4.659   2.118  0.8660  0.3179  0.2134
 2919TIP3    H230317   4.891   4.793   2.163 -1.4433 -0.3657 -0.3432
 2920TIP3   OH230318   5.752   0.780   8.067  0.0524  0.4105  0.7941
 2920TIP3    H130319   5.717   0.716   8.129  0.0752 -0.2326  0.1575
 2920TIP3    H230320   5.784   0.727   7.994  0.4940  1.1257  0.4647
 2921TIP3   OH230321   1.371   1.645   1.432 -0.4026 -0.5998 -0.3911
 2921TIP3    H130322   1.389   1.731   1.470 -1.7966  0.1686 -1.3482
 2921TIP3    H230323   1.345   1.590   1.506  1.1768 -0.4160  0.3272
 2922TIP3   OH230324   2.167   0.727   7.899 -0.4260  0.4659  0.6286
 2922TIP3    H130325   2.126   0.698   7.817 -1.7236 -0.1167  1.4564
 2922TIP3    H230326   2.242   0.669   7.909 -1.9645 -1.5125  1.3371
 2923TIP3   OH230327   1.779   5.231   2.539 -0.3762  0.3749  0.2603
 2923TIP3    H130328   1.857   5.233   2.484  0.7290 -2.1159  1.5534
 2923TIP3    H230329   1.735   5.314   2.522  3.2454  2.5360  0.4431
 2924TIP3   OH230330   3.805   2.263   1.712  0.0291 -0.2928  0.3251
 2924TIP3    H130331   3.810   2.297   1.801 -0.0818 -0.3884  0.3684
 2924TIP3    H230332   3.711   2.247   1.698  0.0847 -0.6075  0.3144
 2925TIP3   OH230333   2.605   6.797   7.872  0.1557 -0.7713  0.1362
 2925TIP3    H130334   2.536   6.753   7.822 -0.1207 -1.2238  0.9013
 2925TIP3    H230335   2.559   6.866   7.921  0.0837 -1.5966  1.2844
 2926TIP3   OH230336   0.623   0.516   2.037  0.0985  0.1175  0.0830
 2926TIP3    H130337   0.530   0.516   2.058  0.3131  0.5933  1.1331
 2926TIP3    H230338   0.666   0.500   2.121  0.9748  0.2620 -0.3257
 2927TIP3   OH230339   2.251   0.019   0.600  0.0973 -0.4856  0.0348
 2927TIP3    H130340   2.288   0.092   0.549  2.7980 -1.0507  0.9951
 2927TIP3    H230341   2.327  -0.019   0.646 -1.2266 -3.7271 -0.1855
 2928TIP3   OH230342   3.943   3.661   1.603 -0.2223  0.6050  0.3560
 2928TIP3    H130343   4.011   3.598   1.628 -0.9333 -0.0055  0.7684
 2928TIP3    H230344   3.980   3.706   1.527  0.1981 -0.4944 -0.1180
 2929TIP3   OH230345   2.028   1.904   8.254 -0.4594 -0.1580  0.3066
 2929TIP3    H130346   1.998   1.815   8.270 -1.2462  0.1789  0.7217
 2929TIP3    H230347   1.949   1.958   8.259  0.0263  0.5787  0.1855
 2930TIP3   OH230348   1.568   0.836   0.441  1.0005  0.1037  0.1568
 2930TIP3    H130349   1.618   0.755   0.435 -0.2498 -0.6206 -1.0199
 2930TIP3    H230350   1.489   0.813   0.489  1.1650  0.9307  0.8612
 2931TIP3   OH230351   0.250   5.183   2.331  0.0147  0.1784  0.0418
 2931TIP3    H130352   0.160   5.210   2.315 -0.3495 -1.7643 -1.5833
 2931TIP3    H230353   0.246   5.137   2.415 -0.5948 -0.1837 -0.1766
 2932TIP3   OH230354   1.499   2.435   8.241  0.1346 -0.3257 -0.3829
 2932TIP3    H130355   1.584   2.398   8.265 -0.9255 -2.4078  0.4383
 2932TIP3    H230356   1.483   2.404   8.152  0.0477 -0.3246 -0.3680
 2933TIP3   OH230357   3.526   5.226   0.872 -0.0209  0.0649  0.3464
 2933TIP3    H130358   3.517   5.214   0.967 -0.0585 -1.7929  0.1360
 2933TIP3    H230359   3.474   5.305   0.854  1.0635  1.2540  2.0187
 2934TIP3   OH230360   4.732   0.303   0.352  0.0886  0.1034  0.1087
 2934TIP3    H130361   4.781   0.296   0.270  2.3564  0.4800  1.3427
 2934TIP3    H230362   4.710   0.396   0.359 -0.6737 -0.0314 -0.3424
 2935TIP3   OH230363   3.966   2.290   0.619 -0.2176  0.4374 -0.0429
 2935TIP3    H130364   4.009   2.311   0.702 -0.0147  1.1819 -0.3269
 2935TIP3    H230365   3.879   2.261   0.644 -0.2557  0.9267  0.4213
 2936TIP3   OH230366   3.629   6.073   7.992  0.1439 -0.1850 -0.0148
 2936TIP3    H130367   3.589   5.986   7.996  0.0039 -0.0770  1.3546
 2936TIP3    H230368   3.597   6.117   8.070 -0.1838  1.2931 -0.9476
 2937TIP3   OH230369   6.940   5.808   0.846  0.1991  0.8276  0.6074
 2937TIP3    H130370   6.995   5.803   0.768  0.2486  0.4405  0.6655
 2937TIP3    H230371   6.931   5.901   0.864  0.7297  0.8932  0.5232
 2938TIP3   OH230372   4.801   5.299   3.203 -0.2256 -0.5217  0.5096
 2938TIP3    H130373   4.861   5.252   3.261 -0.1983 -0.9578  0.1253
 2938TIP3    H230374   4.835   5.389   3.201  1.5119 -1.1611 -1.1534
 2939TIP3   OH230375   6.297   3.682   0.242 -0.3451 -0.3503 -0.2263
 2939TIP3    H130376   6.235   3.624   0.198 -0.0784 -0.7419 -0.1014
 2939TIP3    H230377   6.252   3.709   0.322  0.2418 -1.9760  0.7182
 2940TIP3   OH230378   4.013   2.696   1.709 -0.6875 -0.5544  0.2773
 2940TIP3    H130379   3.955   2.700   1.633 -0.0016  0.9706 -0.2002
 2940TIP3    H230380   4.034   2.787   1.728  0.3568 -0.9962  1.3756
 2941TIP3   OH230381   0.120   6.348   1.396 -0.1860 -0.4557  0.2165
 2941TIP3    H130382   0.203   6.339   1.349 -0.8361 -0.5618 -0.9630
 2941TIP3    H230383   0.060   6.289   1.350 -0.3232 -2.3412  2.5849
 2942TIP3   OH230384   4.727   4.095   0.698 -0.4958 -0.0346 -0.5797
 2942TIP3    H130385   4.657   4.142   0.742  1.1334  1.6638  0.3674
 2942TIP3    H230386   4.683   4.042   0.631 -2.5614  1.9408 -0.8975
 2943TIP3   OH230387   6.810   3.493   3.840  0.5789 -0.1995 -0.0792
 2943TIP3    H130388   6.740   3.554   3.815 -0.5442 -1.4598 -0.1189
 2943TIP3    H230389   6.769   3.407   3.835  1.8084 -0.8830  1.0712
 2944TIP3   OH230390   1.658   6.429   1.399  0.9179  0.1209  0.3165
 2944TIP3    H130391   1.692   6.414   1.311  1.3847  1.4978  0.2421
 2944TIP3    H230392   1.576   6.476   1.386  1.1685  0.6498  0.6186
 2945TIP3   OH230393   0.639   0.889   1.630 -0.6735 -0.2865 -0.6054
 2945TIP3    H130394   0.714   0.915   1.577 -0.1304  0.0689  0.3048
 2945TIP3    H230395   0.566   0.882   1.568  0.1321 -0.7593 -1.5177
 2946TIP3   OH230396   3.405   1.766   8.028 -0.1127  0.4848  0.0296
 2946TIP3    H130397   3.332   1.811   7.986 -0.4870  1.0676  1.2598
 2946TIP3    H230398   3.461   1.738   7.956 -2.1390 -1.0339 -1.0487
 2947TIP3   OH230399   4.091   4.018   2.956 -0.7888  0.0149  0.1910
 2947TIP3    H130400   4.007   4.013   3.002 -1.4060  3.1489 -0.3971
 2947TIP3    H230401   4.131   4.099   2.987  1.0387 -0.3198 -1.1350
 2948TIP3   OH230402   5.241   2.931   3.211  0.0674  0.0601 -0.0647
 2948TIP3    H130403   5.289   2.976   3.281 -0.7322  0.3594  0.3006
 2948TIP3    H230404   5.168   2.990   3.190 -0.0903 -0.3457 -0.6782
 2949TIP3   OH230405   1.959   1.143   2.451 -0.2020 -0.7279  0.0838
 2949TIP3    H130406   1.876   1.102   2.425 -0.9217  0.5040  0.3013
 2949TIP3    H230407   2.004   1.076   2.502 -0.7219 -1.6805 -0.6616
 2950TIP3   OH230408   6.057   5.726   2.946  0.7833  0.7070  0.0448
 2950TIP3    H130409   6.073   5.710   3.039  1.6138  0.9978 -0.0420
 2950TIP3    H230410   6.128   5.680   2.901 -0.1299 -0.2181 -0.5039
 2951TIP3   OH230411   5.541   6.483   2.534 -0.6986  0.0388  0.3205
 2951TIP3    H130412   5.456   6.514   2.569 -1.5910  0.1141 -1.7853
 2951TIP3    H230413   5.527   6.390   2.517 -0.7483  0.2937 -1.0871
 2952TIP3   OH230414   2.932   3.360   2.587 -0.3239 -0.4209 -0.4511
 2952TIP3    H130415   2.941   3.319   2.502  1.1643 -0.2904 -0.3828
 2952TIP3    H230416   2.923   3.287   2.649  1.1112 -0.6138 -0.4574
 2953TIP3   OH230417   2.593   3.944   2.040 -0.2207  0.1852 -0.2730
 2953TIP3    H130418   2.506   3.945   2.080 -0.4690  0.6174 -0.8093
 2953TIP3    H230419   2.643   4.008   2.091 -0.6974  1.1491 -0.9834
 2954TIP3   OH230420   0.314   3.061   7.908 -0.3106 -0.5734  0.0952
 2954TIP3    H130421   0.392   3.032   7.956 -0.2997 -1.8902 -0.6930
 2954TIP3    H230422   0.263   2.982   7.895 -0.8590 -0.0468 -1.0714
 2955TIP3   OH230423   6.571   6.071   0.819 -0.2070  0.0107 -0.2770
 2955TIP3    H130424   6.645   6.119   0.855 -0.9412 -0.1218  1.4912
 2955TIP3    H230425   6.494   6.123   0.844 -0.9510 -1.5743  0.8843
 2956TIP3   OH230426   5.234   1.243   0.236 -0.0831  0.2511 -0.1922
 2956TIP3    H130427   5.271   1.158   0.260  0.5351  0.6612  0.3099
 2956TIP3    H230428   5.234   1.243   0.140 -2.7905 -1.4955 -0.3124
 2957TIP3   OH230429   1.283   3.035   3.358 -0.1488 -0.0129  0.2717
 2957TIP3    H130430   1.261   2.956   3.308  0.5448  0.9309 -1.6082
 2957TIP3    H230431   1.360   3.010   3.410  0.3314 -0.4547 -0.6362
 2958TIP3   OH230432   3.326   3.731   1.301 -0.3569 -0.1127 -0.5371
 2958TIP3    H130433   3.373   3.801   1.346  1.0789 -0.5481 -1.2686
 2958TIP3    H230434   3.279   3.685   1.371  1.9301 -0.8771  0.6298
 2959TIP3   OH230435   5.263   2.107   3.003  0.2269 -0.1110 -0.1441
 2959TIP3    H130436   5.242   2.068   3.088  0.3520  0.7291  0.2733
 2959TIP3    H230437   5.179   2.117   2.960  0.2007 -0.9374 -0.3001
 2960TIP3   OH230438   0.206   2.698   8.066 -0.4719  0.1636 -0.0401
 2960TIP3    H130439   0.169   2.621   8.108 -0.2832  0.6256  1.0069
 2960TIP3    H230440   0.165   2.701   7.980  2.5026 -3.3911 -1.8282
 2961TIP3   OH230441   3.142   2.472   1.158 -0.0613  0.2091 -0.0747
 2961TIP3    H130442   3.211   2.512   1.212 -0.8717  0.6370  0.6574
 2961TIP3    H230443   3.061   2.511   1.189 -0.6303 -0.1416 -1.0743
 2962TIP3   OH230444   6.651   5.121   0.283 -0.1025 -0.3599  0.2323
 2962TIP3    H130445   6.613   5.059   0.221  1.3344 -0.4118 -0.6516
 2962TIP3    H230446   6.683   5.193   0.228  1.5617 -0.5933  0.8376
 2963TIP3   OH230447   0.244   4.702   3.335 -0.2521  0.1964 -0.4697
 2963TIP3    H130448   0.332   4.669   3.350  0.4246  1.6301 -1.0832
 2963TIP3    H230449   0.192   4.625   3.312  0.9642 -0.5900 -0.6359
 2964TIP3   OH230450   6.856   0.582   7.876  0.2015  0.2697 -1.0929
 2964TIP3    H130451   6.884   0.651   7.935  1.0090 -0.1718 -0.9442
 2964TIP3    H230452   6.781   0.541   7.919 -1.2247  1.9402 -1.8332
 2965TIP3   OH230453   6.611   0.352   3.730 -0.4865  0.5406  0.3877
 2965TIP3    H130454   6.532   0.406   3.729 -1.0832 -0.2589  2.0847
 2965TIP3    H230455   6.675   0.404   3.778  0.0365  1.1479 -0.9070
 2966TIP3   OH230456   3.246   5.735   2.497  0.6843  0.1576 -0.4843
 2966TIP3    H130457   3.243   5.826   2.467 -0.2072 -0.4584 -2.4595
 2966TIP3    H230458   3.157   5.719   2.530  0.0111 -0.6861 -2.5489
 2967TIP3   OH230459   2.161   6.398   2.394  0.1827  0.0715  0.1210
 2967TIP3    H130460   2.144   6.332   2.461  0.0453  1.3370  1.3936
 2967TIP3    H230461   2.240   6.444   2.424  0.4117  0.3436 -0.8494
 2968TIP3   OH230462   2.977   4.739   7.503  0.0171 -0.3984  0.0206
 2968TIP3    H130463   3.060   4.778   7.475  0.5792 -1.7812 -0.3391
 2968TIP3    H230464   2.950   4.792   7.578  1.5881 -0.3288  0.5803
 2969TIP3   OH230465   5.241   0.354   0.504  0.4673 -0.0471  0.2529
 2969TIP3    H130466   5.251   0.334   0.411 -0.2364 -1.8833  0.5298
 2969TIP3    H230467   5.311   0.305   0.546 -0.5450 -1.0064  0.8631
 2970TIP3   OH230468   4.721   3.711   8.038 -0.3809 -0.2136  0.4014
 2970TIP3    H130469   4.808   3.733   8.007 -0.3973 -0.3546  0.2567
 2970TIP3    H230470   4.689   3.645   7.977 -0.6719 -0.0085  0.3334
 2971TIP3   OH230471   2.233   3.151   2.072 -0.2912  0.6347 -0.0600
 2971TIP3    H130472   2.146   3.190   2.061  0.1666  1.6439 -0.1908
 2971TIP3    H230473   2.291   3.207   2.022  0.2632 -0.8214 -1.1076
 2972TIP3   OH230474   0.884   1.355   1.175  0.3381  0.4643 -0.5156
 2972TIP3    H130475   0.938   1.434   1.169 -1.1611  1.4486 -1.8205
 2972TIP3    H230476   0.905   1.306   1.096  0.6764 -0.0847 -0.0959
 2973TIP3   OH230477   6.252   4.691   2.349  0.6014 -0.0692  0.4318
 2973TIP3    H130478   6.300   4.729   2.276 -0.4982 -0.8169 -0.7226
 2973TIP3    H230479   6.203   4.764   2.386 -1.1663 -0.1977 -1.5013
 2974TIP3   OH230480   6.261   2.941   3.118 -0.1194 -0.4728  0.0543
 2974TIP3    H130481   6.225   3.003   3.054  0.7553 -0.8708 -0.8640
 2974TIP3    H230482   6.187   2.885   3.141 -0.3418 -0.6655 -1.0473
 2975TIP3   OH230483   1.933   6.223   1.948 -0.1010 -0.1122  0.5385
 2975TIP3    H130484   1.883   6.271   2.014 -0.1080  1.5977 -0.6531
 2975TIP3    H230485   1.899   6.133   1.953 -1.6171  0.4749  1.3775
 2976TIP3   OH230486   6.218   5.173   0.618  0.1353 -0.4523 -0.6969
 2976TIP3    H130487   6.275   5.247   0.599  1.0864 -1.0580 -0.2865
 2976TIP3    H230488   6.185   5.191   0.706  0.3084 -0.4816 -0.6259
 2977TIP3   OH230489   5.957   5.793   3.723  0.0277  0.3683 -1.0537
 2977TIP3    H130490   5.922   5.714   3.682 -4.5536  0.3968  2.0541
 2977TIP3    H230491   5.910   5.865   3.681 -1.3227  0.7403  0.9688
 2978TIP3   OH230492   5.790   1.530   7.812 -0.4084  0.3716 -0.0681
 2978TIP3    H130493   5.756   1.456   7.862 -1.5044  1.6744  1.1999
 2978TIP3    H230494   5.885   1.525   7.824 -0.6457  0.8231  2.4875
 2979TIP3   OH230495   2.116   4.116   2.188 -0.0774  0.1946  0.3433
 2979TIP3    H130496   2.103   4.140   2.280  0.6055 -2.0907  1.1259
 2979TIP3    H230497   2.031   4.081   2.160 -0.1827  0.5454  0.2261
 2980TIP3   OH230498   1.870   3.938   1.856  0.3719 -0.5673  0.9249
 2980TIP3    H130499   1.791   3.901   1.816  0.0188  1.0634 -0.0079
 2980TIP3    H230500   1.839   3.978   1.937  0.0703  0.6517  0.2373
 2981TIP3   OH230501   4.689   5.954   2.220 -0.0654 -0.0184 -0.5745
 2981TIP3    H130502   4.608   5.932   2.174 -0.4493  0.9356 -0.3597
 2981TIP3    H230503   4.682   5.907   2.304 -1.3668  1.6742  0.3274
 2982TIP3   OH230504   1.542   6.371   2.512 -0.6672  0.5805  0.2121
 2982TIP3    H130505   1.543   6.299   2.449  3.4163  0.4986  0.1001
 2982TIP3    H230506   1.481   6.435   2.475 -1.7250 -1.3002 -1.4912
 2983TIP3   OH230507   4.591   5.016   7.732  0.7148 -0.6413  0.1668
 2983TIP3    H130508   4.635   5.062   7.804  1.1216 -0.9009  0.0857
 2983TIP3    H230509   4.521   4.967   7.775 -0.2189  0.6519  0.1632
 2984TIP3   OH230510   3.245   1.637   1.876  0.4112  0.1770 -0.1588
 2984TIP3    H130511   3.205   1.667   1.794 -0.2947  1.1550  0.5297
 2984TIP3    H230512   3.171   1.617   1.933  0.8947 -1.0515  0.0613
 2985TIP3   OH230513   5.199   5.260   1.163 -0.2321  0.2495 -0.2573
 2985TIP3    H130514   5.170   5.297   1.080  1.3192 -0.6074 -1.2100
 2985TIP3    H230515   5.138   5.296   1.227 -0.7898  1.8053 -1.5940
 2986TIP3   OH230516   1.157   0.720   2.299  0.1648 -0.1006 -0.0199
 2986TIP3    H130517   1.080   0.718   2.241 -1.3902  1.1741  1.8547
 2986TIP3    H230518   1.204   0.799   2.273  0.5583 -0.5920 -0.8227
 2987TIP3   OH230519   2.952   3.752   7.768 -0.2346 -0.1524 -0.0846
 2987TIP3    H130520   2.872   3.803   7.760 -1.3178 -1.8376 -0.5095
 2987TIP3    H230521   3.014   3.795   7.709 -0.5893  1.5365  0.7149
 2988TIP3   OH230522   2.001   6.532   1.509  0.3293 -0.2597 -0.3302
 2988TIP3    H130523   2.079   6.483   1.485  0.7028 -1.0626  2.1459
 2988TIP3    H230524   1.941   6.465   1.543 -1.0611  0.4647 -1.2602
 2989TIP3   OH230525   1.160   3.546   2.941  0.6536 -0.9484  0.1547
 2989TIP3    H130526   1.234   3.522   2.885  0.8053 -0.6003  0.2058
 2989TIP3    H230527   1.172   3.494   3.021  1.3263 -0.2415  0.5219
 2990TIP3   OH230528   2.553   1.976   3.456 -0.0462  0.6024  0.2966
 2990TIP3    H130529   2.482   2.028   3.493 -0.9027  0.0577 -0.5149
 2990TIP3    H230530   2.595   1.935   3.531 -0.7628  0.7436  0.7818
 2991TIP3   OH230531   5.128   3.748   0.085  0.3165  0.0189  0.0384
 2991TIP3    H130532   5.192   3.791   0.142  1.2592  0.5749 -1.3869
 2991TIP3    H230533   5.059   3.813   0.073 -1.5989 -1.2198  3.0965
 2992TIP3   OH230534   2.518   4.525   1.499 -0.3739 -0.2503 -0.3389
 2992TIP3    H130535   2.567   4.580   1.438  1.7096  1.1679  2.4049
 2992TIP3    H230536   2.558   4.439   1.491 -0.8398 -0.3629 -1.6725
 2993TIP3   OH230537   3.537   2.925   1.768  0.3852 -0.0348  0.0199
 2993TIP3    H130538   3.553   2.993   1.702 -0.3689  0.6627  0.5277
 2993TIP3    H230539   3.521   2.845   1.718 -1.0318  0.6552 -0.7044
 2994TIP3   OH230540   3.273   0.763   2.018  0.6188  0.2089 -0.4383
 2994TIP3    H130541   3.204   0.766   2.085 -1.6330  2.0943 -2.6436
 2994TIP3    H230542   3.302   0.854   2.009  3.6195 -0.5424  0.4969
 2995TIP3   OH230543   3.410   3.450   2.569  0.0626 -0.2668 -0.1602
 2995TIP3    H130544   3.408   3.381   2.503  0.3917 -0.4368  0.0048
 2995TIP3    H230545   3.391   3.530   2.520  1.5065 -0.2233 -0.6901
 2996TIP3   OH230546   6.799   0.909   1.508 -0.3107 -0.4000  0.0411
 2996TIP3    H130547   6.704   0.898   1.514 -0.1314 -1.1342  3.6625
 2996TIP3    H230548   6.813   1.003   1.505 -1.1004 -0.2456 -3.5764
 2997TIP3   OH230549   3.599   0.242   7.281 -0.2541  0.5758 -0.1578
 2997TIP3    H130550   3.577   0.270   7.192  0.7240  2.3706  0.1147
 2997TIP3    H230551   3.547   0.164   7.295 -0.5311  0.3215 -2.2667
 2998TIP3   OH230552   5.259   4.058   2.037 -0.0888  0.1281 -0.2886
 2998TIP3    H130553   5.342   4.100   2.013 -0.5453  2.7410  2.0969
 2998TIP3    H230554   5.268   4.040   2.131 -0.9737 -2.9130 -0.6685
 2999TIP3   OH230555   2.579   0.061   2.294  0.3736  0.2783  0.3119
 2999TIP3    H130556   2.653   0.058   2.355 -1.6841  2.1479  3.2112
 2999TIP3    H230557   2.568  -0.029   2.264  1.4277 -0.8251  2.9302
 3000TIP3   OH230558   3.531   0.424   1.403  0.5155  0.0485 -0.3865
 3000TIP3    H130559   3.570   0.468   1.327 -0.3047  1.4492 -0.0344
 3000TIP3    H230560   3.456   0.376   1.368  0.8871 -0.3535 -0.6410
 3001TIP3   OH230561   1.764   3.059   8.136  0.6938 -0.2448  0.7207
 3001TIP3    H130562   1.702   3.051   8.063 -0.8437 -0.2726  1.9738
 3001TIP3    H230563   1.849   3.039   8.098  0.1868  1.3632 -1.4242
 3002TIP3   OH230564   6.492   2.837   1.159  0.1160  0.0238  0.9144
 3002TIP3    H130565   6.521   2.758   1.204  1.7596  0.3883  0.5490
 3002TIP3    H230566   6.561   2.856   1.096 -1.4955  0.2717 -0.8794
 3003TIP3   OH230567   6.101   3.390   2.852 -0.4000  0.4855  0.1226
 3003TIP3    H130568   6.031   3.410   2.790 -0.1753 -1.3664 -0.7987
 3003TIP3    H230569   6.181   3.418   2.807 -0.3843  0.8845  0.3930
 3004TIP3   OH230570   1.920   6.783   1.576 -0.1883  0.4399 -0.1175
 3004TIP3    H130571   1.831   6.765   1.603 -0.2079  1.8270  0.8965
 3004TIP3    H230572   1.958   6.698   1.555 -1.7567 -0.1530 -0.6602
 3005TIP3   OH230573   4.046   5.209   3.283 -0.7668 -0.0439 -0.6794
 3005TIP3    H130574   4.113   5.185   3.346 -0.7849 -0.8014 -0.9288
 3005TIP3    H230575   3.965   5.174   3.320 -0.6285 -1.4309 -1.5820
 3006TIP3   OH230576   3.300   2.634   0.251  0.4106  0.0820  0.3566
 3006TIP3    H130577   3.360   2.707   0.262  0.5264  0.0585 -0.1060
 3006TIP3    H230578   3.231   2.649   0.316  0.2056  0.8278 -0.0369
 3007TIP3   OH230579   2.580   2.300   2.034  0.6135 -0.3117 -0.3965
 3007TIP3    H130580   2.525   2.222   2.034 -2.4853  1.6874 -1.3564
 3007TIP3    H230581   2.594   2.320   2.127 -1.6347 -0.1011 -0.0429
 3008TIP3   OH230582   6.475   5.495   7.728 -0.4406  0.3843  0.1005
 3008TIP3    H130583   6.517   5.548   7.796 -0.1391 -1.5289  1.5016
 3008TIP3    H230584   6.382   5.513   7.737 -0.3145  0.9485  0.2993
 3009TIP3   OH230585   0.897   1.048   1.725  0.3643  0.1863 -0.5305
 3009TIP3    H130586   0.814   1.090   1.745  0.7180 -0.1676  2.0036
 3009TIP3    H230587   0.887   1.015   1.636 -1.7407  1.1899 -0.7163
 3010TIP3   OH230588   5.673   1.400   8.234 -0.1140  0.0913  0.3408
 3010TIP3    H130589   5.717   1.394   8.149  0.4982 -0.8631  0.7076
 3010TIP3    H230590   5.582   1.377   8.215  0.3382 -1.7438  0.1758
 3011TIP3   OH230591   5.234   4.607   2.618  1.1806  0.0811  0.4181
 3011TIP3    H130592   5.145   4.581   2.592 -0.2188  0.3951  4.2153
 3011TIP3    H230593   5.271   4.647   2.540 -2.0176 -0.1057 -1.3689
 3012TIP3   OH230594   5.109   3.773   2.536 -0.2829 -0.2491  0.2019
 3012TIP3    H130595   5.094   3.725   2.454  0.1788  0.8196 -0.5257
 3012TIP3    H230596   5.049   3.847   2.532 -0.1126 -0.0771  0.7504
 3013TIP3   OH230597   1.555   0.263   2.776 -0.1541  0.2692  0.0586
 3013TIP3    H130598   1.560   0.276   2.682  1.2413  0.6684  0.1579
 3013TIP3    H230599   1.560   0.351   2.813 -1.9066  0.2180  0.4995
 3014TIP3   OH230600   2.301   0.112   1.683 -0.5397  0.4409  0.5681
 3014TIP3    H130601   2.358   0.135   1.609 -0.5268 -0.5741  0.2458
 3014TIP3    H230602   2.261   0.029   1.657 -0.8795  0.2981  1.5169
 3015TIP3   OH230603   4.103   5.263   1.155 -0.4840 -0.0534  0.3703
 3015TIP3    H130604   4.039   5.284   1.087  1.5432 -1.3127 -2.1146
 3015TIP3    H230605   4.188   5.279   1.113  0.9058 -2.3804  2.0469
 3016TIP3   OH230606   3.493   4.992   8.284  0.4065 -0.6392  0.3199
 3016TIP3    H130607   3.473   5.064   8.343  0.4027 -1.0151  0.7839
 3016TIP3    H230608   3.571   5.020   8.236  0.3486 -0.2926  0.4298
 3017TIP3   OH230609   2.147   1.589   0.575 -0.0493  0.3383  0.1566
 3017TIP3    H130610   2.086   1.516   0.570  0.6615 -0.2549  0.0039
 3017TIP3    H230611   2.213   1.561   0.639 -0.0589  1.0688  0.5046
 3018TIP3   OH230612   1.752   1.553   7.893 -0.2719  0.2311  0.0098
 3018TIP3    H130613   1.774   1.517   7.807  0.9174  2.0398 -0.5048
 3018TIP3    H230614   1.807   1.505   7.954 -0.3371 -0.3342 -0.3708
 3019TIP3   OH230615   2.678   2.998   3.454 -0.0299  0.4730 -0.0486
 3019TIP3    H130616   2.640   2.948   3.382 -0.1941  1.6332 -0.7881
 3019TIP3    H230617   2.741   2.937   3.495  1.3389  0.3164 -2.2324
 3020TIP3   OH230618   0.551   3.442   1.422  0.0283 -0.3511 -0.2454
 3020TIP3    H130619   0.595   3.527   1.424  0.2633 -0.4250  2.6215
 3020TIP3    H230620   0.623   3.379   1.419 -0.1439 -0.5181 -2.2410
 3021TIP3   OH230621   0.818   5.719   8.429 -0.5662  0.6231  0.0406
 3021TIP3    H130622   0.881   5.769   8.482 -0.6444  1.8693 -0.9865
 3021TIP3    H230623   0.871   5.681   8.359 -0.2738 -1.9128  1.4962
 3022TIP3   OH230624   6.058   3.795   1.014 -0.0159  0.2171  0.5427
 3022TIP3    H130625   6.076   3.831   0.927 -2.2722  0.6871  0.2040
 3022TIP3    H230626   6.056   3.700   1.000  2.5199  0.0752  0.7315
 3023TIP3   OH230627   6.503   6.812   1.831 -0.3130  0.1014 -0.8383
 3023TIP3    H130628   6.595   6.795   1.853  0.1258  1.3882 -1.5282
 3023TIP3    H230629   6.465   6.726   1.816  0.3842 -0.5466  0.9315
 3024TIP3   OH230630   6.100   5.314   2.940 -0.2689  0.7758  0.1930
 3024TIP3    H130631   6.070   5.240   2.887  1.3853 -0.5660  1.0177
 3024TIP3    H230632   6.192   5.324   2.915 -0.0267  1.4545  1.3122
 3025TIP3   OH230633   5.649   1.676   7.375  0.6971 -0.1546 -0.3607
 3025TIP3    H130634   5.703   1.618   7.428 -0.5433 -0.6774  0.3532
 3025TIP3    H230635   5.576   1.622   7.346 -0.7348  1.1304  0.6993
 3026TIP3   OH230636   2.750   3.005   0.901  0.1699 -0.5557  0.5247
 3026TIP3    H130637   2.707   3.059   0.967 -1.9581 -1.1927 -0.2803
 3026TIP3    H230638   2.757   3.062   0.824 -0.7033 -0.9247  0.1577
 3027TIP3   OH230639   0.990   0.182   3.009 -0.4330  0.5602  0.4749
 3027TIP3    H130640   1.005   0.183   3.103  0.7051 -1.1626  0.3610
 3027TIP3    H230641   0.967   0.273   2.987 -1.9323  0.7438  2.5525
 3028TIP3   OH230642   1.508   0.030   7.525  0.0918  0.1084 -0.1823
 3028TIP3    H130643   1.448   0.043   7.599  0.4006 -2.0802  0.5246
 3028TIP3    H230644   1.540   0.118   7.505  0.2172  0.7715  2.4754
 3029TIP3   OH230645   5.536   1.867   2.720  0.2968  0.0022 -0.2547
 3029TIP3    H130646   5.452   1.903   2.693 -0.6875 -1.6112  0.5604
 3029TIP3    H230647   5.580   1.845   2.638 -0.4932 -0.0657 -0.6671
 3030TIP3   OH230648   3.016   0.734   2.784  0.0956  0.3819 -0.4414
 3030TIP3    H130649   2.938   0.743   2.838  0.2355  1.4814 -0.4031
 3030TIP3    H230650   3.028   0.639   2.775 -0.5358  0.1953  0.5578
 3031TIP3   OH230651   4.733   1.219   2.908 -0.1159  0.3564 -0.4103
 3031TIP3    H130652   4.653   1.266   2.883  0.4037  0.7831 -1.3392
 3031TIP3    H230653   4.718   1.193   2.999 -1.7612 -0.5503 -0.9065
 3032TIP3   OH230654   3.256   4.991   0.745 -0.3204 -0.1249 -0.7192
 3032TIP3    H130655   3.350   4.984   0.731 -0.1389 -1.6314  0.9142
 3032TIP3    H230656   3.240   5.086   0.745  1.2763  0.1865 -0.6074
 3033TIP3   OH230657   4.620   5.075   2.550  0.1311 -0.3235 -0.1419
 3033TIP3    H130658   4.537   5.070   2.502 -0.8078 -0.6517  1.4351
 3033TIP3    H230659   4.653   5.163   2.532 -0.5163 -0.2202 -0.8630
 3034TIP3   OH230660   0.421   4.329   0.263  0.3949 -0.3710  0.4318
 3034TIP3    H130661   0.387   4.380   0.337 -0.3475 -0.5239  0.2017
 3034TIP3    H230662   0.478   4.389   0.216 -1.6484  0.7873 -0.7183
 3035TIP3   OH230663   1.519   0.814   7.732 -0.3483  0.0330 -0.0007
 3035TIP3    H130664   1.424   0.820   7.726 -0.3185 -0.2229 -1.1360
 3035TIP3    H230665   1.546   0.782   7.645  0.6478 -1.3864  0.7794
 3036TIP3   OH230666   3.909   6.673   2.197  0.3304 -0.7632 -0.0944
 3036TIP3    H130667   3.904   6.630   2.112 -2.1389 -0.3808 -0.2139
 3036TIP3    H230668   3.829   6.646   2.242  0.6954  0.5059  1.4136
 3037TIP3   OH230669   1.159   6.562   0.891  0.0635 -0.1220  0.0880
 3037TIP3    H130670   1.208   6.645   0.891 -2.0222  1.1679 -0.1096
 3037TIP3    H230671   1.109   6.563   0.809  0.4392 -1.8892 -0.2082
 3038TIP3   OH230672   5.658   1.861   2.211 -0.6996  0.2963  0.4112
 3038TIP3    H130673   5.570   1.829   2.189  0.3295 -2.7087  0.1717
 3038TIP3    H230674   5.714   1.822   2.144  0.9695  1.2387  1.2060
 3039TIP3   OH230675   4.284   4.422   2.826 -0.4858 -0.8493  0.2150
 3039TIP3    H130676   4.247   4.371   2.754 -2.0611 -0.0232  0.3903
 3039TIP3    H230677   4.243   4.386   2.905 -0.9179  0.0564  0.4207
 3040TIP3   OH230678   5.770   3.998   1.079 -0.4083  0.4199 -0.4047
 3040TIP3    H130679   5.722   3.984   0.997 -0.7993 -0.8281  0.0279
 3040TIP3    H230680   5.707   4.042   1.136 -1.0418 -1.1100  0.1215
 3041TIP3   OH230681   5.799   5.727   3.169  0.6531 -0.1649 -0.2710
 3041TIP3    H130682   5.816   5.633   3.168 -0.2604 -0.3472  0.3242
 3041TIP3    H230683   5.750   5.744   3.089  0.0055 -0.3637  0.0774
 3042TIP3   OH230684   1.078   3.533   8.122 -1.0237 -0.0581 -0.3079
 3042TIP3    H130685   1.086   3.530   8.217 -2.4224  0.3111 -0.1563
 3042TIP3    H230686   1.011   3.468   8.101  2.6008 -3.8853 -1.5799
 3043TIP3   OH230687   2.088   5.924   2.207 -0.3855 -0.2365  0.1474
 3043TIP3    H130688   1.993   5.933   2.194 -0.3942 -1.1779 -0.5834
 3043TIP3    H230689   2.119   6.014   2.217 -1.4947  0.0313  1.4865
 3044TIP3   OH230690   5.882   4.154   1.327 -0.0625  0.1434 -0.3028
 3044TIP3    H130691   5.930   4.129   1.248  0.1171  0.4746 -0.3003
 3044TIP3    H230692   5.929   4.110   1.399 -0.2780 -0.2285 -0.3839
 3045TIP3   OH230693   4.679   1.557   3.114 -0.6618 -0.5986  0.0798
 3045TIP3    H130694   4.703   1.482   3.169 -1.0879 -1.5101 -0.9281
 3045TIP3    H230695   4.645   1.517   3.034  2.6999  0.6157 -2.1813
 3046TIP3   OH230696   4.103   4.908   2.976  0.3071  0.1834 -0.7847
 3046TIP3    H130697   4.167   4.847   2.941  0.2870 -0.3018  0.0198
 3046TIP3    H230698   4.103   4.893   3.070  1.7381  2.7901 -0.2703
 3047TIP3   OH230699   1.522   4.601   0.437  0.3839  0.2862 -0.7058
 3047TIP3    H130700   1.537   4.631   0.527 -0.6644 -0.8639 -0.1040
 3047TIP3    H230701   1.433   4.628   0.417  0.1617 -0.5667 -0.9186
 3048TIP3   OH230702   5.698   2.452   2.972 -0.1702 -0.2195 -0.3554
 3048TIP3    H130703   5.615   2.496   2.992  0.0951  1.3680 -2.3641
 3048TIP3    H230704   5.682   2.360   2.993 -2.6972 -0.0816 -1.2484
 3049TIP3   OH230705   5.996   1.394   7.428 -0.6292 -0.0142 -0.3072
 3049TIP3    H130706   6.075   1.440   7.399 -1.4726  0.8400 -1.3378
 3049TIP3    H230707   5.959   1.357   7.347 -0.8056 -1.1951  0.2876
 3050TIP3   OH230708   1.153   4.187   2.766 -0.2373  0.1819 -0.1365
 3050TIP3    H130709   1.099   4.236   2.829  0.5446  0.1853  0.5599
 3050TIP3    H230710   1.205   4.128   2.821 -1.3151 -1.6122 -0.9816
 3051TIP3   OH230711   5.720   0.953   2.636 -0.0316  0.1806  0.2587
 3051TIP3    H130712   5.649   0.982   2.694  2.1320  1.0360  2.6657
 3051TIP3    H230713   5.710   1.008   2.558 -1.9940  0.2559  0.5001
 3052TIP3   OH230714   0.524   1.401   3.136  0.7816 -0.2875  0.5515
 3052TIP3    H130715   0.533   1.496   3.136  0.2899 -0.2428  0.8919
 3052TIP3    H230716   0.561   1.372   3.219 -1.1912 -0.1864  1.5165
 3053TIP3   OH230717   1.462   4.811   0.639  0.7115 -0.4978 -0.4824
 3053TIP3    H130718   1.384   4.794   0.586 -0.2345 -0.4123  0.8261
 3053TIP3    H230719   1.465   4.738   0.701  2.2663 -1.0413 -1.1475
 3054TIP3   OH230720   1.710   2.084   2.745 -0.3388  0.4619 -1.0248
 3054TIP3    H130721   1.676   2.159   2.697 -1.2954  0.1764 -0.8170
 3054TIP3    H230722   1.652   2.075   2.821  0.2785  0.0315 -0.5806
 3055TIP3   OH230723   3.112   1.105   1.974 -0.2882 -0.2567 -0.0026
 3055TIP3    H130724   3.130   1.162   2.048 -0.9047 -1.0838  0.8118
 3055TIP3    H230725   3.018   1.090   1.977 -0.4358  0.2256 -1.3708
 3056TIP3   OH230726   5.335   2.029   2.674  0.7746  0.3909 -0.4950
 3056TIP3    H130727   5.242   2.030   2.648  0.9639  0.3279 -1.1842
 3056TIP3    H230728   5.350   2.116   2.712  0.1082 -0.0412  0.7997
 3057TIP3   OH230729   2.186   3.132   2.739  0.1347  0.6003  0.4358
 3057TIP3    H130730   2.281   3.136   2.727  0.1520  1.0111  0.7078
 3057TIP3    H230731   2.169   3.186   2.815 -0.5577  2.3935 -0.9233
 3058TIP3   OH230732   6.918   2.925   3.017 -0.7365  0.0155 -0.3032
 3058TIP3    H130733   6.850   2.993   3.012 -0.1136  0.5795 -1.4380
 3058TIP3    H230734   6.869   2.843   3.017 -1.4296  0.4112 -0.9479
 3059TIP3   OH230735   0.666   0.203   0.965 -0.0888 -0.2113 -0.2732
 3059TIP3    H130736   0.633   0.244   1.045 -1.8412 -1.3389 -0.3570
 3059TIP3    H230737   0.713   0.272   0.920 -0.9164  1.0415  0.7206
 3060TIP3   OH230738   2.419   6.778   1.379 -0.0782 -0.0189  0.6549
 3060TIP3    H130739   2.413   6.739   1.466 -0.3242 -1.9040 -0.1642
 3060TIP3    H230740   2.357   6.728   1.326 -0.0094  1.1601 -0.5935
 3061TIP3   OH230741   3.575   6.830   7.630  0.2202  0.3870 -0.1018
 3061TIP3    H130742   3.585   6.798   7.540  0.0725  2.9599 -1.1300
 3061TIP3    H230743   3.499   6.783   7.664  0.2805 -0.6454 -1.3093
 3062TIP3   OH230744   1.704   3.185   2.083 -0.0561 -0.1413 -0.4053
 3062TIP3    H130745   1.652   3.154   2.008 -2.4227  0.6015  0.8295
 3062TIP3    H230746   1.659   3.149   2.159  1.1211  0.7772  0.7508
 3063TIP3   OH230747   6.407   2.299   8.053  0.2510  0.3002  0.4616
 3063TIP3    H130748   6.386   2.216   8.097 -0.6209 -0.5849 -1.4887
 3063TIP3    H230749   6.322   2.340   8.038  0.1150 -0.9102 -3.0194
 3064TIP3   OH230750   6.702   3.028   2.368  0.3116  0.4225  0.2251
 3064TIP3    H130751   6.676   3.103   2.423 -0.3739 -0.9673  1.9056
 3064TIP3    H230752   6.629   2.967   2.377  1.2987 -0.8571 -0.2956
 3065TIP3   OH230753   4.318   6.460   8.275 -0.0423 -0.2940  0.5274
 3065TIP3    H130754   4.365   6.456   8.192  0.0001  1.8495  0.4092
 3065TIP3    H230755   4.269   6.378   8.278  0.9463 -0.9882 -0.9950
 3066TIP3   OH230756   1.874   5.512   0.317 -0.1806  0.3260 -0.4339
 3066TIP3    H130757   1.939   5.520   0.386 -0.8865 -0.3891  0.3325
 3066TIP3    H230758   1.902   5.575   0.250  2.0891 -0.9591 -0.7725
 3067TIP3   OH230759   2.587   2.787   3.296  0.5035  0.0966 -0.4655
 3067TIP3    H130760   2.674   2.765   3.262  1.4658  1.3717  1.0007
 3067TIP3    H230761   2.576   2.730   3.373 -0.0279 -0.1589 -0.7283
 3068TIP3   OH230762   3.766   0.863   1.751  0.6030 -0.1112  0.5641
 3068TIP3    H130763   3.826   0.931   1.783  0.2760  0.8384 -0.7345
 3068TIP3    H230764   3.679   0.898   1.768  0.4279 -0.3861  0.2501
 3069TIP3   OH230765   1.566   2.413   7.971  0.2743  0.1367 -0.1687
 3069TIP3    H130766   1.577   2.433   7.878  0.1387 -0.2350 -0.2696
 3069TIP3    H230767   1.489   2.464   7.998 -1.2623 -1.6671 -0.8994
 3070TIP3   OH230768   6.354   3.529   3.614 -0.1159 -0.0126  0.1082
 3070TIP3    H130769   6.282   3.575   3.657 -0.2748  1.3912 -1.5218
 3070TIP3    H230770   6.312   3.462   3.561 -0.2698  0.8462 -0.8904
 3071TIP3   OH230771   6.448   4.916   8.282  0.1255  0.3983  0.2323
 3071TIP3    H130772   6.497   4.881   8.208 -0.2079  0.3396  0.0345
 3071TIP3    H230773   6.386   4.846   8.305 -0.0169  0.5552  0.3304
 3072TIP3   OH230774   4.076   1.863   8.347  0.1111  0.6085 -0.0349
 3072TIP3    H130775   4.168   1.879   8.366 -0.2514  1.5177  1.0951
 3072TIP3    H230776   4.047   1.939   8.298 -0.2508  0.7542  0.3950
 3073TIP3   OH230777   2.166   0.875   1.759  0.3291 -0.2405 -0.6786
 3073TIP3    H130778   2.079   0.914   1.746  0.5940  0.3752 -0.6263
 3073TIP3    H230779   2.227   0.944   1.736  0.8111 -0.7241 -0.8644
 3074TIP3   OH230780   4.028   5.252   0.772 -0.1829  0.6960 -0.4802
 3074TIP3    H130781   4.091   5.323   0.774  1.3023 -0.5633 -0.4174
 3074TIP3    H230782   3.982   5.258   0.855 -0.3895  1.8247 -0.6608
 3075TIP3   OH230783   4.892   5.024   0.362 -0.1256  0.6185  0.1669
 3075TIP3    H130784   4.877   5.119   0.354 -1.0554  0.5645  1.1695
 3075TIP3    H230785   4.860   4.988   0.280  2.6203  1.3906 -1.3948
 3076TIP3   OH230786   0.908   3.548   7.866  0.1310  0.3713 -0.6307
 3076TIP3    H130787   0.996   3.512   7.852  0.0987  0.3594 -0.8126
 3076TIP3    H230788   0.923   3.639   7.890  0.2671 -0.0553  0.9869
 3077TIP3   OH230789   5.980   2.632   2.858 -0.7946 -0.2273  0.8575
 3077TIP3    H130790   5.889   2.660   2.845 -0.4872  1.0236  1.3079
 3077TIP3    H230791   5.972   2.545   2.898 -1.7651 -0.8701 -0.6295
 3078TIP3   OH230792   3.663   1.196   0.330  0.2143 -0.4297 -0.1204
 3078TIP3    H130793   3.587   1.232   0.285 -0.0893 -0.7912  0.0963
 3078TIP3    H230794   3.733   1.260   0.315  0.1124 -0.5224 -1.0597
 3079TIP3   OH230795   0.568   3.225   3.044  0.1083 -0.0748 -0.4725
 3079TIP3    H130796   0.606   3.312   3.045  1.4350 -0.5777  2.5093
 3079TIP3    H230797   0.637   3.168   3.078 -1.7444 -1.7790  0.6383
 3080TIP3   OH230798   4.910   4.559   0.616 -0.1526 -0.0241  0.4046
 3080TIP3    H130799   4.866   4.560   0.701 -1.3817  0.7575 -0.2252
 3080TIP3    H230800   4.911   4.467   0.591 -1.7507 -0.0242  0.2810
 3081TIP3   OH230801   1.202   5.034   2.346 -0.7106  0.7506  0.1068
 3081TIP3    H130802   1.191   4.941   2.367  1.6272  0.0037 -1.5301
 3081TIP3    H230803   1.261   5.067   2.414  0.3668  0.3793 -0.6126
 3082TIP3   OH230804   2.084   6.564   7.953 -0.3298 -0.5831 -0.2030
 3082TIP3    H130805   2.070   6.646   7.906  0.7876 -0.1789  0.1255
 3082TIP3    H230806   2.117   6.592   8.039 -0.0647 -1.3661 -0.0442
 3083TIP3   OH230807   5.973   1.521   2.427  0.6592 -0.0863  0.6064
 3083TIP3    H130808   6.048   1.525   2.367 -0.0083  0.3838 -0.2079
 3083TIP3    H230809   5.965   1.428   2.447  0.3726 -0.3693 -0.7165
 3084TIP3   OH230810   1.709   2.592   1.172 -0.2205 -0.5085  0.1536
 3084TIP3    H130811   1.801   2.614   1.154 -0.2540 -0.9091 -0.5250
 3084TIP3    H230812   1.662   2.620   1.094 -0.5354 -1.2129  0.0810
 3085TIP3   OH230813   6.035   4.412   8.034 -0.4460  0.2677  0.3898
 3085TIP3    H130814   6.083   4.352   8.091 -1.4111 -2.0079 -1.0178
 3085TIP3    H230815   6.097   4.437   7.966  0.1507  1.4374  1.3412
 3086TIP3   OH230816   0.360   6.283   1.280  0.0155  0.2727  0.0852
 3086TIP3    H130817   0.428   6.302   1.345 -1.6180  1.9972  1.4115
 3086TIP3    H230818   0.401   6.305   1.196  2.0412 -1.5969  0.4996
 3087TIP3   OH230819   0.696   6.240   0.508  0.0435 -0.5488  0.0316
 3087TIP3    H130820   0.619   6.265   0.559  1.7130  1.3242  1.7664
 3087TIP3    H230821   0.731   6.163   0.553  1.4083  0.9914  1.7742
 3088TIP3   OH230822   0.759   5.877   2.796  0.1444  0.4467 -0.5969
 3088TIP3    H130823   0.783   5.877   2.888 -2.6109 -0.9144  0.2148
 3088TIP3    H230824   0.715   5.960   2.781 -1.1318 -0.1133 -0.1195
 3089TIP3   OH230825   0.900   3.350   1.110  0.7536 -0.6959  0.2791
 3089TIP3    H130826   0.983   3.325   1.070 -0.3221 -3.4555 -0.4564
 3089TIP3    H230827   0.833   3.313   1.052 -1.0934  2.1865  0.3314
 3090TIP3   OH230828   2.061   6.139   1.226 -0.1093  0.1839  0.2064
 3090TIP3    H130829   2.119   6.108   1.156 -2.2733 -0.5828 -1.3464
 3090TIP3    H230830   2.070   6.073   1.295  1.2618  0.3877  0.2564
 3091TIP3   OH230831   0.307   1.512   1.181 -0.0551  0.5602 -0.5092
 3091TIP3    H130832   0.276   1.585   1.128 -0.5604 -0.1481 -1.2090
 3091TIP3    H230833   0.233   1.452   1.186  0.4806 -0.0982 -0.2867
 3092TIP3   OH230834   0.866   6.598   1.399  0.2877 -0.3313  0.2187
 3092TIP3    H130835   0.897   6.688   1.394  1.3944 -0.7163 -0.2306
 3092TIP3    H230836   0.943   6.545   1.377 -0.0113 -1.4320  1.6535
 3093TIP3   OH230837   0.006   3.597   2.703  0.2534  0.5377  0.3215
 3093TIP3    H130838   0.089   3.643   2.713  0.8473 -0.3505 -0.3985
 3093TIP3    H230839  -0.061   3.664   2.719  1.1043  1.3827  0.3900
 3094TIP3   OH230840   6.344   3.661   1.849  0.4195 -0.2346  0.1080
 3094TIP3    H130841   6.298   3.740   1.875  1.3230  0.4574 -0.3416
 3094TIP3    H230842   6.282   3.615   1.792  0.3409  0.7938 -0.6775
 3095TIP3   OH230843   3.506   0.059   0.174  0.1374 -0.4500  0.3018
 3095TIP3    H130844   3.579   0.006   0.208  0.9182  0.0209 -0.6125
 3095TIP3    H230845   3.519   0.061   0.080  0.4851  1.8612  0.3382
 3096TIP3   OH230846   5.737   6.633   0.432  0.4399 -0.2814 -0.2458
 3096TIP3    H130847   5.660   6.667   0.477 -0.6324 -0.1435 -2.0925
 3096TIP3    H230848   5.770   6.563   0.489 -2.2181 -1.7136 -0.3230
 3097TIP3   OH230849   6.363   4.755   2.592  0.3294 -0.7623  0.5053
 3097TIP3    H130850   6.339   4.712   2.510  0.7617 -2.2918  1.1287
 3097TIP3    H230851   6.289   4.736   2.651  0.1367  0.1074  0.5601
 3098TIP3   OH230852   0.643   4.257   7.912 -0.2693  0.0327 -0.2834
 3098TIP3    H130853   0.613   4.347   7.902  0.8610  0.8757  2.6582
 3098TIP3    H230854   0.606   4.229   7.996  2.2206 -0.9335  0.5918
 3099TIP3   OH230855   5.543   4.203   0.961  0.3479 -0.7205 -0.4831
 3099TIP3    H130856   5.471   4.232   0.904 -1.0505 -0.2845  1.4304
 3099TIP3    H230857   5.559   4.276   1.019  1.5371 -1.2701 -0.0914
 3100TIP3   OH230858   1.793   6.377   1.159 -0.1718 -0.1116 -0.2914
 3100TIP3    H130859   1.792   6.283   1.176 -1.3578 -0.3650 -1.6148
 3100TIP3    H230860   1.881   6.405   1.185 -0.4424 -1.1847  2.0363
 3101TIP3   OH230861   0.924   0.275   1.230  0.0767 -0.1265 -0.4057
 3101TIP3    H130862   1.014   0.283   1.198  0.1446 -0.0517 -0.1983
 3101TIP3    H230863   0.871   0.278   1.151  0.1612  1.4116 -0.4410
 3102TIP3   OH230864   4.083   5.972   0.660  0.0603 -0.0869  0.2079
 3102TIP3    H130865   4.113   5.919   0.735 -1.0983 -0.5203  0.3825
 3102TIP3    H230866   4.068   5.909   0.590  1.5288  0.3596 -0.5574
 3103TIP3   OH230867   6.352   6.310   8.382 -0.7706 -0.2786  0.2866
 3103TIP3    H130868   6.343   6.266   8.298 -1.0272 -0.3436  0.3491
 3103TIP3    H230869   6.317   6.248   8.446 -0.8504 -0.1078  0.4091
 3104TIP3   OH230870   4.222   2.870   2.389  0.0447 -0.3215 -0.2852
 3104TIP3    H130871   4.243   2.936   2.323 -0.4944 -1.8690 -2.0959
 3104TIP3    H230872   4.254   2.787   2.352 -0.8012 -1.3394  1.1264
 3105TIP3   OH230873   6.917   1.198   7.437 -0.3815  0.1768  0.0155
 3105TIP3    H130874   6.905   1.283   7.479 -0.5892  0.9266 -1.5106
 3105TIP3    H230875   6.999   1.206   7.388 -1.6098  0.3567 -2.1044
 3106TIP3   OH230876   1.705   2.640   8.091  0.5006 -0.2106 -0.3593
 3106TIP3    H130877   1.707   2.651   8.186  2.4863 -3.6791  0.1495
 3106TIP3    H230878   1.632   2.580   8.076  0.6968 -0.3038 -0.9360
 3107TIP3   OH230879   2.537   1.503   2.462  0.0493 -0.4779 -0.2493
 3107TIP3    H130880   2.471   1.555   2.507  1.9598  1.7573  0.1447
 3107TIP3    H230881   2.586   1.460   2.532  2.1025  1.8622 -0.1102
 3108TIP3   OH230882   6.093   4.516   0.606  0.0173 -1.0142  0.4572
 3108TIP3    H130883   6.148   4.534   0.529 -1.1148 -1.0873 -0.3887
 3108TIP3    H230884   6.048   4.599   0.622  0.3941 -0.9432  1.1767
 3109TIP3   OH230885   0.027   1.519   6.883  1.0082 -0.4152 -0.1670
 3109TIP3    H130886  -0.027   1.499   6.807 -0.2920 -0.0698  0.6336
 3109TIP3    H230887   0.054   1.610   6.871 -0.2978  0.0700  0.4004
 3110TIP3   OH230888   0.251   1.911   2.231 -0.2502 -0.0693 -0.5055
 3110TIP3    H130889   0.339   1.949   2.235  0.1214 -1.0092  0.6430
 3110TIP3    H230890   0.198   1.980   2.190  0.5726  1.3631  0.7109
 3111TIP3   OH230891   0.717   2.113   2.775  0.5209  0.1398 -0.1499
 3111TIP3    H130892   0.738   2.116   2.682 -2.3977  1.3627 -0.8994
 3111TIP3    H230893   0.706   2.020   2.795 -1.4190 -0.0561 -1.8035
 3112TIP3   OH230894   6.142   2.421   0.946  0.0100 -0.0324 -0.0070
 3112TIP3    H130895   6.112   2.506   0.979  0.9741  0.0263  0.7341
 3112TIP3    H230896   6.187   2.442   0.864  0.3355  0.1883  0.2261
 3113TIP3   OH230897   4.358   4.597   2.585  0.7549 -0.0516 -0.2456
 3113TIP3    H130898   4.273   4.626   2.551  0.2198 -1.4663 -0.1848
 3113TIP3    H230899   4.343   4.585   2.679  0.5001 -1.9322 -0.4851
 3114TIP3   OH230900   3.978   1.034   0.468  0.1352 -0.0862 -0.5513
 3114TIP3    H130901   4.003   0.942   0.455  2.3155  0.2171  0.9809
 3114TIP3    H230902   4.003   1.077   0.385  1.2056 -0.5049 -0.4647
 3115TIP3   OH230903   2.362   2.284   0.494 -0.6452  0.3114 -0.3871
 3115TIP3    H130904   2.327   2.296   0.406 -2.4405 -1.3747  0.0182
 3115TIP3    H230905   2.286   2.293   0.552  0.0734 -0.7246  0.7952
 3116TIP3   OH230906   4.231   2.521   1.715 -0.5419 -0.5746 -0.7709
 3116TIP3    H130907   4.266   2.523   1.626 -0.6137 -0.7024 -0.8025
 3116TIP3    H230908   4.145   2.563   1.708  0.2418  1.1411 -0.4050
 3117TIP3   OH230909   1.645   3.165   0.520 -0.0408 -0.3674  0.0064
 3117TIP3    H130910   1.569   3.112   0.498  0.2836 -1.6335  1.7438
 3117TIP3    H230911   1.661   3.148   0.612  2.2469 -0.0041 -0.2508
 3118TIP3   OH230912   4.950   1.678   1.253  0.6640  0.3602  0.1284
 3118TIP3    H130913   4.873   1.623   1.238 -0.4101  1.8620 -0.1364
 3118TIP3    H230914   4.972   1.664   1.345  0.1093 -0.1327  0.1913
 3119TIP3   OH230915   6.437   0.345   0.128  0.8305  0.6197 -0.1521
 3119TIP3    H130916   6.424   0.415   0.193  1.8492  0.8310 -0.1553
 3119TIP3    H230917   6.357   0.294   0.131  0.5862  1.0380  0.7832
 3120TIP3   OH230918   2.687   1.863   3.687 -0.5293 -0.2310 -0.0680
 3120TIP3    H130919   2.684   1.954   3.717 -0.3475  0.0601 -0.8994
 3120TIP3    H230920   2.778   1.851   3.660 -1.3439  0.5738 -3.5823
 3121TIP3   OH230921   1.101   2.398   2.714  0.2042  0.2015 -0.1061
 3121TIP3    H130922   1.126   2.313   2.677  1.4635 -0.0002  1.1408
 3121TIP3    H230923   1.043   2.376   2.787  1.1190  0.3619  0.6777
 3122TIP3   OH230924   3.002   0.708   0.065  0.5123  0.2636 -0.7227
 3122TIP3    H130925   2.961   0.692   0.150 -1.6263  1.3789 -1.4546
 3122TIP3    H230926   3.096   0.701   0.082  0.1275 -0.5201  1.4959
 3123TIP3   OH230927   4.753   4.861   2.671  0.4337  0.3303  0.2377
 3123TIP3    H130928   4.691   4.926   2.638  0.1745 -0.0948 -0.1238
 3123TIP3    H230929   4.837   4.908   2.678  0.6338  0.2902 -1.5843
 3124TIP3   OH230930   2.033   5.326   1.287 -0.2193 -0.5114 -0.2289
 3124TIP3    H130931   2.059   5.243   1.247 -0.4915 -0.0146 -1.4908
 3124TIP3    H230932   2.000   5.302   1.374  0.6272 -1.5996 -0.1909
 3125TIP3   OH230933   0.141   3.422   3.866  0.0142  0.7473 -0.4325
 3125TIP3    H130934   0.166   3.332   3.888  0.5845  1.0735  0.3034
 3125TIP3    H230935   0.050   3.428   3.895 -0.1191  0.3300 -0.7422
 3126TIP3   OH230936   5.568   2.588   1.634 -0.2394  0.0880  0.6582
 3126TIP3    H130937   5.513   2.608   1.558 -0.6004 -1.3884  0.4899
 3126TIP3    H230938   5.641   2.538   1.597 -2.3208 -4.1048  1.5502
 3127TIP3   OH230939   1.120   3.347   0.218 -0.2948 -0.2312 -0.0090
 3127TIP3    H130940   1.048   3.401   0.186  0.2988  0.3452 -0.4241
 3127TIP3    H230941   1.081   3.261   0.235 -1.1852  0.2317  0.3320
 3128TIP3   OH230942   5.673   3.759   3.310 -0.0399  0.3006 -0.4527
 3128TIP3    H130943   5.733   3.685   3.304 -1.0342 -0.4869 -0.9001
 3128TIP3    H230944   5.665   3.776   3.404 -2.2970 -2.3031 -0.0437
 3129TIP3   OH230945   5.071   0.259   0.704  0.0945  0.4553  0.0398
 3129TIP3    H130946   5.122   0.300   0.634  0.8610 -2.2672 -1.1106
 3129TIP3    H230947   5.069   0.166   0.682 -3.0011  0.0091  1.5814
 3130TIP3   OH230948   5.918   0.904   3.432 -0.0437  0.1868 -0.5214
 3130TIP3    H130949   5.880   0.837   3.376 -1.2434  0.4939 -0.1153
 3130TIP3    H230950   5.896   0.987   3.389  0.6783  0.3594 -0.5736
 3131TIP3   OH230951   2.100   5.422   7.901 -0.3850  0.0221  0.2690
 3131TIP3    H130952   2.015   5.452   7.869  0.2211  2.4106  0.7071
 3131TIP3    H230953   2.162   5.490   7.872  1.1350 -0.9005  1.2267
 3132TIP3   OH230954   1.950   5.692   0.762 -0.2787  0.4092 -0.0787
 3132TIP3    H130955   1.954   5.788   0.764 -0.6236  0.4102  0.8802
 3132TIP3    H230956   1.858   5.672   0.744 -0.3693  0.2576  0.5351
 3133TIP3   OH230957   2.155   2.684   0.335  0.4763 -0.8480  0.2197
 3133TIP3    H130958   2.220   2.664   0.402 -0.5329 -1.7537  0.9632
 3133TIP3    H230959   2.110   2.762   0.369  0.2067 -1.0896  0.4163
 3134TIP3   OH230960   1.175   5.942   0.823 -0.2614  0.8834  0.4374
 3134TIP3    H130961   1.238   5.871   0.810 -1.2756 -0.1310  0.9036
 3134TIP3    H230962   1.214   6.017   0.779  0.0236 -0.4127 -1.6653
 3135TIP3   OH230963   1.856   0.818   2.207  0.0667  0.2942 -0.4132
 3135TIP3    H130964   1.925   0.872   2.167 -0.1376  0.8863  0.0115
 3135TIP3    H230965   1.903   0.757   2.263  0.3163 -0.1197 -1.0618
 3136TIP3   OH230966   6.936   2.894   0.110  0.0446 -0.3956  0.3145
 3136TIP3    H130967   7.028   2.866   0.115  1.0218  2.4296 -0.3039
 3136TIP3    H230968   6.905   2.893   0.200  0.3208 -2.3105  0.4329
 3137TIP3   OH230969   0.770   1.592   1.830  0.0274  0.3408 -0.1813
 3137TIP3    H130970   0.849   1.539   1.822 -0.3980 -0.1447 -1.3401
 3137TIP3    H230971   0.764   1.612   1.924 -0.1303 -2.1984  0.4132
 3138TIP3   OH230972   4.368   3.114   0.011  0.6938  0.1965 -0.2698
 3138TIP3    H130973   4.440   3.084  -0.045  0.0409 -0.1699 -0.9277
 3138TIP3    H230974   4.291   3.068  -0.023  0.4030 -0.5957  1.4022
 3139TIP3   OH230975   1.526   2.678   1.664  0.3588 -0.0506 -0.0233
 3139TIP3    H130976   1.571   2.732   1.600 -0.7236  0.3593 -0.4676
 3139TIP3    H230977   1.442   2.658   1.623 -0.6523  0.7949  1.5330
 3140TIP3   OH230978   1.370   2.280   3.267  0.9742 -0.0173 -0.2699
 3140TIP3    H130979   1.418   2.325   3.337  0.3417  0.8229 -0.3625
 3140TIP3    H230980   1.297   2.237   3.311  0.9293 -0.0096 -0.3367
 3141TIP3   OH230981   5.322   1.858   8.034  0.3609  0.1173  0.0558
 3141TIP3    H130982   5.289   1.814   7.956  0.0223 -0.0010  0.2636
 3141TIP3    H230983   5.312   1.794   8.104  0.5893  0.2505  0.2114
 3142TIP3   OH230984   4.893   3.248   0.874 -0.4285  0.2519 -0.1129
 3142TIP3    H130985   4.923   3.176   0.818 -0.6048  0.6123 -0.6834
 3142TIP3    H230986   4.932   3.230   0.959 -0.5167 -0.5508 -0.2292
 3143TIP3   OH230987   6.550   6.818   2.116  0.5245 -0.0737 -0.4114
 3143TIP3    H130988   6.628   6.872   2.107 -0.2226  0.9610 -0.8223
 3143TIP3    H230989   6.527   6.793   2.027  0.5586 -0.6437 -0.2653
 3144TIP3   OH230990   3.147   6.721   2.621  0.3226 -0.1113 -0.8525
 3144TIP3    H130991   3.158   6.635   2.581 -1.2814 -1.4087  1.2273
 3144TIP3    H230992   3.055   6.743   2.605 -0.6643 -1.1032  2.6133
 3145TIP3   OH230993   2.190   6.349   1.446  0.4610 -0.0802 -0.3411
 3145TIP3    H130994   2.283   6.332   1.463  0.8896  1.0997 -1.3431
 3145TIP3    H230995   2.159   6.269   1.403  1.2416 -0.1426 -0.8148
 3146TIP3   OH230996   5.669   1.495   2.527  0.6673 -0.0210  0.3323
 3146TIP3    H130997   5.591   1.539   2.492  1.3618  1.4734  0.5662
 3146TIP3    H230998   5.699   1.440   2.455 -1.1211 -1.3666  0.5533
 3147TIP3   OH230999   2.494   1.454   7.968 -0.4662 -0.2906  0.0673
 3147TIP3    H131000   2.508   1.430   7.876 -2.3891  0.1401 -0.3832
 3147TIP3    H231001   2.467   1.546   7.965 -1.7380 -0.6031  0.9115
 3148TIP3   OH231002   4.690   5.904   0.923 -0.4812 -0.1714 -0.2586
 3148TIP3    H131003   4.613   5.879   0.974 -0.7366  1.1322  0.0395
 3148TIP3    H231004   4.733   5.972   0.975 -0.6608  1.0921 -1.6604
 3149TIP3   OH231005   3.317   0.541   2.608 -0.0657  0.1487  0.2380
 3149TIP3    H131006   3.333   0.485   2.684  0.2362 -0.1249 -0.0248
 3149TIP3    H231007   3.229   0.516   2.578 -0.6947  1.1165  1.2254
 3150TIP3   OH231008   5.774   6.193   0.953 -0.1177  0.4681 -0.2977
 3150TIP3    H131009   5.718   6.268   0.936 -0.4245  0.3733  0.2542
 3150TIP3    H231010   5.863   6.227   0.945 -0.2031  0.1978 -3.0133
 3151TIP3   OH231011   6.817   5.117   8.332  0.0999  0.3711 -0.1229
 3151TIP3    H131012   6.892   5.102   8.389 -0.0018 -0.0412 -0.0965
 3151TIP3    H231013   6.825   5.208   8.305  0.6789  0.2935 -0.2155
 3152TIP3   OH231014   4.613   5.439   2.655  0.0766 -0.3639 -0.1853
 3152TIP3    H131015   4.537   5.380   2.648 -0.3099  0.2443 -1.5630
 3152TIP3    H231016   4.665   5.420   2.577 -1.0210  2.3734 -1.7077
 3153TIP3   OH231017   4.929   4.732   7.835 -0.4686 -0.1718  0.1097
 3153TIP3    H131018   4.907   4.799   7.769  0.3464  0.6285  0.6334
 3153TIP3    H231019   4.971   4.662   7.785  0.4560  0.5805 -0.1936
 3154TIP3   OH231020   5.486   3.004   2.615  0.9477 -0.7392  0.0965
 3154TIP3    H131021   5.479   3.015   2.710  2.1107  1.0877  0.0179
 3154TIP3    H231022   5.477   2.909   2.602  1.1054 -1.0760  2.0491
 3155TIP3   OH231023   6.483   4.988   7.121  0.3197 -0.0652  0.3823
 3155TIP3    H131024   6.475   4.966   7.029 -0.3829 -0.9595  0.6418
 3155TIP3    H231025   6.515   4.908   7.163  0.6057  0.3184  0.9195
 3156TIP3   OH231026   1.180   4.869   0.464 -0.2949 -0.3790 -0.5320
 3156TIP3    H131027   1.119   4.917   0.408  0.2495  0.5653 -0.3379
 3156TIP3    H231028   1.162   4.902   0.552  0.5986  0.0344 -0.4962
 3157TIP3   OH231029   4.254   4.101   0.304  0.3116 -0.5234 -0.0470
 3157TIP3    H131030   4.161   4.081   0.299  0.1447 -0.4569  1.8945
 3157TIP3    H231031   4.297   4.031   0.254 -0.7485 -0.7797 -0.6222
 3158TIP3   OH231032   2.279   6.856   7.799  0.0935 -0.0469  0.3175
 3158TIP3    H131033   2.318   6.769   7.797 -0.1676 -0.1587 -1.2659
 3158TIP3    H231034   2.187   6.841   7.818 -0.1780 -0.2507 -1.0176
 3159TIP3   OH231035   6.158   5.596   3.975 -0.0975 -0.1107  0.1982
 3159TIP3    H131036   6.245   5.558   3.964  0.6127  1.3027  0.6784
 3159TIP3    H231037   6.162   5.679   3.928 -1.8159 -0.8463 -1.3796
 3160TIP3   OH231038   3.766   5.865   3.228  0.1750  0.2023  0.9118
 3160TIP3    H131039   3.852   5.867   3.188 -1.1824  1.2174 -2.2709
 3160TIP3    H231040   3.754   5.953   3.265  0.0820  0.4581  0.2870
 3161TIP3   OH231041   5.045   5.917   1.148 -0.0465 -0.1640 -0.0505
 3161TIP3    H131042   5.101   5.869   1.209 -3.0755 -1.2838  2.0944
 3161TIP3    H231043   5.008   5.988   1.199  0.1315  1.1896 -1.7013
 3162TIP3   OH231044   2.572   5.113   8.293 -0.2276 -0.9151 -0.3180
 3162TIP3    H131045   2.654   5.101   8.342  0.7994 -1.4612 -2.0850
 3162TIP3    H231046   2.590   5.186   8.234 -0.9253 -1.2319 -0.9366
 3163TIP3   OH231047   0.251   4.114   2.919 -0.4870 -0.7746  0.2397
 3163TIP3    H131048   0.339   4.083   2.942  0.1753 -0.8318 -2.1617
 3163TIP3    H231049   0.223   4.165   2.996  2.3400  0.6847  0.4361
 3164TIP3   OH231050   1.877   4.202   8.373 -0.0133 -0.1304  0.8657
 3164TIP3    H131051   1.961   4.155   8.368  0.0572  0.1072 -0.8621
 3164TIP3    H231052   1.813   4.140   8.338  0.0256  0.8735 -1.1271
 3165TIP3   OH231053   3.038   0.749   1.238  0.3280 -0.8966 -0.1501
 3165TIP3    H131054   3.020   0.736   1.331 -1.2289 -1.6549 -0.5269
 3165TIP3    H231055   3.110   0.688   1.220  0.3735 -1.0421  0.4709
 3166TIP3   OH231056   3.709   4.204   2.781  0.3348 -0.2140  0.7070
 3166TIP3    H131057   3.711   4.163   2.868 -2.3152  0.2621  1.0729
 3166TIP3    H231058   3.648   4.277   2.790  2.3181  1.7534 -0.8271
 3167TIP3   OH231059   5.399   4.678   1.602  0.5845 -0.0420  0.0417
 3167TIP3    H131060   5.365   4.609   1.659 -0.8224  0.5781 -0.0058
 3167TIP3    H231061   5.363   4.657   1.516 -0.5824  1.1775  0.1910
 3168TIP3   OH231062   3.438   4.699   2.934  0.6552 -0.1999 -0.3156
 3168TIP3    H131063   3.384   4.746   2.999  1.4022  2.3094 -1.3973
 3168TIP3    H231064   3.512   4.667   2.985  0.4400  0.3449  0.3741
 3169TIP3   OH231065   1.309   3.520   0.320  0.4943  0.1152 -0.2756
 3169TIP3    H131066   1.239   3.585   0.314  0.6204  0.6744  2.7503
 3169TIP3    H231067   1.268   3.438   0.295 -0.3023  0.9530 -1.8520
 3170TIP3   OH231068   6.296   1.165   2.992 -0.1884 -0.2186 -0.5812
 3170TIP3    H131069   6.391   1.166   2.983 -0.1015  0.9669  0.2703
 3170TIP3    H231070   6.264   1.145   2.904  0.8498 -1.6128 -0.6799
 3171TIP3   OH231071   1.325   2.891   1.881 -0.2437 -0.4416  0.1697
 3171TIP3    H131072   1.231   2.913   1.879 -0.1398 -0.0111 -0.4185
 3171TIP3    H231073   1.327   2.795   1.881 -0.6916 -0.4576  1.1550
 3172TIP3   OH231074   2.475   3.965   1.604  0.1661 -0.1694 -0.1108
 3172TIP3    H131075   2.542   3.957   1.537  0.9920 -2.4745  0.8727
 3172TIP3    H231076   2.426   3.883   1.599 -0.4285  0.0571  1.3612
 3173TIP3   OH231077   0.819   1.896   8.299 -0.2652  0.3870 -0.0221
 3173TIP3    H131078   0.833   1.840   8.223  1.6990  1.1765 -0.3019
 3173TIP3    H231079   0.873   1.973   8.283  0.5225  0.4143  2.3560
 3174TIP3   OH231080   0.876   0.381   0.656 -0.0124 -0.5650  0.2344
 3174TIP3    H131081   0.844   0.403   0.744  1.8319  0.2718  0.7421
 3174TIP3    H231082   0.801   0.396   0.599 -1.9285 -3.0892  1.8353
 3175TIP3   OH231083   6.712   4.202   8.246  0.2753  0.2916 -0.3325
 3175TIP3    H131084   6.789   4.146   8.236  1.0343  0.8883  1.6439
 3175TIP3    H231085   6.744   4.289   8.221 -0.1689  0.3108 -0.8494
 3176TIP3   OH231086   5.920   6.170   2.776  0.2041 -0.1661 -0.3065
 3176TIP3    H131087   5.923   6.161   2.681  1.1341  0.5082 -0.3552
 3176TIP3    H231088   5.827   6.171   2.797 -0.0638  1.7037 -1.4267
 3177TIP3   OH231089   4.675   0.330   0.821 -0.1295  0.4938  0.9042
 3177TIP3    H131090   4.625   0.411   0.826  0.0477  0.6955 -0.3241
 3177TIP3    H231091   4.668   0.292   0.909 -3.1223  0.0941  0.5902
 3178TIP3   OH231092   0.703   2.539   1.737  0.1790  0.1500  0.2866
 3178TIP3    H131093   0.763   2.466   1.749 -0.6295 -0.6455 -0.3999
 3178TIP3    H231094   0.750   2.600   1.680  1.5311  0.9980  2.2057
 3179TIP3   OH231095   0.230   5.170   0.985 -0.2928 -0.7588 -0.2160
 3179TIP3    H131096   0.141   5.156   0.951 -0.1305 -3.4066  0.1927
 3179TIP3    H231097   0.226   5.254   1.029 -1.7340  0.6553 -2.8071
 3180TIP3   OH231098   4.454   1.503   8.303  0.1905 -0.2764 -0.0227
 3180TIP3    H131099   4.509   1.529   8.229 -1.9653 -0.7570 -1.9174
 3180TIP3    H231100   4.504   1.529   8.381  1.3341  3.0053 -1.6442
 3181TIP3   OH231101   5.737   2.564   2.287  0.5388 -0.3022  0.0428
 3181TIP3    H131102   5.781   2.513   2.355  1.3275 -0.6543 -0.7080
 3181TIP3    H231103   5.749   2.655   2.314  2.0828 -0.3688 -0.3262
 3182TIP3   OH231104   2.693   1.158   1.226 -0.2964  0.5918  0.2719
 3182TIP3    H131105   2.722   1.084   1.279 -0.9700 -1.1098 -1.5832
 3182TIP3    H231106   2.742   1.233   1.260  2.5437 -1.2000  0.4858
 3183TIP3   OH231107   2.876   3.403   1.436  0.1439  0.1011 -0.7356
 3183TIP3    H131108   2.845   3.318   1.403 -0.4170  0.0165  0.0058
 3183TIP3    H231109   2.964   3.384   1.470 -1.0812 -0.8918  2.1838
 3184TIP3   OH231110   6.571   0.407   1.602  0.1561 -0.3798  0.0523
 3184TIP3    H131111   6.628   0.421   1.677 -0.2712 -0.6957  0.4425
 3184TIP3    H231112   6.560   0.494   1.563 -0.5638 -0.0100  1.0483
 3185TIP3   OH231113   0.093   6.865   2.552 -0.1546 -0.1567 -0.0430
 3185TIP3    H131114   0.146   6.798   2.508 -0.2312  0.4486 -1.1108
 3185TIP3    H231115   0.025   6.887   2.488  0.8951  2.1771 -0.4731
 3186TIP3   OH231116   3.523   3.667   0.365  0.2761 -0.8121 -0.4024
 3186TIP3    H131117   3.590   3.726   0.331 -0.9373 -0.3117 -2.0331
 3186TIP3    H231118   3.489   3.711   0.442  0.0186  0.1995 -1.0736
 3187TIP3   OH231119   0.600   4.136   2.827  0.1083  0.0420  0.2193
 3187TIP3    H131120   0.616   4.044   2.806 -0.4990 -0.3165  1.2406
 3187TIP3    H231121   0.586   4.137   2.921  0.4409  1.2438  0.2758
 3188TIP3   OH231122   5.144   3.377   2.251  0.6286 -0.1823  0.1417
 3188TIP3    H131123   5.188   3.325   2.318 -0.9363 -0.8412  0.6988
 3188TIP3    H231124   5.053   3.348   2.254  0.3629  0.3328 -1.7424
 3189TIP3   OH231125   5.562   0.008   1.406 -0.3097 -0.0647  0.3688
 3189TIP3    H131126   5.526   0.086   1.448 -1.7855 -0.3552 -0.2916
 3189TIP3    H231127   5.488  -0.053   1.399  0.0278 -0.3373 -1.8801
 3190TIP3   OH231128   1.594   2.623   2.129 -0.3625 -0.1567  0.6294
 3190TIP3    H131129   1.538   2.586   2.198 -2.3380  0.9618 -0.2964
 3190TIP3    H231130   1.628   2.704   2.166 -1.8009  0.6863  0.1957
 3191TIP3   OH231131   4.081   4.624   0.741 -0.2350 -0.5201 -0.2408
 3191TIP3    H131132   4.007   4.684   0.731 -0.4453 -0.8783 -0.9377
 3191TIP3    H231133   4.117   4.643   0.828  0.9180  1.9872 -1.1629
 3192TIP3   OH231134   2.833   2.456   2.882 -0.7555 -0.3170  0.3693
 3192TIP3    H131135   2.772   2.519   2.921 -0.0090  1.0112 -0.5266
 3192TIP3    H231136   2.777   2.382   2.857 -2.0365  0.8364 -0.3815
 3193TIP3   OH231137   2.517   0.921   1.067  0.5076  0.6962 -0.1421
 3193TIP3    H131138   2.588   0.870   1.106  0.7962 -1.2325 -2.8586
 3193TIP3    H231139   2.438   0.875   1.094  0.4799  1.2324  0.6950
 3194TIP3   OH231140   0.145   0.051   2.161  0.3386  0.3324 -0.0968
 3194TIP3    H131141   0.174   0.054   2.252 -0.7105 -0.6282  0.2925
 3194TIP3    H231142   0.223   0.074   2.110  1.9547 -2.5985  0.8565
 3195TIP3   OH231143   0.825   5.654   1.443 -0.3008  0.1093 -0.1836
 3195TIP3    H131144   0.815   5.717   1.514 -1.0782  0.0934 -0.2700
 3195TIP3    H231145   0.917   5.661   1.418 -0.2786  0.9042  0.0835
 3196TIP3   OH231146   6.569   3.674   3.727  0.7328 -0.3677 -0.3254
 3196TIP3    H131147   6.545   3.761   3.693  0.0693 -0.4546 -0.0995
 3196TIP3    H231148   6.506   3.615   3.687 -0.0493 -0.4743  1.0076
 3197TIP3   OH231149   0.719   1.446   8.159 -0.0949 -0.3394 -0.9614
 3197TIP3    H131150   0.775   1.450   8.081  0.1982  0.3079 -0.7216
 3197TIP3    H231151   0.676   1.532   8.161 -2.3340 -1.3399 -2.0408
 3198TIP3   OH231152   5.644   0.214   8.095 -0.0368 -0.5608 -0.0991
 3198TIP3    H131153   5.694   0.184   8.019  0.6730 -0.1213  0.1800
 3198TIP3    H231154   5.590   0.139   8.119  1.6475 -1.6465  0.5491
 3199TIP3   OH231155   1.492   4.736   3.162 -0.1580  0.4751 -0.0570
 3199TIP3    H131156   1.537   4.816   3.134  1.7587 -0.1445  1.0454
 3199TIP3    H231157   1.527   4.718   3.249 -0.8878 -1.3175 -0.0847
 3200TIP3   OH231158   1.780   6.203   2.936  0.0128 -0.5264 -0.0195
 3200TIP3    H131159   1.769   6.119   2.980  0.4821 -0.7673 -0.3500
 3200TIP3    H231160   1.750   6.268   3.000  0.8826 -0.8543  0.7437
 3201TIP3   OH231161   3.652   5.259   2.993  0.2360 -0.0968  0.2343
 3201TIP3    H131162   3.651   5.345   2.950 -1.0418 -0.6710 -0.9680
 3201TIP3    H231163   3.593   5.270   3.068 -0.2369 -0.0256 -0.1433
 3202TIP3   OH231164   3.699   0.489   2.421  0.0611  0.7528 -0.1261
 3202TIP3    H131165   3.761   0.418   2.404 -0.7258  0.0290 -0.0488
 3202TIP3    H231166   3.724   0.523   2.506  0.7175  0.8563 -0.3571
 3203TIP3   OH231167   5.747   5.155   3.497  0.0246  0.0205 -0.0542
 3203TIP3    H131168   5.759   5.097   3.422 -0.3889 -1.5460  1.0317
 3203TIP3    H231169   5.802   5.116   3.566 -1.4294  0.0346  1.1562
 3204TIP3   OH231170   3.703   5.228   1.528 -0.6652  1.2653 -0.3902
 3204TIP3    H131171   3.657   5.302   1.489 -2.0239  0.0816 -1.1476
 3204TIP3    H231172   3.669   5.223   1.618  0.4607  2.3675  0.1179
 3205TIP3   OH231173   1.353   4.067   1.218 -0.2080 -0.0923 -0.5987
 3205TIP3    H131174   1.433   4.118   1.231  0.8222 -1.3484 -1.7939
 3205TIP3    H231175   1.288   4.132   1.191 -0.0610  1.1864  1.8160
 3206TIP3   OH231176   6.559   6.503   8.325  0.1027  0.2803 -0.3370
 3206TIP3    H131177   6.498   6.434   8.349 -0.3113  0.5547 -0.5904
 3206TIP3    H231178   6.516   6.551   8.255 -0.1041  1.4776  0.5698
 3207TIP3   OH231179   4.270   1.770   2.739 -0.1766 -0.1392 -0.3024
 3207TIP3    H131180   4.262   1.852   2.787  0.7403 -0.6111  0.7076
 3207TIP3    H231181   4.194   1.718   2.765  0.9517 -0.8982  1.7368
 3208TIP3   OH231182   2.322   0.328   1.981  0.0052 -0.0103 -0.0607
 3208TIP3    H131183   2.269   0.353   2.057  1.7161 -0.2068  1.2530
 3208TIP3    H231184   2.342   0.235   1.995 -0.6226 -0.3694 -1.3818
 3209TIP3   OH231185   5.105   5.176   2.271 -0.5790  0.4217 -0.0834
 3209TIP3    H131186   5.132   5.105   2.329 -0.6597 -0.7957 -1.4692
 3209TIP3    H231187   5.182   5.194   2.217 -1.1034  0.0913 -0.9718
 3210TIP3   OH231188   4.150   1.614   8.439 -0.8577  0.3427  0.1557
 3210TIP3    H131189   4.075   1.584   8.490 -0.5721 -0.2136  0.2570
 3210TIP3    H231190   4.129   1.704   8.415 -2.1388 -0.2145 -0.9192
 3211TIP3   OH231191   1.172   2.811   3.213 -0.0660  0.2201 -0.1058
 3211TIP3    H131192   1.261   2.784   3.191  0.9128  1.6218  1.7852
 3211TIP3    H231193   1.132   2.733   3.251  0.2424 -0.4922 -1.1895
 3212TIP3   OH231194   3.707   5.252   1.198 -0.3967  0.5235  0.1045
 3212TIP3    H131195   3.626   5.244   1.249 -1.0306  2.2246 -0.5672
 3212TIP3    H231196   3.714   5.345   1.179  0.6150  0.1255 -1.6482
 3213TIP3   OH231197   2.911   6.093   0.044 -0.1873  0.0080  0.3822
 3213TIP3    H131198   2.899   6.051   0.129  1.1197  0.6544  0.9138
 3213TIP3    H231199   2.853   6.046  -0.015 -0.8429 -0.6910  1.5559
 3214TIP3   OH231200   2.829   0.519   7.895 -0.3169 -0.2160 -0.6757
 3214TIP3    H131201   2.918   0.506   7.862 -0.2248  0.1848 -0.5821
 3214TIP3    H231202   2.790   0.583   7.834 -0.1305  0.5690  0.0208
 3215TIP3   OH231203   2.907   5.147   1.840  0.0362 -0.4276 -0.4259
 3215TIP3    H131204   2.964   5.101   1.779 -0.5916 -0.7990 -0.7361
 3215TIP3    H231205   2.824   5.101   1.836 -0.2792  0.0762  0.0652
 3216TIP3   OH231206   4.874   1.641   0.626 -0.5363 -0.7110  0.2192
 3216TIP3    H131207   4.860   1.717   0.683 -0.6944 -0.3633 -0.2804
 3216TIP3    H231208   4.954   1.601   0.661  1.3593  1.4339 -1.3480
 3217TIP3   OH231209   0.938   5.810   1.814  0.0581  0.4356  0.3824
 3217TIP3    H131210   0.864   5.869   1.801 -0.0167  0.8257  2.2319
 3217TIP3    H231211   1.015   5.865   1.803  0.0700  0.1868 -0.8486
 3218TIP3   OH231212   6.247   5.370   8.303 -0.1715 -0.3786 -0.1163
 3218TIP3    H131213   6.285   5.314   8.371 -0.4508 -0.4250  0.0034
 3218TIP3    H231214   6.189   5.430   8.351 -1.7629 -1.5699 -0.4865
 3219TIP3   OH231215   5.895   2.283   7.767 -0.5605 -0.4093  0.8273
 3219TIP3    H131216   5.908   2.192   7.742 -1.3052 -0.6169  1.1600
 3219TIP3    H231217   5.984   2.320   7.773 -0.2919 -0.8925 -0.0846
 3220TIP3   OH231218   4.445   3.817   1.659  0.4152 -0.3610 -0.1684
 3220TIP3    H131219   4.489   3.862   1.731 -0.9719 -1.5828  1.5354
 3220TIP3    H231220   4.429   3.729   1.692 -1.0672 -0.6892 -1.6207
 3221TIP3   OH231221   5.660   0.853   1.631  0.6360 -0.2296  0.9807
 3221TIP3    H131222   5.658   0.781   1.567  1.2899  0.5667  0.0364
 3221TIP3    H231223   5.584   0.837   1.687  1.6092 -2.5160  1.7693
 3222TIP3   OH231224   4.990   2.587   8.484 -0.3031  0.3964  0.2242
 3222TIP3    H131225   5.024   2.651   8.422  2.5743 -0.2635  0.9769
 3222TIP3    H231226   4.913   2.629   8.522 -0.3576  2.0449 -1.5543
 3223TIP3   OH231227   4.242   5.958   1.061 -0.0582  0.4504  0.3740
 3223TIP3    H131228   4.241   6.004   1.145  0.9324  0.9658  0.1168
 3223TIP3    H231229   4.228   6.026   0.995 -1.8736 -0.0921  0.1465
 3224TIP3   OH231230   5.572   4.627   1.217  0.2922 -0.2953 -0.0067
 3224TIP3    H131231   5.508   4.698   1.217 -1.7252 -2.0025 -0.6652
 3224TIP3    H231232   5.529   4.556   1.266  2.0453 -1.2428  0.2527
 3225TIP3   OH231233   1.314   3.250   2.037  0.1474  0.3931  0.5932
 3225TIP3    H131234   1.339   3.236   1.946 -1.4997  2.6424 -0.3255
 3225TIP3    H231235   1.239   3.309   2.032 -0.2482  0.2782  3.4177
 3226TIP3   OH231236   3.198   2.269   1.965 -0.4997  0.0621  0.0342
 3226TIP3    H131237   3.153   2.314   2.036  0.4218  1.5840 -0.3120
 3226TIP3    H231238   3.282   2.242   2.003 -0.3972  0.0394 -0.2069
 3227TIP3   OH231239   3.617   1.550   1.355 -0.0545  0.3477 -0.6319
 3227TIP3    H131240   3.660   1.592   1.281 -0.7566  1.1515 -0.5854
 3227TIP3    H231241   3.651   1.596   1.432  1.8382 -1.4576 -0.2849
 3228TIP3   OH231242   5.027   3.431   8.161  0.2330  0.3119 -0.3343
 3228TIP3    H131243   5.107   3.475   8.134  0.4167 -0.5625 -1.2816
 3228TIP3    H231244   4.979   3.416   8.080  0.2483 -1.3404 -0.0702
 3229TIP3   OH231245   1.612   2.313   3.417  0.2787  0.2035  0.4334
 3229TIP3    H131246   1.589   2.260   3.494  1.6909  0.1096  0.8061
 3229TIP3    H231247   1.696   2.353   3.439 -0.4778  2.2035 -0.0600
 3230TIP3   OH231248   3.716   0.267   0.318 -0.2202 -0.1256  0.5034
 3230TIP3    H131249   3.778   0.215   0.370  0.6586 -0.1148 -0.4994
 3230TIP3    H231250   3.686   0.206   0.250 -0.4089  0.2278  0.2711
 3231TIP3   OH231251   1.628   3.984   0.893 -0.0428 -0.0556 -0.3201
 3231TIP3    H131252   1.715   3.993   0.854  0.1891  0.8624  0.3567
 3231TIP3    H231253   1.593   3.903   0.856  0.6838  0.0987 -1.3918
 3232TIP3   OH231254   4.627   5.228   1.033  0.7037  0.6100  0.5025
 3232TIP3    H131255   4.682   5.257   1.106 -1.1718  1.2308  1.7413
 3232TIP3    H231256   4.613   5.307   0.981 -0.1317  0.7676  0.9606
 3233TIP3   OH231257   6.011   2.828   3.163  0.2372  0.2249 -0.7096
 3233TIP3    H131258   5.973   2.792   3.082 -0.1631 -0.6692 -0.1380
 3233TIP3    H231259   6.030   2.751   3.216  2.8731  0.6004 -0.9468
 3234TIP3   OH231260   6.904   3.265   0.484  0.2106  0.7119 -0.6348
 3234TIP3    H131261   6.850   3.307   0.551  0.0682 -1.3148  0.6118
 3234TIP3    H231262   6.913   3.331   0.415 -1.3049  2.1679  0.4845
 3235TIP3   OH231263   4.726   4.414   3.196 -0.3753 -0.5302 -0.2963
 3235TIP3    H131264   4.716   4.319   3.203 -2.2556 -0.3370  0.1328
 3235TIP3    H231265   4.638   4.449   3.211  0.0822  1.2456 -1.3978
 3236TIP3   OH231266   5.665   1.873   3.591 -0.1098 -0.4157 -0.1697
 3236TIP3    H131267   5.623   1.829   3.664  0.2039  0.5771  0.6464
 3236TIP3    H231268   5.604   1.865   3.518 -2.6571  2.4914  1.4104
 3237TIP3   OH231269   3.681   6.539   1.054 -0.1454  0.3242 -0.6825
 3237TIP3    H131270   3.694   6.568   1.144  0.4943 -1.8362 -0.0396
 3237TIP3    H231271   3.622   6.605   1.016  1.1011  2.3356  0.6968
 3238TIP3   OH231272   5.958   1.637   7.150 -0.0978  0.2126  0.1816
 3238TIP3    H131273   6.016   1.623   7.225  1.0006  0.1405 -0.6592
 3238TIP3    H231274   6.002   1.592   7.077 -0.6370  1.1285 -0.7311
 3239TIP3   OH231275   2.954   4.409   2.825  0.4876  0.0243  0.1894
 3239TIP3    H131276   2.991   4.325   2.796  0.7050  0.7403 -1.7991
 3239TIP3    H231277   3.025   4.451   2.873  0.8809 -0.3200 -0.0784
 3240TIP3   OH231278   4.339   4.054   1.084 -0.5785  0.1231 -0.0244
 3240TIP3    H131279   4.388   4.136   1.087  2.3765 -1.5027  0.5817
 3240TIP3    H231280   4.309   4.040   1.174 -0.5070  0.2321  0.0160
 3241TIP3   OH231281   3.287   5.701   1.724 -0.2254 -0.0868 -0.2412
 3241TIP3    H131282   3.234   5.757   1.667  0.4640  0.8278 -0.0194
 3241TIP3    H231283   3.365   5.754   1.742 -0.4083 -0.3724  1.5185
 3242TIP3   OH231284   6.641   2.518   0.513  0.3543 -0.3130  0.8099
 3242TIP3    H131285   6.717   2.491   0.460  1.3190  1.1075  1.4103
 3242TIP3    H231286   6.588   2.570   0.453  0.3632 -0.4732  0.6617
 3243TIP3   OH231287   0.856   5.415   2.154  0.1753  0.4959 -0.0267
 3243TIP3    H131288   0.933   5.423   2.097 -0.2211 -1.2118 -0.8966
 3243TIP3    H231289   0.855   5.495   2.206  2.4105  0.6576 -0.1530
 3244TIP3   OH231290   1.657   1.801   8.426  0.0337 -0.0395 -0.3158
 3244TIP3    H131291   1.674   1.757   8.509 -0.6716 -1.1229 -0.7064
 3244TIP3    H231292   1.571   1.841   8.437 -0.3363 -0.6974 -0.6965
 3245TIP3   OH231293   5.056   3.057   3.366 -0.0079 -0.1917  0.1622
 3245TIP3    H131294   5.009   3.138   3.344  0.4963  0.0744  0.0524
 3245TIP3    H231295   4.988   2.998   3.399 -0.1748  0.8047  1.7323
 3246TIP3   OH231296   5.912   2.386   2.735  0.3251  0.2138  0.0581
 3246TIP3    H131297   6.000   2.401   2.769  0.2976  1.0413 -0.2296
 3246TIP3    H231298   5.858   2.374   2.813  0.4839  0.8919  0.2798
 3247TIP3   OH231299   6.434   1.024   0.245 -0.2145 -0.2580  0.2070
 3247TIP3    H131300   6.435   0.934   0.211  2.1831 -0.1765 -0.0810
 3247TIP3    H231301   6.341   1.042   0.261 -0.6610 -3.4741  2.1582
 3248TIP3   OH231302   4.747   4.370   1.353 -0.0052  0.6217 -0.2334
 3248TIP3    H131303   4.716   4.311   1.285  2.9585 -0.8248 -0.5000
 3248TIP3    H231304   4.721   4.327   1.435  2.3751 -1.3781 -0.4157
 3249TIP3   OH231305   2.839   1.373   0.826  0.6019 -0.1787  0.1791
 3249TIP3    H131306   2.758   1.400   0.783  1.7349 -0.2968 -2.1738
 3249TIP3    H231307   2.824   1.281   0.850 -0.0446 -0.1096  0.0576
 3250TIP3   OH231308   1.568   6.324   2.151  0.2567  0.0450  0.9115
 3250TIP3    H131309   1.596   6.325   2.059  2.6406 -0.0297  1.5805
 3250TIP3    H231310   1.525   6.238   2.161  0.3301 -0.1189 -0.0183
 3251TIP3   OH231311   6.593   0.639   8.450  0.6024 -0.1571  0.1315
 3251TIP3    H131312   6.659   0.683   8.397 -1.4603  0.1281 -2.3583
 3251TIP3    H231313   6.631   0.553   8.469  2.3492  0.5962  0.2244
 3252TIP3   OH231314   3.367   6.390   0.219 -0.2562  0.2168 -0.3229
 3252TIP3    H131315   3.354   6.301   0.253 -0.2574  0.2357 -0.2732
 3252TIP3    H231316   3.449   6.384   0.168 -0.7860 -0.0594 -1.1670
 3253TIP3   OH231317   1.738   2.402   0.039  0.4037 -0.1568  0.3279
 3253TIP3    H131318   1.757   2.373  -0.050  0.7508 -1.5931  0.8279
 3253TIP3    H231319   1.724   2.496   0.032  0.3674 -0.2570 -1.2442
 3254TIP3   OH231320   4.422   1.110   7.515 -0.1655  0.4097  0.4234
 3254TIP3    H131321   4.460   1.092   7.601 -0.0113  0.0842  0.2849
 3254TIP3    H231322   4.328   1.096   7.527  0.0638 -1.8165 -0.0089
 3255TIP3   OH231323   4.457   3.596   0.303  0.8092 -0.2545 -0.5305
 3255TIP3    H131324   4.430   3.506   0.320  0.1608 -0.0346 -0.3223
 3255TIP3    H231325   4.479   3.598   0.210 -0.0649 -0.4168 -0.7488
 3256TIP3   OH231326   0.284   1.993   0.850 -0.0773 -0.4400 -0.1841
 3256TIP3    H131327   0.205   1.957   0.809  0.1647 -0.7756 -0.3637
 3256TIP3    H231328   0.253   2.034   0.930 -0.4338 -0.5820 -0.2458
 3257TIP3   OH231329   3.596   3.624   1.548 -0.1922 -0.0660 -0.1497
 3257TIP3    H131330   3.687   3.619   1.519  0.1867 -0.1099  0.9826
 3257TIP3    H231331   3.557   3.693   1.494  0.7559  0.5816 -0.0381
 3258TIP3   OH231332   2.236   1.852   2.878 -0.2526 -0.4720  0.2417
 3258TIP3    H131333   2.324   1.887   2.889  0.3022 -1.9857  0.8221
 3258TIP3    H231334   2.231   1.779   2.939 -0.0492 -3.8043 -3.3068
 3259TIP3   OH231335   0.502   6.252   0.716  0.1532 -0.6717  0.6300
 3259TIP3    H131336   0.427   6.195   0.699 -2.3541  2.0044  1.7439
 3259TIP3    H231337   0.535   6.224   0.801 -0.2935 -1.1813  0.6389
 3260TIP3   OH231338   1.859   1.722   1.143  0.1756  0.1558  0.3456
 3260TIP3    H131339   1.799   1.728   1.218  1.3866  1.0220  1.2873
 3260TIP3    H231340   1.813   1.766   1.072 -0.5656  0.2556  0.8767
 3261TIP3   OH231341   3.234   2.018   0.504 -0.4552 -0.0581 -0.1612
 3261TIP3    H131342   3.300   2.034   0.571 -0.6275  0.8622 -0.1971
 3261TIP3    H231343   3.269   1.946   0.452 -0.4366 -0.9621  1.0633
 3262TIP3   OH231344   1.159   2.887   2.550  0.6020  0.6127 -0.2371
 3262TIP3    H131345   1.190   2.940   2.476  1.1089  0.2607 -0.2838
 3262TIP3    H231346   1.155   2.798   2.515 -0.8788  0.6955 -0.3527
 3263TIP3   OH231347   0.947   6.017   2.499  0.4374 -0.1811 -0.2643
 3263TIP3    H131348   0.860   5.984   2.477 -0.8545  0.2122  3.5542
 3263TIP3    H231349   0.990   5.945   2.545  0.6822  0.7740  1.0724
 3264TIP3   OH231350   3.602   6.383   1.780  0.3871  0.4368 -0.3809
 3264TIP3    H131351   3.508   6.390   1.801  0.7215 -0.6141  1.8029
 3264TIP3    H231352   3.627   6.470   1.751 -0.5058  1.8383  2.6417
 3265TIP3   OH231353   1.301   1.102   2.005  0.1391 -0.6337  0.0569
 3265TIP3    H131354   1.265   1.074   1.921 -2.8385 -1.0399  1.3371
 3265TIP3    H231355   1.282   1.196   2.010  0.3870 -0.5911  0.2555
 3266TIP3   OH231356   2.069   1.917   2.284 -0.3682  0.2645 -0.0241
 3266TIP3    H131357   2.073   1.915   2.188  2.6529 -1.5376 -0.0032
 3266TIP3    H231358   2.003   1.851   2.307  0.2246 -0.6587 -0.8837
 3267TIP3   OH231359   1.300   4.386   2.982 -0.1492 -0.3820 -0.7402
 3267TIP3    H131360   1.372   4.385   2.919  1.0251  0.5440  0.5164
 3267TIP3    H231361   1.322   4.318   3.045  0.1537  0.5262  0.1660
 3268TIP3   OH231362   0.305   1.526   1.464  0.1269  0.0509  0.4550
 3268TIP3    H131363   0.392   1.565   1.455 -0.9094  2.3652 -0.2698
 3268TIP3    H231364   0.283   1.497   1.376 -0.5205  1.1183  0.2457
 3269TIP3   OH231365   5.394   4.040   1.489 -0.4153 -0.0044  0.0342
 3269TIP3    H131366   5.317   3.990   1.460 -0.8768  1.4832 -1.5020
 3269TIP3    H231367   5.358   4.119   1.529  0.3102  0.1112  0.4738
 3270TIP3   OH231368   5.484   3.041   1.637 -0.3314  0.8471  0.4567
 3270TIP3    H131369   5.556   3.097   1.667 -1.5193  1.9399  1.3718
 3270TIP3    H231370   5.515   2.952   1.653  0.1950  1.3284  2.4121
 3271TIP3   OH231371   6.472   0.033   3.509 -1.1100  0.0070  0.3577
 3271TIP3    H131372   6.441  -0.045   3.555 -1.3133 -0.6001 -0.7533
 3271TIP3    H231373   6.560   0.048   3.542 -0.1936 -2.0088 -0.9237
 3272TIP3   OH231374   5.639   4.527   3.389 -0.0271 -0.5983  0.1548
 3272TIP3    H131375   5.723   4.489   3.363 -0.3476 -1.5432  0.4845
 3272TIP3    H231376   5.653   4.622   3.381  0.1645 -0.7700 -2.5875
 3273TIP3   OH231377   3.591   1.842   2.857 -0.0847 -0.4990  0.7796
 3273TIP3    H131378   3.560   1.899   2.787  1.8398  1.4841  1.4421
 3273TIP3    H231379   3.627   1.902   2.923  0.9303 -2.4304  2.0745
 3274TIP3   OH231380   6.729   0.162   3.576 -0.0578  0.6536 -0.1625
 3274TIP3    H131381   6.766   0.083   3.615  0.9136  0.8957 -0.5654
 3274TIP3    H231382   6.702   0.215   3.650  1.3855  0.9292  0.2041
 3275TIP3   OH231383   4.882   2.333   8.337  0.4846 -0.1454  0.4088
 3275TIP3    H131384   4.824   2.383   8.280 -0.9762 -0.9231  1.1373
 3275TIP3    H231385   4.957   2.390   8.352 -0.6581  1.4201  0.3993
 3276TIP3   OH231386   6.080   3.888   2.398 -0.2816  0.1626 -0.4059
 3276TIP3    H131387   6.145   3.828   2.362 -0.0807  0.4189 -0.4714
 3276TIP3    H231388   6.037   3.926   2.321  0.8688  1.5139 -0.4325
 3277TIP3   OH231389   3.679   2.454   2.837 -0.2260 -0.3515 -0.5887
 3277TIP3    H131390   3.766   2.486   2.813 -0.2968  2.0971  1.8714
 3277TIP3    H231391   3.696   2.369   2.878  1.2130  0.5442  0.8010
 3278TIP3   OH231392   2.052   5.563   0.530  0.4204 -0.0826  0.1381
 3278TIP3    H131393   2.061   5.655   0.554  2.6766  0.2319 -1.5158
 3278TIP3    H231394   2.078   5.515   0.608 -2.8781  0.5132  1.7681
 3279TIP3   OH231395   2.528   6.479   3.378 -0.7566  0.3001  0.0073
 3279TIP3    H131396   2.572   6.460   3.460  1.4912 -0.8292 -1.3608
 3279TIP3    H231397   2.502   6.394   3.343  1.2508  0.3569 -1.8980
 3280TIP3   OH231398   2.506   2.875   7.718 -0.3515 -0.1747  0.3242
 3280TIP3    H131399   2.509   2.866   7.623  0.3434  0.7315  0.2433
 3280TIP3    H231400   2.516   2.969   7.734 -0.2908 -0.3290  1.2920
 3281TIP3   OH231401   5.430   2.050   8.230  0.4075 -0.7121 -0.6341
 3281TIP3    H131402   5.356   2.109   8.241  0.0173 -1.4782  1.2626
 3281TIP3    H231403   5.401   1.985   8.166 -0.7004 -1.1696  0.2922
 3282TIP3   OH231404   1.063   5.902   1.415 -0.1318 -0.2051 -0.3910
 3282TIP3    H131405   1.064   5.831   1.480  1.1351  0.0306 -0.1340
 3282TIP3    H231406   1.101   5.863   1.337  0.5037  0.1702 -0.2700
 3283TIP3   OH231407   2.884   1.200   7.560  0.0836  0.3804  0.5322
 3283TIP3    H131408   2.941   1.277   7.567 -0.6013  0.7918  2.0040
 3283TIP3    H231409   2.944   1.128   7.538  0.3730  1.7359 -4.1364
 3284TIP3   OH231410   1.791   6.596   2.602 -0.2250 -0.5223  0.3259
 3284TIP3    H131411   1.741   6.515   2.609 -2.0331  0.3299 -1.6288
 3284TIP3    H231412   1.725   6.665   2.605  1.2360  0.9048  1.4830
 3285TIP3   OH231413   1.859   3.084   7.317 -0.2850  0.7296 -0.2764
 3285TIP3    H131414   1.888   3.134   7.393 -0.3977  1.2856 -0.5927
 3285TIP3    H231415   1.777   3.043   7.345 -0.6842  1.4784 -0.3028
 3286TIP3   OH231416   1.348   4.302   0.150  0.1117 -0.3866 -0.0043
 3286TIP3    H131417   1.363   4.350   0.232 -1.2537 -3.2539  2.1229
 3286TIP3    H231418   1.401   4.223   0.159 -1.6727 -1.7470 -0.8842
 3287TIP3   OH231419   1.446   6.102   2.413  0.4229 -0.3443  0.3610
 3287TIP3    H131420   1.355   6.099   2.442  0.7839 -1.4925  1.4706
 3287TIP3    H231421   1.474   6.010   2.415  1.0266 -0.2754 -1.9400
 3288TIP3   OH231422   1.767   3.031   7.061  0.2541 -0.5315 -0.1750
 3288TIP3    H131423   1.857   3.063   7.066  0.1007 -0.3172  2.2690
 3288TIP3    H231424   1.721   3.078   7.131 -1.6699 -0.9651 -1.0807
 3289TIP3   OH231425   0.001   0.893   7.732 -0.7303  0.0344  0.7787
 3289TIP3    H131426   0.071   0.827   7.735  0.6127  1.4035  0.6536
 3289TIP3    H231427   0.036   0.967   7.782 -2.3682  0.5274  1.2644
 3290TIP3   OH231428   1.088   3.006   1.057 -0.3869 -0.0270  0.0325
 3290TIP3    H131429   1.095   2.912   1.076 -0.7935 -0.4547 -1.7704
 3290TIP3    H231430   1.002   3.016   1.016  0.4527  0.7755 -1.6226
 3291TIP3   OH231431   5.653   0.533   2.209 -0.3715 -0.5032 -0.0847
 3291TIP3    H131432   5.573   0.514   2.257 -0.2003 -0.5790  0.1680
 3291TIP3    H231433   5.706   0.453   2.217 -0.5547 -0.7097 -0.8212
 3292TIP3   OH231434   0.341   6.055   3.121  0.3563 -0.2709 -0.3937
 3292TIP3    H131435   0.436   6.055   3.107  0.2813 -0.8171 -0.9762
 3292TIP3    H231436   0.319   6.146   3.138  0.6676  0.2702 -2.5842
 3293TIP3   OH231437   0.286   4.516   0.098 -0.8195 -0.1801 -0.1075
 3293TIP3    H131438   0.289   4.476   0.011  1.0107  0.7091 -0.5020
 3293TIP3    H231439   0.256   4.605   0.082  0.3287  0.2535  0.0164
 3294TIP3   OH231440   3.902   0.112   0.468  0.1383  0.2370  0.0215
 3294TIP3    H131441   3.868   0.031   0.505  2.1725 -1.3693 -1.3308
 3294TIP3    H231442   3.961   0.147   0.536 -0.1837  0.1919  0.3246
 3295TIP3   OH231443   4.538   2.139   1.995 -0.7161 -0.6576 -0.1289
 3295TIP3    H131444   4.580   2.223   1.977  1.1744 -1.6118 -0.3618
 3295TIP3    H231445   4.565   2.117   2.084 -0.6079 -1.3676 -0.3352
 3296TIP3   OH231446   0.804   6.432   0.801 -0.3675 -0.5901 -0.3695
 3296TIP3    H131447   0.723   6.459   0.759 -0.1230 -1.2755 -1.3034
 3296TIP3    H231448   0.781   6.354   0.851 -0.4285 -0.3701 -0.0460
 3297TIP3   OH231449   3.586   1.106   1.050  0.3755 -0.4296 -0.3410
 3297TIP3    H131450   3.676   1.077   1.039  0.8002  0.5320  0.4177
 3297TIP3    H231451   3.584   1.195   1.013 -0.5114 -0.8010 -1.2426
 3298TIP3   OH231452   6.494   1.312   3.959 -0.1921  0.4335 -0.3895
 3298TIP3    H131453   6.434   1.296   4.032  0.9173  1.1603  0.7234
 3298TIP3    H231454   6.524   1.225   3.934  0.4828  0.2448  0.9792
 3299TIP3   OH231455   2.078   2.291   3.664 -0.2478 -0.3929 -0.4071
 3299TIP3    H131456   2.066   2.386   3.667 -1.6973 -0.5659  1.6110
 3299TIP3    H231457   2.018   2.258   3.731  0.3045 -2.7325 -1.0023
 3300TIP3   OH231458   2.773   6.382   0.423 -0.2438 -0.0372  0.1948
 3300TIP3    H131459   2.787   6.435   0.501 -0.8927  1.0674 -0.4247
 3300TIP3    H231460   2.860   6.371   0.385 -0.0382  0.1189  0.6129
 3301TIP3   OH231461   3.947   2.057   7.463 -0.5851 -0.1903 -0.0652
 3301TIP3    H131462   4.020   2.115   7.439 -0.2359 -1.2328 -1.7034
 3301TIP3    H231463   3.869   2.112   7.455 -0.1029  0.5813  0.3926
 3302TIP3   OH231464   2.800   4.659   7.824 -0.2378  1.0701 -0.3895
 3302TIP3    H131465   2.869   4.722   7.802  0.9186  0.0054  0.0959
 3302TIP3    H231466   2.819   4.582   7.771  0.7823 -0.3726  1.8787
 3303TIP3   OH231467   3.867   3.766   0.615 -0.3836  0.2883 -0.0692
 3303TIP3    H131468   3.788   3.716   0.637 -0.3893  0.7474  1.0217
 3303TIP3    H231469   3.903   3.792   0.699  0.9169  0.1394 -0.5638
 3304TIP3   OH231470   0.172   4.117   1.898  0.2224  0.2224  0.0608
 3304TIP3    H131471   0.185   4.143   1.989  0.8639  1.6710 -0.4074
 3304TIP3    H231472   0.082   4.083   1.896 -0.1116  0.9701  1.0808
 3305TIP3   OH231473   6.743   2.866   1.515 -0.2382 -0.3501 -0.4750
 3305TIP3    H131474   6.798   2.940   1.540 -0.9610  0.0058  0.0821
 3305TIP3    H231475   6.793   2.821   1.447  0.8569 -0.1794  0.1919
 3306TIP3   OH231476   3.427   3.807   1.791  0.3611 -0.0646 -0.1478
 3306TIP3    H131477   3.352   3.838   1.841 -1.7362 -2.0016 -1.8824
 3306TIP3    H231478   3.403   3.821   1.700  1.7758 -1.4609 -0.7814
 3307TIP3   OH231479   2.591   4.812   2.817  0.1201 -0.4682 -0.0974
 3307TIP3    H131480   2.672   4.828   2.865  0.3927 -1.7979 -0.0771
 3307TIP3    H231481   2.522   4.826   2.881  0.2957  0.9579 -0.1880
 3308TIP3   OH231482   3.142   4.508   8.368  0.1915  0.0017  0.2263
 3308TIP3    H131483   3.085   4.553   8.305  0.1598 -1.3186 -0.7449
 3308TIP3    H231484   3.230   4.519   8.333  0.2974  0.2149  0.5613
 3309TIP3   OH231485   3.999   1.803   7.553 -0.6158 -0.4501  0.2350
 3309TIP3    H131486   4.001   1.876   7.492 -0.1035 -0.4205  0.2841
 3309TIP3    H231487   3.930   1.825   7.616 -0.8949 -0.3111 -0.1162
 3310TIP3   OH231488   3.465   3.924   2.546 -0.3626 -0.3132  0.4174
 3310TIP3    H131489   3.559   3.940   2.536 -0.4740  0.7792  1.0007
 3310TIP3    H231490   3.426   4.011   2.548 -1.4277 -0.7579 -0.1002
 3311TIP3   OH231491   1.707   5.323   0.217 -0.1215 -0.4278  0.0395
 3311TIP3    H131492   1.747   5.400   0.257  0.8322 -0.2102 -1.2559
 3311TIP3    H231493   1.751   5.248   0.258 -0.7935 -0.3020  1.0345
 3312TIP3   OH231494   4.284   4.928   8.059  0.1104 -0.2564 -0.4863
 3312TIP3    H131495   4.335   5.007   8.080  0.0565 -1.0841  3.5108
 3312TIP3    H231496   4.350   4.860   8.048  0.0670 -0.5434  0.8345
 3313TIP3   OH231497   0.290   0.006   7.829  0.1026  0.4780  0.5649
 3313TIP3    H131498   0.353  -0.048   7.877  1.1063  1.8073  0.7948
 3313TIP3    H231499   0.283  -0.036   7.744  0.1405 -0.5357  1.0411
 3314TIP3   OH231500   6.098   0.512   1.752  0.3569  0.1178 -0.1957
 3314TIP3    H131501   6.159   0.472   1.813  0.1165 -1.2990 -0.8527
 3314TIP3    H231502   6.063   0.588   1.800  1.0147 -0.2956  0.9795
 3315TIP3   OH231503   4.508   3.392   2.491  0.0279 -0.2587 -0.0880
 3315TIP3    H131504   4.462   3.311   2.514  0.2709 -0.4370 -0.2198
 3315TIP3    H231505   4.450   3.437   2.430 -0.2284 -0.2032  0.1933
 3316TIP3   OH231506   2.584   5.507   1.416  0.2528 -0.1423 -0.0541
 3316TIP3    H131507   2.657   5.446   1.419  0.1698 -0.2124  1.3078
 3316TIP3    H231508   2.525   5.477   1.486  0.1967  1.4653  0.6295
 3317TIP3   OH231509   3.961   3.182   0.939 -0.2107 -0.5204  0.0395
 3317TIP3    H131510   3.885   3.202   0.884  0.5013 -0.7337 -1.0651
 3317TIP3    H231511   3.968   3.086   0.936 -1.0740 -0.6793  1.8056
 3318TIP3   OH231512   6.722   1.517   7.619 -0.4864 -0.3024  0.3250
 3318TIP3    H131513   6.648   1.459   7.601  0.5773 -0.8367 -3.3192
 3318TIP3    H231514   6.719   1.582   7.549  2.5282 -0.4943 -0.1493
 3319TIP3   OH231515   4.261   1.565   1.882  0.2547 -0.7520 -0.0892
 3319TIP3    H131516   4.235   1.476   1.859  0.1336 -0.2511 -2.0661
 3319TIP3    H231517   4.286   1.606   1.799  0.9635  0.8597  0.8512
 3320TIP3   OH231518   4.821   2.129   2.301 -0.3221 -0.3629 -0.0114
 3320TIP3    H131519   4.738   2.173   2.321 -0.9866 -0.2971 -2.5037
 3320TIP3    H231520   4.882   2.200   2.282 -0.4401 -0.4288 -0.6773
 3321TIP3   OH231521   2.403   4.472   2.367 -0.3523 -0.7212  0.3617
 3321TIP3    H131522   2.362   4.551   2.331  1.2097  0.3950  0.9010
 3321TIP3    H231523   2.425   4.497   2.457  1.0950 -1.4216  0.2173
 3322TIP3   OH231524   6.108   4.180   0.583  0.5422 -0.2995 -0.2528
 3322TIP3    H131525   6.194   4.211   0.610  0.0894  0.8656 -0.1148
 3322TIP3    H231526   6.074   4.248   0.525 -0.2248 -0.8173 -0.4371
 3323TIP3   OH231527   5.081   0.659   3.621 -0.5043 -0.2195  0.5606
 3323TIP3    H131528   5.151   0.671   3.557 -1.5351 -0.3545 -0.6307
 3323TIP3    H231529   5.109   0.583   3.673 -0.4607 -1.2398 -0.8871
 3324TIP3   OH231530   5.605   0.081   3.310  0.0805  0.2265  0.2876
 3324TIP3    H131531   5.662   0.005   3.317 -0.0160  0.1027 -0.2047
 3324TIP3    H231532   5.531   0.062   3.367 -0.2473 -0.3326 -0.2999
 3325TIP3   OH231533   4.966   5.598   1.468 -0.7166 -0.4547 -0.1040
 3325TIP3    H131534   4.945   5.691   1.478  1.0197 -0.0069 -0.3069
 3325TIP3    H231535   4.925   5.556   1.544 -0.6633  0.6250  0.5363
 3326TIP3   OH231536   6.307   4.733   0.496  0.4771  0.5449 -0.1184
 3326TIP3    H131537   6.291   4.703   0.406  0.3172  1.0955 -0.2779
 3326TIP3    H231538   6.309   4.829   0.489  0.8382  0.5784  0.4028
 3327TIP3   OH231539   3.151   1.601   2.262  0.5361  0.4838  0.1481
 3327TIP3    H131540   3.163   1.564   2.349  0.4793 -1.9853 -0.7982
 3327TIP3    H231541   3.239   1.620   2.231  0.6118  0.6001  0.4302
 3328TIP3   OH231542   0.689   1.832   2.830  0.0908 -0.6235 -0.3264
 3328TIP3    H131543   0.706   1.742   2.857  0.5766 -0.6953 -0.8697
 3328TIP3    H231544   0.613   1.826   2.772 -1.6207 -0.3550  1.7353
 3329TIP3   OH231545   5.866   6.933   1.020 -0.6928 -0.1244 -0.3229
 3329TIP3    H131546   5.785   6.900   1.059 -0.4391 -0.0827  0.2479
 3329TIP3    H231547   5.928   6.934   1.092 -0.2249 -0.0108 -0.7270
 3330TIP3   OH231548   1.767   2.140   1.339 -0.6375  0.2722  0.0939
 3330TIP3    H131549   1.793   2.224   1.376  0.3421  0.0792 -0.1215
 3330TIP3    H231550   1.794   2.145   1.247 -0.3186 -0.3792  0.1458
 3331TIP3   OH231551   5.314   6.480   8.377 -0.2107 -0.2937 -0.5657
 3331TIP3    H131552   5.369   6.417   8.423  1.5868  1.7573  0.2812
 3331TIP3    H231553   5.366   6.506   8.301 -0.5863  0.7107 -0.4942
 3332TIP3   OH231554   3.499   5.994   1.134 -0.0271 -0.0012 -0.6223
 3332TIP3    H131555   3.533   5.990   1.224  0.0591  0.2495 -0.6404
 3332TIP3    H231556   3.416   6.040   1.142  0.3563  0.7363 -0.7688
 3333TIP3   OH231557   5.818   6.221   7.457  0.4793 -0.0967  0.2686
 3333TIP3    H131558   5.755   6.291   7.473 -0.4723 -0.5347 -1.3991
 3333TIP3    H231559   5.769   6.141   7.473  0.2877 -0.4728 -1.9935
 3334TIP3   OH231560   6.815   0.520   1.468  0.0972  0.6697  0.2721
 3334TIP3    H131561   6.818   0.427   1.446 -0.3100  0.7031  0.0783
 3334TIP3    H231562   6.733   0.551   1.431  0.3033  1.1410  0.2035
 3335TIP3   OH231563   4.495   2.607   8.250  0.0773  0.2731  0.3447
 3335TIP3    H131564   4.464   2.613   8.340 -0.0853 -0.1775  0.3249
 3335TIP3    H231565   4.430   2.656   8.199 -1.2046 -1.4712  0.1793
 3336TIP3   OH231566   6.372   6.692   2.668 -0.4282 -0.2845  0.1983
 3336TIP3    H131567   6.342   6.768   2.619 -0.2320 -0.3479 -0.0207
 3336TIP3    H231568   6.452   6.664   2.623 -0.6217 -0.7560  0.1434
 3337TIP3   OH231569   5.667   1.165   0.940 -0.0924 -0.2765 -1.3091
 3337TIP3    H131570   5.759   1.151   0.961  0.0810  0.9367 -1.1845
 3337TIP3    H231571   5.621   1.091   0.981  0.5322  0.4848  0.8887
 3338TIP3   OH231572   2.083   1.543   2.305  0.6904  0.6582  0.0098
 3338TIP3    H131573   2.044   1.587   2.380  1.3937  0.0683  0.7551
 3338TIP3    H231574   2.157   1.598   2.281  0.0235  1.2417 -0.7474
 3339TIP3   OH231575   0.959   2.798   1.875  0.3451 -0.2206 -0.6132
 3339TIP3    H131576   1.029   2.794   1.941 -0.8481 -1.0004  0.6522
 3339TIP3    H231577   0.967   2.715   1.827  0.2087 -0.3806 -0.3650
 3340TIP3   OH231578   5.309   1.094   1.400  0.1156  0.7101  0.2229
 3340TIP3    H131579   5.264   1.172   1.367  0.2440  0.5728 -0.2850
 3340TIP3    H231580   5.401   1.118   1.401  0.2520  0.2580 -0.8153
 3341TIP3   OH231581   0.164   4.216   3.144  0.1935 -0.0794 -0.0258
 3341TIP3    H131582   0.199   4.276   3.210  0.7456 -2.3055  1.8766
 3341TIP3    H231583   0.071   4.209   3.165  0.4472 -1.1148  0.8921
 3342TIP3   OH231584   5.968   6.030   0.621 -0.5650 -0.4349 -0.0929
 3342TIP3    H131585   6.040   6.081   0.658  0.4594 -1.2424 -0.8754
 3342TIP3    H231586   5.967   5.949   0.672 -1.8376  0.1071  0.7989
 3343TIP3   OH231587   2.980   3.712   7.391 -0.3015  0.1756  0.8246
 3343TIP3    H131588   2.899   3.763   7.390  1.0127  2.4293 -1.6584
 3343TIP3    H231589   3.040   3.764   7.444  0.1971 -0.3393  0.7729
 3344TIP3   OH231590   5.734   2.362   8.241 -0.2269 -0.4638 -0.2398
 3344TIP3    H131591   5.695   2.300   8.302  0.5031 -1.1824 -0.4790
 3344TIP3    H231592   5.660   2.405   8.200 -0.7622  1.3630  2.4213
 3345TIP3   OH231593   1.338   6.521   0.231 -0.5649  0.0384 -0.0433
 3345TIP3    H131594   1.334   6.426   0.222  1.1048 -0.0724  0.0816
 3345TIP3    H231595   1.313   6.537   0.322 -1.5929 -0.1940 -0.2672
 3346TIP3   OH231596   4.378   2.997   3.193 -0.1543 -0.0414 -0.3181
 3346TIP3    H131597   4.386   3.090   3.218 -0.3828  0.4030 -1.8203
 3346TIP3    H231598   4.294   2.970   3.230 -1.1498  0.9932 -1.7189
 3347TIP3   OH231599   4.768   4.779   0.284 -0.0580  0.2222 -0.1011
 3347TIP3    H131600   4.711   4.702   0.284  0.8717 -0.4927  0.9727
 3347TIP3    H231601   4.742   4.828   0.363  1.8740 -0.9755  1.3702
 3348TIP3   OH231602   5.283   5.900   2.468 -0.2023 -0.4254 -0.2387
 3348TIP3    H131603   5.296   5.810   2.498 -1.3341 -0.2311  0.9172
 3348TIP3    H231604   5.302   5.898   2.374  0.1067 -1.7892 -0.1579
 3349TIP3   OH231605   2.039   5.223   8.060 -0.1326  0.4749  0.1037
 3349TIP3    H131606   2.082   5.302   8.028 -0.2026 -0.0267 -1.2626
 3349TIP3    H231607   1.989   5.190   7.986 -1.3013 -0.0493  1.0850
 3350TIP3   OH231608   4.167   4.579   8.206  0.1557  0.5790 -0.0331
 3350TIP3    H131609   4.143   4.638   8.134  0.5860  0.7032 -0.0752
 3350TIP3    H231610   4.235   4.522   8.169 -1.7532 -1.4168 -0.6888
 3351TIP3   OH231611   2.629   0.297   7.328  0.6602 -0.0270 -0.5606
 3351TIP3    H131612   2.697   0.336   7.273 -0.7342  2.5095 -0.6454
 3351TIP3    H231613   2.583   0.372   7.366  0.1825 -1.6773  2.4072
 3352TIP3   OH231614   6.306   2.769   0.062 -0.4039 -0.4076 -0.3984
 3352TIP3    H131615   6.371   2.747  -0.005 -2.0203 -1.4971 -1.6974
 3352TIP3    H231616   6.222   2.752   0.019 -1.5467  0.7260  1.3012
 3353TIP3   OH231617   0.800   0.865   6.881  0.1475 -0.2303  0.5538
 3353TIP3    H131618   0.774   0.800   6.946  1.9228 -0.2734  1.2974
 3353TIP3    H231619   0.722   0.918   6.867 -0.3518 -0.3055  2.6530
 3354TIP3   OH231620   4.268   4.215   3.036  0.3520 -0.1299 -0.4509
 3354TIP3    H131621   4.322   4.142   3.068 -0.2238 -0.2987  0.1546
 3354TIP3    H231622   4.299   4.291   3.084 -0.4876 -0.3764  0.5093
 3355TIP3   OH231623   0.741   4.126   7.698  0.5733  0.2182  0.1715
 3355TIP3    H131624   0.731   4.177   7.778  0.9146 -0.7736  0.8719
 3355TIP3    H231625   0.780   4.186   7.635 -0.9181  1.4019  0.3200
 3356TIP3   OH231626   4.966   6.419   3.068  0.5275 -0.1665  0.0344
 3356TIP3    H131627   4.893   6.367   3.035  1.9407  0.2989 -4.4924
 3356TIP3    H231628   4.926   6.484   3.126 -2.2370 -1.6440 -0.0966
 3357TIP3   OH231629   2.670   4.153   0.110  1.0711 -0.3057 -0.4628
 3357TIP3    H131630   2.766   4.144   0.111  1.1221  0.1584  1.4311
 3357TIP3    H231631   2.638   4.068   0.141  0.9791  0.2917  1.1582
 3358TIP3   OH231632   5.292   1.316   3.646 -0.1561  0.6674  0.3800
 3358TIP3    H131633   5.338   1.379   3.703 -1.5176  1.2836  0.8444
 3358TIP3    H231634   5.246   1.259   3.707 -0.8552  0.7287 -0.0869
 3359TIP3   OH231635   4.605   0.759   3.005 -0.3333 -0.3644 -0.1431
 3359TIP3    H131636   4.680   0.754   2.946 -0.6314  1.5847 -0.7665
 3359TIP3    H231637   4.640   0.732   3.090  0.4471 -1.8244 -0.8792
 3360TIP3   OH231638   0.040   4.673   1.596 -0.5357  0.7597 -0.0891
 3360TIP3    H131639   0.025   4.706   1.508 -0.6363  1.3222  0.1365
 3360TIP3    H231640   0.095   4.739   1.638  0.8366 -0.2607 -0.2265
 3361TIP3   OH231641   4.400   0.768   7.900  0.2178 -0.1674  0.5033
 3361TIP3    H131642   4.382   0.697   7.961 -0.7771  0.7586  1.3367
 3361TIP3    H231643   4.318   0.817   7.896  0.3055 -0.1167 -1.4985
 3362TIP3   OH231644   0.562   0.625   1.199  0.1804  0.3791 -0.5195
 3362TIP3    H131645   0.578   0.716   1.224  0.1440  0.2144  0.1131
 3362TIP3    H231646   0.485   0.629   1.143  0.5995  0.8165 -1.0864
 3363TIP3   OH231647   5.363   5.574   1.714 -0.2858  0.2180 -0.4227
 3363TIP3    H131648   5.442   5.627   1.731  0.0655 -1.1256  2.8311
 3363TIP3    H231649   5.302   5.636   1.674  1.2845  2.1924  0.0295
 3364TIP3   OH231650   3.357   6.683   3.197 -0.0207  0.3673  0.3405
 3364TIP3    H131651   3.399   6.725   3.272 -0.7378  0.5837  0.6269
 3364TIP3    H231652   3.400   6.723   3.121  0.5496  0.3136  0.6245
 3365TIP3   OH231653   2.607   3.217   8.433  0.0220  0.6962 -0.0514
 3365TIP3    H131654   2.678   3.179   8.381 -1.4106 -2.6333  0.1579
 3365TIP3    H231655   2.553   3.263   8.369  0.7800  0.6737 -0.7260
 3366TIP3   OH231656   5.541   5.433   2.840 -0.2415 -0.4553 -0.0324
 3366TIP3    H131657   5.602   5.367   2.874  0.1083  0.5071  1.2949
 3366TIP3    H231658   5.511   5.480   2.918  0.0282  1.3974 -0.9808
 3367TIP3   OH231659   3.076   0.437   2.747  0.2495 -0.5587 -0.3183
 3367TIP3    H131660   3.045   0.410   2.833 -0.2941 -1.5345 -0.8045
 3367TIP3    H231661   2.998   0.436   2.692  0.7752 -1.0040 -1.0712
 3368TIP3   OH231662   1.344   2.485   1.122  0.6194  0.0153 -0.0693
 3368TIP3    H131663   1.400   2.432   1.177 -0.0966 -1.9946 -1.1684
 3368TIP3    H231664   1.404   2.535   1.066  1.3054 -0.5359  0.1749
 3369TIP3   OH231665   1.302   4.913   7.912  0.2991 -0.4278  0.1076
 3369TIP3    H131666   1.367   4.909   7.842 -0.8800 -0.5297 -1.0299
 3369TIP3    H231667   1.301   5.004   7.940  1.3871 -0.5578  0.6073
 3370TIP3   OH231668   3.628   0.821   3.096  0.0213 -0.2275  0.6107
 3370TIP3    H131669   3.712   0.823   3.050 -1.1224 -0.6010 -1.6439
 3370TIP3    H231670   3.638   0.753   3.161  0.8434 -1.7395 -1.0029
 3371TIP3   OH231671   1.874   5.563   8.140  0.1651 -0.2148 -0.3525
 3371TIP3    H131672   1.881   5.537   8.232 -0.3977  1.1017  0.0820
 3371TIP3    H231673   1.789   5.530   8.112  0.4281 -0.8051 -0.4798
 3372TIP3   OH231674   3.738   3.426   2.915 -0.6853 -0.3765  0.2864
 3372TIP3    H131675   3.745   3.337   2.881 -1.3215 -1.0979  1.9153
 3372TIP3    H231676   3.759   3.418   3.008 -0.0227  1.3137  0.3130
 3373TIP3   OH231677   3.275   6.604   3.652  0.1876  0.0757 -0.3525
 3373TIP3    H131678   3.332   6.664   3.699  0.7709  0.7364 -1.8460
 3373TIP3    H231679   3.335   6.544   3.607 -0.3684 -0.9984  0.2978
 3374TIP3   OH231680   5.151   0.299   0.975  0.0035  0.0168 -0.3311
 3374TIP3    H131681   5.245   0.314   0.969 -0.0217 -0.3610 -2.2523
 3374TIP3    H231682   5.119   0.312   0.886 -1.6374 -0.7396  0.1101
 3375TIP3   OH231683   5.482   0.262   0.571 -0.0225 -0.4634  0.0774
 3375TIP3    H131684   5.480   0.357   0.558 -2.1436 -0.2111  1.6974
 3375TIP3    H231685   5.558   0.248   0.628 -0.3045  0.4166  0.6986
 3376TIP3   OH231686   1.766   4.981   8.149 -0.3000  0.0238  0.6883
 3376TIP3    H131687   1.727   5.028   8.075 -0.1430 -3.1716 -1.6241
 3376TIP3    H231688   1.715   5.009   8.224 -2.6633  1.0212 -1.1477
 3377TIP3   OH231689   2.358   5.070   1.081  0.4764  0.2481 -0.5624
 3377TIP3    H131690   2.437   5.017   1.087  0.4962  0.3548  0.2564
 3377TIP3    H231691   2.374   5.130   1.008  1.2238  0.3813 -0.2966
 3378TIP3   OH231692   5.197   0.345   3.042 -0.0701 -0.0744 -0.1771
 3378TIP3    H131693   5.280   0.343   3.089 -0.6196 -0.5260  0.8089
 3378TIP3    H231694   5.171   0.253   3.036 -1.5375  0.1689  1.4887
 3379TIP3   OH231695   5.713   3.577   0.823  0.0708  0.0970 -0.7550
 3379TIP3    H131696   5.721   3.571   0.918  1.8460 -1.9522 -0.9747
 3379TIP3    H231697   5.633   3.527   0.803  1.6730 -2.7544 -0.5455
 3380TIP3   OH231698   0.784   5.275   0.883  0.1558 -0.3214  0.0664
 3380TIP3    H131699   0.717   5.235   0.827  0.2389  0.1008 -0.3384
 3380TIP3    H231700   0.746   5.272   0.971  0.1576 -1.2816  0.0459
 3381TIP3   OH231701   6.344   1.261   7.844  0.0462 -0.1854  0.1108
 3381TIP3    H131702   6.316   1.181   7.801 -0.2493  0.5884 -1.1814
 3381TIP3    H231703   6.378   1.316   7.774  0.2598  0.8257  0.9682
 3382TIP3   OH231704   1.654   3.361   8.182 -0.1254  0.1492 -0.1858
 3382TIP3    H131705   1.712   3.377   8.108  0.8008 -1.1502  0.2306
 3382TIP3    H231706   1.619   3.273   8.167 -0.5923  0.2105  0.4914
 3383TIP3   OH231707   2.895   1.756   2.857 -0.0073  0.1368  0.9110
 3383TIP3    H131708   2.969   1.711   2.898  0.4461  0.2496  0.2169
 3383TIP3    H231709   2.822   1.694   2.864  0.9710 -1.4095 -1.4279
 3384TIP3   OH231710   4.575   3.006   8.307 -0.0177  0.5491 -0.6431
 3384TIP3    H131711   4.659   3.052   8.298  1.3226 -1.4302  1.0187
 3384TIP3    H231712   4.594   2.916   8.283 -1.7728  0.1094 -0.5215
 3385TIP3   OH231713   3.507   3.477   2.223 -0.1305 -0.3704  0.0225
 3385TIP3    H131714   3.469   3.390   2.216  1.0398 -0.8775 -0.0875
 3385TIP3    H231715   3.601   3.464   2.212  0.0344  0.9347 -0.2602
 3386TIP3   OH231716   5.293   1.906   0.235 -0.3909  0.2687 -0.0587
 3386TIP3    H131717   5.280   1.829   0.290 -0.0616 -1.0159 -1.7217
 3386TIP3    H231718   5.205   1.931   0.208 -0.4252 -0.1281 -0.3150
 3387TIP3   OH231719   4.739   3.193   4.019 -0.2046  0.7724 -0.7773
 3387TIP3    H131720   4.813   3.134   4.007  0.3503  0.9464  1.2858
 3387TIP3    H231721   4.685   3.150   4.086 -0.5481  1.9132 -0.2921
 3388TIP3   OH231722   3.130   3.887   0.994 -0.3148  0.0788  0.6060
 3388TIP3    H131723   3.049   3.876   1.044 -2.2918 -1.3648 -2.6351
 3388TIP3    H231724   3.171   3.801   0.995 -0.0703  0.1895  0.1952
 3389TIP3   OH231725   0.555   0.860   2.782  0.1263  0.7093  0.0706
 3389TIP3    H131726   0.516   0.828   2.864 -0.5590 -1.3698 -0.9857
 3389TIP3    H231727   0.649   0.857   2.797  0.0033  0.7902  0.9227
 3390TIP3   OH231728   1.457   1.047   3.817  0.1965 -0.9864 -0.2452
 3390TIP3    H131729   1.491   1.133   3.792  1.0968 -1.3623 -0.3385
 3390TIP3    H231730   1.403   1.020   3.742 -0.7802 -0.1528  0.1304
 3391TIP3   OH231731   1.425   5.209   1.938 -0.0345  0.2046  0.3525
 3391TIP3    H131732   1.361   5.198   2.008  0.9954 -1.7316  1.0635
 3391TIP3    H231733   1.497   5.152   1.962  1.2451  1.0322 -1.2872
 3392TIP3   OH231734   2.838   2.828   3.554 -0.0973  0.5060  0.1207
 3392TIP3    H131735   2.838   2.754   3.615 -0.7133  2.3779  2.5362
 3392TIP3    H231736   2.925   2.865   3.561  0.5475 -0.4614 -1.8464
 3393TIP3   OH231737   3.464   2.639   1.626 -0.0059  0.3416 -0.2518
 3393TIP3    H131738   3.374   2.661   1.651  0.3853  0.2255  1.3618
 3393TIP3    H231739   3.455   2.563   1.568 -0.9285  0.1503  0.1170
 3394TIP3   OH231740   3.687   4.634   0.265 -0.1209  0.2949  0.3547
 3394TIP3    H131741   3.685   4.573   0.339 -1.2686  0.7106  0.6807
 3394TIP3    H231742   3.732   4.711   0.300  0.2169  0.1201  0.3144
 3395TIP3   OH231743   0.718   3.291   2.555  0.2665 -0.4095 -0.4218
 3395TIP3    H131744   0.653   3.340   2.604  0.1298  0.7274 -1.6901
 3395TIP3    H231745   0.728   3.338   2.472  1.1567 -1.7409 -1.1286
 3396TIP3   OH231746   1.489   3.494   0.015  0.4746  0.5852 -0.1217
 3396TIP3    H131747   1.422   3.553   0.050 -1.4188 -1.0350 -0.8326
 3396TIP3    H231748   1.518   3.444   0.091 -0.5502 -0.0264 -0.1195
 3397TIP3   OH231749   5.528   6.348   3.228  0.2641  0.3623  0.2716
 3397TIP3    H131750   5.602   6.392   3.270 -0.7885  0.1094  2.5068
 3397TIP3    H231751   5.465   6.418   3.212 -0.2030  0.1296  1.0832
 3398TIP3   OH231752   0.173   3.208   0.145  0.3220  0.1515 -0.6896
 3398TIP3    H131753   0.116   3.276   0.180  0.6714  0.1588 -0.1212
 3398TIP3    H231754   0.142   3.194   0.055  0.6691  1.5406 -1.0529
 3399TIP3   OH231755   0.412   0.873   2.374  0.1522 -0.2986 -0.3824
 3399TIP3    H131756   0.459   0.957   2.374  0.3312 -0.3946 -0.8405
 3399TIP3    H231757   0.482   0.807   2.371  0.0066 -0.4596 -0.2182
 3400TIP3   OH231758   3.232   3.667   0.227  0.2300  0.2870  0.4721
 3400TIP3    H131759   3.322   3.699   0.241  0.3444  0.4616 -0.5482
 3400TIP3    H231760   3.207   3.705   0.143 -0.9942  0.6411  0.9820
 3401TIP3   OH231761   0.706   5.069   1.562  0.2176 -0.2908  0.0870
 3401TIP3    H131762   0.793   5.031   1.567 -0.0046 -0.7116  1.1013
 3401TIP3    H231763   0.650   5.007   1.608 -0.3539  0.6897  0.7597
 3402TIP3   OH231764   3.930   4.014   2.015  0.0043  0.4488 -0.4115
 3402TIP3    H131765   3.923   3.987   2.107  0.9660 -0.3281 -0.5410
 3402TIP3    H231766   3.991   3.950   1.977 -0.5111  0.6662 -1.6263
 3403TIP3   OH231767   3.910   5.964   1.233 -0.1629  0.4532  0.0502
 3403TIP3    H131768   3.902   6.058   1.215  0.6755  0.8325  1.4643
 3403TIP3    H231769   3.934   5.959   1.326  0.2894 -1.1401 -0.1118
 3404TIP3   OH231770   0.969   4.652   8.218  0.1617  0.4594  0.2984
 3404TIP3    H131771   1.013   4.647   8.134 -0.5040  0.7822 -0.0748
 3404TIP3    H231772   0.983   4.742   8.247  0.0709  0.4554  0.3563
 3405TIP3   OH231773   5.922   3.397   0.678 -0.4338  0.6091  0.2788
 3405TIP3    H131774   5.890   3.329   0.737  0.7817  0.5610  0.9188
 3405TIP3    H231775   5.885   3.478   0.712 -1.1176  0.3918  0.0763
 3406TIP3   OH231776   1.578   6.297   8.396 -0.1210 -0.7319  0.4644
 3406TIP3    H131777   1.634   6.222   8.377 -0.1853 -0.3784 -1.2916
 3406TIP3    H231778   1.598   6.360   8.327 -0.0760  0.8881  1.8828
 3407TIP3   OH231779   5.256   6.061   0.530  0.5856 -0.3566 -0.4449
 3407TIP3    H131780   5.246   6.139   0.476 -0.9196 -1.3265 -1.6416
 3407TIP3    H231781   5.190   6.070   0.599  0.5025 -0.5175 -0.5038
 3408TIP3   OH231782   2.508   1.101   0.756  0.1617  0.1886 -0.3854
 3408TIP3    H131783   2.414   1.112   0.743  0.3952  1.8456 -0.9824
 3408TIP3    H231784   2.533   1.032   0.694 -0.2255  1.8020 -2.4511
 3409TIP3   OH231785   0.263   4.155   3.615  0.0684  1.0716 -0.6885
 3409TIP3    H131786   0.351   4.141   3.579  0.4786 -1.9080  1.1700
 3409TIP3    H231787   0.274   4.227   3.677  1.0855  1.0594 -0.8416
 3410TIP3   OH231788   2.237   4.531   1.598 -0.6356  0.1124  1.2734
 3410TIP3    H131789   2.330   4.518   1.582 -0.8903 -3.5273  1.9010
 3410TIP3    H231790   2.195   4.502   1.517 -1.2989  2.8301  0.5414
 3411TIP3   OH231791   2.800   5.638   1.609 -1.0939 -0.1082  0.0985
 3411TIP3    H131792   2.709   5.663   1.618 -1.4923 -1.0421 -1.0231
 3411TIP3    H231793   2.827   5.611   1.697 -1.7317  0.6471  0.5399
 3412TIP3   OH231794   5.109   2.995   0.221 -0.0776 -0.1233 -0.2700
 3412TIP3    H131795   5.154   3.077   0.203 -0.9785  0.5980  0.7121
 3412TIP3    H231796   5.162   2.929   0.175  0.5207  1.0092 -1.2727
 3413TIP3   OH231797   0.158   6.738   0.279  0.2396 -0.0842 -0.5516
 3413TIP3    H131798   0.213   6.792   0.336  1.8217 -1.1194 -1.0066
 3413TIP3    H231799   0.127   6.667   0.335 -0.0540  0.1217 -0.4548
 3414TIP3   OH231800   3.652   6.616   3.236  0.0502 -0.6118  0.4403
 3414TIP3    H131801   3.746   6.632   3.224 -0.3463 -0.0501 -3.3917
 3414TIP3    H231802   3.617   6.701   3.263  0.2319  0.5120 -2.4303
 3415TIP3   OH231803   0.248   1.978   1.655 -0.5012  0.4617 -0.3958
 3415TIP3    H131804   0.199   1.910   1.608 -1.1364  1.6199 -1.4682
 3415TIP3    H231805   0.220   1.969   1.746  0.6373 -1.7331 -0.2010
 3416TIP3   OH231806   0.207   2.550   2.668  0.0980 -0.4924  0.0313
 3416TIP3    H131807   0.175   2.614   2.605 -0.7155 -1.2365 -0.3186
 3416TIP3    H231808   0.157   2.567   2.748  0.6607  0.0138  0.2886
 3417TIP3   OH231809   1.426   6.765   0.724 -0.2047 -0.2164  0.2480
 3417TIP3    H131810   1.472   6.696   0.675  1.1076  0.6915  0.1380
 3417TIP3    H231811   1.411   6.834   0.659  1.5511  1.0035  1.0534
 3418TIP3   OH231812   2.378   3.068   2.356 -0.1750  0.5304  0.1544
 3418TIP3    H131813   2.306   3.130   2.370  0.9429  1.9970 -0.3570
 3418TIP3    H231814   2.336   2.990   2.319 -1.5081  1.2954  0.0052
 3419TIP3   OH231815   1.916   1.697   7.493  0.6542 -0.4338 -0.8606
 3419TIP3    H131816   1.991   1.642   7.469  0.2343 -1.4388  0.0986
 3419TIP3    H231817   1.867   1.645   7.556 -0.4942  0.4986 -0.9652
 3420TIP3   OH231818   5.627   5.941   1.920 -0.3016 -0.4233  0.1473
 3420TIP3    H131819   5.623   5.990   1.838 -1.6770  0.4570  0.7131
 3420TIP3    H231820   5.719   5.914   1.927 -0.2011 -0.7629 -1.8013
 3421TIP3   OH231821   0.798   3.908   0.319  0.6662  0.0680 -0.4678
 3421TIP3    H131822   0.722   3.905   0.377 -0.3148 -0.6737 -1.7097
 3421TIP3    H231823   0.763   3.946   0.238  1.6482 -0.1964 -1.0221
 3422TIP3   OH231824   6.504   4.133   7.450  0.1466 -0.7300 -0.6661
 3422TIP3    H131825   6.559   4.211   7.447  0.6143 -1.0518 -0.5448
 3422TIP3    H231826   6.421   4.164   7.487  0.9417 -0.6375  1.1640
 3423TIP3   OH231827   1.588   4.327   8.368  0.2101 -0.3933  0.1425
 3423TIP3    H131828   1.589   4.384   8.445 -0.7429 -0.6721  0.3693
 3423TIP3    H231829   1.681   4.315   8.346  0.4433  0.7731  0.4341
 3424TIP3   OH231830   6.104   4.532   1.738 -0.0470 -0.2156  0.4167
 3424TIP3    H131831   6.168   4.461   1.746  2.0162  1.2900 -1.5377
 3424TIP3    H231832   6.067   4.521   1.651  0.9762  1.5418 -0.2958
 3425TIP3   OH231833   0.206   1.787   2.473 -0.5471  0.0199 -0.3956
 3425TIP3    H131834   0.219   1.707   2.422  1.3577  0.1475 -0.1950
 3425TIP3    H231835   0.226   1.858   2.411  1.1633  0.1945  0.3001
 3426TIP3   OH231836   2.734   1.088   7.354  0.0247 -0.1484 -0.1576
 3426TIP3    H131837   2.787   1.059   7.279 -0.7990 -2.0391 -0.0748
 3426TIP3    H231838   2.794   1.142   7.406  0.9676  0.2118 -1.5465
 3427TIP3   OH231839   5.244   5.798   0.458 -0.0564  0.3920  0.2875
 3427TIP3    H131840   5.245   5.894   0.451  0.7240  0.2646 -2.8706
 3427TIP3    H231841   5.162   5.772   0.415  0.8854 -0.3970 -1.1120
 3428TIP3   OH231842   6.787   0.243   1.392 -0.6650 -0.4436 -0.7341
 3428TIP3    H131843   6.870   0.205   1.365 -1.3041 -1.0425 -1.9429
 3428TIP3    H231844   6.767   0.200   1.476  0.1056 -0.4687 -0.5536
 3429TIP3   OH231845   2.939   0.269   0.441 -0.0862 -0.1792 -0.2819
 3429TIP3    H131846   2.878   0.328   0.484  1.3949 -0.6378  2.7450
 3429TIP3    H231847   2.884   0.211   0.388 -2.0587  0.6049  0.8030
 3430TIP3   OH231848   5.700   2.852   7.560 -0.2514 -0.6201  0.2144
 3430TIP3    H131849   5.739   2.918   7.618  0.0924 -0.1277 -0.5662
 3430TIP3    H231850   5.637   2.900   7.507 -0.0238 -0.9229 -0.3366
 3431TIP3   OH231851   4.849   5.410   0.164 -0.1140  0.1007  0.3279
 3431TIP3    H131852   4.793   5.484   0.139  0.1523  0.1388 -0.1824
 3431TIP3    H231853   4.920   5.412   0.100 -0.6334 -1.1991 -0.3250
 3432TIP3   OH231854   2.764   0.052   1.142 -0.1162 -0.3045 -0.3215
 3432TIP3    H131855   2.738  -0.039   1.161 -0.3603  0.0393  1.1112
 3432TIP3    H231856   2.749   0.099   1.224 -0.7600  1.2218 -1.2649
 3433TIP3   OH231857   4.498   5.603   0.574  0.0560 -0.0783 -0.1354
 3433TIP3    H131858   4.494   5.618   0.479 -1.7932 -1.2799 -0.3040
 3433TIP3    H231859   4.539   5.518   0.582  3.2951  1.4085  0.3898
 3434TIP3   OH231860   6.242   5.015   7.724  0.0459 -0.5145  0.1299
 3434TIP3    H131861   6.283   4.946   7.777 -2.2414 -0.8577  1.5849
 3434TIP3    H231862   6.215   5.081   7.787 -0.4786  0.3047 -0.9156
 3435TIP3   OH231863   1.257   2.660   1.568  0.3275 -0.1493  0.1854
 3435TIP3    H131864   1.239   2.611   1.487  3.3641 -1.1848  0.0170
 3435TIP3    H231865   1.182   2.640   1.625 -1.5118 -0.0099 -2.0354
 3436TIP3   OH231866   2.403   6.265   1.824  0.3851 -0.3855  0.4858
 3436TIP3    H131867   2.404   6.224   1.910  1.1230 -0.8783  0.2573
 3436TIP3    H231868   2.440   6.352   1.839  0.5421 -0.4815  0.6661
 3437TIP3   OH231869   0.053   2.728   0.710 -0.7229 -0.2318 -0.1251
 3437TIP3    H131870  -0.011   2.799   0.719 -1.9762 -1.5361  2.4101
 3437TIP3    H231871   0.012   2.667   0.648 -0.6895  0.1501 -0.5324
 3438TIP3   OH231872   2.132   6.429   1.898  0.1655 -0.1403 -0.2115
 3438TIP3    H131873   2.185   6.373   1.840  1.3891 -0.3206  1.0397
 3438TIP3    H231874   2.064   6.371   1.930  0.6590 -0.5732  0.0658
 3439TIP3   OH231875   2.538   2.055   0.478  0.1842  0.0705  1.0572
 3439TIP3    H131876   2.472   2.006   0.526 -0.0978  0.9522  1.5946
 3439TIP3    H231877   2.511   2.147   0.487 -0.0390  0.2525 -1.0216
 3440TIP3   OH231878   5.328   4.441   1.009  0.2734  0.5399  0.8569
 3440TIP3    H131879   5.363   4.505   0.948  0.3406  1.4006  1.7655
 3440TIP3    H231880   5.235   4.436   0.987  0.0414  1.7540  1.4201
 3441TIP3   OH231881   6.374   3.302   0.741 -0.1622 -0.2351 -0.2490
 3441TIP3    H131882   6.393   3.211   0.767  0.5734  0.1490  0.6256
 3441TIP3    H231883   6.364   3.298   0.646  0.0761 -1.1980 -0.2479
 3442TIP3   OH231884   4.838   6.648   1.969 -0.0442  0.5138  0.3164
 3442TIP3    H131885   4.791   6.569   1.943  1.0783  0.1531 -0.7160
 3442TIP3    H231886   4.869   6.630   2.058  1.8326 -1.0456 -0.5687
 3443TIP3   OH231887   1.745   3.583   0.708 -0.0898 -0.1215  0.1771
 3443TIP3    H131888   1.705   3.599   0.794  1.5721  0.9459  0.8079
 3443TIP3    H231889   1.756   3.671   0.671 -0.1631 -0.5346 -0.8384
 3444TIP3   OH231890   5.081   1.940   1.574 -0.6216 -0.2643  0.0301
 3444TIP3    H131891   4.989   1.966   1.575 -0.5651  0.0086  1.9766
 3444TIP3    H231892   5.079   1.849   1.545 -1.4271 -0.0617 -0.6043
 3445TIP3   OH231893   0.109   6.721   0.609 -0.2124  0.5943  0.6077
 3445TIP3    H131894   0.145   6.783   0.673 -2.0177  2.2979  0.0987
 3445TIP3    H231895   0.169   6.726   0.535  0.8511  0.0499  1.4037
 3446TIP3   OH231896   5.408   4.275   0.349  0.4988  0.1741  0.3649
 3446TIP3    H131897   5.358   4.254   0.429  0.9142 -0.0858  0.5635
 3446TIP3    H231898   5.349   4.330   0.298  0.1247  0.1281  0.7343
 3447TIP3   OH231899   4.531   0.915   0.540 -0.2227  0.1450  0.0624
 3447TIP3    H131900   4.512   1.002   0.575 -3.4043 -0.6917  0.7781
 3447TIP3    H231901   4.626   0.911   0.536  0.1905  2.3614  3.4026
 3448TIP3   OH231902   5.929   6.760   4.014  0.0472  0.0955 -0.5462
 3448TIP3    H131903   5.837   6.766   3.990  0.0781  0.9128 -0.4884
 3448TIP3    H231904   5.928   6.729   4.104 -0.3258  3.2097  0.6297
 3449TIP3   OH231905   4.335   3.154   2.525 -0.5512  0.2054  0.6384
 3449TIP3    H131906   4.422   3.130   2.556 -0.7128  1.1504  1.9134
 3449TIP3    H231907   4.297   3.071   2.494  0.0595 -0.6010  1.9481
 3450TIP3   OH231908   0.372   6.479   1.002 -0.7951  0.2385 -0.1894
 3450TIP3    H131909   0.336   6.409   0.947 -0.6334  0.7655 -0.9968
 3450TIP3    H231910   0.443   6.515   0.949  1.9392 -1.6939  1.9108
 3451TIP3   OH231911   0.670   6.912   1.875 -0.0634 -0.4702  0.2963
 3451TIP3    H131912   0.602   6.966   1.915  0.0491 -1.0445  1.2974
 3451TIP3    H231913   0.673   6.833   1.929  0.4782 -1.0342 -0.5336
 3452TIP3   OH231914   6.332   0.408   1.227 -0.0665 -0.1168 -0.3317
 3452TIP3    H131915   6.372   0.362   1.154  1.7302  0.9052 -0.0465
 3452TIP3    H231916   6.344   0.501   1.207 -3.9822  0.4108 -1.1277
 3453TIP3   OH231917   6.155   1.545   8.447 -0.0409 -0.3643 -0.4676
 3453TIP3    H131918   6.065   1.574   8.439 -0.1963 -0.8157 -0.4082
 3453TIP3    H231919   6.180   1.568   8.536 -0.2870 -0.7497 -0.2970
 3454TIP3   OH231920   5.113   0.876   0.546 -0.1107  0.0541 -0.0751
 3454TIP3    H131921   5.205   0.866   0.569 -0.5494 -1.4347  1.1825
 3454TIP3    H231922   5.087   0.789   0.515 -1.4945 -0.0221  1.2124
 3455TIP3   OH231923   3.262   6.533   2.013 -0.0613 -0.0582  0.5660
 3455TIP3    H131924   3.184   6.490   2.047 -1.2095  0.9443 -0.6961
 3455TIP3    H231925   3.277   6.492   1.928  1.4426 -0.9692  1.2279
 3456TIP3   OH231926   2.757   3.926   7.671 -0.0827  0.0856  0.2906
 3456TIP3    H131927   2.736   3.885   7.587  0.3540  0.8930 -0.2201
 3456TIP3    H231928   2.790   4.012   7.648  0.3363  0.1982  1.2829
 3457TIP3   OH231929   6.794   3.572   3.056  0.3652  0.0979 -0.3747
 3457TIP3    H131930   6.774   3.657   3.017  0.6928  1.3664  2.0124
 3457TIP3    H231931   6.723   3.557   3.119  0.7517 -1.0017 -0.1734
 3458TIP3   OH231932   2.265   1.667   3.094 -0.4219  0.4696 -0.3322
 3458TIP3    H131933   2.313   1.586   3.106 -0.4485  0.4622 -0.2778
 3458TIP3    H231934   2.297   1.725   3.163  0.1198  0.7470 -0.8093
 3459TIP3   OH231935   1.765   6.721   2.212  0.1432  0.1308 -0.3503
 3459TIP3    H131936   1.765   6.683   2.124  1.1098  0.8989 -0.7120
 3459TIP3    H231937   1.830   6.670   2.260  1.4696  1.2764 -0.8475
 3460TIP3   OH231938   1.031   4.059   1.282  0.3043  0.1597  0.3099
 3460TIP3    H131939   0.961   4.020   1.229  0.7324  0.2393 -0.3221
 3460TIP3    H231940   1.027   4.152   1.262 -0.2390  0.3594  1.2642
 3461TIP3   OH231941   1.202   2.490   1.361 -0.8535  0.5488 -0.1275
 3461TIP3    H131942   1.223   2.409   1.408  0.4351  1.9521  1.8531
 3461TIP3    H231943   1.228   2.473   1.271  1.0131 -0.6986  0.5821
 3462TIP3   OH231944   4.476   5.620   8.136  0.0428  0.0079  0.6307
 3462TIP3    H131945   4.534   5.665   8.074  1.2360 -0.4407  1.3950
 3462TIP3    H231946   4.512   5.532   8.143 -3.2703 -1.8870 -2.2620
 3463TIP3   OH231947   1.475   4.811   8.077  0.2204  0.0230  0.1158
 3463TIP3    H131948   1.513   4.898   8.088 -1.2390  0.9324 -1.5773
 3463TIP3    H231949   1.386   4.827   8.047  0.0821 -2.0503 -0.7522
 3464TIP3   OH231950   6.601   3.655   0.307  0.8611  0.3866 -0.2242
 3464TIP3    H131951   6.584   3.606   0.387  0.3040  0.9751  0.0185
 3464TIP3    H231952   6.585   3.746   0.330  3.0790  0.8728 -0.3256
 3465TIP3   OH231953   1.479   6.581   2.203  0.1006 -0.1075 -0.3250
 3465TIP3    H131954   1.533   6.624   2.269 -1.3096  1.1003  0.0860
 3465TIP3    H231955   1.517   6.493   2.195  1.5346  0.3972  0.6055
 3466TIP3   OH231956   5.997   5.003   2.961  0.1953 -0.0499 -0.3395
 3466TIP3    H131957   5.998   4.916   3.001 -3.4499  0.8700  2.3111
 3466TIP3    H231958   6.008   5.064   3.035  0.9757  1.7972 -1.8795
 3467TIP3   OH231959   0.884   5.239   3.463 -0.2823  0.1533 -0.7385
 3467TIP3    H131960   0.873   5.146   3.446  1.3909 -0.6447  1.9389
 3467TIP3    H231961   0.795   5.276   3.454 -1.0049 -1.7003 -1.6545
 3468TIP3   OH231962   5.795   5.427   3.354 -0.3357 -0.1027 -0.3786
 3468TIP3    H131963   5.836   5.424   3.267  0.6756  1.2239  0.0120
 3468TIP3    H231964   5.802   5.337   3.386  0.8645 -0.2510 -0.9808
 3469TIP3   OH231965   4.080   5.501   2.699  0.1899  0.6730  0.5368
 3469TIP3    H131966   3.993   5.486   2.736  1.0138 -0.1285  2.2868
 3469TIP3    H231967   4.090   5.432   2.633 -0.2291  0.2975  0.8587
 3470TIP3   OH231968   4.274   2.843   1.509 -0.0416  0.4790 -0.3504
 3470TIP3    H131969   4.338   2.874   1.445 -0.2422  0.5985 -0.4968
 3470TIP3    H231970   4.272   2.912   1.576  0.7244 -0.0079  0.1753
 3471TIP3   OH231971   5.826   6.397   4.168  0.4490  0.3252 -0.3953
 3471TIP3    H131972   5.734   6.399   4.195  0.5965 -0.3219  0.1979
 3471TIP3    H231973   5.823   6.394   4.073 -0.1711 -0.5527 -0.3597
 3472TIP3   OH231974   4.428   2.460   2.756  0.2525 -0.2345  0.4313
 3472TIP3    H131975   4.349   2.498   2.717 -0.2980 -0.8218  0.9494
 3472TIP3    H231976   4.432   2.497   2.844  0.0375 -0.9127  0.7314
 3473TIP3   OH231977   6.861   0.745   0.949 -0.0495  0.4260 -0.1939
 3473TIP3    H131978   6.848   0.697   1.031  2.4884 -1.0593 -0.5743
 3473TIP3    H231979   6.778   0.733   0.901 -0.4662 -1.2709  0.8764
 3474TIP3   OH231980   5.795   2.963   3.013 -0.0003  0.0341 -0.2900
 3474TIP3    H131981   5.768   3.050   3.041 -3.3123 -0.8263 -0.4366
 3474TIP3    H231982   5.782   2.907   3.089  0.9863 -0.5715 -0.5393
 3475TIP3   OH231983   4.791   6.259   3.402  0.1927 -0.1052  0.1415
 3475TIP3    H131984   4.774   6.350   3.423 -0.2992 -0.0481 -0.4646
 3475TIP3    H231985   4.715   6.231   3.350  0.8203 -0.5444 -0.5734
 3476TIP3   OH231986   2.132   4.886   2.128  0.5020  0.0301  0.0873
 3476TIP3    H131987   2.102   4.967   2.170  0.5667 -0.8049  1.8270
 3476TIP3    H231988   2.202   4.914   2.069 -0.5966  1.4349 -0.6127
 3477TIP3   OH231989   6.194   3.878   1.917  0.3586  0.0055  0.0722
 3477TIP3    H131990   6.223   3.968   1.935 -0.3519  0.1262  0.6362
 3477TIP3    H231991   6.147   3.885   1.833  1.2135 -0.0452 -0.4286
 3478TIP3   OH231992   2.049   1.007   2.146  0.0093  0.7801  0.1903
 3478TIP3    H131993   2.077   1.091   2.181  1.2788  1.1793 -1.6674
 3478TIP3    H231994   1.969   1.027   2.096 -0.1605  0.7233  0.4364
 3479TIP3   OH231995   1.295   5.437   2.891  0.1796 -0.3290 -0.1520
 3479TIP3    H131996   1.309   5.523   2.930  1.0717  0.3846 -1.8729
 3479TIP3    H231997   1.382   5.397   2.893 -0.1408 -1.0071  0.2255
 3480TIP3   OH231998   5.417   6.539   8.112 -0.9741  0.0298 -0.3654
 3480TIP3    H131999   5.393   6.601   8.044 -2.5756 -1.8239 -1.6082
 3480TIP3    H232000   5.448   6.462   8.065 -2.2497 -1.3711  0.9454
 3481TIP3   OH232001   6.734   2.473   3.177 -0.0787 -0.2826 -0.2385
 3481TIP3    H132002   6.658   2.454   3.231 -0.2408  1.4577  0.2136
 3481TIP3    H232003   6.803   2.498   3.239  0.5012 -0.7115 -0.7018
 3482TIP3   OH232004   3.096   0.969   1.740  0.6858  0.0763 -0.1177
 3482TIP3    H132005   3.141   1.033   1.685  0.4133  0.5354  0.1823
 3482TIP3    H232006   3.077   1.016   1.821 -0.4236 -0.0667 -0.2764
 3483TIP3   OH232007   3.366   0.578   0.356 -0.4052  0.2064  0.1191
 3483TIP3    H132008   3.435   0.544   0.414  1.1056  1.6122 -0.7462
 3483TIP3    H232009   3.343   0.505   0.299  0.1300 -0.3926  0.6529
 3484TIP3   OH232010   2.244   1.369   0.385 -0.2852 -0.5061  0.1201
 3484TIP3    H132011   2.297   1.439   0.423 -0.1852 -0.7002  0.3399
 3484TIP3    H232012   2.173   1.356   0.447 -0.4242 -0.4508 -0.0275
 3485TIP3   OH232013   2.852   3.760   0.135  0.0569 -0.0164  0.2511
 3485TIP3    H132014   2.857   3.832   0.198  1.1902 -1.1321  1.4961
 3485TIP3    H232015   2.833   3.683   0.187  0.8943 -0.9603 -0.7665
 3486TIP3   OH232016   6.830   4.375   2.766 -0.2572 -0.0864  0.0705
 3486TIP3    H132017   6.858   4.406   2.851 -2.0282 -0.9283  1.0157
 3486TIP3    H232018   6.799   4.453   2.720 -1.3682  0.0915  1.0708
 3487TIP3   OH232019   2.363   4.684   7.522  0.6587  0.3918 -0.0128
 3487TIP3    H132020   2.397   4.652   7.438  2.1329  3.2710 -0.6330
 3487TIP3    H232021   2.272   4.706   7.503  1.2081  1.8603 -1.2023
 3488TIP3   OH232022   6.321   3.884   0.045 -0.1395  0.4755 -0.0663
 3488TIP3    H132023   6.416   3.899   0.051  0.1475 -1.1834  0.0910
 3488TIP3    H232024   6.300   3.833   0.123 -1.2750  1.2611  0.1646
 3489TIP3   OH232025   2.102   1.767   2.657  0.0410 -0.1507  0.1789
 3489TIP3    H132026   2.053   1.838   2.616  2.0417  0.6886 -0.9163
 3489TIP3    H232027   2.107   1.791   2.750 -0.6309  0.3150  0.0964
 3490TIP3   OH232028   6.240   1.450   2.940  0.6824  0.0665 -0.0172
 3490TIP3    H132029   6.325   1.460   2.896  0.8029 -2.7004 -0.5932
 3490TIP3    H232030   6.237   1.357   2.965 -1.4969  0.4714  1.4612
 3491TIP3   OH232031   2.717   3.705   2.120  0.1896  0.2876 -0.0089
 3491TIP3    H132032   2.669   3.778   2.081 -0.2130  0.1307  0.1866
 3491TIP3    H232033   2.686   3.628   2.071  1.3173  0.3588 -0.8591
 3492TIP3   OH232034   3.950   4.361   0.349 -0.3171  0.9951  0.3533
 3492TIP3    H132035   3.976   4.366   0.441 -0.1009  0.0451  0.3601
 3492TIP3    H232036   3.953   4.267   0.329 -2.0937  1.0129 -0.1286
 3493TIP3   OH232037   3.138   3.512   2.731  0.2467  0.3340  0.1917
 3493TIP3    H132038   3.070   3.464   2.684  2.3023 -1.3857 -1.1943
 3493TIP3    H232039   3.129   3.603   2.701 -2.5233  0.5790  1.4527
 3494TIP3   OH232040   6.002   3.214   1.680  0.6906 -0.1150 -0.0888
 3494TIP3    H132041   6.090   3.177   1.682  0.6241 -0.2417  1.0136
 3494TIP3    H232042   5.998   3.262   1.597  1.6989 -0.3329 -0.2738
 3495TIP3   OH232043   2.076   2.322   1.143  0.4172  0.6129  0.1786
 3495TIP3    H132044   2.085   2.316   1.238  1.0587 -2.2232  0.0505
 3495TIP3    H232045   2.113   2.240   1.111 -0.4116  1.1838 -2.4959
 3496TIP3   OH232046   0.281   0.250   2.974 -0.0938  0.3776 -0.5779
 3496TIP3    H132047   0.327   0.334   2.979  0.2764  0.2913 -2.1154
 3496TIP3    H232048   0.309   0.204   3.054  2.7566  0.2356 -1.5290
 3497TIP3   OH232049   2.338   0.934   7.921  1.0420 -0.6937  0.1452
 3497TIP3    H132050   2.282   0.868   7.880 -0.0048  1.0593 -1.3419
 3497TIP3    H232051   2.420   0.930   7.872  0.2637  0.4623 -1.3218
 3498TIP3   OH232052   4.207   2.170   7.410  0.2044 -0.2778 -0.5852
 3498TIP3    H132053   4.218   2.194   7.502 -0.4904 -0.0562 -0.5563
 3498TIP3    H232054   4.297   2.162   7.376  0.4729 -0.8441  0.2325
 3499TIP3   OH232055   5.282   2.639   2.870 -0.1521  0.0899 -0.0426
 3499TIP3    H132056   5.333   2.709   2.911  2.5463 -1.9703  0.3896
 3499TIP3    H232057   5.257   2.582   2.942  0.3084 -0.9344 -0.6666
 3500TIP3   OH232058   1.826   0.849   8.387  0.0110  0.0880 -0.1109
 3500TIP3    H132059   1.732   0.844   8.371 -0.1665 -0.0012  0.8934
 3500TIP3    H232060   1.842   0.787   8.458  0.3603  2.0858  1.6640
 3501TIP3   OH232061   4.882   1.342   2.730  0.6235  0.1324 -0.2628
 3501TIP3    H132062   4.828   1.302   2.798 -0.7922 -0.3564 -1.5956
 3501TIP3    H232063   4.858   1.435   2.733  2.0339  0.4784  1.1697
 3502TIP3   OH232064   2.887   2.476   0.488  0.0185 -0.0216  0.1033
 3502TIP3    H132065   2.865   2.538   0.419 -1.4581 -0.9905 -0.3435
 3502TIP3    H232066   2.923   2.530   0.558  0.6362  1.0860 -1.0317
 3503TIP3   OH232067   3.561   2.322   2.322 -0.0542 -0.1398 -0.0783
 3503TIP3    H132068   3.514   2.405   2.324  2.0514  1.1109  0.8612
 3503TIP3    H232069   3.522   2.270   2.392 -1.2532  0.1023 -0.5441
 3504TIP3   OH232070   6.869   1.764   8.066  0.0200 -0.7527 -0.2999
 3504TIP3    H132071   6.843   1.811   8.145 -1.8960 -1.9927 -0.1248
 3504TIP3    H232072   6.965   1.769   8.066 -0.0320  1.3219  0.7750
 3505TIP3   OH232073   1.116   1.591   7.256  0.1588 -0.5198  0.3271
 3505TIP3    H132074   1.026   1.577   7.229  0.1320  1.9374 -1.1488
 3505TIP3    H232075   1.122   1.550   7.342 -2.4437 -0.4740  0.6035
 3506TIP3   OH232076   4.228   0.144   2.893  0.8187  0.6474 -0.1319
 3506TIP3    H132077   4.197   0.135   2.983 -0.9353  2.2804 -0.5063
 3506TIP3    H232078   4.317   0.110   2.895 -0.0102 -1.7765  1.6365
 3507TIP3   OH232079   4.170   6.381   2.254 -0.3593  0.1776  0.3671
 3507TIP3    H132080   4.096   6.416   2.302 -0.4289  2.0727 -0.9896
 3507TIP3    H232081   4.137   6.369   2.164  0.6382 -0.0988  0.0235
 3508TIP3   OH232082   4.417   3.252   3.315 -0.0911 -0.6477 -0.0253
 3508TIP3    H132083   4.472   3.281   3.243  1.2234 -2.0359  0.3491
 3508TIP3    H232084   4.464   3.281   3.394 -0.9497 -0.0957  0.2985
 3509TIP3   OH232085   6.663   6.468   1.954 -0.0032  0.1598 -0.4658
 3509TIP3    H132086   6.608   6.462   1.877 -0.6198 -0.2162 -0.0059
 3509TIP3    H232087   6.748   6.498   1.921  0.5444 -2.4326 -1.6848
 3510TIP3   OH232088   6.577   3.342   3.447 -0.3725 -0.3256 -0.4378
 3510TIP3    H132089   6.487   3.357   3.477  0.3585  0.3986  1.6205
 3510TIP3    H232090   6.590   3.407   3.378 -1.8776 -1.4858 -1.9112
 3511TIP3   OH232091   0.656   4.299   1.468  0.4560 -0.2667 -0.6345
 3511TIP3    H132092   0.703   4.216   1.457  0.6665 -0.1172 -0.8588
 3511TIP3    H232093   0.643   4.307   1.563  3.1122  0.9166 -0.2908
 3512TIP3   OH232094   1.045   5.214   8.115  0.4112  0.4871  0.3779
 3512TIP3    H132095   1.031   5.273   8.040  0.6383 -0.0488 -0.0927
 3512TIP3    H232096   0.987   5.140   8.098  2.1898 -0.7561 -0.5022
 3513TIP3   OH232097   3.406   4.921   2.252 -0.0353 -0.1296  0.3631
 3513TIP3    H132098   3.318   4.929   2.215  0.2450  1.3258 -0.0436
 3513TIP3    H232099   3.401   4.844   2.309 -1.8183  0.4610  1.0730
 3514TIP3   OH232100   4.225   2.053   7.969 -0.3820  0.9031 -0.1247
 3514TIP3    H132101   4.238   2.008   8.053 -2.2924  1.4881  0.5454
 3514TIP3    H232102   4.297   2.023   7.914 -0.4152 -1.3430  0.9438
 3515TIP3   OH232103   4.383   0.446   0.367  0.0393  0.6651 -0.2456
 3515TIP3    H132104   4.455   0.467   0.307 -0.6203 -0.1305 -1.3651
 3515TIP3    H232105   4.305   0.481   0.323 -0.1963  2.3856  1.4072
 3516TIP3   OH232106   3.296   4.810   8.230  0.7131 -0.3033  0.0884
 3516TIP3    H132107   3.376   4.856   8.255  0.6856 -0.6517  0.8175
 3516TIP3    H232108   3.320   4.718   8.229  0.3383 -0.4041  0.2227
 3517TIP3   OH232109   2.711   1.080   1.602  0.4596  0.4510  0.2506
 3517TIP3    H132110   2.771   1.155   1.593  2.0307 -0.7766  0.1470
 3517TIP3    H232111   2.660   1.081   1.522  1.6705  0.4143 -0.5457
 3518TIP3   OH232112   3.183   5.322   2.233 -0.3731  0.1825 -0.0896
 3518TIP3    H132113   3.125   5.265   2.183  0.7698 -1.0647 -0.0589
 3518TIP3    H232114   3.270   5.308   2.195  0.0859  1.2350  0.5192
 3519TIP3   OH232115   6.770   2.690   3.011  0.2344 -0.2698 -0.1633
 3519TIP3    H132116   6.685   2.706   2.970  0.8516 -0.8587 -1.7328
 3519TIP3    H232117   6.756   2.612   3.066  0.1320 -1.3774 -1.6986
 3520TIP3   OH232118   2.394   4.994   2.017 -0.6674  0.4891  0.1772
 3520TIP3    H132119   2.395   5.089   2.011  0.0575  0.5692  1.3682
 3520TIP3    H232120   2.479   4.971   2.056 -1.3965 -0.5504  1.2078
 3521TIP3   OH232121   2.110   3.912   8.093  0.1471 -0.0584  0.2129
 3521TIP3    H132122   2.115   3.819   8.070 -1.7866  0.0411 -0.8496
 3521TIP3    H232123   2.186   3.951   8.050 -0.0279 -0.8795 -0.9033
 3522TIP3   OH232124   4.793   5.236   2.934  0.0161  0.7648  0.1601
 3522TIP3    H132125   4.808   5.260   3.026  1.2744  4.4791 -0.8589
 3522TIP3    H232126   4.698   5.233   2.925 -0.1502 -1.1957  1.8505
 3523TIP3   OH232127   5.057   0.748   8.188  0.4661 -0.3277 -0.0270
 3523TIP3    H132128   5.150   0.767   8.196  0.6916 -1.0357 -0.8290
 3523TIP3    H232129   5.052   0.677   8.123 -0.3797 -2.3207  2.0505
 3524TIP3   OH232130   1.382   1.486   1.202 -0.5570  0.1634  0.4100
 3524TIP3    H132131   1.432   1.532   1.135 -1.7815  0.9057 -0.0104
 3524TIP3    H232132   1.400   1.534   1.283 -1.5118  1.1542  0.0455
 3525TIP3   OH232133   5.891   1.364   1.425 -0.1814  0.5259  0.0634
 3525TIP3    H132134   5.852   1.319   1.351 -1.4126  0.9344  0.4409
 3525TIP3    H232135   5.854   1.452   1.422  0.3407  0.7794  0.7248
 3526TIP3   OH232136   1.325   4.266   7.645 -0.0041 -0.2690  0.5149
 3526TIP3    H132137   1.379   4.187   7.655 -1.4738 -1.1595  1.9462
 3526TIP3    H232138   1.317   4.277   7.550  0.0323 -2.0248  0.2606
 3527TIP3   OH232139   0.502   2.704   0.921 -0.2432  0.3146 -0.0703
 3527TIP3    H132140   0.542   2.712   1.007 -0.6265 -2.7981  0.5353
 3527TIP3    H232141   0.411   2.731   0.934 -0.5315 -0.9597  0.7847
 3528TIP3   OH232142   5.897   2.485   2.068  0.0364  0.0847 -0.2048
 3528TIP3    H132143   5.954   2.560   2.083  0.9399 -0.6025 -0.1199
 3528TIP3    H232144   5.814   2.509   2.110 -0.0459  1.4556 -1.0844
 3529TIP3   OH232145   0.188   1.035   0.384  0.1359 -0.1522  0.2274
 3529TIP3    H132146   0.114   0.987   0.421  0.3942 -0.0309  0.9053
 3529TIP3    H232147   0.243   0.967   0.345  0.1915 -0.3451  0.6425
 3530TIP3   OH232148   3.053   4.686   2.246 -0.0363 -0.1909  0.2380
 3530TIP3    H132149   2.996   4.640   2.184 -0.0517 -1.5133  1.1902
 3530TIP3    H232150   3.094   4.755   2.193 -2.1522  0.5273 -0.5663
 3531TIP3   OH232151   6.892   4.834   8.294 -0.1279  0.3093 -0.5518
 3531TIP3    H132152   6.799   4.812   8.302  0.4798 -1.8749  1.3208
 3531TIP3    H232153   6.920   4.790   8.214 -0.0520 -1.7173  0.5451
 3532TIP3   OH232154   4.269   3.160   0.934 -0.5755 -0.0754 -0.2842
 3532TIP3    H132155   4.339   3.223   0.952  0.0384 -0.5361 -0.9685
 3532TIP3    H232156   4.198   3.213   0.898 -0.6511  0.4243  0.5721
 3533TIP3   OH232157   4.915   2.705   7.289 -0.3780  0.0587  0.4985
 3533TIP3    H132158   4.896   2.710   7.382  0.4944 -1.9379  0.8400
 3533TIP3    H232159   4.960   2.622   7.278 -1.5347 -0.3566 -1.9008
 3534TIP3   OH232160   5.639   6.048   1.327  0.2425  0.3634 -0.5129
 3534TIP3    H132161   5.673   6.118   1.383  1.0305  0.5267 -1.1810
 3534TIP3    H232162   5.545   6.046   1.345  0.5821 -0.1529  1.4313
 3535TIP3   OH232163   2.289   2.948   1.900  0.5478 -0.3153 -0.3398
 3535TIP3    H132164   2.322   3.007   1.968 -2.3133  1.6505 -0.4841
 3535TIP3    H232165   2.254   2.873   1.948  2.3044 -0.9614 -0.0018
 3536TIP3   OH232166   1.989   2.585   1.075 -0.2656 -0.2470 -0.4874
 3536TIP3    H132167   2.019   2.497   1.095  0.4562 -0.1209 -0.9929
 3536TIP3    H232168   2.066   2.641   1.089 -0.7226  0.3118 -0.1302
 3537TIP3   OH232169   2.346   1.757   7.598  0.1900 -0.4399  0.9425
 3537TIP3    H132170   2.386   1.822   7.539 -0.4370 -0.1996  0.7731
 3537TIP3    H232171   2.368   1.673   7.560 -0.5495 -0.2756  0.1385
 3538TIP3   OH232172   0.904   5.872   0.144 -0.0242  0.5738 -0.4291
 3538TIP3    H132173   0.972   5.940   0.145  0.4646  0.0984 -0.5079
 3538TIP3    H232174   0.911   5.832   0.231  0.8709 -0.5038 -0.9711
 3539TIP3   OH232175   1.318   6.524   1.812  0.3865 -0.2629 -0.0474
 3539TIP3    H132176   1.326   6.561   1.899 -1.3595  1.2144 -0.4541
 3539TIP3    H232177   1.389   6.460   1.806  0.8935  0.0179  2.2177
 3540TIP3   OH232178   1.540   6.538   0.043  0.2007 -0.0746 -0.3230
 3540TIP3    H132179   1.450   6.535   0.078  0.2687  2.1438  0.2395
 3540TIP3    H232180   1.552   6.454   0.000 -2.0741 -0.5385 -0.2008
 3541TIP3   OH232181   0.387   0.034   1.670  0.0001  0.1149 -0.3805
 3541TIP3    H132182   0.334   0.108   1.699  0.1011 -0.9485  3.0501
 3541TIP3    H232183   0.330  -0.017   1.613 -0.8804  1.5634 -0.8243
 3542TIP3   OH232184   1.469   3.717   0.369  0.4108 -0.1622  0.1656
 3542TIP3    H132185   1.546   3.701   0.316  0.6113 -0.3965  0.5251
 3542TIP3    H232186   1.414   3.640   0.356  1.0862 -0.8794  1.3858
 3543TIP3   OH232187   0.950   5.604   8.189 -0.1070 -0.5796  0.3010
 3543TIP3    H132188   0.962   5.591   8.095 -0.1080  0.2719  0.1719
 3543TIP3    H232189   0.938   5.516   8.224 -2.1946 -0.8184 -0.7852
 3544TIP3   OH232190   0.843   6.861   0.979 -0.4700 -0.4608  0.4792
 3544TIP3    H132191   0.795   6.808   0.915 -1.2337  1.6999 -0.8588
 3544TIP3    H232192   0.779   6.883   1.046 -0.6303  0.1149  0.1494
 3545TIP3   OH232193   4.673   6.298   0.708  0.1151  0.1809 -0.4538
 3545TIP3    H132194   4.636   6.342   0.632 -0.1247  1.5446  0.4234
 3545TIP3    H232195   4.620   6.219   0.719 -0.7565  0.7051 -0.8548
 3546TIP3   OH232196   6.912   1.318   0.806  0.7185 -0.5760 -0.2302
 3546TIP3    H132197   6.886   1.295   0.717 -2.4946  2.5246 -0.3162
 3546TIP3    H232198   6.988   1.374   0.796 -1.0733  1.8330 -1.4207
 3547TIP3   OH232199   5.759   5.698   2.881 -0.2069  0.1958  0.1532
 3547TIP3    H132200   5.853   5.693   2.901  0.1891 -2.4028 -1.8070
 3547TIP3    H232201   5.755   5.747   2.799 -0.7350  1.2969  0.8093
 3548TIP3   OH232202   4.526   1.511   1.515 -0.4158 -0.4348  0.2023
 3548TIP3    H132203   4.454   1.510   1.453  0.2712 -0.1718 -0.6277
 3548TIP3    H232204   4.579   1.587   1.489 -1.6613  1.5178  2.9574
 3549TIP3   OH232205   6.692   1.191   0.297  0.1855 -0.0271 -0.0560
 3549TIP3    H132206   6.616   1.143   0.263  0.0314  0.3062 -0.1911
 3549TIP3    H232207   6.748   1.205   0.221 -0.0025  0.4298 -0.1136
 3550TIP3   OH232208   2.781   3.362   0.949  0.1499 -0.4030  0.1700
 3550TIP3    H132209   2.821   3.381   0.863 -0.4649 -0.4409 -0.1289
 3550TIP3    H232210   2.844   3.397   1.012 -0.7040  2.3483 -0.3425
 3551TIP3   OH232211   2.977   2.156   1.814  0.0976  0.5241  0.1931
 3551TIP3    H132212   2.972   2.064   1.839 -0.1804  0.4164 -0.2341
 3551TIP3    H232213   3.036   2.196   1.878 -0.2881  0.1840  0.7700
 3552TIP3   OH232214   2.812   0.032   0.250  0.6205  0.2443  0.2723
 3552TIP3    H132215   2.847   0.002   0.166  0.6352 -1.6979  0.9298
 3552TIP3    H232216   2.722   0.000   0.251  0.2067  1.3638  0.4897
 3553TIP3   OH232217   0.486   4.201   0.494 -0.0741  0.0907  0.1625
 3553TIP3    H132218   0.576   4.231   0.511  0.4828 -1.5249  0.2403
 3553TIP3    H232219   0.470   4.225   0.402  0.2073  0.9091  0.3163
 3554TIP3   OH232220   1.991   6.585   2.291 -0.2828  0.3865 -0.1050
 3554TIP3    H132221   2.002   6.576   2.386 -1.1151 -1.3248 -0.1512
 3554TIP3    H232222   2.052   6.522   2.254 -0.7063  0.3116 -0.6787
 3555TIP3   OH232223   6.229   3.258   8.482 -0.7860  0.7885  0.1024
 3555TIP3    H132224   6.202   3.265   8.391 -0.3202  1.2127 -0.0091
 3555TIP3    H232225   6.210   3.168   8.507 -0.7631  0.6277 -0.4628
 3556TIP3   OH232226   3.538   3.453   3.492  0.0561  0.0068 -0.4626
 3556TIP3    H132227   3.525   3.507   3.569 -0.1799  0.8122 -1.0523
 3556TIP3    H232228   3.450   3.437   3.458 -0.1394 -2.8942  1.0897
 3557TIP3   OH232229   4.800   6.888   8.072 -0.7822  0.4101 -0.3414
 3557TIP3    H132230   4.801   6.971   8.025 -0.4526  0.2041 -0.7007
 3557TIP3    H232231   4.722   6.843   8.039 -0.0951 -0.0931 -1.3360
 3558TIP3   OH232232   2.560   2.965   0.557  0.1638  0.2219  0.1931
 3558TIP3    H132233   2.479   2.978   0.605  1.0689  1.5378  1.4703
 3558TIP3    H232234   2.587   2.876   0.578  0.3077  0.6126  1.8256
 3559TIP3   OH232235   6.725   5.916   0.051 -0.2794  0.5867  0.1589
 3559TIP3    H132236   6.637   5.937   0.083 -0.2315 -0.1761  0.8149
 3559TIP3    H232237   6.745   5.830   0.089  1.6700  1.7084  1.9103
 3560TIP3   OH232238   3.855   5.010   7.885 -0.1506 -0.2705  0.2467
 3560TIP3    H132239   3.777   5.064   7.892  0.5875  1.6664 -3.4052
 3560TIP3    H232240   3.824   4.925   7.853 -0.9524 -0.6128  1.8618
 3561TIP3   OH232241   5.032   4.508   2.852 -0.6244  0.4806  0.8531
 3561TIP3    H132242   5.048   4.417   2.828  0.2933  1.4049 -2.5891
 3561TIP3    H232243   5.080   4.519   2.934  0.3296 -1.8052  0.6926
 3562TIP3   OH232244   3.533   4.858   1.245  0.2453  0.1371  0.2899
 3562TIP3    H132245   3.586   4.911   1.305  2.6657 -1.9018  0.1231
 3562TIP3    H232246   3.511   4.779   1.296  0.6184 -0.7191 -0.8408
 3563TIP3   OH232247   0.729   1.862   1.269 -0.0313 -0.4262  0.4959
 3563TIP3    H132248   0.766   1.934   1.320  0.2868  0.1994 -0.5840
 3563TIP3    H232249   0.806   1.817   1.234 -0.2495  0.2136 -0.8543
 3564TIP3   OH232250   2.066   2.434   3.084  0.0520 -0.1386 -0.0195
 3564TIP3    H132251   2.066   2.365   3.150  0.7125 -0.4628 -0.3430
 3564TIP3    H232252   1.991   2.414   3.028 -0.4947  0.1232  0.6111
 3565TIP3   OH232253   5.990   4.764   0.633  0.2615 -0.2344 -0.0169
 3565TIP3    H132254   6.046   4.829   0.673  0.2718  1.6446 -2.7963
 3565TIP3    H232255   5.901   4.791   0.656  0.3045  0.2567 -0.4064
 3566TIP3   OH232256   5.331   1.004   0.293 -0.2471  0.1183  0.8924
 3566TIP3    H132257   5.380   1.047   0.364  0.9331  0.2373  0.0428
 3566TIP3    H232258   5.341   0.911   0.310  0.9189  0.1216  0.3407
 3567TIP3   OH232259   4.829   2.519   2.585 -0.2734 -0.0625  0.6092
 3567TIP3    H132260   4.870   2.436   2.607 -0.3850 -0.2524  0.1326
 3567TIP3    H232261   4.740   2.494   2.557  0.0046  0.1070 -0.4663
 3568TIP3   OH232262   6.695   1.324   0.987  0.0242 -0.1074  0.2121
 3568TIP3    H132263   6.622   1.369   1.031  0.1763  1.2750 -0.8755
 3568TIP3    H232264   6.693   1.357   0.897  1.3875 -0.8066 -0.0999
 3569TIP3   OH232265   6.761   3.753   2.746 -0.7858  0.5507 -0.2962
 3569TIP3    H132266   6.769   3.777   2.838 -1.7647  0.8886 -0.2868
 3569TIP3    H232267   6.806   3.823   2.699  0.8757 -0.2941 -0.0375
 3570TIP3   OH232268   5.043   6.355   8.470 -0.6830  0.3933 -0.3669
 3570TIP3    H132269   5.121   6.374   8.419  1.1803 -3.0786  0.8121
 3570TIP3    H232270   4.976   6.332   8.406 -0.3971  2.1413 -1.3448
 3571TIP3   OH232271   0.690   0.998   0.822 -0.1752 -0.1752  0.2970
 3571TIP3    H132272   0.749   1.073   0.815  1.9581 -1.8546 -1.2088
 3571TIP3    H232273   0.684   0.964   0.733 -0.5221 -2.1680  1.0243
 3572TIP3   OH232274   6.316   0.565   3.223 -0.3567  0.1923 -0.3117
 3572TIP3    H132275   6.381   0.597   3.286  1.7256  0.9077 -2.6683
 3572TIP3    H232276   6.309   0.635   3.158 -1.4134 -1.0494 -1.5970
 3573TIP3   OH232277   2.685   5.806   1.983  0.8479 -0.3770  0.1035
 3573TIP3    H132278   2.638   5.765   2.055  2.0260  0.2601  1.2677
 3573TIP3    H232279   2.729   5.881   2.022 -0.7545  1.7186 -1.8251
 3574TIP3   OH232280   1.967   0.693   2.445 -0.0317 -0.0705 -0.4392
 3574TIP3    H132281   1.985   0.786   2.462  0.7292 -0.2195 -0.4157
 3574TIP3    H232282   2.005   0.648   2.520  0.3052 -0.4637 -0.8462
 3575TIP3   OH232283   6.300   3.607   1.410 -0.0664  0.5371 -0.2965
 3575TIP3    H132284   6.282   3.536   1.349 -0.9930  0.9357 -0.5084
 3575TIP3    H232285   6.313   3.563   1.494  0.1258  0.0631 -0.5730
 3576TIP3   OH232286   1.909   0.142   2.139  0.3739  0.2958 -0.2280
 3576TIP3    H132287   1.903   0.075   2.071  1.6119  0.2946 -0.3582
 3576TIP3    H232288   1.854   0.214   2.107  0.3232 -0.0169 -0.8606
 3577TIP3   OH232289   2.416   4.819   0.616 -0.0752  0.4641 -0.6743
 3577TIP3    H132290   2.445   4.820   0.707  1.6745 -1.6212 -1.1221
 3577TIP3    H232291   2.462   4.893   0.576  1.8189 -0.5432 -0.5088
 3578TIP3   OH232292   0.067   6.529   2.190 -0.2787 -0.4450  0.0489
 3578TIP3    H132293   0.045   6.508   2.280 -0.7472 -0.3863 -0.0509
 3578TIP3    H232294   0.022   6.612   2.173 -0.3498 -0.5517 -0.2990
 3579TIP3   OH232295   0.470   4.786   2.219  0.2031 -0.2705 -0.3378
 3579TIP3    H132296   0.554   4.749   2.244 -0.6091 -2.9225 -1.1512
 3579TIP3    H232297   0.492   4.862   2.165  2.0809 -0.9716 -0.6383
 3580TIP3   OH232298   1.493   4.675   8.309  0.3911 -0.1664  0.3858
 3580TIP3    H132299   1.539   4.727   8.374  0.5245  0.2240 -0.0123
 3580TIP3    H232300   1.465   4.738   8.243  0.8565 -0.6417 -0.2855
 3581TIP3   OH232301   4.045   5.818   0.432  0.0166  0.3439 -0.3094
 3581TIP3    H132302   4.121   5.766   0.404  0.2438 -0.0146  0.8928
 3581TIP3    H232303   4.050   5.898   0.380 -0.2199 -0.7128 -2.0604
 3582TIP3   OH232304   2.841   0.026   1.433  0.3144  0.1890  0.4446
 3582TIP3    H132305   2.880   0.108   1.461  0.4697  0.3075 -0.1067
 3582TIP3    H232306   2.747   0.045   1.425  0.5318  0.7257 -1.0899
 3583TIP3   OH232307   1.467   3.338   0.827  0.0598  0.6113 -0.0712
 3583TIP3    H132308   1.378   3.310   0.847 -0.0184  1.0940  0.2885
 3583TIP3    H232309   1.459   3.389   0.747  0.0023  0.6862 -0.0185
 3584TIP3   OH232310   0.782   0.405   0.147 -0.0068 -0.2850  0.5508
 3584TIP3    H132311   0.847   0.359   0.200  0.0078 -0.2298  0.5807
 3584TIP3    H232312   0.703   0.353   0.156  0.1134 -0.5200  0.2704
 3585TIP3   OH232313   5.987   6.078   2.051  0.0587  0.0337 -0.2430
 3585TIP3    H132314   6.038   6.020   2.108 -1.0218  0.6236  1.3881
 3585TIP3    H232315   5.925   6.020   2.007  1.6872 -0.6123 -1.8537
 3586TIP3   OH232316   4.374   5.183   8.399  0.2301  0.9973  0.2368
 3586TIP3    H132317   4.285   5.149   8.408  0.1657  1.1080  0.0266
 3586TIP3    H232318   4.392   5.179   8.305  1.3565 -1.2855  0.4995
 3587TIP3   OH232319   0.690   2.208   8.244 -0.6792  0.3299 -0.3014
 3587TIP3    H132320   0.711   2.164   8.161 -0.6316  1.4776 -0.9100
 3587TIP3    H232321   0.767   2.193   8.299 -1.1602 -1.3945 -0.0304
 3588TIP3   OH232322   0.228   0.583   7.466 -0.3409  0.4833  0.1367
 3588TIP3    H132323   0.217   0.631   7.548  0.6070  1.0359 -0.0418
 3588TIP3    H232324   0.293   0.633   7.418  2.3535 -2.0830  0.8205
 3589TIP3   OH232325   2.232   4.624   2.799 -0.2027 -0.2324  0.2797
 3589TIP3    H132326   2.238   4.711   2.839 -1.2290  0.4084 -0.8569
 3589TIP3    H232327   2.225   4.642   2.705  0.2303 -1.5903 -0.0363
 3590TIP3   OH232328   6.702   0.393   0.023  0.3359 -0.8002 -0.2340
 3590TIP3    H132329   6.622   0.387   0.075  0.6202  0.9726  0.5021
 3590TIP3    H232330   6.711   0.307  -0.018 -0.5864 -1.8587  1.6478
 3591TIP3   OH232331   1.264   2.731   0.819 -0.5930 -0.5981  0.4267
 3591TIP3    H132332   1.201   2.743   0.890  0.7811  0.1262  1.5682
 3591TIP3    H232333   1.339   2.690   0.860  1.5710  2.7839  0.1692
 3592TIP3   OH232334   0.203   0.662   1.392 -0.0522  0.0603 -0.6199
 3592TIP3    H132335   0.210   0.577   1.437 -0.5553  0.3186 -0.0365
 3592TIP3    H232336   0.291   0.698   1.396  0.5600 -1.1446 -2.3195
 3593TIP3   OH232337   0.617   1.618   0.614 -0.0952 -0.0974  0.2295
 3593TIP3    H132338   0.534   1.612   0.662 -1.4047 -1.1002 -1.9501
 3593TIP3    H232339   0.647   1.527   0.608 -0.1161 -0.0442 -0.9936
 3594TIP3   OH232340   0.296   2.633   1.474 -0.0774 -0.0179  0.1575
 3594TIP3    H132341   0.241   2.554   1.471  0.8155 -0.6261 -1.2432
 3594TIP3    H232342   0.253   2.689   1.538 -2.6386 -0.2452 -1.2357
 3595TIP3   OH232343   0.514   4.049   1.259 -0.2667 -0.4877 -0.2441
 3595TIP3    H132344   0.463   3.981   1.302  0.0432  0.9508  2.6187
 3595TIP3    H232345   0.604   4.031   1.284 -0.0473  0.2614 -0.4677
 3596TIP3   OH232346   5.794   3.295   0.163 -0.3001  0.1863  0.3522
 3596TIP3    H132347   5.862   3.252   0.214 -0.5695  0.4896  0.9825
 3596TIP3    H232348   5.736   3.224   0.135  1.0112 -0.2638 -1.3909
 3597TIP3   OH232349   6.396   6.721   0.331 -0.1126  0.8386 -0.3225
 3597TIP3    H132350   6.479   6.681   0.356  0.1454  1.6951  0.2353
 3597TIP3    H232351   6.341   6.647   0.303  0.5126  0.1614  0.2037
 3598TIP3   OH232352   5.060   1.478   0.717  0.0377 -0.6172 -0.4960
 3598TIP3    H132353   5.026   1.395   0.748 -0.3167 -0.0695  0.6395
 3598TIP3    H232354   5.144   1.488   0.762 -0.3928  0.1013  0.1679
 3599TIP3   OH232355   1.295   4.404   8.365  0.9194  0.4643  0.0380
 3599TIP3    H132356   1.364   4.466   8.342  2.4765 -1.6342 -1.1903
 3599TIP3    H232357   1.331   4.353   8.437 -0.1202  0.5506  0.6465
 3600TIP3   OH232358   4.486   6.583   1.570  0.3505 -0.0627 -0.3400
 3600TIP3    H132359   4.513   6.608   1.658  1.1485 -0.1470 -0.5532
 3600TIP3    H232360   4.473   6.488   1.576 -0.2098  0.0173 -0.1668
 3601TIP3   OH232361   1.641   0.653   1.282 -1.2152 -0.0179  0.3339
 3601TIP3    H132362   1.691   0.603   1.217  1.6926  0.5633  1.9775
 3601TIP3    H232363   1.560   0.677   1.236 -0.2897 -1.5279 -2.2946
 3602TIP3   OH232364   1.092   5.305   1.882  0.1601  0.0649 -0.4019
 3602TIP3    H132365   1.106   5.219   1.922  1.2585 -0.2353 -1.3784
 3602TIP3    H232366   1.129   5.367   1.945  3.2025 -0.5016 -1.4752
 3603TIP3   OH232367   3.302   5.661   0.296 -0.6527 -0.2113 -0.7702
 3603TIP3    H132368   3.210   5.658   0.323 -0.0726  1.3543  1.7183
 3603TIP3    H232369   3.327   5.753   0.309  1.0611 -0.4410 -2.1730
 3604TIP3   OH232370   1.909   1.713   2.450  0.6120 -0.2085 -0.3530
 3604TIP3    H132371   1.931   1.693   2.541 -2.5171 -0.5309  0.4634
 3604TIP3    H232372   1.857   1.794   2.455 -0.7961 -0.9868 -1.6548
 3605TIP3   OH232373   6.806   0.832   2.808 -0.4267  0.2045 -0.5766
 3605TIP3    H132374   6.847   0.919   2.810  1.4600 -0.6493 -0.0090
 3605TIP3    H232375   6.820   0.797   2.896  0.3422 -1.3199 -1.2683
 3606TIP3   OH232376   3.469   2.765   1.104  0.0345 -0.2920  0.0299
 3606TIP3    H132377   3.542   2.706   1.086 -0.8135 -1.9684  1.7699
 3606TIP3    H232378   3.392   2.718   1.071 -0.3984  1.0320 -0.9197
 3607TIP3   OH232379   0.294   5.346   1.896 -0.0313  0.1110  0.5512
 3607TIP3    H132380   0.361   5.285   1.926 -0.0638 -0.2068 -0.0134
 3607TIP3    H232381   0.212   5.310   1.929 -0.3444 -1.4462 -1.6578
 3608TIP3   OH232382   0.614   4.235   2.368 -0.0140  0.0076  0.1112
 3608TIP3    H132383   0.568   4.158   2.401 -0.6389  0.5563  0.5583
 3608TIP3    H232384   0.629   4.216   2.275  0.0432 -0.7440  0.2700
 3609TIP3   OH232385   0.512   4.442   1.652  0.6698  0.1578 -0.4389
 3609TIP3    H132386   0.469   4.378   1.708  2.1931  1.1998  2.0970
 3609TIP3    H232387   0.441   4.497   1.620 -0.2008  0.2220  1.4515
 3610TIP3   OH232388   6.408   3.312   1.410  0.7737 -0.4096  0.9594
 3610TIP3    H132389   6.483   3.256   1.391  0.1845 -1.2753  1.1434
 3610TIP3    H232390   6.376   3.339   1.324  0.4794 -1.1444  0.8349
 3611TIP3   OH232391   6.362   4.474   2.656  0.0414  0.5162  0.0714
 3611TIP3    H132392   6.428   4.493   2.722  1.2983  1.7810 -1.4785
 3611TIP3    H232393   6.410   4.469   2.573 -1.8838  2.6092 -1.2945
 3612TIP3   OH232394   1.941   5.188   1.804 -0.3286 -0.1810  0.1906
 3612TIP3    H132395   1.887   5.226   1.874 -0.7783  0.3158 -0.4195
 3612TIP3    H232396   1.961   5.100   1.835  0.3804  0.3867  1.4407
 3613TIP3   OH232397   3.664   3.141   3.705  0.4717  0.1787 -0.1821
 3613TIP3    H132398   3.706   3.059   3.681  1.0788  0.6151 -0.6494
 3613TIP3    H232399   3.583   3.143   3.654 -0.6213 -1.0884  1.3983
 3614TIP3   OH232400   2.265   2.458   2.653 -0.4638 -0.1999  0.3887
 3614TIP3    H132401   2.343   2.427   2.698 -0.5017  0.7810  1.1648
 3614TIP3    H232402   2.209   2.381   2.646  0.3258 -0.7806  0.3379
 3615TIP3   OH232403   0.745   6.612   7.780  0.1917  0.0299  0.3041
 3615TIP3    H132404   0.786   6.525   7.778  1.6399  0.6636 -1.9124
 3615TIP3    H232405   0.659   6.599   7.741  0.7309 -0.2880 -0.8098
 3616TIP3   OH232406   2.924   2.842   0.189  0.1129 -0.9996  0.0771
 3616TIP3    H132407   2.918   2.937   0.190  0.5367 -0.9037 -2.1200
 3616TIP3    H232408   3.000   2.822   0.245 -0.1687 -0.0920  0.8033
 3617TIP3   OH232409   4.410   5.947   0.354 -0.0484  0.5821 -0.6253
 3617TIP3    H132410   4.421   5.996   0.435 -0.1171  0.6018 -0.6279
 3617TIP3    H232411   4.358   5.870   0.378 -0.2316  0.6855 -0.6864
 3618TIP3   OH232412   2.726   4.789   3.211  0.0903 -0.0303 -0.4109
 3618TIP3    H132413   2.707   4.700   3.179  1.8664 -0.5358 -0.1465
 3618TIP3    H232414   2.817   4.786   3.238  0.1131  1.8321 -0.1512
 3619TIP3   OH232415   1.084   5.119   2.595 -0.3031 -0.5280 -0.1674
 3619TIP3    H132416   0.997   5.103   2.558 -1.8434  2.2904  1.8087
 3619TIP3    H232417   1.095   5.050   2.661 -1.9317  0.0860  0.8145
 3620TIP3   OH232418   0.057   3.480   8.176  0.9888 -0.1686  0.1389
 3620TIP3    H132419  -0.004   3.407   8.159  0.7581 -0.3542  1.5463
 3620TIP3    H232420   0.086   3.509   8.090 -2.7163  1.3235 -0.8070
 3621TIP3   OH232421   1.197   1.169   2.786  0.1379  0.5077 -0.0107
 3621TIP3    H132422   1.284   1.142   2.815 -1.0167 -0.8917  2.4785
 3621TIP3    H232423   1.168   1.230   2.854 -1.7717 -1.0204  0.6293
 3622TIP3   OH232424   2.642   0.535   8.365 -0.3593  1.1596  0.2242
 3622TIP3    H132425   2.688   0.465   8.320  1.5324  2.0273  0.7018
 3622TIP3    H232426   2.641   0.608   8.303  0.7825  1.8088  0.9147
 3623TIP3   OH232427   3.970   5.190   1.628 -0.3165 -0.4177 -0.7374
 3623TIP3    H132428   3.881   5.192   1.594 -0.3380 -2.5398 -0.9584
 3623TIP3    H232429   4.021   5.148   1.559  0.4555 -1.0528  0.1916
 3624TIP3   OH232430   1.881   5.793   1.084  0.0957 -0.7930 -0.0900
 3624TIP3    H132431   1.794   5.822   1.113  0.6640  0.6777  0.2535
 3624TIP3    H232432   1.882   5.699   1.101 -0.9441 -0.6026  1.2009
 3625TIP3   OH232433   6.149   1.973   2.885 -0.0942  0.1958 -0.7697
 3625TIP3    H132434   6.146   2.032   2.959  0.3734 -0.4082 -0.2590
 3625TIP3    H232435   6.141   1.885   2.923 -1.6766 -0.0556 -1.5755
 3626TIP3   OH232436   0.689   2.222   3.016  0.4589 -0.2689 -0.1182
 3626TIP3    H132437   0.638   2.302   3.004  0.7123 -0.1465 -0.3808
 3626TIP3    H232438   0.700   2.188   2.928 -3.0059 -2.7138  0.1587
 3627TIP3   OH232439   1.568   2.258   0.188 -0.1151 -0.2898  0.0266
 3627TIP3    H132440   1.620   2.329   0.150  2.5480 -2.4192 -0.6439
 3627TIP3    H232441   1.582   2.266   0.283  0.7358 -0.2648 -0.0896
 3628TIP3   OH232442   3.297   2.471   0.822  0.2968 -0.0820  0.0436
 3628TIP3    H132443   3.378   2.495   0.777  0.9347 -0.6983  0.8483
 3628TIP3    H232444   3.313   2.383   0.856 -0.5033  0.0142  0.7030
 3629TIP3   OH232445   0.137   5.627   3.662 -0.5765 -0.3571  0.3726
 3629TIP3    H132446   0.115   5.682   3.737 -0.8227 -0.9844  0.7726
 3629TIP3    H232447   0.210   5.573   3.692 -0.1401 -0.0480 -0.1152
 3630TIP3   OH232448   4.278   1.597   0.181  0.3418 -0.4468 -0.0090
 3630TIP3    H132449   4.249   1.604   0.090  2.2086  0.3693 -0.5701
 3630TIP3    H232450   4.315   1.682   0.202 -2.2524  0.2644  2.3871
 3631TIP3   OH232451   5.600   4.235   0.161  0.1490 -0.2973 -0.0316
 3631TIP3    H132452   5.526   4.231   0.222 -1.2003  0.3922 -1.5446
 3631TIP3    H232453   5.654   4.308   0.193 -0.8608  0.4506  0.0302
 3632TIP3   OH232454   3.720   3.124   2.143 -0.1085 -0.3948 -0.0085
 3632TIP3    H132455   3.766   3.204   2.118 -1.1719  0.1498 -0.2916
 3632TIP3    H232456   3.786   3.071   2.188  0.7292  0.4378 -0.2270
 3633TIP3   OH232457   3.385   1.030   2.162 -0.3292 -0.1671  0.1467
 3633TIP3    H132458   3.396   1.069   2.075 -2.1126  2.2787  0.9091
 3633TIP3    H232459   3.336   1.095   2.212  1.9874 -0.7529  3.5478
 3634TIP3   OH232460   6.134   6.795   1.823  0.7417 -0.0770 -0.2989
 3634TIP3    H132461   6.174   6.870   1.779 -0.0763  0.4852 -0.1068
 3634TIP3    H232462   6.043   6.795   1.793  0.1352  0.3713  1.4338
 3635TIP3   OH232463   2.409   6.693   1.621  0.0200  0.2739 -0.2154
 3635TIP3    H132464   2.329   6.742   1.638 -0.2815 -0.3593  0.2116
 3635TIP3    H232465   2.433   6.655   1.706  0.1283 -0.4939 -0.5827
 3636TIP3   OH232466   5.995   1.847   0.593 -0.1567 -0.1311  0.0273
 3636TIP3    H132467   5.926   1.863   0.529 -0.1004 -0.9646 -0.2565
 3636TIP3    H232468   5.954   1.867   0.677 -0.4570  0.2626 -0.2089
 3637TIP3   OH232469   4.284   6.598   0.310  0.5650 -0.0902  0.4427
 3637TIP3    H132470   4.296   6.629   0.221  1.5378 -3.3446 -0.6993
 3637TIP3    H232471   4.369   6.612   0.352  1.9263 -3.3600 -0.9141
 3638TIP3   OH232472   1.174   4.720   2.190 -0.0920  0.3316  0.7938
 3638TIP3    H132473   1.091   4.764   2.207 -0.6113 -0.4257  0.2817
 3638TIP3    H232474   1.153   4.654   2.124  0.7886 -0.2746  1.1049
 3639TIP3   OH232475   5.349   2.306   8.004 -0.0508  0.2731  0.3666
 3639TIP3    H132476   5.441   2.331   7.999 -0.2489  1.8720  2.9916
 3639TIP3    H232477   5.302   2.373   7.955  0.0882 -0.1811 -0.4130
 3640TIP3   OH232478   4.054   3.612   0.476 -0.1273 -0.1069 -0.5216
 3640TIP3    H132479   4.116   3.683   0.459 -1.6774  1.0966 -1.4625
 3640TIP3    H232480   3.986   3.652   0.530 -0.1079 -1.4039  0.5100
 3641TIP3   OH232481   2.308   5.457   1.559  0.1400  0.1280  0.0996
 3641TIP3    H132482   2.307   5.527   1.624 -2.3720 -0.0619  0.3646
 3641TIP3    H232483   2.289   5.377   1.609 -0.8689 -0.1564 -0.6899
 3642TIP3   OH232484   2.193   2.589   8.014 -0.1327  0.4150  0.1589
 3642TIP3    H132485   2.201   2.533   7.936  0.6809  0.8088 -0.0527
 3642TIP3    H232486   2.245   2.666   7.994  0.5157  0.3029  1.2879
 3643TIP3   OH232487   3.005   3.459   7.520 -0.4526  0.5662  0.7279
 3643TIP3    H132488   3.056   3.407   7.459 -1.6145 -0.7008  0.7834
 3643TIP3    H232489   2.988   3.541   7.474 -1.4856 -0.4415 -0.7975
 3644TIP3   OH232490   2.235   6.779   0.098 -0.0905  0.1311 -0.6277
 3644TIP3    H132491   2.273   6.813   0.179 -0.5627 -1.0287  0.1131
 3644TIP3    H232492   2.181   6.850   0.064 -0.5625  0.3411  0.5326
 3645TIP3   OH232493   2.950   4.457   0.059 -0.5641 -0.2947  0.5393
 3645TIP3    H132494   3.003   4.485  -0.015 -0.1863 -0.1234  0.8719
 3645TIP3    H232495   2.902   4.535   0.085 -1.7220 -0.6734 -0.3610
 3646TIP3   OH232496   6.685   0.164   8.353  0.6169 -0.0956  0.0327
 3646TIP3    H132497   6.702   0.160   8.259 -1.0820 -0.0879 -0.2954
 3646TIP3    H232498   6.687   0.073   8.383 -2.5147 -0.5423 -0.7581
 3647TIP3   OH232499   3.292   6.298   2.522  0.1516  0.4141  0.3552
 3647TIP3    H132500   3.359   6.261   2.580  0.2309  2.3033  1.5490
 3647TIP3    H232501   3.269   6.382   2.562  0.8977  2.2971 -2.8040
 3648TIP3   OH232502   6.737   0.056   2.026 -1.0312  0.1787 -0.1232
 3648TIP3    H132503   6.697   0.097   1.949 -2.0947 -0.1101  0.2599
 3648TIP3    H232504   6.801   0.120   2.056 -0.0220 -0.0285 -1.6892
 3649TIP3   OH232505   3.745   1.774   0.281 -0.7735 -0.7040 -0.4713
 3649TIP3    H132506   3.687   1.710   0.323  0.8996  0.0610  3.5365
 3649TIP3    H232507   3.697   1.856   0.284 -0.8028 -0.7243 -0.3669
 3650TIP3   OH232508   2.887   5.982   7.768  0.3275  0.1738 -0.4447
 3650TIP3    H132509   2.909   5.927   7.843  2.2630  3.0712  1.2932
 3650TIP3    H232510   2.799   6.014   7.787  0.9635  1.2365  0.9313
 3651TIP3   OH232511   1.337   1.479   8.336 -0.3459  0.0431 -0.4348
 3651TIP3    H132512   1.420   1.444   8.304 -0.4127 -2.4894  1.7834
 3651TIP3    H232513   1.270   1.433   8.284 -0.3887  0.0418 -0.3784
 3652TIP3   OH232514   0.972   3.737   3.590  0.2954 -0.0292  0.0022
 3652TIP3    H132515   1.016   3.806   3.639  1.4252  0.3395 -1.4865
 3652TIP3    H232516   1.040   3.697   3.537 -0.6187 -1.3778 -0.2200
 3653TIP3   OH232517   4.066   2.996   8.132 -0.3190  0.0406 -0.1426
 3653TIP3    H132518   4.026   3.072   8.088 -0.0836  0.1747 -0.1254
 3653TIP3    H232519   4.025   2.994   8.218 -0.5161 -0.0076 -0.2369
 3654TIP3   OH232520   5.361   1.580   7.369  0.1093 -0.5432  0.0226
 3654TIP3    H132521   5.377   1.654   7.428 -1.0448  0.1165 -0.4387
 3654TIP3    H232522   5.327   1.511   7.426 -0.4869 -0.0963  0.2219
 3655TIP3   OH232523   3.639   4.593   2.498  1.2303  0.4947  0.0961
 3655TIP3    H132524   3.734   4.598   2.513  1.2550  1.0939 -0.2425
 3655TIP3    H232525   3.628   4.619   2.407  0.6399  1.5815  0.4612
 3656TIP3   OH232526   3.661   1.925   0.770 -0.4814 -0.4980  0.2362
 3656TIP3    H132527   3.735   1.878   0.732 -0.1148 -0.1939  0.5707
 3656TIP3    H232528   3.678   1.926   0.864 -1.8971 -2.1552  0.5699
 3657TIP3   OH232529   0.505   4.577   3.377  0.3376 -0.4043  0.2195
 3657TIP3    H132530   0.592   4.580   3.337 -0.8121 -0.5316 -2.5732
 3657TIP3    H232531   0.497   4.489   3.412  0.6763 -1.0355 -1.2363
 3658TIP3   OH232532   4.404   4.355   1.020 -0.0650  0.1219  0.3364
 3658TIP3    H132533   4.448   4.440   1.029 -0.1743  0.0684  1.4648
 3658TIP3    H232534   4.314   4.371   1.045 -0.3555 -0.1035 -0.5153
 3659TIP3   OH232535   0.491   0.340   1.554 -0.3310 -0.5854  0.2342
 3659TIP3    H132536   0.413   0.314   1.605 -2.0256 -0.4343 -2.1264
 3659TIP3    H232537   0.530   0.258   1.526 -1.2527 -0.6862 -0.8257
 3660TIP3   OH232538   6.266   5.566   0.175 -0.0075 -0.2363 -0.6695
 3660TIP3    H132539   6.287   5.496   0.236 -0.0279 -0.4311 -0.8840
 3660TIP3    H232540   6.192   5.532   0.124 -1.1668  0.6220  0.3881
 3661TIP3   OH232541   0.050   0.831   3.582 -0.1084  0.1870 -0.7942
 3661TIP3    H132542   0.075   0.888   3.655  0.8409 -0.6192 -0.4568
 3661TIP3    H232543  -0.012   0.769   3.619  1.7659 -1.4111 -0.1180
 3662TIP3   OH232544   5.104   0.150   8.049  0.0647 -0.1497 -0.2668
 3662TIP3    H132545   5.102   0.056   8.031  2.0825  0.2276 -2.9128
 3662TIP3    H232546   5.013   0.178   8.038 -0.2490 -1.4923 -1.2969
 3663TIP3   OH232547   3.971   3.716   0.181  0.9669 -0.3915  0.0653
 3663TIP3    H132548   3.931   3.755   0.258 -2.1507 -2.9880 -0.0229
 3663TIP3    H232549   3.926   3.758   0.107  0.4229 -1.2934 -0.1320
 3664TIP3   OH232550   5.493   6.622   3.079  0.0273 -0.4586 -0.1337
 3664TIP3    H132551   5.409   6.579   3.062 -0.2544  0.6462 -1.7364
 3664TIP3    H232552   5.557   6.564   3.039 -0.0056 -1.0075  0.5801
 3665TIP3   OH232553   6.218   1.268   8.107  0.0167  0.2149 -0.0308
 3665TIP3    H132554   6.264   1.229   8.032  2.1041  2.4191 -0.0021
 3665TIP3    H232555   6.203   1.359   8.081  0.0469  0.8165  1.8936
 3666TIP3   OH232556   2.326   5.766   0.502 -0.1555  0.1519  0.1620
 3666TIP3    H132557   2.393   5.748   0.569  1.9220  0.9033 -1.5952
 3666TIP3    H232558   2.289   5.851   0.527 -0.0975 -0.0294  0.8809
 3667TIP3   OH232559   1.601   6.324   1.874  0.4012  0.8919 -0.3415
 3667TIP3    H132560   1.653   6.336   1.795 -1.0894 -0.7950 -1.6574
 3667TIP3    H232561   1.520   6.282   1.844 -1.1039  2.0169  1.8165
 3668TIP3   OH232562   0.790   0.775   7.379  0.1552 -0.6848  0.2108
 3668TIP3    H132563   0.736   0.834   7.431 -0.6125 -0.6824 -0.5743
 3668TIP3    H232564   0.852   0.832   7.335  0.7665 -0.6793  1.0501
 3669TIP3   OH232565   0.199   4.982   2.107 -0.2960  0.2470  0.3005
 3669TIP3    H132566   0.170   4.895   2.137 -0.8501  0.3501  0.0774
 3669TIP3    H232567   0.248   5.018   2.181  0.0565 -0.3146  0.3434
 3670TIP3   OH232568   2.345   6.392   1.033  0.0672  0.1933  0.4573
 3670TIP3    H132569   2.276   6.423   0.975  0.7776  0.8720 -0.0610
 3670TIP3    H232570   2.312   6.310   1.070 -0.5732 -0.0364 -0.5942
 3671TIP3   OH232571   3.082   3.838   3.026 -0.1963  0.5268  0.1289
 3671TIP3    H132572   3.087   3.895   2.950  3.4652 -0.1769 -0.3329
 3671TIP3    H232573   3.079   3.898   3.101 -1.1195  1.2257 -0.4430
 3672TIP3   OH232574   0.948   2.217   8.377  0.7341  0.0797 -0.3565
 3672TIP3    H132575   0.995   2.293   8.343 -0.0379  1.4488  1.4299
 3672TIP3    H232576   0.991   2.197   8.460  0.7843 -1.3187 -0.6985
 3673TIP3   OH232577   4.346   6.378   2.549  0.4005  0.2828 -0.0179
 3673TIP3    H132578   4.337   6.317   2.622  2.0996  1.4502  1.2323
 3673TIP3    H232579   4.392   6.327   2.482 -2.6893 -1.3549 -1.1120
 3674TIP3   OH232580   5.550   0.900   1.027  0.2432 -0.2193 -0.4353
 3674TIP3    H132581   5.623   0.838   1.020  1.9183  1.3182  2.0047
 3674TIP3    H232582   5.479   0.849   1.064  0.3527 -1.4982 -1.8665
 3675TIP3   OH232583   3.905   2.186   3.348 -0.3225 -0.3552 -0.1724
 3675TIP3    H132584   3.935   2.252   3.411  1.3461 -1.6503  0.4699
 3675TIP3    H232585   3.893   2.107   3.400 -0.2310 -1.0947 -1.2528
 3676TIP3   OH232586   4.100   3.280   2.490 -0.6841  0.5689 -0.0129
 3676TIP3    H132587   4.079   3.348   2.426 -0.8912  0.2685 -0.2663
 3676TIP3    H232588   4.192   3.258   2.472 -0.5735  0.8802  0.1638
 3677TIP3   OH232589   1.191   4.288   2.236  0.3096 -0.3087 -0.2342
 3677TIP3    H132590   1.173   4.320   2.148  0.6523 -0.4307 -0.3500
 3677TIP3    H232591   1.287   4.288   2.243  0.2777  0.3649  0.3803
 3678TIP3   OH232592   6.413   3.692   1.084 -0.0931  0.6144 -0.4390
 3678TIP3    H132593   6.377   3.660   1.001  2.4533  0.2027 -1.4619
 3678TIP3    H232594   6.441   3.613   1.130  1.8918  1.0112 -0.8830
 3679TIP3   OH232595   6.248   3.982   0.349 -0.1094 -0.4097  0.1459
 3679TIP3    H132596   6.219   4.022   0.430 -0.2148 -1.3902  0.6032
 3679TIP3    H232597   6.339   3.956   0.366 -0.1747 -0.7426  0.0094
 3680TIP3   OH232598   6.099   6.205   1.635  0.1491  0.8184 -0.1780
 3680TIP3    H132599   6.139   6.206   1.549  0.8490  0.9243  0.1447
 3680TIP3    H232600   6.157   6.151   1.689 -0.1416  0.9626  0.2936
 3681TIP3   OH232601   5.472   3.584   0.381 -0.4724 -0.3386 -0.0260
 3681TIP3    H132602   5.455   3.668   0.424 -0.1635 -0.2579 -0.0611
 3681TIP3    H232603   5.554   3.554   0.419 -0.8204 -0.8563  0.3342
 3682TIP3   OH232604   3.341   2.820   2.757  0.0507  0.2422 -0.0491
 3682TIP3    H132605   3.255   2.795   2.724 -1.2675  1.4413  2.2284
 3682TIP3    H232606   3.371   2.743   2.805  0.1925 -0.1253 -0.7187
 3683TIP3   OH232607   0.290   3.164   3.324  0.2390  0.0024 -0.2187
 3683TIP3    H132608   0.382   3.166   3.349  0.3004  0.2510 -0.4666
 3683TIP3    H232609   0.248   3.231   3.378  0.0221 -0.7585  0.5936
 3684TIP3   OH232610   1.733   1.947   2.160  0.2848  0.2478  0.1869
 3684TIP3    H132611   1.689   1.974   2.080  0.5802  1.7359  0.5053
 3684TIP3    H232612   1.688   1.866   2.186 -1.2030  0.8793 -0.3411
 3685TIP3   OH232613   5.332   0.700   0.513 -0.0773 -0.1772 -0.4781
 3685TIP3    H132614   5.400   0.761   0.539 -0.7013  1.1175 -1.7506
 3685TIP3    H232615   5.339   0.696   0.417 -0.5660 -1.4963 -0.4828
 3686TIP3   OH232616   0.012   1.398   2.183  0.0235  0.3821  0.0502
 3686TIP3    H132617   0.004   1.356   2.269  2.3370  1.3648  0.8102
 3686TIP3    H232618   0.076   1.345   2.136 -0.0626  0.7478 -0.4843
 3687TIP3   OH232619   6.318   6.067   3.175 -0.2596  0.2332  0.2980
 3687TIP3    H132620   6.354   6.036   3.092  1.3311  2.0452  0.2369
 3687TIP3    H232621   6.225   6.046   3.171  0.2399 -2.0476 -0.8070
 3688TIP3   OH232622   4.736   0.445   2.184  0.3000  0.4424 -0.0590
 3688TIP3    H132623   4.691   0.505   2.124  0.0969  2.1080  1.6616
 3688TIP3    H232624   4.672   0.376   2.200  0.7351 -0.6436 -2.5156
 3689TIP3   OH232625   4.888   5.144   0.104  0.1206 -0.7040 -0.6449
 3689TIP3    H132626   4.850   5.228   0.131 -1.3560 -1.5909  0.1580
 3689TIP3    H232627   4.826   5.109   0.040  0.6147 -1.2845 -0.8155
 3690TIP3   OH232628   5.196   6.898   8.306 -0.0877  0.6877  0.9815
 3690TIP3    H132629   5.165   6.823   8.356  0.1857  1.2617  2.0357
 3690TIP3    H232630   5.173   6.878   8.215 -1.0671 -0.1307  1.3978
 3691TIP3   OH232631   4.318   4.757   1.558 -0.0972 -0.4236 -0.0863
 3691TIP3    H132632   4.391   4.816   1.538 -0.8043  1.2281  1.8414
 3691TIP3    H232633   4.348   4.706   1.633 -1.4109  1.5174  1.9079
 3692TIP3   OH232634   4.005   5.495   0.148  0.0268  0.5330  0.1779
 3692TIP3    H132635   3.990   5.431   0.078  1.0463  0.1421  0.2869
 3692TIP3    H232636   3.921   5.537   0.161  0.2038  1.9963 -2.6184
 3693TIP3   OH232637   4.761   1.006   2.709  0.3495 -0.3086  0.4603
 3693TIP3    H132638   4.729   1.080   2.760 -0.2604 -1.1948  1.3858
 3693TIP3    H232639   4.683   0.955   2.689  1.0885 -2.4971  2.7360
 3694TIP3   OH232640   6.761   1.405   2.629 -0.0289  0.2055  0.2844
 3694TIP3    H132641   6.774   1.492   2.592  2.2009  0.2698  1.0838
 3694TIP3    H232642   6.797   1.411   2.718  1.3442 -1.8168 -0.0653
 3695TIP3   OH232643   5.268   5.416   0.623 -0.9896  0.1495  0.5642
 3695TIP3    H132644   5.317   5.491   0.657  1.2734 -1.2341  0.5871
 3695TIP3    H232645   5.177   5.436   0.642 -0.1871  1.2580  3.8527
 3696TIP3   OH232646   1.414   6.931   1.605  0.3602 -0.3293  0.2066
 3696TIP3    H132647   1.381   6.954   1.519  2.8134  0.2199 -0.6795
 3696TIP3    H232648   1.336   6.919   1.659 -1.2157  0.2290 -1.8333
 3697TIP3   OH232649   5.332   1.369   2.008 -0.1179  0.1932 -0.2296
 3697TIP3    H132650   5.246   1.361   2.050  0.7000  1.5707  1.8978
 3697TIP3    H232651   5.344   1.286   1.961 -2.0266 -0.5807  0.5530
 3698TIP3   OH232652   1.830   0.487   2.333  0.6024 -0.5358  0.4589
 3698TIP3    H132653   1.739   0.513   2.340  0.7323  1.1393 -2.3423
 3698TIP3    H232654   1.879   0.561   2.370  0.8202 -0.2860 -0.2920
 3699TIP3   OH232655   3.461   5.403   0.231  0.0806 -0.4826  0.3081
 3699TIP3    H132656   3.529   5.364   0.176 -0.0116  0.3575 -0.4406
 3699TIP3    H232657   3.437   5.484   0.185 -0.4251 -0.0548  1.2901
 3700TIP3   OH232658   1.218   0.466   2.996  0.1941  0.0164 -0.2774
 3700TIP3    H132659   1.124   0.484   3.008  0.5111  1.0243  0.9224
 3700TIP3    H232660   1.245   0.428   3.080  0.7109 -1.0450 -0.8982
 3701TIP3   OH232661   5.917   1.869   7.322  0.6494 -0.7899  0.2524
 3701TIP3    H132662   5.837   1.842   7.368  0.6729 -0.2780  0.5951
 3701TIP3    H232663   5.931   1.800   7.257 -0.5038 -0.4815 -0.3388
 3702TIP3   OH232664   6.173   6.028   2.244 -0.7758  0.4608 -0.5877
 3702TIP3    H132665   6.223   5.958   2.201  0.7646  0.6125  0.8696
 3702TIP3    H232666   6.233   6.103   2.245 -2.0306  1.4995 -1.1906
 3703TIP3   OH232667   1.637   2.303   2.582  0.2020 -0.4987  0.2388
 3703TIP3    H132668   1.545   2.331   2.584  0.4890  0.7415 -1.4562
 3703TIP3    H232669   1.670   2.336   2.499  2.9544  1.6424  1.9845
 3704TIP3   OH232670   2.342   2.232   1.527 -0.0904 -0.0382  0.1525
 3704TIP3    H132671   2.416   2.292   1.526 -0.0667 -0.0691  0.0146
 3704TIP3    H232672   2.345   2.191   1.614  0.4748 -0.5581 -0.1037
 3705TIP3   OH232673   6.883   6.244   1.782  0.1590 -0.2247 -0.0908
 3705TIP3    H132674   6.900   6.319   1.839  0.4378  0.4740 -1.0568
 3705TIP3    H232675   6.960   6.239   1.726 -0.5978 -0.1574 -1.1678
 3706TIP3   OH232676   1.430   0.721   0.893  0.4549  0.1039 -0.1724
 3706TIP3    H132677   1.407   0.632   0.867 -0.4842  0.1884  0.3323
 3706TIP3    H232678   1.508   0.710   0.948  1.4475 -0.2225 -1.5829
 3707TIP3   OH232679   5.633   1.348   0.533  0.5740 -0.7802  0.0546
 3707TIP3    H132680   5.641   1.395   0.450 -1.5103 -2.8775 -1.4659
 3707TIP3    H232681   5.552   1.381   0.571  1.8945  0.7210  1.7409
 3708TIP3   OH232682   6.676   6.839   1.534  0.8648 -0.1525  0.0049
 3708TIP3    H132683   6.704   6.747   1.529  0.9138 -0.1539  0.2579
 3708TIP3    H232684   6.588   6.839   1.497  0.7208 -0.3678  0.3394
 3709TIP3   OH232685   0.260   5.207   3.071 -0.2660  0.0760  0.2557
 3709TIP3    H132686   0.221   5.156   3.142 -0.7173  0.7324  0.4861
 3709TIP3    H232687   0.330   5.257   3.114  0.5787 -0.7772 -0.0778
 3710TIP3   OH232688   3.439   6.508   1.531  0.6807  0.7063 -0.0269
 3710TIP3    H132689   3.523   6.533   1.569  0.7886  0.7326 -0.2757
 3710TIP3    H232690   3.442   6.543   1.442  0.7758 -0.0582 -0.3312
 3711TIP3   OH232691   4.607   3.554   0.070  0.3461 -0.0136  0.6420
 3711TIP3    H132692   4.686   3.502   0.056 -0.9184 -2.3049  1.5850
 3711TIP3    H232693   4.539   3.508   0.021 -0.3321  2.3941 -0.8879
 3712TIP3   OH232694   6.405   6.346   8.039  0.6974  0.9288  0.1611
 3712TIP3    H132695   6.374   6.322   7.951  0.0826 -0.6708  0.7906
 3712TIP3    H232696   6.406   6.442   8.038 -2.0949  1.0329 -0.6627
 3713TIP3   OH232697   0.975   1.576   0.095  0.1172 -0.3777 -0.0183
 3713TIP3    H132698   1.069   1.557   0.099  0.4223  0.9573 -0.3996
 3713TIP3    H232699   0.944   1.526   0.020  0.6167 -0.4716 -0.1653
 3714TIP3   OH232700   4.823   3.307   2.945  0.2360 -0.1685  0.2461
 3714TIP3    H132701   4.772   3.368   2.891  0.5167  0.6480  0.8643
 3714TIP3    H232702   4.914   3.333   2.932  0.4818 -1.3535 -0.5304
 3715TIP3   OH232703   5.621   0.567   1.929 -0.3150  0.1305 -0.0539
 3715TIP3    H132704   5.707   0.575   1.888 -1.0218  0.0486 -1.6261
 3715TIP3    H232705   5.639   0.564   2.023  1.2716  1.7470 -0.2616
 3716TIP3   OH232706   3.263   0.725   0.141 -0.4644  0.1800 -0.1766
 3716TIP3    H132707   3.299   0.672   0.212 -1.1403 -0.5951 -0.3952
 3716TIP3    H232708   3.310   0.808   0.146 -0.1110 -0.0730  0.8221
 3717TIP3   OH232709   6.804   1.201   1.584 -0.2006  0.3527 -0.4898
 3717TIP3    H132710   6.740   1.187   1.654 -0.1698 -2.6346 -0.9495
 3717TIP3    H232711   6.850   1.281   1.609 -0.2180 -0.5578  2.8944
 3718TIP3   OH232712   3.477   1.551   2.465  0.3371 -0.0631 -0.8130
 3718TIP3    H132713   3.572   1.542   2.472  0.4824  1.6599 -0.1505
 3718TIP3    H232714   3.461   1.566   2.372  0.2098 -4.6724 -1.7602
 3719TIP3   OH232715   6.341   6.949   2.506 -0.8490 -0.0869  0.0726
 3719TIP3    H132716   6.360   7.001   2.584 -1.3480 -0.3953  0.4061
 3719TIP3    H232717   6.264   6.990   2.467 -1.7778 -1.0477  0.8115
 3720TIP3   OH232718   0.885   2.669   0.119 -0.2179  0.3657  0.5756
 3720TIP3    H132719   0.938   2.600   0.157 -0.3396 -0.6619 -1.0418
 3720TIP3    H232720   0.798   2.657   0.158 -0.2151 -0.3439  0.3667
 3721TIP3   OH232721   0.226   1.281   7.316 -0.1197 -0.0660  0.1935
 3721TIP3    H132722   0.213   1.303   7.224 -0.1588 -1.1742 -0.0820
 3721TIP3    H232723   0.279   1.353   7.351 -0.2059  0.4199 -0.6612
 3722TIP3   OH232724   4.458   2.918   1.319  0.1302 -0.2233  0.2870
 3722TIP3    H132725   4.497   2.850   1.264  0.4365  0.3930 -0.2768
 3722TIP3    H232726   4.529   2.981   1.333 -0.8342  1.4000 -1.5257
 3723TIP3   OH232727   3.326   0.017   0.373 -0.5003  0.1134  0.3009
 3723TIP3    H132728   3.365   0.014   0.286 -3.5936 -0.8798 -1.2042
 3723TIP3    H232729   3.292   0.106   0.381 -0.2402  0.1964  0.5138
 3724TIP3   OH232730   4.264   3.024   2.858 -0.3060  0.1390 -0.2487
 3724TIP3    H132731   4.290   3.114   2.841 -0.1973 -0.1409 -1.6788
 3724TIP3    H232732   4.343   2.983   2.895 -0.2917  0.5619  0.1989
 3725TIP3   OH232733   2.358   1.490   1.312 -0.4699 -0.2565 -0.4775
 3725TIP3    H132734   2.338   1.447   1.229  1.9197 -1.0163 -0.7206
 3725TIP3    H232735   2.397   1.573   1.288 -0.4997 -0.1310 -0.1026
 3726TIP3   OH232736   4.962   5.860   2.219 -0.6681 -0.1634 -0.1260
 3726TIP3    H132737   5.010   5.943   2.215 -0.5687  0.1406  3.6079
 3726TIP3    H232738   4.872   5.887   2.238 -0.3519 -0.7904  2.7162
 3727TIP3   OH232739   6.389   0.782   0.104  0.1652  0.6353 -0.6426
 3727TIP3    H132740   6.320   0.786   0.038 -0.1878  2.7757 -0.2338
 3727TIP3    H232741   6.454   0.722   0.068 -1.4867 -0.7556 -1.4385
 3728TIP3   OH232742   1.268   4.321   1.596 -0.7263  0.4248 -0.2611
 3728TIP3    H132743   1.350   4.352   1.556 -0.6381  0.1141 -0.3240
 3728TIP3    H232744   1.274   4.349   1.687 -0.6434  0.5863 -0.3158
 3729TIP3   OH232745   3.880   1.515   2.485  0.2889  0.0065 -0.2434
 3729TIP3    H132746   3.840   1.451   2.427  1.3199 -0.8437 -0.0557
 3729TIP3    H232747   3.853   1.488   2.573  2.2706 -1.4138  0.0136
 3730TIP3   OH232748   2.818   4.454   8.261  0.0061 -0.2618 -0.6081
 3730TIP3    H132749   2.855   4.366   8.263  0.7278  0.0379  0.4135
 3730TIP3    H232750   2.746   4.452   8.324  0.6230  0.1075  0.1309
 3731TIP3   OH232751   6.061   2.029   1.212  0.1948 -0.0069  0.5674
 3731TIP3    H132752   6.020   1.955   1.258 -0.8948  0.3229  0.1666
 3731TIP3    H232753   6.114   2.072   1.279  0.7376 -1.0574  0.8420
 3732TIP3   OH232754   6.534   3.445   7.952  0.0054 -0.1748 -0.2132
 3732TIP3    H132755   6.588   3.521   7.972 -0.8678  0.2286  0.6514
 3732TIP3    H232756   6.445   3.471   7.975 -0.5542 -0.8881 -1.4553
 3733TIP3   OH232757   0.998   2.471   7.899 -0.2904 -0.2968  0.0258
 3733TIP3    H132758   1.040   2.487   7.815  1.6246 -0.7098  0.8351
 3733TIP3    H232759   0.983   2.559   7.935 -2.9622 -0.0144 -1.4955
 3734TIP3   OH232760   0.298   5.844   3.390 -0.4708 -0.3621 -0.0188
 3734TIP3    H132761   0.335   5.859   3.303  0.0475 -1.1930  0.0478
 3734TIP3    H232762   0.263   5.755   3.387  0.0760 -0.6132  0.7955
 3735TIP3   OH232763   0.021   1.408   7.602  0.2328  0.3456  0.0547
 3735TIP3    H132764  -0.056   1.458   7.630 -0.2556 -0.2274 -0.2435
 3735TIP3    H232765   0.095   1.466   7.620 -0.4241  1.8346 -1.6641
 3736TIP3   OH232766   2.391   0.432   1.742  0.0385 -0.0239 -0.5641
 3736TIP3    H132767   2.357   0.432   1.831  0.1154  0.1503 -0.5352
 3736TIP3    H232768   2.320   0.395   1.689  0.3298 -0.9980 -0.2995
 3737TIP3   OH232769   5.918   0.945   1.509  0.6369  0.1664 -0.3183
 3737TIP3    H132770   5.855   0.929   1.580 -1.2887 -0.5070 -2.0835
 3737TIP3    H232771   5.963   1.025   1.536  0.1370 -0.1816  1.7645
 3738TIP3   OH232772   3.490   0.287   8.103  0.0676  0.4200  0.1725
 3738TIP3    H132773   3.553   0.216   8.090  1.6332  1.6694  0.6836
 3738TIP3    H232774   3.423   0.249   8.160  0.2321 -1.0061 -0.5539
 3739TIP3   OH232775   2.828   3.409   0.663 -0.0740 -0.2451  0.1539
 3739TIP3    H132776   2.791   3.412   0.575 -2.1941 -0.3848  0.9764
 3739TIP3    H232777   2.809   3.496   0.700  1.2912  0.0107  0.3276
 3740TIP3   OH232778   2.551   5.412   0.111  0.4205 -0.2416 -0.3115
 3740TIP3    H132779   2.635   5.444   0.144  0.1233  0.5861 -0.3347
 3740TIP3    H232780   2.489   5.482   0.130 -0.5687 -1.4062  0.9585
 3741TIP3   OH232781   1.128   3.779   0.572  0.3429 -0.3694 -0.5041
 3741TIP3    H132782   1.151   3.864   0.611  0.5370 -0.4489 -0.4450
 3741TIP3    H232783   1.153   3.788   0.480  0.6713 -0.4774 -0.4266
 3742TIP3   OH232784   6.637   2.328   2.091  0.2115 -0.8636  0.4173
 3742TIP3    H132785   6.717   2.326   2.039 -0.6852 -1.7570 -0.9851
 3742TIP3    H232786   6.615   2.235   2.105 -0.3536 -0.6310  1.1436
 3743TIP3   OH232787   3.136   3.095   3.324  0.0713  0.2597  0.8281
 3743TIP3    H132788   3.129   3.106   3.229  4.7020  1.7070  0.4248
 3743TIP3    H232789   3.117   3.181   3.360  1.3052  0.5346  0.8737
 3744TIP3   OH232790   2.327   2.843   0.656  0.2471 -0.2227  0.7802
 3744TIP3    H132791   2.314   2.775   0.590  0.3347  1.0729 -0.6299
 3744TIP3    H232792   2.245   2.892   0.658  0.7144  0.5979  0.5987
 3745TIP3   OH232793   5.232   1.510   1.366  0.1005  0.0766 -0.0837
 3745TIP3    H132794   5.234   1.557   1.282  1.8961 -1.0135 -0.7151
 3745TIP3    H232795   5.202   1.422   1.343 -1.9354  0.4761  0.8722
 3746TIP3   OH232796   1.403   6.100   8.078 -0.2581 -0.0397 -0.0465
 3746TIP3    H132797   1.405   6.005   8.079  0.6117 -0.0474 -1.1017
 3746TIP3    H232798   1.355   6.123   7.998 -0.5137  0.4089  0.2297
 3747TIP3   OH232799   2.115   1.538   3.442 -0.1008  0.4146  0.8582
 3747TIP3    H132800   2.129   1.621   3.396 -2.1603  0.3610  0.0145
 3747TIP3    H232801   2.140   1.556   3.533  1.0195  1.4599  0.3743
 3748TIP3   OH232802   3.773   3.002   2.605 -0.3722  0.3630 -0.5385
 3748TIP3    H132803   3.864   3.020   2.628 -0.3795  1.0138 -0.9857
 3748TIP3    H232804   3.736   2.959   2.682  0.4804 -0.4759 -0.5837
 3749TIP3   OH232805   6.365   6.799   3.665  0.0455  0.2849  0.1996
 3749TIP3    H132806   6.446   6.786   3.715  1.7041  3.1738 -1.4563
 3749TIP3    H232807   6.295   6.785   3.728  1.8836 -0.1445  2.2762
 3750TIP3   OH232808   6.027   0.501   1.497  0.0211  0.1048  0.1988
 3750TIP3    H132809   6.044   0.499   1.591  0.4351  0.2406  0.1291
 3750TIP3    H232810   5.994   0.413   1.476  1.3585 -0.4229  0.2118
 3751TIP3   OH232811   3.906   4.836   2.372 -0.3362  0.0812 -0.2533
 3751TIP3    H132812   3.918   4.839   2.467 -0.7180  0.6690 -0.2204
 3751TIP3    H232813   3.840   4.904   2.354  0.5330  0.7299 -1.0560
 3752TIP3   OH232814   4.350   5.238   0.619  0.4292  0.0033  0.0301
 3752TIP3    H132815   4.359   5.196   0.704 -0.5615 -0.6654 -0.1852
 3752TIP3    H232816   4.404   5.185   0.560 -0.7089 -0.8957 -0.2131
 3753TIP3   OH232817   3.043   4.818   0.681  0.1484  0.4820  0.2267
 3753TIP3    H132818   3.104   4.891   0.687  0.7012  0.2714 -2.0453
 3753TIP3    H232819   2.961   4.856   0.649  0.3737  0.1678 -0.7590
 3754TIP3   OH232820   4.603   3.325   3.147  0.0229  0.2948 -0.1320
 3754TIP3    H132821   4.581   3.418   3.138 -2.1218 -0.1955 -0.5969
 3754TIP3    H232822   4.661   3.307   3.073 -0.2725  1.0657 -0.5587
 3755TIP3   OH232823   2.592   1.328   2.236  0.1459  0.4369 -0.1572
 3755TIP3    H132824   2.502   1.306   2.262  0.0931 -1.0547 -1.4562
 3755TIP3    H232825   2.612   1.409   2.283 -0.9937 -0.5058  2.0925
 3756TIP3   OH232826   2.381   2.133   0.213 -1.2793  0.4524 -0.1625
 3756TIP3    H132827   2.451   2.098   0.267 -0.1445 -0.4531 -2.0886
 3756TIP3    H232828   2.329   2.056   0.187 -0.2288  0.4068 -2.4171
 3757TIP3   OH232829   0.415   3.682   8.165  0.0394  0.1632 -0.0502
 3757TIP3    H132830   0.382   3.741   8.233  0.7830 -0.0152  0.4755
 3757TIP3    H232831   0.418   3.737   8.087 -4.8203 -0.6306 -1.1391
 3758TIP3   OH232832   5.760   5.207   2.476 -0.4697  0.6005  0.6007
 3758TIP3    H132833   5.837   5.200   2.533  0.4953  0.6917 -0.6519
 3758TIP3    H232834   5.720   5.120   2.480 -1.0165  0.8872  2.1969
 3759TIP3   OH232835   5.999   4.136   0.973  0.1570  0.6562  0.0312
 3759TIP3    H132836   6.078   4.108   1.019 -0.6267 -0.9793  0.4579
 3759TIP3    H232837   5.927   4.098   1.024 -0.9204  1.9985 -0.4111
 3760TIP3   OH232838   1.005   2.382   3.384  0.3325  0.4042  0.3725
 3760TIP3    H132839   1.073   2.316   3.379  0.7923  0.9547 -2.1776
 3760TIP3    H232840   0.928   2.336   3.417  0.7062 -1.3465 -1.0984
 3761TIP3   OH232841   0.926   4.159   7.961  0.0884 -0.0086  0.0543
 3761TIP3    H132842   0.879   4.234   7.925 -0.3143  0.4300  1.4254
 3761TIP3    H232843   0.880   4.083   7.926 -0.3094  0.3946 -0.3141
 3762TIP3   OH232844   4.577   4.060   2.030 -0.4024  0.0216  0.1647
 3762TIP3    H132845   4.523   4.092   2.102 -1.4378  0.3103 -0.7202
 3762TIP3    H232846   4.542   3.973   2.010 -0.2336  0.0155 -0.1139
 3763TIP3   OH232847   2.633   6.458   7.891 -0.0699 -0.6259  0.3154
 3763TIP3    H132848   2.540   6.435   7.891  0.0949 -1.3202 -0.5126
 3763TIP3    H232849   2.633   6.554   7.890 -0.7913 -0.6163 -0.5804
 3764TIP3   OH232850   0.536   2.832   1.937 -0.2078  0.4804 -0.1444
 3764TIP3    H132851   0.511   2.915   1.897  0.5699 -0.4597 -2.7692
 3764TIP3    H232852   0.524   2.767   1.867 -3.2830 -2.1267  2.4620
 3765TIP3   OH232853   4.754   2.921   0.596  0.0560  0.3751 -0.3175
 3765TIP3    H132854   4.712   3.001   0.628 -3.4990 -1.6166  0.5083
 3765TIP3    H232855   4.725   2.914   0.505  1.1060  0.4523 -0.6694
 3766TIP3   OH232856   0.666   0.476   0.843 -1.0367 -0.2138 -0.0095
 3766TIP3    H132857   0.585   0.524   0.823 -0.7501  0.1662 -0.2644
 3766TIP3    H232858   0.694   0.511   0.928 -0.0556  1.1271 -0.8486
 3767TIP3   OH232859   3.698   6.520   2.966 -0.3052 -0.1304  0.1552
 3767TIP3    H132860   3.726   6.459   3.034  0.0835  0.2282  0.3177
 3767TIP3    H232861   3.765   6.588   2.966  0.5005 -0.8587 -1.5561
 3768TIP3   OH232862   4.857   2.924   1.438  0.1696 -0.2841  0.1247
 3768TIP3    H132863   4.810   2.916   1.355  0.0853  0.5582  0.0813
 3768TIP3    H232864   4.910   3.003   1.428 -0.7963  0.5601  1.3287
 3769TIP3   OH232865   6.748   6.187   2.248  0.1586 -0.1391 -0.3008
 3769TIP3    H132866   6.768   6.171   2.156  0.4024 -1.3341 -0.0672
 3769TIP3    H232867   6.690   6.262   2.248  2.3002  1.6390 -1.2360
 3770TIP3   OH232868   5.676   2.293   7.893  0.7546 -0.1203 -0.4416
 3770TIP3    H132869   5.752   2.317   7.840  0.8796 -0.1298 -0.2650
 3770TIP3    H232870   5.710   2.232   7.958  0.4750 -0.6198 -0.7611
 3771TIP3   OH232871   4.619   2.651   0.607  0.5642 -0.0819 -0.0402
 3771TIP3    H132872   4.651   2.741   0.613  1.7503 -0.2524 -2.7216
 3771TIP3    H232873   4.695   2.597   0.626  0.5802 -0.5013 -1.2536
 3772TIP3   OH232874   2.749   0.078   3.008 -0.1640  0.0907  0.0732
 3772TIP3    H132875   2.672   0.052   2.957 -0.4399  0.9327  0.0448
 3772TIP3    H232876   2.742   0.173   3.016  0.2686  0.0503  1.0668
 3773TIP3   OH232877   6.658   5.142   0.725  0.3073 -0.4203 -0.1037
 3773TIP3    H132878   6.617   5.067   0.768 -0.9154 -0.3417 -1.0962
 3773TIP3    H232879   6.635   5.216   0.780 -2.4747 -0.0961 -1.5396
 3774TIP3   OH232880   3.987   0.173   0.929 -1.2254 -0.5943  0.7672
 3774TIP3    H132881   3.925   0.101   0.924 -1.7548 -0.1885  1.2427
 3774TIP3    H232882   4.071   0.136   0.902 -2.1389 -0.5228 -2.4677
 3775TIP3   OH232883   2.289   4.408   7.894 -0.5882  0.2691  0.2390
 3775TIP3    H132884   2.239   4.422   7.974 -1.5516 -1.7999  0.0629
 3775TIP3    H232885   2.351   4.338   7.916  0.0292  0.5857 -0.4558
 3776TIP3   OH232886   1.135   5.848   1.112 -0.6329 -0.5497 -0.5487
 3776TIP3    H132887   1.121   5.920   1.050 -0.9461 -0.2569 -0.1435
 3776TIP3    H232888   1.230   5.836   1.114 -0.5429  0.1407 -0.3033
 3777TIP3   OH232889   3.991   4.520   2.533  0.6673  0.2401 -0.0920
 3777TIP3    H132890   3.945   4.602   2.552 -0.7802 -0.4191 -0.5953
 3777TIP3    H232891   4.053   4.544   2.463  1.5650  1.2750  1.0156
 3778TIP3   OH232892   4.104   3.613   2.865  0.1647  0.1803 -0.1641
 3778TIP3    H132893   4.022   3.646   2.901  0.0209 -1.8402  1.5432
 3778TIP3    H232894   4.166   3.686   2.876 -0.6793  0.7311  1.2924
 3779TIP3   OH232895   1.643   0.981   0.950  0.0940 -0.5743  0.0928
 3779TIP3    H132896   1.725   0.937   0.927  1.4960  0.3752  2.8519
 3779TIP3    H232897   1.656   1.072   0.922  0.3950 -0.2112  1.3672
 3780TIP3   OH232898   1.818   1.544   2.705  0.1860  0.2397 -0.0973
 3780TIP3    H132899   1.842   1.456   2.678 -1.5677 -0.8791  1.7614
 3780TIP3    H232900   1.882   1.568   2.772 -0.3242 -0.3102  0.5908
 3781TIP3   OH232901   6.679   5.585   3.475  0.2591 -0.4151  0.2088
 3781TIP3    H132902   6.669   5.498   3.435 -1.5205  0.1150 -0.6308
 3781TIP3    H232903   6.773   5.601   3.474  0.5847 -2.1248 -0.0703
 3782TIP3   OH232904   3.354   0.339   0.620  0.4807 -0.1830  0.2060
 3782TIP3    H132905   3.440   0.375   0.600  0.5567 -0.5733 -0.1904
 3782TIP3    H232906   3.319   0.312   0.535 -0.0493  0.0057  0.3564
 3783TIP3   OH232907   2.547   4.688   8.126 -0.1519 -0.1003 -0.0306
 3783TIP3    H132908   2.530   4.779   8.101 -0.4720 -0.6129 -1.8186
 3783TIP3    H232909   2.628   4.692   8.176 -0.3742  1.2185  0.2620
 3784TIP3   OH232910   4.493   2.521   0.405  0.4613  0.5216  0.0933
 3784TIP3    H132911   4.412   2.477   0.430  1.6947 -2.5635 -0.9822
 3784TIP3    H232912   4.515   2.576   0.481 -1.1990 -0.6723  1.4987
 3785TIP3   OH232913   6.257   0.689   0.354  0.3630  0.3605  0.0225
 3785TIP3    H132914   6.167   0.693   0.323  0.9312  0.4309 -1.7229
 3785TIP3    H232915   6.310   0.717   0.279  1.7807  1.3787  1.3340
 3786TIP3   OH232916   2.226   5.196   3.160  0.1840  0.2806  0.1432
 3786TIP3    H132917   2.311   5.197   3.203  0.6912  0.4484 -0.8329
 3786TIP3    H232918   2.187   5.281   3.183  1.6023  1.5662 -1.9097
 3787TIP3   OH232919   4.421   4.609   1.782 -0.2602 -0.2500  0.1001
 3787TIP3    H132920   4.463   4.588   1.866 -0.7320  0.9891  0.6862
 3787TIP3    H232921   4.373   4.530   1.758 -0.3761 -0.5210  1.1721
 3788TIP3   OH232922   6.572   0.752   0.907 -1.0114 -0.2089 -0.6450
 3788TIP3    H132923   6.591   0.827   0.965  1.4510  0.5740 -2.3066
 3788TIP3    H232924   6.504   0.784   0.848 -1.5815 -0.0834  0.0603
 3789TIP3   OH232925   1.093   2.780   2.103  0.2955  0.0438  0.4338
 3789TIP3    H132926   1.065   2.857   2.152  1.2595  0.3783  0.4670
 3789TIP3    H232927   1.138   2.726   2.167  0.9312  0.1492  0.0830
 3790TIP3   OH232928   1.700   3.393   0.946  0.3528 -0.1986 -0.5390
 3790TIP3    H132929   1.737   3.372   0.860 -0.8594 -0.5129 -0.9985
 3790TIP3    H232930   1.609   3.363   0.942  0.4608 -0.8916  1.1052
 3791TIP3   OH232931   4.232   3.406   2.051 -0.5338 -0.1176  0.0081
 3791TIP3    H132932   4.238   3.500   2.069  0.5200  0.3082 -2.3212
 3791TIP3    H232933   4.317   3.382   2.016 -0.6869 -2.0494  0.8161
 3792TIP3   OH232934   1.385   3.022   2.737  0.3647  0.3082 -0.0848
 3792TIP3    H132935   1.424   3.008   2.824  0.4234  0.6704 -0.0535
 3792TIP3    H232936   1.325   2.948   2.726  2.6667 -1.5247 -1.0782
 3793TIP3   OH232937   4.490   0.615   0.131  0.1610  0.0300 -0.0498
 3793TIP3    H132938   4.535   0.700   0.132 -1.6309  1.0152  1.2567
 3793TIP3    H232939   4.552   0.557   0.087  2.8776  1.2318  1.8488
 3794TIP3   OH232940   2.795   3.030   3.195  0.3985  0.3891  1.0321
 3794TIP3    H132941   2.774   3.029   3.288 -0.6945 -0.2088  0.7999
 3794TIP3    H232942   2.810   3.123   3.175 -0.8132  0.7157  1.5072
 3795TIP3   OH232943   2.303   1.732   8.234 -0.0631  0.2981 -0.1906
 3795TIP3    H132944   2.243   1.677   8.184  0.3007 -1.4457  1.1926
 3795TIP3    H232945   2.352   1.671   8.289  0.4324  1.9961  1.3720
 3796TIP3   OH232946   4.152   4.579   1.179  0.2017  0.0046 -0.3085
 3796TIP3    H132947   4.210   4.510   1.212  1.2303  1.0868  0.2250
 3796TIP3    H232948   4.187   4.660   1.217 -0.7525  0.8653 -1.2031
 3797TIP3   OH232949   6.581   4.007   0.014 -0.4470  0.4848  0.6472
 3797TIP3    H132950   6.611   4.007   0.105 -0.5094 -0.2041  0.6770
 3797TIP3    H232951   6.650   3.960  -0.034 -1.5758 -1.4113  0.7687
 3798TIP3   OH232952   1.000   0.231   0.260  0.0460 -0.1968 -0.1551
 3798TIP3    H132953   0.988   0.181   0.179  1.7417  0.9696 -1.2011
 3798TIP3    H232954   1.020   0.166   0.326  0.9212 -1.0156 -1.1955
 3799TIP3   OH232955   5.857   0.561   3.548 -0.1505 -0.1354 -0.2206
 3799TIP3    H132956   5.784   0.509   3.580  1.0161 -1.5009  0.3463
 3799TIP3    H232957   5.881   0.616   3.622  0.1256 -0.5437  0.0008
 3800TIP3   OH232958   2.719   6.591   3.565  0.3275 -0.1808  0.1710
 3800TIP3    H132959   2.767   6.519   3.605 -0.2299 -0.0391  1.1087
 3800TIP3    H232960   2.784   6.634   3.509  0.2967 -2.2511 -1.5730
 3801TIP3   OH232961   4.801   4.070   0.951  0.2711 -1.0608 -0.1671
 3801TIP3    H132962   4.801   4.118   0.869 -1.2254  1.3831  1.1278
 3801TIP3    H232963   4.894   4.054   0.970  0.6755 -0.8409 -1.8329
 3802TIP3   OH232964   2.369   2.388   1.168  0.4160 -0.0772 -0.4225
 3802TIP3    H132965   2.318   2.413   1.246 -0.2540  1.4265 -1.2853
 3802TIP3    H232966   2.307   2.399   1.095  2.1307  2.7163 -1.6150
 3803TIP3   OH232967   1.255   4.600   3.291 -0.9067 -0.2429 -0.5262
 3803TIP3    H132968   1.251   4.627   3.383 -0.0688 -0.3582 -0.4476
 3803TIP3    H232969   1.319   4.659   3.252  2.0055 -2.8668 -0.0552
 3804TIP3   OH232970   1.366   2.364   1.735 -0.9683  0.7187  0.9061
 3804TIP3    H132971   1.397   2.317   1.812 -1.3996 -0.5546  0.3189
 3804TIP3    H232972   1.325   2.443   1.770 -0.5810  0.4775  1.9324
 3805TIP3   OH232973   4.408   3.428   8.434  0.1074  0.5784  0.0688
 3805TIP3    H132974   4.386   3.491   8.366  0.8032 -0.6685 -1.3920
 3805TIP3    H232975   4.334   3.367   8.436  1.4728 -1.3620 -2.1009
 3806TIP3   OH232976   2.641   5.173   7.958  0.0322  0.4656  0.4448
 3806TIP3    H132977   2.552   5.202   7.936 -0.1844  0.7337  1.5989
 3806TIP3    H232978   2.675   5.137   7.876 -1.3511 -0.1857  0.1227
 3807TIP3   OH232979   6.542   1.189   0.519 -0.0790 -0.1205  0.4908
 3807TIP3    H132980   6.587   1.190   0.434  0.2203  1.7760  0.6348
 3807TIP3    H232981   6.580   1.114   0.565  0.0039 -0.9742 -0.9036
 3808TIP3   OH232982   6.798   0.685   2.131 -0.5260  0.1795 -0.3107
 3808TIP3    H132983   6.764   0.736   2.058 -1.1618  1.0573  0.5856
 3808TIP3    H232984   6.723   0.633   2.161  0.1658 -1.5624 -1.3861
 3809TIP3   OH232985   3.514   6.583   0.584  0.1882  0.4919 -0.3635
 3809TIP3    H132986   3.570   6.531   0.526  0.7842  1.6393 -0.8480
 3809TIP3    H232987   3.461   6.519   0.630  1.3086 -0.5744 -0.5264
 3810TIP3   OH232988   6.511   0.718   3.336  0.1734 -0.0879 -0.1768
 3810TIP3    H132989   6.537   0.741   3.425  0.3982 -0.0831 -0.2452
 3810TIP3    H232990   6.508   0.802   3.290  2.3380 -0.2986 -0.7951
 3811TIP3   OH232991   6.462   5.119   3.137  0.5929  0.6028  0.4612
 3811TIP3    H132992   6.367   5.106   3.142  0.4141  1.1477 -0.9097
 3811TIP3    H232993   6.491   5.120   3.228 -0.6716  0.1531  0.8985
 3812TIP3   OH232994   4.013   5.658   8.203 -0.3518 -0.3292  0.0282
 3812TIP3    H132995   4.002   5.725   8.136 -1.9488  0.2371  0.8051
 3812TIP3    H232996   4.107   5.643   8.207 -0.0185  1.3906 -0.6407
 3813TIP3   OH232997   6.170   6.628   1.231 -0.0233 -0.1443  0.3235
 3813TIP3    H132998   6.179   6.637   1.136  0.4593 -2.2908  0.1086
 3813TIP3    H232999   6.129   6.709   1.259  0.9733  1.0872 -1.5533
 3814TIP3   OH233000   6.215   1.025   2.426  0.6328 -0.7726 -0.2040
 3814TIP3    H133001   6.141   0.967   2.407  0.6050 -1.4223  1.6922
 3814TIP3    H233002   6.232   1.070   2.343 -3.0323  0.7808 -0.2655
 3815TIP3   OH233003   2.937   4.709   2.500 -0.0328 -0.3368 -0.3724
 3815TIP3    H133004   2.883   4.632   2.515 -0.6887 -0.2223 -1.9430
 3815TIP3    H233005   2.985   4.690   2.419  3.5586 -1.0888  1.7199
 3816TIP3   OH233006   6.023   4.269   3.793 -0.1452 -0.6606  0.1263
 3816TIP3    H133007   5.974   4.334   3.843  0.8703  0.6829 -0.5827
 3816TIP3    H233008   6.039   4.310   3.708  0.8602 -1.6690 -0.2010
 3817TIP3   OH233009   3.380   6.423   0.752  0.2366 -0.5632 -0.5333
 3817TIP3    H133010   3.317   6.495   0.749  0.9728  0.0783 -1.3187
 3817TIP3    H233011   3.332   6.350   0.789 -1.5784 -0.6727 -2.8659
 3818TIP3   OH233012   3.779   2.832   2.181  0.4687  0.3316 -0.3075
 3818TIP3    H133013   3.691   2.857   2.211  0.5429  0.7392 -0.4220
 3818TIP3    H233014   3.791   2.879   2.099  0.1136 -1.1043 -1.2068
 3819TIP3   OH233015   1.443   4.242   2.313 -0.8614  0.4167  0.4190
 3819TIP3    H133016   1.537   4.250   2.325 -0.6306 -2.4077  1.2374
 3819TIP3    H233017   1.406   4.267   2.398 -0.5705 -1.5630  1.1665
 3820TIP3   OH233018   1.080   5.069   0.664  0.3337  0.0782 -0.3531
 3820TIP3    H133019   1.097   5.092   0.755  0.2669  0.3995 -0.4203
 3820TIP3    H233020   1.008   5.006   0.668  0.8957 -0.5671 -0.1291
 3821TIP3   OH233021   1.677   6.952   2.000  0.3172  0.4345 -0.3678
 3821TIP3    H133022   1.756   6.928   1.952 -0.6517 -1.3486 -1.1491
 3821TIP3    H233023   1.643   6.870   2.034 -0.7130  1.2851  0.7601
 3822TIP3   OH233024   1.612   0.383   3.649  0.4130  0.1721  0.0413
 3822TIP3    H133025   1.639   0.291   3.649 -1.6345 -0.5165 -1.6753
 3822TIP3    H233026   1.538   0.386   3.710 -0.4142  0.3332 -0.9396
 3823TIP3   OH233027   0.634   3.570   0.818 -0.3100  0.2927  0.4367
 3823TIP3    H133028   0.555   3.567   0.765 -1.0912 -1.3740  1.5971
 3823TIP3    H233029   0.703   3.596   0.757 -1.2559 -0.9716 -1.2745
 3824TIP3   OH233030   2.691   2.977   2.351  0.2669  0.6399 -0.5474
 3824TIP3    H133031   2.662   3.030   2.277 -0.4594 -0.4187 -1.0574
 3824TIP3    H233032   2.615   2.923   2.373  1.1688 -0.6639 -0.5003
 3825TIP3   OH233033   0.905   6.721   2.067 -0.3991 -0.0660  0.2857
 3825TIP3    H133034   0.835   6.781   2.094 -0.0313  0.6483 -0.2907
 3825TIP3    H233035   0.985   6.772   2.077  0.0257 -0.8084  0.7335
 3826TIP3   OH233036   2.383   1.523   7.397  0.3835  0.3864  0.0478
 3826TIP3    H133037   2.377   1.483   7.310  0.2835  0.9164 -0.1920
 3826TIP3    H233038   2.476   1.519   7.418  0.1441 -2.0345  1.0239
 3827TIP3   OH233039   2.498   1.580   2.863  0.2584  0.2200 -0.2872
 3827TIP3    H133040   2.508   1.649   2.797  0.1250 -0.8756 -1.4902
 3827TIP3    H233041   2.578   1.586   2.916 -0.9869  3.1492  1.5127
 3828TIP3   OH233042   4.781   5.605   2.938 -0.0751 -0.4346 -0.0803
 3828TIP3    H133043   4.718   5.552   2.986  0.0999 -0.2130  0.4009
 3828TIP3    H233044   4.811   5.670   3.002 -1.3035  1.1334 -1.0033
 3829TIP3   OH233045   0.071   5.765   7.745 -0.3297 -0.2032 -0.5575
 3829TIP3    H133046  -0.021   5.786   7.756  0.0204  1.3131 -0.2388
 3829TIP3    H233047   0.113   5.801   7.823  0.4937 -1.1878 -0.5216
 3830TIP3   OH233048   0.867   3.653   0.633  0.7923  0.9382 -0.0449
 3830TIP3    H133049   0.953   3.684   0.663  1.3195 -0.0642 -0.4679
 3830TIP3    H233050   0.819   3.732   0.610  1.4941  1.5287  0.5017
 3831TIP3   OH233051   6.200   2.381   0.657  0.1949  0.6344 -0.1509
 3831TIP3    H133052   6.175   2.442   0.589  0.9164  1.7876  0.5911
 3831TIP3    H233053   6.238   2.306   0.610  2.2528  2.1159 -0.9895
 3832TIP3   OH233054   0.507   4.017   7.848  0.4747  0.3920 -0.5249
 3832TIP3    H133055   0.535   4.099   7.808 -0.5985  0.5913 -0.8951
 3832TIP3    H233056   0.554   3.949   7.800 -0.0085  0.6926 -1.4457
 3833TIP3   OH233057   4.353   2.075   0.578 -0.1934  0.5178 -0.1577
 3833TIP3    H133058   4.445   2.101   0.572 -0.2620  0.6897 -0.4769
 3833TIP3    H233059   4.305   2.157   0.567 -0.3776  0.5205  0.5868
 3834TIP3   OH233060   1.613   0.343   0.528  0.5251 -0.0914 -0.3781
 3834TIP3    H133061   1.610   0.387   0.612  0.6442 -1.7924  0.5660
 3834TIP3    H233062   1.699   0.301   0.526 -0.5558 -2.4761 -0.0099
 3835TIP3   OH233063   0.523   1.740   6.965 -0.0348  0.3189  0.0080
 3835TIP3    H133064   0.590   1.717   7.029  0.1368 -0.9223 -0.5896
 3835TIP3    H233065   0.552   1.825   6.929 -0.1801  1.0748  1.5985
 3836TIP3   OH233066   5.867   2.739   1.821  0.1715 -0.4488 -0.3374
 3836TIP3    H133067   5.902   2.702   1.902  0.2276 -2.8428 -1.3571
 3836TIP3    H233068   5.922   2.815   1.803  1.6132 -1.1971  0.6985
 3837TIP3   OH233069   2.233   4.218   0.182  0.1216 -0.3774 -0.4980
 3837TIP3    H133070   2.222   4.134   0.227 -1.2708 -0.0610 -0.1899
 3837TIP3    H233071   2.256   4.195   0.092 -1.2720 -1.1445 -0.6936
 3838TIP3   OH233072   1.826   4.733   0.946 -0.0957 -0.2896 -0.3326
 3838TIP3    H133073   1.892   4.788   0.988  1.3953 -1.0376 -1.5897
 3838TIP3    H233074   1.750   4.737   1.004  1.2036  0.2354  1.4031
 3839TIP3   OH233075   1.168   4.271   0.372  0.2529  0.0554 -0.1281
 3839TIP3    H133076   1.168   4.297   0.280 -0.5169  1.7017  0.2867
 3839TIP3    H233077   1.131   4.183   0.372  1.5848 -0.5434 -1.4983
 3840TIP3   OH233078   2.190   0.863   2.336  0.2028  0.0748  0.5920
 3840TIP3    H133079   2.171   0.904   2.421 -0.2366 -0.0838  0.5761
 3840TIP3    H233080   2.151   0.922   2.272 -4.0257 -2.1768  0.7170
 3841TIP3   OH233081   1.769   1.752   7.122 -0.0025 -0.0574 -0.7498
 3841TIP3    H133082   1.793   1.807   7.197  0.3181  0.6092 -1.3255
 3841TIP3    H233083   1.796   1.803   7.046 -1.0195 -0.3802 -1.3479
 3842TIP3   OH233084   1.449   0.578   1.507  0.5345 -0.5795  0.5868
 3842TIP3    H133085   1.403   0.522   1.444  1.4606 -1.4272  0.6492
 3842TIP3    H233086   1.537   0.587   1.472  1.5846 -2.3844  2.4975
 3843TIP3   OH233087   1.307   4.177   1.988  0.1576 -0.1363 -0.7871
 3843TIP3    H133088   1.296   4.143   2.077  1.6110  0.5278 -0.3176
 3843TIP3    H233089   1.355   4.259   2.000  0.1844  0.0714 -2.1830
 3844TIP3   OH233090   1.910   4.440   0.914  0.5063 -0.1019  0.1402
 3844TIP3    H133091   2.003   4.421   0.915  0.8231  1.2302 -0.6933
 3844TIP3    H233092   1.905   4.534   0.935 -0.7720 -0.5069  1.8531
 3845TIP3   OH233093   4.471   0.246   2.719  0.6021 -0.2931 -0.0170
 3845TIP3    H133094   4.469   0.197   2.636  2.2788 -1.1456  0.3928
 3845TIP3    H233095   4.470   0.178   2.787 -0.5399  0.3922  0.6886
 3846TIP3   OH233096   2.501   1.816   1.968 -0.5589  0.5179  0.3085
 3846TIP3    H133097   2.588   1.831   2.004 -0.6896 -0.8084  1.2674
 3846TIP3    H233098   2.443   1.868   2.023 -0.5697 -0.1375  0.9279
 3847TIP3   OH233099   2.519   2.525   2.815  0.5520  0.2254 -0.1839
 3847TIP3    H133100   2.432   2.556   2.839  0.5368 -0.0302  0.0980
 3847TIP3    H233101   2.562   2.508   2.899  0.3882 -0.9781 -0.3339
 3848TIP3   OH233102   5.670   1.065   2.193  0.1973  0.2708 -0.4200
 3848TIP3    H133103   5.624   0.984   2.170 -2.1294  0.7464  2.0031
 3848TIP3    H233104   5.639   1.130   2.130 -0.0161 -0.1319 -0.7318
 3849TIP3   OH233105   2.189   1.620   2.020  0.4987  0.3924 -0.4606
 3849TIP3    H133106   2.119   1.682   2.039 -2.0361 -2.3671 -0.1780
 3849TIP3    H233107   2.245   1.623   2.098  0.7942  2.6518 -0.6990
 3850TIP3   OH233108   4.506   3.982   2.966  0.1656 -0.2382  0.2582
 3850TIP3    H133109   4.520   3.916   3.033 -0.2655  1.4242  2.0876
 3850TIP3    H233110   4.541   4.063   3.004  1.2168  0.5290 -2.1152
 3851TIP3   OH233111   6.054   1.201   1.560 -0.7343  0.7342  0.4313
 3851TIP3    H133112   6.010   1.259   1.498  0.5002  2.5386  1.1821
 3851TIP3    H233113   6.053   1.249   1.643 -0.7509 -0.8632  1.4114
 3852TIP3   OH233114   6.261   1.972   8.010 -0.4833  0.0119  0.6392
 3852TIP3    H133115   6.243   2.041   7.946 -2.7880  0.8386  2.0642
 3852TIP3    H233116   6.214   1.999   8.089 -0.1450 -2.4109  1.7725
 3853TIP3   OH233117   6.240   2.812   1.047 -0.0374 -0.1614  0.0811
 3853TIP3    H133118   6.287   2.732   1.069  2.5470  0.8545 -1.3419
 3853TIP3    H233119   6.284   2.880   1.097 -0.4558  0.7369 -0.7475
 3854TIP3   OH233120   1.825   1.027   2.008 -0.3741 -0.8185 -0.3654
 3854TIP3    H133121   1.818   1.101   1.947  0.5830 -0.2365  0.1944
 3854TIP3    H233122   1.737   0.992   2.014 -0.8702  0.3319 -0.5944
 3855TIP3   OH233123   5.514   5.763   1.035  0.2380 -0.1977  0.3264
 3855TIP3    H133124   5.545   5.742   1.123  0.7623  2.6490  0.9104
 3855TIP3    H233125   5.425   5.795   1.049  1.0048  2.1601  0.1576
 3856TIP3   OH233126   0.137   6.292   0.199  0.1313  0.4230  0.1930
 3856TIP3    H133127   0.050   6.253   0.204  0.7186 -0.8102  1.4938
 3856TIP3    H233128   0.196   6.217   0.197  1.2221  1.2429  0.5628
 3857TIP3   OH233129   5.964   5.551   0.913  0.1563  0.5625  0.2812
 3857TIP3    H133130   5.993   5.494   0.841 -0.1636 -1.6897  1.8217
 3857TIP3    H233131   6.043   5.565   0.966  0.3673  2.1200 -0.3892
 3858TIP3   OH233132   4.098   0.248   0.346  0.2375 -0.6473  0.4757
 3858TIP3    H133133   4.034   0.187   0.382  2.0793 -2.2400  1.2292
 3858TIP3    H233134   4.180   0.199   0.344  1.6178  1.5165  0.1831
 3859TIP3   OH233135   6.880   1.075   0.121 -0.0388  0.0906  0.6983
 3859TIP3    H133136   6.886   1.035   0.035  0.6804 -1.8384  1.5860
 3859TIP3    H233137   6.901   1.004   0.182 -1.7666  1.0386  2.5371
 3860TIP3   OH233138   3.924   4.792   2.635  0.4767 -0.7987  0.6220
 3860TIP3    H133139   3.979   4.845   2.693 -2.5395  1.3328  1.7907
 3860TIP3    H233140   3.873   4.737   2.694 -0.2603 -1.0775 -0.2582
 3861TIP3   OH233141   5.789   1.320   7.981 -0.2419 -0.4946 -0.7951
 3861TIP3    H133142   5.747   1.247   7.935  1.0117 -3.0609  1.8346
 3861TIP3    H233143   5.876   1.287   8.005 -0.1864  1.2593  1.8770
 3862TIP3   OH233144   5.828   4.649   0.155 -0.0125 -0.1488  0.2916
 3862TIP3    H133145   5.748   4.607   0.185  0.2095 -0.4609  0.4528
 3862TIP3    H233146   5.898   4.588   0.179  0.4756  0.9582  1.8280
 3863TIP3   OH233147   2.139   0.405   0.912 -0.8386 -0.3657 -0.0837
 3863TIP3    H133148   2.149   0.349   0.990  3.3404 -0.4939 -0.4850
 3863TIP3    H233149   2.126   0.344   0.840 -3.4514 -0.3079  0.2568
 3864TIP3   OH233150   1.930   4.675   2.101 -0.0537  0.1902  0.9154
 3864TIP3    H133151   1.879   4.751   2.073  0.2977  0.3622  0.7349
 3864TIP3    H233152   2.018   4.710   2.114  0.6685 -0.6217 -1.3992
 3865TIP3   OH233153   5.349   3.697   3.082  0.1021 -0.3595  0.1205
 3865TIP3    H133154   5.407   3.628   3.116  1.6208  0.2055 -1.2002
 3865TIP3    H233155   5.408   3.759   3.040 -1.1798  1.9731  1.5667
 3866TIP3   OH233156   6.880   1.371   0.432 -0.1548 -0.4061 -0.2745
 3866TIP3    H133157   6.823   1.295   0.425 -1.1375  0.2844 -0.0269
 3866TIP3    H233158   6.855   1.427   0.359  0.5422 -0.2920 -0.4393
 3867TIP3   OH233159   0.344   0.857   1.193 -0.1792 -0.2140 -0.2826
 3867TIP3    H133160   0.303   0.781   1.153 -1.4289  1.0693 -1.5393
 3867TIP3    H233161   0.401   0.892   1.125 -2.0449  1.7758 -0.9228
 3868TIP3   OH233162   1.647   6.087   3.541  0.3039 -0.3115 -0.6931
 3868TIP3    H133163   1.618   6.005   3.581 -0.5020 -0.4726 -1.5572
 3868TIP3    H233164   1.742   6.087   3.552  0.1722 -0.6685  0.5896
 3869TIP3   OH233165   3.839   3.747   0.996 -0.1996  0.1760  0.7264
 3869TIP3    H133166   3.900   3.797   0.943  0.0267 -0.8297  0.0003
 3869TIP3    H233167   3.842   3.789   1.082 -0.0427  1.3958  0.1421
 3870TIP3   OH233168   0.850   4.037   2.951 -0.3435 -0.1366  0.2329
 3870TIP3    H133169   0.867   4.130   2.938 -0.7470  0.0189  0.8072
 3870TIP3    H233170   0.915   3.993   2.896 -0.2961  0.4830 -0.2084
 3871TIP3   OH233171   4.124   4.210   2.347  0.1100 -0.3638 -0.1196
 3871TIP3    H133172   4.101   4.173   2.432  1.8341 -0.7955  0.1840
 3871TIP3    H233173   4.187   4.279   2.366 -2.1353  2.0337 -0.7858
 3872TIP3   OH233174   3.292   6.596   1.062 -0.8997  0.2508 -0.2678
 3872TIP3    H133175   3.264   6.669   1.007  0.2631  0.8128 -0.1475
 3872TIP3    H233176   3.360   6.552   1.010  0.7188  1.2075  0.9528
 3873TIP3   OH233177   3.706   1.420   3.067 -0.1691 -0.1360  0.0099
 3873TIP3    H133178   3.733   1.346   3.121  0.8204 -0.7987 -1.3251
 3873TIP3    H233179   3.724   1.497   3.121 -2.1810 -0.8377  1.8262
 3874TIP3   OH233180   3.000   5.779   2.284  0.0079 -0.1355 -0.1967
 3874TIP3    H133181   2.977   5.734   2.365  0.9034 -0.5150 -0.1419
 3874TIP3    H233182   2.972   5.719   2.214 -0.5437  0.0841 -0.1672
 3875TIP3   OH233183   1.374   3.884   0.995  0.7785 -0.6201 -0.1207
 3875TIP3    H133184   1.450   3.938   0.978 -0.2361  0.6595 -0.7660
 3875TIP3    H233185   1.341   3.915   1.080 -0.7090  0.9594 -1.1984
 3876TIP3   OH233186   3.322   4.733   1.742 -0.0610  0.1842 -0.5244
 3876TIP3    H133187   3.368   4.688   1.671  0.0401 -0.3103 -0.1553
 3876TIP3    H233188   3.230   4.716   1.726 -0.0169 -0.2445 -0.3282
 3877TIP3   OH233189   5.397   2.049   2.235 -0.0076  0.4986 -0.4100
 3877TIP3    H133190   5.321   2.073   2.181  0.1558  2.1275  0.0469
 3877TIP3    H233191   5.382   2.094   2.318  1.5188  0.9250 -0.3496
 3878TIP3   OH233192   1.055   2.535   1.796 -0.3598  0.5514  0.1646
 3878TIP3    H133193   1.097   2.476   1.858 -1.4696  1.6822  2.0818
 3878TIP3    H233194   1.006   2.477   1.738  1.6312 -0.6008 -0.4425
 3879TIP3   OH233195   2.892   3.425   7.129  0.1157 -0.2967 -0.0616
 3879TIP3    H133196   2.845   3.499   7.166  0.8750 -0.4306  1.2224
 3879TIP3    H233197   2.824   3.369   7.093 -0.9498 -1.2367  3.0844
 3880TIP3   OH233198   0.883   3.039   1.742  0.2481 -0.2291 -0.8044
 3880TIP3    H133199   0.917   3.000   1.661  0.2145 -0.6151 -0.6368
 3880TIP3    H233200   0.862   2.964   1.797  0.3810  0.0339 -0.3902
 3881TIP3   OH233201   2.316   2.819   7.461  0.0744 -0.2476  0.6373
 3881TIP3    H133202   2.326   2.909   7.431  1.2248 -0.7177 -0.5000
 3881TIP3    H233203   2.228   2.794   7.433  0.3438  0.0272 -0.5374
 3882TIP3   OH233204   5.470   2.729   2.583 -0.3482 -0.0690 -0.0369
 3882TIP3    H133205   5.495   2.681   2.505 -1.5280 -0.1226 -0.3974
 3882TIP3    H233206   5.378   2.707   2.597 -0.4194  0.6955  0.8084
 3883TIP3   OH233207   4.582   3.811   8.465 -0.2562 -0.5056  0.2845
 3883TIP3    H133208   4.582   3.720   8.497  1.3993 -0.9558 -0.9213
 3883TIP3    H233209   4.527   3.808   8.387  2.1008 -1.1656 -1.4515
 3884TIP3   OH233210   3.031   4.176   2.755  0.3998  0.4183  0.0485
 3884TIP3    H133211   3.014   4.183   2.661  0.7614  2.3338  0.0890
 3884TIP3    H233212   3.106   4.117   2.762 -0.2125 -0.4880 -0.7807
 3885TIP3   OH233213   2.839   5.348   0.930  0.4829  0.1658  0.0077
 3885TIP3    H133214   2.781   5.352   0.854  1.6569 -2.8283 -1.2177
 3885TIP3    H233215   2.906   5.415   0.914  0.9390 -0.6885 -1.8608
 3886TIP3   OH233216   0.370   6.842   1.890  0.6863  0.1798  0.0881
 3886TIP3    H133217   0.378   6.911   1.956  0.7469 -0.1495  0.4287
 3886TIP3    H233218   0.387   6.886   1.807 -1.4496  1.0756  0.0518
 3887TIP3   OH233219   2.340   5.214   0.818 -0.1557 -0.1467 -0.7174
 3887TIP3    H133220   2.245   5.204   0.813 -0.1183 -0.1190 -3.9552
 3887TIP3    H233221   2.353   5.309   0.820 -0.2893  0.0702 -4.1363
 3888TIP3   OH233222   6.353   3.763   2.808  0.4453 -0.4342 -0.2940
 3888TIP3    H133223   6.327   3.716   2.887 -0.0444  1.9473  1.0222
 3888TIP3    H233224   6.406   3.836   2.839 -1.7975  2.0248 -1.8818
 3889TIP3   OH233225   3.229   3.597   1.499  0.1691  0.2311 -0.5295
 3889TIP3    H133226   3.180   3.532   1.449  0.2632  0.6936 -1.2367
 3889TIP3    H233227   3.217   3.571   1.590 -0.9206  0.0056 -0.7221
 3890TIP3   OH233228   4.650   1.535   2.219  0.3265  0.6523  0.3378
 3890TIP3    H133229   4.631   1.623   2.249 -1.2871 -0.1774  1.9301
 3890TIP3    H233230   4.690   1.492   2.295  1.0708 -0.0182 -0.4063
 3891TIP3   OH233231   2.350   5.962   8.451 -0.0773  0.4755  0.1535
 3891TIP3    H133232   2.259   5.969   8.478 -0.1021 -0.8294  0.4930
 3891TIP3    H233233   2.375   5.873   8.476  1.3600  0.8952  0.2783
 3892TIP3   OH233234   4.510   5.059   0.151  0.1310  0.3331 -0.1688
 3892TIP3    H133235   4.458   4.981   0.171  0.1620 -0.1506 -1.8166
 3892TIP3    H233236   4.463   5.102   0.080  0.4586  1.4861  0.2887
 3893TIP3   OH233237   1.010   1.126   7.444  0.0011  0.4342  0.3019
 3893TIP3    H133238   1.022   1.152   7.352  1.3919 -1.4648 -0.1407
 3893TIP3    H233239   1.095   1.089   7.469 -1.0888 -1.4047  1.5343
 3894TIP3   OH233240   0.857   1.527   7.179  0.0973 -0.1155  0.7285
 3894TIP3    H133241   0.795   1.458   7.201 -0.0218 -1.2887 -2.7240
 3894TIP3    H233242   0.804   1.607   7.178 -0.7203 -0.6461  0.6329
 3895TIP3   OH233243   6.036   4.472   0.217 -0.2157 -0.0395  0.2880
 3895TIP3    H133244   6.110   4.470   0.277  0.8251  0.1387 -0.9255
 3895TIP3    H233245   6.066   4.421   0.141 -1.0557  0.6761 -0.5472
 3896TIP3   OH233246   6.660   0.650   3.120  0.2394 -0.3016  0.3276
 3896TIP3    H133247   6.704   0.735   3.113 -0.0332 -0.2031 -0.2022
 3896TIP3    H233248   6.603   0.659   3.196  2.5357 -1.0680  2.2588
 3897TIP3   OH233249   1.670   0.708   7.509  0.3021  0.1870  0.2003
 3897TIP3    H133250   1.756   0.732   7.476  0.7391 -1.0098  0.4301
 3897TIP3    H233251   1.685   0.630   7.562 -0.9797 -0.2809 -0.0861
 3898TIP3   OH233252   5.384   6.072   1.244  0.4668 -0.1838  0.1499
 3898TIP3    H133253   5.386   6.081   1.149  0.4893  0.3296  0.1940
 3898TIP3    H233254   5.383   6.162   1.276  1.7516 -0.3305  0.6714
 3899TIP3   OH233255   6.101   1.942   2.371 -0.2257 -0.3868  0.0355
 3899TIP3    H133256   6.113   2.031   2.338  0.9485 -0.3420  0.5351
 3899TIP3    H233257   6.054   1.953   2.454  0.0458 -0.2135  0.1677
 3900TIP3   OH233258   1.247   4.622   0.393  0.1498  0.2836  0.1444
 3900TIP3    H133259   1.173   4.572   0.360  1.7799 -1.1859 -1.5084
 3900TIP3    H233260   1.209   4.706   0.420 -1.9754 -0.0847 -1.4137
 3901TIP3   OH233261   5.862   6.390   8.112 -0.6236  0.1418  0.0353
 3901TIP3    H133262   5.934   6.347   8.158  0.5796  0.4876 -1.4391
 3901TIP3    H233263   5.900   6.418   8.029 -1.9968  1.9538 -0.0457
 3902TIP3   OH233264   1.552   3.225   1.280 -0.3681 -0.5195  0.0337
 3902TIP3    H133265   1.469   3.206   1.238 -1.0205  0.3226  0.9111
 3902TIP3    H233266   1.565   3.153   1.342 -1.0203 -0.0664  0.7130
 3903TIP3   OH233267   1.130   4.292   7.834 -0.0613  0.4552  0.1446
 3903TIP3    H133268   1.198   4.287   7.768 -0.9767 -0.1690 -0.7854
 3903TIP3    H233269   1.089   4.378   7.821 -0.9425 -0.0929 -0.8459
 3904TIP3   OH233270   6.882   2.268   3.462 -0.2762  0.0633 -0.8190
 3904TIP3    H133271   6.882   2.346   3.406  1.4206  1.4743  1.0235
 3904TIP3    H233272   6.796   2.268   3.503 -0.6412  0.4006 -1.5631
 3905TIP3   OH233273   0.707   2.808   1.450 -0.5602 -0.2008 -0.3608
 3905TIP3    H133274   0.719   2.807   1.355 -0.4277  2.0776 -0.4141
 3905TIP3    H233275   0.773   2.748   1.483 -0.5745 -0.9865 -1.6976
 3906TIP3   OH233276   2.022   5.895   7.693 -0.4509  0.2640  0.1173
 3906TIP3    H133277   2.006   5.938   7.609  0.1269 -0.9838 -0.6618
 3906TIP3    H233278   2.080   5.954   7.740  0.4841  0.2688 -1.0065
 3907TIP3   OH233279   3.615   6.631   1.724  0.2943 -0.3580  0.3909
 3907TIP3    H133280   3.577   6.686   1.793 -0.4288  0.6846 -0.7873
 3907TIP3    H233281   3.646   6.693   1.658 -2.1889 -1.2796 -1.8430
 3908TIP3   OH233282   1.050   5.950   3.005 -0.5536  0.2072 -0.1640
 3908TIP3    H133283   0.984   5.885   3.029 -2.0882  0.9989 -1.9280
 3908TIP3    H233284   1.051   6.013   3.077  0.8840 -1.6314  1.5220
 3909TIP3   OH233285   0.264   3.746   2.740  0.6505 -0.0980  0.1416
 3909TIP3    H133286   0.272   3.835   2.775  0.1855 -0.4168  1.0800
 3909TIP3    H233287   0.285   3.689   2.814  1.2105 -0.7752 -0.5219
 3910TIP3   OH233288   4.512   5.217   0.382  0.0033 -0.5976 -0.6955
 3910TIP3    H133289   4.490   5.172   0.301 -0.0532 -0.7882 -0.5748
 3910TIP3    H233290   4.560   5.294   0.354  0.1415 -0.7574 -0.9014
 3911TIP3   OH233291   5.697   0.347   1.532 -0.5242 -0.3116  0.1414
 3911TIP3    H133292   5.641   0.330   1.456  2.4506  2.3574 -3.0187
 3911TIP3    H233293   5.784   0.318   1.504  0.9280  1.9523  1.9640
 3912TIP3   OH233294   1.594   1.451   2.016  0.0518 -0.1784  0.3616
 3912TIP3    H133295   1.681   1.455   1.977  0.4577 -1.5463  1.0569
 3912TIP3    H233296   1.608   1.411   2.102 -1.2963 -0.6611  0.3768
 3913TIP3   OH233297   3.545   6.467   7.327 -0.3015 -0.4363 -0.5251
 3913TIP3    H133298   3.449   6.466   7.317 -0.4263 -0.0741  0.5372
 3913TIP3    H233299   3.563   6.400   7.392 -0.0118  0.7237  0.6272
 3914TIP3   OH233300   4.602   4.040   0.129 -0.3127 -0.3204  0.1794
 3914TIP3    H133301   4.586   3.964   0.073  0.0556 -1.1199  1.1337
 3914TIP3    H233302   4.697   4.046   0.136 -0.3452 -0.9703  1.6613
 3915TIP3   OH233303   6.163   6.437   2.942  0.2636  0.3740  0.0416
 3915TIP3    H133304   6.188   6.375   2.873  0.1664  0.8873 -0.4604
 3915TIP3    H233305   6.093   6.393   2.990  0.2198  0.0790 -0.2871
 3916TIP3   OH233306   4.887   0.771   0.723  0.3317  0.4868 -0.1533
 3916TIP3    H133307   4.876   0.683   0.687  0.1211 -0.0556  1.1780
 3916TIP3    H233308   4.972   0.800   0.690  0.4871 -0.2863 -0.4607
 3917TIP3   OH233309   1.777   1.198   1.123 -0.0406  0.0162 -0.3659
 3917TIP3    H133310   1.774   1.110   1.085 -1.0122  0.1254 -0.5724
 3917TIP3    H233311   1.785   1.182   1.217  0.5039 -0.2776 -0.4553
 3918TIP3   OH233312   2.230   5.019   1.604 -0.1656  0.1900  0.5052
 3918TIP3    H133313   2.209   4.939   1.555  0.8053  0.1052  0.1957
 3918TIP3    H233314   2.309   5.052   1.561  1.4538 -0.5354  2.7283
 3919TIP3   OH233315   6.499   6.464   2.415  0.6284 -0.2992  0.1099
 3919TIP3    H133316   6.558   6.467   2.340  1.5930  0.4725  0.8796
 3919TIP3    H233317   6.413   6.487   2.379  1.2848  1.1853 -0.5812
 3920TIP3   OH233318   2.573   4.562   3.123 -0.3243 -0.5312  0.0752
 3920TIP3    H133319   2.490   4.534   3.083 -0.1010 -1.0459 -0.0345
 3920TIP3    H233320   2.640   4.512   3.077  0.3534  1.9274 -1.8297
 3921TIP3   OH233321   6.950   2.507   3.330  0.4756  0.4359 -0.4966
 3921TIP3    H133322   6.921   2.527   3.419  0.1444  1.5396 -0.8373
 3921TIP3    H233323   7.025   2.565   3.316  1.4938 -0.8167 -0.4151
 3922TIP3   OH233324   5.585   4.089   1.252  0.3487 -0.5152  0.1122
 3922TIP3    H133325   5.554   4.026   1.317 -0.9081 -0.0062  0.0166
 3922TIP3    H233326   5.596   4.171   1.301 -0.3599 -0.1951 -0.2547
 3923TIP3   OH233327   2.657   3.394   2.398 -0.6631 -0.4057  0.3463
 3923TIP3    H133328   2.649   3.314   2.346 -0.4487 -0.9228  1.0948
 3923TIP3    H233329   2.580   3.393   2.454 -0.9933  0.2515 -0.0818
 3924TIP3   OH233330   4.341   0.624   8.147 -0.0318  0.2605 -0.2633
 3924TIP3    H133331   4.427   0.584   8.157 -0.0721  0.2961  0.2727
 3924TIP3    H233332   4.313   0.644   8.236  0.1538  1.8383 -0.5242
 3925TIP3   OH233333   3.889   3.824   3.231  0.2951  0.1611 -0.9377
 3925TIP3    H133334   3.956   3.866   3.285 -0.3387  1.4592 -1.1222
 3925TIP3    H233335   3.820   3.799   3.292  0.0608  0.6476 -0.9999
 3926TIP3   OH233336   5.841   5.816   8.170 -0.1143 -0.1187 -0.0449
 3926TIP3    H133337   5.929   5.782   8.181 -0.0359 -0.5621 -1.7065
 3926TIP3    H233338   5.814   5.844   8.257  1.4739 -0.4287  0.5684
 3927TIP3   OH233339   1.339   3.633   0.996 -0.0913  0.1805 -0.4135
 3927TIP3    H133340   1.337   3.636   1.091  2.5419  0.4491 -0.3065
 3927TIP3    H233341   1.324   3.724   0.969  3.8732  1.1585  0.0383
 3928TIP3   OH233342   6.289   4.438   1.314 -0.4562 -0.4723 -0.1006
 3928TIP3    H133343   6.332   4.524   1.320  0.7161 -1.0904  1.0317
 3928TIP3    H233344   6.294   4.415   1.222  1.1497 -0.2336 -0.1100
 3929TIP3   OH233345   0.732   2.398   7.951 -0.7281 -0.1198  0.0796
 3929TIP3    H133346   0.688   2.461   7.894 -0.2192  0.3899  0.2412
 3929TIP3    H233347   0.825   2.420   7.944 -0.3273 -1.9166 -1.1748
 3930TIP3   OH233348   4.158   4.171   1.766 -0.1084  0.4746 -0.3897
 3930TIP3    H133349   4.190   4.080   1.769 -1.1107  0.1109 -0.3415
 3930TIP3    H233350   4.117   4.184   1.852 -0.7409  0.6762 -0.7201
 3931TIP3   OH233351   4.732   5.925   2.949 -0.2441 -0.2888 -0.6499
 3931TIP3    H133352   4.742   5.870   3.026  0.3530 -1.2111 -1.3613
 3931TIP3    H233353   4.818   5.924   2.907  0.5259  3.1253  0.5263
 3932TIP3   OH233354   2.872   2.863   0.538 -0.4785 -0.0658  0.4017
 3932TIP3    H133355   2.788   2.818   0.534  0.2738 -1.4993 -0.6190
 3932TIP3    H233356   2.852   2.950   0.572 -2.8181  0.6572 -2.3818
 3933TIP3   OH233357   0.931   5.366   8.315 -0.2025 -0.3977 -0.0559
 3933TIP3    H133358   0.849   5.324   8.286  0.6651 -0.6404 -2.3407
 3933TIP3    H233359   0.998   5.328   8.259  0.8568  2.9876 -1.3052
 3934TIP3   OH233360   3.039   4.197   8.349  0.5965 -0.1110 -0.0984
 3934TIP3    H133361   3.099   4.123   8.337  0.5837  0.1333 -1.9835
 3934TIP3    H233362   3.085   4.255   8.409  1.7102 -0.4999 -0.5520
 3935TIP3   OH233363   3.139   0.320   0.076  0.6505 -0.4957  0.1048
 3935TIP3    H133364   3.157   0.227   0.067  2.1686 -0.2471  0.3597
 3935TIP3    H233365   3.162   0.358  -0.009 -0.8307 -0.4568 -0.3068
 3936TIP3   OH233366   3.538   2.528   0.702  0.0465  0.7845  0.1626
 3936TIP3    H133367   3.633   2.540   0.699  0.2960 -0.7807  0.7791
 3936TIP3    H233368   3.514   2.508   0.612  0.1570  2.0312 -0.1596
 3937TIP3   OH233369   5.466   3.086   0.761  0.2757  0.2862  0.7212
 3937TIP3    H133370   5.381   3.058   0.794 -0.6919  2.5867  0.3924
 3937TIP3    H233371   5.526   3.074   0.834 -0.2755 -1.4025  0.9459
 3938TIP3   OH233372   1.388   1.649   7.196  0.7201 -0.2645 -0.1937
 3938TIP3    H133373   1.400   1.588   7.123  0.7012 -0.8087  0.2487
 3938TIP3    H233374   1.299   1.633   7.227  0.1302  1.1272 -1.0830
 3939TIP3   OH233375   1.182   1.866   2.189 -0.2093 -0.4964 -0.0731
 3939TIP3    H133376   1.134   1.926   2.245  0.3844 -0.9323  0.9162
 3939TIP3    H233377   1.139   1.782   2.201 -0.7107 -0.3978 -1.0574
 3940TIP3   OH233378   0.609   1.550   1.059 -0.1430 -0.0739  0.2961
 3940TIP3    H133379   0.636   1.528   1.148  0.2507 -1.5720 -0.1721
 3940TIP3    H233380   0.514   1.539   1.058 -0.2430  0.6453  0.6968
 3941TIP3   OH233381   6.272   1.814   0.489 -0.6387  0.5040 -0.6455
 3941TIP3    H133382   6.205   1.876   0.518 -0.3715  1.9166 -2.8285
 3941TIP3    H233383   6.282   1.831   0.395  1.5340 -0.8746 -0.7362
 3942TIP3   OH233384   6.596   4.305   1.496 -0.1836  0.4384  0.4781
 3942TIP3    H133385   6.648   4.314   1.575 -1.8783  0.8596  1.5816
 3942TIP3    H233386   6.554   4.391   1.484 -2.9030 -0.6637  1.3188
 3943TIP3   OH233387   3.933   1.664   1.715 -0.1279  0.3749 -0.3054
 3943TIP3    H133388   4.010   1.641   1.663 -0.3124  0.3977 -0.5952
 3943TIP3    H233389   3.954   1.636   1.804  0.8109  1.6904 -0.0813
 3944TIP3   OH233390   6.077   1.429   7.023 -0.0837  0.1892  0.9329
 3944TIP3    H133391   6.102   1.354   7.078 -0.1931  0.7394  1.7586
 3944TIP3    H233392   6.156   1.483   7.019 -0.5824  1.0488  2.0718
 3945TIP3   OH233393   5.416   0.985   2.683  0.2346 -0.5044  0.5967
 3945TIP3    H133394   5.369   1.052   2.733  1.0858  0.1199  0.5753
 3945TIP3    H233395   5.380   0.902   2.714  0.7570 -0.1325  2.2740
 3946TIP3   OH233396   4.539   1.280   1.207  0.7699 -0.1924  0.1882
 3946TIP3    H133397   4.485   1.336   1.263 -1.1112 -1.9753  0.3131
 3946TIP3    H233398   4.510   1.299   1.118 -0.0496 -1.0651  0.2466
 3947TIP3   OH233399   1.163   0.337   2.004  0.2915  0.8078  0.5897
 3947TIP3    H133400   1.130   0.390   1.931 -0.2537  3.1527  2.4335
 3947TIP3    H233401   1.250   0.373   2.022  0.6960 -0.2026  0.7104
 3948TIP3   OH233402   4.239   2.770   8.137 -0.1268 -0.2965 -0.3052
 3948TIP3    H133403   4.259   2.750   8.046  0.6318 -0.4409 -0.1153
 3948TIP3    H233404   4.198   2.856   8.135  1.8155  0.6719 -0.6083
 3949TIP3   OH233405   4.598   1.226   2.372 -0.0379  0.5127 -0.5374
 3949TIP3    H133406   4.526   1.204   2.431 -0.8322  0.8087 -1.3806
 3949TIP3    H233407   4.556   1.244   2.288  0.9226  1.6470 -0.8061
 3950TIP3   OH233408   6.269   5.152   7.247  0.4373  0.2239  0.0299
 3950TIP3    H133409   6.333   5.213   7.283  0.1649  0.4364  0.1628
 3950TIP3    H233410   6.321   5.085   7.203  0.7297  1.2321 -1.2298
 3951TIP3   OH233411   1.778   6.147   2.356  1.0305  0.3108  0.1057
 3951TIP3    H133412   1.711   6.115   2.418 -0.0534  0.9976 -0.6677
 3951TIP3    H233413   1.775   6.085   2.284  0.3960  0.9652 -0.4489
 3952TIP3   OH233414   2.182   6.290   8.183 -0.3589  0.4392 -0.5521
 3952TIP3    H133415   2.158   6.381   8.199  1.5055  1.3247 -2.3569
 3952TIP3    H233416   2.118   6.258   8.120 -1.1878  0.3759  0.3048
 3953TIP3   OH233417   4.872   6.786   0.736  0.0100 -0.0011  0.0454
 3953TIP3    H133418   4.794   6.838   0.753 -0.3243 -0.5370  0.1766
 3953TIP3    H233419   4.902   6.757   0.822  1.2442  1.4533  0.1369
 3954TIP3   OH233420   2.902   6.377   3.674 -0.0891 -0.6497 -0.2126
 3954TIP3    H133421   2.962   6.314   3.634 -0.5106 -0.9243 -0.4219
 3954TIP3    H233422   2.958   6.446   3.707  0.5533 -1.8534  1.3667
 3955TIP3   OH233423   5.295   6.746   1.641  0.2537  0.1937 -0.1357
 3955TIP3    H133424   5.200   6.745   1.636  0.2926  0.2021 -1.1187
 3955TIP3    H233425   5.316   6.693   1.718 -0.5460  0.3427  0.1908
 3956TIP3   OH233426   3.958   1.958   3.530  0.7420 -0.2607 -0.7419
 3956TIP3    H133427   4.043   1.993   3.557  0.6291 -0.6301  0.1139
 3956TIP3    H233428   3.979   1.892   3.464  0.9245  1.8110 -2.9110
 3957TIP3   OH233429   2.555   5.303   2.781  0.7080 -0.0631  0.3926
 3957TIP3    H133430   2.571   5.327   2.872  0.4672 -0.9104  0.6700
 3957TIP3    H233431   2.464   5.330   2.765  0.7056 -0.0398  0.4458
 3958TIP3   OH233432   3.246   2.423   0.445  0.3528 -0.2144  0.8291
 3958TIP3    H133433   3.301   2.445   0.369 -0.3563 -0.6116  0.1871
 3958TIP3    H233434   3.206   2.339   0.422  0.6457 -0.6804  1.9378
 3959TIP3   OH233435   1.484   1.503   7.934  0.3937  0.1078 -0.0609
 3959TIP3    H133436   1.448   1.554   8.007  0.6244  0.2897 -0.0732
 3959TIP3    H233437   1.579   1.515   7.941  0.4449 -0.2666 -0.1039
 3960TIP3   OH233438   5.238   5.684   2.683  0.2004  0.2416 -0.0680
 3960TIP3    H133439   5.144   5.676   2.667  0.1667 -0.0441  0.2753
 3960TIP3    H233440   5.279   5.628   2.618  0.1463  0.5844 -0.4004
 3961TIP3   OH233441   6.357   0.680   2.970  0.6470 -0.3654  0.7301
 3961TIP3    H133442   6.287   0.742   2.993  0.0944 -1.2181  1.3870
 3961TIP3    H233443   6.416   0.731   2.914  1.1792  1.3146  2.7185
 3962TIP3   OH233444   1.265   3.567   1.964 -0.6908 -0.4341  0.4709
 3962TIP3    H133445   1.202   3.567   2.036 -1.0587 -0.0095  0.1534
 3962TIP3    H233446   1.212   3.556   1.885 -0.2585 -1.3221  0.2844
 3963TIP3   OH233447   0.193   1.460   2.510 -0.6654 -0.3975  0.2457
 3963TIP3    H133448   0.240   1.490   2.432  0.1055  0.5972  1.0676
 3963TIP3    H233449   0.123   1.404   2.475 -0.5639  0.3058 -1.1916
 3964TIP3   OH233450   5.404   0.585   1.311  0.4002  0.3420 -0.3336
 3964TIP3    H133451   5.427   0.568   1.220  2.0442  3.2072 -0.5573
 3964TIP3    H233452   5.325   0.639   1.306  1.0281  1.2911 -0.1188
 3965TIP3   OH233453   3.444   4.869   0.459 -0.5687 -0.3428 -0.1962
 3965TIP3    H133454   3.520   4.925   0.450 -0.5453 -0.3137  0.1567
 3965TIP3    H233455   3.433   4.858   0.554 -0.1749 -1.4701 -0.2587
 3966TIP3   OH233456   3.123   0.642   3.343  0.3190 -0.3262 -0.5909
 3966TIP3    H133457   3.211   0.661   3.376 -0.8777  4.1080  0.6227
 3966TIP3    H233458   3.105   0.712   3.281 -2.8589 -0.2937  0.2273
 3967TIP3   OH233459   0.013   3.480   0.310 -0.1343 -0.5237  0.3601
 3967TIP3    H133460   0.102   3.507   0.331 -0.3806 -1.4804  2.9801
 3967TIP3    H233461  -0.021   3.551   0.255  2.3903 -0.4609 -1.2766
 3968TIP3   OH233462   3.944   3.993   2.706 -0.1797  0.1503 -0.5820
 3968TIP3    H133463   4.018   3.991   2.766 -1.0328 -1.2067  0.4959
 3968TIP3    H233464   3.888   4.063   2.739 -0.1725  0.0625 -0.3793
 3969TIP3   OH233465   1.731   4.414   2.126  0.2547 -0.8425 -0.5718
 3969TIP3    H133466   1.671   4.483   2.153 -0.2602 -0.7929 -1.7772
 3969TIP3    H233467   1.796   4.459   2.072 -0.9237 -1.4696 -2.6120
 3970TIP3   OH233468   4.800   0.269   8.275  0.8562 -0.0872  0.7166
 3970TIP3    H133469   4.878   0.221   8.303  1.1980  0.1704  0.2145
 3970TIP3    H233470   4.794   0.253   8.181  0.5169  0.2063  0.6865
 3971TIP3   OH233471   0.652   4.386   8.490 -0.1961  0.8786  0.0362
 3971TIP3    H133472   0.655   4.303   8.538  2.4781  0.7681 -0.1491
 3971TIP3    H233473   0.622   4.362   8.402 -0.1011  0.2199  0.1782
 3972TIP3   OH233474   4.889   6.563   0.088  0.1115 -0.5313 -0.0075
 3972TIP3    H133475   4.934   6.507   0.024  0.9848 -0.6649  0.6996
 3972TIP3    H233476   4.938   6.646   0.085 -0.3333 -0.2698 -0.0752
 3973TIP3   OH233477   2.715   0.907   2.598 -0.6014  0.1845  0.0722
 3973TIP3    H133478   2.659   0.833   2.623 -0.2643  0.0513  0.4559
 3973TIP3    H233479   2.795   0.866   2.564 -1.4865  0.3418 -2.3555
 3974TIP3   OH233480   5.773   4.933   2.312  0.0654  0.3237  0.2397
 3974TIP3    H133481   5.815   4.847   2.302  0.2039  0.5478 -1.4321
 3974TIP3    H233482   5.734   4.930   2.399  1.2371 -0.9156  0.7702
 3975TIP3   OH233483   5.498   0.722   2.554 -0.7511  0.0106  0.1268
 3975TIP3    H133484   5.560   0.673   2.500 -0.0252  1.8979 -0.8516
 3975TIP3    H233485   5.522   0.701   2.644  0.4746 -0.3148 -0.2575
 3976TIP3   OH233486   6.665   0.964   0.667 -0.4734 -0.5911 -0.6771
 3976TIP3    H133487   6.656   0.965   0.762  2.4036 -0.1967 -0.3129
 3976TIP3    H233488   6.667   0.871   0.644  0.5284 -0.7399 -0.0797
 3977TIP3   OH233489   3.807   3.626   2.725 -0.1430 -0.2436  0.2199
 3977TIP3    H133490   3.778   3.536   2.744  0.5866 -0.8424 -1.3112
 3977TIP3    H233491   3.817   3.666   2.811 -2.9618 -0.7754  0.8984
 3978TIP3   OH233492   4.906   3.626   1.379  0.3143  0.0954  0.1560
 3978TIP3    H133493   4.830   3.662   1.425 -0.7564 -0.7680 -0.8769
 3978TIP3    H233494   4.964   3.596   1.449 -1.5248 -1.7433  1.0173
 3979TIP3   OH233495   1.289   3.847   8.188 -0.6068  0.6191  0.3263
 3979TIP3    H133496   1.381   3.845   8.162 -0.8870  0.6167 -0.7092
 3979TIP3    H233497   1.283   3.784   8.260 -0.2099 -1.0227 -1.0222
 3980TIP3   OH233498   5.213   1.538   0.123 -0.1517 -0.7221 -0.1499
 3980TIP3    H133499   5.202   1.477   0.195  1.3104  0.8376  1.4898
 3980TIP3    H233500   5.140   1.600   0.132  1.3233  0.9107  1.6176
 3981TIP3   OH233501   6.438   3.918   0.736  0.6607  0.1031 -0.9754
 3981TIP3    H133502   6.449   3.824   0.727  1.0751 -0.3742  2.7981
 3981TIP3    H233503   6.346   3.929   0.760  1.0510  0.4142  0.4499
 3982TIP3   OH233504   4.880   5.766   0.125  0.1279  0.6913  0.7648
 3982TIP3    H133505   4.918   5.777   0.037  1.9695  0.5251  1.5014
 3982TIP3    H233506   4.790   5.739   0.108  0.8493 -0.7933 -1.1183
 3983TIP3   OH233507   0.656   1.736   3.478  0.1981 -0.0895  0.0089
 3983TIP3    H133508   0.686   1.826   3.473 -1.6475  0.6388  1.3036
 3983TIP3    H233509   0.565   1.738   3.449  0.1023 -1.5434  0.0997
 3984TIP3   OH233510   0.113   6.498   2.934 -0.6702  0.3190  0.0495
 3984TIP3    H133511   0.134   6.581   2.893 -1.9945  0.5087 -0.2832
 3984TIP3    H233512   0.032   6.514   2.982  0.7215  0.0949  2.7167
 3985TIP3   OH233513   5.711   4.534   0.606  0.2882  0.0939  0.2905
 3985TIP3    H133514   5.745   4.538   0.695  2.3769 -0.3591 -0.4115
 3985TIP3    H233515   5.731   4.620   0.569  0.2276 -0.0086  0.0175
 3986TIP3   OH233516   0.768   1.111   0.115  0.6894 -0.4370 -0.2544
 3986TIP3    H133517   0.769   1.205   0.131  1.4980 -0.6450  1.1099
 3986TIP3    H233518   0.699   1.098   0.051  1.9777  1.3322 -2.1235
 3987TIP3   OH233519   0.770   5.979   0.590  0.0828  0.7085 -0.2145
 3987TIP3    H133520   0.839   5.943   0.534  0.3134  0.9414 -0.0852
 3987TIP3    H233521   0.689   5.940   0.557  0.2805  0.4038 -0.3444
 3988TIP3   OH233522   2.064   3.519   0.024  0.4282  0.4248  0.2367
 3988TIP3    H133523   2.011   3.456  -0.025  0.5293  0.7958 -0.3620
 3988TIP3    H233524   2.127   3.552  -0.040 -0.1578  1.7489  0.3217
 3989TIP3   OH233525   2.088   6.068   0.043 -0.0816 -0.1049  0.1854
 3989TIP3    H133526   2.093   6.155   0.003 -2.6123  0.0966  0.1333
 3989TIP3    H233527   2.111   6.082   0.135  3.4947 -0.1751 -0.5400
 3990TIP3   OH233528   1.817   1.457   3.006  0.3096  0.7053  0.0746
 3990TIP3    H133529   1.755   1.516   3.049 -2.4323 -1.6178 -0.3969
 3990TIP3    H233530   1.827   1.384   3.067  1.8333  0.5373 -0.3302
 3991TIP3   OH233531   0.497   1.439   0.280 -0.5825  0.4417 -1.0252
 3991TIP3    H133532   0.509   1.526   0.244 -0.2669  0.9430  0.2201
 3991TIP3    H233533   0.547   1.381   0.223 -0.9907  1.0395 -1.9979
 3992TIP3   OH233534   4.298   1.773   2.447  0.0500  0.0037  0.3044
 3992TIP3    H133535   4.309   1.706   2.515 -2.7032  0.1715  1.0435
 3992TIP3    H233536   4.208   1.760   2.415 -0.2963  2.8156 -0.0862
 3993TIP3   OH233537   6.923   4.395   2.021  0.2657 -0.3857  0.2338
 3993TIP3    H133538   6.946   4.337   2.093  1.0375 -0.8627 -0.3765
 3993TIP3    H233539   6.928   4.340   1.943 -2.0430 -0.2656 -0.0611
 3994TIP3   OH233540   4.459   4.855   1.846 -0.3799 -0.8119 -0.1099
 3994TIP3    H133541   4.386   4.906   1.810  0.1661 -0.5228 -0.8654
 3994TIP3    H233542   4.439   4.765   1.823 -0.0697 -0.6397 -1.1632
 3995TIP3   OH233543   3.289   6.912   2.506 -0.1968  0.4548  0.0416
 3995TIP3    H133544   3.241   6.835   2.537 -0.0277 -0.6972 -2.3291
 3995TIP3    H233545   3.267   6.981   2.569 -0.9152 -1.3185  1.8479
 3996TIP3   OH233546   1.793   6.087   1.203 -0.0682  0.7625 -0.1497
 3996TIP3    H133547   1.772   5.998   1.175 -0.1121  1.0016 -0.8881
 3996TIP3    H233548   1.885   6.082   1.231 -0.2100  0.3845  0.2576
 3997TIP3   OH233549   4.211   6.257   0.082  0.1050 -0.4262 -0.1756
 3997TIP3    H133550   4.183   6.242  -0.009  1.4600 -1.3338 -0.4703
 3997TIP3    H233551   4.133   6.292   0.125 -0.6292 -0.1751 -1.6341
 3998TIP3   OH233552   1.801   1.046   0.564 -0.0312  0.4960 -0.0143
 3998TIP3    H133553   1.818   0.983   0.634  1.7855  2.1316  1.0997
 3998TIP3    H233554   1.859   1.018   0.493  1.2553  1.2229  0.7148
 3999TIP3   OH233555   6.019   0.907   0.710  0.4263  0.2016 -0.6417
 3999TIP3    H133556   6.020   0.924   0.804  0.0449  2.2956 -0.9646
 3999TIP3    H233557   5.934   0.868   0.693  0.9953 -1.4271  0.0257
 4000TIP3   OH233558   1.928   0.202   0.218 -0.3830 -0.2176  0.0713
 4000TIP3    H133559   2.002   0.255   0.251 -0.7845 -0.8909  2.2289
 4000TIP3    H233560   1.874   0.264   0.170  0.9911  0.5320 -0.5771
 4001TIP3   OH233561   6.479   1.423   2.780 -0.5848 -0.2530  0.0349
 4001TIP3    H133562   6.519   1.445   2.696 -0.9364 -2.3218 -0.7224
 4001TIP3    H233563   6.550   1.391   2.834 -0.5264  0.1380  0.1950
 4002TIP3   OH233564   0.210   1.520   2.791 -0.4160  0.6187  0.1432
 4002TIP3    H133565   0.120   1.492   2.808 -1.4940  3.6244  0.0166
 4002TIP3    H233566   0.223   1.504   2.698 -1.0645  0.7943  0.0199
 4003TIP3   OH233567   5.953   6.088   0.111  1.0022 -0.5930 -0.2634
 4003TIP3    H133568   6.045   6.061   0.117  0.9829 -0.6475 -0.2096
 4003TIP3    H233569   5.957   6.183   0.097  1.1511 -0.9468 -3.2958
 4004TIP3   OH233570   0.992   6.387   2.760 -0.1375  0.2416  0.7034
 4004TIP3    H133571   0.980   6.357   2.670 -0.3335 -1.8382  1.3468
 4004TIP3    H233572   1.003   6.481   2.753  0.3138  0.0838 -1.5295
 4005TIP3   OH233573   3.141   6.141   1.386  0.0485  0.1592  0.8713
 4005TIP3    H133574   3.110   6.203   1.451  0.9938 -0.5349  2.0331
 4005TIP3    H233575   3.105   6.172   1.303 -0.3737  1.6232  1.5779
 4006TIP3   OH233576   1.624   2.591   2.681  0.3822 -0.0405 -0.2695
 4006TIP3    H133577   1.640   2.555   2.768  0.1802 -1.1270 -0.6693
 4006TIP3    H233578   1.551   2.652   2.693 -2.6827 -3.3613 -0.3410
 4007TIP3   OH233579   4.099   3.938   2.271  0.4843 -0.3435  0.5259
 4007TIP3    H133580   4.125   4.026   2.244  1.5173 -1.0302 -0.8187
 4007TIP3    H233581   4.003   3.941   2.271  0.4935  0.5423 -0.3185
 4008TIP3   OH233582   2.292   4.901   8.088 -0.1255  0.0270  0.2534
 4008TIP3    H133583   2.326   4.956   8.158  0.5504 -1.6316  1.3052
 4008TIP3    H233584   2.198   4.895   8.105 -0.1551  0.5946  0.2980
 4009TIP3   OH233585   2.671   1.968   8.031 -0.8174 -0.6324 -0.8943
 4009TIP3    H133586   2.661   1.914   7.952  1.8548 -1.8147 -0.5112
 4009TIP3    H233587   2.680   2.057   7.998 -0.8542 -0.9658 -1.8312
 4010TIP3   OH233588   1.600   3.681   2.590 -0.1669  0.3361 -0.1105
 4010TIP3    H133589   1.522   3.626   2.579  0.1886 -0.0453 -0.8106
 4010TIP3    H233590   1.590   3.750   2.525  1.5023 -1.4076 -2.3582
 4011TIP3   OH233591   1.772   2.677   2.460  0.0587  0.7588  0.2582
 4011TIP3    H133592   1.748   2.658   2.551  1.4673  1.4141  0.7887
 4011TIP3    H233593   1.743   2.600   2.411  0.2183 -0.0603  1.4161
 4012TIP3   OH233594   0.746   6.385   1.211  0.8987  0.1674  0.3505
 4012TIP3    H133595   0.795   6.454   1.167  1.7173  0.2414  1.3428
 4012TIP3    H233596   0.737   6.416   1.301  0.1561 -0.4441  0.4977
 4013TIP3   OH233597   0.214   2.895   1.702 -0.0408 -0.0137 -0.2710
 4013TIP3    H133598   0.289   2.885   1.643 -1.7327  0.3101 -2.6664
 4013TIP3    H233599   0.190   2.805   1.724  0.0651 -0.2038 -0.8890
 4014TIP3   OH233600   2.890   1.417   1.305  0.4791 -0.3223 -0.0841
 4014TIP3    H133601   2.885   1.430   1.210  0.5730  0.3360 -0.0035
 4014TIP3    H233602   2.979   1.386   1.321  0.4145 -0.5848 -0.2267
 4015TIP3   OH233603   4.090   3.443   2.269 -0.1181  0.0263 -0.0903
 4015TIP3    H133604   4.041   3.523   2.287 -1.4999 -0.9667  0.7379
 4015TIP3    H233605   4.082   3.431   2.175 -0.2767  0.6121 -0.1581
 4016TIP3   OH233606   3.892   4.163   7.705 -0.1467 -0.1381  0.2257
 4016TIP3    H133607   3.898   4.069   7.720  0.9978 -0.3480 -1.2737
 4016TIP3    H233608   3.980   4.188   7.677 -0.5158  1.3281  0.2821
 4017TIP3   OH233609   6.331   3.828   1.294 -0.4938 -0.4329 -0.3549
 4017TIP3    H133610   6.360   3.788   1.211  0.2484 -1.2046  0.2540
 4017TIP3    H233611   6.308   3.754   1.349 -0.2455  0.0376  0.3937
 4018TIP3   OH233612   5.532   6.289   8.412  0.2351 -0.4272  0.2480
 4018TIP3    H133613   5.603   6.317   8.470 -0.5620  3.4666 -0.3794
 4018TIP3    H233614   5.576   6.250   8.337  1.5927  0.1216  0.7272
 4019TIP3   OH233615   2.622   3.804   7.459  0.2830 -0.0879  0.5295
 4019TIP3    H133616   2.558   3.758   7.405  0.7341 -0.8872  0.6621
 4019TIP3    H233617   2.648   3.741   7.525  2.1035 -0.2151 -0.2520
 4020TIP3   OH233618   6.638   2.283   1.016  0.5810  0.3900  0.2659
 4020TIP3    H133619   6.594   2.338   1.081  0.1716  0.9530 -0.4642
 4020TIP3    H233620   6.627   2.331   0.934 -0.9619 -1.4376 -0.6534
 4021TIP3   OH233621   4.771   2.676   0.092  0.1041  0.5513 -0.0966
 4021TIP3    H133622   4.755   2.767   0.069 -0.7243  0.6526  0.8317
 4021TIP3    H233623   4.688   2.631   0.076  1.1157 -0.6003 -2.9023
 4022TIP3   OH233624   5.819   6.905   0.521 -0.6437 -0.0211 -0.7499
 4022TIP3    H133625   5.844   6.820   0.486 -0.7707 -1.2531  1.8690
 4022TIP3    H233626   5.903   6.947   0.544 -0.6337 -0.1970 -0.4568
 4023TIP3   OH233627   3.825   6.902   0.921  0.2023  0.1876 -0.0771
 4023TIP3    H133628   3.770   6.865   0.852 -0.2483  0.9143 -0.1248
 4023TIP3    H233629   3.876   6.828   0.954 -0.1817 -0.3292 -0.6228
 4024TIP3   OH233630   1.629   3.883   8.017  0.3132  0.0152  0.0330
 4024TIP3    H133631   1.621   3.911   7.925  1.8133  2.6582  0.6060
 4024TIP3    H233632   1.701   3.820   8.017 -0.4874 -0.9264 -0.7505
 4025TIP3   OH233633   0.572   5.931   0.427 -0.2723 -0.1672  0.0833
 4025TIP3    H133634   0.479   5.921   0.446 -0.2297 -2.7380 -0.6505
 4025TIP3    H233635   0.576   5.974   0.342 -0.7250  1.1403  0.7056
 4026TIP3   OH233636   5.958   4.732   3.053  0.0318  0.0911  0.2127
 4026TIP3    H133637   5.983   4.730   3.145 -0.9702 -0.5329  0.4803
 4026TIP3    H233638   5.999   4.654   3.015 -0.0726  0.0074  0.2712
 4027TIP3   OH233639   2.389   0.774   7.658 -0.1367  0.0337  0.6132
 4027TIP3    H133640   2.382   0.852   7.603 -0.1728  0.4584  1.2079
 4027TIP3    H233641   2.349   0.704   7.606 -0.4838  0.4989  0.2407
 4028TIP3   OH233642   1.964   0.674   1.357  0.0783  0.3046  0.4752
 4028TIP3    H133643   2.021   0.601   1.382 -0.6585 -0.7762 -0.8371
 4028TIP3    H233644   1.916   0.695   1.437  0.4229 -0.5527  0.9222
 4029TIP3   OH233645   6.402   3.118   3.281  0.1345 -0.2713  0.0463
 4029TIP3    H133646   6.351   3.058   3.225 -1.3162 -0.4292  1.4480
 4029TIP3    H233647   6.362   3.204   3.266 -0.5486 -0.3826  1.0920
 4030TIP3   OH233648   4.236   0.013   1.670 -0.5691 -0.0637  0.7585
 4030TIP3    H133649   4.282  -0.041   1.606  0.7239  1.7160  0.1076
 4030TIP3    H233650   4.143  -0.008   1.656 -0.2776 -0.2839 -1.2063
 4031TIP3   OH233651   2.149   0.115   0.033  0.2454  0.5350  0.1730
 4031TIP3    H133652   2.064   0.113   0.077  0.5048 -0.9775  0.6554
 4031TIP3    H233653   2.203   0.171   0.090  0.3664 -0.8132  1.4597
 4032TIP3   OH233654   3.953   0.581   0.732 -0.6281 -0.0016 -0.0365
 4032TIP3    H133655   3.879   0.641   0.728 -0.1592  0.5940  0.0568
 4032TIP3    H233656   3.959   0.543   0.645 -0.4341  0.7031 -0.3404
 4033TIP3   OH233657   5.128   5.559   3.509  0.3212  0.4537 -0.0927
 4033TIP3    H133658   5.062   5.491   3.527 -0.9786  1.8499  0.6827
 4033TIP3    H233659   5.088   5.612   3.440 -0.1142  2.2276  1.4574
 4034TIP3   OH233660   4.804   6.522   2.192 -0.1123 -0.4535 -0.2108
 4034TIP3    H133661   4.897   6.500   2.197  0.2084  0.6088 -1.0770
 4034TIP3    H233662   4.759   6.439   2.203  0.9757 -1.2582 -1.4912
 4035TIP3   OH233663   5.684   3.756   1.321  0.0318 -0.3403  0.6026
 4035TIP3    H133664   5.625   3.744   1.396 -2.7582  2.1412 -0.9743
 4035TIP3    H233665   5.742   3.828   1.348 -0.9286  0.5109  0.4576
 4036TIP3   OH233666   4.683   1.656   8.399  0.5586  0.4481  0.2418
 4036TIP3    H133667   4.705   1.740   8.439  2.0798  0.0395  0.3391
 4036TIP3    H233668   4.672   1.596   8.473 -0.5492  0.5539  0.1746
 4037TIP3   OH233669   3.502   1.065   7.979 -0.2051  0.1630 -0.2995
 4037TIP3    H133670   3.479   1.028   8.064  0.0320  0.2333 -0.2041
 4037TIP3    H233671   3.597   1.071   7.980 -0.1762 -0.2263 -0.7382
 4038TIP3   OH233672   5.340   1.110   3.010  0.5357  0.0614 -0.1119
 4038TIP3    H133673   5.262   1.152   2.973  1.2662 -1.1112 -3.3147
 4038TIP3    H233674   5.308   1.025   3.041  0.4865 -0.5136 -1.6295
 4039TIP3   OH233675   5.768   5.634   0.438 -0.3008  0.5511  0.5831
 4039TIP3    H133676   5.860   5.646   0.414  0.2112 -0.6284  1.8556
 4039TIP3    H233677   5.743   5.718   0.477 -0.2648  1.4335 -1.2236
 4040TIP3   OH233678   5.294   4.227   2.768 -0.5412  0.1473  0.2012
 4040TIP3    H133679   5.216   4.184   2.802 -0.3609  0.0741  0.5221
 4040TIP3    H233680   5.366   4.189   2.818 -0.4587  1.4727  1.1444
 4041TIP3   OH233681   6.080   0.319   2.327  0.2831  0.0062 -0.4434
 4041TIP3    H133682   6.129   0.237   2.319 -0.9883 -0.7278 -1.0636
 4041TIP3    H233683   5.990   0.291   2.341 -0.0638  1.3182  0.0596
 4042TIP3   OH233684   3.917   5.650   3.091  0.3402  0.1625  0.0997
 4042TIP3    H133685   3.828   5.686   3.099  0.4900  0.7088 -0.6764
 4042TIP3    H233686   3.972   5.712   3.139  0.1725 -0.7491  1.5201
 4043TIP3   OH233687   3.949   5.945   8.308  0.0763  0.3058  0.9065
 4043TIP3    H133688   3.944   5.885   8.234  0.3841  0.8249  0.4479
 4043TIP3    H233689   3.889   5.909   8.374 -1.3509  0.6415 -0.1695
 4044TIP3   OH233690   0.047   6.428   2.442  0.3047 -0.5571 -0.1387
 4044TIP3    H133691   0.037   6.352   2.499  0.1871 -1.0723 -0.8296
 4044TIP3    H233692  -0.025   6.486   2.468  0.8222 -0.3409  0.8819
 4045TIP3   OH233693   1.437   5.544   0.190 -0.4689 -0.0706  0.5892
 4045TIP3    H133694   1.433   5.636   0.164  0.7474  0.0617  0.8113
 4045TIP3    H233695   1.480   5.501   0.116  0.1759 -0.2224  1.0451
 4046TIP3   OH233696   4.633   5.333   2.394 -0.1944  0.2744 -0.2776
 4046TIP3    H133697   4.645   5.424   2.368  0.5299  0.0485 -0.7627
 4046TIP3    H233698   4.665   5.282   2.320 -0.0573 -0.3766  0.2173
 4047TIP3   OH233699   5.282   2.395   3.021 -0.5971 -0.3175  0.5739
 4047TIP3    H133700   5.255   2.312   2.981  0.7829 -0.9803  0.9433
 4047TIP3    H233701   5.235   2.398   3.104  0.0406 -1.2089  0.9860
 4048TIP3   OH233702   3.735   2.171   1.005  0.4443  0.1027 -0.2843
 4048TIP3    H133703   3.801   2.103   0.994  0.7797 -0.5501  3.8811
 4048TIP3    H233704   3.774   2.233   1.067 -1.5411  1.5997 -0.4177
 4049TIP3   OH233705   5.586   3.974   0.777 -0.2719  0.5306  0.0024
 4049TIP3    H133706   5.633   3.996   0.697  1.5779  0.5517  1.0469
 4049TIP3    H233707   5.575   4.058   0.822 -2.6667  0.7571 -0.8697
 4050TIP3   OH233708   0.363   5.233   0.241 -0.3723  0.1367  0.4127
 4050TIP3    H133709   0.282   5.270   0.275 -0.1889  0.8226  0.1213
 4050TIP3    H233710   0.352   5.138   0.251 -1.0629  0.2381  0.6919
 4051TIP3   OH233711   6.075   4.779   7.722  0.2957 -0.3985 -0.2257
 4051TIP3    H133712   6.166   4.775   7.693  0.6298  0.8398  0.5556
 4051TIP3    H233713   6.048   4.868   7.702 -0.3277 -0.3669  0.7037
 4052TIP3   OH233714   1.300   0.932   0.017  0.2549  0.1365  0.0826
 4052TIP3    H133715   1.372   0.898   0.069  1.3143  2.0885 -0.0085
 4052TIP3    H233716   1.235   0.960   0.081  0.1883 -0.3019  0.2134
 4053TIP3   OH233717   1.713   1.445   0.129  0.6174  0.3699 -0.4229
 4053TIP3    H133718   1.662   1.384   0.183  0.0770 -0.2015 -1.5565
 4053TIP3    H233719   1.662   1.456   0.049  2.0738  0.0889 -1.4330
 4054TIP3   OH233720   4.537   0.564   0.885 -0.3299  0.2424 -0.2041
 4054TIP3    H133721   4.569   0.651   0.858  0.2864  0.3443  0.7858
 4054TIP3    H233722   4.474   0.583   0.954 -0.0774 -0.1018  0.1229
 4055TIP3   OH233723   5.655   1.125   2.458 -0.0771  0.0827  0.3897
 4055TIP3    H133724   5.646   1.127   2.363  0.8568 -0.9985  0.2650
 4055TIP3    H233725   5.565   1.120   2.490 -0.3797 -0.0740 -0.4567
 4056TIP3   OH233726   3.107   3.339   3.035  0.1228 -0.0586  0.1015
 4056TIP3    H133727   3.059   3.258   3.016 -0.0346 -0.5443  2.2742
 4056TIP3    H233728   3.199   3.316   3.021 -0.0665  0.1691 -1.7305
 4057TIP3   OH233729   3.365   1.843   0.334 -0.3777  0.0113 -0.0884
 4057TIP3    H133730   3.436   1.779   0.344 -0.9993 -1.1332 -2.3081
 4057TIP3    H233731   3.406   1.917   0.288 -0.4775 -0.3974 -0.8432
 4058TIP3   OH233732   4.409   4.811   7.802 -0.1028 -0.4454  0.3109
 4058TIP3    H133733   4.471   4.767   7.744  1.2802 -1.4549  2.4124
 4058TIP3    H233734   4.428   4.775   7.888  0.3707  3.4183  2.0573
 4059TIP3   OH233735   4.993   5.734   0.646 -0.0533 -0.3638 -0.3426
 4059TIP3    H133736   5.012   5.645   0.617  0.6406 -0.2676 -0.2006
 4059TIP3    H233737   4.989   5.727   0.742 -1.3704 -0.4960 -0.3872
 4060TIP3   OH233738   0.621   2.484   7.609 -0.5195 -0.0759  0.0788
 4060TIP3    H133739   0.550   2.467   7.547 -0.0681 -0.2103 -0.4050
 4060TIP3    H233740   0.700   2.457   7.563 -0.0431  1.0148  0.2332
 4061TIP3   OH233741   6.775   5.579   0.847  0.0850  0.1429  0.3306
 4061TIP3    H133742   6.694   5.600   0.893 -0.9135 -2.2893 -0.1596
 4061TIP3    H233743   6.830   5.657   0.857 -1.9317  1.4869  1.4878
 4062TIP3   OH233744   1.863   6.456   3.313  0.2658 -0.3750 -0.1679
 4062TIP3    H133745   1.874   6.366   3.285  0.8228 -0.8134  1.3535
 4062TIP3    H233746   1.951   6.486   3.334 -0.1734 -0.3901  1.9043
 4063TIP3   OH233747   4.651   3.755   7.728 -0.5880 -0.2622  0.0490
 4063TIP3    H133748   4.602   3.837   7.736 -0.4084 -0.0193 -1.1218
 4063TIP3    H233749   4.602   3.693   7.782 -3.0650 -0.3766 -2.0639
 4064TIP3   OH233750   0.164   1.362   7.063 -0.2597 -0.6965  0.3256
 4064TIP3    H133751   0.104   1.393   6.995 -0.5111 -2.1199 -0.1348
 4064TIP3    H233752   0.251   1.390   7.034 -0.6236  1.0510  0.8093
 4065TIP3   OH233753   3.446   6.197   8.239 -0.2098  0.4945  1.2202
 4065TIP3    H133754   3.398   6.254   8.299  0.2010  0.9487  1.1207
 4065TIP3    H233755   3.380   6.135   8.208 -0.6176  0.7897  1.4807
 4066TIP3   OH233756   6.228   6.652   3.887  0.2399 -0.3106 -0.1315
 4066TIP3    H133757   6.184   6.695   3.960 -1.2578 -0.8046 -0.6999
 4066TIP3    H233758   6.198   6.561   3.892  1.7139 -0.8226 -0.1807
 4067TIP3   OH233759   4.637   3.762   2.480  0.0166  0.5017  0.4062
 4067TIP3    H133760   4.571   3.739   2.546 -1.9226  1.6403 -1.0386
 4067TIP3    H233761   4.671   3.847   2.509  1.0396 -0.1711  1.2511
 4068TIP3   OH233762   2.602   6.341   1.600 -0.0318  0.1487  0.1904
 4068TIP3    H133763   2.517   6.374   1.570  0.0669  0.4968  0.2820
 4068TIP3    H233764   2.628   6.277   1.534 -0.7514 -0.5752  0.6027
 4069TIP3   OH233765   6.090   0.436   0.204 -0.2334  0.0795  0.1929
 4069TIP3    H133766   6.051   0.372   0.145 -1.7485  1.7802 -0.7238
 4069TIP3    H233767   6.044   0.518   0.186  0.1488  0.9883  2.8139
 4070TIP3   OH233768   3.618   6.819   7.976  0.0910  0.3352 -0.5248
 4070TIP3    H133769   3.535   6.839   7.933 -0.6977  0.5187  1.0280
 4070TIP3    H233770   3.664   6.763   7.914 -1.8215 -1.0161 -0.8201
 4071TIP3   OH233771   6.144   4.513   3.219 -0.1799 -0.0253  0.0163
 4071TIP3    H133772   6.138   4.525   3.124 -1.9692  0.9688  0.2209
 4071TIP3    H233773   6.185   4.593   3.251 -1.1151  0.3908  0.2170
 4072TIP3   OH233774   2.019   2.554   2.382  0.0438  0.0375 -0.6019
 4072TIP3    H133775   1.945   2.615   2.394 -1.3183 -1.3302 -1.6775
 4072TIP3    H233776   2.074   2.569   2.459 -1.4967  0.9103  0.4045
 4073TIP3   OH233777   1.851   1.461   0.717  0.2843  0.3463  0.0385
 4073TIP3    H133778   1.758   1.452   0.697  0.5871 -2.5924 -0.5110
 4073TIP3    H233779   1.853   1.493   0.807 -1.2585  0.7286 -0.0402
 4074TIP3   OH233780   6.417   1.656   1.733  0.1517 -0.3376 -0.1462
 4074TIP3    H133781   6.399   1.685   1.822  0.0779 -1.5108  0.2321
 4074TIP3    H233782   6.506   1.619   1.737 -0.1157 -1.0243 -0.3880
 4075TIP3   OH233783   0.209   6.043   0.128  0.6796  0.3138 -0.0689
 4075TIP3    H133784   0.131   6.001   0.091 -0.8093  2.9411 -0.1941
 4075TIP3    H233785   0.275   6.037   0.059  0.1200 -0.6722 -0.5345
 4076TIP3   OH233786   6.837   6.143   7.571 -0.0139  0.0379 -0.1589
 4076TIP3    H133787   6.793   6.139   7.655 -0.7330  1.3918 -0.4390
 4076TIP3    H233788   6.779   6.098   7.510 -1.3110  2.1855 -0.6128
 4077TIP3   OH233789   4.238   1.293   0.093 -0.2361 -0.6866  0.0676
 4077TIP3    H133790   4.156   1.299   0.142 -0.1802 -2.5093  0.4580
 4077TIP3    H233791   4.267   1.384   0.083 -1.7242 -0.0843  0.8800
 4078TIP3   OH233792   4.750   6.660   2.897  0.0208 -0.0372  0.5275
 4078TIP3    H133793   4.738   6.602   2.972  0.9093  1.5818  1.9867
 4078TIP3    H233794   4.834   6.635   2.860  0.1441 -0.0488  0.8127
 4079TIP3   OH233795   3.764   4.347   0.722 -1.1024 -0.2605  0.0893
 4079TIP3    H133796   3.747   4.386   0.808 -0.8432 -0.0161  0.0311
 4079TIP3    H233797   3.678   4.345   0.679 -1.5163 -1.7765  0.9220
 4080TIP3   OH233798   0.297   2.159   2.981 -0.5999  0.5501  0.9470
 4080TIP3    H133799   0.260   2.243   2.956  0.9828  0.9195 -0.3727
 4080TIP3    H233800   0.319   2.117   2.898 -0.0053 -0.5308  1.6208
 4081TIP3   OH233801   2.414   6.230   3.233  0.0583  0.0196 -0.2737
 4081TIP3    H133802   2.401   6.140   3.203 -1.3500 -0.3169  1.1630
 4081TIP3    H233803   2.354   6.282   3.179  0.5729  0.0394 -0.8293
 4082TIP3   OH233804   2.679   3.632   7.664 -0.4788  0.6720 -0.6698
 4082TIP3    H133805   2.636   3.548   7.649  0.5687 -0.1764  0.8632
 4082TIP3    H233806   2.742   3.615   7.734  1.0667  2.3104 -1.5888
 4083TIP3   OH233807   3.224   2.565   3.287 -0.2883  0.1963 -0.5497
 4083TIP3    H133808   3.288   2.551   3.217  1.3191 -0.3347  0.9667
 4083TIP3    H233809   3.275   2.558   3.368 -2.1626  0.4001  0.7013
 4084TIP3   OH233810   0.356   3.978   7.472  0.2041 -0.2470 -0.0434
 4084TIP3    H133811   0.451   3.986   7.485 -0.0002  0.1892  1.4300
 4084TIP3    H233812   0.344   3.889   7.439  1.1913  0.0063 -1.1511
 4085TIP3   OH233813   1.215   1.391   2.027  0.5990 -0.2936 -0.1722
 4085TIP3    H133814   1.227   1.453   2.100  0.5762  1.6502 -1.7491
 4085TIP3    H233815   1.257   1.433   1.952  1.2632 -2.5721 -1.1774
 4086TIP3   OH233816   6.376   0.196   2.709  0.2982  0.3767 -0.1652
 4086TIP3    H133817   6.444   0.252   2.671  1.0044 -0.1350  0.3267
 4086TIP3    H233818   6.301   0.254   2.720  0.1887  0.6199 -1.9986
 4087TIP3   OH233819   0.784   3.028   7.932  0.6005  0.3304  0.0407
 4087TIP3    H133820   0.825   3.018   7.846  1.2385  0.3452  0.3330
 4087TIP3    H233821   0.739   2.945   7.947  2.0713 -0.4254  0.4899
 4088TIP3   OH233822   3.682   0.490   1.810 -0.1689 -0.1941  0.6836
 4088TIP3    H133823   3.645   0.413   1.853 -0.2944 -1.6337 -1.8298
 4088TIP3    H233824   3.620   0.560   1.831 -2.4937 -1.7643 -0.4576
 4089TIP3   OH233825   1.086   1.519   1.119  0.1935 -0.0871  0.1039
 4089TIP3    H133826   1.138   1.495   1.195  1.1438  1.2587 -0.0975
 4089TIP3    H233827   1.145   1.507   1.044 -1.5438 -4.3159 -0.9307
 4090TIP3   OH233828   2.935   0.322   2.226  0.3004  0.0907 -0.0283
 4090TIP3    H133829   3.021   0.338   2.187  0.2124  2.0504  0.4740
 4090TIP3    H233830   2.880   0.394   2.194 -0.4393  0.3546  1.7445
 4091TIP3   OH233831   1.432   2.240   7.593  0.3478 -0.2491  0.1346
 4091TIP3    H133832   1.484   2.320   7.590  0.8250 -0.5784 -0.5352
 4091TIP3    H233833   1.450   2.196   7.510  2.4071 -2.5173  1.6366
 4092TIP3   OH233834   2.858   1.112   0.511  0.8459  0.0684  0.0287
 4092TIP3    H133835   2.861   1.206   0.494 -0.0099  0.2860  1.0011
 4092TIP3    H233836   2.925   1.098   0.578 -0.8119  0.4743  1.8816
 4093TIP3   OH233837   3.128   2.428   3.603  0.3235  0.3071 -0.1689
 4093TIP3    H133838   3.122   2.357   3.538  0.5305 -0.6531  0.8299
 4093TIP3    H233839   3.214   2.467   3.588  0.1296  0.4919 -0.8560
 4094TIP3   OH233840   4.650   6.350   2.849  0.5543 -0.2661  0.1396
 4094TIP3    H133841   4.628   6.273   2.797 -0.2163 -2.1250  2.9668
 4094TIP3    H233842   4.678   6.315   2.934  1.0406  2.5581  1.2709
 4095TIP3   OH233843   4.258   6.336   0.391 -0.5830 -0.2560 -0.2962
 4095TIP3    H133844   4.213   6.406   0.345 -0.9738 -0.2125  0.1471
 4095TIP3    H233845   4.280   6.373   0.477 -0.3385 -0.5086 -0.2473
 4096TIP3   OH233846   0.004   0.430   0.277  0.9750  0.2690  0.0156
 4096TIP3    H133847   0.066   0.375   0.229 -0.6558 -0.3489 -1.5225
 4096TIP3    H233848  -0.072   0.374   0.290  0.1832  1.4294  0.5826
 4097TIP3   OH233849   1.657   1.780   0.841 -0.1390  0.0587  0.0442
 4097TIP3    H133850   1.620   1.775   0.753 -0.3437  1.2866  0.0350
 4097TIP3    H233851   1.602   1.843   0.887  0.0247 -0.4932  1.0304
 4098TIP3   OH233852   6.901   4.378   0.684 -0.0116 -0.3848 -0.5552
 4098TIP3    H133853   6.893   4.287   0.713  0.0415  0.5291  2.8248
 4098TIP3    H233854   6.981   4.409   0.727 -0.6706  1.5543 -0.6337
 4099TIP3   OH233855   3.183   1.750   0.040 -0.1052 -0.5944 -0.0498
 4099TIP3    H133856   3.110   1.776   0.097  0.9379 -0.2284  1.1642
 4099TIP3    H233857   3.203   1.828  -0.011 -0.0528 -0.4438  0.1972
 4100TIP3   OH233858   5.704   4.650   1.683 -0.0401  0.1052 -0.1878
 4100TIP3    H133859   5.749   4.714   1.739 -0.8926 -0.7988  1.6173
 4100TIP3    H233860   5.627   4.697   1.651  0.0078  0.3710  0.0824
 4101TIP3   OH233861   1.051   1.933   2.682  1.1705  0.4987  0.2544
 4101TIP3    H133862   0.973   1.919   2.629 -0.4175  1.8329  2.0898
 4101TIP3    H233863   1.088   1.846   2.696 -0.8564 -0.3490  0.5403
 4102TIP3   OH233864   6.146   1.383   0.259  0.5078  0.0051  0.0644
 4102TIP3    H133865   6.201   1.459   0.278 -0.2938  0.6712 -0.2523
 4102TIP3    H233866   6.191   1.310   0.303  0.5223  0.8948  1.6154
 4103TIP3   OH233867   1.968   3.563   1.833  0.2001 -0.2154 -0.3923
 4103TIP3    H133868   1.921   3.605   1.761 -1.5649 -1.1585  0.1342
 4103TIP3    H233869   1.991   3.476   1.799 -0.6083 -0.6510  0.1355
 4104TIP3   OH233870   2.844   5.285   1.202  0.3608 -0.2126 -0.2716
 4104TIP3    H133871   2.838   5.372   1.242 -0.1215 -0.6363  0.5983
 4104TIP3    H233872   2.818   5.299   1.111 -0.9292  0.3412  0.1701
 4105TIP3   OH233873   5.116   3.766   8.227 -0.1125 -0.5496 -0.5370
 4105TIP3    H133874   5.174   3.790   8.299 -0.6255 -1.8084  0.3308
 4105TIP3    H233875   5.150   3.682   8.196 -1.7896 -1.6389  0.4078
 4106TIP3   OH233876   6.465   2.073   2.895 -0.5817  0.2656 -0.4292
 4106TIP3    H133877   6.445   2.001   2.954 -1.7350  0.5225 -0.4855
 4106TIP3    H233878   6.552   2.052   2.860 -0.8218 -0.9879 -0.3051
 4107TIP3   OH233879   5.914   1.887   0.861 -0.7812  0.2646 -0.3154
 4107TIP3    H133880   5.924   1.811   0.919  1.2128 -1.9303 -3.2661
 4107TIP3    H233881   5.975   1.952   0.897  0.9163 -1.2882 -0.2319
 4108TIP3   OH233882   3.419   5.295   7.445 -0.3065 -0.1278  0.2359
 4108TIP3    H133883   3.426   5.373   7.500  0.8495  0.4991 -0.7493
 4108TIP3    H233884   3.482   5.234   7.483 -0.1768 -0.0330  0.1790
 4109TIP3   OH233885   1.713   4.794   8.484 -0.5680  0.3379 -0.0643
 4109TIP3    H133886   1.753   4.878   8.462 -3.2394  1.6075 -0.4820
 4109TIP3    H233887   1.711   4.792   8.579  0.9972 -0.0484 -0.0209
 4110TIP3   OH233888   0.511   5.858   1.547 -0.2033 -0.7521  0.2559
 4110TIP3    H133889   0.592   5.895   1.511 -0.4406 -1.1646 -0.7149
 4110TIP3    H233890   0.535   5.830   1.635  0.2931  0.6106  0.5821
 4111TIP3   OH233891   5.295   2.498   0.454 -0.2291 -0.7660  0.8240
 4111TIP3    H133892   5.243   2.577   0.438 -2.5893 -2.5705 -1.0748
 4111TIP3    H233893   5.371   2.530   0.503 -1.0076  2.6751  0.0837
 4112TIP3   OH233894   1.099   3.982   7.665 -0.1544  0.4971 -0.2557
 4112TIP3    H133895   1.154   3.969   7.588 -0.0068 -0.0429 -0.0640
 4112TIP3    H233896   1.015   3.943   7.641 -1.1202  2.9970 -1.2713
 4113TIP3   OH233897   5.305   1.222   0.868 -0.0379 -0.2545 -0.6587
 4113TIP3    H133898   5.306   1.313   0.896  1.2728 -0.0457 -1.3142
 4113TIP3    H233899   5.242   1.219   0.796 -2.8936 -0.6499  1.6644
 4114TIP3   OH233900   2.101   2.237   1.400  0.0666  0.0204 -0.6730
 4114TIP3    H133901   2.025   2.282   1.438 -1.1851 -1.3520 -1.4372
 4114TIP3    H233902   2.165   2.234   1.471 -1.3842 -0.5715  0.6812
 4115TIP3   OH233903   2.860   5.024   0.565 -0.1626  0.4269  0.3090
 4115TIP3    H133904   2.797   5.014   0.493 -0.1568 -0.2566  0.3942
 4115TIP3    H233905   2.806   5.044   0.642 -0.4424 -1.5618  0.6912
 4116TIP3   OH233906   4.279   1.072   7.830 -0.1738 -0.8294 -0.7138
 4116TIP3    H133907   4.221   1.106   7.762  2.8302  0.9766 -2.6106
 4116TIP3    H233908   4.254   1.120   7.909 -0.5406  0.7722 -1.7555
 4117TIP3   OH233909   1.612   3.937   2.167 -0.4149 -0.5468  0.2798
 4117TIP3    H133910   1.602   3.867   2.102 -0.9653  0.3313 -0.6080
 4117TIP3    H233911   1.616   4.017   2.116  1.4825  0.0013  1.2007
 4118TIP3   OH233912   2.530   6.901   0.651 -0.4657  0.2221 -0.2293
 4118TIP3    H133913   2.551   6.978   0.598  1.6398 -0.7760 -0.9639
 4118TIP3    H233914   2.582   6.913   0.731 -0.1312 -0.4076 -0.3474
 4119TIP3   OH233915   2.333   0.141   2.175 -0.7459 -0.6577  0.6708
 4119TIP3    H133916   2.419   0.141   2.217 -0.0089 -1.8140 -0.7390
 4119TIP3    H233917   2.280   0.202   2.227  1.7928  2.5626 -0.2099
 4120TIP3   OH233918   3.011   6.591   2.338  0.4376  0.1634 -0.1174
 4120TIP3    H133919   2.937   6.651   2.332  0.3276 -0.0988 -1.8273
 4120TIP3    H233920   2.972   6.508   2.365  0.1402  0.1016 -0.7200
 4121TIP3   OH233921   1.168   6.332   7.973 -0.0636  0.0741  0.2723
 4121TIP3    H133922   1.164   6.399   7.905 -0.8252  1.8826  1.9698
 4121TIP3    H233923   1.218   6.260   7.934 -1.0552  0.7241 -2.3771
 4122TIP3   OH233924   3.477   3.493   1.923  0.6154  0.7677  0.1452
 4122TIP3    H133925   3.473   3.494   2.018  0.0094  3.0663  0.1452
 4122TIP3    H233926   3.527   3.571   1.900  0.2346  0.5769 -1.4362
 4123TIP3   OH233927   6.515   5.368   1.831  0.0878 -0.0203  0.0309
 4123TIP3    H133928   6.562   5.314   1.895 -1.7492 -1.8398 -0.0668
 4123TIP3    H233929   6.528   5.324   1.747 -0.5891  0.2394 -0.2197
 4124TIP3   OH233930   2.730   4.135   2.210 -0.5668  0.1406  0.3470
 4124TIP3    H133931   2.681   4.118   2.291 -2.7535  0.7803 -0.7510
 4124TIP3    H233932   2.701   4.222   2.183 -1.4405 -0.8242 -2.1209
 4125TIP3   OH233933   2.559   1.159   0.151  0.2759 -0.7306 -0.1248
 4125TIP3    H133934   2.499   1.149   0.077  0.1894 -0.7260 -0.0566
 4125TIP3    H233935   2.606   1.076   0.156  2.2067  0.1890 -1.8416
 4126TIP3   OH233936   1.817   1.337   1.684 -0.5499 -0.0025  0.2653
 4126TIP3    H133937   1.850   1.251   1.710  1.3274  0.5666 -0.0887
 4126TIP3    H233938   1.818   1.336   1.589 -1.3939  0.1189  0.2441
 4127TIP3   OH233939   6.821   2.673   2.610 -0.0295 -0.4363 -0.0393
 4127TIP3    H133940   6.748   2.734   2.605  0.4177  0.0759 -0.4084
 4127TIP3    H233941   6.780   2.588   2.624 -0.6238  0.0599  1.4591
 4128TIP3   OH233942   1.004   0.215   0.942  0.5401 -0.6927  0.0477
 4128TIP3    H133943   1.088   0.222   0.896 -0.8740 -0.5595 -2.7363
 4128TIP3    H233944   0.995   0.122   0.960 -0.2843 -1.3429 -3.0840
 4129TIP3   OH233945   1.582   1.471   0.660 -0.4551  0.0933 -0.1195
 4129TIP3    H133946   1.568   1.556   0.702 -2.0180 -0.6744  0.9946
 4129TIP3    H233947   1.523   1.472   0.585 -1.6252 -0.5632  0.7622
 4130TIP3   OH233948   4.760   6.271   1.444 -0.0660 -0.0857 -0.5080
 4130TIP3    H133949   4.671   6.275   1.478 -0.2977 -1.0715 -0.9792
 4130TIP3    H233950   4.771   6.353   1.396 -0.8329 -0.1145 -0.7346
 4131TIP3   OH233951   0.730   5.247   7.852 -0.0328 -0.0320  0.2808
 4131TIP3    H133952   0.699   5.301   7.779 -1.2985 -0.4542  0.4802
 4131TIP3    H233953   0.652   5.231   7.905  0.7718 -0.1003  1.5077
 4132TIP3   OH233954   5.701   5.243   2.950  0.1323  0.2316 -0.0119
 4132TIP3    H133955   5.721   5.215   2.861  1.5850  0.2408  0.2859
 4132TIP3    H233956   5.781   5.223   3.000 -0.6068  0.3494  1.2525
 4133TIP3   OH233957   4.321   3.595   8.233 -0.2964  0.4721 -0.2773
 4133TIP3    H133958   4.402   3.643   8.217 -0.2544  0.3516 -0.4268
 4133TIP3    H233959   4.295   3.562   8.147 -0.4377  0.4057 -0.2094
 4134TIP3   OH233960   5.126   1.614   3.899  0.4516  0.5882 -0.5796
 4134TIP3    H133961   5.056   1.627   3.963  1.7582  1.7102  0.6909
 4134TIP3    H233962   5.206   1.604   3.951  1.2925 -0.5604 -1.9857
 4135TIP3   OH233963   6.528   3.514   1.987  0.3267  0.3082  0.4003
 4135TIP3    H133964   6.453   3.560   1.949  0.5806  0.9127  0.6200
 4135TIP3    H233965   6.595   3.518   1.919 -0.5697 -2.2951 -0.7645
 4136TIP3   OH233966   3.881   2.323   2.165 -0.0881 -0.1011 -0.1172
 4136TIP3    H133967   3.798   2.359   2.133  0.6361  1.1573 -0.6728
 4136TIP3    H233968   3.888   2.357   2.255 -0.1229 -0.1221 -0.1066
 4137TIP3   OH233969   5.584   0.280   8.390 -0.2292 -0.2638 -0.0612
 4137TIP3    H133970   5.494   0.250   8.377 -0.2209 -1.1137  1.5280
 4137TIP3    H233971   5.611   0.316   8.306 -1.5189 -1.4307 -1.0035
 4138TIP3   OH233972   2.388   1.844   1.448 -0.6026  0.0710 -0.3333
 4138TIP3    H133973   2.449   1.918   1.443 -1.1936  0.5331 -0.9139
 4138TIP3    H233974   2.440   1.773   1.484  0.5569  0.1690 -1.7176
 4139TIP3   OH233975   1.854   3.259   3.645  0.1786  0.0861  0.6220
 4139TIP3    H133976   1.789   3.299   3.703  0.0774  0.0305  0.5467
 4139TIP3    H233977   1.831   3.291   3.558 -0.9676 -1.5057  0.2998
 4140TIP3   OH233978   6.788   4.906   2.549 -0.5421  0.3922 -0.4421
 4140TIP3    H133979   6.875   4.916   2.586  0.5622  0.6466 -2.9284
 4140TIP3    H233980   6.755   4.996   2.541 -0.7787  0.3377 -0.1207
 4141TIP3   OH233981   5.173   5.334   8.235  0.3657 -0.0026 -0.1062
 4141TIP3    H133982   5.233   5.260   8.225 -2.3616 -2.1475 -2.4598
 4141TIP3    H233983   5.214   5.405   8.187  2.1472 -0.5621  0.5088
 4142TIP3   OH233984   0.028   2.556   2.914  0.1830 -0.0235 -0.3029
 4142TIP3    H133985  -0.025   2.484   2.881  0.3023 -3.0457  5.0142
 4142TIP3    H233986  -0.032   2.608   2.968  1.1400  0.7818  0.0335
 4143TIP3   OH233987   6.748   2.753   2.100 -0.3024 -0.5322  0.0276
 4143TIP3    H133988   6.808   2.751   2.174  0.2629  2.0030 -0.2475
 4143TIP3    H233989   6.777   2.829   2.049 -1.2932 -1.6097 -2.2607
 4144TIP3   OH233990   0.438   4.519   2.617 -0.4364 -0.0924  0.2751
 4144TIP3    H133991   0.411   4.474   2.697 -3.2130 -0.2251 -0.6069
 4144TIP3    H233992   0.449   4.610   2.643  0.5165 -0.4418  1.1418
 4145TIP3   OH233993   4.049   1.184   2.750 -0.3923 -0.8099 -0.2432
 4145TIP3    H133994   3.971   1.209   2.800 -0.7449 -0.7404 -0.8168
 4145TIP3    H233995   4.016   1.120   2.686  0.4468 -2.6467  1.0790
 4146TIP3   OH233996   5.285   2.487   2.127  0.2224  0.6014 -0.3987
 4146TIP3    H133997   5.339   2.481   2.049 -2.1389 -1.6304 -2.0396
 4146TIP3    H233998   5.238   2.570   2.118  1.3468  1.2728 -0.2923
 4147TIP3   OH233999   2.064   3.534   2.107 -0.1613 -0.1035  0.3431
 4147TIP3    H134000   2.142   3.581   2.076 -1.0705  1.3089  0.1433
 4147TIP3    H234001   2.001   3.541   2.035 -0.0063 -2.5971 -0.1650
 4148TIP3   OH234002   0.059   6.627   3.756  0.0923  0.7809 -0.0166
 4148TIP3    H134003   0.113   6.599   3.682  1.6187  1.5866  0.7522
 4148TIP3    H234004   0.099   6.708   3.787 -0.0721  0.1302  2.1048
 4149TIP3   OH234005   3.378   4.067   2.256 -0.5418  0.9467  0.3477
 4149TIP3    H134006   3.434   4.094   2.183 -0.5129 -0.0588 -0.0135
 4149TIP3    H234007   3.428   4.087   2.335 -0.3797  1.6086  0.0811
 4150TIP3   OH234008   5.450   0.244   0.960 -0.7499 -0.1459  0.5353
 4150TIP3    H134009   5.399   0.194   1.024 -3.0059 -0.8567 -1.6525
 4150TIP3    H234010   5.524   0.188   0.939 -1.7312 -1.3633  0.1959
 4151TIP3   OH234011   6.201   6.646   8.146 -0.0084  0.6858  0.1458
 4151TIP3    H134012   6.219   6.596   8.226 -0.5903 -0.7335 -0.5817
 4151TIP3    H234013   6.288   6.665   8.111  0.2394  0.8745  0.8276
 4152TIP3   OH234014   6.923   0.956   0.535  0.4343 -0.0081  0.1402
 4152TIP3    H134015   6.829   0.971   0.546  0.2358 -0.6419 -0.5857
 4152TIP3    H234016   6.964   1.006   0.605 -0.3245  1.9857 -0.7611
 4153TIP3   OH234017   0.757   5.567   7.935  0.1498  0.1623  0.1787
 4153TIP3    H134018   0.690   5.603   7.876 -0.6574 -0.5144  0.6588
 4153TIP3    H234019   0.837   5.615   7.913  0.0640 -0.5558 -1.9750
 4154TIP3   OH234020   5.223   0.986   1.628 -0.4848 -0.1605 -0.4606
 4154TIP3    H134021   5.256   1.030   1.550  1.7173 -0.5888  0.1497
 4154TIP3    H234022   5.170   1.051   1.673  0.6521  1.0618 -0.8408
 4155TIP3   OH234023   3.498   3.523   8.025  0.0565 -0.1897  0.0936
 4155TIP3    H134024   3.583   3.558   7.999 -1.1350  1.7899 -1.4464
 4155TIP3    H234025   3.466   3.583   8.092 -0.1178 -0.9510  0.7059
 4156TIP3   OH234026   5.856   4.124   0.715 -0.3575  0.0626  0.1715
 4156TIP3    H134027   5.943   4.122   0.675 -0.1789 -2.9177  0.4747
 4156TIP3    H234028   5.871   4.160   0.802  0.4393  0.3256 -0.0646
 4157TIP3   OH234029   2.656   1.559   1.022 -0.6638  0.0597  0.0660
 4157TIP3    H134030   2.749   1.564   1.042 -0.3576  0.9435 -1.3504
 4157TIP3    H234031   2.648   1.485   0.962 -1.0273 -0.5556  0.8607
 4158TIP3   OH234032   4.907   4.087   7.809  0.2327  0.6347  0.5359
 4158TIP3    H134033   4.812   4.081   7.799  0.3107  0.6898 -0.3124
 4158TIP3    H234034   4.925   4.180   7.820  0.1007  0.5305  1.8143
 4159TIP3   OH234035   0.506   6.517   2.910  0.4988  0.0898  0.3500
 4159TIP3    H134036   0.483   6.433   2.950  1.6977 -0.3932  0.0706
 4159TIP3    H234037   0.474   6.582   2.972  1.3440 -0.6172  1.5635
 4160TIP3   OH234038   5.630   1.086   2.910 -0.3378 -0.0391  0.0708
 4160TIP3    H134039   5.543   1.109   2.942  0.0436 -0.6700  1.6875
 4160TIP3    H234040   5.679   1.168   2.913 -0.0447 -0.2256  2.1738
 4161TIP3   OH234041   4.285   3.062   2.218 -0.0280  0.2101  0.4306
 4161TIP3    H134042   4.293   3.051   2.124  1.2855 -0.1940  0.5685
 4161TIP3    H234043   4.306   3.154   2.234  2.5085 -0.3164  0.5534
 4162TIP3   OH234044   5.716   2.116   3.507  0.4550 -0.4671 -0.1665
 4162TIP3    H134045   5.684   2.032   3.540  0.6339 -0.3457  0.3118
 4162TIP3    H234046   5.726   2.101   3.413 -1.7847 -0.2706 -0.4945
 4163TIP3   OH234047   1.627   4.359   1.105  0.0822  0.1328 -0.3840
 4163TIP3    H134048   1.625   4.365   1.009  2.5893 -0.6003 -0.5489
 4163TIP3    H234049   1.644   4.449   1.134 -0.4070  0.3119 -0.6428
 4164TIP3   OH234050   2.944   3.113   0.171  0.5474  0.7275  0.1415
 4164TIP3    H134051   2.920   3.176   0.239 -0.7647 -0.8391  1.1777
 4164TIP3    H234052   3.040   3.108   0.176  0.4869  0.7548  1.7769
 4165TIP3   OH234053   4.969   0.565   3.126 -0.6300  0.4303  0.4999
 4165TIP3    H134054   4.962   0.507   3.202 -2.1049 -0.6729 -0.4289
 4165TIP3    H234055   5.000   0.508   3.056 -1.4064  0.9316 -0.2638
 4166TIP3   OH234056   0.949   0.176   8.480  0.3555 -0.1877 -0.1934
 4166TIP3    H134057   0.943   0.082   8.466  0.0449 -0.2228  0.1591
 4166TIP3    H234058   0.884   0.213   8.420  1.5701 -0.0739 -1.5013
 4167TIP3   OH234059   1.096   0.718   1.155  0.1646  0.1954  0.1163
 4167TIP3    H134060   1.063   0.808   1.155 -2.9921 -0.8200 -1.4204
 4167TIP3    H234061   1.065   0.681   1.238  0.1583  0.1250  0.0829
 4168TIP3   OH234062   5.470   0.012   8.114  0.1777  0.2958 -0.2335
 4168TIP3    H134063   5.484  -0.023   8.026 -1.8457  0.2377 -0.5790
 4168TIP3    H234064   5.468  -0.064   8.171 -0.5194  0.1509 -0.4446
 4169TIP3   OH234065   0.900   3.176   1.966 -0.3810  0.0667  0.4090
 4169TIP3    H134066   0.875   3.136   1.883  0.7890  0.6923 -0.2799
 4169TIP3    H234067   0.845   3.134   2.032  0.7005 -2.5965 -0.2760
 4170TIP3   OH234068   5.927   1.372   2.081  0.0682  0.3324  0.5748
 4170TIP3    H134069   5.880   1.320   2.016 -1.4500 -0.3603  2.1603
 4170TIP3    H234070   5.944   1.312   2.153  1.6102  1.1151  0.9153
 4171TIP3   OH234071   1.720   5.894   0.624 -0.1097  0.4721 -0.8585
 4171TIP3    H134072   1.671   5.965   0.663  1.3019  1.8134 -1.4188
 4171TIP3    H234073   1.654   5.835   0.588 -1.3432  0.7222  0.9035
 4172TIP3   OH234074   6.149   5.628   1.095 -0.6117 -0.2903 -0.5315
 4172TIP3    H134075   6.236   5.622   1.134  0.6518  0.9726 -2.9522
 4172TIP3    H234076   6.108   5.704   1.137  0.4405  0.6031 -1.0722
 4173TIP3   OH234077   2.600   1.785   8.459  1.0990  0.3506  0.0049
 4173TIP3    H134078   2.636   1.699   8.480  1.1258  0.6854  1.4061
 4173TIP3    H234079   2.519   1.791   8.510  0.4257  0.6822 -1.0467
 4174TIP3   OH234080   5.257   6.208   7.787  0.0796  0.2887 -0.5585
 4174TIP3    H134081   5.329   6.163   7.743  0.1273  0.4304 -0.6286
 4174TIP3    H234082   5.184   6.146   7.784 -0.0249  0.4341 -1.1629
 4175TIP3   OH234083   2.501   0.990   3.201  0.4264  0.0515 -0.2817
 4175TIP3    H134084   2.424   0.998   3.259  0.6159  0.0217 -0.0238
 4175TIP3    H234085   2.534   0.901   3.218  0.1773 -0.1463 -0.8203
 4176TIP3   OH234086   6.698   5.304   1.317  0.8197 -0.5370  0.2616
 4176TIP3    H134087   6.625   5.245   1.300 -0.5340  0.9785  0.5309
 4176TIP3    H234088   6.776   5.251   1.301 -0.3105 -1.7362 -1.7217
 4177TIP3   OH234089   4.572   4.967   1.091  0.4106 -0.0333  0.1299
 4177TIP3    H134090   4.605   4.926   1.011 -0.9629 -0.9409 -0.0110
 4177TIP3    H234091   4.597   5.059   1.084  0.6133 -0.1795 -1.1697
 4178TIP3   OH234092   4.182   6.158   0.898  0.1066 -0.2105 -0.0007
 4178TIP3    H134093   4.152   6.241   0.936  0.3304  0.0840 -0.4551
 4178TIP3    H234094   4.102   6.110   0.878 -0.1282 -2.1472  4.5080
 4179TIP3   OH234095   1.213   2.531   2.251  0.1727 -0.4180  0.7225
 4179TIP3    H134096   1.292   2.553   2.302  0.0044  2.5721 -0.1365
 4179TIP3    H234097   1.247   2.491   2.171  0.7027 -0.6595  1.0576
 4180TIP3   OH234098   3.324   2.161   1.189 -0.0849 -0.4127 -0.2768
 4180TIP3    H134099   3.251   2.193   1.137 -0.7510  0.0491  0.8979
 4180TIP3    H234100   3.303   2.069   1.206 -0.3397 -0.3100 -0.0326
 4181TIP3   OH234101   0.887   6.917   1.369 -0.5737  0.3755  0.1002
 4181TIP3    H134102   0.958   6.933   1.307  0.6587 -1.5860  0.9004
 4181TIP3    H234103   0.913   6.963   1.449  0.9423 -2.0299  1.0833
 4182TIP3   OH234104   2.673   3.361   7.660 -0.2638  0.1225 -0.0129
 4182TIP3    H134105   2.723   3.406   7.728 -1.8459  2.0529 -0.0239
 4182TIP3    H234106   2.728   3.365   7.582 -0.2437  1.8531  0.0684
 4183TIP3   OH234107   4.343   5.318   1.010  0.1930 -0.5444  0.4351
 4183TIP3    H134108   4.421   5.373   0.997  1.7812 -2.1626  2.3522
 4183TIP3    H234109   4.362   5.239   0.960 -0.9875 -0.3281 -0.3758
 4184TIP3   OH234110   4.206   3.777   1.127  0.1554 -0.3733  0.3356
 4184TIP3    H134111   4.220   3.870   1.110 -0.8673 -0.2819 -0.0534
 4184TIP3    H234112   4.213   3.735   1.042 -3.1626 -0.1432 -0.1936
 4185TIP3   OH234113   2.589   6.127   2.242  0.0227  0.8820  0.0368
 4185TIP3    H134114   2.648   6.053   2.226 -0.0131  0.7959  0.2947
 4185TIP3    H234115   2.587   6.135   2.338 -1.4120  0.0513  0.0928
 4186TIP3   OH234116   2.613   2.763   8.296  0.4149 -0.0397 -0.1969
 4186TIP3    H134117   2.620   2.709   8.217  2.8643 -1.3180  0.7921
 4186TIP3    H234118   2.566   2.841   8.267  0.4333 -0.8622 -2.6990
 4187TIP3   OH234119   4.747   0.135   1.462 -0.2367 -0.1312  0.2463
 4187TIP3    H134120   4.828   0.125   1.411  0.9438 -1.7472  2.2776
 4187TIP3    H234121   4.691   0.063   1.432  0.2089 -0.6970  0.7369
 4188TIP3   OH234122   0.722   2.278   2.288  0.1296 -0.2116 -0.4061
 4188TIP3    H134123   0.711   2.286   2.383 -0.5626  2.4179 -0.6259
 4188TIP3    H234124   0.663   2.345   2.252  1.4981 -0.1057 -2.6136
 4189TIP3   OH234125   3.276   3.420   3.752  0.0529  0.2783  0.1843
 4189TIP3    H134126   3.237   3.507   3.763 -0.3255 -0.0922  2.0446
 4189TIP3    H234127   3.364   3.438   3.718  0.5559  1.5388  1.9518
 4190TIP3   OH234128   5.208   2.120   3.306  0.9091 -0.4656 -0.2695
 4190TIP3    H134129   5.187   2.209   3.276  0.5298 -0.4311  0.0935
 4190TIP3    H234130   5.193   2.123   3.400  1.5844 -0.7225 -0.1525
 4191TIP3   OH234131   2.970   3.426   0.003  0.5393 -0.1773  0.4722
 4191TIP3    H134132   3.010   3.513   0.008 -1.4396  0.8377  0.0310
 4191TIP3    H234133   3.041   3.367  -0.020  1.6561  1.5869 -0.8032
 4192TIP3   OH234134   3.224   4.939   2.506  0.2790  0.5781 -0.1047
 4192TIP3    H134135   3.210   4.879   2.579 -1.1453  0.7754 -0.1914
 4192TIP3    H234136   3.319   4.954   2.505  0.6051 -1.2457  0.2370
 4193TIP3   OH234137   3.432   2.580   2.023 -0.6337 -0.6892 -0.4042
 4193TIP3    H134138   3.364   2.630   1.979  0.4643 -0.0857 -1.4747
 4193TIP3    H234139   3.385   2.514   2.074 -2.0223  0.1171 -0.6116
 4194TIP3   OH234140   6.619   1.779   7.896  0.2468 -0.5724  0.2743
 4194TIP3    H134141   6.673   1.769   7.975  0.1187 -0.4576  0.3770
 4194TIP3    H234142   6.681   1.770   7.824 -0.0657 -3.8662  0.2688
 4195TIP3   OH234143   5.845   3.860   2.197 -0.1457 -0.4075  0.3496
 4195TIP3    H134144   5.754   3.835   2.180 -0.3642  0.5366  0.0484
 4195TIP3    H234145   5.892   3.834   2.118 -0.6471  1.4173 -0.6110
 4196TIP3   OH234146   2.651   5.305   7.586  0.3876  0.4593 -0.4587
 4196TIP3    H134147   2.642   5.212   7.604  1.7737  0.6138  1.2302
 4196TIP3    H234148   2.564   5.341   7.602  0.5060 -0.1192  1.8771
 4197TIP3   OH234149   2.603   5.127   2.174  0.2703 -0.4535  0.3545
 4197TIP3    H134150   2.675   5.084   2.129  0.3349 -0.6600  0.6539
 4197TIP3    H234151   2.632   5.136   2.265  0.4293  0.6013  0.2140
 4198TIP3   OH234152   1.988   1.576   1.740  0.1895 -0.5424  0.8595
 4198TIP3    H134153   2.060   1.587   1.679 -1.3677 -1.5412 -1.2860
 4198TIP3    H234154   1.944   1.496   1.712 -1.3088 -0.3932  2.5748
 4199TIP3   OH234155   2.775   3.110   0.641 -0.6651 -0.0399  0.1268
 4199TIP3    H134156   2.696   3.078   0.596 -0.1261 -0.3029 -0.6693
 4199TIP3    H234157   2.797   3.191   0.596 -0.5391  0.0865  0.4153
 4200TIP3   OH234158   3.573   2.493   2.588 -0.0322  0.1756 -0.1201
 4200TIP3    H134159   3.584   2.457   2.676  1.8013 -2.0642 -1.1710
 4200TIP3    H234160   3.656   2.474   2.543 -1.6524 -0.7771 -2.9901
 4201TIP3   OH234161   5.076   0.067   0.195 -0.3714  0.3634 -0.0531
 4201TIP3    H134162   5.122  -0.008   0.233  0.9473  0.1622 -1.9243
 4201TIP3    H234163   5.126   0.143   0.223  0.7870  0.1913 -1.5911
 4202TIP3   OH234164   1.128   6.877   2.154 -0.3214  0.1086  0.8086
 4202TIP3    H134165   1.097   6.956   2.198  0.0636  1.4818 -1.2396
 4202TIP3    H234166   1.224   6.883   2.159 -0.2894 -0.2452  0.6674
 4203TIP3   OH234167   0.211   0.428   1.574 -0.0674  1.0039  0.3896
 4203TIP3    H134168   0.246   0.486   1.641 -2.2113  1.3013  1.3172
 4203TIP3    H234169   0.202   0.343   1.617 -1.5761  1.2258  0.5852
 4204TIP3   OH234170   0.605   1.913   7.926  0.0758  0.2302  0.1229
 4204TIP3    H134171   0.669   1.982   7.943  0.2759  0.5484 -1.7630
 4204TIP3    H234172   0.649   1.854   7.864 -1.3822  0.3807 -1.0997
 4205TIP3   OH234173   0.235   3.919   7.900 -0.1332  0.4069 -0.0267
 4205TIP3    H134174   0.253   3.833   7.860 -2.4334  0.3668 -1.1379
 4205TIP3    H234175   0.316   3.968   7.888  0.6776 -1.0460 -0.8811
 4206TIP3   OH234176   5.312   0.718   0.254  0.1227  0.6064  0.2940
 4206TIP3    H134177   5.247   0.667   0.206  0.6834  0.1175  0.0500
 4206TIP3    H234178   5.393   0.668   0.246  0.4959  1.1291  0.7341
 4207TIP3   OH234179   1.612   6.812   1.412  0.0038  0.2196 -0.3101
 4207TIP3    H134180   1.551   6.876   1.449  1.0051 -0.0426  2.0211
 4207TIP3    H234181   1.556   6.745   1.374 -1.1301  0.9532  0.0137
 4208TIP3   OH234182   2.961   3.647   1.641 -0.5348  0.0718  0.1401
 4208TIP3    H134183   2.899   3.590   1.595 -0.6120  0.3414 -0.0957
 4208TIP3    H234184   2.922   3.735   1.635 -0.3769  0.1650  0.4275
 4209TIP3   OH234185   1.475   4.907   1.523  0.2813  0.1812  0.1072
 4209TIP3    H134186   1.568   4.921   1.507  0.5027 -0.5307  0.7019
 4209TIP3    H234187   1.447   4.986   1.569  1.2240 -0.6794  2.3080
 4210TIP3   OH234188   6.740   3.407   2.125 -0.1125 -0.2931  0.8835
 4210TIP3    H134189   6.660   3.443   2.087  0.9529  0.3275 -0.8694
 4210TIP3    H234190   6.726   3.312   2.124 -0.1184 -0.3161 -1.1856
 4211TIP3   OH234191   2.415   2.054   0.882  0.2239 -0.5821 -0.3120
 4211TIP3    H134192   2.465   2.123   0.837 -0.1462 -0.1227 -0.0393
 4211TIP3    H234193   2.479   2.008   0.936  0.6384 -1.0286 -1.1838
 4212TIP3   OH234194   6.401   1.616   3.861  0.1951 -0.3628  0.3593
 4212TIP3    H134195   6.405   1.544   3.924 -0.9440 -0.1162  0.7526
 4212TIP3    H234196   6.400   1.695   3.916 -0.0118 -0.1125  0.0002
 4213TIP3   OH234197   2.517   1.769   2.640  0.4014 -0.6706 -0.6507
 4213TIP3    H134198   2.429   1.749   2.609  0.5027 -0.1578 -1.2924
 4213TIP3    H234199   2.570   1.775   2.560  0.7380  0.3586 -0.3703
 4214TIP3   OH234200   4.929   1.333   0.288  0.2849 -0.1138 -0.2850
 4214TIP3    H134201   4.987   1.260   0.267  1.0195  0.4550 -0.3307
 4214TIP3    H234202   4.944   1.396   0.216  0.7894  0.6962  0.5034
 4215TIP3   OH234203   5.611   0.798   2.134 -0.2375  0.0034  0.4969
 4215TIP3    H134204   5.516   0.788   2.130 -1.1297  3.7604  4.1520
 4215TIP3    H234205   5.643   0.712   2.161 -2.4949 -1.4435 -1.0745
 4216TIP3   OH234206   4.369   0.703   1.086  0.0382  0.2367 -0.4317
 4216TIP3    H134207   4.436   0.764   1.116  2.2256 -1.9674 -0.4558
 4216TIP3    H234208   4.316   0.685   1.163  0.6270  0.6546  0.0748
 4217TIP3   OH234209   4.093   5.719   2.208  0.1795 -0.2172 -0.1015
 4217TIP3    H134210   4.108   5.686   2.120 -0.5273  0.6907 -0.5874
 4217TIP3    H234211   4.000   5.701   2.225  0.5196 -1.1628  0.8043
 4218TIP3   OH234212   6.576   5.791   3.158 -0.3572  0.3311 -0.0887
 4218TIP3    H134213   6.663   5.797   3.199 -0.1500  0.0789 -0.4900
 4218TIP3    H234214   6.550   5.700   3.169  0.2038 -0.0307 -1.5226
 4219TIP3   OH234215   5.742   2.090   1.012 -0.5781  0.0065  0.3683
 4219TIP3    H134216   5.718   2.013   0.960  2.1071 -0.0285 -0.9677
 4219TIP3    H234217   5.791   2.055   1.086 -0.2730  0.3756  0.3423
 4220TIP3   OH234218   0.830   1.454   0.312 -0.0670 -0.1699 -0.3401
 4220TIP3    H134219   0.847   1.361   0.298  3.0913  0.0695  0.9877
 4220TIP3    H234220   0.885   1.498   0.246  1.1585  0.7286  1.2273
 4221TIP3   OH234221   6.213   1.127   2.153  0.2826 -0.1901 -0.2493
 4221TIP3    H134222   6.246   1.199   2.099  0.7177 -0.3586 -0.2113
 4221TIP3    H234223   6.118   1.131   2.142  0.1292  1.5898  1.2658
 4222TIP3   OH234224   6.557   0.377   3.156 -0.1259 -0.3348 -0.0162
 4222TIP3    H134225   6.580   0.469   3.143 -2.9931  0.1260 -3.0673
 4222TIP3    H234226   6.622   0.328   3.104  0.7479 -0.0262  0.7479
 4223TIP3   OH234227   6.461   1.650   2.027  0.0824  0.0591 -0.1744
 4223TIP3    H134228   6.493   1.632   2.115  0.4983  1.1397 -0.0864
 4223TIP3    H234229   6.406   1.727   2.036  1.6799  1.3887 -1.1203
 4224TIP3   OH234230   1.619   4.050   8.241  0.1112  0.1402 -0.4159
 4224TIP3    H134231   1.611   3.958   8.264 -0.0583  0.2305 -0.1199
 4224TIP3    H234232   1.656   4.049   8.152 -2.0516 -0.2478 -1.3599
 4225TIP3   OH234233   2.509   3.073   0.298  0.7595 -0.0381 -0.0537
 4225TIP3    H134234   2.532   3.156   0.339 -3.6826  1.2187  0.3630
 4225TIP3    H234235   2.512   3.010   0.370 -0.1588  0.7146  0.6623
 4226TIP3   OH234236   6.843   3.052   3.863 -0.2328 -0.1554 -0.5370
 4226TIP3    H134237   6.816   2.965   3.891  2.3525 -0.4807  1.3940
 4226TIP3    H234238   6.783   3.076   3.793 -1.7398 -2.9872 -0.3181
 4227TIP3   OH234239   1.076   4.553   1.743  0.5244 -0.5844  0.6047
 4227TIP3    H134240   1.124   4.617   1.689  1.3872 -1.5946  0.1323
 4227TIP3    H234241   1.039   4.492   1.679 -1.2073  0.0210  0.9856
 4228TIP3   OH234242   3.252   1.033   0.810  0.1585 -0.2974  0.1524
 4228TIP3    H134243   3.297   0.952   0.786  1.0204 -0.1335  1.1537
 4228TIP3    H234244   3.163   1.022   0.776  0.8132 -0.8015 -1.5163
 4229TIP3   OH234245   1.429   5.993   0.522 -0.0622 -0.7138 -0.0556
 4229TIP3    H134246   1.450   5.986   0.429  1.7829 -2.5841  0.4291
 4229TIP3    H234247   1.438   5.904   0.555 -1.5924 -0.2528  1.7590
 4230TIP3   OH234248   1.112   2.005   0.782 -0.0749  0.2826  0.0737
 4230TIP3    H134249   1.098   1.945   0.708 -0.3052 -1.0085  1.1393
 4230TIP3    H234250   1.026   2.043   0.799  0.1188  1.1387 -0.7579
 4231TIP3   OH234251   1.927   6.063   3.552  0.2461  0.2061  0.2490
 4231TIP3    H134252   2.013   6.033   3.524  0.1414  0.9156 -0.9041
 4231TIP3    H234253   1.940   6.155   3.576  0.0707 -0.0473  1.3573
 4232TIP3   OH234254   3.510   4.704   0.047  0.1469  0.4745 -0.1150
 4232TIP3    H134255   3.539   4.664   0.129 -1.7961 -1.4416 -0.2796
 4232TIP3    H234256   3.588   4.748   0.013  1.2909  0.4078  2.1838
 4233TIP3   OH234257   1.375   6.233   1.731 -0.5266 -0.0940  0.2214
 4233TIP3    H134258   1.385   6.247   1.637  1.2285 -0.5156  0.3196
 4233TIP3    H234259   1.280   6.239   1.746 -0.8960 -0.6477 -1.6595
 4234TIP3   OH234260   5.295   0.767   8.291  0.1822 -0.5742 -0.0337
 4234TIP3    H134261   5.369   0.763   8.352 -3.3126  1.3287  5.0104
 4234TIP3    H234262   5.310   0.848   8.242  2.4858 -1.4476 -0.9105
 4235TIP3   OH234263   5.399   2.956   1.360  0.3842  0.0832  0.3245
 4235TIP3    H134264   5.389   3.023   1.293 -2.1563  1.2171  1.6857
 4235TIP3    H234265   5.420   3.005   1.440 -0.4753 -0.8081  1.1343
 4236TIP3   OH234266   2.308   6.775   2.434 -0.2612 -0.2452  0.1619
 4236TIP3    H134267   2.223   6.738   2.409 -0.4217 -0.0701  0.4460
 4236TIP3    H234268   2.360   6.772   2.354 -0.7084  0.1383 -0.1435
 4237TIP3   OH234269   0.464   6.187   8.476  0.8487 -0.2280  0.3524
 4237TIP3    H134270   0.522   6.152   8.543  0.3770  0.9870  1.4296
 4237TIP3    H234271   0.445   6.276   8.504  0.9659  0.4657 -1.6284
 4238TIP3   OH234272   2.139   1.969   1.341  0.2036  0.1870  0.5398
 4238TIP3    H134273   2.235   1.961   1.341  0.1730 -0.2283 -0.0969
 4238TIP3    H234274   2.123   2.062   1.327  0.5169  0.1687  0.0161
 4239TIP3   OH234275   1.366   3.740   2.914  0.8865  0.1650  0.4701
 4239TIP3    H134276   1.350   3.720   2.821  0.9380  0.2014  0.4532
 4239TIP3    H234277   1.412   3.663   2.947 -1.1933 -0.8767  1.0498
 4240TIP3   OH234278   0.154   1.864   7.776 -0.4218  0.3430  0.6985
 4240TIP3    H134279   0.211   1.904   7.842 -0.0534  1.5949 -0.3357
 4240TIP3    H234280   0.119   1.938   7.726 -3.7188 -0.2951  1.8401
 4241TIP3   OH234281   1.098   2.112   1.739 -0.4288  0.2350 -0.2166
 4241TIP3    H134282   1.118   2.020   1.756  0.9094  0.6830  0.8100
 4241TIP3    H234283   1.107   2.155   1.824  0.4234  1.5470 -0.9219
 4242TIP3   OH234284   6.930   3.477   1.897 -0.2087 -0.5393  0.0569
 4242TIP3    H134285   7.012   3.431   1.880 -0.4025 -0.3598 -1.5598
 4242TIP3    H234286   6.888   3.427   1.967 -0.2198 -2.6179 -1.3406
 4243TIP3   OH234287   5.625   2.493   0.577  0.3274  0.3800  0.0441
 4243TIP3    H134288   5.677   2.517   0.653 -0.1320 -2.6131  1.4478
 4243TIP3    H234289   5.661   2.409   0.548 -0.8727  0.4103 -1.7450
 4244TIP3   OH234290   4.830   1.905   3.289 -0.1059 -0.1515  0.0622
 4244TIP3    H134291   4.742   1.940   3.279  0.8798  2.0811 -1.9530
 4244TIP3    H234292   4.863   1.943   3.370 -1.1068 -1.3937  1.0852
 4245TIP3   OH234293   1.189   6.146   2.491 -0.4867  0.8556  0.4460
 4245TIP3    H134294   1.190   6.237   2.522 -0.8016  0.8976  0.3384
 4245TIP3    H234295   1.097   6.120   2.498 -0.2270  0.1722  1.5605
 4246TIP3   OH234296   1.001   2.913   0.417 -0.9755 -0.3497 -0.4273
 4246TIP3    H134297   0.933   2.869   0.468 -1.1024  2.0351  1.6253
 4246TIP3    H234298   1.082   2.867   0.440 -1.4789 -1.3565 -0.6284
 4247TIP3   OH234299   6.866   5.388   3.823  0.4398 -0.7516 -0.2297
 4247TIP3    H134300   6.935   5.375   3.757  0.1997  1.8756 -1.1066
 4247TIP3    H234301   6.909   5.437   3.893 -0.4459  0.7096 -0.6799
 4248TIP3   OH234302   3.687   5.544   2.088 -0.3251 -0.1941  0.2766
 4248TIP3    H134303   3.772   5.504   2.069 -0.5073 -0.0425 -0.9124
 4248TIP3    H234304   3.697   5.582   2.175  0.8335 -0.1610  0.1396
 4249TIP3   OH234305   1.646   1.123   8.476 -0.0023  0.4360 -0.0870
 4249TIP3    H134306   1.608   1.147   8.560  0.7019 -0.4097  0.4885
 4249TIP3    H234307   1.702   1.047   8.495 -0.0974  0.0102 -1.3685
 4250TIP3   OH234308   3.969   5.399   1.362 -0.3181 -0.1220  0.2476
 4250TIP3    H134309   3.886   5.355   1.344 -0.3251  0.3764 -1.0784
 4250TIP3    H234310   4.028   5.369   1.292  0.3891  0.1215  0.7247
 4251TIP3   OH234311   4.243   5.434   8.160  0.2859 -0.4127 -0.2334
 4251TIP3    H134312   4.267   5.483   8.081 -1.0609 -0.9197 -0.9952
 4251TIP3    H234313   4.312   5.454   8.223  0.4311  1.4533 -0.9369
 4252TIP3   OH234314   1.664   1.384   3.453 -0.1494 -0.0683  0.0996
 4252TIP3    H134315   1.745   1.393   3.403 -0.0415 -0.5441  0.1843
 4252TIP3    H234316   1.639   1.474   3.475 -0.2056  0.1512 -0.8155
 4253TIP3   OH234317   3.205   2.313   1.680 -0.4339  0.7871  0.2745
 4253TIP3    H134318   3.173   2.401   1.698 -3.7566  0.2078 -1.8208
 4253TIP3    H234319   3.161   2.258   1.745 -1.3444  0.3281 -0.6913
 4254TIP3   OH234320   5.508   3.364   0.700 -0.0458 -0.7949 -0.0605
 4254TIP3    H134321   5.447   3.327   0.637  0.6600 -1.9716 -0.0803
 4254TIP3    H234322   5.566   3.291   0.723  0.2938 -0.1391  1.2341
 4255TIP3   OH234323   3.159   6.718   7.826  0.2836 -0.6730 -0.4370
 4255TIP3    H134324   3.182   6.627   7.807 -2.0324 -1.2947 -0.6173
 4255TIP3    H234325   3.090   6.739   7.763 -1.7223  0.0027  1.8230
 4256TIP3   OH234326   5.237   2.845   0.647 -0.5841 -0.1586  0.5242
 4256TIP3    H134327   5.151   2.803   0.644 -0.5328 -0.2186 -0.5895
 4256TIP3    H234328   5.294   2.780   0.687 -0.9315 -0.3503  0.7130
 4257TIP3   OH234329   0.926   2.412   1.432  0.4986 -0.3914  0.1625
 4257TIP3    H134330   0.888   2.357   1.363  0.1299  1.6503 -1.3330
 4257TIP3    H234331   1.011   2.439   1.398  0.0201  1.2111  0.1495
 4258TIP3   OH234332   1.790   5.908   2.168  0.2805  0.2063 -0.0688
 4258TIP3    H134333   1.786   5.910   2.073  1.0605 -0.8751 -0.1307
 4258TIP3    H234334   1.764   5.820   2.192 -0.0531  0.5133  0.7324
 4259TIP3   OH234335   4.662   1.032   0.191 -0.1071  0.2407  0.3271
 4259TIP3    H134336   4.754   1.028   0.217  0.3597  2.1121 -0.7774
 4259TIP3    H234337   4.614   0.988   0.261  1.4334  1.2929  2.1302
 4260TIP3   OH234338   6.074   5.945   1.470 -0.0567  0.1918 -0.2697
 4260TIP3    H134339   6.131   6.019   1.448 -2.0172  2.0566  0.6077
 4260TIP3    H234340   6.107   5.914   1.555 -1.0604  2.1298  0.8982
 4261TIP3   OH234341   4.513   4.287   7.652 -0.3104 -0.2581  0.0865
 4261TIP3    H134342   4.585   4.336   7.693 -0.9540  2.2627 -1.5843
 4261TIP3    H234343   4.435   4.314   7.700 -0.4620 -1.1633  0.3667
 4262TIP3   OH234344   2.191   4.009   1.251 -0.4866  0.1228 -1.3605
 4262TIP3    H134345   2.241   3.928   1.261  0.5130  0.6936 -1.6509
 4262TIP3    H234346   2.161   4.007   1.160 -0.1898  0.2310 -1.4610
 4263TIP3   OH234347   5.488   2.695   2.280  0.5250  0.1722  0.1839
 4263TIP3    H134348   5.485   2.738   2.195  0.3453  2.8545  1.4670
 4263TIP3    H234349   5.556   2.628   2.270 -0.1858 -0.3086 -2.3122
 4264TIP3   OH234350   3.067   4.883   3.466  0.1698 -0.0703 -0.4488
 4264TIP3    H134351   2.983   4.922   3.488 -0.4363 -0.4301 -2.0140
 4264TIP3    H234352   3.058   4.855   3.376  1.7421 -0.7670 -0.4276
 4265TIP3   OH234353   4.816   0.960   0.498 -0.1722 -0.1047 -0.0387
 4265TIP3    H134354   4.878   0.972   0.426  2.3686  1.3839  2.2506
 4265TIP3    H234355   4.843   0.878   0.539  0.4350  0.6334  1.0675
 4266TIP3   OH234356   5.062   1.266   2.532  0.2477  0.4144 -0.2874
 4266TIP3    H134357   5.104   1.328   2.474 -1.4663  0.1122 -1.9797
 4266TIP3    H234358   5.015   1.320   2.596  0.5041  0.8006 -0.4241
 4267TIP3   OH234359   3.229   4.850   2.761  0.1171 -0.0259  0.2839
 4267TIP3    H134360   3.178   4.814   2.833 -0.4335 -2.4529 -1.2043
 4267TIP3    H234361   3.318   4.817   2.775  0.0219 -0.4543 -0.0808
 4268TIP3   OH234362   2.782   2.736   2.697  0.3638 -0.1791 -0.0012
 4268TIP3    H134363   2.815   2.759   2.784 -0.9620 -0.5212  0.6180
 4268TIP3    H234364   2.728   2.659   2.711  1.5186 -1.3011 -1.4265
 4269TIP3   OH234365   1.835   5.905   1.625  0.3612  0.0452 -0.3189
 4269TIP3    H134366   1.804   5.815   1.637  0.7257 -0.0022  0.3637
 4269TIP3    H234367   1.765   5.949   1.578  0.3647 -0.7089 -1.0504
 4270TIP3   OH234368   3.748   4.680   1.888 -0.5085 -0.0630  0.2384
 4270TIP3    H134369   3.733   4.588   1.866  2.8047 -1.2164  2.0760
 4270TIP3    H234370   3.725   4.686   1.981  1.7294  0.1972  0.8342
 4271TIP3   OH234371   1.213   5.358   0.232 -0.5147  0.1609 -0.0124
 4271TIP3    H134372   1.275   5.430   0.246  0.3455 -0.7534  1.0479
 4271TIP3    H234373   1.215   5.308   0.313 -1.4473 -0.8040 -0.5596
 4272TIP3   OH234374   5.942   5.363   4.029  1.0279  0.6374  0.6430
 4272TIP3    H134375   5.855   5.380   4.067 -0.2770 -0.1685 -1.7769
 4272TIP3    H234376   5.980   5.450   4.016 -0.1666  1.0896  0.0997
 4273TIP3   OH234377   4.888   3.891   8.253  0.1066  0.2606  0.1758
 4273TIP3    H134378   4.822   3.836   8.211  0.3893  0.6474 -0.8021
 4273TIP3    H234379   4.971   3.846   8.236  0.0720 -0.4157  1.7144
 4274TIP3   OH234380   6.617   4.213   2.810 -0.2206  0.3254  0.3564
 4274TIP3    H134381   6.690   4.270   2.783  0.3241 -0.7499 -0.4944
 4274TIP3    H234382   6.603   4.236   2.902  0.6833  1.1050  0.3223
 4275TIP3   OH234383   0.191   6.840   1.518  0.1818  0.3709 -0.4690
 4275TIP3    H134384   0.183   6.767   1.456  1.4297  0.0801 -0.3164
 4275TIP3    H234385   0.128   6.821   1.587  2.3650 -2.1120  1.0448
 4276TIP3   OH234386   2.929   1.934   1.015 -0.5313 -0.7333  0.3029
 4276TIP3    H134387   2.970   1.979   0.941  0.6740 -1.1820  0.6780
 4276TIP3    H234388   2.876   2.002   1.057 -0.4209 -0.2127 -0.3690
 4277TIP3   OH234389   1.729   2.231   1.103  0.4429 -0.1031  0.0493
 4277TIP3    H134390   1.692   2.232   1.015  0.8063 -0.8300 -0.1253
 4277TIP3    H234391   1.806   2.287   1.098  0.2652  0.1347 -0.0050
 4278TIP3   OH234392   0.589   5.538   2.097  0.2916 -0.3218 -0.1415
 4278TIP3    H134393   0.542   5.461   2.129  0.6729 -1.0867 -1.3502
 4278TIP3    H234394   0.681   5.520   2.118  0.2453  0.4846  0.8644
 4279TIP3   OH234395   1.581   2.140   3.631 -0.4289 -0.6035  0.1624
 4279TIP3    H134396   1.601   2.053   3.598  1.3059  0.0265 -0.5242
 4279TIP3    H234397   1.533   2.124   3.713  1.9521 -2.2578  1.3606
 4280TIP3   OH234398   5.211   4.890   2.206  0.3366  0.6974 -0.0072
 4280TIP3    H134399   5.211   4.862   2.114 -1.1629  3.1870 -0.8568
 4280TIP3    H234400   5.130   4.853   2.242  0.9513 -0.3234  0.3677
 4281TIP3   OH234401   5.219   1.035   3.613 -0.3087 -0.7021  0.0588
 4281TIP3    H134402   5.237   1.111   3.558 -0.7152 -0.2535  0.5285
 4281TIP3    H234403   5.259   0.961   3.567  2.6912  0.1952  0.9795
 4282TIP3   OH234404   4.884   0.464   0.661 -0.0927 -0.8036  0.1835
 4282TIP3    H134405   4.964   0.422   0.692 -0.5891 -1.2989  0.8325
 4282TIP3    H234406   4.814   0.421   0.711 -0.6347  0.7138  0.7737
 4283TIP3   OH234407   0.080   0.893   1.365  0.4218  0.2742 -0.1292
 4283TIP3    H134408   0.010   0.874   1.428  0.5461 -0.5460 -0.2245
 4283TIP3    H234409   0.116   0.807   1.344  0.4989  0.5566 -1.1884
 4284TIP3   OH234410   1.037   2.915   8.212  0.2796  0.5706  0.3823
 4284TIP3    H134411   1.046   2.845   8.277  1.8011  0.1063 -0.2782
 4284TIP3    H234412   1.004   2.990   8.261 -0.4341 -0.3087  1.2985
 4285TIP3   OH234413   5.069   3.126   1.397  0.6668  0.6661 -0.3908
 4285TIP3    H134414   5.104   3.038   1.384 -0.8644 -0.4094  2.0161
 4285TIP3    H234415   5.143   3.184   1.379  1.9779 -1.1451 -1.1550
 4286TIP3   OH234416   2.727   5.021   7.685  0.5332  0.4215 -0.4365
 4286TIP3    H134417   2.787   4.959   7.726 -1.7155  0.1870  2.8028
 4286TIP3    H234418   2.674   4.968   7.626  0.0578 -0.3793  0.6791
 4287TIP3   OH234419   1.927   2.809   2.058 -0.8784  0.1544  0.5218
 4287TIP3    H134420   1.879   2.742   2.009 -1.7480 -1.1052  2.9238
 4287TIP3    H234421   1.858   2.856   2.106 -0.1418  1.9202 -0.0666
 4288TIP3   OH234422   2.312   3.602   2.004  0.3246 -0.3521 -0.0207
 4288TIP3    H134423   2.386   3.544   1.985 -0.0538 -0.5801 -0.8250
 4288TIP3    H234424   2.334   3.684   1.961  0.1522 -0.3879 -0.1764
 4289TIP3   OH234425   1.085   6.465   1.289  0.4504 -0.2154  0.8951
 4289TIP3    H134426   1.078   6.437   1.198  0.2774 -0.6128  1.0259
 4289TIP3    H234427   1.078   6.384   1.339 -0.2489  0.0768  1.2933
 4290TIP3   OH234428   3.944   6.529   0.466 -0.0299 -0.5079  0.3527
 4290TIP3    H134429   3.953   6.436   0.486 -0.7786 -0.3914  1.3500
 4290TIP3    H234430   3.960   6.535   0.372  1.1583 -1.4758  0.4657
 4291TIP3   OH234431   3.850   3.338   3.659  0.4600  0.5683  0.4125
 4291TIP3    H134432   3.758   3.315   3.672  1.0125 -0.9234  1.9876
 4291TIP3    H234433   3.899   3.267   3.700  2.3366  1.3917 -0.2753
 4292TIP3   OH234434   3.867   0.052   2.917 -0.2835  0.3667 -0.7612
 4292TIP3    H134435   3.830   0.013   2.995  0.6679  1.0066  0.0342
 4292TIP3    H234436   3.959   0.067   2.939  0.4925 -1.1963 -2.6628
 4293TIP3   OH234437   3.863   3.368   7.640 -0.4584 -0.6196 -0.6480
 4293TIP3    H134438   3.894   3.398   7.726 -1.0649 -1.9670  0.0663
 4293TIP3    H234439   3.772   3.342   7.655  0.1732 -3.3639 -1.0327
 4294TIP3   OH234440   0.082   5.751   2.718  0.1003  0.2603 -0.3588
 4294TIP3    H134441   0.091   5.715   2.629  1.7162  2.1701 -1.0255
 4294TIP3    H234442   0.128   5.835   2.715  0.9337  0.0079  2.5219
 4295TIP3   OH234443   3.204   3.552   0.666  0.2935 -0.4939 -0.4392
 4295TIP3    H134444   3.205   3.481   0.730 -0.1296  0.1012  0.2471
 4295TIP3    H234445   3.225   3.510   0.582 -0.8742 -1.5899 -0.2123
 4296TIP3   OH234446   1.592   5.097   3.700 -0.7303  0.2758  0.6628
 4296TIP3    H134447   1.684   5.074   3.694 -1.1737 -1.3005 -3.4196
 4296TIP3    H234448   1.545   5.018   3.674 -3.1504  1.6033  0.6251
 4297TIP3   OH234449   4.965   6.255   1.933 -0.0205 -0.7833 -0.2333
 4297TIP3    H134450   4.976   6.160   1.924 -3.0886 -1.1957 -0.7246
 4297TIP3    H234451   4.924   6.267   2.018 -1.7739 -0.1952 -1.1059
 4298TIP3   OH234452   6.780   3.480   1.098 -0.2096  0.4121  0.3778
 4298TIP3    H134453   6.697   3.433   1.094 -0.0614 -0.2847  3.3399
 4298TIP3    H234454   6.756   3.572   1.093 -1.0752  0.1878  0.3078
 4299TIP3   OH234455   5.364   6.422   0.511  0.0942 -0.2306 -0.3567
 4299TIP3    H134456   5.403   6.499   0.552 -3.0125  2.0592 -1.3049
 4299TIP3    H234457   5.399   6.422   0.422  1.3926 -0.9947  0.1261
 4300TIP3   OH234458   5.164   5.911   0.035 -0.4453 -0.0302  0.0027
 4300TIP3    H134459   5.095   5.945   0.091 -0.2498 -0.4172  0.4795
 4300TIP3    H234460   5.164   5.817   0.049 -0.4953 -0.1517 -0.7648
 4301TIP3   OH234461   4.037   2.021   2.605  0.5236  0.0393 -0.4471
 4301TIP3    H134462   3.980   1.964   2.657 -0.9945  2.3350  0.5704
 4301TIP3    H234463   4.104   2.051   2.665 -0.9208  2.2663  0.1898
 4302TIP3   OH234464   2.514   4.456   7.591  0.2577  0.2612 -0.4756
 4302TIP3    H134465   2.573   4.508   7.537  1.3135 -2.0176 -1.6730
 4302TIP3    H234466   2.467   4.401   7.528 -0.1696 -0.8251  0.7533
 4303TIP3   OH234467   0.161   2.655   2.412 -0.4133 -0.5225 -0.2607
 4303TIP3    H134468   0.239   2.639   2.359 -1.0600  0.0381 -1.4385
 4303TIP3    H234469   0.088   2.641   2.351 -1.1904 -0.1622  0.5729
 4304TIP3   OH234470   6.152   0.768   2.057  0.8329 -0.2684 -0.3595
 4304TIP3    H134471   6.162   0.798   2.148  1.0312 -0.3012 -0.3706
 4304TIP3    H234472   6.129   0.676   2.065 -1.7193  0.2985 -0.2536
 4305TIP3   OH234473   2.669   1.522   0.060 -0.1084  0.6629  0.3417
 4305TIP3    H134474   2.577   1.496   0.065 -0.2759  1.1991  0.1988
 4305TIP3    H234475   2.715   1.458   0.114 -0.5098  0.1487  0.0825
 4306TIP3   OH234476   6.348   5.681   2.500  0.1732  0.1213 -0.0626
 4306TIP3    H134477   6.416   5.743   2.526  2.2566 -2.6279  1.5686
 4306TIP3    H234478   6.280   5.691   2.567  0.6976  0.2985  0.4513
 4307TIP3   OH234479   0.617   6.718   1.384 -0.2354 -0.3880 -0.0399
 4307TIP3    H134480   0.703   6.676   1.382 -0.5237 -1.0094  0.2875
 4307TIP3    H234481   0.618   6.770   1.464 -0.7906 -1.8058  0.9437
 4308TIP3   OH234482   6.679   2.460   1.466  0.8262  0.2029 -0.1735
 4308TIP3    H134483   6.589   2.473   1.495 -0.0292 -2.2643 -1.4638
 4308TIP3    H234484   6.705   2.377   1.506  2.1579  0.3356 -0.7069
 4309TIP3   OH234485   6.720   5.947   1.142  0.2605 -0.0073  0.1129
 4309TIP3    H134486   6.736   6.002   1.065 -0.2621  0.5002  0.3615
 4309TIP3    H234487   6.757   5.996   1.215  1.3811 -0.8017  0.1153
 4310TIP3   OH234488   6.883   5.012   3.412 -0.3113  0.1953  0.5312
 4310TIP3    H134489   6.794   5.012   3.377 -0.3907  0.7423  0.7236
 4310TIP3    H234490   6.885   4.935   3.470 -0.7227  0.2854  0.6766
 4311TIP3   OH234491   3.578   1.888   3.212  0.0476  0.3159 -0.8892
 4311TIP3    H134492   3.504   1.835   3.244 -0.6531  0.2462 -2.5048
 4311TIP3    H234493   3.613   1.929   3.290  0.2571 -2.0744  0.3796
 4312TIP3   OH234494   5.326   4.237   2.434  0.5582  0.1423 -0.6151
 4312TIP3    H134495   5.311   4.229   2.528 -0.6674 -0.6377 -0.8537
 4312TIP3    H234496   5.415   4.271   2.426  0.8902 -0.3571  0.8135
 4313TIP3   OH234497   1.557   4.008   1.541  0.6783  0.6553  0.3481
 4313TIP3    H134498   1.554   3.920   1.502 -1.4909  0.8973 -0.1335
 4313TIP3    H234499   1.583   4.065   1.468 -0.3821  0.7202  0.0128
 4314TIP3   OH234500   6.663   4.043   1.507 -0.2204  0.1165 -0.2487
 4314TIP3    H134501   6.597   3.993   1.556  0.3600 -0.3526  0.0634
 4314TIP3    H234502   6.637   4.135   1.519 -0.8411 -0.0642 -0.1664
 4315TIP3   OH234503   5.605   6.257   3.535 -0.4898  0.0807 -0.1877
 4315TIP3    H134504   5.631   6.167   3.553 -0.1673 -0.0719 -1.3159
 4315TIP3    H234505   5.651   6.310   3.599  1.5896 -0.3053 -1.2877
 4316TIP3   OH234506   0.150   5.314   8.369 -0.2389  0.1281  0.4016
 4316TIP3    H134507   0.168   5.251   8.299  0.0695 -0.4765  1.0057
 4316TIP3    H234508   0.113   5.261   8.440  2.0299  0.2054  1.7603
 4317TIP3   OH234509   2.308   5.662   1.044  0.3344  0.7550  0.0594
 4317TIP3    H134510   2.237   5.607   1.077 -0.2161  0.2095 -1.8919
 4317TIP3    H234511   2.267   5.747   1.031  0.3019  0.7104 -0.1280
 4318TIP3   OH234512   1.383   2.623   1.915 -0.3293 -0.2745  0.1316
 4318TIP3    H134513   1.458   2.599   1.969 -0.8548 -1.8108  0.2352
 4318TIP3    H234514   1.421   2.640   1.828  0.1312 -1.2754  0.1210
 4319TIP3   OH234515   0.953   1.706   0.340  0.0480 -0.2611 -0.3003
 4319TIP3    H134516   0.864   1.670   0.337  0.4330 -1.2171 -2.8322
 4319TIP3    H234517   0.941   1.801   0.337 -0.8699 -0.3249  0.6306
 4320TIP3   OH234518   1.323   4.694   2.956 -0.7930 -0.3404  0.4796
 4320TIP3    H134519   1.290   4.612   2.994  0.0334 -1.5304 -1.2482
 4320TIP3    H234520   1.389   4.724   3.018 -0.1123 -1.7489  0.4855
 4321TIP3   OH234521   1.843   4.983   7.316 -0.7193  0.2749 -0.2093
 4321TIP3    H134522   1.767   5.041   7.305 -0.6883  0.5440  0.8629
 4321TIP3    H234523   1.816   4.920   7.381  0.3964  1.1706  1.1842
 4322TIP3   OH234524   2.941   4.080   2.484 -0.7935 -0.4367  0.0200
 4322TIP3    H134525   2.925   4.003   2.539 -5.1135 -0.5917 -1.0852
 4322TIP3    H234526   2.981   4.046   2.405  1.7762 -0.7377  1.3377
 4323TIP3   OH234527   2.643   2.383   1.788 -0.2144  0.5820  0.1884
 4323TIP3    H134528   2.616   2.372   1.879  1.8052  2.6337  1.1271
 4323TIP3    H234529   2.604   2.467   1.762  0.7713  0.9412 -0.1776
 4324TIP3   OH234530   3.347   5.854   0.666 -0.0089 -0.3393 -0.5958
 4324TIP3    H134531   3.347   5.946   0.695  0.1764 -0.6274  0.3593
 4324TIP3    H234532   3.434   5.841   0.629  0.2092 -0.3061 -0.1113
 4325TIP3   OH234533   6.815   1.977   7.595 -0.1187 -0.1135 -0.0532
 4325TIP3    H134534   6.848   2.061   7.624  1.0667 -0.9280  1.0722
 4325TIP3    H234535   6.800   1.988   7.501  0.3755  1.2289  0.0065
 4326TIP3   OH234536   5.697   6.554   1.716  0.5843 -0.1553  0.1939
 4326TIP3    H134537   5.735   6.489   1.775  0.3165 -1.3608 -0.9277
 4326TIP3    H234538   5.606   6.528   1.706  0.9384 -0.8100 -1.8041
 4327TIP3   OH234539   4.039   0.872   2.957 -0.1991  0.2772 -0.4364
 4327TIP3    H134540   4.050   0.967   2.957 -0.6365  0.3659  1.5681
 4327TIP3    H234541   4.021   0.850   3.048 -0.6798 -1.6749 -0.9626
 4328TIP3   OH234542   5.789   6.727   1.939 -0.3096  0.2668  0.0138
 4328TIP3    H134543   5.778   6.822   1.933  1.1501  0.6135  1.9489
 4328TIP3    H234544   5.718   6.691   1.886 -2.6093  2.3940  1.4838
 4329TIP3   OH234545   0.869   0.046   7.810 -0.0020 -0.4843  0.0918
 4329TIP3    H134546   0.840   0.129   7.772 -2.3240 -1.7789 -1.2243
 4329TIP3    H234547   0.964   0.047   7.802 -0.1077  1.3515 -1.4327
 4330TIP3   OH234548   0.194   1.413   3.453  0.1148  0.5947  0.4147
 4330TIP3    H134549   0.133   1.350   3.492 -0.6404  0.9263 -0.1925
 4330TIP3    H234550   0.140   1.490   3.434  0.1787  0.1106 -2.1573
 4331TIP3   OH234551   2.463   3.904   2.753  0.0770  0.3822 -0.4755
 4331TIP3    H134552   2.458   3.998   2.771  0.2597  0.1752  0.8009
 4331TIP3    H234553   2.378   3.870   2.784  0.8039 -0.1404  1.0784
 4332TIP3   OH234554   1.305   2.966   1.455 -0.6131 -0.2748  0.2525
 4332TIP3    H134555   1.292   2.881   1.497  1.6980 -1.1113 -0.5900
 4332TIP3    H234556   1.399   2.981   1.460 -0.9880  2.3027  0.4443
 4333TIP3   OH234557   6.090   4.076   0.164  0.5128  0.4408  0.7855
 4333TIP3    H134558   6.052   3.990   0.181  0.7257  0.1921  0.0650
 4333TIP3    H234559   6.164   4.082   0.224  1.2143 -0.3813  0.0215
 4334TIP3   OH234560   3.488   1.549   0.578  0.0239 -0.2333  0.1878
 4334TIP3    H134561   3.440   1.621   0.617  0.7641  0.9954 -1.0763
 4334TIP3    H234562   3.579   1.565   0.603  0.0891 -1.2965  0.7028
 4335TIP3   OH234563   6.464   2.574   0.275  0.5501 -0.0496  0.3027
 4335TIP3    H134564   6.393   2.576   0.211  1.4031 -0.1661 -0.6881
 4335TIP3    H234565   6.489   2.666   0.286  1.2419 -0.1163 -0.5404
 4336TIP3   OH234566   1.422   5.782   0.090 -0.4821  0.3548  0.8731
 4336TIP3    H134567   1.446   5.866   0.130  0.4773  0.9608 -0.8998
 4336TIP3    H234568   1.346   5.802   0.035  0.2859  0.2662 -0.2388
 4337TIP3   OH234569   3.620   5.942   0.895  0.0808 -0.3717  0.1572
 4337TIP3    H134570   3.576   5.962   0.978  0.5080 -0.8367  0.5012
 4337TIP3    H234571   3.687   6.010   0.886 -0.4143  0.0859 -0.1565
 4338TIP3   OH234572   2.728   5.010   1.614  0.1355  0.2702 -0.2080
 4338TIP3    H134573   2.706   4.994   1.705 -1.2604 -2.5258 -0.9072
 4338TIP3    H234574   2.765   4.927   1.583  0.7255  1.1822 -2.1457
 4339TIP3   OH234575   2.526   5.508   0.927  0.0550  0.5307  0.0756
 4339TIP3    H134576   2.453   5.549   0.974  1.0152  0.0564  2.1269
 4339TIP3    H234577   2.557   5.439   0.987  0.6065 -0.9555 -1.8230
 4340TIP3   OH234578   5.043   5.422   8.456 -0.3484 -0.2872  0.3289
 4340TIP3    H134579   5.078   5.364   8.389  0.1153 -1.1045  1.2519
 4340TIP3    H234580   5.097   5.501   8.451  0.1919 -0.6578  0.2574
 4341TIP3   OH234581   4.824   5.137   1.397 -0.1149  0.2665 -0.6846
 4341TIP3    H134582   4.824   5.221   1.442  0.0963  0.0297 -0.2304
 4341TIP3    H234583   4.815   5.073   1.468  1.4539 -0.1766 -0.8441
 4342TIP3   OH234584   6.296   5.351   2.266  1.1969 -0.3997  0.6834
 4342TIP3    H134585   6.279   5.291   2.193  2.9764 -0.4150  0.2451
 4342TIP3    H234586   6.234   5.423   2.253  1.0440 -0.7267 -0.4643
 4343TIP3   OH234587   1.961   4.210   1.205 -0.3202 -0.4637  0.4108
 4343TIP3    H134588   2.002   4.150   1.142 -0.1813  0.5938 -0.5562
 4343TIP3    H234589   1.911   4.271   1.150 -1.5588 -0.5146  1.4500
 4344TIP3   OH234590   6.943   4.507   0.245  0.1192  0.4924 -0.1009
 4344TIP3    H134591   6.916   4.596   0.225  2.1809  0.7818 -2.0379
 4344TIP3    H234592   6.922   4.457   0.166 -3.4971 -1.5229  1.8477
 4345TIP3   OH234593   1.731   4.343   0.437  0.4761  0.1309 -0.4493
 4345TIP3    H134594   1.708   4.314   0.349  0.2210 -0.1414 -0.2953
 4345TIP3    H234595   1.661   4.404   0.461  0.4284  0.0383 -0.3519
 4346TIP3   OH234596   0.399   3.557   2.374  0.2938 -0.2878  0.1087
 4346TIP3    H134597   0.337   3.494   2.336  0.5465 -0.2373 -0.3928
 4346TIP3    H234598   0.393   3.633   2.317 -0.6457  0.4943  1.1956
 4347TIP3   OH234599   2.768   6.194   0.985  0.5365  0.5625  0.0594
 4347TIP3    H134600   2.729   6.127   1.041 -1.5510  3.1025  1.9346
 4347TIP3    H234601   2.853   6.213   1.026  1.8879 -1.8559 -1.3966
 4348TIP3   OH234602   0.050   4.141   1.376 -0.2370 -0.1675 -0.3399
 4348TIP3    H134603   0.143   4.128   1.394 -0.3822 -1.3306 -0.3686
 4348TIP3    H234604   0.030   4.077   1.307 -1.0465  0.1150 -0.3780
 4349TIP3   OH234605   1.559   2.326   1.948  0.4355  0.4297 -0.6179
 4349TIP3    H134606   1.603   2.290   2.026  0.1828  2.7237  0.6691
 4349TIP3    H234607   1.630   2.347   1.888  0.8566  1.0297  0.0741
 4350TIP3   OH234608   1.312   2.273   7.892 -0.1087 -0.3187 -0.4976
 4350TIP3    H134609   1.317   2.335   7.819  0.4367  1.8956  1.3213
 4350TIP3    H234610   1.387   2.215   7.879 -0.5695 -0.5983 -2.1846
 4351TIP3   OH234611   4.037   2.252   1.836  0.2495  0.1261 -0.3015
 4351TIP3    H134612   3.970   2.257   1.767 -1.6440 -1.7267  1.2288
 4351TIP3    H234613   4.117   2.228   1.791 -0.1196  2.1492 -2.1915
 4352TIP3   OH234614   5.451   5.673   0.545 -0.0682  0.2774  0.4098
 4352TIP3    H134615   5.457   5.589   0.499  2.7952  0.2143  0.7283
 4352TIP3    H234616   5.383   5.721   0.498  0.5025 -0.9868 -1.8678
 4353TIP3   OH234617   5.522   5.387   3.360  0.3826  0.5104  0.2787
 4353TIP3    H134618   5.617   5.385   3.368  0.3287 -0.7632  0.8638
 4353TIP3    H234619   5.491   5.417   3.446  0.2689  2.2595 -0.3298
 4354TIP3   OH234620   6.526   6.180   0.222 -0.3297 -0.5487 -0.1073
 4354TIP3    H134621   6.444   6.142   0.188 -1.2221 -0.0558  1.4075
 4354TIP3    H234622   6.524   6.271   0.190 -0.5835 -0.4204  0.2687
 4355TIP3   OH234623   5.185   6.243   2.952  0.2635 -0.7261 -0.2436
 4355TIP3    H134624   5.119   6.292   3.002  0.2037  0.5071 -1.4583
 4355TIP3    H234625   5.135   6.203   2.880  0.6928 -0.4932 -0.6760
 4356TIP3   OH234626   5.343   4.593   2.147 -0.4375 -0.1339 -0.1271
 4356TIP3    H134627   5.407   4.527   2.174 -1.1280 -0.3470  1.0368
 4356TIP3    H234628   5.385   4.638   2.074  2.0852  1.3575  2.0734
 4357TIP3   OH234629   6.061   2.921   1.857 -0.2334  0.0774  0.1135
 4357TIP3    H134630   6.145   2.904   1.899  0.8268 -0.0102 -1.9144
 4357TIP3    H234631   6.079   2.989   1.792 -1.5059 -0.5776 -0.9932
 4358TIP3   OH234632   1.825   0.529   1.721  0.1492  0.5398  0.2127
 4358TIP3    H134633   1.799   0.567   1.805 -1.4209 -0.3208  0.1451
 4358TIP3    H234634   1.911   0.490   1.738  0.2823  1.2091  1.1503
 4359TIP3   OH234635   4.946   2.431   1.974  0.1558  0.0200 -0.6899
 4359TIP3    H134636   4.988   2.515   1.957 -0.8539  0.4856 -0.9183
 4359TIP3    H234637   4.985   2.371   1.910  1.0579  0.2347 -0.3664
 4360TIP3   OH234638   6.471   5.889   1.030 -0.1294 -0.0928  0.5748
 4360TIP3    H134639   6.503   5.925   0.948  0.2728 -0.6319  0.4871
 4360TIP3    H234640   6.548   5.888   1.088 -0.2624 -0.2776  0.7528
 4361TIP3   OH234641   1.844   4.121   2.342  0.3928  0.3014 -0.2732
 4361TIP3    H134642   1.818   4.037   2.380  1.3352 -0.1158 -0.5192
 4361TIP3    H234643   1.858   4.179   2.417  1.4310 -0.2728 -0.0038
 4362TIP3   OH234644   2.001   6.832   0.307  0.1232 -0.3787  0.4153
 4362TIP3    H134645   2.095   6.846   0.318 -0.2599  2.2737  0.8903
 4362TIP3    H234646   1.970   6.809   0.394  0.3053 -1.3692  0.2364
 4363TIP3   OH234647   0.738   4.712   1.078 -0.0364  0.2933  0.2981
 4363TIP3    H134648   0.733   4.800   1.038 -0.6398 -0.2380 -0.8503
 4363TIP3    H234649   0.692   4.721   1.161 -0.4333  0.9862  0.0165
 4364TIP3   OH234650   0.128   5.879   2.009  0.4642  0.1635 -0.4889
 4364TIP3    H134651   0.163   5.815   1.946 -1.7762 -0.4613 -1.2028
 4364TIP3    H234652   0.179   5.958   1.993  1.5963 -0.6988 -1.3695
 4365TIP3   OH234653   5.278   6.548   2.326  0.3663  0.0519  0.3520
 4365TIP3    H134654   5.302   6.502   2.406  0.5481 -1.5416 -0.5999
 4365TIP3    H234655   5.350   6.609   2.310  1.0128 -0.6395  0.6208
 4366TIP3   OH234656   1.373   1.255   7.312  0.6391  0.1842  0.2409
 4366TIP3    H134657   1.441   1.214   7.259 -0.5100  1.3359 -2.3004
 4366TIP3    H234658   1.403   1.345   7.324  0.4701  0.1687  0.8075
 4367TIP3   OH234659   5.107   3.832   1.605 -0.2915 -1.3595  0.0345
 4367TIP3    H134660   5.015   3.850   1.585  0.0424  1.6933  0.8533
 4367TIP3    H234661   5.147   3.811   1.520 -1.0079  0.9770 -0.9405
 4368TIP3   OH234662   4.777   0.173   0.573  0.4051  0.0997  0.4931
 4368TIP3    H134663   4.761   0.231   0.648 -0.2144  1.1924 -0.4450
 4368TIP3    H234664   4.775   0.232   0.497  2.7923 -0.6744 -0.2701
 4369TIP3   OH234665   0.226   6.013   2.888  0.2417 -0.1653  0.5582
 4369TIP3    H134666   0.300   5.981   2.837  2.2766  1.5279  2.2950
 4369TIP3    H234667   0.264   6.048   2.968 -2.3938  1.3060  1.2985
 4370TIP3   OH234668   6.860   1.304   8.128  0.2948  0.6638 -0.0388
 4370TIP3    H134669   6.881   1.220   8.089  0.1463  0.3891  0.4675
 4370TIP3    H234670   6.862   1.366   8.054  1.0493  0.3376 -0.3072
 4371TIP3   OH234671   4.535   4.948   1.448 -0.3323  0.2080  0.3144
 4371TIP3    H134672   4.482   5.022   1.420  1.0701  0.7681 -0.9757
 4371TIP3    H234673   4.598   4.986   1.510 -1.3393 -0.4386  1.7888
 4372TIP3   OH234674   3.145   0.388   7.995 -0.2007 -0.3437  0.2185
 4372TIP3    H134675   3.208   0.329   8.037 -1.4395 -0.9507  1.3056
 4372TIP3    H234676   3.191   0.421   7.918  1.2719 -1.1209  0.7208
 4373TIP3   OH234677   3.986   5.185   1.896  0.4121  0.1181  0.2140
 4373TIP3    H134678   3.960   5.096   1.920  0.8993 -0.0630  0.0724
 4373TIP3    H234679   3.975   5.188   1.800 -0.6251  0.5453  0.3321
 4374TIP3   OH234680   4.238   4.414   1.754 -0.5390  0.0156  0.1103
 4374TIP3    H134681   4.172   4.478   1.782 -1.3600 -0.5755 -0.4700
 4374TIP3    H234682   4.193   4.330   1.756  0.2450 -0.4188 -0.1419
 4375TIP3   OH234683   3.440   4.889   7.904 -0.4733 -0.1079 -0.4112
 4375TIP3    H134684   3.481   4.807   7.930 -1.6228 -1.1070 -1.5676
 4375TIP3    H234685   3.355   4.862   7.868 -0.8369  1.5844 -0.8984
 4376TIP3   OH234686   0.182   0.458   0.724  0.4751  0.3448  0.1988
 4376TIP3    H134687   0.259   0.417   0.765  0.4038  0.9172  0.9325
 4376TIP3    H234688   0.172   0.541   0.771 -0.3738  0.4431 -0.1433
 4377TIP3   OH234689   1.414   6.555   1.336  0.2431  0.3336 -0.1558
 4377TIP3    H134690   1.358   6.625   1.368  0.3674  0.4350 -0.1579
 4377TIP3    H234691   1.426   6.575   1.243  1.2722  0.9996  0.0986
 4378TIP3   OH234692   4.053   5.080   8.363 -0.3402 -0.2896 -0.2259
 4378TIP3    H134693   3.998   5.040   8.296 -1.3237  0.6983 -0.0410
 4378TIP3    H234694   4.073   5.008   8.423 -2.2374 -0.5194  0.2093
 4379TIP3   OH234695   3.577   2.970   0.812 -0.1908  0.4179 -0.2335
 4379TIP3    H134696   3.565   2.875   0.811 -1.6038  0.5717  0.4330
 4379TIP3    H234697   3.587   2.993   0.720 -1.0663 -0.2513 -0.5139
 4380TIP3   OH234698   4.576   3.706   0.732  0.0400 -0.1258  0.2717
 4380TIP3    H134699   4.579   3.756   0.814  0.4150  1.6991 -0.7992
 4380TIP3    H234700   4.485   3.681   0.723 -0.2379  0.6837  0.6895
 4381TIP3   OH234701   3.777   0.062   1.790  0.1682  0.2100 -0.2125
 4381TIP3    H134702   3.824   0.055   1.873  0.5834 -0.1084 -0.4693
 4381TIP3    H234703   3.697   0.011   1.804  0.0573  0.4660  0.1120
 4382TIP3   OH234704   5.260   5.815   0.750  0.6480 -0.3321  0.4131
 4382TIP3    H134705   5.277   5.805   0.656  3.1078 -0.4620  0.8002
 4382TIP3    H234706   5.190   5.879   0.755  1.1619  0.4521 -1.5125
 4383TIP3   OH234707   2.340   5.111   2.902 -0.5241 -0.0119 -0.0978
 4383TIP3    H134708   2.324   5.140   2.992  0.7427 -1.7193  0.7343
 4383TIP3    H234709   2.314   5.186   2.848 -0.1064  1.5510  1.7452
 4384TIP3   OH234710   0.960   5.360   7.911 -0.0967 -0.0266 -0.3290
 4384TIP3    H134711   0.962   5.455   7.907 -1.6915  0.0446 -0.1531
 4384TIP3    H234712   0.869   5.337   7.894 -0.0187 -1.4529  0.9081
 4385TIP3   OH234713   2.673   2.342   2.286  0.4948  0.3308 -0.3290
 4385TIP3    H134714   2.749   2.396   2.265  2.5020 -2.1988  0.0663
 4385TIP3    H234715   2.684   2.320   2.379 -0.8076  0.0238 -0.2247
 4386TIP3   OH234716   6.570   2.991   3.703  0.0284 -0.4072  0.6523
 4386TIP3    H134717   6.540   2.921   3.761 -0.7159 -0.1184  0.6284
 4386TIP3    H234718   6.510   3.064   3.721  0.0899 -0.1530 -0.1321
 4387TIP3   OH234719   4.135   4.713   0.339  0.1213 -0.3328  0.4473
 4387TIP3    H134720   4.189   4.681   0.412 -0.3964  0.2272  1.0882
 4387TIP3    H234721   4.096   4.634   0.302  0.6386 -0.6527  0.5761
 4388TIP3   OH234722   5.398   1.446   0.611 -0.8661  0.0032 -0.1262
 4388TIP3    H134723   5.378   1.446   0.705 -0.5375  0.1378 -0.0550
 4388TIP3    H234724   5.315   1.469   0.569 -0.6211  1.5906  0.2128
 4389TIP3   OH234725   1.572   3.802   0.658 -0.4821 -0.0145 -0.1982
 4389TIP3    H134726   1.506   3.771   0.595 -0.3902  0.9474 -0.7782
 4389TIP3    H234727   1.643   3.836   0.603  0.4164 -0.8325  0.4213
 4390TIP3   OH234728   1.318   5.848   2.574  0.3649 -0.0515  0.0742
 4390TIP3    H134729   1.299   5.811   2.660 -0.1272 -0.7877 -0.3416
 4390TIP3    H234730   1.235   5.843   2.527  0.9521 -0.9375 -0.8977
 4391TIP3   OH234731   5.370   5.328   0.038 -0.5557 -0.1305 -0.4455
 4391TIP3    H134732   5.351   5.396  -0.027 -1.1479 -0.1325 -0.2797
 4391TIP3    H234733   5.285   5.294   0.063 -0.2599 -0.9608 -0.5410
 4392TIP3   OH234734   0.924   1.832   1.572  0.3049 -0.1697 -0.0188
 4392TIP3    H134735   1.005   1.839   1.621  0.3557 -2.0904  0.2362
 4392TIP3    H234736   0.910   1.920   1.536  1.1610  0.8539  1.9755
 4393TIP3   OH234737   4.513   6.605   0.103 -0.1629  0.2886 -0.2232
 4393TIP3    H134738   4.505   6.570   0.191 -0.9977 -1.3237 -0.8963
 4393TIP3    H234739   4.580   6.674   0.110  1.5243 -1.3896  1.2131
 4394TIP3   OH234740   0.585   1.896   8.444 -0.1867  0.1311  0.0582
 4394TIP3    H134741   0.605   1.961   8.511  0.9059  0.9335 -1.0082
 4394TIP3    H234742   0.671   1.865   8.415 -0.6389 -2.7094  1.3515
 4395TIP3   OH234743   2.346   0.641   3.376  0.3313 -0.2831  0.2956
 4395TIP3    H134744   2.421   0.694   3.350  0.1757 -0.4352 -0.4792
 4395TIP3    H234745   2.384   0.568   3.426  0.7863 -0.8138 -0.8002
 4396TIP3   OH234746   5.678   1.339   3.042  0.4115 -0.2655 -0.1874
 4396TIP3    H134747   5.730   1.279   3.096  0.8334  1.3886  1.3364
 4396TIP3    H234748   5.595   1.348   3.089 -0.4482 -1.1609 -1.4580
 4397TIP3   OH234749   3.167   6.482   1.300  0.3288  0.3307 -0.4534
 4397TIP3    H134750   3.078   6.477   1.264 -0.1176  0.3538  0.6062
 4397TIP3    H234751   3.221   6.511   1.226 -0.2774 -1.1409 -1.5345
 4398TIP3   OH234752   4.312   1.097   2.761  0.6967 -0.0583  0.1603
 4398TIP3    H134753   4.229   1.142   2.778  1.1013  2.1963 -3.0357
 4398TIP3    H234754   4.376   1.144   2.814  0.3023 -0.5708  1.1366
 4399TIP3   OH234755   3.966   1.039   2.535 -0.2717 -0.1982 -0.2647
 4399TIP3    H134756   3.960   0.980   2.460  3.2295 -0.6974 -0.3271
 4399TIP3    H234757   3.997   1.122   2.498 -0.5370  0.1937  0.3786
 4400TIP3   OH234758   3.477   4.627   1.497  0.0966  0.1655  0.2598
 4400TIP3    H134759   3.416   4.565   1.537  0.7917  0.3295  1.6316
 4400TIP3    H234760   3.536   4.572   1.445 -0.0235 -0.1978  0.5055
 4401TIP3   OH234761   1.641   5.314   8.193 -0.7492 -0.8592  0.4471
 4401TIP3    H134762   1.707   5.299   8.261  0.8505  1.5701 -0.4321
 4401TIP3    H234763   1.665   5.254   8.123  0.9543  0.3720 -0.0867
 4402TIP3   OH234764   5.121   0.971   3.877 -0.0964  0.3550  0.2779
 4402TIP3    H134765   5.187   0.903   3.888 -0.5511 -0.0439  0.5738
 4402TIP3    H234766   5.113   0.980   3.782 -0.2514 -0.2271  0.2281
 4403TIP3   OH234767   1.348   5.170   2.733  0.2981 -0.1237 -0.1174
 4403TIP3    H134768   1.357   5.098   2.671 -0.2952 -0.8725  0.6555
 4403TIP3    H234769   1.263   5.209   2.713 -0.4078 -1.0813  0.9573
 4404TIP3   OH234770   3.080   6.041   2.004 -0.2637 -0.0230  0.1898
 4404TIP3    H134771   3.008   5.994   1.962 -1.8439  2.1855  0.2355
 4404TIP3    H234772   3.114   6.100   1.936  1.5089 -0.9481  0.1999
 4405TIP3   OH234773   1.235   4.266   3.307  0.6626 -0.5178  0.2182
 4405TIP3    H134774   1.302   4.240   3.244 -0.2170 -2.1892 -0.0970
 4405TIP3    H234775   1.203   4.350   3.275  1.0061 -0.8189 -0.9580
 4406TIP3   OH234776   6.551   6.524   1.386 -0.4067  0.0804  0.2778
 4406TIP3    H134777   6.531   6.596   1.327  1.0574  0.6699  0.4705
 4406TIP3    H234778   6.466   6.483   1.403 -1.3217  1.8938  0.3405
 4407TIP3   OH234779   2.979   4.005   2.190 -0.1096 -0.2792  0.3802
 4407TIP3    H134780   3.032   4.081   2.166 -0.5492  0.3302  1.3104
 4407TIP3    H234781   2.893   4.040   2.210 -1.2110 -1.3527 -2.0262
 4408TIP3   OH234782   5.248   4.500   7.423 -0.2771 -0.0105 -0.4059
 4408TIP3    H134783   5.201   4.569   7.470 -0.8238  0.0421 -1.0179
 4408TIP3    H234784   5.209   4.418   7.454  1.9611 -0.2728  2.1428
 4409TIP3   OH234785   1.276   3.157   1.204  0.4667  0.3102  0.6146
 4409TIP3    H134786   1.207   3.140   1.140  0.3549  1.7866  0.3072
 4409TIP3    H234787   1.253   3.103   1.279 -0.4100 -0.0564  0.0978
 4410TIP3   OH234788   4.514   2.883   2.061 -0.2840 -0.6337  0.2167
 4410TIP3    H134789   4.429   2.915   2.089 -0.8656 -2.9954  1.4644
 4410TIP3    H234790   4.556   2.852   2.141  0.7732 -1.6411 -0.6735
 4411TIP3   OH234791   6.606   4.544   0.045  0.0101  0.2413  0.1093
 4411TIP3    H134792   6.605   4.559   0.140 -0.8087  0.1357  0.1248
 4411TIP3    H234793   6.558   4.462   0.033 -0.1589  0.4141 -0.4189
 4412TIP3   OH234794   0.268   0.775   7.703  0.1905  0.3100  0.1077
 4412TIP3    H134795   0.345   0.719   7.707  1.0331  1.3833 -0.8024
 4412TIP3    H234796   0.300   0.859   7.671 -1.1560  1.1469  0.8547
 4413TIP3   OH234797   2.461   6.337   1.369 -0.1927 -0.1048  0.2318
 4413TIP3    H134798   2.546   6.323   1.326  0.0060  0.2802  0.4869
 4413TIP3    H234799   2.415   6.396   1.310  0.1335  0.5332  0.6075
 4414TIP3   OH234800   6.829   6.626   2.461 -0.5019 -0.0872 -0.3859
 4414TIP3    H134801   6.768   6.614   2.534 -1.9917  0.6252 -1.4780
 4414TIP3    H234802   6.796   6.702   2.414  2.7679  2.0386  0.4603
 4415TIP3   OH234803   6.908   4.030   2.199  0.2074  0.1725 -0.4359
 4415TIP3    H134804   6.949   3.947   2.225 -0.0279  0.2169  0.0819
 4415TIP3    H234805   6.905   4.081   2.280 -1.5563 -0.1129 -0.2828
 4416TIP3   OH234806   4.367   1.251   1.575  0.0218  0.4049 -0.3768
 4416TIP3    H134807   4.390   1.180   1.515 -0.1604  0.9156 -1.0697
 4416TIP3    H234808   4.447   1.302   1.584  0.3085 -0.1745  0.5544
 4417TIP3   OH234809   4.228   6.849   7.956 -0.2878  0.1409 -0.1426
 4417TIP3    H134810   4.231   6.940   7.925 -0.6068 -0.4662 -2.1087
 4417TIP3    H234811   4.315   6.834   7.993  0.2209  0.8726 -0.9939
 4418TIP3   OH234812   1.766   6.216   7.956 -0.0459 -0.3471 -0.1589
 4418TIP3    H134813   1.815   6.245   8.033 -1.7186 -0.3205  0.9666
 4418TIP3    H234814   1.830   6.212   7.886  1.1626  1.6153  0.7413
 4419TIP3   OH234815   3.677   0.181   0.681 -0.3104  0.1759 -0.5709
 4419TIP3    H134816   3.650   0.091   0.667  2.9308 -1.2138  1.1473
 4419TIP3    H234817   3.724   0.206   0.602 -0.4321  0.0279 -0.6879
 4420TIP3   OH234818   1.008   6.537   0.392 -0.1906 -0.4154  0.2359
 4420TIP3    H134819   0.939   6.580   0.442  0.1462  0.3931  0.0122
 4420TIP3    H234820   1.058   6.488   0.457 -0.8171 -0.8094  0.4352
 4421TIP3   OH234821   0.028   2.162   0.831  0.0244 -0.2383  0.0937
 4421TIP3    H134822   0.055   2.200   0.748 -0.7039 -1.4647 -0.7385
 4421TIP3    H234823   0.015   2.237   0.889  1.4146  0.5839 -0.6046
 4422TIP3   OH234824   5.005   3.442   1.870  0.2843  1.0449 -0.8136
 4422TIP3    H134825   4.995   3.515   1.931 -1.5565  0.0166  0.1800
 4422TIP3    H234826   5.088   3.402   1.894  0.0439  1.2453  0.3791
 4423TIP3   OH234827   0.160   0.706   0.825  0.4543 -0.4194 -0.3855
 4423TIP3    H134828   0.212   0.785   0.816 -0.3146 -0.0176 -1.4330
 4423TIP3    H234829   0.095   0.728   0.892 -0.1220  0.0478 -1.0861
 4424TIP3   OH234830   5.001   0.121   1.706 -0.2076  0.2493  0.2754
 4424TIP3    H134831   5.078   0.175   1.687 -0.2207  0.0590 -0.3608
 4424TIP3    H234832   4.966   0.157   1.787 -0.5350  1.5655 -0.4167
 4425TIP3   OH234833   4.380   5.723   7.793 -0.0159  0.1346 -0.6709
 4425TIP3    H134834   4.288   5.740   7.772  0.2561 -0.2152 -2.3090
 4425TIP3    H234835   4.424   5.724   7.708  1.3157 -0.8167 -0.0244
 4426TIP3   OH234836   6.506   5.544   0.625 -0.6253  0.2797  0.1479
 4426TIP3    H134837   6.569   5.535   0.696  0.5281  1.5989 -0.6691
 4426TIP3    H234838   6.469   5.632   0.636 -1.1929  0.1067 -0.2917
 4427TIP3   OH234839   5.012   4.449   1.227  0.1139 -0.6415 -0.1773
 4427TIP3    H134840   5.012   4.543   1.248 -1.2448 -1.1484  2.5245
 4427TIP3    H234841   4.924   4.420   1.252  0.2465 -2.5169 -1.7288
 4428TIP3   OH234842   5.876   6.877   2.601 -0.0037  0.7851  0.5037
 4428TIP3    H134843   5.820   6.815   2.648  1.4618  0.6267  2.1332
 4428TIP3    H234844   5.943   6.822   2.560  0.0535  1.1161  0.1489
 4429TIP3   OH234845   4.459   0.083   8.475  0.3487 -0.5414 -0.1604
 4429TIP3    H134846   4.497   0.101   8.561  2.2893  0.3493 -1.1485
 4429TIP3    H234847   4.485  -0.007   8.456 -0.2416 -0.8036  0.2471
 4430TIP3   OH234848   3.572   6.285   7.556 -0.8208  0.1225 -0.2870
 4430TIP3    H134849   3.582   6.194   7.525  2.2078  0.5682 -0.9842
 4430TIP3    H234850   3.548   6.277   7.648  1.4966 -1.4874  0.2531
 4431TIP3   OH234851   2.399   6.621   7.779 -0.3560 -0.1319 -0.1302
 4431TIP3    H134852   2.380   6.557   7.848 -0.5907  1.2485  1.1268
 4431TIP3    H234853   2.348   6.591   7.703 -0.5658 -1.3401  0.4697
 4432TIP3   OH234854   1.341   6.297   1.462  0.4660  0.2640 -0.4099
 4432TIP3    H134855   1.312   6.255   1.381 -0.6167 -0.1441  0.1623
 4432TIP3    H234856   1.338   6.390   1.443  1.6530  0.1367 -1.2972
 4433TIP3   OH234857   0.110   0.453   1.087 -0.0232 -0.2810  0.4567
 4433TIP3    H134858   0.019   0.445   1.057  0.3095  1.2135 -1.0871
 4433TIP3    H234859   0.122   0.380   1.147 -1.8487 -1.2695 -0.3092
 4434TIP3   OH234860   0.715   3.732   1.040  0.5519 -0.2040  0.1406
 4434TIP3    H134861   0.808   3.713   1.029  0.8106  0.6058  0.7741
 4434TIP3    H234862   0.671   3.685   0.969  1.3147 -1.5828  0.5491
 4435TIP3   OH234863   6.237   6.538   8.442 -0.2633  0.2592 -0.1552
 4435TIP3    H134864   6.236   6.537   8.538 -0.7924 -0.7050 -0.1548
 4435TIP3    H234865   6.283   6.458   8.418 -2.8468 -1.2113 -0.6781
 4436TIP3   OH234866   2.365   3.483   0.366  0.6628 -0.2526  0.1346
 4436TIP3    H134867   2.273   3.461   0.358  0.3658  0.3733  1.5087
 4436TIP3    H234868   2.383   3.539   0.291 -0.4296  0.6975  0.5533
 4437TIP3   OH234869   2.815   1.718   3.288 -0.1388  0.0161 -0.0429
 4437TIP3    H134870   2.845   1.634   3.323  1.9176  1.0128  0.7559
 4437TIP3    H234871   2.737   1.696   3.238 -0.6473 -2.1283  1.5210
 4438TIP3   OH234872   6.319   0.189   2.171  0.1713  0.3948  0.6848
 4438TIP3    H134873   6.319   0.105   2.124  2.3795  0.2050  0.8950
 4438TIP3    H234874   6.246   0.238   2.133  0.1227 -0.8272 -0.9155
 4439TIP3   OH234875   4.033   4.984   0.672 -0.4333 -0.0686  0.0305
 4439TIP3    H134876   4.126   4.961   0.670 -0.4087  0.0543 -0.3531
 4439TIP3    H234877   4.031   5.076   0.696 -0.4120  0.1428 -0.7571
 4440TIP3   OH234878   3.239   4.011   8.335  0.0097  0.2071  0.4855
 4440TIP3    H134879   3.323   3.979   8.366 -0.4473 -0.9239  0.5967
 4440TIP3    H234880   3.192   3.933   8.306 -0.8187  0.8725 -0.0311
 4441TIP3   OH234881   5.200   6.455   7.910 -0.6931 -0.3212  0.0152
 4441TIP3    H134882   5.262   6.386   7.886  1.6347  0.4824  3.0131
 4441TIP3    H234883   5.241   6.536   7.878 -1.6209  0.0085 -0.3715
 4442TIP3   OH234884   5.750   3.562   1.725  0.3935  0.3147  0.4580
 4442TIP3    H134885   5.736   3.648   1.764 -0.6810 -0.3490  1.6063
 4442TIP3    H234886   5.662   3.532   1.701  0.7470 -0.4860  0.1149
 4443TIP3   OH234887   2.230   2.686   1.131 -0.1698 -0.5931  0.1386
 4443TIP3    H134888   2.300   2.751   1.125 -1.7404  1.1465 -0.1531
 4443TIP3    H234889   2.228   2.661   1.223 -0.1051  0.4633  0.4447
 4444TIP3   OH234890   2.285   0.459   1.312 -0.2359 -0.0771 -0.1462
 4444TIP3    H134891   2.258   0.520   1.381  1.3501 -1.1806  1.5494
 4444TIP3    H234892   2.343   0.397   1.356  1.1073 -0.6634 -2.5662
 4445TIP3   OH234893   0.243   1.155   3.331  0.3796 -0.2124 -0.1057
 4445TIP3    H134894   0.206   1.242   3.342  0.6029  0.1502 -1.8277
 4445TIP3    H234895   0.334   1.163   3.358  1.2661  0.9561 -2.9835
 4446TIP3   OH234896   2.830   4.933   2.158 -0.4242 -0.6617  0.0790
 4446TIP3    H134897   2.881   4.967   2.231  0.9609 -2.4010  0.0006
 4446TIP3    H234898   2.763   4.879   2.199  1.3790 -3.0281  0.1645
 4447TIP3   OH234899   4.461   6.616   2.539 -0.2026  0.4603 -0.0218
 4447TIP3    H134900   4.459   6.641   2.447 -0.2040  1.1701  0.1599
 4447TIP3    H234901   4.418   6.531   2.543 -1.1551  0.9118 -0.5325
 4448TIP3   OH234902   1.312   2.182   0.090  0.1007 -0.3153 -0.6658
 4448TIP3    H134903   1.392   2.214   0.132 -0.8689  1.4935 -0.0760
 4448TIP3    H234904   1.314   2.222   0.003 -0.4824  0.3309 -0.3928
 4449TIP3   OH234905   1.767   3.554   0.269 -0.2827 -0.5238 -0.6283
 4449TIP3    H134906   1.807   3.606   0.340  1.5770 -1.4435 -0.9364
 4449TIP3    H234907   1.813   3.583   0.190 -1.8920  0.0298 -1.4021
 4450TIP3   OH234908   5.459   2.423   1.279 -0.2599 -0.1754  0.2575
 4450TIP3    H134909   5.502   2.466   1.206  0.0062  1.7095  1.4405
 4450TIP3    H234910   5.385   2.480   1.300 -0.4930 -0.8192  1.2577
 4451TIP3   OH234911   1.006   1.002   1.959 -0.5062 -0.5654 -0.4797
 4451TIP3    H134912   0.978   1.027   1.871  0.8428  1.0591 -0.4953
 4451TIP3    H234913   0.945   0.933   1.985 -0.6974 -1.3580 -2.8160
 4452TIP3   OH234914   5.386   5.441   3.569 -0.0134  0.5000  0.6601
 4452TIP3    H134915   5.374   5.365   3.627  0.4724 -0.2280 -0.1780
 4452TIP3    H234916   5.297   5.470   3.548 -0.2013  0.7977  1.7808
 4453TIP3   OH234917   3.269   5.903   2.780 -0.3119 -0.5110  0.1981
 4453TIP3    H134918   3.223   5.937   2.857 -0.8989 -1.1924  0.1559
 4453TIP3    H234919   3.336   5.845   2.815 -0.5681 -0.8077  0.2069
 4454TIP3   OH234920   0.140   2.509   1.896 -0.0095 -0.2193  0.1239
 4454TIP3    H134921   0.106   2.487   1.809  1.3745  1.7822 -1.0166
 4454TIP3    H234922   0.062   2.519   1.950 -0.8445 -3.2174 -0.3654
 4455TIP3   OH234923   5.206   6.888   7.690 -0.0253 -0.4890 -0.4011
 4455TIP3    H134924   5.125   6.933   7.670 -0.6505 -1.7767 -0.8991
 4455TIP3    H234925   5.275   6.952   7.674 -0.9897  1.1901  1.6788
 4456TIP3   OH234926   6.084   0.044   2.390  0.8414 -0.2684  0.3671
 4456TIP3    H134927   6.074  -0.032   2.333  0.4820  1.7659 -2.4962
 4456TIP3    H234928   6.000   0.049   2.437 -0.5090  0.1956 -1.9314
 4457TIP3   OH234929   2.294   3.228   0.047 -0.2396  0.3596 -0.3129
 4457TIP3    H134930   2.299   3.287  -0.029  0.5872 -0.1748 -0.6984
 4457TIP3    H234931   2.363   3.259   0.106  0.5006 -0.4706 -0.7167
 4458TIP3   OH234932   0.588   3.107   1.853 -0.4148 -0.1367  0.3463
 4458TIP3    H134933   0.600   3.143   1.766  0.9194 -0.1656  0.4927
 4458TIP3    H234934   0.669   3.058   1.871 -0.2029  0.7221  1.9886
 4459TIP3   OH234935   3.294   3.243   2.401 -0.5369 -0.1317 -0.5113
 4459TIP3    H134936   3.333   3.202   2.324 -0.3402 -1.5601  0.2994
 4459TIP3    H234937   3.220   3.187   2.423 -0.3305 -0.0015  0.5776
 4460TIP3   OH234938   1.826   1.434   1.010 -0.0496  0.0519 -0.6415
 4460TIP3    H134939   1.813   1.345   1.044 -0.4683 -0.7423 -2.7149
 4460TIP3    H234940   1.859   1.484   1.085 -2.7040 -1.0688  1.4389
 4461TIP3   OH234941   3.204   0.530   7.750  0.3104 -0.2843  0.4502
 4461TIP3    H134942   3.186   0.449   7.703  0.1745 -0.3884  0.6810
 4461TIP3    H234943   3.119   0.573   7.758  0.2793 -0.4208  0.8826
 4462TIP3   OH234944   6.754   5.518   2.706 -0.0775  0.1766 -0.1226
 4462TIP3    H134945   6.823   5.458   2.734  0.8309  0.3031 -2.0016
 4462TIP3    H234946   6.783   5.551   2.621 -1.8993  1.1400 -0.4156
 4463TIP3   OH234947   1.902   3.382   8.325  0.0141 -0.2004  0.4647
 4463TIP3    H134948   1.817   3.366   8.284 -0.6124  0.8971  1.2966
 4463TIP3    H234949   1.921   3.303   8.375  0.0071 -0.8859 -0.5911
 4464TIP3   OH234950   4.455   6.058   2.059  0.2650  0.5755 -0.6293
 4464TIP3    H134951   4.533   6.087   2.011  0.1757  0.4535 -0.8522
 4464TIP3    H234952   4.382   6.077   2.001  0.1452  0.5169 -0.4998
 4465TIP3   OH234953   3.048   0.943   7.529  0.4235 -0.0053  0.1411
 4465TIP3    H134954   3.072   0.982   7.614  0.9551 -0.1504  0.0637
 4465TIP3    H234955   3.121   0.883   7.509  0.4621  0.2760 -0.5786
 4466TIP3   OH234956   1.566   3.182   0.015 -0.2418  0.5280 -0.0926
 4466TIP3    H134957   1.534   3.240  -0.054 -1.4817  0.7380  0.6265
 4466TIP3    H234958   1.601   3.242   0.082 -1.4502  0.4741  0.6150
 4467TIP3   OH234959   1.227   6.644   1.589 -0.0340  0.0042 -0.6220
 4467TIP3    H134960   1.271   6.597   1.660 -2.6515 -1.5079  0.1432
 4467TIP3    H234961   1.206   6.730   1.626  1.5824  0.5112 -0.7906
 4468TIP3   OH234962   0.201   3.339   1.750  0.2791  0.3092 -0.5691
 4468TIP3    H134963   0.164   3.310   1.667 -0.0641 -0.2092 -0.2361
 4468TIP3    H234964   0.280   3.388   1.725  0.4013 -0.1910 -1.1757
 4469TIP3   OH234965   0.756   1.210   3.058  1.0202  0.4266  0.4078
 4469TIP3    H134966   0.703   1.280   3.096  0.3215 -1.1332  2.5107
 4469TIP3    H234967   0.695   1.137   3.045  2.4768 -1.3397  2.6686
 4470TIP3   OH234968   6.157   3.978   2.881  0.3463 -0.5140  0.5590
 4470TIP3    H134969   6.191   4.053   2.832  2.8760 -0.1422  2.6686
 4470TIP3    H234970   6.208   3.903   2.850 -0.4836 -0.9220  0.1662
 4471TIP3   OH234971   2.023   3.574   7.816 -0.5318  0.2470 -0.3778
 4471TIP3    H134972   2.111   3.537   7.820 -0.2174  0.9861 -0.2827
 4471TIP3    H234973   1.993   3.555   7.728 -0.0819  0.4129 -0.5709
 4472TIP3   OH234974   2.532   2.445   1.495 -0.7275  0.0863  0.0259
 4472TIP3    H134975   2.579   2.500   1.558  0.9205 -0.7367 -0.4168
 4472TIP3    H234976   2.601   2.393   1.454 -2.1900 -2.0572  0.1800
 4473TIP3   OH234977   6.019   1.507   0.896  0.2490  0.6283 -0.0324
 4473TIP3    H134978   5.947   1.469   0.844  0.5135 -0.7877  0.6031
 4473TIP3    H234979   6.080   1.540   0.830 -1.1449  2.2909 -0.5993
 4474TIP3   OH234980   3.341   0.113   0.782 -0.1793  0.4163 -0.1922
 4474TIP3    H134981   3.359   0.131   0.874  1.1619  1.5730 -0.6449
 4474TIP3    H234982   3.319   0.198   0.745 -3.4503 -0.3932 -0.4404
 4475TIP3   OH234983   1.616   5.684   7.485  0.1133 -0.3842  0.4748
 4475TIP3    H134984   1.652   5.612   7.433  1.4822 -0.9298  2.0859
 4475TIP3    H234985   1.676   5.757   7.471 -0.2955 -0.0995  0.1988
 4476TIP3   OH234986   4.822   4.182   0.056 -0.5985  0.6748  0.0518
 4476TIP3    H134987   4.912   4.163   0.028 -0.2821 -1.3743  2.1550
 4476TIP3    H234988   4.833   4.245   0.128 -0.6974 -0.6200  1.2283
 4477TIP3   OH234989   4.508   5.718   3.158  0.1948 -0.3105 -0.3631
 4477TIP3    H134990   4.537   5.628   3.142 -0.4076 -0.4895 -0.4602
 4477TIP3    H234991   4.434   5.710   3.218  1.5994  0.2847  1.5264
 4478TIP3   OH234992   3.838   3.134   0.690 -0.1260 -0.2841  0.3534
 4478TIP3    H134993   3.800   3.110   0.605  1.8915 -1.4137 -0.2941
 4478TIP3    H234994   3.896   3.208   0.670  0.3691 -0.5640  0.7450
 4479TIP3   OH234995   6.859   4.404   0.016  0.0287 -0.8434  0.3992
 4479TIP3    H134996   6.774   4.448   0.015 -0.9132 -2.4655  2.2524
 4479TIP3    H234997   6.881   4.391  -0.076 -1.5474 -0.0765 -0.1167
 4480TIP3   OH234998   0.176   3.787   0.626  0.0825 -0.0970  0.3617
 4480TIP3    H134999   0.105   3.726   0.611  0.5683 -0.2924 -1.3119
 4480TIP3    H235000   0.208   3.766   0.714 -3.8447  2.0429  2.5814
 4481TIP3   OH235001   5.748   3.088   1.684 -0.1450 -0.1393 -0.5248
 4481TIP3    H135002   5.769   3.018   1.622 -2.1440  1.2998 -3.0713
 4481TIP3    H235003   5.829   3.138   1.693  0.8851 -1.8573  0.1420
 4482TIP3   OH235004   1.727   2.674   1.864  0.3898 -0.3876 -0.4773
 4482TIP3    H135005   1.654   2.705   1.810 -0.4474 -2.1528 -0.4263
 4482TIP3    H235006   1.690   2.665   1.952  1.2905  0.8282  0.0573
 4483TIP3   OH235007   6.107   1.337   2.611 -0.5172  0.7892  0.2254
 4483TIP3    H135008   6.100   1.310   2.702 -0.4555 -0.8260 -0.2156
 4483TIP3    H235009   6.040   1.286   2.565  1.9450 -1.4146 -1.2134
 4484TIP3   OH235010   1.827   4.103   1.389 -0.1965  0.2596 -0.3540
 4484TIP3    H135011   1.858   4.136   1.474 -2.1196  0.8707  0.1586
 4484TIP3    H235012   1.888   4.140   1.325  0.1085  1.4661  0.5984
 4485TIP3   OH235013   1.152   6.868   2.878  0.0097 -0.1077 -0.0506
 4485TIP3    H135014   1.144   6.797   2.814  2.9665  0.9333 -1.7686
 4485TIP3    H235015   1.178   6.825   2.959 -0.2090 -1.1539 -0.5198
 4486TIP3   OH235016   5.686   3.845   7.857 -0.2366 -0.0924  0.5630
 4486TIP3    H135017   5.692   3.800   7.773  1.1687  0.4283  0.3608
 4486TIP3    H235018   5.593   3.866   7.867 -0.5130 -0.7659 -0.5354
 4487TIP3   OH235019   2.298   6.027   0.604  0.2495 -0.0479 -0.1292
 4487TIP3    H135020   2.303   6.049   0.697  2.6448 -0.4712 -0.0917
 4487TIP3    H235021   2.253   6.101   0.564 -0.9605  0.0765  1.3602
 4488TIP3   OH235022   2.223   0.040   1.196 -0.4182  0.1094 -0.0617
 4488TIP3    H135023   2.183   0.067   1.278 -1.2153 -0.1295 -0.3613
 4488TIP3    H235024   2.194  -0.050   1.183 -0.6327  0.2753 -0.8004
 4489TIP3   OH235025   3.265   4.500   1.085 -0.5024  0.2515  0.0141
 4489TIP3    H135026   3.172   4.479   1.094 -0.8310  2.0586  1.2587
 4489TIP3    H235027   3.275   4.532   0.996 -0.4486 -2.6208 -1.1201
 4490TIP3   OH235028   1.586   6.343   3.468 -0.2492 -0.3564  0.0960
 4490TIP3    H135029   1.630   6.335   3.383  0.0836  0.9473  0.1252
 4490TIP3    H235030   1.601   6.259   3.511  1.2468 -0.3583 -0.3685
 4491TIP3   OH235031   4.416   3.798   2.025 -0.5745  0.7172  0.2579
 4491TIP3    H135032   4.465   3.757   2.095  0.2152  0.6079 -0.3448
 4491TIP3    H235033   4.327   3.763   2.034 -0.4473  0.6008  1.1019
 4492TIP3   OH235034   0.389   6.435   0.404  0.4239  0.3523  0.0683
 4492TIP3    H135035   0.378   6.342   0.424  0.6126  0.6794  1.9257
 4492TIP3    H235036   0.302   6.464   0.378  0.3835 -0.3543 -0.6199
 4493TIP3   OH235037   3.026   6.008   0.976  0.8613  0.1712  0.4157
 4493TIP3    H135038   3.009   6.057   1.057 -0.6104  0.8655 -0.2811
 4493TIP3    H235039   3.075   6.070   0.921  1.4468 -0.1375  0.5788
 4494TIP3   OH235040   3.605   4.524   0.501 -0.2470  0.3375 -0.3369
 4494TIP3    H135041   3.544   4.546   0.572  0.4482  1.1274  0.0333
 4494TIP3    H235042   3.601   4.429   0.495 -0.9584  0.3248  0.1890
 4495TIP3   OH235043   6.684   1.585   1.822  0.0609  0.4558  0.8238
 4495TIP3    H135044   6.647   1.611   1.907  0.1524 -0.0791  1.0330
 4495TIP3    H235045   6.740   1.509   1.843 -1.2707 -0.7855  0.0410
 4496TIP3   OH235046   6.566   5.937   8.224  0.1555 -0.0757 -0.3454
 4496TIP3    H135047   6.565   5.851   8.265  2.4491 -0.2194 -0.4994
 4496TIP3    H235048   6.576   5.919   8.130 -0.6582  0.3613 -0.5336
 4497TIP3   OH235049   2.703   6.750   1.230 -0.3171 -0.2065  0.6025
 4497TIP3    H135050   2.676   6.707   1.311 -0.3044  0.2022  0.8287
 4497TIP3    H235051   2.748   6.682   1.181  0.9363 -0.1095  1.5576
 4498TIP3   OH235052   6.369   4.461   8.241  0.7768 -0.4343 -0.6884
 4498TIP3    H135053   6.428   4.453   8.165 -0.1489 -0.7587 -1.3880
 4498TIP3    H235054   6.352   4.555   8.247  0.0261 -0.4972 -1.5546
 4499TIP3   OH235055   0.061   5.361   2.978  0.2727 -0.0069  0.2259
 4499TIP3    H135056   0.094   5.275   3.006 -1.2384 -0.0285  2.1207
 4499TIP3    H235057   0.049   5.352   2.884  0.3309 -1.8125  0.3491
 4500TIP3   OH235058   2.397   0.369   7.697 -0.2597 -0.1501 -0.3849
 4500TIP3    H135059   2.415   0.283   7.661 -1.8155 -1.0640  0.8881
 4500TIP3    H235060   2.316   0.397   7.652 -0.9198 -0.2920  0.6926
 4501TIP3   OH235061   0.064   0.700   8.286 -0.6849 -0.1470  0.9565
 4501TIP3    H135062   0.074   0.613   8.325  0.1614 -0.3507  0.3095
 4501TIP3    H235063   0.146   0.715   8.240 -1.6099  0.1108 -0.7116
 4502TIP3   OH235064   2.196   2.144   2.022 -0.3550 -0.5481 -0.1223
 4502TIP3    H135065   2.116   2.097   2.045  0.8793 -1.8049  2.0756
 4502TIP3    H235066   2.167   2.229   1.992 -2.6029 -1.8649 -2.0039
 4503TIP3   OH235067   0.806   2.312   0.955  0.2621  0.6057 -0.4279
 4503TIP3    H135068   0.849   2.279   0.876  1.7347 -2.0678  1.3392
 4503TIP3    H235069   0.737   2.248   0.974 -0.8291  1.8279 -0.1212
 4504TIP3   OH235070   0.426   4.201   1.825  0.4225 -0.1914 -0.0381
 4504TIP3    H135071   0.456   4.175   1.912  0.3350 -1.5637 -0.3875
 4504TIP3    H235072   0.333   4.178   1.824 -0.1045  1.7390  0.1881
 4505TIP3   OH235073   6.007   1.580   3.503  0.5909 -0.2121  0.0383
 4505TIP3    H135074   5.963   1.509   3.549 -0.1887  0.6699  0.6935
 4505TIP3    H235075   6.073   1.612   3.564  0.2113  0.3199  0.1856
 4506TIP3   OH235076   2.963   6.343   0.685  0.5567 -0.2207 -0.2234
 4506TIP3    H135077   3.003   6.408   0.626  1.4589 -1.0504 -0.5579
 4506TIP3    H235078   2.876   6.378   0.704  1.3555  1.5483  0.3524
 4507TIP3   OH235079   1.658   5.301   1.484  0.0337  0.1043  0.4179
 4507TIP3    H135080   1.665   5.308   1.389 -0.4848  1.9085  0.4889
 4507TIP3    H235081   1.571   5.333   1.505 -0.0111 -0.6416  1.4904
 4508TIP3   OH235082   2.031   1.931   0.839  0.5584 -0.0182 -1.0960
 4508TIP3    H135083   1.942   1.966   0.835  0.8259  0.7115 -0.8755
 4508TIP3    H235084   2.035   1.868   0.767 -1.0305 -2.2552  0.6219
 4509TIP3   OH235085   4.882   4.261   0.518  0.1163  0.3716 -0.1895
 4509TIP3    H135086   4.791   4.289   0.516 -0.4785 -1.3853  0.0732
 4509TIP3    H235087   4.890   4.212   0.600  1.4685  0.9852  0.0739
 4510TIP3   OH235088   0.318   0.898   3.469  0.6620 -0.3778 -0.0251
 4510TIP3    H135089   0.225   0.888   3.491  0.6491 -2.2927 -0.7430
 4510TIP3    H235090   0.326   0.989   3.439 -0.3659  0.6908  2.6953
 4511TIP3   OH235091   0.791   0.495   1.106  0.4972  0.2528  0.0903
 4511TIP3    H135092   0.859   0.524   1.167 -0.0261 -1.2509  1.4597
 4511TIP3    H235093   0.709   0.526   1.145  0.1108 -1.2181  0.4795
 4512TIP3   OH235094   3.413   0.565   0.818 -0.2315  0.0547 -0.1933
 4512TIP3    H135095   3.503   0.543   0.795  0.2095  2.0845 -0.6534
 4512TIP3    H235096   3.362   0.489   0.791  1.2491 -0.8335 -0.6145
 4513TIP3   OH235097   2.429   0.021   7.999  0.0958 -0.6856  0.3126
 4513TIP3    H135098   2.366   0.019   7.927  0.3102  1.5067 -0.0038
 4513TIP3    H235099   2.380  -0.013   8.074 -1.0429 -0.3440 -0.2463
 4514TIP3   OH235100   3.653   6.249   0.715 -0.7042  0.1509  0.3077
 4514TIP3    H135101   3.559   6.247   0.695 -0.4280 -2.5409 -1.1381
 4514TIP3    H235102   3.690   6.177   0.664  2.2478  1.4002  0.5005
 4515TIP3   OH235103   3.670   5.882   0.355  0.0916  0.4372 -0.1790
 4515TIP3    H135104   3.669   5.876   0.450 -0.4468  2.7305  0.0224
 4515TIP3    H235105   3.727   5.956   0.336  2.2971 -1.5270 -1.8421
 4516TIP3   OH235106   2.052   1.155   1.452  0.8106 -0.5549 -0.1189
 4516TIP3    H135107   2.078   1.247   1.445 -0.2137 -0.3725 -2.6062
 4516TIP3    H235108   2.008   1.149   1.537 -1.0186  1.8427 -0.7661
 4517TIP3   OH235109   5.500   4.968   0.663  0.4020  0.3299 -0.1067
 4517TIP3    H135110   5.467   5.057   0.654 -1.4453 -0.4680 -2.2746
 4517TIP3    H235111   5.539   4.948   0.578 -1.5899 -1.7447 -0.6252
 4518TIP3   OH235112   3.679   4.165   1.267 -0.3069 -0.1083 -0.3837
 4518TIP3    H135113   3.706   4.230   1.331  1.6735 -0.4247 -0.8534
 4518TIP3    H235114   3.588   4.189   1.246  0.0877  1.9663  0.0724
 4519TIP3   OH235115   0.234   1.335   3.075 -0.4251 -0.1651  0.4526
 4519TIP3    H135116   0.271   1.325   2.987 -2.1956 -1.3462 -0.2345
 4519TIP3    H235117   0.309   1.357   3.130  0.4368  2.8264 -1.6624
 4520TIP3   OH235118   2.529   4.002   2.417  0.1338  0.2058  0.5551
 4520TIP3    H135119   2.461   3.960   2.364  0.0267 -0.4512  1.1917
 4520TIP3    H235120   2.489   4.014   2.503  1.0546 -0.9556  1.1849
 4521TIP3   OH235121   5.204   6.904   1.950 -0.4017 -0.1044 -0.2819
 4521TIP3    H135122   5.132   6.883   2.010 -0.7204  1.7745  0.0612
 4521TIP3    H235123   5.165   6.964   1.886  0.9196  1.1838  0.0764
 4522TIP3   OH235124   6.150   2.397   7.957  0.2188  0.1814 -0.1319
 4522TIP3    H135125   6.103   2.376   8.038 -0.5005  0.1472 -0.5525
 4522TIP3    H235126   6.183   2.486   7.972  1.2761 -0.3239  0.7275
 4523TIP3   OH235127   3.502   6.914   0.590  0.5347  0.0416 -0.1853
 4523TIP3    H135128   3.453   6.906   0.508 -0.3013 -1.2677  0.4190
 4523TIP3    H235129   3.443   6.961   0.649 -0.2496 -1.9215  0.6834
 4524TIP3   OH235130   0.596   0.207   0.613  0.2711 -0.0945 -0.1647
 4524TIP3    H135131   0.678   0.167   0.642 -0.1099 -1.5125 -0.9242
 4524TIP3    H235132   0.616   0.300   0.601  1.5688 -0.3008  0.3357
 4525TIP3   OH235133   3.220   1.459   2.505 -0.1628  0.7834  0.0674
 4525TIP3    H135134   3.193   1.427   2.591 -1.2787  0.0531 -0.5310
 4525TIP3    H235135   3.313   1.479   2.515 -0.3721  1.1116  1.5519
 4526TIP3   OH235136   5.890   4.460   3.325  0.9642 -0.1751 -0.3131
 4526TIP3    H135137   5.974   4.482   3.287  2.1304 -0.1582  2.0848
 4526TIP3    H235138   5.904   4.464   3.420 -2.0974  1.2628  0.2186
 4527TIP3   OH235139   5.821   2.904   1.493  0.4601  0.9408  0.0315
 4527TIP3    H135140   5.895   2.885   1.436 -1.5618 -0.7133 -2.2398
 4527TIP3    H235141   5.795   2.819   1.528 -1.0830  1.2745 -0.2175
 4528TIP3   OH235142   1.716   5.797   0.090 -0.1064 -0.0420  0.2673
 4528TIP3    H135143   1.709   5.882   0.135  0.0110  0.9897 -1.5757
 4528TIP3    H235144   1.634   5.790   0.041  0.6469 -0.1375 -1.0037
 4529TIP3   OH235145   0.381   5.696   2.582 -0.1152 -0.0180  0.1428
 4529TIP3    H135146   0.339   5.778   2.553  0.4274  0.6273  1.1309
 4529TIP3    H235147   0.436   5.670   2.508 -3.4319 -1.8204 -1.9109
 4530TIP3   OH235148   6.129   6.556   0.548 -0.4049 -0.2450  0.3471
 4530TIP3    H135149   6.109   6.537   0.640  0.7402 -0.9178  0.4821
 4530TIP3    H235150   6.135   6.470   0.506  1.4722 -0.0931  0.2033
 4531TIP3   OH235151   6.115   3.677   3.431 -0.2626  0.9941 -0.1234
 4531TIP3    H135152   6.082   3.675   3.521 -1.5890  1.9139 -0.5546
 4531TIP3    H235153   6.208   3.658   3.439 -0.8199 -1.7100  1.1750
 4532TIP3   OH235154   2.693   3.838   2.884 -0.7362  0.0097  0.2474
 4532TIP3    H135155   2.623   3.864   2.824 -0.8937  0.0404  0.4427
 4532TIP3    H235156   2.673   3.747   2.905 -1.4330  0.3846  1.2841
 4533TIP3   OH235157   6.057   1.231   7.676  0.4075 -0.7791  0.4170
 4533TIP3    H135158   6.147   1.209   7.651 -0.5558 -3.0791 -1.3159
 4533TIP3    H235159   6.019   1.270   7.597 -0.5190 -1.0905  0.6979
 4534TIP3   OH235160   0.425   2.094   2.727  0.3479  0.0087  0.8356
 4534TIP3    H135161   0.408   2.158   2.658  1.0785  0.4074  1.0196
 4534TIP3    H235162   0.515   2.112   2.756  0.4701 -0.9205  1.0739
 4535TIP3   OH235163   4.727   2.037   1.739  0.0220  0.3106 -0.1889
 4535TIP3    H135164   4.764   2.051   1.827 -0.6264 -1.5925  0.4319
 4535TIP3    H235165   4.633   2.051   1.750 -0.2514 -1.3383 -0.2160
 4536TIP3   OH235166   1.906   5.237   1.527 -0.4141 -0.6096  0.4740
 4536TIP3    H135167   1.925   5.211   1.617 -1.0802 -1.0293  0.4987
 4536TIP3    H235168   1.817   5.270   1.530 -0.1838  0.0772  0.1010
 4537TIP3   OH235169   3.275   0.080   2.243  0.0710 -0.5887  0.2166
 4537TIP3    H135170   3.246   0.009   2.185 -2.8178  0.5527  0.1331
 4537TIP3    H235171   3.274   0.041   2.331 -0.7562 -0.8746  0.0873
 4538TIP3   OH235172   5.924   0.473   3.314 -0.1945 -0.2969  0.2505
 4538TIP3    H135173   5.911   0.523   3.394  0.2200 -0.3460  0.3531
 4538TIP3    H235174   5.848   0.415   3.309 -1.6464  1.5769 -0.8231
 4539TIP3   OH235175   1.303   1.805   0.916 -0.5621 -0.1212 -0.6676
 4539TIP3    H135176   1.303   1.803   1.012  0.1698 -0.0319 -0.6591
 4539TIP3    H235177   1.214   1.780   0.891  0.1011 -3.7658 -0.0211
 4540TIP3   OH235178   0.086   5.739   1.688  0.3430 -0.1249 -0.1750
 4540TIP3    H135179   0.126   5.792   1.619  0.1376  0.8217  0.4064
 4540TIP3    H235180   0.078   5.652   1.650  3.3531 -0.5085 -0.1971
 4541TIP3   OH235181   2.818   5.887   0.837 -0.2017 -0.4530  0.5584
 4541TIP3    H135182   2.873   5.937   0.898 -1.1414 -0.3008  1.2955
 4541TIP3    H235183   2.853   5.910   0.750  1.7348 -1.3604  1.0252
 4542TIP3   OH235184   0.472   2.909   2.357 -0.2103  0.9201  0.0507
 4542TIP3    H135185   0.445   2.857   2.281 -0.8131  1.6366 -0.2371
 4542TIP3    H235186   0.480   2.998   2.323 -4.7057  2.2127  1.5865
 4543TIP3   OH235187   3.681   0.544   0.244  0.0348  0.1952  0.2269
 4543TIP3    H135188   3.600   0.494   0.235 -0.0459  0.3870 -0.1583
 4543TIP3    H235189   3.731   0.523   0.164  0.6019 -0.3460  0.7149
 4544TIP3   OH235190   1.213   5.235   0.467  0.8030  0.3316 -1.1732
 4544TIP3    H135191   1.307   5.245   0.482  0.3913  1.2146  1.1674
 4544TIP3    H235192   1.191   5.151   0.508  0.4680  0.4046 -1.2053
 4545TIP3   OH235193   1.350   1.424   0.483 -0.1780 -0.0320 -0.1531
 4545TIP3    H135194   1.307   1.507   0.465 -0.3472 -0.0520  0.1487
 4545TIP3    H235195   1.347   1.377   0.400  1.0282  0.7532 -0.6677
 4546TIP3   OH235196   5.307   3.985   0.756  0.0389 -0.3328  0.5097
 4546TIP3    H135197   5.382   3.952   0.806  0.7596  0.3976 -0.0521
 4546TIP3    H235198   5.312   4.080   0.766  0.7755 -0.0809 -1.6754
 4547TIP3   OH235199   0.951   2.409   2.961 -0.4097  0.0306 -0.2463
 4547TIP3    H135200   0.989   2.340   3.014 -1.6885  0.9964  2.0815
 4547TIP3    H235201   0.864   2.424   2.999 -1.3191  0.9848 -2.4829
 4548TIP3   OH235202   2.174   6.812   1.685  0.0998  0.2281  0.1454
 4548TIP3    H135203   2.093   6.827   1.636 -0.0444  2.1748  0.8583
 4548TIP3    H235204   2.146   6.811   1.777  0.7489 -0.1928  0.3449
 4549TIP3   OH235205   6.843   2.066   2.462  0.3302 -0.0489 -0.0078
 4549TIP3    H135206   6.907   2.058   2.532  0.3270 -1.9144 -0.1614
 4549TIP3    H235207   6.803   1.979   2.456 -0.5559  0.4214 -1.4752
 4550TIP3   OH235208   3.020   2.139   1.538  0.1018  0.0695 -0.0806
 4550TIP3    H135209   2.994   2.113   1.627  0.0106 -0.8226 -0.3565
 4550TIP3    H235210   3.091   2.202   1.552  2.1338 -2.1784  0.6704
 4551TIP3   OH235211   2.575   6.435   0.914  0.4346 -0.1686 -0.1285
 4551TIP3    H135212   2.636   6.387   0.970 -0.4576 -0.7919  0.3324
 4551TIP3    H235213   2.491   6.429   0.959 -0.0933  0.1784 -1.0379
 4552TIP3   OH235214   5.794   1.662   2.056  0.0216 -0.2268 -0.0801
 4552TIP3    H135215   5.881   1.647   2.093 -0.2183  0.1269  0.6615
 4552TIP3    H235216   5.780   1.590   1.995  0.2936 -1.0341  0.7982
 4553TIP3   OH235217   2.688   3.895   8.407  0.1131  0.0524 -0.0723
 4553TIP3    H135218   2.615   3.844   8.372 -1.1764  1.9228 -0.3189
 4553TIP3    H235219   2.705   3.857   8.493  0.1110 -1.5924 -0.7717
 4554TIP3   OH235220   4.190   4.468   3.085 -0.3727  0.0852  0.2246
 4554TIP3    H135221   4.097   4.477   3.069 -1.5539 -3.9551  3.0443
 4554TIP3    H235222   4.206   4.521   3.163 -1.1124 -1.4179  1.4565
 4555TIP3   OH235223   2.880   4.194   1.067  0.2731 -0.3615 -0.3165
 4555TIP3    H135224   2.841   4.143   1.137  0.9228 -0.7454 -0.2229
 4555TIP3    H235225   2.832   4.167   0.988 -0.6315  0.2637  0.0018
 4556TIP3   OH235226   4.336   0.692   0.514 -0.4612  0.0863  0.5869
 4556TIP3    H135227   4.411   0.752   0.519 -1.1338  0.8882  1.2348
 4556TIP3    H235228   4.375   0.608   0.492  0.5002  0.7729 -0.4740
 4557TIP3   OH235229   2.896   5.519   1.844 -0.2764  0.0897 -0.3455
 4557TIP3    H135230   2.962   5.471   1.794 -0.3866  0.2866 -0.6854
 4557TIP3    H235231   2.823   5.458   1.853 -0.4818  0.2471 -0.9184
 4558TIP3   OH235232   5.691   1.428   2.267 -0.4397  0.0488 -0.3979
 4558TIP3    H135233   5.739   1.483   2.205  1.1292 -0.0590  0.6492
 4558TIP3    H235234   5.623   1.386   2.215  1.2066 -0.5274 -2.1839
 4559TIP3   OH235235   2.807   5.749   7.594 -0.1581 -0.1260 -0.0249
 4559TIP3    H135236   2.762   5.815   7.541 -0.5778 -0.3500  0.0471
 4559TIP3    H235237   2.880   5.797   7.635  1.3733 -0.3696 -2.2907
 4560TIP3   OH235238   2.477   3.587   7.954 -0.3383 -0.1945 -0.0001
 4560TIP3    H135239   2.530   3.540   8.017 -2.2376 -1.5418  0.6877
 4560TIP3    H235240   2.493   3.679   7.973  2.2769 -0.5073 -0.3461
 4561TIP3   OH235241   1.366   0.006   1.328 -0.2181  0.7362 -0.1251
 4561TIP3    H135242   1.322   0.082   1.290  1.7360  2.3364  0.6012
 4561TIP3    H235243   1.395  -0.045   1.252 -3.7930 -0.7965 -0.6268
 4562TIP3   OH235244   2.575   3.554   2.941  0.4543 -0.4088  0.5211
 4562TIP3    H135245   2.498   3.596   2.903  1.0871  0.7743  0.4942
 4562TIP3    H235246   2.539   3.490   3.002 -0.5853  1.0286  1.5139
 4563TIP3   OH235247   1.566   2.304   0.871 -1.4078  0.2087 -0.5540
 4563TIP3    H135248   1.473   2.283   0.863 -1.2032 -0.4147 -1.3984
 4563TIP3    H235249   1.570   2.399   0.861 -1.9147  0.1912 -0.9397
 4564TIP3   OH235250   4.407   6.431   8.018  0.1511  0.3066 -0.2213
 4564TIP3    H135251   4.395   6.336   8.020  1.9031  0.0700  0.8428
 4564TIP3    H235252   4.402   6.454   7.925  0.5082 -0.9406 -0.5612
 4565TIP3   OH235253   5.431   3.621   0.696 -0.8439 -0.2897  0.0188
 4565TIP3    H135254   5.350   3.655   0.659  0.0821  0.5506 -1.3176
 4565TIP3    H235255   5.424   3.526   0.686 -1.9154 -0.2727  0.4998
 4566TIP3   OH235256   2.305   3.192   1.195  0.3640 -0.3568 -0.6944
 4566TIP3    H135257   2.225   3.232   1.162  0.9888  1.1306 -0.4816
 4566TIP3    H235258   2.343   3.147   1.119  1.3500  2.2989 -1.9188
 4567TIP3   OH235259   5.191   1.538   3.100 -0.6317 -0.6594  0.9476
 4567TIP3    H135260   5.146   1.456   3.120  1.3485 -1.4887  2.3482
 4567TIP3    H235261   5.207   1.578   3.185 -1.2805  1.0690  0.2927
 4568TIP3   OH235262   0.519   2.009   1.118  0.0188 -0.5519  0.4698
 4568TIP3    H135263   0.448   1.987   1.178 -0.0161 -0.0245  0.6325
 4568TIP3    H235264   0.582   1.938   1.126  0.6484  0.1561  2.1303
 4569TIP3   OH235265   0.690   2.468   1.996  0.0912  0.1211 -0.0841
 4569TIP3    H135266   0.716   2.523   1.922  0.2240  0.0265 -0.1090
 4569TIP3    H235267   0.691   2.527   2.071 -2.1612  0.7479 -0.4883
 4570TIP3   OH235268   0.232   2.286   2.266 -0.2612  0.0204 -0.3753
 4570TIP3    H135269   0.326   2.298   2.254 -0.5376  1.6906 -1.1588
 4570TIP3    H235270   0.217   2.303   2.359  0.0294  1.1418 -0.5245
 4571TIP3   OH235271   6.057   1.032   8.465 -0.0420 -0.2684  0.2677
 4571TIP3    H135272   5.965   1.020   8.492  0.5999  0.0466  2.9100
 4571TIP3    H235273   6.062   1.123   8.438 -0.5206 -0.2930  0.0847
 4572TIP3   OH235274   0.795   4.610   3.358  0.2202  0.4349  0.3156
 4572TIP3    H135275   0.784   4.634   3.450  0.6322  0.6396  0.3131
 4572TIP3    H235276   0.869   4.663   3.328  0.0488  0.4139 -0.1507
 4573TIP3   OH235277   5.249   2.248   8.314  0.2889  0.2272 -0.1051
 4573TIP3    H135278   5.247   2.273   8.407 -0.0598  1.6803 -0.4812
 4573TIP3    H235279   5.325   2.293   8.279  0.4331 -0.3417 -0.5304
 4574TIP3   OH235280   0.742   4.771   8.020 -0.3877  0.1745 -0.5687
 4574TIP3    H135281   0.648   4.785   8.009 -0.2241  0.7674 -1.2847
 4574TIP3    H235282   0.748   4.685   8.061 -1.1732 -0.9967 -2.7499
 4575TIP3   OH235283   0.919   2.325   1.682 -0.2720 -0.4447  0.2914
 4575TIP3    H135284   0.979   2.254   1.706 -0.5350 -0.7466  0.0602
 4575TIP3    H235285   0.929   2.333   1.587 -0.0993 -0.0373  0.3407
 4576TIP3   OH235286   2.929   2.617   8.054  0.2650  0.0762  0.2868
 4576TIP3    H135287   2.887   2.659   7.978  0.2641 -0.3271  0.0566
 4576TIP3    H235288   2.859   2.565   8.093  0.6223 -0.8632 -0.2936
 4577TIP3   OH235289   0.082   3.011   0.489 -0.3905 -0.1187  0.5595
 4577TIP3    H135290   0.041   3.091   0.454 -1.1135 -0.3083  0.9592
 4577TIP3    H235291   0.024   2.983   0.560  0.2207 -0.6265  0.8708
 4578TIP3   OH235292   6.184   6.919   0.268  0.2005  0.8881 -0.3495
 4578TIP3    H135293   6.190   7.006   0.228 -0.4190  0.6960 -0.8734
 4578TIP3    H235294   6.272   6.882   0.259  0.3150  1.2326 -0.6501
 4579TIP3   OH235295   1.983   2.667   0.673 -0.2390 -0.1374  0.2304
 4579TIP3    H135296   2.042   2.634   0.741  1.7577  1.8349 -0.4281
 4579TIP3    H235297   1.950   2.589   0.630  1.4664 -1.3404  0.9903
 4580TIP3   OH235298   4.509   2.563   0.116 -0.1608  0.0897  0.0945
 4580TIP3    H135299   4.490   2.538   0.206 -3.0574  4.0165  0.8575
 4580TIP3    H235300   4.428   2.604   0.085  1.3700  0.7592 -3.6348
 4581TIP3   OH235301   2.587   0.148   2.737 -0.2403 -0.2134 -0.8217
 4581TIP3    H135302   2.516   0.135   2.673 -0.8664 -1.8920  0.1756
 4581TIP3    H235303   2.605   0.061   2.772  3.6581 -0.2376 -2.3423
 4582TIP3   OH235304   4.992   2.065   0.479  0.0471 -0.1254 -0.1872
 4582TIP3    H135305   5.038   2.148   0.466 -0.3567 -0.1657 -2.1655
 4582TIP3    H235306   4.952   2.073   0.566  2.2437  0.6227  0.8182
 4583TIP3   OH235307   1.939   6.501   0.718  0.2087  0.0667 -0.1452
 4583TIP3    H135308   2.002   6.545   0.661 -1.0603  2.4388  0.1386
 4583TIP3    H235309   1.889   6.572   0.758 -1.1825 -1.6352  1.3482
 4584TIP3   OH235310   5.836   1.331   8.431 -0.0958  0.2217  0.2346
 4584TIP3    H135311   5.909   1.313   8.373  0.7320 -0.4502  1.4451
 4584TIP3    H235312   5.766   1.362   8.373  1.8477  3.2242 -0.7528
 4585TIP3   OH235313   0.693   2.413   2.551  0.4495 -0.1955  0.3605
 4585TIP3    H135314   0.736   2.497   2.537  0.7340 -0.6545 -1.7540
 4585TIP3    H235315   0.753   2.365   2.608  0.7600  0.6353  0.7564
 4586TIP3   OH235316   1.517   5.070   0.729 -0.3553 -0.1739  0.0533
 4586TIP3    H135317   1.608   5.087   0.754 -0.8954  3.2411  0.3092
 4586TIP3    H235318   1.516   4.981   0.695  2.7236 -0.9195  1.5990
 4587TIP3   OH235319   0.889   6.555   8.012  0.3549 -0.7971 -0.1297
 4587TIP3    H135320   0.851   6.588   7.930  0.1631 -1.2651 -0.2345
 4587TIP3    H235321   0.815   6.554   8.074  1.0864  2.3652  0.9509
 4588TIP3   OH235322   4.260   1.176   1.217 -0.1529  0.4054 -0.3113
 4588TIP3    H135323   4.298   1.138   1.296  0.3725 -0.8397 -1.1227
 4588TIP3    H235324   4.242   1.267   1.240 -1.5820 -0.3209  1.7782
 4589TIP3   OH235325   0.864   5.602   0.406  0.2887  0.3842  0.7239
 4589TIP3    H135326   0.920   5.528   0.432  0.9244  0.3614 -0.6318
 4589TIP3    H235327   0.820   5.571   0.326  1.9659  2.0807 -0.9575
 4590TIP3   OH235328   3.704   0.944   0.416 -0.5534  0.5635  0.4192
 4590TIP3    H135329   3.682   1.033   0.387  1.2843  0.6747 -0.7647
 4590TIP3    H235330   3.797   0.949   0.440 -0.6984 -0.7962  1.3690
 4591TIP3   OH235331   5.893   0.330   8.253  0.2559  0.6103 -0.1433
 4591TIP3    H135332   5.836   0.264   8.214  0.8746 -0.7846  1.2364
 4591TIP3    H235333   5.963   0.342   8.189  1.5973 -2.1049  0.6585
 4592TIP3   OH235334   1.325   5.519   0.762 -0.7519 -0.5269  0.7020
 4592TIP3    H135335   1.250   5.541   0.706  0.5918 -0.8495 -1.3346
 4592TIP3    H235336   1.327   5.423   0.762 -0.1978 -0.5198  0.4965
 4593TIP3   OH235337   1.437   3.514   0.617  0.4748 -0.1110 -0.0612
 4593TIP3    H135338   1.405   3.521   0.527  0.7057 -1.3406 -0.2539
 4593TIP3    H235339   1.488   3.594   0.631  1.9375 -0.7082 -1.6368
 4594TIP3   OH235340   6.126   6.930   3.937  0.7078  0.1658 -0.0784
 4594TIP3    H135341   6.185   6.862   3.904  0.0023 -0.2409 -0.5310
 4594TIP3    H235342   6.044   6.884   3.954  0.1255  0.9555 -0.6810
 4595TIP3   OH235343   0.345   6.787   2.412  0.6199 -0.3430 -0.1092
 4595TIP3    H135344   0.433   6.749   2.415  0.6563 -0.2133  0.5564
 4595TIP3    H235345   0.320   6.781   2.320  1.1375 -0.8109 -0.2282
 4596TIP3   OH235346   2.214   3.447   2.328 -0.0091  0.4284 -0.0385
 4596TIP3    H135347   2.300   3.463   2.288 -0.1585  1.1558 -0.0809
 4596TIP3    H235348   2.151   3.469   2.260 -0.2688  1.8453  0.6242
 4597TIP3   OH235349   5.125   3.314   2.832  0.4295  0.6928  0.0937
 4597TIP3    H135350   5.193   3.379   2.851  0.9379  0.8505 -2.0650
 4597TIP3    H235351   5.102   3.329   2.741 -2.1074  0.2400  0.5859
 4598TIP3   OH235352   2.097   5.490   1.863 -0.7174  0.2958  0.3494
 4598TIP3    H135353   2.078   5.581   1.837 -0.5267 -0.3217 -2.2106
 4598TIP3    H235354   2.184   5.473   1.828 -1.4322 -1.3813 -0.6939
 4599TIP3   OH235355   0.219   2.245   0.106  0.2785 -0.4331  0.2894
 4599TIP3    H135356   0.147   2.182   0.114 -1.5683  1.3015 -1.3811
 4599TIP3    H235357   0.199   2.293   0.025  2.6087  1.0351  0.5134
 4600TIP3   OH235358   3.380   4.144   1.697  0.1143 -0.6963 -1.2842
 4600TIP3    H135359   3.322   4.077   1.661  1.2927 -1.1468 -2.3937
 4600TIP3    H235360   3.467   4.104   1.696  0.3172 -0.5609  1.6670
 4601TIP3   OH235361   5.702   3.504   1.153  0.5146  0.3573 -1.1028
 4601TIP3    H135362   5.619   3.464   1.178  0.0861  1.3484 -0.8943
 4601TIP3    H235363   5.709   3.582   1.208  1.5276  0.3519 -1.2052
 4602TIP3   OH235364   1.108   6.065   0.177  0.2607  0.2275  0.7219
 4602TIP3    H135365   1.169   6.060   0.103 -0.9627 -1.8756 -0.2376
 4602TIP3    H235366   1.092   6.158   0.189  0.4269  0.6287 -1.7344
 4603TIP3   OH235367   5.183   3.593   2.841  0.4437 -0.5015 -0.0433
 4603TIP3    H135368   5.256   3.625   2.788 -0.2305  1.6024  0.2084
 4603TIP3    H235369   5.130   3.541   2.780  1.3388 -0.7817 -0.6007
 4604TIP3   OH235370   1.447   2.556   2.384 -0.0207 -0.3095  0.0475
 4604TIP3    H135371   1.489   2.632   2.424  0.4429  0.5375 -1.8919
 4604TIP3    H235372   1.425   2.499   2.457  1.1375  0.9286  1.4344
 4605TIP3   OH235373   4.743   5.554   2.259 -0.4716 -0.4711 -0.0741
 4605TIP3    H135374   4.704   5.531   2.175 -2.1464  0.1297  0.4750
 4605TIP3    H235375   4.712   5.643   2.276  1.1041  0.0013  0.4814
 4606TIP3   OH235376   6.401   3.135   2.135 -0.2401  0.3433  0.1420
 4606TIP3    H135377   6.406   3.201   2.204  1.3832  1.2231 -0.7362
 4606TIP3    H235378   6.493   3.114   2.116 -0.6656 -0.3486 -1.2976
 4607TIP3   OH235379   0.375   3.768   2.174  0.2977  0.0598 -0.5653
 4607TIP3    H135380   0.320   3.697   2.142  1.8904 -0.7417 -1.6536
 4607TIP3    H235381   0.314   3.839   2.193 -1.5673 -1.9809  1.9303
 4608TIP3   OH235382   6.450   0.510   0.360  0.1342 -0.0882 -1.0080
 4608TIP3    H135383   6.448   0.459   0.441  3.7127  2.0241  0.7103
 4608TIP3    H235384   6.379   0.572   0.369  0.1055 -0.2755  0.2791
 4609TIP3   OH235385   3.349   2.419   1.463  0.2997 -0.7780  0.1451
 4609TIP3    H135386   3.315   2.359   1.529  0.3888 -1.4369 -0.4104
 4609TIP3    H235387   3.405   2.365   1.407  1.1203 -0.0034  0.1918
 4610TIP3   OH235388   5.558   1.518   2.851  0.1791  0.8776 -0.0233
 4610TIP3    H135389   5.600   1.513   2.765  1.5410  1.9773  0.5444
 4610TIP3    H235390   5.616   1.468   2.908 -1.0419 -0.3866  0.1857
 4611TIP3   OH235391   0.232   0.364   8.468 -0.1075  0.1465  0.0393
 4611TIP3    H135392   0.200   0.303   8.535  1.8117 -1.1530 -0.1306
 4611TIP3    H235393   0.279   0.431   8.518 -1.3929  0.9700  0.1662
 4612TIP3   OH235394   5.838   6.779   1.632  0.9013  0.1331 -0.0693
 4612TIP3    H135395   5.801   6.691   1.637 -0.3093  0.6503  0.3785
 4612TIP3    H235396   5.767   6.833   1.597  1.8783  0.8055 -1.0886
 4613TIP3   OH235397   6.375   0.099   3.264  0.4770  0.0247 -0.4969
 4613TIP3    H135398   6.403   0.048   3.340 -0.3553 -1.9588 -1.4408
 4613TIP3    H235399   6.382   0.037   3.191 -1.3109  1.0542 -1.5833
 4614TIP3   OH235400   1.831   5.855   3.427 -0.4756 -0.2515  0.2203
 4614TIP3    H135401   1.743   5.848   3.465 -0.2833  1.3120  1.0414
 4614TIP3    H235402   1.872   5.927   3.475  1.0594 -0.5748 -0.5506
 4615TIP3   OH235403   5.577   4.416   2.961  0.3121  0.0559  0.5441
 4615TIP3    H135404   5.599   4.456   2.877  0.8593 -0.2702  0.5337
 4615TIP3    H235405   5.661   4.399   3.003  0.0574 -0.3042  0.9137
 4616TIP3   OH235406   4.264   5.423   0.428  0.2077 -0.1724 -0.1831
 4616TIP3    H135407   4.180   5.377   0.428  0.9134 -1.5476 -1.4749
 4616TIP3    H235408   4.322   5.367   0.480  0.8905 -0.4316 -1.1813
 4617TIP3   OH235409   0.281   3.351   2.252 -0.0225  0.3225  0.5207
 4617TIP3    H135410   0.234   3.345   2.169 -1.2140  1.4108  1.0778
 4617TIP3    H235411   0.219   3.318   2.317  0.3414  0.8286  1.1431
 4618TIP3   OH235412   3.373   3.678   2.406  0.1372 -0.3045 -0.0341
 4618TIP3    H135413   3.414   3.749   2.456  1.5350 -2.0366  1.3873
 4618TIP3    H235414   3.423   3.674   2.324 -1.1226  1.4789 -0.9584
 4619TIP3   OH235415   2.967   1.037   1.319  0.1297 -0.1488  0.2144
 4619TIP3    H135416   3.042   0.983   1.294  0.4134  0.1035  0.5155
 4619TIP3    H235417   2.976   1.117   1.266  1.4318  0.9361  1.9950
 4620TIP3   OH235418   3.103   0.516   1.505  0.0060  0.1389 -0.0872
 4620TIP3    H135419   3.130   0.608   1.512  0.4758 -0.0491  0.7158
 4620TIP3    H235420   3.180   0.467   1.534 -1.0241 -0.4358  1.7804
 4621TIP3   OH235421   0.377   6.755   1.275  0.3929  0.1231 -0.1968
 4621TIP3    H135422   0.463   6.737   1.313  1.1420  1.4152 -1.2094
 4621TIP3    H235423   0.389   6.835   1.224 -1.0616 -0.4398 -1.5092
 4622TIP3   OH235424   1.832   1.706   3.261  0.2606 -0.1609 -0.4170
 4622TIP3    H135425   1.759   1.692   3.201  1.0345  0.3073 -1.5030
 4622TIP3    H235426   1.851   1.619   3.297  0.3072 -0.5910 -1.4654
 4623TIP3   OH235427   5.505   6.884   3.068  0.1355  0.0316 -1.0382
 4623TIP3    H135428   5.590   6.920   3.093 -0.1058 -0.3086  0.3433
 4623TIP3    H235429   5.509   6.792   3.094 -1.2904  0.4178  0.7977
 4624TIP3   OH235430   2.461   0.114   1.085  0.6982  0.3236 -0.1225
 4624TIP3    H135431   2.488   0.039   1.032  0.2941  2.1169 -3.0823
 4624TIP3    H235432   2.378   0.086   1.125  1.8913 -1.7000  1.1339
 4625TIP3   OH235433   0.720   4.961   0.994 -0.3317  0.3284 -0.2958
 4625TIP3    H135434   0.668   5.012   0.933 -1.5589 -0.7561 -0.1891
 4625TIP3    H235435   0.698   4.996   1.080 -1.8472 -0.9046 -0.1456
 4626TIP3   OH235436   5.286   6.400   2.582  0.4086 -0.6198 -0.1402
 4626TIP3    H135437   5.275   6.305   2.593  1.4188 -0.7349 -0.0530
 4626TIP3    H235438   5.200   6.436   2.602  0.2283 -1.4582  0.6554
 4627TIP3   OH235439   6.210   5.878   0.792  0.2526 -0.1529  0.5826
 4627TIP3    H135440   6.120   5.863   0.820 -0.0001  0.2704  0.0171
 4627TIP3    H235441   6.258   5.897   0.872 -0.1376 -0.4871  0.8996
 4628TIP3   OH235442   2.505   4.079   0.375  0.0412  0.0651  0.5107
 4628TIP3    H135443   2.491   4.142   0.446  2.2940  0.6334  0.5393
 4628TIP3    H235444   2.418   4.064   0.338 -0.8370  1.6199  1.8312
 4629TIP3   OH235445   3.424   5.208   8.480 -0.5549  0.0776  0.1886
 4629TIP3    H135446   3.342   5.197   8.527 -1.4696 -1.8924 -1.6581
 4629TIP3    H235447   3.488   5.158   8.531 -0.5686  1.2420  1.3890
 4630TIP3   OH235448   2.769   5.910   2.259 -0.6901  0.3011 -0.2364
 4630TIP3    H135449   2.715   5.852   2.312  0.6161  0.4950  1.3918
 4630TIP3    H235450   2.857   5.874   2.266 -0.1813  1.3595 -0.8414
 4631TIP3   OH235451   3.866   4.791   0.392 -0.0054  0.8611  0.3082
 4631TIP3    H135452   3.961   4.790   0.385 -0.0811  1.7647 -1.1770
 4631TIP3    H235453   3.841   4.882   0.375 -1.1031  0.8100  1.4423
 4632TIP3   OH235454   1.530   1.816   0.460  0.0753  0.1703 -0.3946
 4632TIP3    H135455   1.470   1.806   0.386  1.4759  0.1374 -1.5723
 4632TIP3    H235456   1.506   1.746   0.521 -0.8549 -0.0406 -0.9922
 4633TIP3   OH235457   0.329   0.617   1.059  0.1348 -0.1014 -0.5970
 4633TIP3    H135458   0.262   0.557   1.092  1.4992 -0.9431  0.8081
 4633TIP3    H235459   0.302   0.638   0.970 -1.2373 -1.5133 -0.5429
 4634TIP3   OH235460   1.331   3.507   2.283  0.9611  0.2766  0.7676
 4634TIP3    H135461   1.272   3.504   2.208 -1.0459 -1.6699  2.2764
 4634TIP3    H235462   1.327   3.597   2.315 -2.5632 -0.0657  1.7154
 4635TIP3   OH235463   5.368   5.497   1.133 -0.0624  0.2322  0.1146
 4635TIP3    H135464   5.323   5.414   1.150 -1.5694  1.4684  2.7126
 4635TIP3    H235465   5.328   5.530   1.053 -2.2858  0.2331  1.1530
 4636TIP3   OH235466   1.171   6.263   0.950  0.3573 -0.3224  1.0243
 4636TIP3    H135467   1.193   6.217   0.869  0.6809  1.4465  0.0481
 4636TIP3    H235468   1.076   6.255   0.957  0.3103 -0.3861  0.3930
 4637TIP3   OH235469   3.773   0.312   1.633 -0.1863 -0.3307 -0.0639
 4637TIP3    H135470   3.745   0.386   1.687 -0.4962 -0.6563  0.2291
 4637TIP3    H235471   3.755   0.235   1.687 -1.4030 -0.7236 -1.0023
 4638TIP3   OH235472   5.735   3.527   2.293  0.2798 -0.0067 -0.2801
 4638TIP3    H135473   5.777   3.538   2.208  1.9699  0.9378  0.6241
 4638TIP3    H235474   5.657   3.474   2.275  1.2434 -0.8485 -2.2100
 4639TIP3   OH235475   0.453   6.775   7.947  0.2195 -0.2015 -0.7645
 4639TIP3    H135476   0.546   6.794   7.960  0.0821  0.2122 -0.3648
 4639TIP3    H235477   0.443   6.684   7.975  0.3030  0.0763  0.1990
 4640TIP3   OH235478   5.189   2.239   2.205 -0.0704  0.5447  0.5547
 4640TIP3    H135479   5.211   2.331   2.195  2.3267 -0.0376 -0.1027
 4640TIP3    H235480   5.093   2.237   2.206 -0.2083  2.8293 -1.2767
 4641TIP3   OH235481   6.542   3.558   2.723 -0.1441 -0.2186  0.3838
 4641TIP3    H135482   6.569   3.481   2.774  0.6865 -0.0959  0.1290
 4641TIP3    H235483   6.617   3.616   2.724  0.7397 -1.1043 -2.7369
 4642TIP3   OH235484   1.193   1.821   1.728  0.0869 -0.3311  0.2660
 4642TIP3    H135485   1.204   1.730   1.699  0.7146 -0.7059  1.5786
 4642TIP3    H235486   1.243   1.825   1.810  0.5370  1.3593 -0.0701
 4643TIP3   OH235487   2.102   2.431   8.216  0.0142  0.0453 -0.2962
 4643TIP3    H135488   2.136   2.478   8.140 -0.0398 -0.6734 -0.7748
 4643TIP3    H235489   2.026   2.384   8.182  0.3421 -0.7570  0.0646
 4644TIP3   OH235490   4.582   2.820   2.407  0.5761 -0.1178 -0.4733
 4644TIP3    H135491   4.626   2.769   2.475  0.4067  0.6663  0.2306
 4644TIP3    H235492   4.522   2.758   2.366  1.1461 -0.7666 -0.3465
 4645TIP3   OH235493   6.931   4.430   8.237 -0.4838 -0.0553  0.1508
 4645TIP3    H135494   6.967   4.516   8.220  1.1988 -0.7856 -0.1576
 4645TIP3    H235495   6.926   4.388   8.151  0.7574 -1.0178  0.5269
 4646TIP3   OH235496   5.050   6.022   2.505  0.2312  0.0596 -0.1545
 4646TIP3    H135497   5.028   6.047   2.416 -2.1919 -1.3369 -0.0424
 4646TIP3    H235498   5.123   5.960   2.496 -1.5660 -2.0223 -1.4784
 4647TIP3   OH235499   5.085   3.149   0.443  0.1393  0.3265  0.1067
 4647TIP3    H135500   4.999   3.182   0.415  0.7754  1.4951 -0.5851
 4647TIP3    H235501   5.109   3.086   0.375  1.2076  2.3750 -1.5205
 4648TIP3   OH235502   2.340   1.567   1.761  0.0190 -0.3699  0.2628
 4648TIP3    H135503   2.282   1.553   1.836 -1.1953  1.2817 -0.3159
 4648TIP3    H235504   2.357   1.661   1.761  0.4738 -0.4290 -1.2081
 4649TIP3   OH235505   5.573   2.996   2.320  0.1058  0.2148 -0.2657
 4649TIP3    H135506   5.584   2.996   2.225  2.6446 -1.0091 -0.0734
 4649TIP3    H235507   5.547   2.906   2.341 -0.3911  0.4668  0.2040
 4650TIP3   OH235508   5.000   0.944   1.074  0.2579  0.3046 -0.3906
 4650TIP3    H135509   4.971   0.896   1.152  1.9764 -0.3722 -0.1185
 4650TIP3    H235510   5.039   0.877   1.018 -0.6015  0.8502 -1.6759
 4651TIP3   OH235511   0.075   2.661   1.626  0.3473 -0.6121 -0.4921
 4651TIP3    H135512   0.034   2.711   1.555 -0.4198 -1.5857 -0.7455
 4651TIP3    H235513   0.063   2.570   1.602  0.1398 -0.9619  0.8527
 4652TIP3   OH235514   6.252   2.615   1.831 -0.2323 -0.2203  0.1085
 4652TIP3    H135515   6.300   2.635   1.912  0.9840  0.2332 -0.7019
 4652TIP3    H235516   6.232   2.701   1.793 -2.6967 -0.3364  0.9541
 4653TIP3   OH235517   2.526   5.667   0.698 -0.0030  0.0613 -0.0008
 4653TIP3    H135518   2.608   5.692   0.657  0.5871 -0.0476  1.0678
 4653TIP3    H235519   2.552   5.605   0.767 -0.7835  1.2345  1.4065
 4654TIP3   OH235520   1.927   3.361   3.052 -0.0568 -0.1993 -0.1321
 4654TIP3    H135521   1.941   3.401   3.138  3.5271 -1.2918 -0.0397
 4654TIP3    H235522   1.868   3.288   3.069  0.7492 -0.5308  1.5278
 4655TIP3   OH235523   0.679   6.765   0.764 -0.2307 -0.3864  0.6805
 4655TIP3    H135524   0.608   6.820   0.799 -0.7784  0.4232 -1.5068
 4655TIP3    H235525   0.635   6.685   0.736 -0.4997  0.3745 -1.2816
 4656TIP3   OH235526   0.992   0.610   1.371  0.1445  0.0327 -0.2356
 4656TIP3    H135527   0.921   0.584   1.430  0.0112  0.1978 -0.3213
 4656TIP3    H235528   1.062   0.638   1.430 -1.0427  3.1151 -0.0807
 4657TIP3   OH235529   6.006   0.679   1.284 -0.2345  0.2952 -0.3044
 4657TIP3    H135530   6.079   0.741   1.294 -0.2945  0.1615  1.3851
 4657TIP3    H235531   6.012   0.623   1.362 -2.7757  0.9703  0.4876
 4658TIP3   OH235532   6.292   6.824   7.711 -0.1727  0.5903 -0.1361
 4658TIP3    H135533   6.372   6.808   7.660 -0.1824  1.9112 -0.6021
 4658TIP3    H235534   6.245   6.891   7.661 -1.2651  0.3022  0.4733
 4659TIP3   OH235535   6.382   3.300   0.231 -0.1715  0.5109 -0.3869
 4659TIP3    H135536   6.462   3.335   0.191 -0.0457 -0.6032 -1.1415
 4659TIP3    H235537   6.335   3.258   0.159 -1.1481  0.6082  0.1691
 4660TIP3   OH235538   3.145   2.466   2.593  0.3268  0.2690 -0.3454
 4660TIP3    H135539   3.135   2.396   2.529 -1.2369 -0.5938  0.7635
 4660TIP3    H235540   3.139   2.422   2.678 -1.9498  1.8329  0.4138
 4661TIP3   OH235541   0.294   4.547   1.528 -0.0555 -0.1464  0.0513
 4661TIP3    H135542   0.317   4.634   1.494 -2.8441  1.0139  0.8349
 4661TIP3    H235543   0.212   4.561   1.576  0.3931 -2.8860  1.8526
 4662TIP3   OH235544   1.840   3.816   7.622  0.3082  0.4197 -0.2750
 4662TIP3    H135545   1.760   3.819   7.674 -0.8959  0.4019 -2.0693
 4662TIP3    H235546   1.862   3.908   7.608  1.6871  0.4654  1.7267
 4663TIP3   OH235547   6.190   0.397   2.749 -0.5142 -0.7079  0.5825
 4663TIP3    H135548   6.126   0.393   2.820 -0.8701  3.1605  0.7005
 4663TIP3    H235549   6.194   0.490   2.726  1.4997 -1.4688 -2.7500
 4664TIP3   OH235550   1.642   4.724   3.448  0.4841  0.0541  0.2504
 4664TIP3    H135551   1.632   4.786   3.521 -3.2136  0.1441 -0.1436
 4664TIP3    H235552   1.698   4.770   3.385 -2.1444  3.2323 -0.0706
 4665TIP3   OH235553   5.434   4.004   2.923 -0.7660 -0.2934  0.0079
 4665TIP3    H135554   5.483   3.933   2.883  0.4604  0.6574 -0.2523
 4665TIP3    H235555   5.501   4.057   2.968 -1.7764  0.1135  1.0845
 4666TIP3   OH235556   0.179   2.978   2.558 -0.4540 -0.2604 -0.7355
 4666TIP3    H135557   0.173   2.911   2.490 -0.2931 -1.7615  0.6598
 4666TIP3    H235558   0.133   2.940   2.633  1.4742  0.2587  0.7974
 4667TIP3   OH235559   0.179   0.181   1.783  0.2491  0.6629  0.2184
 4667TIP3    H135560   0.231   0.203   1.860  1.3588  0.1433 -0.3491
 4667TIP3    H235561   0.089   0.203   1.807  0.7681  1.9311  1.1073
 4668TIP3   OH235562   1.918   2.374   7.999 -0.8097 -0.0574  0.2503
 4668TIP3    H135563   1.845   2.384   7.938 -1.9424 -0.9436  1.4054
 4668TIP3    H235564   1.994   2.355   7.943 -1.7125 -0.3474 -0.9089
 4669TIP3   OH235565   4.591   2.363   8.413 -0.0556  0.1845 -0.3531
 4669TIP3    H135566   4.590   2.424   8.487  0.0243  0.1824 -0.3496
 4669TIP3    H235567   4.681   2.329   8.412  0.0198  0.3841 -0.6114
 4670TIP3   OH235568   3.742   6.631   0.110 -0.4941 -0.0277  0.1824
 4670TIP3    H135569   3.679   6.636   0.181  1.0032  0.1446  1.5590
 4670TIP3    H235570   3.717   6.701   0.050 -2.8926 -1.3366 -0.4618
 4671TIP3   OH235571   1.281   4.604   1.526  0.4327 -0.9622  0.0967
 4671TIP3    H135572   1.209   4.630   1.469  0.4852  0.8745  0.8148
 4671TIP3    H235573   1.315   4.524   1.486 -2.6704 -2.5780  0.3327
 4672TIP3   OH235574   2.831   4.553   2.054  0.6034  0.0056 -0.0230
 4672TIP3    H135575   2.752   4.571   2.105  0.7275 -0.7296  0.4396
 4672TIP3    H235576   2.800   4.550   1.963  0.1161 -0.1823  0.1461
 4673TIP3   OH235577   5.209   3.223   2.513  0.1913  0.1446  0.6539
 4673TIP3    H135578   5.143   3.163   2.548  0.0332  0.8489  1.5877
 4673TIP3    H235579   5.186   3.309   2.549  1.0300  0.5819  0.1820
 4674TIP3   OH235580   1.361   6.102   2.038 -0.3759  0.0759 -0.5394
 4674TIP3    H135581   1.330   6.185   2.001 -0.5664 -0.4601 -1.6101
 4674TIP3    H235582   1.288   6.070   2.090  0.1124  1.1389  0.8666
 4675TIP3   OH235583   0.627   5.450   7.639 -0.6611 -0.6446 -0.3410
 4675TIP3    H135584   0.536   5.437   7.668 -0.8396  0.5349 -0.3160
 4675TIP3    H235585   0.656   5.528   7.686 -0.2828  0.1390 -1.8050
 4676TIP3   OH235586   6.766   3.194   0.872 -0.3114 -0.0430 -0.4066
 4676TIP3    H135587   6.797   3.116   0.828  0.5998  0.6630 -1.0421
 4676TIP3    H235588   6.771   3.263   0.806  0.8859  0.9908  0.7176
 4677TIP3   OH235589   3.226   5.253   1.905 -0.2149 -0.2969 -0.1017
 4677TIP3    H135590   3.137   5.276   1.933 -0.6046 -0.2800 -1.2636
 4677TIP3    H235591   3.258   5.191   1.971 -1.3247 -0.7745  0.0050
 4678TIP3   OH235592   5.422   6.373   1.665 -0.5591  0.3975 -0.0751
 4678TIP3    H135593   5.466   6.350   1.747  0.4713  1.1356 -0.4166
 4678TIP3    H235594   5.331   6.389   1.691 -0.8713 -1.9147  0.5188
 4679TIP3   OH235595   5.187   1.697   1.076 -0.1386  0.3563  0.3705
 4679TIP3    H135596   5.242   1.772   1.101  0.7111 -1.0506  3.0195
 4679TIP3    H235597   5.100   1.719   1.110  0.1719  0.0366  1.3853
 4680TIP3   OH235598   3.868   6.216   1.147 -0.0155 -0.7713  0.8073
 4680TIP3    H135599   3.794   6.234   1.205 -0.0514 -0.4083  0.6562
 4680TIP3    H235600   3.930   6.288   1.164  0.3641 -1.1504  1.0358
 4681TIP3   OH235601   6.293   3.524   0.894  0.3822 -0.1543 -0.0885
 4681TIP3    H135602   6.332   3.457   0.838 -0.3230  0.2219 -1.0545
 4681TIP3    H235603   6.207   3.489   0.918  0.2789  0.1120 -0.0591
 4682TIP3   OH235604   0.245   1.606   2.245  0.2900  0.0589 -0.4414
 4682TIP3    H135605   0.266   1.694   2.215 -0.0225 -0.0078 -0.8732
 4682TIP3    H235606   0.179   1.575   2.183  0.4646 -0.5123 -0.3461
 4683TIP3   OH235607   4.314   6.795   1.477 -0.1325  0.2699  0.2968
 4683TIP3    H135608   4.366   6.715   1.484  0.3664  0.6397  0.9767
 4683TIP3    H235609   4.234   6.768   1.432 -0.1459 -0.6920  0.8671
 4684TIP3   OH235610   1.069   4.058   2.305 -0.3152  0.3239 -0.1320
 4684TIP3    H135611   1.094   4.137   2.258  0.7951 -0.6340 -1.2052
 4684TIP3    H235612   1.044   4.089   2.392  0.4934  1.8165 -0.4016
 4685TIP3   OH235613   4.510   0.911   2.662 -0.4744  0.1199 -0.2689
 4685TIP3    H135614   4.454   0.940   2.734  0.3201 -0.0756  0.4418
 4685TIP3    H235615   4.451   0.908   2.586 -1.1406  1.1055  0.1856
 4686TIP3   OH235616   3.534   0.402   3.653  0.3355  0.3990  0.4683
 4686TIP3    H135617   3.618   0.367   3.681  0.0871  0.2108  0.9817
 4686TIP3    H235618   3.554   0.489   3.620  0.6658  0.5172  0.9842
 4687TIP3   OH235619   5.524   0.218   2.722 -0.1961 -0.3873  0.1032
 4687TIP3    H135620   5.614   0.217   2.689 -0.4713  0.5399 -0.7205
 4687TIP3    H235621   5.531   0.262   2.807  0.2999 -1.4997  0.6689
 4688TIP3   OH235622   0.350   6.058   3.740 -0.0866 -0.0779 -0.2540
 4688TIP3    H135623   0.412   6.077   3.811 -1.3424 -2.6650  1.7323
 4688TIP3    H235624   0.405   6.047   3.663  1.3781  2.5362  0.2979
 4689TIP3   OH235625   5.622   6.134   0.323  0.3961  0.1179 -0.1224
 4689TIP3    H135626   5.537   6.176   0.326 -0.2049 -1.0695  1.5683
 4689TIP3    H235627   5.605   6.047   0.286  1.2875  0.6203 -1.8188
 4690TIP3   OH235628   4.182   3.899   1.616 -0.1101 -0.0556 -0.0960
 4690TIP3    H135629   4.266   3.858   1.634 -1.1142 -2.4762 -0.5707
 4690TIP3    H235630   4.152   3.859   1.534 -0.1629  3.3932 -1.9437
 4691TIP3   OH235631   0.248   4.844   2.393 -0.1390  0.2628 -0.2837
 4691TIP3    H135632   0.303   4.789   2.337  2.0850  0.5851  1.4707
 4691TIP3    H235633   0.159   4.825   2.363  0.6924 -2.4051 -1.4165
 4692TIP3   OH235634   2.947   4.432   1.213  0.9634 -0.0900 -0.3437
 4692TIP3    H135635   2.933   4.354   1.158  1.2183  1.1005 -2.1725
 4692TIP3    H235636   2.861   4.472   1.221  0.3953 -1.6027  2.3910
 4693TIP3   OH235637   1.356   2.578   8.011 -0.5106 -0.2881 -0.7390
 4693TIP3    H135638   1.306   2.548   8.087 -0.6404  0.8469 -0.3658
 4693TIP3    H235639   1.322   2.666   7.993  1.6185  0.7139 -0.2167
 4694TIP3   OH235640   5.734   0.770   2.899  0.1175  0.4905 -0.0073
 4694TIP3    H135641   5.724   0.802   2.810 -1.6630 -0.1283 -0.0663
 4694TIP3    H235642   5.659   0.711   2.913  0.1568  0.8254  1.9924
 4695TIP3   OH235643   2.812   6.630   8.397  0.0181  0.0558  0.4668
 4695TIP3    H135644   2.737   6.662   8.447 -0.3143 -0.8922  0.5906
 4695TIP3    H235645   2.780   6.627   8.306 -0.0404 -0.1970  0.4965
 4696TIP3   OH235646   2.152   6.556   0.432 -0.1712  0.2457  0.0810
 4696TIP3    H135647   2.125   6.610   0.506 -0.2979  1.0825 -0.5723
 4696TIP3    H235648   2.244   6.577   0.418 -0.1328  0.0487  0.0257
 4697TIP3   OH235649   5.561   6.059   3.308 -0.6938  0.2406 -0.5429
 4697TIP3    H135650   5.528   6.149   3.313  1.0523  1.0545 -2.2281
 4697TIP3    H235651   5.606   6.045   3.391 -0.7224  1.0578 -0.3781
 4698TIP3   OH235652   3.615   0.077   2.847  0.2100  0.2441 -0.0988
 4698TIP3    H135653   3.710   0.068   2.857  1.2362  2.9713 -4.5133
 4698TIP3    H235654   3.597   0.040   2.761 -2.4689  1.2170 -0.0428
 4699TIP3   OH235655   4.046   0.983   1.596  0.0088 -0.4697 -0.6929
 4699TIP3    H135656   4.104   1.023   1.661  0.2657 -0.9972 -0.5971
 4699TIP3    H235657   3.992   1.056   1.564  2.0892  0.4780 -2.2693
 4700TIP3   OH235658   1.814   1.376   8.096  0.0175 -0.5975 -0.0386
 4700TIP3    H135659   1.740   1.366   8.157 -1.1388 -2.2600 -1.5854
 4700TIP3    H235660   1.890   1.346   8.146 -0.9205 -2.0949  0.5897
 4701TIP3   OH235661   5.740   0.266   0.650  0.5984  0.4843 -0.3239
 4701TIP3    H135662   5.732   0.246   0.743  0.6047  1.6786 -0.0484
 4701TIP3    H235663   5.829   0.239   0.627  0.4988 -0.0717 -0.0461
 4702TIP3   OH235664   5.207   0.816   1.875 -0.3101 -0.2083  0.8996
 4702TIP3    H135665   5.140   0.820   1.942 -1.0043 -1.2299  0.3041
 4702TIP3    H235666   5.186   0.888   1.816 -0.1643  0.2122  1.3614
 4703TIP3   OH235667   6.168   2.183   7.799  0.1857 -0.4544  0.5832
 4703TIP3    H135668   6.176   2.270   7.839 -3.0559  0.4618 -0.4276
 4703TIP3    H235669   6.236   2.181   7.732  0.8984  0.9583  1.2256
 4704TIP3   OH235670   5.383   1.963   3.852 -0.8470  0.0044 -0.0581
 4704TIP3    H135671   5.381   1.944   3.946  1.0328 -1.2572 -0.2307
 4704TIP3    H235672   5.425   1.887   3.813 -0.4036  1.0867 -1.7794
 4705TIP3   OH235673   5.249   1.443   7.601 -0.4715  0.0974  0.2142
 4705TIP3    H135674   5.156   1.450   7.623 -0.2098  1.2388  1.0592
 4705TIP3    H235675   5.287   1.527   7.629  0.7768 -0.2727 -0.2884
 4706TIP3   OH235676   6.048   4.067   2.603 -0.3982  0.0838 -0.2205
 4706TIP3    H135677   6.078   4.158   2.608  0.3286 -0.1303 -0.5938
 4706TIP3    H235678   6.079   4.036   2.518  0.0582 -0.7608  0.2440
 4707TIP3   OH235679   4.776   6.101   2.573  0.1317  0.0428 -0.3137
 4707TIP3    H135680   4.844   6.035   2.586 -1.8213 -2.1736 -0.5603
 4707TIP3    H235681   4.815   6.165   2.514  2.0688 -0.9802 -0.2247
 4708TIP3   OH235682   3.815   4.267   2.411 -1.0242 -0.0036 -0.4311
 4708TIP3    H135683   3.794   4.304   2.326 -0.8112  0.1609 -0.4121
 4708TIP3    H235684   3.847   4.341   2.463 -1.6916  0.0097 -0.0264
 4709TIP3   OH235685   5.284   4.997   1.884 -0.9459 -0.5793  0.1408
 4709TIP3    H135686   5.237   4.918   1.910 -2.1543  0.5172  1.5340
 4709TIP3    H235687   5.241   5.026   1.804 -1.1180 -0.8347  0.1405
 4710TIP3   OH235688   4.089   0.756   3.427 -0.4201  0.0474 -0.3145
 4710TIP3    H135689   4.080   0.806   3.507  1.1915 -0.5502  0.2858
 4710TIP3    H235690   4.183   0.757   3.408 -0.6138 -0.8984 -1.4842
 4711TIP3   OH235691   0.588   3.013   2.763 -0.3334 -0.1017 -0.4575
 4711TIP3    H135692   0.504   3.055   2.744 -0.8874 -0.2407  1.4130
 4711TIP3    H235693   0.601   2.951   2.691 -2.1386 -0.4889 -0.5138
 4712TIP3   OH235694   4.644   4.964   0.824  0.3725 -0.2728  0.0644
 4712TIP3    H135695   4.708   4.893   0.821  0.6961 -0.0108 -2.9559
 4712TIP3    H235696   4.690   5.039   0.786 -1.1179  0.4575 -0.3772
 4713TIP3   OH235697   4.269   4.297   1.255 -0.3709  0.4155 -0.5093
 4713TIP3    H135698   4.344   4.321   1.310  0.3412  0.7638 -1.5924
 4713TIP3    H235699   4.211   4.248   1.313  1.0737 -0.5655  0.1713
 4714TIP3   OH235700   2.171   1.343   0.108  0.2476 -0.4735 -0.6611
 4714TIP3    H135701   2.095   1.285   0.109 -1.1499  1.2853  0.2440
 4714TIP3    H235702   2.207   1.337   0.197  1.2363 -1.3185 -1.0911
 4715TIP3   OH235703   4.367   2.228   2.889 -0.1982 -0.1838  0.2649
 4715TIP3    H135704   4.378   2.310   2.842  0.0512  0.1632  0.9244
 4715TIP3    H235705   4.364   2.253   2.981 -0.4118 -0.8834  0.4532
 4716TIP3   OH235706   0.637   2.750   2.943 -0.0589 -0.2881  0.6911
 4716TIP3    H135707   0.663   2.836   2.911  0.4303 -0.7187 -0.0976
 4716TIP3    H235708   0.598   2.707   2.867  0.9518 -1.2622  0.6912
 4717TIP3   OH235709   4.981   0.109   8.425 -0.6538 -0.0620 -0.2556
 4717TIP3    H135710   5.049   0.071   8.369 -0.5838  0.1883 -0.3431
 4717TIP3    H235711   5.009   0.089   8.514 -0.6468 -0.2633 -0.3029
 4718TIP3   OH235712   1.227   6.773   3.149  0.3494  0.6353  0.1020
 4718TIP3    H135713   1.252   6.828   3.223  1.2792 -0.8089  0.8971
 4718TIP3    H235714   1.168   6.707   3.187 -0.7669  1.0527 -0.8336
 4719TIP3   OH235715   4.025   3.364   1.120 -0.1302 -0.0994 -0.3584
 4719TIP3    H135716   4.019   3.307   1.043  0.2114  1.3085 -1.4626
 4719TIP3    H235717   3.970   3.439   1.100  0.6159  0.6819  0.4218
 4720TIP3   OH235718   6.757   5.243   7.956 -0.1927 -0.2319 -0.2378
 4720TIP3    H135719   6.763   5.256   7.861 -0.0085 -0.1749 -0.2175
 4720TIP3    H235720   6.779   5.328   7.993 -0.5747 -0.1669 -0.1516
 4721TIP3   OH235721   4.040   3.739   8.172 -0.3680  0.5446 -0.3384
 4721TIP3    H135722   4.027   3.806   8.105  0.5909  0.2519 -0.8341
 4721TIP3    H235723   4.110   3.683   8.138 -1.4527 -0.9994 -0.1492
 4722TIP3   OH235724   1.772   1.191   1.404 -1.1493  0.4838 -0.6561
 4722TIP3    H135725   1.860   1.158   1.422 -2.0709 -0.4115  2.9471
 4722TIP3    H235726   1.717   1.112   1.399 -1.9202  1.0643 -2.1340
 4723TIP3   OH235727   6.087   6.218   7.473 -0.3344  0.6040  0.1146
 4723TIP3    H135728   5.992   6.217   7.466 -0.4070 -0.4187  0.9901
 4723TIP3    H235729   6.117   6.172   7.395 -0.7291 -1.9350  1.3389
 4724TIP3   OH235730   0.839   6.882   2.478  0.1981 -0.3628 -0.5791
 4724TIP3    H135731   0.753   6.840   2.479  0.4039 -1.0771  3.0558
 4724TIP3    H235732   0.892   6.828   2.538  2.1020  2.0402  0.0496
 4725TIP3   OH235733   1.325   3.937   0.246 -0.2709 -1.0196 -0.6845
 4725TIP3    H135734   1.326   3.954   0.152  1.3058  0.7515 -0.4109
 4725TIP3    H235735   1.389   3.867   0.259  1.3552  0.3900 -0.7323
 4726TIP3   OH235736   5.219   3.676   2.014 -0.4957 -0.2971  0.1251
 4726TIP3    H135737   5.220   3.707   1.923  0.3283  0.4494  0.3793
 4726TIP3    H235738   5.162   3.738   2.060 -1.7232 -1.2489 -0.0596
 4727TIP3   OH235739   4.163   2.126   8.429  0.0029  0.2486  0.2339
 4727TIP3    H135740   4.246   2.151   8.388 -0.4096  0.4651 -0.4816
 4727TIP3    H235741   4.189   2.082   8.510  0.8370 -0.2116 -0.2675
 4728TIP3   OH235742   2.472   0.431   3.595 -0.3848 -0.1413  0.5745
 4728TIP3    H135743   2.554   0.480   3.602 -0.1981 -0.3766  0.0835
 4728TIP3    H235744   2.406   0.492   3.629 -0.4455  1.2726 -1.8148
 4729TIP3   OH235745   1.399   3.992   1.802 -0.2672  0.0255 -0.3570
 4729TIP3    H135746   1.441   4.028   1.724  1.3893  0.0602  0.5139
 4729TIP3    H235747   1.402   4.063   1.866  0.4250 -0.7117  0.4503
 4730TIP3   OH235748   1.321   6.505   2.835 -0.5032  0.5228  0.1968
 4730TIP3    H135749   1.287   6.525   2.922 -0.5298 -0.0407  0.3219
 4730TIP3    H235750   1.345   6.590   2.798 -0.4365  0.7598  0.7760
 4731TIP3   OH235751   0.373   2.919   7.500  0.7862 -0.5133 -0.4110
 4731TIP3    H135752   0.343   2.893   7.587  1.7941  0.4810  0.2534
 4731TIP3    H235753   0.450   2.864   7.483  0.5771 -0.7236 -0.6958
 4732TIP3   OH235754   2.499   1.004   1.404  0.2791 -0.0459  0.5777
 4732TIP3    H135755   2.527   0.913   1.405  0.9882  0.1628  0.1493
 4732TIP3    H235756   2.471   1.020   1.314 -1.4731 -0.3086  1.0238
 4733TIP3   OH235757   4.360   5.141   1.362  0.7549 -0.4883 -0.2200
 4733TIP3    H135758   4.269   5.132   1.336  0.0552  0.6380  1.6621
 4733TIP3    H235759   4.380   5.234   1.348  1.0299 -0.3337  1.0814
 4734TIP3   OH235760   2.624   0.761   1.390  0.1264  0.3197 -0.2448
 4734TIP3    H135761   2.623   0.672   1.354  1.5184  0.3819 -0.4766
 4734TIP3    H235762   2.710   0.770   1.429 -0.0357  1.5442 -0.1396
 4735TIP3   OH235763   1.979   0.037   1.363  0.2213  0.3130  0.2682
 4735TIP3    H135764   1.913   0.040   1.294 -0.8941 -1.0951  1.2252
 4735TIP3    H235765   1.960  -0.044   1.410  1.5148  0.8052  1.6851
 4736TIP3   OH235766   0.056   2.205   0.563  0.9260 -0.1323  0.1080
 4736TIP3    H135767  -0.030   2.164   0.576  0.9661 -0.9769 -1.8938
 4736TIP3    H235768   0.037   2.292   0.529  0.8746  0.6451  2.0157
 4737TIP3   OH235769   3.669   1.637   8.234  0.7178  0.4796 -0.0374
 4737TIP3    H135770   3.706   1.679   8.312 -0.4952  1.7959 -0.1226
 4737TIP3    H235771   3.734   1.652   8.166  2.3729 -1.7678  0.9409
 4738TIP3   OH235772   1.928   3.745   0.890  0.7932 -0.1829  0.2878
 4738TIP3    H135773   1.946   3.658   0.924  2.5751  0.1597  0.3279
 4738TIP3    H235774   1.857   3.779   0.945  0.5321 -1.3449  0.6878
 4739TIP3   OH235775   3.209   1.527   1.129 -0.1679  0.1394 -0.1430
 4739TIP3    H135776   3.206   1.603   1.071 -1.5635 -0.4795 -0.9390
 4739TIP3    H235777   3.162   1.459   1.081 -1.1751 -0.4580  1.6018
 4740TIP3   OH235778   6.102   0.244   3.885  0.5595 -0.2441  0.1018
 4740TIP3    H135779   6.166   0.285   3.944  0.4396  0.3142 -0.1482
 4740TIP3    H235780   6.094   0.155   3.918  1.2530 -0.2398  0.3113
 4741TIP3   OH235781   0.837   6.223   2.903  0.2848  0.0623 -0.3138
 4741TIP3    H135782   0.873   6.199   2.988  1.3769  0.1354 -0.7443
 4741TIP3    H235783   0.904   6.277   2.862 -0.6316  0.8331 -0.8426
 4742TIP3   OH235784   3.445   5.499   0.784  0.1662  0.1112  0.0418
 4742TIP3    H135785   3.465   5.537   0.698 -1.5232 -2.1618 -1.4651
 4742TIP3    H235786   3.361   5.538   0.808 -0.1727 -0.4939 -0.1482
 4743TIP3   OH235787   6.405   5.652   8.195 -0.0040 -0.1675 -0.4904
 4743TIP3    H135788   6.353   5.732   8.186  0.6883  0.7963  2.7033
 4743TIP3    H235789   6.342   5.586   8.222 -0.1533  0.0749 -0.2334
 4744TIP3   OH235790   6.102   3.998   1.445  0.4957  0.3006 -0.3983
 4744TIP3    H135791   6.158   4.070   1.415  0.6864 -0.4602 -1.9330
 4744TIP3    H235792   6.077   3.953   1.365 -0.1466 -0.9672  0.5009
 4745TIP3   OH235793   5.597   0.606   1.496 -0.4491  0.9123 -0.0134
 4745TIP3    H135794   5.614   0.524   1.542 -1.2051  0.1357 -1.0904
 4745TIP3    H235795   5.521   0.588   1.441  0.5577  1.7461 -1.7495
 4746TIP3   OH235796   2.160   6.200   2.207 -0.4129  0.0434 -0.2862
 4746TIP3    H135797   2.158   6.267   2.275 -0.9444 -0.3346  0.0820
 4746TIP3    H235798   2.089   6.225   2.148  0.5540  0.8203 -1.1565
 4747TIP3   OH235799   0.691   4.491   0.257 -0.4460  0.7307 -0.5175
 4747TIP3    H135800   0.759   4.505   0.323 -0.4971 -1.0160 -0.0400
 4747TIP3    H235801   0.735   4.506   0.173  0.7366 -0.9256 -0.2508
 4748TIP3   OH235802   3.051   2.297   0.076  0.1751 -0.1064  0.0400
 4748TIP3    H135803   2.966   2.260   0.099 -0.1524 -0.6898 -1.9204
 4748TIP3    H235804   3.040   2.391   0.086 -1.6392  0.0922 -2.7486
 4749TIP3   OH235805   3.907   1.469   0.940  0.1460  1.0165  0.2983
 4749TIP3    H135806   3.961   1.547   0.955  0.2685  1.0855 -0.4704
 4749TIP3    H235807   3.899   1.463   0.845 -0.1694  0.2964  0.3628
 4750TIP3   OH235808   1.041   1.084   8.057 -0.0891  0.0941  0.1520
 4750TIP3    H135809   1.056   1.038   8.139  0.4112 -0.2593 -0.1292
 4750TIP3    H235810   1.126   1.081   8.012 -0.3503  0.2995 -0.3641
 4751TIP3   OH235811   0.071   1.829   0.564  0.1104 -0.6648 -0.7510
 4751TIP3    H135812   0.051   1.872   0.648 -1.7497  1.2551 -2.0660
 4751TIP3    H235813   0.019   1.748   0.566  0.1120 -0.6570 -0.0340
 4752TIP3   OH235814   0.485   5.477   0.330 -0.1286 -0.0105 -0.2094
 4752TIP3    H135815   0.481   5.454   0.423  1.0443 -0.5977 -0.2886
 4752TIP3    H235816   0.467   5.395   0.284 -3.1793  0.7476 -0.5597
 4753TIP3   OH235817   1.794   1.532   2.248 -0.3541  0.0477 -0.1310
 4753TIP3    H135818   1.874   1.582   2.267 -0.8795  1.4420 -1.3222
 4753TIP3    H235819   1.815   1.484   2.168  0.0777 -1.5245  0.9016
 4754TIP3   OH235820   1.175   5.102   2.079 -0.2356  0.1659 -0.3309
 4754TIP3    H135821   1.181   5.008   2.063 -3.5638 -0.1197 -0.4497
 4754TIP3    H235822   1.163   5.110   2.174  1.6115  0.6492 -0.0941
 4755TIP3   OH235823   6.198   0.005   1.622 -0.0904  0.1988 -0.0311
 4755TIP3    H135824   6.266   0.073   1.624 -0.4234  0.5612 -0.6068
 4755TIP3    H235825   6.239  -0.069   1.578  0.0160  0.3297 -0.1561
 4756TIP3   OH235826   0.471   2.841   8.050 -0.0046  0.1347 -0.4531
 4756TIP3    H135827   0.395   2.791   8.081  0.1143  0.5548  0.5496
 4756TIP3    H235828   0.507   2.787   7.980  0.5016 -1.5651  1.0097
 4757TIP3   OH235829   0.545   4.928   2.909  0.4265 -0.2526 -0.2090
 4757TIP3    H135830   0.571   4.906   2.820 -0.1071 -0.1362 -0.4004
 4757TIP3    H235831   0.507   4.847   2.944  1.7549 -0.6541  0.3482
 4758TIP3   OH235832   4.742   6.455   2.541  0.3394  0.3165 -0.3518
 4758TIP3    H135833   4.674   6.520   2.560  1.0258  1.2598 -1.0094
 4758TIP3    H235834   4.702   6.397   2.476 -0.1775  0.2449  0.0198
 4759TIP3   OH235835   4.771   3.237   8.206 -0.4235 -0.4331 -0.6037
 4759TIP3    H135836   4.830   3.305   8.172 -0.1942  0.1945  0.9705
 4759TIP3    H235837   4.750   3.184   8.129  0.6695  0.4604 -1.5722
 4760TIP3   OH235838   3.009   4.749   0.026  0.1126  0.1915  0.1532
 4760TIP3    H135839   3.014   4.774  -0.066 -0.9324 -1.9885 -0.5382
 4760TIP3    H235840   3.099   4.757   0.058  1.6336 -3.7498 -2.4251
 4761TIP3   OH235841   3.089   5.809   7.568  0.1398  0.3043  0.2504
 4761TIP3    H135842   3.094   5.887   7.624 -0.6235 -0.0587  0.8385
 4761TIP3    H235843   3.107   5.736   7.627 -1.6604 -0.1717  0.2880
 4762TIP3   OH235844   6.134   4.323   2.603 -0.3537 -0.0618  0.1808
 4762TIP3    H135845   6.229   4.337   2.603 -0.3965  0.2915 -0.6940
 4762TIP3    H235846   6.108   4.337   2.694  0.5752 -1.2218  0.6541
 4763TIP3   OH235847   3.260   0.825   2.566  0.4909 -0.1318  0.3939
 4763TIP3    H135848   3.302   0.830   2.480 -1.7735 -0.7772 -0.8291
 4763TIP3    H235849   3.288   0.741   2.601  0.3625 -0.4765 -0.3169
 4764TIP3   OH235850   1.235   6.667   0.037  0.6977 -0.4490 -0.0306
 4764TIP3    H135851   1.253   6.761   0.035  0.4165 -0.3966 -0.5056
 4764TIP3    H235852   1.279   6.635   0.115 -1.0017  0.4464  1.3889
 4765TIP3   OH235853   0.408   3.924   1.631  0.4785 -0.2751 -0.8581
 4765TIP3    H135854   0.379   3.861   1.698  2.9461 -1.7212 -1.0280
 4765TIP3    H235855   0.466   3.984   1.678  0.7401 -0.1564 -1.3273
 4766TIP3   OH235856   0.592   0.309   8.373  0.4520 -0.7386 -0.1279
 4766TIP3    H135857   0.608   0.220   8.340  1.6192 -1.0955  1.2843
 4766TIP3    H235858   0.569   0.296   8.465 -0.1204  0.3920 -0.1004
 4767TIP3   OH235859   0.013   1.888   0.832 -0.3581  0.2463 -0.3878
 4767TIP3    H135860  -0.054   1.852   0.890  0.1621 -0.0157  0.0546
 4767TIP3    H235861   0.010   1.982   0.848  1.8099 -0.0395  2.3283
 4768TIP3   OH235862   4.361   5.370   2.374 -0.0877 -0.5165  0.0741
 4768TIP3    H135863   4.402   5.355   2.289  0.9976 -2.4416  0.8809
 4768TIP3    H235864   4.431   5.358   2.437 -0.7833  1.3015  1.2538
 4769TIP3   OH235865   0.300   4.440   0.645  0.1312 -0.6617 -0.2346
 4769TIP3    H135866   0.296   4.344   0.639  0.5960 -0.5985 -3.0461
 4769TIP3    H235867   0.231   4.470   0.586 -0.2390  0.7821  0.8683
 4770TIP3   OH235868   2.680   5.209   1.442  0.0186  0.1976  0.1064
 4770TIP3    H135869   2.732   5.206   1.362  0.7720 -0.7617  0.6176
 4770TIP3    H235870   2.707   5.132   1.492 -1.5827 -0.0897  0.5899
 4771TIP3   OH235871   6.487   3.175   2.785 -0.2660 -0.0838 -0.2803
 4771TIP3    H135872   6.499   3.217   2.870  0.4061 -2.2627  0.7914
 4771TIP3    H235873   6.412   3.116   2.798  0.0240 -0.6547 -1.0967
 4772TIP3   OH235874   4.103   1.432   0.307 -0.4277 -0.0387 -0.1093
 4772TIP3    H135875   4.175   1.382   0.345 -1.0140 -0.5937  0.2761
 4772TIP3    H235876   4.142   1.517   0.286  0.0165  0.1491  1.3453
 4773TIP3   OH235877   3.510   6.291   0.985  0.2290  0.6216 -0.3925
 4773TIP3    H135878   3.575   6.293   0.915 -0.1765 -1.0430 -0.8702
 4773TIP3    H235879   3.558   6.320   1.062  1.2621  0.4684 -0.9526
 4774TIP3   OH235880   1.330   5.835   8.090 -0.0411  0.5946 -0.0722
 4774TIP3    H135881   1.274   5.826   8.013  0.6088  1.7473 -0.7119
 4774TIP3    H235882   1.287   5.783   8.158 -2.6337  2.4343 -0.1428
 4775TIP3   OH235883   5.273   5.280   7.930  0.1702  0.1063 -0.5296
 4775TIP3    H135884   5.359   5.282   7.888  1.2533  2.0317  1.5385
 4775TIP3    H235885   5.265   5.365   7.973 -1.7282 -0.9376  1.3989
 4776TIP3   OH235886   4.384   2.263   0.258 -0.6642  0.4168  0.6440
 4776TIP3    H135887   4.346   2.319   0.190 -1.1762 -0.4221  0.2347
 4776TIP3    H235888   4.345   2.295   0.339  1.2131  2.5415  0.8078
 4777TIP3   OH235889   6.592   6.517   1.660  0.3252  0.4914 -0.5968
 4777TIP3    H135890   6.504   6.548   1.678  0.7607  1.9703 -0.8479
 4777TIP3    H235891   6.605   6.533   1.566  1.0446  0.7893 -0.4533
 4778TIP3   OH235892   5.073   4.773   0.564 -0.9172 -0.2500  0.1419
 4778TIP3    H135893   5.147   4.751   0.621 -0.0850 -1.5816 -1.3647
 4778TIP3    H235894   5.030   4.689   0.547 -3.2773  0.5549  1.5340
 4779TIP3   OH235895   6.092   5.033   1.061  0.3109 -0.1573  0.5098
 4779TIP3    H135896   6.111   5.085   0.984 -0.7999  1.2514  1.1478
 4779TIP3    H235897   6.070   5.097   1.129 -1.1584 -1.4337  1.3058
 4780TIP3   OH235898   6.669   2.861   0.962 -0.5003 -0.1811 -0.2051
 4780TIP3    H135899   6.707   2.773   0.962  0.7987  0.3640 -0.3406
 4780TIP3    H235900   6.707   2.903   0.885 -0.8379  0.6199  0.0558
 4781TIP3   OH235901   0.244   0.888   2.153  0.2824 -0.1304 -0.5865
 4781TIP3    H135902   0.312   0.869   2.217 -0.6766 -0.2530  0.4169
 4781TIP3    H235903   0.169   0.915   2.205 -0.1934  0.7965 -1.7155
 4782TIP3   OH235904   3.320   4.529   0.663  0.5036 -0.0883 -0.8317
 4782TIP3    H135905   3.308   4.575   0.747  2.2452  1.0768 -1.1674
 4782TIP3    H235906   3.243   4.553   0.612 -1.6688 -2.4756  1.0543
 4783TIP3   OH235907   6.725   5.182   2.552 -0.7614 -0.0225 -0.5956
 4783TIP3    H135908   6.665   5.190   2.626  1.3519  0.4164  1.1811
 4783TIP3    H235909   6.719   5.266   2.507  1.3357  1.6262  1.9313
 4784TIP3   OH235910   3.364   5.421   3.055 -0.2479 -0.3223 -0.0490
 4784TIP3    H135911   3.398   5.346   3.103  0.6085  0.1466  0.1009
 4784TIP3    H235912   3.338   5.483   3.123 -1.2193 -0.5776 -0.1654
 4785TIP3   OH235913   1.555   1.428   2.307 -0.1641  0.0870  0.2502
 4785TIP3    H135914   1.519   1.472   2.383 -0.4075  0.9933 -0.3681
 4785TIP3    H235915   1.647   1.456   2.303 -0.1449  0.0219  0.2308
 4786TIP3   OH235916   3.845   3.909   7.774 -0.7073 -0.6172  0.9858
 4786TIP3    H135917   3.862   3.837   7.713 -0.8961 -1.5341  1.9768
 4786TIP3    H235918   3.749   3.916   7.777 -0.6860 -0.2126  0.7677
 4787TIP3   OH235919   0.806   2.149   2.524 -0.3569  0.4922  0.3944
 4787TIP3    H135920   0.818   2.086   2.453 -0.0737  1.9153 -0.8802
 4787TIP3    H235921   0.888   2.198   2.526 -1.4244  2.4192 -0.3195
 4788TIP3   OH235922   5.841   2.230   2.288  0.4041 -0.3948  0.1186
 4788TIP3    H135923   5.828   2.278   2.369 -0.3175 -1.5496  0.7120
 4788TIP3    H235924   5.934   2.206   2.289  0.5462  0.1473  0.2800
 4789TIP3   OH235925   4.278   6.245   7.601 -0.2795 -0.6235 -0.1234
 4789TIP3    H135926   4.224   6.173   7.634 -0.1526 -0.6330  0.0677
 4789TIP3    H235927   4.304   6.217   7.513 -1.2637 -0.2567 -0.5564
 4790TIP3   OH235928   6.585   6.942   1.076 -0.0153  0.3976  0.3069
 4790TIP3    H135929   6.598   6.904   0.989  0.3350  0.2090  0.4405
 4790TIP3    H235930   6.507   6.898   1.110  0.6476 -0.5408  0.6429
 4791TIP3   OH235931   3.398   0.972   8.215 -0.7902  0.3179 -0.3863
 4791TIP3    H135932   3.488   1.001   8.234 -1.5498  0.7520  3.2872
 4791TIP3    H235933   3.401   0.877   8.224 -0.1975 -0.0185 -3.2461
 4792TIP3   OH235934   0.250   5.428   2.586 -0.0021  0.0963  0.4833
 4792TIP3    H135935   0.263   5.390   2.499  0.1140  0.4735  0.3332
 4792TIP3    H235936   0.294   5.513   2.582  0.6373 -0.1941  1.1423
 4793TIP3   OH235937   5.516   3.804   1.559  0.0679 -0.2614  0.3748
 4793TIP3    H135938   5.490   3.895   1.553 -0.7501 -0.5495 -0.7881
 4793TIP3    H235939   5.597   3.805   1.611  0.3421  1.1588 -0.0481
 4794TIP3   OH235940   0.647   4.085   0.142 -0.2847  0.1050  0.3149
 4794TIP3    H135941   0.601   4.075   0.058 -2.3556  2.6633  1.0230
 4794TIP3    H235942   0.580   4.069   0.208  0.5293  1.1452  1.4232
 4795TIP3   OH235943   5.992   4.177   1.761  0.4911  0.0035  0.3081
 4795TIP3    H135944   6.003   4.233   1.684 -0.8363  0.5888  0.5052
 4795TIP3    H235945   5.978   4.238   1.834 -1.3034 -0.5307  0.4787
 4796TIP3   OH235946   2.403   6.120   0.191 -0.1107 -0.1723  0.2299
 4796TIP3    H135947   2.317   6.115   0.233 -1.6093  2.8234 -2.0629
 4796TIP3    H235948   2.394   6.068   0.111  1.8761 -3.6647  2.0306
 4797TIP3   OH235949   6.313   2.367   2.559 -0.2152 -0.2780 -0.0264
 4797TIP3    H135950   6.306   2.277   2.591 -1.8055 -0.1596  0.0124
 4797TIP3    H235951   6.358   2.358   2.474 -1.6780 -1.3014 -0.7406
 4798TIP3   OH235952   2.102   3.393   0.320  0.0750 -0.1569  0.3118
 4798TIP3    H135953   2.071   3.431   0.238 -0.1488 -0.8515  0.0691
 4798TIP3    H235954   2.047   3.315   0.332 -0.0120  0.0377  1.2077
 4799TIP3   OH235955   0.948   1.387   1.788  0.2965  0.1261 -0.0517
 4799TIP3    H135956   0.896   1.352   1.861  0.2224  1.0916  0.3721
 4799TIP3    H235957   0.941   1.320   1.720  1.6050 -1.5150  1.3303
 4800TIP3   OH235958   2.072   1.144   1.140  0.3957 -0.1422  0.4884
 4800TIP3    H135959   2.024   1.156   1.057  1.1656 -1.3991 -0.1697
 4800TIP3    H235960   2.016   1.085   1.191  0.1914  0.1749  0.6321
 4801TIP3   OH235961   5.155   6.397   1.775  0.7269  0.1134  0.3689
 4801TIP3    H135962   5.086   6.345   1.816  0.5801  1.3626  1.8037
 4801TIP3    H235963   5.116   6.484   1.762  2.1666  1.0345  1.7926
 4802TIP3   OH235964   0.262   0.876   7.979 -0.9667 -0.1103 -0.0051
 4802TIP3    H135965   0.263   0.819   7.902 -1.7421 -0.5848  0.3192
 4802TIP3    H235966   0.260   0.815   8.053  1.2626  0.2929  0.4844
 4803TIP3   OH235967   2.222   4.019   0.759 -0.3273 -0.5325  0.2874
 4803TIP3    H135968   2.214   3.964   0.681  0.9653 -0.3745  0.0238
 4803TIP3    H235969   2.289   4.083   0.736  0.6903 -1.0106  1.8398
 4804TIP3   OH235970   0.414   2.742   0.656  0.2708  0.2877 -0.5604
 4804TIP3    H135971   0.456   2.701   0.732  0.4443  0.2490 -0.6774
 4804TIP3    H235972   0.375   2.669   0.608  1.0225  0.1930 -1.0467
 4805TIP3   OH235973   4.882   3.383   7.923  0.3055  0.2729 -0.5368
 4805TIP3    H135974   4.895   3.291   7.898  0.9075  0.2951 -0.3230
 4805TIP3    H235975   4.938   3.432   7.863 -1.1173  0.6388 -1.6367
 4806TIP3   OH235976   1.616   2.484   0.377  0.1574 -0.2228 -0.0711
 4806TIP3    H135977   1.592   2.514   0.464 -1.7370  0.2032 -0.7013
 4806TIP3    H235978   1.683   2.546   0.348 -1.3994  1.5248 -0.0915
 4807TIP3   OH235979   1.271   0.961   2.233  0.1957 -0.7033  0.0091
 4807TIP3    H135980   1.268   1.011   2.151  0.6982  0.1350  0.4791
 4807TIP3    H235981   1.311   1.022   2.295 -0.6653 -1.1357  1.0081
 4808TIP3   OH235982   1.381   1.696   8.110 -0.1033 -0.2012 -0.0836
 4808TIP3    H135983   1.326   1.738   8.175  0.8683  0.6152  0.2419
 4808TIP3    H235984   1.449   1.761   8.091  0.0188 -0.6860 -1.4031
 4809TIP3   OH235985   3.657   2.741   0.386 -0.3046  0.3077  0.3851
 4809TIP3    H135986   3.695   2.739   0.298  2.9861 -0.9300  1.6774
 4809TIP3    H235987   3.609   2.658   0.393  0.8395 -0.4039  0.2325
 4810TIP3   OH235988   2.374   2.156   3.578  0.2414  0.0488 -0.0338
 4810TIP3    H135989   2.378   2.202   3.662 -1.7462 -1.0437  0.7391
 4810TIP3    H235990   2.362   2.226   3.513 -0.0850  0.8042  0.8134
 4811TIP3   OH235991   5.116   2.728   3.077  0.0915  0.4189  0.1373
 4811TIP3    H135992   5.190   2.752   3.133  0.4462 -0.1154 -0.0966
 4811TIP3    H235993   5.069   2.661   3.127 -0.0874  0.5674  0.1702
 4812TIP3   OH235994   6.078   6.074   2.501  0.4240  0.6698 -0.5778
 4812TIP3    H135995   6.077   6.040   2.412  1.0747 -0.1237 -0.3002
 4812TIP3    H235996   6.150   6.137   2.502  0.6890  0.3658 -0.5037
 4813TIP3   OH235997   0.180   6.850   1.022 -0.7851  0.1860 -0.2689
 4813TIP3    H135998   0.233   6.870   1.100 -0.7317 -0.5219 -0.1174
 4813TIP3    H235999   0.090   6.857   1.053 -0.7728 -1.6084  0.2825
 4814TIP3   OH236000   3.503   6.688   1.972  0.2952 -0.4083 -0.1626
 4814TIP3    H136001   3.557   6.627   2.023 -0.5164 -0.7176  0.3582
 4814TIP3    H236002   3.420   6.642   1.960 -0.6766  0.9182  1.0364
 4815TIP3   OH236003   5.426   6.327   1.353 -0.2475 -0.3892 -0.1374
 4815TIP3    H136004   5.493   6.369   1.300 -2.5432  2.4409 -1.1052
 4815TIP3    H236005   5.453   6.342   1.443  0.1795  1.2328 -0.5022
 4816TIP3   OH236006   2.845   0.323   0.131 -0.3520  0.0191 -0.2071
 4816TIP3    H136007   2.928   0.362   0.161  0.9216 -1.2914 -1.8382
 4816TIP3    H236008   2.850   0.232   0.159 -0.5297 -0.4478 -1.6181
 4817TIP3   OH236009   0.049   3.195   2.123 -0.1114 -0.7892 -0.4551
 4817TIP3    H136010   0.057   3.217   2.031  0.3002 -0.3809 -0.3259
 4817TIP3    H236011   0.049   3.099   2.125  0.0091 -0.7998 -0.8650
 4818TIP3   OH236012   5.124   5.380   0.930  0.4567  0.4912 -0.4922
 4818TIP3    H136013   5.037   5.356   0.899  0.1734  1.6353 -0.6280
 4818TIP3    H236014   5.130   5.475   0.916  1.6150  0.4813 -0.2215
 4819TIP3   OH236015   6.495   2.786   1.503 -0.4751 -0.4761 -0.1556
 4819TIP3    H136016   6.579   2.807   1.461 -1.2783  1.3464 -0.9541
 4819TIP3    H236017   6.484   2.856   1.568 -1.0358 -1.1328  0.4679
 4820TIP3   OH236018   0.769   4.537   1.571  0.4837 -0.2361 -0.2822
 4820TIP3    H136019   0.694   4.478   1.565  0.7059 -0.8140  1.9890
 4820TIP3    H236020   0.845   4.480   1.566  0.6994 -0.1951  1.9268
 4821TIP3   OH236021   2.272   6.769   0.879  0.1965  0.1612  0.0736
 4821TIP3    H136022   2.353   6.768   0.931 -0.2674  0.3394  0.8078
 4821TIP3    H236023   2.279   6.692   0.822 -0.2842 -1.3493  1.9464
 4822TIP3   OH236024   5.313   2.832   0.088  0.3590  0.1966 -0.0972
 4822TIP3    H136025   5.383   2.786   0.136  0.7820  1.2080  0.2857
 4822TIP3    H236026   5.358   2.876   0.016 -0.1359 -0.4871 -0.8383
 4823TIP3   OH236027   0.377   3.114   0.941 -0.2319  0.0154 -0.6206
 4823TIP3    H136028   0.333   3.036   0.908 -2.0198  0.9357 -0.5759
 4823TIP3    H236029   0.436   3.083   1.009 -0.6377 -1.3308 -0.8680
 4824TIP3   OH236030   4.932   1.460   3.247 -0.1786 -0.1942  0.4720
 4824TIP3    H136031   4.946   1.436   3.339 -0.7167 -0.7725  0.4091
 4824TIP3    H236032   4.916   1.377   3.203 -0.4055  0.1261 -0.0583
 4825TIP3   OH236033   4.245   2.547   1.115  0.1809  0.5520 -0.4522
 4825TIP3    H136034   4.163   2.515   1.077  0.7366 -1.2941 -0.2007
 4825TIP3    H236035   4.220   2.580   1.201 -0.3886  0.6245 -0.6386
 4826TIP3   OH236036   3.636   0.290   1.974 -0.0288 -0.1616  0.3900
 4826TIP3    H136037   3.613   0.214   1.921 -0.5419 -0.4167  0.9696
 4826TIP3    H236038   3.588   0.278   2.055 -0.3771  0.9595  0.3588
 4827TIP3   OH236039   6.331   4.723   0.211 -0.4793 -0.0837 -0.2212
 4827TIP3    H136040   6.423   4.729   0.236 -0.1514  1.0170 -1.5625
 4827TIP3    H236041   6.327   4.648   0.151 -0.2363  0.4957 -0.9779
 4828TIP3   OH236042   1.400   5.188   8.017  0.3401  0.5090 -0.0722
 4828TIP3    H136043   1.492   5.169   7.998  0.9684  0.4898  2.6026
 4828TIP3    H236044   1.402   5.239   8.097 -1.9479  2.1462 -0.9613
 4829TIP3   OH236045   0.379   1.182   1.782 -0.3086  0.5584 -0.2874
 4829TIP3    H136046   0.387   1.268   1.824 -0.8489  0.2233  0.5281
 4829TIP3    H236047   0.396   1.199   1.689 -2.8215  1.9909 -0.5804
 4830TIP3   OH236048   6.290   6.197   7.814  0.1128 -0.2425  0.0456
 4830TIP3    H136049   6.283   6.217   7.720  3.1902 -1.1930 -0.4976
 4830TIP3    H236050   6.219   6.135   7.831  0.9178 -1.9242 -2.2703
 4831TIP3   OH236051   6.458   2.272   2.318  0.2842 -0.1658 -0.3597
 4831TIP3    H136052   6.529   2.295   2.378 -0.0196 -2.8787  1.1895
 4831TIP3    H236053   6.494   2.203   2.263 -0.6569 -0.4513 -0.6416
 4832TIP3   OH236054   3.501   4.226   0.588  0.3208 -0.4159  0.4712
 4832TIP3    H136055   3.563   4.159   0.615  0.6509  0.8252  3.1087
 4832TIP3    H236056   3.417   4.198   0.625  0.5631  0.8081  2.0477
 4833TIP3   OH236057   6.453   5.940   2.090 -0.6494  0.0000  0.2246
 4833TIP3    H136058   6.463   5.911   2.000 -1.1556 -0.8222  0.4228
 4833TIP3    H236059   6.495   6.027   2.092 -0.0169 -0.2694 -0.6228
 4834TIP3   OH236060   1.667   1.707   1.869 -0.0551 -0.6900 -0.6663
 4834TIP3    H136061   1.637   1.678   1.783  0.3819  0.0489 -1.0786
 4834TIP3    H236062   1.711   1.791   1.853  0.1575 -0.6060  0.2550
 4835TIP3   OH236063   1.352   1.899   0.243 -0.1378 -0.2368  0.3687
 4835TIP3    H136064   1.274   1.871   0.196 -0.2698  0.1302  0.3676
 4835TIP3    H236065   1.323   1.975   0.295 -0.1631 -1.0144  1.5391
 4836TIP3   OH236066   2.923   0.742   1.804 -0.2118 -0.5636 -0.6386
 4836TIP3    H136067   3.001   0.796   1.791 -0.9514  0.1709 -2.3179
 4836TIP3    H236068   2.956   0.652   1.807  0.8257 -0.1801  0.1893
 4837TIP3   OH236069   1.448   6.754   1.974 -0.4335  0.1457  0.0791
 4837TIP3    H136070   1.413   6.827   2.025 -1.3721  0.0435 -0.4052
 4837TIP3    H236071   1.453   6.681   2.036  0.2381  0.5258  0.4911
 4838TIP3   OH236072   3.795   4.575   1.173  0.1947  0.4124 -0.4828
 4838TIP3    H136073   3.840   4.655   1.199 -0.4167  1.8557 -3.4386
 4838TIP3    H236074   3.855   4.532   1.113 -0.1058 -0.6157 -0.0738
 4839TIP3   OH236075   5.438   6.676   0.918  0.2502  0.3266 -0.5884
 4839TIP3    H136076   5.484   6.664   1.001  1.2271  0.1310 -1.1397
 4839TIP3    H236077   5.367   6.612   0.920  1.9764 -1.7414 -1.0732
 4840TIP3   OH236078   5.688   4.195   2.796 -0.5102  0.1009  0.0100
 4840TIP3    H136079   5.756   4.145   2.843  1.0599  1.5751 -0.5892
 4840TIP3    H236080   5.626   4.220   2.865 -0.4897 -1.2948  0.5778
 4841TIP3   OH236081   6.268   5.897   0.376  0.4902  0.8927  0.3694
 4841TIP3    H136082   6.270   5.993   0.380  0.0454  0.9701 -0.7477
 4841TIP3    H236083   6.327   5.875   0.303 -0.0296  0.3638  0.1026
 4842TIP3   OH236084   4.185   3.535   1.304 -0.2069  0.1195 -0.7570
 4842TIP3    H136085   4.141   3.468   1.252 -0.0063  0.2884 -1.1570
 4842TIP3    H236086   4.131   3.614   1.293 -1.1758 -0.2959  0.7933
 4843TIP3   OH236087   2.744   6.520   2.483  0.3481  0.0708  0.6304
 4843TIP3    H136088   2.767   6.507   2.575  1.6557  1.4467  0.5335
 4843TIP3    H236089   2.766   6.437   2.441  1.5162  0.0472  1.2497
 4844TIP3   OH236090   1.299   1.558   2.226  0.0082  0.1937  0.0600
 4844TIP3    H136091   1.326   1.644   2.260  0.2434  0.9707 -1.9886
 4844TIP3    H236092   1.373   1.500   2.247  0.8181  1.0065 -0.4841
 4845TIP3   OH236093   3.918   2.658   0.540 -0.1849 -0.1896 -0.2114
 4845TIP3    H136094   3.898   2.636   0.631  1.9863  0.9946  0.6364
 4845TIP3    H236095   3.875   2.742   0.525  1.6017  0.9426  0.6650
 4846TIP3   OH236096   3.376   0.788   2.336 -0.2501  0.2238  0.6095
 4846TIP3    H136097   3.433   0.797   2.260  0.7225  2.6735  1.5437
 4846TIP3    H236098   3.290   0.765   2.298  0.2662  1.0630 -1.1884
 4847TIP3   OH236099   5.792   4.683   8.359  0.3830  0.3683  0.0736
 4847TIP3    H136100   5.728   4.695   8.289  1.0176  0.3719 -0.5075
 4847TIP3    H236101   5.738   4.669   8.438 -0.3304  0.5778 -0.3676
 4848TIP3   OH236102   0.119   6.046   3.882  0.2204  0.4995 -0.0228
 4848TIP3    H136103   0.118   6.134   3.921  0.9910 -0.2368  1.7541
 4848TIP3    H236104   0.201   6.043   3.833  0.9610  0.2764  1.1908
 4849TIP3   OH236105   6.359   5.071   1.610  0.2965  0.2270  0.2512
 4849TIP3    H136106   6.377   4.982   1.580 -0.1111  0.4671 -0.7643
 4849TIP3    H236107   6.401   5.077   1.696  1.4020 -0.5451 -0.2105
 4850TIP3   OH236108   4.305   1.845   1.344 -0.2222 -0.1817  0.2437
 4850TIP3    H136109   4.367   1.847   1.417  1.1693 -1.0875 -0.8385
 4850TIP3    H236110   4.277   1.754   1.338 -0.1809 -0.1586 -0.4386
 4851TIP3   OH236111   2.192   2.867   2.673  0.4980 -0.1919  0.3284
 4851TIP3    H136112   2.263   2.852   2.736  0.1939 -1.0628  0.4637
 4851TIP3    H236113   2.184   2.963   2.669  2.6430  0.0204 -0.7525
 4852TIP3   OH236114   3.134   2.010   8.430 -0.1253  0.3331 -0.2203
 4852TIP3    H136115   3.198   2.041   8.493  0.6235  1.0818 -1.3007
 4852TIP3    H236116   3.049   2.036   8.466  0.4097  2.7741 -0.5496
 4853TIP3   OH236117   6.138   0.226   0.888 -0.0532  0.3216  0.1276
 4853TIP3    H136118   6.068   0.278   0.851  0.2937  1.6532  1.2755
 4853TIP3    H236119   6.139   0.249   0.981 -0.3679 -2.2888  0.8608
 4854TIP3   OH236120   5.577   1.069   1.458  0.8195  0.1052  0.6115
 4854TIP3    H136121   5.665   1.049   1.490  1.1554  1.0007  0.2953
 4854TIP3    H236122   5.528   0.988   1.470  1.7021 -0.4266  0.7497
 4855TIP3   OH236123   0.690   5.050   1.269 -0.0645 -0.2442  0.2319
 4855TIP3    H136124   0.601   5.079   1.289 -0.3140 -0.0453 -1.0521
 4855TIP3    H236125   0.745   5.126   1.289 -0.6013  0.8936 -2.1790
 4856TIP3   OH236126   1.683   5.638   2.220  0.6337  0.7246 -0.2698
 4856TIP3    H136127   1.716   5.578   2.287  0.1781 -0.6112 -1.2107
 4856TIP3    H236128   1.610   5.591   2.180 -1.6886  3.0808  0.9153
 4857TIP3   OH236129   4.306   2.959   0.585  0.5176  0.1563 -0.1819
 4857TIP3    H136130   4.330   2.890   0.524 -1.4391 -1.2329  0.5247
 4857TIP3    H236131   4.247   3.015   0.535  0.1231 -0.1141 -0.0209
 4858TIP3   OH236132   1.413   1.688   0.688 -0.1481 -0.0327  0.0515
 4858TIP3    H136133   1.386   1.740   0.764  0.6379  0.4582  0.0180
 4858TIP3    H236134   1.334   1.678   0.635 -0.6245 -0.0829  0.7620
 4859TIP3   OH236135   6.137   2.113   1.706 -0.0331  0.0044 -0.0197
 4859TIP3    H136136   6.205   2.146   1.647 -0.9386  1.9263 -0.0786
 4859TIP3    H236137   6.156   2.156   1.789 -1.0367  0.3823  0.0170
 4860TIP3   OH236138   0.490   1.413   7.804  0.5841  0.0257 -0.1154
 4860TIP3    H136139   0.567   1.364   7.775  1.5593  0.6335  1.3568
 4860TIP3    H236140   0.495   1.496   7.758  0.6027 -0.0658 -0.2810
 4861TIP3   OH236141   3.395   5.067   1.121 -0.5202  0.2938  0.0041
 4861TIP3    H136142   3.408   4.975   1.140  0.7789  0.6430  0.9478
 4861TIP3    H236143   3.302   5.075   1.099 -0.5820 -1.2615 -0.3690
 4862TIP3   OH236144   6.180   2.901   0.544 -0.7836 -0.2643 -0.7252
 4862TIP3    H136145   6.275   2.886   0.539 -0.5824  0.0252  1.4961
 4862TIP3    H236146   6.146   2.864   0.462  1.3199  0.4016 -1.9986
 4863TIP3   OH236147   2.755   3.840   2.440  0.8908 -0.0685 -0.1627
 4863TIP3    H136148   2.703   3.761   2.454  1.7066 -0.8343 -1.3237
 4863TIP3    H236149   2.690   3.910   2.433  0.1251 -0.7217  0.2683
 4864TIP3   OH236150   3.103   4.463   7.442  0.4230  0.9388  0.2128
 4864TIP3    H136151   3.029   4.467   7.503 -0.2668  3.0063 -0.6745
 4864TIP3    H236152   3.062   4.457   7.355  1.3383  1.0447 -0.2319
 4865TIP3   OH236153   2.069   1.287   2.235 -0.2312 -0.2938  0.3041
 4865TIP3    H136154   2.064   1.382   2.244 -0.7687 -0.3507  0.6909
 4865TIP3    H236155   2.031   1.253   2.317  1.0167 -0.8454  0.6705
 4866TIP3   OH236156   5.167   5.041   0.431 -0.1013  0.5643 -0.5368
 4866TIP3    H136157   5.155   4.997   0.516 -0.2982  0.6714 -0.5079
 4866TIP3    H236158   5.102   5.000   0.374 -1.6417  2.1132 -0.0109
 4867TIP3   OH236159   4.784   4.226   2.529  0.5281  0.0276 -0.4373
 4867TIP3    H136160   4.726   4.296   2.558  1.0642  0.7899 -1.1618
 4867TIP3    H236161   4.846   4.269   2.469  1.7626 -0.7855  0.2089
 4868TIP3   OH236162   6.356   2.186   0.240  0.3137  0.4642 -0.2301
 4868TIP3    H136163   6.288   2.252   0.228 -1.0918 -1.2550 -2.6394
 4868TIP3    H236164   6.433   2.223   0.196 -0.1149  0.9939 -0.5468
 4869TIP3   OH236165   2.477   5.964   0.927 -0.3950  0.0826 -0.2353
 4869TIP3    H136166   2.534   6.002   0.861  1.8549 -2.4382  0.0849
 4869TIP3    H236167   2.469   5.872   0.903  0.4072 -0.9293  2.8359
 4870TIP3   OH236168   6.111   5.196   1.505 -0.0261 -1.0000 -0.1556
 4870TIP3    H136169   6.153   5.114   1.531 -1.8073 -1.2886  2.2417
 4870TIP3    H236170   6.169   5.264   1.540  1.0435 -1.1990 -1.4529
 4871TIP3   OH236171   5.762   3.432   8.073 -0.3868 -0.1805 -0.3690
 4871TIP3    H136172   5.745   3.525   8.084 -0.7510 -0.1009 -1.4876
 4871TIP3    H236173   5.856   3.426   8.055 -0.1829 -0.1277  0.6246
 4872TIP3   OH236174   4.409   2.674   2.242 -0.6606 -0.1334 -0.0431
 4872TIP3    H136175   4.448   2.586   2.243 -1.0178 -0.2875  0.4825
 4872TIP3    H236176   4.352   2.673   2.165 -2.4263 -1.1580  1.1878
 4873TIP3   OH236177   0.368   2.167   8.144  0.0039  0.1331  0.3040
 4873TIP3    H136178   0.288   2.218   8.138  0.7614  1.4017  0.4938
 4873TIP3    H236179   0.438   2.233   8.152  1.1213 -0.9099 -0.4464
 4874TIP3   OH236180   0.622   6.122   3.197 -0.4628 -0.0351  0.6177
 4874TIP3    H136181   0.656   6.036   3.222  3.9264  0.9242 -1.1456
 4874TIP3    H236182   0.653   6.181   3.266 -2.0217  0.4688  0.9442
 4875TIP3   OH236183   5.928   0.293   0.034  0.0485 -0.3995  0.0353
 4875TIP3    H136184   5.913   0.290  -0.060 -1.1014 -2.6370  0.2201
 4875TIP3    H236185   5.891   0.210   0.067  1.7628 -0.3751  2.2480
 4876TIP3   OH236186   2.182   2.460   2.158  0.7463 -0.0252  0.5558
 4876TIP3    H136187   2.153   2.472   2.249  1.8367  2.3535  0.6619
 4876TIP3    H236188   2.110   2.412   2.117 -0.5448  0.3163  2.2575
 4877TIP3   OH236189   6.180   6.841   2.085 -0.3979  0.0830 -0.2395
 4877TIP3    H136190   6.173   6.837   1.990  0.5979  3.6948 -0.6189
 4877TIP3    H236191   6.101   6.887   2.113  0.6953  1.7332  0.2763
 4878TIP3   OH236192   1.049   1.472   2.456  0.5355 -0.1343  0.3066
 4878TIP3    H136193   1.144   1.474   2.463  0.5807 -0.4172 -0.1841
 4878TIP3    H236194   1.027   1.379   2.461  0.5808 -0.4247 -3.1454
 4879TIP3   OH236195   5.303   2.085   1.617  0.1086 -0.0510 -0.3109
 4879TIP3    H136196   5.287   2.081   1.711  4.2961 -0.0447  0.6112
 4879TIP3    H236197   5.238   2.026   1.578 -0.0975 -2.1498  2.8737
 4880TIP3   OH236198   0.678   1.694   0.356 -0.7398 -0.0610  0.0950
 4880TIP3    H136199   0.691   1.604   0.326  0.0672 -0.1133  0.5841
 4880TIP3    H236200   0.671   1.687   0.451 -0.1495  0.4484  0.1800
 4881TIP3   OH236201   0.779   3.950   8.176 -0.7900 -0.6224  0.3406
 4881TIP3    H136202   0.781   4.046   8.180  1.0768 -0.6586  1.4424
 4881TIP3    H236203   0.763   3.931   8.083  2.3222  0.8407 -0.6397
 4882TIP3   OH236204   3.874   0.816   8.010  0.3623 -0.6174  0.4491
 4882TIP3    H136205   3.948   0.785   7.959 -0.0534 -1.3761  0.2885
 4882TIP3    H236206   3.904   0.814   8.101  0.9033  0.1592  0.2916
 4883TIP3   OH236207   2.091   2.143   0.154 -0.5224  0.4962  0.2250
 4883TIP3    H136208   2.049   2.208   0.210  0.7683  0.2302  1.5794
 4883TIP3    H236209   2.029   2.071   0.149 -1.4387  1.2940 -0.2649
 4884TIP3   OH236210   1.646   3.087   0.796 -0.2020 -0.3052  0.1204
 4884TIP3    H136211   1.610   3.005   0.829 -0.2227 -1.2412 -2.0748
 4884TIP3    H236212   1.573   3.149   0.804 -0.9221 -1.0800 -0.2934
 4885TIP3   OH236213   1.513   2.042   1.246 -0.6314 -0.2522  0.0054
 4885TIP3    H136214   1.523   1.947   1.243 -1.6067 -0.3792  0.2969
 4885TIP3    H236215   1.571   2.074   1.177 -1.9228 -1.2026 -1.6057
 4886TIP3   OH236216   0.407   2.367   2.515 -0.3373 -0.3051 -0.0753
 4886TIP3    H136217   0.503   2.368   2.518 -0.3503  0.1676  0.5411
 4886TIP3    H236218   0.381   2.437   2.576 -1.0882 -1.3519  0.8530
 4887TIP3   OH236219   3.691   0.633   8.049 -0.0271  0.1855  0.0919
 4887TIP3    H136220   3.753   0.698   8.018  1.5973 -1.5513 -0.5026
 4887TIP3    H236221   3.643   0.606   7.972  1.7070 -1.7225 -0.4239
 4888TIP3   OH236222   0.484   1.238   1.522  0.4664  0.4328  0.2649
 4888TIP3    H136223   0.469   1.307   1.457 -0.6251 -0.0817 -0.0544
 4888TIP3    H236224   0.449   1.159   1.481 -0.0680  0.0578  1.4110
 4889TIP3   OH236225   4.229   5.752   1.583  0.1911  0.2474 -0.5985
 4889TIP3    H136226   4.136   5.738   1.570 -0.3512  0.8785  1.9827
 4889TIP3    H236227   4.235   5.840   1.621  1.8553  0.2351 -0.7349
 4890TIP3   OH236228   3.011   5.682   0.332 -0.0783 -0.2364 -0.4541
 4890TIP3    H136229   2.995   5.737   0.255 -1.0661  0.7897  0.4465
 4890TIP3    H236230   2.933   5.693   0.386 -0.8095 -3.3634 -0.6899
 4891TIP3   OH236231   6.543   3.484   8.304  0.3981  0.7697 -0.3215
 4891TIP3    H136232   6.522   3.518   8.391 -1.7284  1.6736 -1.1254
 4891TIP3    H236233   6.542   3.560   8.247 -0.7071 -0.1079 -1.5348
 4892TIP3   OH236234   6.707   3.407   1.752  0.6218 -0.4244 -0.1660
 4892TIP3    H136235   6.784   3.457   1.779  0.1381 -0.2782  1.0107
 4892TIP3    H236236   6.702   3.420   1.658  0.5003  1.8032  0.0929
 4893TIP3   OH236237   0.468   4.399   2.102 -0.2012 -0.1306  0.1838
 4893TIP3    H136238   0.500   4.440   2.182  1.0848 -1.5463  0.4534
 4893TIP3    H236239   0.415   4.467   2.059 -0.6553  0.7579  2.0480
 4894TIP3   OH236240   6.164   4.730   0.855 -0.3624 -0.0273  0.3896
 4894TIP3    H136241   6.148   4.665   0.788  0.0331 -0.9037  1.1268
 4894TIP3    H236242   6.083   4.733   0.906 -0.6154  0.5460 -0.0231
 4895TIP3   OH236243   3.855   5.458   2.817  0.2420 -0.1768 -0.6032
 4895TIP3    H136244   3.804   5.539   2.812  0.2596 -0.1869 -0.9638
 4895TIP3    H236245   3.889   5.457   2.907 -0.9714 -0.5287 -0.1379
 4896TIP3   OH236246   6.294   2.102   2.651  0.5553 -0.2859  0.6743
 4896TIP3    H136247   6.281   2.072   2.741 -0.5397 -0.2172  0.5442
 4896TIP3    H236248   6.213   2.080   2.606  1.4491 -1.2143 -0.5574
 4897TIP3   OH236249   3.928   0.252   3.459  0.6854 -0.6268 -0.0025
 4897TIP3    H136250   4.012   0.264   3.415  0.5655  1.0818  0.1950
 4897TIP3    H236251   3.935   0.165   3.499  2.5017 -0.3631  0.3438
 4898TIP3   OH236252   5.606   4.879   7.860  0.0838 -0.6538  0.2647
 4898TIP3    H136253   5.636   4.910   7.774  0.6229 -1.9770 -0.0546
 4898TIP3    H236254   5.513   4.898   7.861  0.6539  2.7690  0.9278
 4899TIP3   OH236255   5.531   0.275   3.002  0.0074  0.0537 -0.2069
 4899TIP3    H136256   5.499   0.312   3.084 -1.6233 -0.1921 -0.6910
 4899TIP3    H236257   5.617   0.240   3.023 -0.4241 -0.0999  1.4188
 4900TIP3   OH236258   1.701   6.905   8.130  0.0351  0.0896  0.2354
 4900TIP3    H136259   1.742   6.927   8.047  1.6215 -1.9612  0.3859
 4900TIP3    H236260   1.620   6.956   8.131 -0.1935 -0.0342 -2.6850
 4901TIP3   OH236261   5.629   5.626   1.660  0.0324 -0.1173 -0.2123
 4901TIP3    H136262   5.614   5.594   1.571 -0.7548  0.2504 -0.2213
 4901TIP3    H236263   5.700   5.689   1.652 -1.0127  1.0187 -0.8393
 4902TIP3   OH236264   0.711   5.496   0.112  0.2095 -0.1144 -0.7130
 4902TIP3    H136265   0.750   5.569   0.065 -0.9600  1.1762  0.2211
 4902TIP3    H236266   0.622   5.525   0.132  0.1880 -1.1731  1.0040
 4903TIP3   OH236267   5.062   3.489   7.606 -0.1874  0.3912  0.3134
 4903TIP3    H136268   5.029   3.411   7.562  0.3978 -1.0144  2.2422
 4903TIP3    H236269   4.993   3.554   7.595 -0.4595 -0.1908 -1.7846
 4904TIP3   OH236270   3.449   2.145   8.412 -0.1658 -0.6837 -0.7358
 4904TIP3    H136271   3.434   2.218   8.473  0.0829 -0.8657 -0.4550
 4904TIP3    H236272   3.540   2.155   8.385 -0.4346 -0.2795 -1.5124
 4905TIP3   OH236273   6.836   5.774   3.251 -0.2385 -0.1801  0.4155
 4905TIP3    H136274   6.910   5.798   3.196 -1.2483 -0.5479 -1.1989
 4905TIP3    H236275   6.865   5.696   3.298  0.0836 -0.9701 -1.0183
 4906TIP3   OH236276   5.462   2.443   1.908  0.2762 -0.1409  0.0330
 4906TIP3    H136277   5.555   2.424   1.910 -0.1057 -2.1430  0.1790
 4906TIP3    H236278   5.437   2.435   1.815 -0.0135 -1.1161  0.1819
 4907TIP3   OH236279   2.671   2.201   2.890 -0.2824 -0.1051  0.7208
 4907TIP3    H136280   2.717   2.120   2.911 -1.5598 -0.9210  0.4799
 4907TIP3    H236281   2.618   2.220   2.967 -1.2419 -0.4269  0.1620
 4908TIP3   OH236282   2.023   2.990   1.828 -0.1055 -0.2244  0.2731
 4908TIP3    H136283   1.994   2.940   1.904  0.5901  0.6710  1.1539
 4908TIP3    H236284   2.118   2.982   1.829  0.0173  0.9863  0.3710
 4909TIP3   OH236285   4.012   6.257   2.805 -0.9024  0.2368 -0.0201
 4909TIP3    H136286   3.929   6.295   2.774 -1.2702 -0.6041 -0.1055
 4909TIP3    H236287   3.994   6.229   2.895 -0.4283  0.8764  0.2823
 4910TIP3   OH236288   4.106   4.901   0.098 -0.1487 -0.2969  0.1084
 4910TIP3    H136289   4.158   4.957   0.156  0.5869  1.7073 -2.3180
 4910TIP3    H236290   4.054   4.848   0.157  0.6747  1.4806  2.6131
 4911TIP3   OH236291   3.263   1.914   2.845 -0.2786  0.2435 -0.1438
 4911TIP3    H136292   3.238   1.866   2.766  0.1426 -1.1666  0.5431
 4911TIP3    H236293   3.280   1.846   2.910  2.1644  1.2395  0.3631
 4912TIP3   OH236294   3.275   4.291   0.756 -0.7015  0.3223 -0.3659
 4912TIP3    H136295   3.308   4.378   0.734 -0.9573  0.4774 -0.1421
 4912TIP3    H236296   3.316   4.271   0.840  0.1537 -0.2036 -0.8938
 4913TIP3   OH236297   4.624   2.429   1.523 -0.2909  0.0212 -0.4666
 4913TIP3    H136298   4.717   2.447   1.514 -0.1151 -0.7776 -0.2630
 4913TIP3    H236299   4.587   2.510   1.558  0.5365 -0.1128  0.7412
 4914TIP3   OH236300   2.780   2.335   1.357  0.3762 -0.5298 -0.1870
 4914TIP3    H136301   2.719   2.288   1.300  1.2297 -0.4941 -1.1339
 4914TIP3    H236302   2.806   2.412   1.307  1.1780 -0.5216  0.2300
 4915TIP3   OH236303   3.249   5.550   2.010 -0.3552  0.3711  0.0911
 4915TIP3    H136304   3.271   5.514   2.096  0.3929 -1.9341 -0.9985
 4915TIP3    H236305   3.260   5.645   2.020 -1.4365  0.2905  2.8387
 4916TIP3   OH236306   6.283   4.223   3.611  0.3708  0.8472 -0.3457
 4916TIP3    H136307   6.273   4.317   3.621  1.1775  0.7993  1.2347
 4916TIP3    H236308   6.374   4.206   3.633  0.2728 -0.2943 -0.7504
 4917TIP3   OH236309   6.084   3.254   1.060  0.1271 -0.4982  0.0819
 4917TIP3    H136310   5.993   3.228   1.073 -0.2271  0.6205 -0.0912
 4917TIP3    H236311   6.134   3.193   1.115 -0.5973 -1.9629 -0.8266
 4918TIP3   OH236312   1.112   6.359   1.681  0.0428 -0.7641 -0.0042
 4918TIP3    H136313   1.166   6.437   1.668 -0.3641 -0.4319  0.3018
 4918TIP3    H236314   1.044   6.386   1.742 -1.5600 -0.6553 -1.7480
 4919TIP3   OH236315   3.663   1.971   2.293  0.2114 -0.2525  0.0654
 4919TIP3    H136316   3.758   1.960   2.297  0.4180  0.5578 -1.5222
 4919TIP3    H236317   3.642   2.027   2.367  1.3509  1.5078 -0.8589
 4920TIP3   OH236318   0.971   2.694   2.917  0.2818  0.1538  0.0627
 4920TIP3    H136319   1.063   2.669   2.922  0.5609  1.2470  0.6754
 4920TIP3    H236320   0.923   2.613   2.930  1.1486 -0.0972  1.9791
 4921TIP3   OH236321   2.926   0.283   1.460 -0.3858 -0.2515 -0.3042
 4921TIP3    H136322   2.864   0.295   1.532  0.4524 -1.1504  0.6248
 4921TIP3    H236323   2.957   0.371   1.440  1.0480 -0.1245  2.0354
 4922TIP3   OH236324   4.968   6.111   1.337 -0.1855  0.1411  0.3019
 4922TIP3    H136325   4.909   6.167   1.388 -0.1271  0.4862 -0.0135
 4922TIP3    H236326   5.051   6.159   1.335  0.2822 -0.5944  1.2179
 4923TIP3   OH236327   2.606   0.985   2.892  0.5349 -0.4663  0.5023
 4923TIP3    H136328   2.588   0.891   2.894  0.1204 -0.4068 -0.3777
 4923TIP3    H236329   2.643   1.001   2.806 -0.0152  0.2934  0.4000
 4924TIP3   OH236330   3.861   0.714   1.991  0.2778  0.5025 -0.3672
 4924TIP3    H136331   3.839   0.679   1.904  2.0506  1.7089 -1.3610
 4924TIP3    H236332   3.865   0.638   2.048 -0.3982 -0.3779 -1.4591
 4925TIP3   OH236333   3.937   0.206   7.783  0.1842  1.4537 -0.4527
 4925TIP3    H136334   3.843   0.192   7.780  0.2327 -0.1139  2.3578
 4925TIP3    H236335   3.964   0.203   7.691 -2.3060  0.6153 -1.2398
 4926TIP3   OH236336   3.840   5.092   3.438 -0.3943  0.1914  0.2905
 4926TIP3    H136337   3.802   5.023   3.493 -0.0864 -0.1997  0.0215
 4926TIP3    H236338   3.771   5.158   3.431 -0.8045 -0.2284  0.3122
 4927TIP3   OH236339   6.615   4.902   3.368 -0.1657 -0.0329  0.0289
 4927TIP3    H136340   6.580   4.855   3.292  0.2776 -2.0881  0.9986
 4927TIP3    H236341   6.565   4.983   3.373 -0.1686  0.1818 -2.4604
 4928TIP3   OH236342   3.303   4.641   7.617  0.0996 -0.0705  0.4485
 4928TIP3    H136343   3.228   4.626   7.560 -1.0072 -1.5888  2.2021
 4928TIP3    H236344   3.269   4.699   7.686  0.8994  0.2403  0.5963
 4929TIP3   OH236345   2.588   4.119   8.124 -0.4525 -0.0005  0.3106
 4929TIP3    H136346   2.633   4.064   8.060  0.7752  0.4976  0.7227
 4929TIP3    H236347   2.644   4.117   8.201 -1.6955 -0.2476  1.2346
 4930TIP3   OH236348   2.942   3.939   0.694 -0.0152 -0.6468 -0.7201
 4930TIP3    H136349   2.880   3.898   0.755  1.1382 -0.2091  0.7950
 4930TIP3    H236350   2.955   4.027   0.729  0.5786 -0.3321 -1.6973
 4931TIP3   OH236351   3.823   3.975   2.298 -0.1080 -0.5856  0.2838
 4931TIP3    H136352   3.833   4.059   2.342  1.4666 -0.7830  0.3600
 4931TIP3    H236353   3.823   3.911   2.369  0.2272 -0.7469  0.1420
 4932TIP3   OH236354   0.749   4.934   8.460  0.1841  0.4209  0.3440
 4932TIP3    H136355   0.723   4.907   8.372  1.6985  0.4282 -0.1362
 4932TIP3    H236356   0.692   5.008   8.480  0.3922  0.9667 -0.9773
 4933TIP3   OH236357   4.500   6.778   8.073 -0.3265 -0.3297  0.0928
 4933TIP3    H136358   4.506   6.794   8.168 -0.0676 -1.6454  0.3229
 4933TIP3    H236359   4.501   6.683   8.065 -1.6746 -0.2746 -1.1594
 4934TIP3   OH236360   1.120   5.616   0.587 -0.5618  0.1253 -0.0165
 4934TIP3    H136361   1.068   5.697   0.586  0.2831  0.6877 -0.2412
 4934TIP3    H236362   1.055   5.546   0.581 -1.4286  0.7129  1.8085
 4935TIP3   OH236363   2.564   5.570   8.288  0.6828 -0.2323  0.7385
 4935TIP3    H136364   2.530   5.485   8.261 -2.2452  0.9026  0.4837
 4935TIP3    H236365   2.627   5.594   8.220 -1.1214 -0.6694 -1.1942
 4936TIP3   OH236366   4.147   5.862   0.043 -0.0090  0.2215 -0.1756
 4936TIP3    H136367   4.106   5.891  -0.038 -1.7987 -1.5031  0.0387
 4936TIP3    H236368   4.192   5.780   0.020 -0.2619 -0.1176  0.4903
 4937TIP3   OH236369   3.752   1.241   3.243 -0.5319 -0.0043 -0.1865
 4937TIP3    H136370   3.778   1.159   3.286 -0.2329  0.2365  0.0946
 4937TIP3    H236371   3.817   1.304   3.271  0.1578 -0.0215 -1.6236
 4938TIP3   OH236372   1.138   1.339   8.138  0.2404  0.7027  0.1075
 4938TIP3    H136373   1.063   1.281   8.126 -0.0827  0.7220  1.6862
 4938TIP3    H236374   1.104   1.426   8.117  0.3426  0.4910 -0.9534
 4939TIP3   OH236375   3.633   3.711   0.798 -0.1493  0.2282 -0.8733
 4939TIP3    H136376   3.600   3.801   0.794 -1.8226 -0.2397  0.9863
 4939TIP3    H236377   3.699   3.713   0.868  1.2097  0.3784 -2.1218
 4940TIP3   OH236378   0.345   0.551   1.771  0.5306 -0.7023  0.1034
 4940TIP3    H136379   0.339   0.639   1.808  0.4181 -1.0117  0.8380
 4940TIP3    H236380   0.313   0.494   1.840 -3.2701 -1.0516 -1.6987
 4941TIP3   OH236381   1.049   4.960   0.240 -0.3670 -0.1328  0.4370
 4941TIP3    H136382   1.002   4.884   0.206  2.3011 -0.9396 -1.8121
 4941TIP3    H236383   1.021   5.032   0.184  0.0116 -0.3237 -0.0075
 4942TIP3   OH236384   2.613   2.583   3.057  0.2409 -0.3599 -0.2793
 4942TIP3    H136385   2.693   2.618   3.096  1.4686 -1.3223 -1.8321
 4942TIP3    H236386   2.547   2.593   3.125  1.3264  1.7784  0.5514
 4943TIP3   OH236387   5.858   3.986   8.233  0.0756 -0.0229 -0.8990
 4943TIP3    H136388   5.804   4.035   8.295 -0.4861  0.2619 -1.5903
 4943TIP3    H236389   5.947   3.993   8.267 -0.3580 -0.7860  0.4457
 4944TIP3   OH236390   3.109   2.567   1.735 -0.1855  0.0558  0.1845
 4944TIP3    H136391   3.139   2.656   1.752  0.4039 -0.1150  0.0760
 4944TIP3    H236392   3.017   2.567   1.761  0.1574  0.3371  1.4867
 4945TIP3   OH236393   4.875   3.279   2.374  0.2785 -0.0394  0.1587
 4945TIP3    H136394   4.847   3.206   2.428 -1.5417  0.4895 -0.0130
 4945TIP3    H236395   4.836   3.356   2.416  1.0933  0.6913 -0.3864
 4946TIP3   OH236396   4.272   4.021   1.348  0.4161  0.1664 -0.0670
 4946TIP3    H136397   4.206   4.064   1.402  0.7494 -0.1045  0.5613
 4946TIP3    H236398   4.335   3.985   1.410  1.7806  1.3917 -0.6792
 4947TIP3   OH236399   1.671   5.047   1.170  0.0566  0.2308 -0.1706
 4947TIP3    H136400   1.655   5.070   1.261  0.3852  1.3196 -0.3804
 4947TIP3    H236401   1.760   5.013   1.169 -0.2596 -0.6558  0.0518
 4948TIP3   OH236402   2.242   0.015   0.295 -0.3404 -0.2669  0.5723
 4948TIP3    H136403   2.317   0.064   0.262  0.4842 -1.9559 -0.1915
 4948TIP3    H236404   2.229   0.047   0.384  0.6346  0.7762  0.3481
 4949TIP3   OH236405   5.976   0.890   7.560  0.5354 -0.1893 -0.1223
 4949TIP3    H136406   6.006   0.804   7.532  0.2468 -0.4809  0.4584
 4949TIP3    H236407   5.890   0.900   7.521  0.7677  0.0419 -0.5868
 4950TIP3   OH236408   5.770   1.048   0.381  0.3036 -0.3961 -0.3378
 4950TIP3    H136409   5.717   1.117   0.342  0.3834  0.2046  0.6010
 4950TIP3    H236410   5.835   1.093   0.433 -0.1854 -1.1681  1.0071
 4951TIP3   OH236411   4.550   1.329   0.685  0.2952 -0.3458 -0.0753
 4951TIP3    H136412   4.604   1.301   0.612 -2.3059 -1.1094 -1.8519
 4951TIP3    H236413   4.528   1.420   0.667 -0.5025 -0.5890 -0.3881
 4952TIP3   OH236414   3.862   2.359   1.144  0.1403 -0.1896 -0.7059
 4952TIP3    H136415   3.819   2.401   1.219 -1.0875  1.2338 -2.1225
 4952TIP3    H236416   3.935   2.310   1.182  0.9708  2.3287  1.2148
 4953TIP3   OH236417   6.294   5.307   0.315  0.4614  0.4055  0.2235
 4953TIP3    H136418   6.242   5.233   0.285  1.8818 -0.7890  0.6291
 4953TIP3    H236419   6.378   5.299   0.270  0.8340  1.4773  0.6723
 4954TIP3   OH236420   3.155   6.120   0.166 -0.3612  0.2661  0.1945
 4954TIP3    H136421   3.233   6.088   0.120  0.2811  0.8569  0.8367
 4954TIP3    H236422   3.089   6.128   0.098 -0.0188 -0.7437 -0.2738
 4955TIP3   OH236423   0.766   3.574   2.792 -0.0226  0.2054  0.5831
 4955TIP3    H136424   0.705   3.531   2.732 -1.1672 -0.2072  2.0041
 4955TIP3    H236425   0.851   3.567   2.748 -1.0899  1.7207 -1.9197
 4956TIP3   OH236426   2.034   1.295   0.564  0.2562 -0.5552 -0.3021
 4956TIP3    H136427   2.005   1.204   0.552 -0.5733 -0.4462  0.6701
 4956TIP3    H236428   1.963   1.335   0.614  1.4742  0.1269  0.9417
 4957TIP3   OH236429   4.688   0.436   2.583 -0.4815  0.3244 -0.4220
 4957TIP3    H136430   4.643   0.373   2.640 -0.0560  0.8986  0.5683
 4957TIP3    H236431   4.636   0.435   2.502 -1.1081 -0.4969 -0.0327
 4958TIP3   OH236432   2.454   0.150   0.172 -0.5564  0.6450 -0.5761
 4958TIP3    H136433   2.488   0.062   0.186 -1.9258 -0.0430 -1.4332
 4958TIP3    H236434   2.473   0.169   0.080 -0.1758  1.2914 -0.3706
 4959TIP3   OH236435   1.477   1.983   0.004 -0.2711  0.5956  0.1219
 4959TIP3    H136436   1.397   2.020   0.040 -0.4838  0.2931 -0.0385
 4959TIP3    H236437   1.548   2.034   0.045 -0.4402 -0.5480  1.9272
 4960TIP3   OH236438   1.956   0.243   1.539 -0.6857 -0.7202  0.3672
 4960TIP3    H136439   1.963   0.155   1.502 -0.2982 -0.5925  0.1268
 4960TIP3    H236440   1.871   0.276   1.509  0.0739 -0.2075 -1.3397
 4961TIP3   OH236441   3.307   5.259   2.854 -1.1393  0.3900 -0.1758
 4961TIP3    H136442   3.323   5.283   2.945  0.9072 -0.3817 -0.2784
 4961TIP3    H236443   3.333   5.167   2.848  2.6101  1.3942 -2.3151
 4962TIP3   OH236444   1.125   4.700   7.969 -0.2239  0.5510  0.1415
 4962TIP3    H136445   1.173   4.779   7.945  0.5117  0.0567 -0.0461
 4962TIP3    H236446   1.056   4.692   7.903  1.0637 -0.1626 -1.1641
 4963TIP3   OH236447   6.414   4.187   0.652  0.3424  0.1592 -0.3724
 4963TIP3    H136448   6.457   4.225   0.575  0.1727 -1.3391 -1.2405
 4963TIP3    H236449   6.441   4.096   0.652  2.5874  0.6661  2.9839
 4964TIP3   OH236450   6.932   1.630   2.612  0.5518 -0.0327 -0.6774
 4964TIP3    H136451   6.900   1.692   2.547  0.3793  0.7764  0.1688
 4964TIP3    H236452   7.023   1.614   2.588  0.8560  1.2299 -0.3884
 4965TIP3   OH236453   2.887   2.279   3.666  0.5473  0.2748  0.2004
 4965TIP3    H136454   2.932   2.245   3.588  0.8672 -0.1206  0.5517
 4965TIP3    H236455   2.934   2.359   3.687  0.2222  0.5829 -0.2316
 4966TIP3   OH236456   6.325   1.904   0.247  0.8677 -0.6304  0.2440
 4966TIP3    H136457   6.327   1.999   0.253 -0.4714 -0.5992  0.4660
 4966TIP3    H236458   6.368   1.885   0.163 -1.8485  0.4148 -1.5310
 4967TIP3   OH236459   3.492   4.289   8.475  0.3416 -0.5728  0.6571
 4967TIP3    H136460   3.564   4.352   8.480 -0.6753  0.7548 -0.4982
 4967TIP3    H236461   3.418   4.334   8.514 -0.5730 -0.7616 -0.7783
 4968TIP3   OH236462   1.827   5.566   7.878 -0.6167 -0.5012  0.5823
 4968TIP3    H136463   1.789   5.478   7.874 -0.7956 -0.5406  2.2517
 4968TIP3    H236464   1.864   5.571   7.967  0.3535  0.7245  0.1306
 4969TIP3   OH236465   6.292   4.419   0.434  0.2659 -0.0338 -0.2764
 4969TIP3    H136466   6.337   4.373   0.362  1.8731  2.2956 -0.8917
 4969TIP3    H236467   6.360   4.429   0.501 -0.2747  0.7357  0.1600
 4970TIP3   OH236468   0.813   6.345   7.680 -0.0601  0.1615  0.4979
 4970TIP3    H136469   0.773   6.275   7.628  0.6150  0.0367  0.1175
 4970TIP3    H236470   0.866   6.394   7.616  0.4054  0.2975  0.9805
 4971TIP3   OH236471   6.909   1.989   8.297  0.2880  0.1120 -0.0562
 4971TIP3    H136472   6.916   1.918   8.361  2.5098  0.0450 -0.2973
 4971TIP3    H236473   6.906   2.069   8.349 -0.1879 -0.0491  0.1681
 4972TIP3   OH236474   6.273   6.476   0.250  0.0148  0.5602 -0.3131
 4972TIP3    H136475   6.239   6.409   0.309 -1.8806  0.3057 -1.5815
 4972TIP3    H236476   6.365   6.455   0.239  0.2416  0.1987  1.9344
 4973TIP3   OH236477   6.278   6.865   0.546  0.0038  0.1654 -0.1654
 4973TIP3    H136478   6.303   6.811   0.471 -0.7781 -0.2496 -0.1392
 4973TIP3    H236479   6.198   6.910   0.518  0.5687  1.2029 -0.1334
 4974TIP3   OH236480   5.472   1.390   7.762  0.2637 -0.2299  0.2128
 4974TIP3    H136481   5.540   1.324   7.778 -0.6095 -1.2180  0.0095
 4974TIP3    H236482   5.432   1.362   7.680 -1.3833 -0.5632  1.0889
 4975TIP3   OH236483   1.987   2.186   2.285  0.1070  0.7656 -0.3776
 4975TIP3    H136484   1.968   2.100   2.322 -0.5418  0.5052 -1.2760
 4975TIP3    H236485   2.023   2.236   2.358  0.4662 -0.2550  0.1699
 4976TIP3   OH236486   6.209   4.611   2.968  0.4328 -0.0188  0.5812
 4976TIP3    H136487   6.289   4.568   2.998  0.6059 -0.9830 -1.1502
 4976TIP3    H236488   6.238   4.696   2.935  0.2721  0.9544  2.7774
 4977TIP3   OH236489   4.025   3.081   2.701 -0.2449  0.4616 -0.1776
 4977TIP3    H136490   4.106   3.058   2.745 -1.0255 -0.1798  0.9766
 4977TIP3    H236491   4.048   3.152   2.642  1.2622 -0.0879 -0.2823
 4978TIP3   OH236492   6.179   1.591   0.620 -0.2161 -0.4406  0.2399
 4978TIP3    H136493   6.224   1.675   0.607  0.1174 -0.5043  0.9353
 4978TIP3    H236494   6.111   1.590   0.553 -0.2362  0.3938  0.2278
 4979TIP3   OH236495   1.508   2.014   2.478  0.2845  0.1375 -0.3442
 4979TIP3    H136496   1.499   1.994   2.571 -0.3355  0.1907 -0.3865
 4979TIP3    H236497   1.458   1.944   2.434  2.2331 -1.0697 -0.7505
 4980TIP3   OH236498   5.824   1.559   7.550  0.3753 -0.3750  0.9162
 4980TIP3    H136499   5.813   1.538   7.642  2.3911  1.6797  1.7127
 4980TIP3    H236500   5.898   1.505   7.521  0.4341 -0.2436  0.8151
 4981TIP3   OH236501   4.563   4.043   8.126  0.2140 -0.1304 -0.5240
 4981TIP3    H136502   4.612   4.096   8.189 -0.9414 -0.6414  0.8750
 4981TIP3    H236503   4.487   4.098   8.103  0.4420 -0.0936 -1.2246
 4982TIP3   OH236504   4.043   1.834   7.899  0.3879 -0.5732 -0.3469
 4982TIP3    H136505   3.967   1.849   7.843 -0.4782 -0.9097  0.7051
 4982TIP3    H236506   4.096   1.914   7.890 -1.2563  0.6791  0.6910
 4983TIP3   OH236507   0.208   4.207   7.543  0.7497  0.3029 -0.0032
 4983TIP3    H136508   0.172   4.232   7.458 -1.9610 -0.4632  0.8193
 4983TIP3    H236509   0.251   4.123   7.527 -1.7339 -0.9997 -0.2708
 4984TIP3   OH236510   4.300   6.906   1.121  0.2128  0.2783  0.3898
 4984TIP3    H136511   4.373   6.845   1.112 -0.9739 -1.1907  0.3680
 4984TIP3    H236512   4.336   6.990   1.093  2.0207 -0.2906  0.8380
 4985TIP3   OH236513   6.079   1.618   2.658 -0.3532  0.9340  0.2737
 4985TIP3    H136514   6.129   1.537   2.650 -0.9542  0.5111  0.7307
 4985TIP3    H236515   6.032   1.625   2.575  0.4157  1.3065 -0.1363
 4986TIP3   OH236516   0.369   0.055   1.179 -0.5715 -0.4235 -0.2550
 4986TIP3    H136517   0.354   0.147   1.202 -1.0426 -1.1777  2.9017
 4986TIP3    H236518   0.464   0.046   1.175 -0.5210  0.1337 -0.3412
 4987TIP3   OH236519   2.842   2.167   1.111  0.3020  0.2493  1.0053
 4987TIP3    H136520   2.790   2.244   1.088  1.7441  0.6978 -1.0563
 4987TIP3    H236521   2.929   2.186   1.075 -0.1484 -3.8659 -3.2774
 4988TIP3   OH236522   0.583   0.912   0.547 -0.0099 -0.6536 -0.4516
 4988TIP3    H136523   0.649   0.845   0.568 -0.9672 -1.9603 -1.3843
 4988TIP3    H236524   0.585   0.919   0.452 -1.0312 -0.5413 -0.4826
 4989TIP3   OH236525   4.724   4.466   7.764 -0.6404  0.5026  0.3095
 4989TIP3    H136526   4.679   4.443   7.845 -1.6002 -1.8147 -0.8138
 4989TIP3    H236527   4.817   4.448   7.781 -0.7104  0.9240  1.1659
 4990TIP3   OH236528   4.917   1.009   3.481  0.0460  0.4479  0.0054
 4990TIP3    H136529   4.889   0.918   3.486  2.0857 -0.1828  0.6838
 4990TIP3    H236530   4.910   1.042   3.571 -1.3822  1.2161 -0.3588
 4991TIP3   OH236531   5.757   6.802   3.181  0.9043 -0.0386  0.0692
 4991TIP3    H136532   5.816   6.761   3.118  0.7455 -0.1897  0.0184
 4991TIP3    H236533   5.731   6.731   3.240  0.5633 -0.0369 -0.0700
 4992TIP3   OH236534   6.113   4.742   1.940 -0.3333  0.0375 -0.2734
 4992TIP3    H136535   6.135   4.673   2.002  0.5017  0.2109 -0.3763
 4992TIP3    H236536   6.118   4.701   1.854  3.0986  0.8864 -0.5987
 4993TIP3   OH236537   5.552   1.122   3.596  0.1196  0.0759  0.5510
 4993TIP3    H136538   5.472   1.132   3.648  0.1679 -0.6275  0.7758
 4993TIP3    H236539   5.604   1.059   3.646 -0.0443 -0.9972 -0.5836
 4994TIP3   OH236540   4.408   6.500   2.169 -0.1387  0.9954  0.0114
 4994TIP3    H136541   4.365   6.562   2.110 -1.0187  0.3237 -0.0730
 4994TIP3    H236542   4.336   6.461   2.218  0.5111  0.9197  0.9302
 4995TIP3   OH236543   5.750   0.783   0.731  0.3519  0.6258  0.2038
 4995TIP3    H136544   5.728   0.697   0.695  1.0850  0.5407 -0.0560
 4995TIP3    H236545   5.763   0.768   0.824  2.7790 -0.0336 -0.1691
 4996TIP3   OH236546   3.390   0.645   7.935 -0.2097 -0.7317 -0.0625
 4996TIP3    H136547   3.342   0.727   7.946 -1.6649 -1.7663  2.2409
 4996TIP3    H236548   3.342   0.599   7.865 -1.2770 -0.8225  0.6956
 4997TIP3   OH236549   6.433   6.292   2.972  0.3977 -0.6624  0.7581
 4997TIP3    H136550   6.384   6.253   3.044 -0.2181 -0.5377  0.4213
 4997TIP3    H236551   6.387   6.263   2.893  0.2389  0.2979  0.4809
 4998TIP3   OH236552   6.643   1.211   7.539 -0.8106  0.4063  0.0227
 4998TIP3    H136553   6.674   1.251   7.457 -0.3656 -1.4094 -0.7494
 4998TIP3    H236554   6.699   1.134   7.550 -0.9818  0.5173  1.9705
 4999TIP3   OH236555   2.309   5.440   1.276  0.4128  0.4121  0.0524
 4999TIP3    H136556   2.222   5.406   1.254  0.1346  1.5020 -0.6128
 4999TIP3    H236557   2.310   5.442   1.372 -0.6570  1.2470  0.0700
 5000TIP3   OH236558   5.612   6.447   2.857  0.0653 -0.0447  0.5279
 5000TIP3    H136559   5.616   6.370   2.801  0.3302  1.7716 -2.1193
 5000TIP3    H236560   5.702   6.459   2.888  0.1639 -0.4111  0.3848
 5001TIP3   OH236561   6.470   5.051   1.894 -0.4802  0.1128  0.1132
 5001TIP3    H136562   6.535   4.981   1.902 -1.4304 -1.0253 -1.6398
 5001TIP3    H236563   6.436   5.062   1.983  1.5335  0.2150  0.9192
 5002TIP3   OH236564   0.581   2.304   1.138  0.4009 -0.1434  0.2415
 5002TIP3    H136565   0.605   2.234   1.198 -0.7179 -0.0315  0.8321
 5002TIP3    H236566   0.522   2.263   1.075  2.1151 -0.4421 -1.2662
 5003TIP3   OH236567   6.755   4.987   7.442 -0.1803 -0.8622 -0.4262
 5003TIP3    H136568   6.735   4.894   7.455 -0.9592 -0.5480  0.8376
 5003TIP3    H236569   6.818   5.008   7.511 -0.5473 -0.2940 -0.2565
 5004TIP3   OH236570   5.605   5.450   8.432  0.1931  0.4100 -0.2303
 5004TIP3    H136571   5.609   5.415   8.343  0.7041  0.5873 -0.2814
 5004TIP3    H236572   5.526   5.411   8.469 -1.3478  2.1515 -1.5119
 5005TIP3   OH236573   6.613   0.022   2.865  0.0697  0.2376  0.1803
 5005TIP3    H136574   6.533   0.073   2.852 -0.2757 -0.3431 -0.0472
 5005TIP3    H236575   6.652   0.016   2.778  1.0610  1.6125  0.4964
 5006TIP3   OH236576   4.302   3.299   8.217 -0.6612 -0.2644 -0.1717
 5006TIP3    H136577   4.260   3.337   8.140 -1.0505 -0.0285  0.1608
 5006TIP3    H236578   4.378   3.252   8.181  0.0949  1.1937 -0.5421
 5007TIP3   OH236579   5.824   6.474   0.665 -0.1478  0.4128 -0.0557
 5007TIP3    H136580   5.822   6.559   0.708 -0.5152  0.3341  0.0950
 5007TIP3    H236581   5.825   6.410   0.737 -0.0647  0.2888 -0.1655
 5008TIP3   OH236582   0.478   3.400   1.726 -0.2629  0.8880  0.0246
 5008TIP3    H136583   0.514   3.475   1.678  0.9579  0.8096  0.7870
 5008TIP3    H236584   0.520   3.323   1.686  0.1166  0.7670  0.6414
 5009TIP3   OH236585   1.307   5.429   8.434  0.3270 -0.6000 -1.2275
 5009TIP3    H136586   1.243   5.423   8.504  0.4111 -0.1006 -1.1053
 5009TIP3    H236587   1.378   5.370   8.460  0.4971 -0.1913 -0.7426
 5010TIP3   OH236588   0.431   1.890   7.461 -0.4559 -0.1726  0.0944
 5010TIP3    H136589   0.457   1.809   7.419 -0.6393  0.2010 -0.7691
 5010TIP3    H236590   0.405   1.947   7.389  0.8942  1.1109  0.5523
 5011TIP3   OH236591   0.932   3.617   0.945 -0.2915  0.5573 -0.0982
 5011TIP3    H136592   0.980   3.579   0.872 -1.0080  0.9925 -0.8083
 5011TIP3    H236593   0.936   3.550   1.014 -0.3045 -0.1968 -0.8190
 5012TIP3   OH236594   2.386   4.766   2.432 -0.0192  0.1743  0.0336
 5012TIP3    H136595   2.411   4.851   2.468  2.0284 -0.4325  0.1803
 5012TIP3    H236596   2.403   4.704   2.503 -2.4425 -0.3092  0.2856
 5013TIP3   OH236597   2.035   0.623   0.762 -0.1693 -0.6389 -0.0868
 5013TIP3    H136598   2.102   0.635   0.695  0.3277  0.6354  0.5925
 5013TIP3    H236599   2.066   0.550   0.815  0.7752  0.0180  0.2957
 5014TIP3   OH236600   1.992   3.588   8.165  0.1007 -0.2778 -0.6142
 5014TIP3    H136601   1.964   3.505   8.204 -1.2612  1.3755  2.2550
 5014TIP3    H236602   2.065   3.617   8.219 -0.9554  1.4516 -0.0082
 5015TIP3   OH236603   6.649   0.172   2.630 -0.1765 -0.2854 -0.7469
 5015TIP3    H136604   6.638   0.252   2.579  1.8596 -1.8022 -3.8701
 5015TIP3    H236605   6.573   0.119   2.607 -1.4771  0.6122  1.2504
 5016TIP3   OH236606   6.637   5.265   1.615  0.1574  0.1359  0.3993
 5016TIP3    H136607   6.708   5.202   1.630  0.1653 -0.1068 -0.6041
 5016TIP3    H236608   6.646   5.289   1.523 -1.0100  0.1840  0.2936
 5017TIP3   OH236609   6.348   2.131   8.266 -1.0078 -0.3693  0.7147
 5017TIP3    H136610   6.393   2.050   8.243 -1.1791 -0.3820  0.4289
 5017TIP3    H236611   6.415   2.185   8.307 -0.2705  0.3340 -1.3058
 5018TIP3   OH236612   0.592   5.409   8.348  0.1472 -0.3251  0.1638
 5018TIP3    H136613   0.635   5.420   8.432  0.0702 -1.7649  0.4120
 5018TIP3    H236614   0.645   5.343   8.302  0.2567  0.5189 -0.9677
 5019TIP3   OH236615   5.942   0.052   2.108 -0.3939 -0.5329  0.0946
 5019TIP3    H136616   5.869   0.054   2.046 -0.3795 -0.2474  0.0830
 5019TIP3    H236617   5.926   0.128   2.165  1.1533  0.9447 -1.3511
 5020TIP3   OH236618   0.064   5.769   0.294  0.2246  0.0915  0.1386
 5020TIP3    H136619  -0.023   5.810   0.300  0.7728  1.2423  0.4998
 5020TIP3    H236620   0.051   5.693   0.237 -1.0282  0.2151  0.2323
 5021TIP3   OH236621   1.359   3.340   8.234 -0.6962 -0.3704 -0.0263
 5021TIP3    H136622   1.270   3.336   8.268  0.0464 -0.7402  2.0459
 5021TIP3    H236623   1.384   3.248   8.221 -1.2525 -0.2284 -2.5533
 5022TIP3   OH236624   2.401   6.137   2.059  0.3669 -0.0340  0.6218
 5022TIP3    H136625   2.334   6.154   2.125  0.1339  0.9713  0.1481
 5022TIP3    H236626   2.484   6.146   2.107  0.2550  2.0511  0.5493
 5023TIP3   OH236627   2.323   0.762   2.610  0.2307  0.3565 -0.0431
 5023TIP3    H136628   2.407   0.753   2.656 -0.1956  1.4469  0.9800
 5023TIP3    H236629   2.348   0.789   2.521  1.0316 -1.1973 -0.3420
 5024TIP3   OH236630   4.350   4.998   2.838 -0.4063 -0.4464  0.1257
 5024TIP3    H136631   4.261   5.024   2.861 -0.5617 -2.0092  1.4530
 5024TIP3    H236632   4.345   4.903   2.825  0.5963 -0.2275 -2.2233
 5025TIP3   OH236633   5.332   3.860   2.698  0.4208 -0.3458  0.2615
 5025TIP3    H136634   5.261   3.848   2.635  2.0774  1.1377 -2.0246
 5025TIP3    H236635   5.294   3.915   2.766 -0.8298 -0.2153 -0.4993
 5026TIP3   OH236636   0.871   4.709   3.794 -0.1352 -0.1971  0.3059
 5026TIP3    H136637   0.844   4.761   3.719  0.1391 -0.1099  0.2674
 5026TIP3    H236638   0.914   4.771   3.852  1.0664 -0.5577 -0.1786
 5027TIP3   OH236639   3.832   0.014   0.209 -0.0699 -0.1816 -0.3455
 5027TIP3    H136640   3.871  -0.072   0.193  0.9726  0.3749 -0.9164
 5027TIP3    H236641   3.856   0.035   0.299 -0.1819 -0.4087 -0.2611
 5028TIP3   OH236642   5.394   0.529   8.197  0.1958  0.3356 -0.4173
 5028TIP3    H136643   5.348   0.610   8.217 -1.9672 -0.5029 -1.6011
 5028TIP3    H236644   5.466   0.526   8.259  0.0347  2.8815  0.0065
 5029TIP3   OH236645   2.420   0.563   7.909 -0.2092 -0.1586 -0.2865
 5029TIP3    H136646   2.410   0.494   7.843 -2.0334 -0.9495  0.7359
 5029TIP3    H236647   2.496   0.536   7.961  1.3253  0.5355 -2.0578
 5030TIP3   OH236648   1.203   6.496   7.758  0.5850 -0.0244  0.2856
 5030TIP3    H136649   1.250   6.496   7.675 -0.5729  0.0847 -0.3900
 5030TIP3    H236650   1.196   6.588   7.782  2.0461 -0.1174  1.1891
 5031TIP3   OH236651   1.815   5.300   2.020 -0.1748 -0.0022  0.4822
 5031TIP3    H136652   1.740   5.300   2.080  0.3503  0.0575  1.1483
 5031TIP3    H236653   1.887   5.336   2.071  0.2287  0.2724 -0.2629
 5032TIP3   OH236654   5.185   3.733   0.663  0.4771 -0.2843  0.0149
 5032TIP3    H136655   5.225   3.817   0.686 -0.8499  0.1194  0.9267
 5032TIP3    H236656   5.118   3.755   0.599  2.5613 -1.1361 -2.6743
 5033TIP3   OH236657   6.357   1.403   2.469  0.1594  0.1080  0.1357
 5033TIP3    H136658   6.276   1.365   2.505 -0.0057  0.4224  0.0998
 5033TIP3    H236659   6.327   1.459   2.398  0.3554  0.7814  0.5821
 5034TIP3   OH236660   0.485   0.087   2.287 -0.5530 -0.0531  0.8576
 5034TIP3    H136661   0.561   0.124   2.334 -1.2856  3.0034 -0.1270
 5034TIP3    H236662   0.426   0.059   2.357 -0.5935  2.1610  1.7955
 5035TIP3   OH236663   2.290   2.123   3.242  0.1223 -0.0323 -0.1459
 5035TIP3    H136664   2.197   2.130   3.218 -0.4823 -3.9642  0.2847
 5035TIP3    H236665   2.301   2.186   3.314 -2.0539  0.8997 -0.5511
 5036TIP3   OH236666   6.572   4.631   1.616 -0.8062 -0.4490 -0.1676
 5036TIP3    H136667   6.645   4.628   1.678 -0.3800 -2.7734 -0.7053
 5036TIP3    H236668   6.612   4.620   1.530 -1.5500  1.1925 -0.7700
 5037TIP3   OH236669   3.144   5.600   7.762  0.1100 -0.4116  0.7521
 5037TIP3    H136670   3.078   5.557   7.817 -2.4924  1.6212 -0.5733
 5037TIP3    H236671   3.227   5.582   7.807 -1.5693 -0.9394  3.9886
 5038TIP3   OH236672   0.653   2.739   1.139 -0.7195 -0.2244 -0.1834
 5038TIP3    H136673   0.589   2.682   1.181  1.3757 -1.8122  1.0381
 5038TIP3    H236674   0.719   2.680   1.105  0.3727  1.3826 -0.9546
 5039TIP3   OH236675   3.102   0.066   1.683 -0.2525  0.2368  0.0270
 5039TIP3    H136676   3.092   0.120   1.604 -1.4719 -1.0447 -0.7309
 5039TIP3    H236677   3.073   0.122   1.754  0.6199  1.3312 -0.4441
 5040TIP3   OH236678   0.094   6.811   3.042  0.7255  1.0370 -0.2442
 5040TIP3    H136679   0.182   6.812   3.078  0.5471 -2.8291  0.7461
 5040TIP3    H236680   0.037   6.799   3.119 -0.3642  0.3057 -1.1278
 5041TIP3   OH236681   1.227   0.730   0.210 -0.2506  0.1231 -0.5176
 5041TIP3    H136682   1.196   0.650   0.251  2.0323  0.5451  2.3659
 5041TIP3    H236683   1.321   0.716   0.196 -0.1674  1.5975 -1.7636
 5042TIP3   OH236684   1.665   0.584   0.327 -0.7453 -0.0199 -0.2647
 5042TIP3    H136685   1.625   0.517   0.382 -0.4852  0.8596  1.0495
 5042TIP3    H236686   1.759   0.573   0.339 -0.7031  1.1711  0.7761
 5043TIP3   OH236687   0.695   0.198   2.470  0.5020  0.2155 -0.3389
 5043TIP3    H136688   0.738   0.112   2.477 -0.6235 -0.4204 -0.8466
 5043TIP3    H236689   0.765   0.259   2.449  1.1259 -0.8263 -1.3808
 5044TIP3   OH236690   2.041   1.021   0.432  0.6697  0.1444 -0.0172
 5044TIP3    H136691   2.105   0.957   0.462 -0.8917 -0.7000  1.7175
 5044TIP3    H236692   2.065   1.038   0.341  2.3591 -1.3534  0.0970
 5045TIP3   OH236693   5.546   5.564   2.569  0.0529 -0.4706  0.1504
 5045TIP3    H136694   5.513   5.539   2.656 -0.4726 -3.3062 -0.7700
 5045TIP3    H236695   5.500   5.506   2.509  2.5036 -0.5599 -1.7714
 5046TIP3   OH236696   0.124   1.537   0.764  0.2595 -0.3280 -0.2059
 5046TIP3    H136697   0.136   1.602   0.833 -0.9601 -1.0213  0.7134
 5046TIP3    H236698   0.051   1.571   0.712  2.0893  0.9201 -2.1116
 5047TIP3   OH236699   0.370   4.806   2.652  0.0365 -0.3645 -0.1079
 5047TIP3    H136700   0.309   4.804   2.578 -1.1364 -0.2504  0.8277
 5047TIP3    H236701   0.437   4.869   2.625 -2.3112  2.5510  0.3372
 5048TIP3   OH236702   0.411   5.187   7.627 -0.2188  0.5111 -0.3355
 5048TIP3    H136703   0.420   5.123   7.698  0.2189  1.9434  0.9429
 5048TIP3    H236704   0.477   5.160   7.563 -0.0318 -0.3080  0.1784
 5049TIP3   OH236705   6.184   5.838   3.852  0.3051  0.0722  0.6254
 5049TIP3    H136706   6.192   5.931   3.833  0.0955  0.0874  0.6048
 5049TIP3    H236707   6.100   5.813   3.814  0.7469 -0.3181 -0.1108
 5050TIP3   OH236708   6.247   4.315   1.709 -0.1650  0.4699  0.0177
 5050TIP3    H136709   6.300   4.304   1.630 -0.2560  0.2806 -0.0144
 5050TIP3    H236710   6.242   4.228   1.748 -0.8064  0.4059 -0.1992
 5051TIP3   OH236711   6.575   6.316   7.559  0.6895 -0.2248  0.0764
 5051TIP3    H136712   6.481   6.313   7.577  0.3067 -0.2821 -1.7336
 5051TIP3    H236713   6.599   6.226   7.540  1.2707 -0.3136  1.1678
 5052TIP3   OH236714   3.468   2.726   3.135 -0.4461 -0.3609  0.4171
 5052TIP3    H136715   3.447   2.713   3.042 -0.6136  2.8009 -0.0914
 5052TIP3    H236716   3.560   2.699   3.142 -0.3221 -0.3070 -0.7643
 5053TIP3   OH236717   5.501   4.640   1.933  0.5966 -0.7607 -0.2306
 5053TIP3    H136718   5.557   4.584   1.879 -0.0121 -1.6077 -0.0048
 5053TIP3    H236719   5.542   4.727   1.927  1.0623 -1.0277 -1.3002
 5054TIP3   OH236720   3.846   6.790   0.514 -0.2155 -0.4002 -0.4957
 5054TIP3    H136721   3.905   6.725   0.477  0.3726 -0.4291  0.4619
 5054TIP3    H236722   3.842   6.768   0.607  2.8518  2.9924  0.6865
 5055TIP3   OH236723   6.358   2.068   0.759  0.3949  0.3165  0.2852
 5055TIP3    H136724   6.292   2.070   0.689  0.2688  0.8137  0.4148
 5055TIP3    H236725   6.435   2.110   0.720  0.0261  1.4636  0.7308
 5056TIP3   OH236726   1.356   4.747   2.405  0.1550 -0.0096  0.0212
 5056TIP3    H136727   1.333   4.681   2.470  0.0716  0.4905  0.5085
 5056TIP3    H236728   1.310   4.720   2.325 -0.1952 -0.3184  0.3257
 5057TIP3   OH236729   1.110   1.691   0.595  0.1009  0.1566 -0.0716
 5057TIP3    H136730   1.038   1.746   0.564 -0.8250 -0.3666  1.0517
 5057TIP3    H236731   1.099   1.689   0.691  1.7628  0.2526  0.1493
 5058TIP3   OH236732   0.388   0.493   3.061  0.1182  0.4327 -0.1046
 5058TIP3    H136733   0.362   0.463   3.148  0.7375  0.0108 -0.0589
 5058TIP3    H236734   0.347   0.578   3.051  0.6534  0.8130  0.8972
 5059TIP3   OH236735   1.030   6.327   0.208 -0.5436  0.4454 -0.2696
 5059TIP3    H136736   0.936   6.343   0.206 -0.4201  1.5736  0.9073
 5059TIP3    H236737   1.067   6.409   0.242  0.9791  0.4533 -1.7625
 5060TIP3   OH236738   0.042   0.112   0.396 -0.3730 -0.6453 -0.7213
 5060TIP3    H136739  -0.052   0.128   0.396 -0.1188  1.1418  0.2082
 5060TIP3    H236740   0.061   0.083   0.485 -0.0004 -0.6666 -0.8056
 5061TIP3   OH236741   3.477   2.262   0.923  0.1668  0.0040 -0.1100
 5061TIP3    H136742   3.415   2.229   0.988  0.2880  1.4879  0.8018
 5061TIP3    H236743   3.563   2.244   0.960  0.4623 -3.1669 -1.9156
 5062TIP3   OH236744   2.275   0.653   2.161  0.1354  0.2852 -0.0289
 5062TIP3    H136745   2.290   0.701   2.080  0.7676 -0.5135 -0.3940
 5062TIP3    H236746   2.249   0.720   2.224  1.0002  1.1009 -0.5220
 5063TIP3   OH236747   6.441   3.963   2.987 -0.5323 -0.3513  0.1730
 5063TIP3    H136748   6.488   4.038   3.024  0.4913 -0.6397 -0.4959
 5063TIP3    H236749   6.352   3.995   2.974 -0.7380 -0.0039  2.1070
 5064TIP3   OH236750   3.954   5.715   2.517  0.5427  0.4046  0.1592
 5064TIP3    H136751   3.887   5.692   2.580 -1.4532 -0.2239 -2.0468
 5064TIP3    H236752   4.025   5.653   2.534 -0.4560 -0.5525  0.9898
 5065TIP3   OH236753   2.009   5.747   1.829  0.0806  0.0381  0.3908
 5065TIP3    H136754   2.067   5.750   1.753  1.6150 -1.5730  1.4237
 5065TIP3    H236755   1.932   5.797   1.802  1.7150  1.8304 -1.2105
 5066TIP3   OH236756   1.228   6.823   0.903 -0.4341  0.2931  0.2043
 5066TIP3    H136757   1.304   6.804   0.847 -0.4883 -0.4223  0.3632
 5066TIP3    H236758   1.238   6.915   0.927 -0.5351  0.6857 -1.1732
 5067TIP3   OH236759   2.524   3.697   8.296  0.7376 -0.3175  0.6515
 5067TIP3    H136760   2.585   3.623   8.289  0.8301 -0.2012  0.1916
 5067TIP3    H236761   2.507   3.722   8.205  1.3119  0.7225  0.8208
 5068TIP3   OH236762   1.844   4.071   3.377  0.4415 -0.4825 -0.1201
 5068TIP3    H136763   1.886   4.131   3.439 -1.2955 -0.9157  1.5627
 5068TIP3    H236764   1.783   4.126   3.328  0.7377 -0.4252 -0.4353
 5069TIP3   OH236765   5.161   1.981   1.931 -0.2787 -0.2911  0.7657
 5069TIP3    H136766   5.154   1.953   2.023 -0.2710 -1.5671  0.4016
 5069TIP3    H236767   5.134   1.904   1.881 -4.5166  1.6465 -0.3306
 5070TIP3   OH236768   3.057   5.657   2.994  0.1629 -0.5651 -0.2122
 5070TIP3    H136769   3.107   5.637   2.915 -0.0623 -1.0705 -0.2278
 5070TIP3    H236770   3.111   5.722   3.040 -0.7260  1.3955 -1.8241
 5071TIP3   OH236771   2.837   6.750   2.864  0.5446  0.3723  0.7371
 5071TIP3    H136772   2.743   6.771   2.866  0.3477 -0.5253  2.1521
 5071TIP3    H236773   2.871   6.785   2.946  1.0228 -1.1265  1.2097
 5072TIP3   OH236774   2.435   1.934   7.396 -0.0407  0.3405  0.2415
 5072TIP3    H136775   2.375   2.008   7.386  1.6934  1.7016 -0.8974
 5072TIP3    H236776   2.521   1.975   7.404  1.3457 -1.5033 -3.1449
 5073TIP3   OH236777   0.740   2.472   8.290 -0.3122  0.7415 -0.5820
 5073TIP3    H136778   0.688   2.392   8.276  1.8724 -0.9993  0.5448
 5073TIP3    H236779   0.756   2.506   8.203 -2.8367  1.0735 -0.9982
 5074TIP3   OH236780   1.305   0.396   8.279  0.3527  0.3351  0.1219
 5074TIP3    H136781   1.273   0.310   8.305 -1.7645  0.2368 -2.3843
 5074TIP3    H236782   1.258   0.458   8.335 -0.2690 -0.0351  0.0127
 5075TIP3   OH236783   6.321   4.870   2.935 -0.1165 -0.0839  0.5237
 5075TIP3    H136784   6.265   4.920   2.876 -2.3054 -0.0376  2.4533
 5075TIP3    H236785   6.404   4.862   2.890 -0.8376  2.1864 -1.3790
 5076TIP3   OH236786   4.048   6.701   1.033  0.3688 -0.0435 -0.0081
 5076TIP3    H136787   4.111   6.765   1.065  0.5738 -0.1482 -0.1990
 5076TIP3    H236788   4.030   6.644   1.107  0.7734 -0.2323 -0.0553
 5077TIP3   OH236789   4.268   3.842   0.822  0.3611  0.0005  0.6739
 5077TIP3    H136790   4.359   3.847   0.851  0.9986 -0.5871 -1.0882
 5077TIP3    H236791   4.274   3.828   0.728 -1.5811  2.4786  0.0719
 5078TIP3   OH236792   3.437   3.534   8.334  0.0233  0.6834  0.2024
 5078TIP3    H136793   3.455   3.557   8.425  0.8719 -0.4877  0.3474
 5078TIP3    H236794   3.442   3.617   8.287 -0.7258  1.3470  1.2566
 5079TIP3   OH236795   5.586   4.971   1.867 -0.5851  0.2197 -0.2805
 5079TIP3    H136796   5.493   4.985   1.849 -0.5587  0.7258 -0.0640
 5079TIP3    H236797   5.596   4.996   1.959  0.1102  2.0328 -0.8060
 5080TIP3   OH236798   3.561   6.894   2.443 -0.7779 -0.4890  0.4882
 5080TIP3    H136799   3.467   6.910   2.440 -0.6216  1.3748  2.8257
 5080TIP3    H236800   3.577   6.861   2.531  0.8838  0.2421  0.4968
 5081TIP3   OH236801   2.061   2.328   3.364 -0.4630  0.3563  0.1066
 5081TIP3    H136802   2.142   2.366   3.397  0.0491  2.0650 -2.7393
 5081TIP3    H236803   1.992   2.374   3.412  0.2343  1.8662 -0.2657
 5082TIP3   OH236804   3.794   3.065   1.434  0.1227 -0.2337  0.3709
 5082TIP3    H136805   3.815   3.085   1.343 -1.4667 -1.9299 -0.4267
 5082TIP3    H236806   3.704   3.094   1.445 -0.6639 -2.5205  0.5183
 5083TIP3   OH236807   6.534   2.538   1.062 -0.5294  0.4271  0.3387
 5083TIP3    H136808   6.490   2.572   0.984 -0.2747 -4.4820 -2.3225
 5083TIP3    H236809   6.624   2.569   1.055 -0.3564 -0.3630 -1.8007
 5084TIP3   OH236810   0.072   0.176   0.958  0.1155 -0.1253 -0.0139
 5084TIP3    H136811   0.120   0.093   0.953  0.6459  0.2314 -1.5799
 5084TIP3    H236812   0.140   0.243   0.958 -0.3225  0.3295  0.7418
 5085TIP3   OH236813   0.135   0.160   0.128  0.2604 -0.3815  0.2278
 5085TIP3    H136814   0.130   0.185   0.221  1.7671  1.7420 -0.1757
 5085TIP3    H236815   0.215   0.108   0.122  0.8872  0.5897 -0.0625
 5086TIP3   OH236816   0.842   4.625   2.531 -0.4342 -0.0488  0.0726
 5086TIP3    H136817   0.820   4.570   2.606 -3.7496 -1.3665 -1.6583
 5086TIP3    H236818   0.891   4.568   2.472 -2.5733 -0.8366 -1.0568
 5087TIP3   OH236819   0.912   0.741   2.146  0.0449 -0.3443 -0.7297
 5087TIP3    H136820   0.846   0.718   2.080 -0.7254 -4.2254  1.0737
 5087TIP3    H236821   0.863   0.782   2.216  0.5552  1.8981 -1.5962
 5088TIP3   OH236822   5.399   5.018   2.332  0.0513  0.0062 -0.0951
 5088TIP3    H136823   5.480   5.013   2.281  1.1490 -1.6288  1.6776
 5088TIP3    H236824   5.330   4.992   2.272  1.0699 -0.2212 -1.1835
 5089TIP3   OH236825   1.330   1.078   2.526 -0.3137 -0.3273  0.0159
 5089TIP3    H136826   1.272   1.122   2.589  0.0414 -0.2337  0.2832
 5089TIP3    H236827   1.278   1.004   2.493 -0.0139 -1.2588  1.5186
 5090TIP3   OH236828   4.164   4.673   3.266  0.3096  0.3646  0.4036
 5090TIP3    H136829   4.109   4.752   3.269  0.5472  0.5510  3.7080
 5090TIP3    H236830   4.222   4.681   3.341  0.4219 -2.9140  0.8299
 5091TIP3   OH236831   6.011   0.618   0.610 -0.3343 -0.4993 -0.4771
 5091TIP3    H136832   5.970   0.681   0.551 -0.4767 -1.5722 -1.5451
 5091TIP3    H236833   6.048   0.673   0.680 -1.0909  0.7067 -0.9720
 5092TIP3   OH236834   2.826   2.029   1.360 -0.4395  0.3590  0.2569
 5092TIP3    H136835   2.889   2.068   1.421 -0.6990  1.9496 -0.4534
 5092TIP3    H236836   2.826   2.087   1.285 -2.2911  0.0359 -0.0300
 5093TIP3   OH236837   0.155   3.532   7.916 -0.0859  0.3796  0.7859
 5093TIP3    H136838   0.188   3.442   7.913  0.0005  0.4306 -0.0647
 5093TIP3    H236839   0.227   3.585   7.883 -0.8931  0.5192 -0.8559
 5094TIP3   OH236840   3.653   5.410   2.618 -0.3196  0.5339  0.4824
 5094TIP3    H136841   3.652   5.505   2.632  1.0833  0.3297  2.2098
 5094TIP3    H236842   3.722   5.377   2.675  1.8927 -1.1499 -2.8194
 5095TIP3   OH236843   2.481   3.615   1.712 -0.0275 -0.0422 -0.5581
 5095TIP3    H136844   2.531   3.571   1.643  0.1311  1.5070 -1.4632
 5095TIP3    H236845   2.403   3.649   1.668 -0.3575  0.2352  0.2152
 5096TIP3   OH236846   6.857   3.867   7.707 -0.0588 -0.2290 -0.1516
 5096TIP3    H136847   6.792   3.848   7.639 -0.2615 -0.3671  0.0793
 5096TIP3    H236848   6.884   3.957   7.689  1.7882 -1.0776 -1.9898
 5097TIP3   OH236849   0.889   0.256   2.101  0.0274  0.0563  0.3131
 5097TIP3    H136850   0.889   0.315   2.176 -2.9925  1.2584 -0.4821
 5097TIP3    H236851   0.968   0.278   2.052 -0.3820  2.6061  0.6921
 5098TIP3   OH236852   6.080   2.022   8.200  0.7877  0.1240  0.3717
 5098TIP3    H136853   6.062   2.116   8.206 -0.4889 -0.1676  1.5710
 5098TIP3    H236854   5.995   1.982   8.183  1.3531 -0.8095 -0.3527
 5099TIP3   OH236855   4.546   1.357   3.392 -0.0641  0.4070  0.2078
 5099TIP3    H136856   4.545   1.280   3.335  0.2946  0.0861  0.6293
 5099TIP3    H236857   4.634   1.358   3.429  0.4066  1.8199 -0.8576
 5100TIP3   OH236858   5.538   4.378   2.234  0.0429  1.0833  0.2499
 5100TIP3    H136859   5.524   4.308   2.171 -1.3285  1.2873  0.3100
 5100TIP3    H236860   5.550   4.333   2.318  1.4227  0.8350 -0.0566
 5101TIP3   OH236861   6.523   4.546   2.870 -0.7987  0.6101  0.3505
 5101TIP3    H136862   6.503   4.500   2.952  2.1389  0.4638  1.1233
 5101TIP3    H236863   6.594   4.606   2.894  1.3922 -0.6761 -2.3403
 5102TIP3   OH236864   0.345   2.759   1.183  0.1887 -0.0955  1.1627
 5102TIP3    H136865   0.349   2.666   1.205 -0.0996 -0.4406 -0.1489
 5102TIP3    H236866   0.257   2.771   1.147 -0.1856  0.9428  2.3395
 5103TIP3   OH236867   4.204   4.835   1.307  0.1073 -0.0775  0.9144
 5103TIP3    H136868   4.266   4.800   1.372  1.0955 -2.2385 -1.0536
 5103TIP3    H236869   4.260   4.876   1.241 -0.7123 -0.1386  0.1729
 5104TIP3   OH236870   3.173   2.444   2.197 -0.5523 -0.1383 -0.1565
 5104TIP3    H136871   3.152   2.455   2.289 -1.4502 -0.2237 -0.3403
 5104TIP3    H236872   3.154   2.529   2.158 -3.5967 -1.0098 -0.8607
 5105TIP3   OH236873   4.508   1.880   2.934 -0.4489 -0.2889 -0.8166
 5105TIP3    H136874   4.495   1.859   3.026 -0.9184  3.3218  0.0938
 5105TIP3    H236875   4.427   1.924   2.907  1.3097  2.7873 -1.5295
 5106TIP3   OH236876   2.870   0.407   1.149  0.4956  0.2826 -0.6662
 5106TIP3    H136877   2.811   0.350   1.100  0.8510 -0.1608 -0.5866
 5106TIP3    H236878   2.817   0.441   1.221  0.2773  0.0613 -0.7226
 5107TIP3   OH236879   2.618   2.774   2.125  0.1250  0.2983 -0.2669
 5107TIP3    H136880   2.586   2.818   2.204  2.1113  1.7742 -0.2011
 5107TIP3    H236881   2.575   2.689   2.126 -0.8101  0.7281  1.7735
 5108TIP3   OH236882   4.547   2.693   3.260  0.2671 -0.0202 -0.5173
 5108TIP3    H136883   4.453   2.710   3.252  0.0094  1.5541  3.3360
 5108TIP3    H236884   4.584   2.779   3.281  2.2853 -0.9083 -0.2885
 5109TIP3   OH236885   6.012   5.500   1.270 -0.1138 -0.4017  0.4777
 5109TIP3    H136886   6.067   5.510   1.192 -0.3058 -1.5540  0.1753
 5109TIP3    H236887   5.925   5.481   1.235 -0.4809  0.3126  0.9701
 5110TIP3   OH236888   2.183   2.755   2.067  0.0036 -0.2470 -0.5806
 5110TIP3    H136889   2.193   2.684   2.131 -0.5959 -0.5349 -0.7974
 5110TIP3    H236890   2.094   2.786   2.079  0.9372  2.0026  1.0388
 5111TIP3   OH236891   1.925   3.712   1.232  0.2106 -0.1263 -0.2507
 5111TIP3    H136892   1.918   3.779   1.301  1.6936  2.0815 -2.1118
 5111TIP3    H236893   1.844   3.721   1.182 -1.0471 -1.9961  1.3044
 5112TIP3   OH236894   4.020   6.662   1.625 -0.2913 -0.4215 -0.6432
 5112TIP3    H136895   3.974   6.616   1.554  0.4313 -0.5755 -1.0171
 5112TIP3    H236896   4.020   6.754   1.598 -0.3719 -0.4211 -0.6430
 5113TIP3   OH236897   3.219   4.546   2.797  0.1875 -0.8276  0.0997
 5113TIP3    H136898   3.293   4.591   2.837  1.5233 -1.2380 -1.7763
 5113TIP3    H236899   3.188   4.606   2.729  0.7479 -1.8685 -1.1239
 5114TIP3   OH236900   4.356   0.816   0.819 -0.4131 -0.5675 -0.0618
 5114TIP3    H136901   4.287   0.796   0.755 -1.0428  0.8753  0.1331
 5114TIP3    H236902   4.333   0.763   0.896  0.3052 -2.2572 -0.9635
 5115TIP3   OH236903   4.869   5.648   8.339 -0.0101 -0.1036 -0.2233
 5115TIP3    H136904   4.912   5.568   8.307  0.8788  0.1238  0.3919
 5115TIP3    H236905   4.809   5.617   8.407 -1.6268 -0.5455 -1.7348
 5116TIP3   OH236906   0.865   3.978   1.054  0.1164 -0.2963  0.0936
 5116TIP3    H136907   0.794   4.042   1.047 -0.0270 -0.4637  0.0178
 5116TIP3    H236908   0.821   3.894   1.060  0.2892 -0.3438  0.8011
 5117TIP3   OH236909   6.247   2.425   8.388 -0.0714  0.3264  0.2760
 5117TIP3    H136910   6.266   2.398   8.478 -1.2672  0.3663  0.5609
 5117TIP3    H236911   6.332   2.424   8.344  0.4220 -0.4554  1.2027
 5118TIP3   OH236912   1.375   5.155   1.677 -0.8082 -0.2992 -0.0643
 5118TIP3    H136913   1.399   5.225   1.615  0.7021 -1.0472 -0.3817
 5118TIP3    H236914   1.388   5.194   1.763 -0.5121 -0.0037 -0.2381
 5119TIP3   OH236915   5.800   5.225   0.861 -0.0978  0.4356  0.7830
 5119TIP3    H136916   5.717   5.243   0.904 -1.3918 -1.4961 -0.7242
 5119TIP3    H236917   5.792   5.267   0.775 -0.2175 -1.0487  0.0278
 5120TIP3   OH236918   3.341   0.448   1.619 -0.0585  0.1976 -0.4395
 5120TIP3    H136919   3.354   0.375   1.679  0.4736 -0.5290 -1.4016
 5120TIP3    H236920   3.414   0.441   1.557 -0.3777  1.1453 -0.9398
 5121TIP3   OH236921   3.320   6.605   8.097  0.4707  0.4810  0.2646
 5121TIP3    H136922   3.381   6.608   8.023 -0.9579  2.0961 -0.9382
 5121TIP3    H236923   3.256   6.538   8.073 -0.0473  1.0717 -0.0270
 5122TIP3   OH236924   6.557   1.664   2.441  0.0542  0.4524 -0.7070
 5122TIP3    H136925   6.486   1.647   2.503 -0.4505 -0.7072 -1.5688
 5122TIP3    H236926   6.586   1.577   2.414  2.0368  0.8893 -0.1412
 5123TIP3   OH236927   5.653   6.938   0.750 -0.2605  0.7050 -0.0943
 5123TIP3    H136928   5.699   6.929   0.667 -0.9701 -1.3926 -0.3209
 5123TIP3    H236929   5.567   6.972   0.726 -0.5748 -0.1987 -0.2712
 5124TIP3   OH236930   4.339   5.572   1.769 -0.0282 -0.3621  1.1260
 5124TIP3    H136931   4.315   5.643   1.709  4.4138 -0.9375 -1.8138
 5124TIP3    H236932   4.285   5.498   1.741  0.5875 -0.0658 -1.0613
 5125TIP3   OH236933   2.081   0.147   0.784  0.6962  0.0969  0.1444
 5125TIP3    H136934   2.088   0.073   0.845  2.7313 -0.4699 -0.6712
 5125TIP3    H236935   2.140   0.123   0.712  1.1612  2.3770 -0.2916
 5126TIP3   OH236936   6.296   6.857   7.972 -0.2576  0.3154  0.0591
 5126TIP3    H136937   6.291   6.874   7.878 -1.1142 -0.1397  0.0144
 5126TIP3    H236938   6.378   6.897   7.999 -0.2014  0.8117 -0.8091
 5127TIP3   OH236939   3.828   1.224   2.926 -0.2614 -0.4587  0.1440
 5127TIP3    H136940   3.802   1.306   2.970  2.0239  0.1656  0.4888
 5127TIP3    H236941   3.858   1.168   2.998 -1.2277 -1.3664 -0.1574
 5128TIP3   OH236942   1.417   4.814   2.064 -0.2855  0.4437  0.0669
 5128TIP3    H136943   1.339   4.778   2.107 -0.2686  1.0224  0.5934
 5128TIP3    H236944   1.402   4.798   1.970  0.3291 -2.1211  0.3245
 5129TIP3   OH236945   5.218   6.710   0.569 -0.4959  0.6653 -0.1735
 5129TIP3    H136946   5.204   6.632   0.623 -2.7715 -0.0138 -1.5900
 5129TIP3    H236947   5.203   6.784   0.628 -2.2136 -0.0403  0.3223
 5130TIP3   OH236948   5.041   2.211   8.075  0.1251  0.0330 -0.4272
 5130TIP3    H136949   5.068   2.174   8.159 -2.2126 -1.2610 -0.1445
 5130TIP3    H236950   5.061   2.304   8.082 -0.6499  0.0989  1.8774
 5131TIP3   OH236951   4.294   4.907   0.560  0.3860 -0.0045  0.1555
 5131TIP3    H136952   4.286   4.813   0.550  1.8957 -0.1658  0.2708
 5131TIP3    H236953   4.387   4.925   0.548  0.2472  1.3763  0.9133
 5132TIP3   OH236954   3.141   4.541   7.843 -0.2985 -0.1903  0.1836
 5132TIP3    H136955   3.177   4.630   7.846 -1.1434  0.1539  0.7268
 5132TIP3    H236956   3.065   4.545   7.902 -0.1225 -1.3738  0.5009
 5133TIP3   OH236957   5.775   3.837   0.354  0.2288 -0.4417  0.8607
 5133TIP3    H136958   5.759   3.928   0.380 -1.0094 -0.5279  0.4951
 5133TIP3    H236959   5.703   3.788   0.394  1.0220 -1.3132  1.2547
 5134TIP3   OH236960   4.103   0.543   8.474  0.1320  0.4178  0.3944
 5134TIP3    H136961   4.012   0.515   8.473 -0.3173  1.7643  0.6605
 5134TIP3    H236962   4.098   0.639   8.469  1.5240  0.5215  0.6091
 5135TIP3   OH236963   4.495   1.299   0.307  0.4080  0.6064 -0.2193
 5135TIP3    H136964   4.555   1.325   0.377 -0.1555 -0.5855  0.7455
 5135TIP3    H236965   4.516   1.207   0.289 -0.1127  0.6159 -0.9333
 5136TIP3   OH236966   6.860   1.512   7.904  0.0157  0.6800  0.2703
 5136TIP3    H136967   6.878   1.594   7.951 -0.1054  0.3669  0.8728
 5136TIP3    H236968   6.837   1.540   7.815  1.7928  1.1928 -0.0637
 5137TIP3   OH236969   2.579   5.036   3.221 -0.1305 -0.2152  0.2350
 5137TIP3    H136970   2.502   4.979   3.226 -1.4598  1.5426  1.1711
 5137TIP3    H236971   2.653   4.978   3.237 -1.2420 -1.9517 -0.5441
 5138TIP3   OH236972   5.720   0.681   1.250  0.6008 -0.3676 -0.1592
 5138TIP3    H136973   5.656   0.664   1.320 -1.0462 -0.8331 -1.6797
 5138TIP3    H236974   5.803   0.691   1.295 -0.1182 -2.1963  1.7573
 5139TIP3   OH236975   1.423   6.015   1.212 -0.7247  0.1727  0.7680
 5139TIP3    H136976   1.349   6.033   1.271  0.6355  0.7173  2.3777
 5139TIP3    H236977   1.427   6.093   1.156 -1.4511  0.0748  0.5691
 5140TIP3   OH236978   6.898   2.994   8.079 -0.6982  0.2623  0.2828
 5140TIP3    H136979   6.839   2.945   8.022  0.4446 -0.9628  0.1152
 5140TIP3    H236980   6.913   2.937   8.154 -0.4104  0.9160  0.7344
 5141TIP3   OH236981   0.903   3.495   0.125  0.8070  0.1414  0.5739
 5141TIP3    H136982   0.852   3.550   0.065  0.4868 -0.3367  0.4039
 5141TIP3    H236983   0.884   3.530   0.212  1.2671  0.8349  0.4049
 5142TIP3   OH236984   3.545   3.629   3.698  0.0058 -0.1967 -0.1057
 5142TIP3    H136985   3.597   3.608   3.775  0.1379 -1.6321 -0.5524
 5142TIP3    H236986   3.499   3.710   3.721  1.5999  0.5229  0.6929
 5143TIP3   OH236987   3.980   0.910   8.251  1.0213 -0.6958  0.1795
 5143TIP3    H136988   3.985   0.863   8.334  0.7253  0.2388  0.7353
 5143TIP3    H236989   4.054   0.970   8.252  1.1299 -0.8104 -0.3239
 5144TIP3   OH236990   1.774   5.506   1.826 -0.1367 -0.0045  0.7164
 5144TIP3    H136991   1.795   5.429   1.879  0.9354  0.6117  1.2396
 5144TIP3    H236992   1.846   5.512   1.763 -1.3012 -0.6238 -0.7426
 5145TIP3   OH236993   4.853   0.891   2.474  0.3018  0.4369  0.2251
 5145TIP3    H136994   4.818   0.950   2.541  0.1015  1.2343 -0.5676
 5145TIP3    H236995   4.940   0.925   2.456  0.0949  0.6504 -0.4060
 5146TIP3   OH236996   4.546   3.044   2.649 -0.0435 -0.1885  0.1799
 5146TIP3    H136997   4.623   3.078   2.695  0.3167 -0.4184 -0.2459
 5146TIP3    H236998   4.513   2.974   2.706 -0.9522  1.0115  1.1952
 5147TIP3   OH236999   2.731   6.485   0.698 -0.2164  0.6409 -0.2820
 5147TIP3    H137000   2.748   6.579   0.696  1.6419  0.4992  2.7912
 5147TIP3    H237001   2.655   6.475   0.755 -0.3248  0.2735 -0.4839
 5148TIP3   OH237002   4.077   0.905   2.024 -0.2279 -0.0494  0.1424
 5148TIP3    H137003   4.033   0.962   2.087 -1.6038 -1.2149  0.3065
 5148TIP3    H237004   4.007   0.848   1.991  1.4438 -3.3293  1.8017
 5149TIP3   OH237005   1.258   1.079   7.494 -0.1237 -0.0992  0.2674
 5149TIP3    H137006   1.327   1.013   7.488 -1.4595 -1.4377 -1.0435
 5149TIP3    H237007   1.278   1.141   7.424  0.8595  0.6922  1.1983
 5150TIP3   OH237008   5.081   0.393   2.696 -0.2634 -0.7915  0.1703
 5150TIP3    H137009   5.175   0.412   2.700 -0.2708 -0.9049  2.4606
 5150TIP3    H237010   5.075   0.311   2.647  0.7606 -0.4320 -0.5858
 5151TIP3   OH237011   5.735   2.408   1.864 -0.8184 -0.1763 -0.7973
 5151TIP3    H137012   5.794   2.459   1.919 -0.8462  1.3856 -2.1541
 5151TIP3    H237013   5.766   2.424   1.775 -2.9354  0.2156 -1.4969
 5152TIP3   OH237014   3.480   2.353   1.803  0.0253  0.3734  0.2828
 5152TIP3    H137015   3.399   2.327   1.760  1.0889 -0.9176 -1.0517
 5152TIP3    H237016   3.469   2.328   1.895 -1.1031  0.3047  0.1340
 5153TIP3   OH237017   3.437   3.099   3.554 -0.1407  0.8455  0.2633
 5153TIP3    H137018   3.356   3.140   3.584 -0.3324  1.5575 -1.1557
 5153TIP3    H237019   3.409   3.033   3.490  0.3266  0.2070  0.6995
 5154TIP3   OH237020   1.175   6.298   2.001  0.2235 -0.1047 -0.2209
 5154TIP3    H137021   1.201   6.388   1.978 -0.6642  0.4649  0.9056
 5154TIP3    H237022   1.135   6.306   2.088 -0.8292 -1.4174 -0.5501
 5155TIP3   OH237023   1.351   3.802   3.235  0.5425 -0.5104  0.4872
 5155TIP3    H137024   1.420   3.869   3.228 -0.6860  0.6098 -1.9364
 5155TIP3    H237025   1.381   3.731   3.179  0.0778 -0.3444  0.0282
 5156TIP3   OH237026   1.178   4.993   1.774  0.5209  0.4880 -0.0496
 5156TIP3    H137027   1.240   4.924   1.796  0.7508  0.4646 -0.7440
 5156TIP3    H237028   1.232   5.060   1.731  0.0417  0.3780 -0.8421
 5157TIP3   OH237029   2.622   3.474   1.520  0.6553 -0.3615 -0.2204
 5157TIP3    H137030   2.578   3.391   1.538 -1.2685  0.3406 -1.3466
 5157TIP3    H237031   2.713   3.451   1.505  0.4607 -2.0628  0.9884
 5158TIP3   OH237032   6.832   5.512   7.856  0.3687  0.2222  0.3660
 5158TIP3    H137033   6.857   5.544   7.943  0.6215  1.0540  0.0013
 5158TIP3    H237034   6.745   5.549   7.842  0.4962  0.4324  0.1073
 5159TIP3   OH237035   6.238   3.688   2.252  0.0536 -0.3634 -0.5558
 5159TIP3    H137036   6.332   3.678   2.235  0.1916  0.3671 -0.2661
 5159TIP3    H237037   6.196   3.668   2.169  0.6072  1.4295 -1.3065
 5160TIP3   OH237038   2.344   4.279   2.026 -0.1083  0.6228 -0.2703
 5160TIP3    H137039   2.289   4.245   1.956 -1.5285  0.0444  1.0735
 5160TIP3    H237040   2.283   4.296   2.099  0.7873  4.1789 -0.1623
 5161TIP3   OH237041   2.346   4.229   0.570 -0.4820  0.9867  0.1924
 5161TIP3    H137042   2.253   4.205   0.575 -0.4507  0.4743 -1.1514
 5161TIP3    H237043   2.353   4.307   0.625 -2.1345  2.2064 -1.2072
 5162TIP3   OH237044   6.438   4.527   7.382 -0.2766  0.0129 -0.5522
 5162TIP3    H137045   6.468   4.605   7.336  1.2342 -0.9933 -1.3345
 5162TIP3    H237046   6.515   4.494   7.428 -0.6879 -1.3982 -0.8077
 5163TIP3   OH237047   0.479   6.362   2.685  0.4039 -0.2089 -0.2229
 5163TIP3    H137048   0.529   6.369   2.604  1.4708 -0.9244  0.3467
 5163TIP3    H237049   0.511   6.434   2.739  1.2546 -0.9942  0.3519
 5164TIP3   OH237050   3.064   5.524   0.884  0.0297  0.1298  0.1049
 5164TIP3    H137051   3.067   5.572   0.801  0.1736 -0.0301  0.0171
 5164TIP3    H237052   3.056   5.592   0.950  1.0290  0.3252  0.0363
 5165TIP3   OH237053   0.007   3.508   2.249 -0.0408  0.9766 -0.5182
 5165TIP3    H137054  -0.066   3.498   2.187 -0.5802 -0.1141  0.2686
 5165TIP3    H237055   0.036   3.419   2.267  2.7179  1.4282 -2.1667
 5166TIP3   OH237056   1.776   1.924   2.519  0.8600 -0.1476  0.4972
 5166TIP3    H137057   1.783   1.965   2.606 -0.7075 -0.0358  0.6035
 5166TIP3    H237058   1.693   1.957   2.484  0.1592 -2.2433  0.0636
 5167TIP3   OH237059   3.511   3.234   2.782 -0.5061  0.4263 -0.3389
 5167TIP3    H137060   3.540   3.255   2.694 -0.3099  0.4846 -0.2622
 5167TIP3    H237061   3.554   3.151   2.802  0.3904  0.9785  0.1320
 5168TIP3   OH237062   0.523   4.709   3.085  0.0903  0.3311  0.2223
 5168TIP3    H137063   0.438   4.680   3.054 -0.1689  0.3418  0.9123
 5168TIP3    H237064   0.551   4.641   3.146  1.4952 -0.7100 -1.4771
 5169TIP3   OH237065   3.675   4.386   2.194  0.7545 -0.9439 -0.5328
 5169TIP3    H137066   3.599   4.432   2.232  0.9955 -0.1422 -0.9898
 5169TIP3    H237067   3.638   4.335   2.122 -0.0053 -3.8874  1.7373
 5170TIP3   OH237068   0.356   3.506   2.868  0.4851 -0.0462  0.5497
 5170TIP3    H137069   0.341   3.571   2.937  0.8055  0.5797  0.0345
 5170TIP3    H237070   0.321   3.425   2.904  3.5933 -0.5436  2.8544
 5171TIP3   OH237071   6.209   4.758   8.243  0.1230 -0.5314  0.1535
 5171TIP3    H137072   6.142   4.735   8.307 -0.6241  0.4532 -0.2412
 5171TIP3    H237073   6.174   4.727   8.159  0.0447  0.1758 -0.0859
 5172TIP3   OH237074   4.089   0.794   7.813  0.2267 -0.1009 -0.1214
 5172TIP3    H137075   4.147   0.730   7.770  2.1388  0.6106  1.2382
 5172TIP3    H237076   4.121   0.879   7.783 -1.9044  0.3141 -1.4386
 5173TIP3   OH237077   6.024   2.701   0.921  0.2163  0.2478 -0.6556
 5173TIP3    H137078   5.977   2.764   0.866  2.2929  1.6973 -0.8928
 5173TIP3    H237079   6.110   2.741   0.936  0.9537 -1.6873  0.7983
 5174TIP3   OH237080   5.433   2.679   0.761  0.7632  0.3476  0.2061
 5174TIP3    H137081   5.521   2.718   0.764  0.7899  0.5528 -1.7610
 5174TIP3    H237082   5.449   2.585   0.750  0.8594  0.6165 -2.7820
 5175TIP3   OH237083   6.926   5.839   3.804 -0.3435 -0.3181 -0.2675
 5175TIP3    H137084   6.967   5.907   3.857 -0.4683 -0.4650  0.0210
 5175TIP3    H237085   6.846   5.878   3.771 -0.0384 -0.0736 -0.7239
 5176TIP3   OH237086   1.536   5.509   1.989 -0.3636  0.4807  0.5202
 5176TIP3    H137087   1.458   5.479   1.942 -0.3443 -1.8426  1.8419
 5176TIP3    H237088   1.608   5.490   1.929 -0.3542 -2.3101  1.3195
 5177TIP3   OH237089   5.416   3.559   2.156  0.0691  0.1035  0.5327
 5177TIP3    H137090   5.351   3.593   2.095 -0.1588  2.4832  1.9894
 5177TIP3    H237091   5.374   3.482   2.195 -0.7656  0.0220 -0.4888
 5178TIP3   OH237092   5.259   5.610   8.401  0.0283 -0.0833  0.5222
 5178TIP3    H137093   5.244   5.646   8.313  2.6291 -1.7951 -0.7797
 5178TIP3    H237094   5.342   5.649   8.429 -0.2149 -0.4136  1.7542
 5179TIP3   OH237095   0.248   3.355   2.620 -0.3538  0.3147 -0.5352
 5179TIP3    H137096   0.184   3.321   2.557  1.9072  0.3225 -3.0034
 5179TIP3    H237097   0.227   3.448   2.627 -2.3886 -0.1841  1.0564
 5180TIP3   OH237098   1.182   5.302   1.298  0.2068 -0.0393  1.1520
 5180TIP3    H137099   1.144   5.335   1.217 -0.0137  0.4165  1.4353
 5180TIP3    H237100   1.256   5.247   1.271  0.4798  0.5694  0.6716
 5181TIP3   OH237101   2.389   1.699   7.909 -0.4853  0.0291  0.1027
 5181TIP3    H137102   2.349   1.763   7.969  1.0496  1.4479 -0.3261
 5181TIP3    H237103   2.339   1.709   7.828 -1.8535 -1.1152  0.7676
 5182TIP3   OH237104   5.036   4.177   0.747  0.0105  0.0954  0.2339
 5182TIP3    H137105   5.123   4.217   0.739 -0.4750  0.7945 -2.3860
 5182TIP3    H237106   5.024   4.166   0.842  1.4206  3.3741  0.9443
 5183TIP3   OH237107   2.853   2.771   1.008 -0.1317  0.7306 -0.3327
 5183TIP3    H137108   2.948   2.780   0.997  0.0731  1.9453  1.8671
 5183TIP3    H237109   2.817   2.856   0.981 -0.5537  0.4366 -0.7136
 5184TIP3   OH237110   6.381   0.797   2.439 -0.0022 -0.7477  0.3433
 5184TIP3    H137111   6.456   0.813   2.381  0.0793 -0.2598  0.5709
 5184TIP3    H237112   6.341   0.883   2.449 -1.5543 -1.2666 -1.0532
 5185TIP3   OH237113   0.596   4.508   1.286  0.3819 -0.1483  0.2888
 5185TIP3    H137114   0.636   4.589   1.316  1.9813 -0.7197 -0.1967
 5185TIP3    H237115   0.595   4.451   1.363 -2.1907  0.8004  1.0522
 5186TIP3   OH237116   1.358   1.557   1.883 -0.3911  0.2603 -0.8619
 5186TIP3    H137117   1.360   1.649   1.909  0.7774  0.5397 -1.8530
 5186TIP3    H237118   1.432   1.517   1.929 -0.3483  0.0201 -1.1301
 5187TIP3   OH237119   0.594   5.147   0.023  0.4949  0.2048 -0.4425
 5187TIP3    H137120   0.664   5.169   0.084  1.1325 -0.3577 -0.9594
 5187TIP3    H237121   0.513   5.163   0.073  0.9793 -2.3403  1.3709
 5188TIP3   OH237122   3.132   6.011   2.283  0.2369  0.2984  0.5185
 5188TIP3    H137123   3.086   5.932   2.311  0.1510  0.7506  1.7166
 5188TIP3    H237124   3.103   6.024   2.193  0.5659 -1.2454  0.1615
 5189TIP3   OH237125   3.690   5.045   0.118  0.1602  0.0492 -0.4884
 5189TIP3    H137126   3.650   5.045   0.205 -2.6373  1.0459 -1.6620
 5189TIP3    H237127   3.745   5.123   0.117  2.1731 -1.2357  1.0961
 5190TIP3   OH237128   1.743   4.779   2.438  0.1965 -0.3161 -0.0729
 5190TIP3    H137129   1.768   4.733   2.518  0.0499 -0.7042 -0.2471
 5190TIP3    H237130   1.712   4.865   2.468 -1.1220 -0.9462  0.4140
 5191TIP3   OH237131   1.649   6.465   3.085 -0.0671 -0.1640 -0.3716
 5191TIP3    H137132   1.597   6.537   3.120  0.3306  0.0056 -0.1340
 5191TIP3    H237133   1.728   6.464   3.138  0.1838 -0.4121 -0.7473
 5192TIP3   OH237134   5.611   1.929   8.379 -0.2186  0.1540  0.3475
 5192TIP3    H137135   5.528   1.943   8.334  0.8400  0.2940 -1.6764
 5192TIP3    H237136   5.639   1.841   8.351 -0.4322 -0.5828  2.3069
 5193TIP3   OH237137   0.889   4.861   0.714  0.0448 -0.1042  0.2064
 5193TIP3    H137138   0.812   4.870   0.770 -0.8293 -1.4864 -0.7182
 5193TIP3    H237139   0.947   4.802   0.761 -0.4947 -0.9102 -0.1247
 5194TIP3   OH237140   3.805   6.432   7.636  0.3915  0.0020  0.1722
 5194TIP3    H137141   3.881   6.403   7.585 -0.5354 -1.0872 -0.6307
 5194TIP3    H237142   3.729   6.403   7.586 -0.5674 -0.8258  1.9890
 5195TIP3   OH237143   5.844   2.828   3.852 -0.3339 -0.2962  0.0485
 5195TIP3    H137144   5.842   2.890   3.925  1.1048 -1.3629  1.0361
 5195TIP3    H237145   5.918   2.771   3.870 -0.2685 -0.9521 -1.9770
 5196TIP3   OH237146   3.878   3.285   1.564  0.0738  0.1095 -0.0406
 5196TIP3    H137147   3.809   3.288   1.631 -0.2988 -1.2468 -0.3188
 5196TIP3    H237148   3.852   3.212   1.508  0.3527  1.2621 -1.7100
 5197TIP3   OH237149   0.109   4.337   2.442 -0.4170  0.2392  0.1114
 5197TIP3    H137150   0.200   4.338   2.413 -0.2320  3.2257  0.5028
 5197TIP3    H237151   0.111   4.296   2.528  0.5945  0.5075  0.2178
 5198TIP3   OH237152   6.377   5.618   1.841 -0.4482  0.3413  0.4456
 5198TIP3    H137153   6.446   5.632   1.775 -0.7529  1.0623  0.2750
 5198TIP3    H237154   6.389   5.527   1.868  2.2366  1.1281  2.3062
 5199TIP3   OH237155   6.524   4.105   0.907  0.0309  0.8091 -0.3368
 5199TIP3    H137156   6.548   4.168   0.839  2.3302 -0.8744 -1.2153
 5199TIP3    H237157   6.460   4.048   0.864 -0.7493  1.4973 -0.1026
 5200TIP3   OH237158   1.981   5.143   2.205 -0.5383 -0.5032 -0.1489
 5200TIP3    H137159   1.978   5.161   2.299 -1.4664 -0.8053 -0.1148
 5200TIP3    H237160   1.987   5.230   2.165  1.9261 -0.4249  0.2224
 5201TIP3   OH237161   4.568   6.266   2.404 -0.2593 -0.1400  1.1366
 5201TIP3    H137162   4.617   6.283   2.324  1.4240  0.2309  2.1800
 5201TIP3    H237163   4.492   6.215   2.376 -0.3504  0.9933 -0.8154
 5202TIP3   OH237164   2.288   4.486   0.312 -0.1315 -0.4229  0.3383
 5202TIP3    H137165   2.285   4.551   0.242  0.0097 -1.1133 -0.3221
 5202TIP3    H237166   2.265   4.403   0.268  0.1533 -0.8937  1.0682
 5203TIP3   OH237167   6.629   3.084   8.334  0.6339 -0.0845  0.0798
 5203TIP3    H137168   6.678   3.164   8.317 -2.2568  2.1476  1.5199
 5203TIP3    H237169   6.548   3.094   8.284 -1.6574 -0.0252  3.4645
 5204TIP3   OH237170   3.012   1.870   7.372  0.0674  0.1725  0.3350
 5204TIP3    H137171   3.014   1.841   7.281 -2.3940  3.4821 -0.9773
 5204TIP3    H237172   2.925   1.843   7.404  1.0103 -1.2138  1.8995
 5205TIP3   OH237173   6.033   0.794   0.171  0.4839 -0.4650  0.7435
 5205TIP3    H137174   5.967   0.848   0.127  2.5001  2.7203  1.2469
 5205TIP3    H237175   6.086   0.759   0.100  1.8852  2.1495  0.3559
 5206TIP3   OH237176   4.717   2.041   0.373 -0.0787 -0.1076  0.0399
 5206TIP3    H137177   4.769   2.067   0.449  0.5633 -0.7642 -0.1549
 5206TIP3    H237178   4.766   2.077   0.298 -1.6972  2.1810 -0.0061
 5207TIP3   OH237179   3.697   4.448   1.771 -0.1429 -0.2273 -0.0276
 5207TIP3    H137180   3.665   4.407   1.690  1.3792  0.7154 -1.1610
 5207TIP3    H237181   3.736   4.376   1.820  1.1004 -0.4719 -1.2849
 5208TIP3   OH237182   1.193   5.870   0.345  0.8035  0.4026 -0.2133
 5208TIP3    H137183   1.286   5.872   0.367  1.5507 -0.7275 -2.9040
 5208TIP3    H237184   1.178   5.951   0.295  0.5259  0.2063 -0.4512
 5209TIP3   OH237185   5.504   0.946   0.096 -0.4635  0.4179  0.2816
 5209TIP3    H137186   5.558   1.023   0.078 -0.3820  0.0152 -1.3121
 5209TIP3    H237187   5.458   0.968   0.177  1.5934  1.0252  1.3473
 5210TIP3   OH237188   4.410   1.954   7.801 -0.0315 -0.4821 -0.4074
 5210TIP3    H137189   4.499   1.984   7.782  0.2531 -1.4740 -0.7177
 5210TIP3    H237190   4.365   1.957   7.716 -0.5187  0.6955 -0.1241
 5211TIP3   OH237191   2.366   5.617   1.773 -0.3067 -0.5882  0.0647
 5211TIP3    H137192   2.295   5.661   1.820  0.9030  0.0619  1.3577
 5211TIP3    H237193   2.419   5.688   1.737 -0.5666 -1.0721 -1.3545
 5212TIP3   OH237194   6.791   4.685   7.117 -0.4536  1.0821 -0.0493
 5212TIP3    H137195   6.867   4.720   7.165  0.2270  2.2154 -1.8522
 5212TIP3    H237196   6.825   4.606   7.074 -0.2251  1.6334 -0.9212
 5213TIP3   OH237197   1.873   3.349   0.612  0.0425  0.5046  0.4974
 5213TIP3    H137198   1.831   3.431   0.637 -0.2083  0.5767 -0.1384
 5213TIP3    H237199   1.823   3.318   0.537  0.5952  0.1516  0.2614
 5214TIP3   OH237200   4.128   5.280   2.127 -0.3849 -0.2644  0.3319
 5214TIP3    H137201   4.209   5.330   2.124 -0.9887  0.8408  1.4501
 5214TIP3    H237202   4.117   5.246   2.039  0.4574  0.9197 -0.2528
 5215TIP3   OH237203   4.909   2.243   0.972  0.2034  0.3679 -0.1453
 5215TIP3    H137204   4.867   2.161   0.999 -0.8813 -0.3042 -3.3867
 5215TIP3    H237205   5.002   2.229   0.988  0.1029 -1.7866 -1.1152
 5216TIP3   OH237206   2.258   2.391   1.792  0.0276 -0.0997 -0.3143
 5216TIP3    H137207   2.314   2.314   1.797 -0.0156 -0.0974  0.3387
 5216TIP3    H237208   2.313   2.463   1.824 -0.5112 -0.1975  0.8871
 5217TIP3   OH237209   6.004   2.096   0.339 -0.1035  0.0182 -0.4609
 5217TIP3    H137210   5.993   2.074   0.246 -0.8678 -0.0073 -0.3713
 5217TIP3    H237211   5.976   2.187   0.346 -1.9749 -0.5529  0.0746
 5218TIP3   OH237212   5.781   0.155   2.923 -0.5573 -0.1018 -0.2258
 5218TIP3    H137213   5.770   0.175   2.830 -2.0277 -0.7599 -0.2333
 5218TIP3    H237214   5.840   0.080   2.925 -0.8020 -0.3099 -0.6575
 5219TIP3   OH237215   6.408   5.450   1.467 -0.8558  0.5493  0.6577
 5219TIP3    H137216   6.431   5.448   1.560  0.8973 -0.5279  0.2521
 5219TIP3    H237217   6.465   5.384   1.427 -1.7367  0.8263 -1.1528
 5220TIP3   OH237218   1.130   3.209   1.803  0.3012  0.0974  0.3001
 5220TIP3    H137219   1.111   3.298   1.772 -0.7245 -0.6500 -1.3539
 5220TIP3    H237220   1.061   3.190   1.867 -1.2092 -0.4815 -1.4151
 5221TIP3   OH237221   6.405   1.623   0.952 -0.3245 -0.0134  0.1631
 5221TIP3    H137222   6.494   1.638   0.921 -0.7787 -0.4815 -1.4619
 5221TIP3    H237223   6.355   1.697   0.918 -0.5496  0.3566  1.2378
 5222TIP3   OH237224   6.201   3.190   0.502 -0.2920  0.4091 -0.3981
 5222TIP3    H137225   6.283   3.154   0.469 -0.5262 -1.3650  0.8216
 5222TIP3    H237226   6.161   3.119   0.552 -1.6939  1.8034  0.6017
 5223TIP3   OH237227   5.491   5.223   7.763  0.5332 -0.2591 -0.1994
 5223TIP3    H137228   5.533   5.138   7.749  1.5313 -0.0772  1.4284
 5223TIP3    H237229   5.551   5.271   7.821 -2.5323 -0.5621  3.6665
 5224TIP3   OH237230   2.885   6.840   3.166 -0.1091 -0.6416  0.4946
 5224TIP3    H137231   2.965   6.886   3.191  0.1152 -1.0741  0.5862
 5224TIP3    H237232   2.827   6.909   3.134  0.7576 -0.4523 -0.7816
 5225TIP3   OH237233   1.893   1.453   3.329 -0.5881 -0.0210 -0.0032
 5225TIP3    H137234   1.901   1.384   3.262 -0.9261  1.5043 -1.6971
 5225TIP3    H237235   1.980   1.457   3.369 -0.2809 -0.7833 -0.5531
 5226TIP3   OH237236   0.777   6.934   2.189  0.1719 -0.1732 -0.0569
 5226TIP3    H137237   0.808   6.921   2.279 -0.7329  0.2849  0.3351
 5226TIP3    H237238   0.819   7.014   2.160 -2.7518  2.1335  1.5188
 5227TIP3   OH237239   5.818   2.275   1.345 -0.0034  0.3204 -0.3920
 5227TIP3    H137240   5.733   2.242   1.316 -0.7332  1.2889  0.6000
 5227TIP3    H237241   5.847   2.212   1.411  0.4308 -0.4277 -1.2657
 5228TIP3   OH237242   3.820   3.391   2.113 -0.0325  0.5927  0.1277
 5228TIP3    H137243   3.818   3.384   2.208  1.0980  2.3646  0.3330
 5228TIP3    H237244   3.790   3.480   2.095 -0.0328  0.3515 -1.1553
 5229TIP3   OH237245   6.287   5.218   0.036 -0.1697  0.3053 -0.1729
 5229TIP3    H137246   6.197   5.217   0.070 -0.1600 -0.2003 -0.1482
 5229TIP3    H237247   6.321   5.131   0.058  0.2385  0.4026 -0.4175
 5230TIP3   OH237248   1.877   6.182   3.272  0.1653  0.2073  0.7253
 5230TIP3    H137249   1.910   6.133   3.197 -0.4858 -0.2637  0.7307
 5230TIP3    H237250   1.902   6.130   3.348  0.2130  0.3181  0.7849
 5231TIP3   OH237251   3.711   5.123   8.167 -0.1971 -0.6185 -0.4265
 5231TIP3    H137252   3.667   5.150   8.086 -0.8726  1.2209  0.4899
 5231TIP3    H237253   3.762   5.199   8.194 -1.3280 -0.5384  1.7509
 5232TIP3   OH237254   6.467   4.783   3.163  0.2939 -0.1119  0.3716
 5232TIP3    H137255   6.439   4.828   3.083  1.8846  2.0400  0.9219
 5232TIP3    H237256   6.385   4.766   3.210 -0.4519  1.9155 -0.0656
 5233TIP3   OH237257   6.922   4.097   0.721 -0.2293  0.1268  0.3200
 5233TIP3    H137258   6.914   4.046   0.640 -1.7402  2.2909 -1.0218
 5233TIP3    H237259   6.886   4.040   0.789 -2.3825 -0.4447 -1.1831
 5234TIP3   OH237260   5.640   1.180   0.098 -0.8911  0.5398  0.4066
 5234TIP3    H137261   5.709   1.228   0.145  0.1537 -2.0545  1.6967
 5234TIP3    H237262   5.563   1.237   0.106  0.1597  1.8374  2.1728
 5235TIP3   OH237263   3.019   6.339   0.282  0.1740 -0.0298 -0.0853
 5235TIP3    H137264   3.063   6.262   0.245 -0.2933  0.1186 -0.9872
 5235TIP3    H237265   3.001   6.395   0.206 -2.4235 -0.5253  0.0962
 5236TIP3   OH237266   6.648   0.503   8.042 -0.1322  0.1630  0.1618
 5236TIP3    H137267   6.646   0.535   8.132  0.9039  1.3210 -0.1968
 5236TIP3    H237268   6.572   0.542   8.000  1.1674  2.3681 -0.2992
 5237TIP3   OH237269   5.423   2.212   3.749  0.3398  0.7528  0.2085
 5237TIP3    H137270   5.342   2.262   3.758  0.7429  1.4093  0.2219
 5237TIP3    H237271   5.399   2.123   3.775 -0.8646  0.4696 -1.6882
 5238TIP3   OH237272   1.184   0.698   1.976 -0.0489  0.7479  0.1187
 5238TIP3    H137273   1.207   0.674   2.066  0.0689  0.6415  0.0609
 5238TIP3    H237274   1.141   0.783   1.984 -1.9970 -0.2283  0.5060
 5239TIP3   OH237275   3.320   6.416   1.763 -0.0067  0.3027 -0.5552
 5239TIP3    H137276   3.305   6.324   1.741  2.4251 -0.3172  0.0137
 5239TIP3    H237277   3.337   6.458   1.679 -1.1402  0.2590 -0.8195
 5240TIP3   OH237278   0.804   0.789   8.326 -0.8026  0.3756  0.3730
 5240TIP3    H137279   0.749   0.753   8.395  0.3086  0.4275  1.3102
 5240TIP3    H237280   0.766   0.875   8.308 -1.3099  0.2165  0.6708
 5241TIP3   OH237281   4.442   2.261   1.390  0.0098  0.0465  0.0376
 5241TIP3    H137282   4.521   2.289   1.437  1.1805 -1.7735 -0.7425
 5241TIP3    H237283   4.381   2.334   1.401  1.9324  1.7122  0.3224
 5242TIP3   OH237284   6.242   6.666   0.981 -0.2591 -0.6325  0.4363
 5242TIP3    H137285   6.182   6.733   0.949  1.2201  0.9462  0.8676
 5242TIP3    H237286   6.225   6.590   0.924 -1.7919  0.1619 -0.2144
 5243TIP3   OH237287   0.858   2.813   3.216  0.8563 -0.1269  0.1185
 5243TIP3    H137288   0.935   2.776   3.173 -0.4866 -1.2925 -1.3805
 5243TIP3    H237289   0.826   2.743   3.273  1.1600  0.5299  1.1251
 5244TIP3   OH237290   5.606   2.804   1.805 -0.5192  0.0613 -0.3463
 5244TIP3    H137291   5.576   2.723   1.764  0.9373 -0.5064 -0.3509
 5244TIP3    H237292   5.701   2.795   1.809 -0.4657  0.9203  1.4414
 5245TIP3   OH237293   5.414   1.759   2.150  0.1602  0.0308 -0.1490
 5245TIP3    H137294   5.370   1.744   2.066 -0.5913  0.1319  0.2195
 5245TIP3    H237295   5.368   1.833   2.189 -1.0436 -1.4510  1.3929
 5246TIP3   OH237296   2.895   3.888   2.680 -0.0675  0.4581 -0.2675
 5246TIP3    H137297   2.858   3.858   2.763 -1.5677  1.7219 -0.4363
 5246TIP3    H237298   2.844   3.841   2.613  1.8869 -1.4305 -0.5404
 5247TIP3   OH237299   3.239   2.868   1.524 -0.1039  0.0349 -0.3002
 5247TIP3    H137300   3.294   2.904   1.454  0.3255 -1.0422 -0.5336
 5247TIP3    H237301   3.243   2.773   1.511  0.9788 -0.2790  1.9163
 5248TIP3   OH237302   0.609   4.095   2.072  0.2236 -0.1785 -0.2845
 5248TIP3    H137303   0.592   4.045   2.152  2.3108 -3.2656 -1.5748
 5248TIP3    H237304   0.695   4.134   2.086 -1.0002  2.4714  0.3421
 5249TIP3   OH237305   2.462   5.299   0.499 -0.1860 -0.3328  0.0602
 5249TIP3    H137306   2.528   5.368   0.492  0.0072 -0.4264  0.7990
 5249TIP3    H237307   2.460   5.278   0.593 -1.2587 -0.3351  0.0480
 5250TIP3   OH237308   5.040   5.345   1.366  0.0200  0.3461  0.2154
 5250TIP3    H137309   4.990   5.419   1.402  0.4844  0.4382  0.6750
 5250TIP3    H237310   5.126   5.352   1.407 -0.2365 -1.0401  1.0454
 5251TIP3   OH237311   6.473   6.680   0.625 -0.4395 -0.4564  0.1797
 5251TIP3    H137312   6.401   6.742   0.635  0.1231  0.0583  1.2728
 5251TIP3    H237313   6.536   6.725   0.568  0.7175  0.7549  2.2640
 5252TIP3   OH237314   3.534   3.991   3.080  0.2149 -0.5467 -0.0363
 5252TIP3    H137315   3.467   3.938   3.124 -1.4429  0.4470 -1.2379
 5252TIP3    H237316   3.550   3.945   2.998 -0.7154  0.3783 -0.7688
 5253TIP3   OH237317   3.979   1.411   1.234 -0.0103  0.2035  0.1669
 5253TIP3    H137318   3.952   1.470   1.163  1.1979 -0.2901 -0.7494
 5253TIP3    H237319   4.049   1.458   1.279  2.1852 -1.1195 -1.6472
 5254TIP3   OH237320   4.915   4.283   3.047  0.2011 -0.8689 -0.3743
 5254TIP3    H137321   4.887   4.363   3.092  2.3579 -0.2536 -0.0220
 5254TIP3    H237322   4.882   4.292   2.958  0.7696  0.6323 -0.4485
 5255TIP3   OH237323   6.890   2.360   1.301 -0.3006  0.0445  0.4655
 5255TIP3    H137324   6.862   2.269   1.315 -0.3055 -0.1694 -0.8009
 5255TIP3    H237325   6.831   2.412   1.354  1.4383 -0.8225  3.5016
 5256TIP3   OH237326   5.387   2.267   2.444  0.1586 -0.2284 -0.2412
 5256TIP3    H137327   5.438   2.302   2.517  2.1291 -0.4184 -1.4274
 5256TIP3    H237328   5.309   2.321   2.440  1.8854  2.4561 -0.4239
 5257TIP3   OH237329   1.300   4.525   1.138 -0.4019  0.4328 -0.4028
 5257TIP3    H137330   1.330   4.522   1.048 -0.3662  1.0277 -0.4121
 5257TIP3    H237331   1.210   4.557   1.132 -0.7316 -0.4366 -0.2998
 5258TIP3   OH237332   6.063   5.953   3.118 -0.2911  0.4812  0.8531
 5258TIP3    H137333   6.057   5.891   3.045  0.9997  0.9798  0.2914
 5258TIP3    H237334   5.973   5.977   3.136 -0.7252 -0.5774  0.2269
 5259TIP3   OH237335   0.958   4.470   7.764  0.6601 -0.2539 -0.4961
 5259TIP3    H137336   0.929   4.562   7.761 -2.0120 -1.0069 -0.0664
 5259TIP3    H237337   0.930   4.434   7.680  0.7758 -0.9231 -0.2461
 5260TIP3   OH237338   1.845   6.296   2.577 -0.1458  0.0069  0.1303
 5260TIP3    H137339   1.938   6.315   2.589  0.0994 -1.3974  0.6839
 5260TIP3    H237340   1.840   6.253   2.492 -0.6513  2.1048 -0.9737
 5261TIP3   OH237341   3.690   3.825   8.096 -0.0594  0.6378  0.5820
 5261TIP3    H137342   3.702   3.801   8.005 -1.0179  0.2985  0.5359
 5261TIP3    H237343   3.736   3.909   8.105  3.0281 -0.9159  0.6640
 5262TIP3   OH237344   4.962   0.298   2.203 -0.4475  0.0146  0.0861
 5262TIP3    H137345   4.937   0.235   2.271 -2.0581 -0.0017 -0.4821
 5262TIP3    H237346   4.888   0.359   2.199  0.7259  1.4697  0.0371
 5263TIP3   OH237347   0.967   1.780   1.149  0.1626 -0.3266 -0.5379
 5263TIP3    H137348   1.024   1.707   1.127  1.5329  0.7234 -0.5822
 5263TIP3    H237349   1.018   1.858   1.128  0.4875  0.7553  3.4078
 5264TIP3   OH237350   4.372   3.541   0.576  0.1396  0.1972  0.2163
 5264TIP3    H137351   4.319   3.486   0.519  0.0013 -0.8226  1.2908
 5264TIP3    H237352   4.461   3.534   0.541 -0.2247  1.0790 -0.9610
 5265TIP3   OH237353   3.465   5.105   1.675 -0.1322 -0.3558 -0.3525
 5265TIP3    H137354   3.484   5.050   1.599 -0.3999 -0.4392 -0.3595
 5265TIP3    H237355   3.458   5.044   1.748 -1.6147 -0.4709 -0.5624
 5266TIP3   OH237356   5.193   0.700   1.521 -0.4361 -0.2400 -0.0865
 5266TIP3    H137357   5.214   0.768   1.457  0.2021  2.0708  2.3785
 5266TIP3    H237358   5.125   0.739   1.576  0.2216 -1.4189  1.6536
 5267TIP3   OH237359   5.445   0.388   3.235 -0.2111  0.0450  0.0889
 5267TIP3    H137360   5.366   0.362   3.284 -0.1384 -1.1829 -0.4056
 5267TIP3    H237361   5.508   0.412   3.303 -0.6574 -0.0137  0.5341
 5268TIP3   OH237362   0.080   4.677   2.049  0.8444  0.5486 -0.6675
 5268TIP3    H137363   0.109   4.649   2.135  0.6214  0.3996 -0.6386
 5268TIP3    H237364   0.033   4.601   2.014  0.8296  0.6501 -0.8700
 5269TIP3   OH237365   2.045   1.527   7.697 -0.1634  0.0856  0.1951
 5269TIP3    H137366   2.089   1.516   7.612 -0.2276 -1.0241  0.2959
 5269TIP3    H237367   1.962   1.480   7.687  0.2253 -0.8261  1.1730
 5270TIP3   OH237368   2.098   6.008   2.838 -0.2931 -0.0829 -0.4602
 5270TIP3    H137369   2.167   5.980   2.777 -0.1823  0.5589 -0.6383
 5270TIP3    H237370   2.039   5.933   2.844 -0.6081  0.0275 -1.7898
 5271TIP3   OH237371   4.694   5.254   8.387 -0.0096  0.0891 -0.1540
 5271TIP3    H137372   4.645   5.288   8.312 -2.8880 -1.4835  0.8525
 5271TIP3    H237373   4.684   5.321   8.455 -0.1497  0.0913 -0.1765
 5272TIP3   OH237374   5.506   2.689   0.385  1.0213 -0.3235 -0.7314
 5272TIP3    H137375   5.583   2.672   0.331  1.7436  2.5767 -0.8019
 5272TIP3    H237376   5.532   2.762   0.441 -0.5199 -1.6169  1.8649
 5273TIP3   OH237377   1.790   4.652   8.203  0.0726  0.0601  0.1498
 5273TIP3    H137378   1.697   4.668   8.214  0.1080  1.2594 -0.9839
 5273TIP3    H237379   1.832   4.698   8.276 -0.1694  0.3641  0.0964
 5274TIP3   OH237380   6.901   5.505   1.659 -0.3146 -0.3039  0.0102
 5274TIP3    H137381   6.921   5.430   1.715  0.7540  0.0446  0.1242
 5274TIP3    H237382   6.814   5.533   1.687 -0.5217 -1.1915  0.3023
 5275TIP3   OH237383   1.993   5.265   0.206 -0.0878 -0.3592  0.4357
 5275TIP3    H137384   2.077   5.233   0.240 -0.3501 -1.3581  0.1630
 5275TIP3    H237385   1.985   5.353   0.243  0.8014 -0.4769  0.9463
 5276TIP3   OH237386   5.309   4.120   1.152  0.0518  0.5786 -0.3174
 5276TIP3    H137387   5.387   4.068   1.132 -1.2822 -1.3250 -0.8868
 5276TIP3    H237388   5.342   4.195   1.201  2.1388 -0.5543  0.1264
 5277TIP3   OH237389   4.263   0.980   3.278 -0.0342 -0.1816  0.0445
 5277TIP3    H137390   4.306   0.951   3.358  0.3451  0.9634  0.2703
 5277TIP3    H237391   4.333   0.986   3.213 -0.0355  0.5684  0.1026
 5278TIP3   OH237392   3.579   5.413   2.355  0.5833  0.5512  0.3504
 5278TIP3    H137393   3.498   5.464   2.355 -0.6733 -1.3084  1.4419
 5278TIP3    H237394   3.612   5.421   2.445  0.6547 -0.1136  0.3883
 5279TIP3   OH237395   0.578   1.109   2.363  0.7243 -0.1542  0.4541
 5279TIP3    H137396   0.595   1.089   2.271 -1.2718 -0.8645  0.1805
 5279TIP3    H237397   0.664   1.105   2.405  1.8413  1.1189 -1.5073
 5280TIP3   OH237398   1.457   6.011   0.245  1.0835 -0.2432  0.1529
 5280TIP3    H137399   1.426   6.095   0.213  1.7520  0.1138  0.4258
 5280TIP3    H237400   1.552   6.020   0.250  1.1073 -0.7501  0.9001
 5281TIP3   OH237401   3.088   0.233   1.178 -0.1539 -0.0332  0.2198
 5281TIP3    H137402   3.017   0.295   1.163  1.3519  1.2921 -1.8628
 5281TIP3    H237403   3.058   0.181   1.253 -2.8425  1.1120  0.0639
 5282TIP3   OH237404   4.119   4.219   1.474 -0.0422 -0.4064 -0.0333
 5282TIP3    H137405   4.029   4.240   1.450  0.7450  1.9354 -1.2497
 5282TIP3    H237406   4.114   4.188   1.564 -2.0145  0.1694  0.0886
 5283TIP3   OH237407   4.295   0.694   2.046 -0.1642 -0.0748  0.0354
 5283TIP3    H137408   4.224   0.758   2.043 -0.0088  0.1661  1.1963
 5283TIP3    H237409   4.315   0.677   1.954  0.0887  1.8826 -0.3294
 5284TIP3   OH237410   2.073   3.982   1.003  0.6208 -0.0443 -0.1634
 5284TIP3    H137411   2.142   3.956   0.941  1.6016 -0.4691  1.0558
 5284TIP3    H237412   2.023   3.902   1.019  1.0318 -0.2011  0.3834
 5285TIP3   OH237413   0.221   2.534   2.148 -0.2497  0.4420 -0.4479
 5285TIP3    H137414   0.228   2.511   2.056  0.6172 -1.3739  0.0206
 5285TIP3    H237415   0.194   2.453   2.191  1.1116  0.7513  1.1029
 5286TIP3   OH237416   4.232   0.876   2.497 -0.0915 -0.0536 -0.0231
 5286TIP3    H137417   4.156   0.825   2.468 -0.1264 -1.0550  1.6632
 5286TIP3    H237418   4.195   0.960   2.525 -0.9227 -1.1284  2.3991
 5287TIP3   OH237419   3.639   4.982   1.459  0.2450 -0.0708 -0.2196
 5287TIP3    H137420   3.671   4.938   1.538  1.6751 -0.0611 -0.7580
 5287TIP3    H237421   3.669   5.072   1.468  0.9702 -0.2175 -1.0502
 5288TIP3   OH237422   0.786   0.339   1.771 -0.6385 -0.1125  0.1041
 5288TIP3    H137423   0.824   0.264   1.726  0.1982  0.7254 -0.6615
 5288TIP3    H237424   0.860   0.380   1.816 -0.2060  2.4085 -2.6190
 5289TIP3   OH237425   2.391   0.463   0.362  0.1697  0.3169  0.7129
 5289TIP3    H137426   2.462   0.508   0.408 -0.0009  0.1545  1.1372
 5289TIP3    H237427   2.416   0.468   0.269 -0.3887  2.2637  0.6255
 5290TIP3   OH237428   0.638   4.307   0.699  0.0099 -0.1540 -0.3815
 5290TIP3    H137429   0.567   4.267   0.748  0.6314 -1.3628 -0.4300
 5290TIP3    H237430   0.604   4.392   0.671 -1.0958 -0.3576  0.3192
 5291TIP3   OH237431   5.832   4.985   2.734  0.5641 -0.0452  0.6911
 5291TIP3    H137432   5.887   4.987   2.813  1.6063 -1.7230  0.0610
 5291TIP3    H237433   5.892   4.967   2.663 -0.7649 -1.8747 -0.0451
 5292TIP3   OH237434   6.319   6.220   2.459  0.5296 -0.2556  0.4545
 5292TIP3    H137435   6.380   6.293   2.463  0.5896 -0.3447  1.3588
 5292TIP3    H237436   6.374   6.142   2.462  0.5364 -0.3908 -1.4356
 5293TIP3   OH237437   0.950   2.863   7.706 -0.1342 -0.1249  0.3784
 5293TIP3    H137438   0.900   2.918   7.646 -0.6491 -0.1256  0.7998
 5293TIP3    H237439   1.026   2.836   7.656  0.1327  0.9695  0.1642
 5294TIP3   OH237440   0.672   4.519   8.197  0.2649 -0.0696 -1.0579
 5294TIP3    H137441   0.678   4.609   8.229  0.1403 -0.3060 -0.3533
 5294TIP3    H237442   0.613   4.524   8.122  1.3686  0.6677 -1.9175
 5295TIP3   OH237443   3.510   3.175   1.228  0.1387  0.4698 -0.7760
 5295TIP3    H137444   3.445   3.179   1.157  1.5429 -0.2776 -2.1748
 5295TIP3    H237445   3.489   3.251   1.283 -1.9934  0.1621 -1.0727
 5296TIP3   OH237446   3.147   1.437   1.425 -0.2672 -0.0902  0.1558
 5296TIP3    H137447   3.146   1.530   1.447 -1.2516 -0.1606  0.4733
 5296TIP3    H237448   3.166   1.434   1.331  1.7622  0.3224  0.5179
 5297TIP3   OH237449   3.503   1.873   8.315  0.5389  0.0924 -0.4583
 5297TIP3    H137450   3.532   1.830   8.395  2.9853  1.2261 -0.6427
 5297TIP3    H237451   3.466   1.957   8.344  1.2071  0.3998 -0.4811
 5298TIP3   OH237452   2.064   4.758   1.564 -0.0262 -0.2418 -0.0435
 5298TIP3    H137453   1.994   4.714   1.516 -0.0896  0.5987 -0.7501
 5298TIP3    H237454   2.131   4.691   1.576 -0.4229 -0.7226 -0.4584
 5299TIP3   OH237455   0.518   5.832   2.195 -0.7131  0.3376  0.0194
 5299TIP3    H137456   0.613   5.843   2.193 -0.2434 -2.2709  2.2104
 5299TIP3    H237457   0.499   5.771   2.124 -0.6505  0.2798  0.0523
 5300TIP3   OH237458   1.544   0.859   0.171 -0.1336 -0.1091 -0.3740
 5300TIP3    H137459   1.524   0.769   0.148 -0.9965  0.2113 -0.9437
 5300TIP3    H237460   1.546   0.860   0.266  0.9814 -0.9393 -0.3616
 5301TIP3   OH237461   2.294   1.231   7.755 -0.5684 -0.0909  0.0115
 5301TIP3    H137462   2.236   1.181   7.698 -0.7767 -0.2145  0.3239
 5301TIP3    H237463   2.361   1.267   7.697  0.9486 -2.6006  0.0608
 5302TIP3   OH237464   5.182   4.308   0.524  0.0817  0.4876 -0.3332
 5302TIP3    H137465   5.092   4.288   0.497  0.3629  0.5746 -1.4020
 5302TIP3    H237466   5.187   4.404   0.519 -0.0312  0.5508  0.6379
 5303TIP3   OH237467   0.396   2.045   1.953 -0.3695 -0.4989  0.3008
 5303TIP3    H137468   0.468   2.001   1.907 -0.3839  0.6445 -0.8557
 5303TIP3    H237469   0.421   2.042   2.046  1.4330  0.3288 -0.1169
 5304TIP3   OH237470   0.489   6.590   3.164 -0.3496  0.8080  0.0772
 5304TIP3    H137471   0.413   6.631   3.204 -0.8023  0.4160 -0.3729
 5304TIP3    H237472   0.502   6.509   3.214 -0.9495  0.2899 -0.5862
 5305TIP3   OH237473   4.945   6.249   0.500 -0.8319 -0.0847 -0.2870
 5305TIP3    H137474   4.852   6.232   0.515 -1.3127  2.0817 -0.4690
 5305TIP3    H237475   4.947   6.306   0.423  0.3470  2.5227  1.5204
 5306TIP3   OH237476   5.877   6.288   0.407  0.3739  0.2217  0.1681
 5306TIP3    H137477   5.849   6.369   0.449  1.4695  1.6260 -1.6663
 5306TIP3    H237478   5.972   6.298   0.395  0.1579 -0.1332 -2.4258
 5307TIP3   OH237479   5.822   5.463   2.390  0.2241 -0.2399 -0.3116
 5307TIP3    H137480   5.818   5.373   2.420  1.6793  0.0349  0.7966
 5307TIP3    H237481   5.863   5.458   2.303 -0.8068 -0.7172 -0.7938
 5308TIP3   OH237482   6.030   5.424   2.183 -0.3934  0.8134  0.2519
 5308TIP3    H137483   6.057   5.516   2.191  0.0487  1.0384 -2.6209
 5308TIP3    H237484   6.059   5.399   2.095 -1.4162 -1.7912  0.5838
 5309TIP3   OH237485   6.325   2.846   3.687 -0.0316  0.0953 -0.7403
 5309TIP3    H137486   6.326   2.941   3.690  3.3779  0.1620  0.9044
 5309TIP3    H237487   6.385   2.824   3.615 -0.7439 -0.8099 -1.0698
 5310TIP3   OH237488   3.227   4.969   0.360  0.0136  0.0356 -0.0457
 5310TIP3    H137489   3.165   4.922   0.416 -0.0755 -0.0107 -0.1824
 5310TIP3    H237490   3.311   4.960   0.404  0.1155 -0.7775 -0.3909
 5311TIP3   OH237491   1.609   0.234   1.890  0.9686  0.0267 -0.2438
 5311TIP3    H137492   1.596   0.151   1.937 -1.2151  0.3127 -0.2046
 5311TIP3    H237493   1.702   0.253   1.900  1.3023 -1.8347  0.7270
 5312TIP3   OH237494   3.334   0.793   0.713  0.1737  0.4221  0.3720
 5312TIP3    H137495   3.410   0.790   0.656  0.3515 -0.8786  0.6413
 5312TIP3    H237496   3.346   0.719   0.773 -1.6040 -0.2208  0.0105
 5313TIP3   OH237497   2.243   6.622   1.228 -0.1043 -0.3694  0.5215
 5313TIP3    H137498   2.248   6.572   1.147 -0.7444 -0.1252  0.3271
 5313TIP3    H237499   2.151   6.647   1.236 -0.2579 -1.2251  1.8287
 5314TIP3   OH237500   5.210   0.328   3.349  0.1445 -0.3541  0.0212
 5314TIP3    H137501   5.246   0.409   3.383  0.7606  0.7226 -2.8682
 5314TIP3    H237502   5.126   0.353   3.311 -0.9396 -1.6631  1.3960
 5315TIP3   OH237503   6.644   2.457   8.230  0.7687 -0.3399 -0.3044
 5315TIP3    H137504   6.714   2.523   8.237  0.7843 -0.3295 -0.5454
 5315TIP3    H237505   6.581   2.497   8.170  0.1462  0.0127  0.5737
 5316TIP3   OH237506   6.399   1.849   3.994 -0.1227  0.0318 -0.2206
 5316TIP3    H137507   6.370   1.906   3.923  0.4513 -0.4681 -0.8777
 5316TIP3    H237508   6.448   1.906   4.053 -1.3106  0.6179  0.2210
 5317TIP3   OH237509   3.017   5.907   8.014 -0.3361 -0.4496 -0.8133
 5317TIP3    H137510   3.102   5.864   8.018 -0.7015 -1.1139  0.2514
 5317TIP3    H237511   2.966   5.867   8.085 -1.0410  1.0274 -0.4442
 5318TIP3   OH237512   5.153   0.651   0.038 -0.2426  0.3759  0.3302
 5318TIP3    H137513   5.209   0.689  -0.029  0.6086  0.0234  0.8288
 5318TIP3    H237514   5.073   0.703   0.035 -0.0512  0.6248 -0.6737
 5319TIP3   OH237515   1.831   5.832   8.340 -0.5578 -0.0630  0.9154
 5319TIP3    H137516   1.824   5.827   8.435 -1.1213 -0.0222  0.8828
 5319TIP3    H237517   1.750   5.791   8.308  0.0705 -0.9459  0.4289
 5320TIP3   OH237518   1.069   5.643   3.001  0.4781 -0.5765  0.4599
 5320TIP3    H137519   1.114   5.686   3.074  2.4539 -1.4652 -0.1518
 5320TIP3    H237520   1.014   5.576   3.043  0.1778  0.1149  1.2051
 5321TIP3   OH237521   3.467   2.231   2.806  0.5130  0.2892  0.1827
 5321TIP3    H137522   3.393   2.293   2.803 -1.3066 -1.7996 -0.4348
 5321TIP3    H237523   3.487   2.224   2.899  0.9745  2.0046  0.2512
 5322TIP3   OH237524   4.935   6.480   1.218  0.0384  0.3472  0.5395
 5322TIP3    H137525   4.936   6.528   1.136 -0.8062 -0.3190  0.1308
 5322TIP3    H237526   4.857   6.425   1.214 -0.2860  0.6487  1.9919
 5323TIP3   OH237527   4.425   3.680   2.637 -0.0311 -0.7644  0.1206
 5323TIP3    H137528   4.409   3.666   2.730 -0.0999  0.5114  0.3121
 5323TIP3    H237529   4.355   3.738   2.609  1.7790  1.5033  0.0156
 5324TIP3   OH237530   0.470   5.955   2.780  0.4326 -0.2864  0.5085
 5324TIP3    H137531   0.496   5.866   2.755  2.2073 -0.0003  1.1621
 5324TIP3    H237532   0.511   6.011   2.714 -1.1227  0.0535 -0.2155
 5325TIP3   OH237533   3.524   1.824   1.755 -0.0719  0.7139  0.6770
 5325TIP3    H137534   3.442   1.853   1.715  0.1139 -0.1855 -0.3926
 5325TIP3    H237535   3.567   1.905   1.784  0.2469  1.5392 -1.8613
 5326TIP3   OH237536   0.371   3.676   3.091  0.4522  0.2468 -0.1134
 5326TIP3    H137537   0.312   3.751   3.091 -0.4558 -0.4403 -0.4220
 5326TIP3    H237538   0.453   3.710   3.125  0.0994  1.4060 -0.3547
 5327TIP3   OH237539   6.598   6.719   2.969 -0.5024  0.1440  0.7310
 5327TIP3    H137540   6.606   6.807   2.934 -1.4372 -0.0867 -0.0790
 5327TIP3    H237541   6.512   6.689   2.942 -0.8132 -0.4698  2.2669
 5328TIP3   OH237542   2.515   5.217   1.670  0.3460  0.1179  0.7910
 5328TIP3    H137543   2.562   5.201   1.587  1.2463 -0.0162  1.3105
 5328TIP3    H237544   2.573   5.274   1.719 -1.4210  2.5297  0.2478
 5329TIP3   OH237545   6.286   4.196   1.435  0.3103 -0.1841  0.3606
 5329TIP3    H137546   6.287   4.271   1.374 -0.0580 -0.5892 -0.1544
 5329TIP3    H237547   6.369   4.151   1.418 -0.4679 -1.1823 -0.9875
 5330TIP3   OH237548   6.904   3.912   1.193  0.5012 -0.4453 -0.4427
 5330TIP3    H137549   6.991   3.873   1.184 -1.2405 -4.2288 -4.8568
 5330TIP3    H237550   6.908   3.992   1.141  1.4995 -0.1268  0.0926
 5331TIP3   OH237551   4.586   4.475   8.318 -0.6310 -0.5258  0.1213
 5331TIP3    H137552   4.609   4.518   8.236 -0.5164  0.1823  0.5176
 5331TIP3    H237553   4.601   4.541   8.386 -0.8570 -1.0511  0.7027
 5332TIP3   OH237554   2.868   1.778   1.246  0.0476 -0.2724 -0.3259
 5332TIP3    H137555   2.858   1.800   1.153 -0.3545  1.0462  0.0039
 5332TIP3    H237556   2.879   1.863   1.289 -0.3693 -0.8244  0.9051
 5333TIP3   OH237557   6.131   2.603   0.522 -0.4593  0.4034  0.0572
 5333TIP3    H137558   6.064   2.620   0.457 -2.0754  0.9041  1.7620
 5333TIP3    H237559   6.143   2.688   0.566  1.6013  0.4296 -0.4480
 5334TIP3   OH237560   3.288   1.744   2.634 -0.2549 -0.1029  0.1645
 5334TIP3    H137561   3.299   1.832   2.596  2.6769 -0.3312  0.1977
 5334TIP3    H237562   3.307   1.684   2.562 -1.0876 -0.6923  0.4277
 5335TIP3   OH237563   6.052   2.122   0.938  0.3558  0.3629  0.2207
 5335TIP3    H137564   6.033   2.096   1.029 -0.4118  2.1925  0.6275
 5335TIP3    H237565   6.114   2.194   0.947  0.6552  0.2252 -0.7382
 5336TIP3   OH237566   3.244   2.879   8.199 -0.0413  0.1238 -0.1722
 5336TIP3    H137567   3.219   2.794   8.162  2.1454 -0.0941 -1.2916
 5336TIP3    H237568   3.250   2.862   8.293 -1.6442 -0.4035 -0.1431
 5337TIP3   OH237569   3.065   1.232   1.161 -0.4757 -0.6818 -0.1547
 5337TIP3    H137570   3.133   1.165   1.161 -1.8409 -2.1414 -0.0700
 5337TIP3    H237571   3.064   1.264   1.071 -0.0737 -1.0646 -0.3018
 5338TIP3   OH237572   2.249   6.173   0.849 -0.5616 -0.0596 -0.2392
 5338TIP3    H137573   2.158   6.150   0.832  0.0363 -3.6270  0.5221
 5338TIP3    H237574   2.265   6.145   0.939  1.0583  1.4375  0.0023
 5339TIP3   OH237575   6.711   6.250   3.053 -0.0987  0.0297 -0.2779
 5339TIP3    H137576   6.731   6.160   3.028 -1.5026 -0.2990 -0.2672
 5339TIP3    H237577   6.627   6.268   3.012  0.1096  1.3006 -0.1725
 5340TIP3   OH237578   0.940   6.848   0.011 -0.6775 -0.3452 -0.2052
 5340TIP3    H137579   1.029   6.859   0.045 -0.7569  1.3664 -0.4342
 5340TIP3    H237580   0.904   6.774   0.059  0.7379 -0.8089  0.1677
 5341TIP3   OH237581   1.215   5.339   2.324 -0.6853  0.2508 -0.0537
 5341TIP3    H137582   1.253   5.352   2.411  0.1198  1.4689 -0.5640
 5341TIP3    H237583   1.157   5.263   2.334 -1.3790  0.9695  1.7808
 5342TIP3   OH237584   1.332   4.364   7.392  0.2352  0.5272  0.1042
 5342TIP3    H137585   1.414   4.363   7.341  0.2845  1.9260  0.1261
 5342TIP3    H237586   1.318   4.456   7.413 -0.4259  0.1119  1.6098
 5343TIP3   OH237587   1.686   5.479   2.445  0.2454  0.1990  0.1222
 5343TIP3    H137588   1.717   5.531   2.519 -0.2756 -2.7119  2.5879
 5343TIP3    H237589   1.603   5.441   2.476  0.5996 -2.0464 -1.4533
 5344TIP3   OH237590   0.132   1.084   3.001 -0.4323 -0.1513 -0.2042
 5344TIP3    H137591   0.217   1.060   2.963 -0.0307  0.1551  0.4898
 5344TIP3    H237592   0.143   1.175   3.029 -1.6938  0.6577 -2.1033
 5345TIP3   OH237593   6.910   4.433   3.005 -0.1214 -0.2449 -0.9727
 5345TIP3    H137594   6.975   4.472   3.064 -1.0743  1.7079 -1.1278
 5345TIP3    H237595   6.902   4.343   3.034  2.1991 -0.3986 -0.5560
 5346TIP3   OH237596   1.742   3.241   7.553  0.4507  0.0923  0.4441
 5346TIP3    H137597   1.654   3.232   7.517 -0.0266  2.7362  0.7415
 5346TIP3    H237598   1.774   3.324   7.517  2.7570 -0.6803  0.5295
 5347TIP3   OH237599   4.856   6.573   1.578 -0.2197  0.2532  0.6441
 5347TIP3    H137600   4.804   6.560   1.499  1.2979 -1.1978 -0.1715
 5347TIP3    H237601   4.821   6.510   1.641  0.6568 -0.8811  0.0226
 5348TIP3   OH237602   1.091   4.511   2.805 -0.5135 -0.5126  0.6313
 5348TIP3    H137603   1.019   4.458   2.840  0.1430  0.1470  3.2276
 5348TIP3    H237604   1.168   4.482   2.853  0.3902  0.8548  0.0726
 5349TIP3   OH237605   3.206   4.594   7.153  0.9018  0.3605 -0.1843
 5349TIP3    H137606   3.122   4.550   7.143  0.2504  2.0325 -4.0520
 5349TIP3    H237607   3.188   4.666   7.214 -0.5627  0.7093 -0.9655
 5350TIP3   OH237608   0.487   1.116   3.110  0.3558  0.1654 -0.1030
 5350TIP3    H137609   0.479   1.121   3.205  1.0904 -0.2886 -0.0045
 5350TIP3    H237610   0.485   1.207   3.080  1.5668  0.4062  0.4899
 5351TIP3   OH237611   0.684   1.226   1.732  0.1191 -0.2370 -0.7079
 5351TIP3    H137612   0.632   1.216   1.653 -0.3185  1.2014 -0.6377
 5351TIP3    H237613   0.719   1.315   1.726  0.4020 -0.2487  0.5137
 5352TIP3   OH237614   4.598   2.184   8.143  0.0206 -1.1115  0.4934
 5352TIP3    H137615   4.632   2.261   8.189  0.9895 -1.5057  0.4410
 5352TIP3    H237616   4.604   2.207   8.051  0.1936 -1.1995  0.4822
 5353TIP3   OH237617   6.142   4.680   7.974 -0.0805 -0.1286  0.4706
 5353TIP3    H137618   6.185   4.603   7.936  2.3918  0.7540  1.2811
 5353TIP3    H237619   6.114   4.731   7.898  0.4751 -0.6639 -0.1178
 5354TIP3   OH237620   5.976   6.660   8.473 -0.3612  0.0555  0.0988
 5354TIP3    H137621   5.931   6.651   8.388  0.9118  2.2027 -0.8802
 5354TIP3    H237622   6.059   6.614   8.460 -0.5532 -0.4132  0.5172
 5355TIP3   OH237623   0.162   1.477   1.691  0.2816  0.6691  0.8852
 5355TIP3    H137624   0.234   1.459   1.751  0.5424 -2.5987 -0.1871
 5355TIP3    H237625   0.200   1.469   1.604 -1.1156 -0.1970  0.3044
 5356TIP3   OH237626   1.499   2.207   1.493 -0.1861  0.9236  0.0767
 5356TIP3    H137627   1.499   2.300   1.471  0.6019  0.9705  0.2409
 5356TIP3    H237628   1.524   2.164   1.412  0.4315  0.9296  0.2610
 5357TIP3   OH237629   1.305   3.681   8.416  0.0225 -0.3391  0.0707
 5357TIP3    H137630   1.273   3.734   8.489  0.0831  0.2678 -0.3401
 5357TIP3    H237631   1.226   3.650   8.372 -0.0638  1.5399 -1.2221
 5358TIP3   OH237632   3.365   4.627   0.341 -0.5325 -0.0886 -0.4348
 5358TIP3    H137633   3.323   4.702   0.384  0.8273 -0.1651  1.1099
 5358TIP3    H237634   3.457   4.634   0.364 -0.5267 -2.9229  0.8931
 5359TIP3   OH237635   6.535   3.824   7.876  0.1146  0.4586  0.2054
 5359TIP3    H137636   6.589   3.767   7.932  1.0591  0.3509 -0.7834
 5359TIP3    H237637   6.526   3.904   7.927  0.5148  0.1772  0.7456
 5360TIP3   OH237638   6.267   5.103   2.128  0.4891  0.5647  0.2546
 5360TIP3    H137639   6.185   5.077   2.085 -0.2022  1.7409  0.8108
 5360TIP3    H237640   6.296   5.024   2.174 -0.7756  0.3308  0.7063
 5361TIP3   OH237641   1.004   1.170   1.428  0.4059  0.0010 -0.0458
 5361TIP3    H137642   1.091   1.210   1.429  0.6128 -0.4144 -0.7566
 5361TIP3    H237643   0.953   1.225   1.369  1.0361 -1.4297 -2.0366
 5362TIP3   OH237644   2.695   1.352   8.166  0.0410 -0.1074  0.3192
 5362TIP3    H137645   2.608   1.367   8.130  0.9618 -1.0316 -2.5753
 5362TIP3    H237646   2.679   1.309   8.250 -2.3059 -0.9232 -0.4567
 5363TIP3   OH237647   3.780   2.986   7.442 -0.1444  0.5210 -0.7246
 5363TIP3    H137648   3.777   2.907   7.387 -1.4469 -0.4616  0.6648
 5363TIP3    H237649   3.768   3.058   7.381  3.3731 -0.0709 -2.4004
 5364TIP3   OH237650   1.691   2.883   2.153 -0.0546  0.3494 -0.3883
 5364TIP3    H137651   1.611   2.922   2.118 -0.9289 -0.1744  0.9365
 5364TIP3    H237652   1.702   2.924   2.239 -0.1547 -1.1498  0.3836
 5365TIP3   OH237653   1.877   0.855   1.702  0.2838 -0.0141  0.1675
 5365TIP3    H137654   1.869   0.769   1.744  0.6942  0.3969  1.1184
 5365TIP3    H237655   1.791   0.870   1.663 -0.0700 -0.4754  0.7412
 5366TIP3   OH237656   4.350   4.323   2.477  0.8410 -0.2229 -0.1020
 5366TIP3    H137657   4.368   4.263   2.549 -0.5457  0.7482  1.1279
 5366TIP3    H237658   4.384   4.407   2.507  0.5890  0.1095 -0.7323
 5367TIP3   OH237659   1.738   3.824   3.268  0.7803  0.3829  0.2994
 5367TIP3    H137660   1.672   3.874   3.220  1.0342  0.1071 -0.3446
 5367TIP3    H237661   1.788   3.891   3.316  0.4475  0.6470  0.2816
 5368TIP3   OH237662   2.148   0.896   1.422 -0.1978  0.4475  0.4095
 5368TIP3    H137663   2.073   0.845   1.393 -0.2503  0.9987 -0.4661
 5368TIP3    H237664   2.115   0.986   1.431  0.5777  0.9085 -1.0194
 5369TIP3   OH237665   1.108   3.056   0.045  0.3509 -0.7526  0.5290
 5369TIP3    H137666   1.109   2.973   0.092 -0.6755  0.4607  2.8629
 5369TIP3    H237667   1.051   3.112   0.097  2.0095  1.8170 -0.2470
 5370TIP3   OH237668   0.120   6.580   1.015 -0.3640  0.2515  0.3218
 5370TIP3    H137669   0.192   6.522   1.039  0.0447  0.3425 -0.6487
 5370TIP3    H237670   0.161   6.666   1.003 -1.1523  1.1361  3.1130
 5371TIP3   OH237671   5.841   1.898   8.210 -0.1354  0.1134  0.4349
 5371TIP3    H137672   5.877   1.842   8.278 -0.2307 -0.6761 -0.1503
 5371TIP3    H237673   5.779   1.843   8.163  0.3240  0.4703 -0.6271
 5372TIP3   OH237674   3.318   6.643   0.287 -0.1236 -0.4997 -0.2662
 5372TIP3    H137675   3.338   6.550   0.278 -0.8000 -0.4758 -2.4049
 5372TIP3    H237676   3.287   6.652   0.378  0.1068 -2.3186  0.0174
 5373TIP3   OH237677   5.762   2.163   1.976 -0.0624 -0.9749 -0.6326
 5373TIP3    H137678   5.761   2.253   2.009  0.1123 -1.4571  0.7946
 5373TIP3    H237679   5.708   2.164   1.898  0.6612  0.5526 -1.1359
 5374TIP3   OH237680   3.788   6.703   7.796  1.1420 -0.2495  0.0926
 5374TIP3    H137681   3.782   6.615   7.757  1.2577  0.0488 -0.6037
 5374TIP3    H237682   3.740   6.759   7.736  0.0431 -0.0222  1.1424
 5375TIP3   OH237683   5.849   5.783   1.589 -0.3548  0.1619  0.0295
 5375TIP3    H137684   5.919   5.764   1.651 -0.3140  0.2840  0.0220
 5375TIP3    H237685   5.884   5.852   1.534 -1.2885  1.8809  1.4637
 5376TIP3   OH237686   1.172   6.012   2.233  0.2500  0.1306  0.4435
 5376TIP3    H137687   1.205   6.049   2.315  2.1811  1.4448 -0.8550
 5376TIP3    H237688   1.078   6.032   2.235  0.1984 -0.0560  2.4049
 5377TIP3   OH237689   0.489   5.369   1.250  0.2604 -0.9329  0.2309
 5377TIP3    H137690   0.518   5.325   1.170  2.0796  2.5189 -1.1935
 5377TIP3    H237691   0.466   5.297   1.309  0.3757 -3.6716 -2.7776
 5378TIP3   OH237692   0.823   0.308   7.966 -0.4551 -0.3897 -0.2270
 5378TIP3    H137693   0.821   0.291   7.871  0.4504 -1.0218 -0.1385
 5378TIP3    H237694   0.731   0.306   7.992 -0.6405 -1.3339 -0.9104
 5379TIP3   OH237695   4.877   4.383   0.248  0.2886 -0.7089 -0.5886
 5379TIP3    H137696   4.805   4.443   0.270  1.2469  0.5061 -0.6986
 5379TIP3    H237697   4.888   4.331   0.328 -0.0260 -0.1993 -0.1990
 5380TIP3   OH237698   4.638   4.782   1.265  0.0957  0.1481 -0.0517
 5380TIP3    H137699   4.609   4.848   1.328 -0.6633 -0.6073  0.4052
 5380TIP3    H237700   4.635   4.826   1.181  1.8705  1.4253  0.4752
 5381TIP3   OH237701   5.933   2.515   0.313 -0.5924 -0.2966  0.3085
 5381TIP3    H137702   5.861   2.577   0.304 -1.0523 -0.8697 -0.0942
 5381TIP3    H237703   5.896   2.444   0.366  0.5125  0.6508  2.4500
 5382TIP3   OH237704   0.798   3.046   0.999 -0.3729 -0.6574 -0.1790
 5382TIP3    H137705   0.725   3.054   1.060  0.7864  2.4719  0.9716
 5382TIP3    H237706   0.766   3.083   0.917 -0.7237 -1.2769 -0.3264
 5383TIP3   OH237707   5.776   3.929   1.548  0.5521  0.2284  0.0338
 5383TIP3    H137708   5.862   3.891   1.565 -0.5249 -2.3382  0.1836
 5383TIP3    H237709   5.759   3.986   1.623  2.2350  1.0822 -0.1873
 5384TIP3   OH237710   5.328   0.524   1.673  0.5358 -0.5814  0.1096
 5384TIP3    H137711   5.390   0.583   1.716  0.7433  0.8576 -2.0158
 5384TIP3    H237712   5.288   0.577   1.604  0.3244 -2.7645 -1.5524
 5385TIP3   OH237713   0.606   0.251   1.972 -0.1980  0.3271 -0.5118
 5385TIP3    H137714   0.633   0.316   1.907 -0.4404  0.8152 -0.1337
 5385TIP3    H237715   0.671   0.260   2.042  0.9132 -1.1907 -1.2899
 5386TIP3   OH237716   5.460   6.186   2.965  0.1928  0.0268 -0.0579
 5386TIP3    H137717   5.479   6.206   3.056  0.8875  0.0102 -0.1888
 5386TIP3    H237718   5.367   6.205   2.954 -0.4303 -2.0331  1.1934
 5387TIP3   OH237719   1.544   3.921   2.441 -0.5109 -0.5150 -0.4191
 5387TIP3    H137720   1.454   3.950   2.454  0.3536  2.0367  0.4138
 5387TIP3    H237721   1.570   3.962   2.358  0.3670  0.1752  0.1755
 5388TIP3   OH237722   5.499   2.021   7.836 -0.5371 -0.6642 -0.6902
 5388TIP3    H137723   5.532   2.045   7.750 -0.3860 -1.5299 -0.8818
 5388TIP3    H237724   5.537   2.085   7.896  0.5543 -0.9476 -1.0620
 5389TIP3   OH237725   3.639   5.829   0.643 -0.0418 -0.4765  0.5683
 5389TIP3    H137726   3.722   5.780   0.647 -1.1292 -2.5823 -1.0510
 5389TIP3    H237727   3.636   5.876   0.726  3.0704  0.2060  0.4114
 5390TIP3   OH237728   3.564   3.836   2.203  0.6264  0.5257  0.1037
 5390TIP3    H137729   3.625   3.869   2.268  0.4358  0.4938  0.2997
 5390TIP3    H237730   3.478   3.862   2.235  0.4329 -0.5737  0.5236
 5391TIP3   OH237731   3.261   6.146   1.750  0.1676 -0.0574  0.0819
 5391TIP3    H137732   3.319   6.103   1.688  0.1062 -0.7715  0.5171
 5391TIP3    H237733   3.173   6.115   1.727  0.1918 -0.7147  0.8253
 5392TIP3   OH237734   0.769   3.064   2.167 -0.0539 -0.5173  0.7514
 5392TIP3    H137735   0.677   3.037   2.173 -0.0157 -0.5245  1.4045
 5392TIP3    H237736   0.790   3.095   2.255 -0.1403  1.8275  0.0258
 5393TIP3   OH237737   2.843   6.815   2.330  0.2750 -0.5695  0.2065
 5393TIP3    H137738   2.889   6.842   2.251  1.0833 -1.2243  0.4398
 5393TIP3    H237739   2.884   6.867   2.400 -0.3195 -0.1192  0.2295
 5394TIP3   OH237740   1.827   1.292   2.643  0.1468 -0.0915  0.0158
 5394TIP3    H137741   1.875   1.271   2.563 -0.6591 -0.6433 -0.3307
 5394TIP3    H237742   1.737   1.266   2.625 -0.9177  3.3519 -0.3691
 5395TIP3   OH237743   2.594   1.969   1.071 -0.5121  0.4958 -0.1154
 5395TIP3    H137744   2.596   2.050   1.120 -1.3915  1.0738 -0.9963
 5395TIP3    H237745   2.686   1.942   1.065 -0.0417  2.1560 -0.9813
 5396TIP3   OH237746   4.888   3.558   0.264 -0.2765 -0.6334  0.3609
 5396TIP3    H137747   4.896   3.462   0.269 -0.1886 -0.5973  1.1418
 5396TIP3    H237748   4.891   3.578   0.171 -1.6442 -1.5100  0.1027
 5397TIP3   OH237749   5.569   4.365   2.522  0.1237 -0.0631  0.3546
 5397TIP3    H137750   5.620   4.326   2.593  1.3387  1.2713  0.2711
 5397TIP3    H237751   5.605   4.454   2.513 -2.2442  0.9605  0.2919
 5398TIP3   OH237752   0.994   4.466   3.198 -0.0295 -0.7832  0.3141
 5398TIP3    H137753   0.925   4.471   3.264  0.8761  1.3312  1.1624
 5398TIP3    H237754   1.061   4.527   3.228  1.0557 -0.8333 -1.8365
 5399TIP3   OH237755   4.966   1.567   2.157  0.2815  0.3777  0.4115
 5399TIP3    H137756   4.999   1.657   2.148  1.8116 -0.2523 -0.7688
 5399TIP3    H237757   4.871   1.577   2.165  0.5224  2.1546  1.4833
 5400TIP3   OH237758   2.573   3.564   0.635 -0.3415  0.3538  0.2027
 5400TIP3    H137759   2.591   3.617   0.557 -0.0787  0.2705  0.2040
 5400TIP3    H237760   2.549   3.627   0.702  1.0503  0.5890  0.5197
 5401TIP3   OH237761   4.286   4.610   0.549  0.8245  0.2338  0.5110
 5401TIP3    H137762   4.227   4.608   0.624  1.2284 -1.2397  0.8239
 5401TIP3    H237763   4.368   4.573   0.582  1.7365  1.6562 -0.0763
 5402TIP3   OH237764   5.430   1.352   3.182  0.1819  0.0851 -0.5229
 5402TIP3    H137765   5.416   1.260   3.203  1.1211 -0.0668 -0.5106
 5402TIP3    H237766   5.378   1.400   3.248  3.2744 -0.3779  2.5493
 5403TIP3   OH237767   2.657   2.994   2.783 -0.1669 -0.2014  0.1614
 5403TIP3    H137768   2.680   2.907   2.751  0.2163 -0.0989  0.1509
 5403TIP3    H237769   2.623   2.979   2.872  0.5573 -0.2941  0.4283
 5404TIP3   OH237770   0.643   6.139   2.667  0.3207 -0.0803  0.2452
 5404TIP3    H137771   0.707   6.179   2.725  1.6618 -0.3604 -0.9878
 5404TIP3    H237772   0.562   6.189   2.682  0.4133 -0.5839  2.8002
 5405TIP3   OH237773   4.085   0.536   1.863  0.0482  0.2935  0.2961
 5405TIP3    H137774   4.114   0.462   1.811 -0.5806  0.7767 -0.7842
 5405TIP3    H237775   4.117   0.613   1.815 -0.8942  0.7588  0.3910
 5406TIP3   OH237776   0.607   5.880   8.310  0.2510  0.0633  0.1675
 5406TIP3    H137777   0.613   5.818   8.238  3.6073  0.8375 -0.4174
 5406TIP3    H237778   0.677   5.854   8.371 -0.0173  1.6469  1.2386
 5407TIP3   OH237779   5.493   3.844   0.402 -0.5541  0.2904  0.1117
 5407TIP3    H137780   5.406   3.865   0.370 -0.6259  0.7018  0.5735
 5407TIP3    H237781   5.513   3.912   0.466 -0.7338 -0.9491  1.5570
 5408TIP3   OH237782   6.586   1.039   0.944 -0.0625 -0.0780  0.5057
 5408TIP3    H137783   6.627   1.119   0.976  1.4613 -0.1158 -1.1969
 5408TIP3    H237784   6.496   1.064   0.926 -0.1357  0.7177  1.8681
 5409TIP3   OH237785   6.460   4.080   8.226 -0.5778 -0.5939  0.0742
 5409TIP3    H137786   6.552   4.102   8.216 -0.0959 -2.1847  0.7470
 5409TIP3    H237787   6.457   4.019   8.299 -2.1961 -0.4191  0.1940
 5410TIP3   OH237788   5.293   6.113   1.504  0.0673 -0.4080  0.1327
 5410TIP3    H137789   5.251   6.193   1.476 -0.7763 -0.9708 -0.2309
 5410TIP3    H237790   5.321   6.070   1.423  0.8660 -0.3083  0.3403
 5411TIP3   OH237791   0.755   1.601   2.953  0.0211  0.0506  0.2683
 5411TIP3    H137792   0.819   1.530   2.948 -0.6965 -0.8049  2.2252
 5411TIP3    H237793   0.749   1.621   3.047 -1.1039  1.4889 -0.0793
 5412TIP3   OH237794   3.913   5.822   1.017 -0.5320  0.3421 -0.2640
 5412TIP3    H137795   3.913   5.874   1.097  1.0135 -0.9736  0.6706
 5412TIP3    H237796   3.830   5.842   0.975  0.0016  3.5690 -0.0156
 5413TIP3   OH237797   5.790   6.316   1.831  0.4533  0.5264  0.0439
 5413TIP3    H137798   5.865   6.319   1.890  0.4978  0.0807  0.0140
 5413TIP3    H237799   5.732   6.250   1.869 -0.0225  1.0191  0.1810
 5414TIP3   OH237800   0.343   4.904   0.730 -0.2239 -0.1097 -0.4212
 5414TIP3    H137801   0.297   4.885   0.648 -1.5005  0.6870  0.0797
 5414TIP3    H237802   0.329   4.998   0.744 -0.0253 -0.2325  0.7151
 5415TIP3   OH237803   1.748   4.944   1.432 -0.0724 -0.0858  0.0275
 5415TIP3    H137804   1.810   5.015   1.448 -1.2169  1.0296 -0.2261
 5415TIP3    H237805   1.779   4.902   1.352  0.5943  0.1694  0.1487
 5416TIP3   OH237806   5.577   4.562   3.663  0.1272 -0.7558 -0.3980
 5416TIP3    H137807   5.523   4.641   3.658 -1.3751 -1.7858 -1.2058
 5416TIP3    H237808   5.650   4.580   3.604  0.3630  0.4084  0.2022
 5417TIP3   OH237809   5.077   2.469   1.125 -0.2562 -0.0763  0.0232
 5417TIP3    H137810   5.008   2.405   1.143  0.0169 -0.0929  1.0708
 5417TIP3    H237811   5.127   2.430   1.054 -0.5620 -0.6659  0.1235
 5418TIP3   OH237812   2.096   0.790   3.842  0.6049 -0.5710  0.3759
 5418TIP3    H137813   2.043   0.722   3.882  0.4556  1.0110  3.0753
 5418TIP3    H237814   2.037   0.866   3.836  0.8656 -0.4636 -2.2274
 5419TIP3   OH237815   5.753   3.050   3.642  0.3436 -0.9129  0.1063
 5419TIP3    H137816   5.714   3.131   3.675  0.1003 -0.3657 -1.4194
 5419TIP3    H237817   5.736   2.985   3.710 -0.0797  0.1521  1.0470
 5420TIP3   OH237818   3.045   6.815   1.081  0.2867  0.3686  0.5423
 5420TIP3    H137819   2.982   6.874   1.039 -0.6554 -0.8409  0.1788
 5420TIP3    H237820   2.995   6.736   1.099  0.9627  0.4322  2.9992
 5421TIP3   OH237821   6.899   5.665   2.429 -0.0197  0.5637  0.1876
 5421TIP3    H137822   6.932   5.653   2.339  1.5031  2.4263  0.4323
 5421TIP3    H237823   6.835   5.736   2.421 -0.7709 -0.0730  0.4203
 5422TIP3   OH237824   0.919   6.226   7.916 -0.4400  0.1275  0.3034
 5422TIP3    H137825   0.886   6.270   7.838  0.4800 -2.6950 -1.8613
 5422TIP3    H237826   0.990   6.283   7.947  0.3230  0.5638 -1.9887
 5423TIP3   OH237827   2.253   1.912   0.022 -0.4197  0.4453 -0.3582
 5423TIP3    H137828   2.321   1.873   0.078 -0.0307  0.3775 -0.8724
 5423TIP3    H237829   2.175   1.914   0.077  0.4564  2.3412  0.9381
 5424TIP3   OH237830   2.840   0.668   8.218 -0.0837 -0.3098 -0.0778
 5424TIP3    H137831   2.859   0.598   8.280  0.4750  0.0537  0.1743
 5424TIP3    H237832   2.924   0.683   8.174 -0.3032 -0.0811 -0.4187
 5425TIP3   OH237833   0.323   4.756   1.748  0.2380  0.1067 -0.3895
 5425TIP3    H137834   0.351   4.690   1.811 -1.3061 -0.9112 -0.7008
 5425TIP3    H237835   0.259   4.808   1.796 -0.2482 -0.0866 -0.8181
 5426TIP3   OH237836   5.377   3.597   1.512  0.5427  1.0424  0.7808
 5426TIP3    H137837   5.398   3.690   1.509 -0.5591  1.2852  0.1709
 5426TIP3    H237838   5.392   3.572   1.604  0.7827  1.8309  0.9603
 5427TIP3   OH237839   0.167   5.522   0.293  0.5818 -0.4222  0.0569
 5427TIP3    H137840   0.166   5.511   0.388 -0.9263  0.6530  0.1858
 5427TIP3    H237841   0.248   5.570   0.276 -0.5267  2.0540  1.1762
 5428TIP3   OH237842   5.840   4.316   7.822 -0.4148 -0.5508 -0.0288
 5428TIP3    H137843   5.900   4.331   7.894 -0.0386  1.6624 -0.7454
 5428TIP3    H237844   5.888   4.258   7.762 -0.8089 -2.5693  1.5018
 5429TIP3   OH237845   4.885   1.876   2.160 -0.4668  0.6362  0.3896
 5429TIP3    H137846   4.868   1.949   2.220 -0.6840  1.7462 -0.9698
 5429TIP3    H237847   4.798   1.853   2.126 -0.2997  0.3005  0.1928
 5430TIP3   OH237848   0.528   2.439   2.921 -0.2350 -0.4121 -0.0667
 5430TIP3    H137849   0.477   2.507   2.879 -1.8536 -1.1131  0.6647
 5430TIP3    H237850   0.601   2.485   2.964 -1.0137  0.7864 -0.0085
 5431TIP3   OH237851   5.503   1.460   1.176  0.2934 -0.3149 -0.5619
 5431TIP3    H137852   5.543   1.460   1.090 -0.9449  0.3945 -1.1711
 5431TIP3    H237853   5.425   1.404   1.166  1.1552 -1.8325  0.6368
 5432TIP3   OH237854   5.480   1.858   1.877  0.5616  0.2196 -0.0966
 5432TIP3    H137855   5.541   1.820   1.814  1.4046 -1.1582  1.4856
 5432TIP3    H237856   5.418   1.787   1.895  1.3365 -0.0110  1.8698
 5433TIP3   OH237857   3.767   2.448   7.530 -0.3419  0.2049 -0.0332
 5433TIP3    H137858   3.783   2.393   7.453  0.4518  0.7865 -0.3027
 5433TIP3    H237859   3.827   2.414   7.596  1.1452  1.5330 -0.6148
 5434TIP3   OH237860   5.038   2.073   8.320 -0.5729  0.5610  0.3115
 5434TIP3    H137861   4.956   2.124   8.320  0.0697  1.6212  0.1501
 5434TIP3    H237862   5.104   2.133   8.355  0.0689 -0.4241  0.8447
 5435TIP3   OH237863   6.589   4.880   2.814 -0.1625 -0.2762  0.0156
 5435TIP3    H137864   6.569   4.831   2.734  1.5267 -0.3152 -0.4099
 5435TIP3    H237865   6.655   4.827   2.859 -1.0973 -0.2637  1.4715
 5436TIP3   OH237866   1.018   4.403   1.515  0.3657 -0.4741  0.0681
 5436TIP3    H137867   1.089   4.355   1.557 -0.3600 -1.0814  0.6089
 5436TIP3    H237868   1.037   4.395   1.421  1.2210 -0.2960  0.2143
 5437TIP3   OH237869   5.022   3.065   2.624 -0.4692  0.1813 -0.4441
 5437TIP3    H137870   4.927   3.079   2.628 -0.4231  0.3004  0.6187
 5437TIP3    H237871   5.035   2.974   2.650 -0.2466  0.3618  0.0850
 5438TIP3   OH237872   6.279   2.954   8.267 -0.2740  0.4143 -0.2125
 5438TIP3    H137873   6.357   2.899   8.273 -0.4896  0.0311 -0.7408
 5438TIP3    H237874   6.207   2.893   8.284 -0.5666  0.3461 -1.5337
 5439TIP3   OH237875   3.575   6.698   2.616  0.1842  0.4290 -0.0501
 5439TIP3    H137876   3.495   6.716   2.666 -0.3126 -1.8605  0.1020
 5439TIP3    H237877   3.586   6.603   2.623  1.4889  0.3628 -2.2261
 5440TIP3   OH237878   4.307   2.363   8.314  0.7021 -0.3971 -0.6176
 5440TIP3    H137879   4.303   2.369   8.218  1.1326  0.0306 -0.6146
 5440TIP3    H237880   4.401   2.371   8.334  0.6388 -0.7655 -0.1798
 5441TIP3   OH237881   5.364   6.029   1.959 -0.1494 -0.2492 -0.0302
 5441TIP3    H137882   5.324   6.026   2.046 -1.9830 -1.6984 -0.8501
 5441TIP3    H237883   5.436   5.966   1.963 -1.3418 -1.6651 -0.0250
 5442TIP3   OH237884   2.964   0.344   2.992  0.2698 -0.6156  0.3921
 5442TIP3    H137885   2.999   0.376   3.075  2.3376  2.1479 -1.3586
 5442TIP3    H237886   2.870   0.360   2.997  0.5770  1.0533  1.6113
 5443TIP3   OH237887   6.943   1.522   1.030  0.1737  0.3784 -0.1225
 5443TIP3    H137888   6.917   1.492   1.118  4.4561 -0.3433  1.1383
 5443TIP3    H237889   6.916   1.451   0.972  0.1868 -0.7102  1.1545
 5444TIP3   OH237890   4.365   3.121   1.652 -0.1252  1.4961  0.6406
 5444TIP3    H137891   4.413   3.041   1.675 -0.2458  0.7720 -1.3758
 5444TIP3    H237892   4.425   3.192   1.674  1.1342  0.6893 -0.0376
 5445TIP3   OH237893   6.805   0.956   2.508  0.2604 -0.0559 -0.1029
 5445TIP3    H137894   6.786   1.047   2.485 -1.0362 -0.2184  0.2589
 5445TIP3    H237895   6.739   0.934   2.574 -1.1370 -2.0816 -2.0505
 5446TIP3   OH237896   4.464   2.005   0.856 -0.3776  0.5841  0.0155
 5446TIP3    H137897   4.425   1.919   0.843  1.0716 -0.1212  0.1604
 5446TIP3    H237898   4.473   2.041   0.768  1.6780 -0.6550 -0.3291
 5447TIP3   OH237899   2.267   3.452   7.795  0.0326 -0.3212 -0.4110
 5447TIP3    H137900   2.336   3.457   7.861 -0.1971 -1.1638 -0.0876
 5447TIP3    H237901   2.279   3.367   7.754 -0.0109  0.0757 -1.2576
 5448TIP3   OH237902   3.822   5.012   1.188 -0.1472  0.4342  0.0383
 5448TIP3    H137903   3.807   4.970   1.104 -0.5163 -2.4463  1.4312
 5448TIP3    H237904   3.749   5.073   1.198 -0.9018 -0.2533 -1.0826
 5449TIP3   OH237905   5.498   2.953   0.540  0.4706  0.4595  0.4799
 5449TIP3    H137906   5.404   2.942   0.555  0.6705 -2.2326  0.1767
 5449TIP3    H237907   5.530   2.998   0.618 -0.9476  0.9314  0.8279
 5450TIP3   OH237908   0.827   3.434   2.037 -0.3810 -0.1897  0.4571
 5450TIP3    H137909   0.740   3.430   2.077 -1.0767  0.3727 -0.9090
 5450TIP3    H237910   0.852   3.343   2.025 -0.5696 -0.3549  1.3093
 5451TIP3   OH237911   1.971   2.956   8.335 -0.1345 -0.0548 -0.3214
 5451TIP3    H137912   1.947   2.938   8.244  1.5611 -1.5324 -0.5219
 5451TIP3    H237913   1.901   2.915   8.386 -0.6737  0.0734 -0.9431
 5452TIP3   OH237914   6.618   3.190   0.514 -0.3027  0.2873 -0.1881
 5452TIP3    H137915   6.668   3.115   0.545 -0.1525 -0.4571 -2.0758
 5452TIP3    H237916   6.668   3.223   0.439 -0.8380  1.7250  0.0616
 5453TIP3   OH237917   4.279   5.702   0.356 -0.3623  0.2761 -0.3218
 5453TIP3    H137918   4.278   5.617   0.400  0.4249  1.0183  1.2240
 5453TIP3    H237919   4.279   5.681   0.263 -0.4486 -1.4047  0.0245
 5454TIP3   OH237920   6.535   1.989   2.550 -0.0880 -0.1257  0.5936
 5454TIP3    H137921   6.507   1.910   2.503  1.5288 -0.7556  0.6258
 5454TIP3    H237922   6.459   2.013   2.603 -0.9974 -1.0038 -0.2706
 5455TIP3   OH237923   5.889   1.178   1.870  0.1812 -0.1711 -0.1559
 5455TIP3    H137924   5.821   1.174   1.802 -2.0828  0.9146  1.8870
 5455TIP3    H237925   5.888   1.092   1.911  3.0141 -1.5694 -2.6268
 5456TIP3   OH237926   3.642   6.777   0.762 -0.5925 -0.3523 -0.2781
 5456TIP3    H137927   3.604   6.828   0.690 -2.2305 -2.0415 -0.6988
 5456TIP3    H237928   3.637   6.687   0.732  2.2065 -0.8303  0.4443
 5457TIP3   OH237929   4.063   5.395   3.089 -0.1003 -0.2748  0.2419
 5457TIP3    H137930   4.046   5.360   3.176  1.6143 -2.6214 -0.2740
 5457TIP3    H237931   4.020   5.481   3.089 -2.0593 -1.1314  2.6031
 5458TIP3   OH237932   6.181   6.524   7.721  0.4882  0.3660 -0.6998
 5458TIP3    H137933   6.259   6.578   7.708  0.2789  0.3023 -2.3978
 5458TIP3    H237934   6.110   6.574   7.682 -0.0268 -0.3325 -0.6824
 5459TIP3   OH237935   4.484   6.052   1.301 -0.2121  0.2249 -0.6528
 5459TIP3    H137936   4.489   6.110   1.376 -1.5502 -1.0706  0.5040
 5459TIP3    H237937   4.392   6.050   1.277 -0.2977 -1.6716 -0.3847
 5460TIP3   OH237938   6.634   5.351   3.342  0.6158  0.0195 -0.3120
 5460TIP3    H137939   6.722   5.326   3.315  1.3330  0.5541  1.3753
 5460TIP3    H237940   6.593   5.268   3.367  0.3849 -0.3121 -1.7035
 5461TIP3   OH237941   3.076   3.729   8.156  0.3621 -0.1163  0.1835
 5461TIP3    H137942   3.119   3.787   8.094 -0.4581 -0.3502 -0.6331
 5461TIP3    H237943   2.991   3.709   8.115 -0.5847  0.4375  1.7772
 5462TIP3   OH237944   5.909   3.282   1.931  0.0045 -0.0405 -0.0851
 5462TIP3    H137945   5.970   3.237   1.872  0.7810 -2.0416  2.0936
 5462TIP3    H237946   5.911   3.230   2.011 -2.3717  1.5442  1.1002
 5463TIP3   OH237947   6.691   0.709   0.581 -0.0509  0.0957 -0.2326
 5463TIP3    H137948   6.675   0.663   0.499 -0.6475 -1.3240  0.6405
 5463TIP3    H237949   6.762   0.660   0.623 -0.8200 -0.1752  0.7966
 5464TIP3   OH237950   1.497   5.244   2.969 -0.3663 -0.8348 -0.3567
 5464TIP3    H137951   1.546   5.231   3.050 -1.2093 -0.2087  0.2750
 5464TIP3    H237952   1.533   5.180   2.908  1.6376 -0.0017 -0.1139
 5465TIP3   OH237953   1.813   0.220   8.314  0.5455  0.3581  0.5352
 5465TIP3    H137954   1.717   0.214   8.314  0.5165  0.3819 -1.2252
 5465TIP3    H237955   1.841   0.146   8.369 -0.4707  0.3270  1.0466
 5466TIP3   OH237956   2.913   5.004   1.074  0.1511 -0.4528  0.0760
 5466TIP3    H137957   2.920   4.944   1.000  2.0598 -1.2319  0.8443
 5466TIP3    H237958   2.990   5.060   1.067 -1.5953  2.0847 -0.6632
 5467TIP3   OH237959   6.262   1.172   0.439 -0.5706 -0.5711  0.3716
 5467TIP3    H137960   6.230   1.088   0.406 -1.1624 -1.1708  2.3075
 5467TIP3    H237961   6.350   1.153   0.471 -1.1977 -0.8157  2.0297
 5468TIP3   OH237962   2.386   4.533   7.278 -0.5999 -0.2198  0.1312
 5468TIP3    H137963   2.411   4.449   7.316  0.6088 -0.2057 -0.5865
 5468TIP3    H237964   2.291   4.535   7.285 -0.7223 -1.9966 -0.5785
 5469TIP3   OH237965   1.465   4.423   1.431  0.0504  0.3376 -0.3479
 5469TIP3    H137966   1.485   4.467   1.348 -1.6074  0.2182 -0.8419
 5469TIP3    H237967   1.516   4.342   1.427 -0.0921  0.2812 -1.3089
 5470TIP3   OH237968   3.195   2.032   8.153  0.2870  0.3065 -0.2618
 5470TIP3    H137969   3.111   1.995   8.126  1.5353 -1.1501 -2.5230
 5470TIP3    H237970   3.206   2.006   8.244 -1.1943 -0.4559 -0.2874
 5471TIP3   OH237971   3.691   1.027   8.227 -0.3149 -0.2338  0.3576
 5471TIP3    H137972   3.738   1.090   8.173 -0.2196  0.5300  1.3070
 5471TIP3    H237973   3.757   0.990   8.285 -0.8694  1.0018  1.8467
 5472TIP3   OH237974   3.252   2.377   8.421 -0.7568  0.4804  0.2920
 5472TIP3    H137975   3.235   2.361   8.329 -0.8880  0.6158  0.2910
 5472TIP3    H237976   3.184   2.327   8.467 -0.0775 -0.4014  0.3559
 5473TIP3   OH237977   4.979   4.758   1.176  0.5318  0.0444  0.1569
 5473TIP3    H137978   4.943   4.846   1.175 -0.7309 -0.4305 -2.0948
 5473TIP3    H237979   5.064   4.766   1.133  1.2271  0.4195  1.5428
 5474TIP3   OH237980   3.075   4.599   1.725 -0.5311  0.4632  0.1969
 5474TIP3    H137981   3.040   4.557   1.646 -1.3000  0.4160  0.5484
 5474TIP3    H237982   3.087   4.528   1.787 -0.5041  0.5815  0.3288
 5475TIP3   OH237983   5.392   5.024   2.603 -0.4131  0.0332  0.0935
 5475TIP3    H137984   5.429   5.033   2.515  1.2309  1.1134  0.8496
 5475TIP3    H237985   5.298   5.017   2.588 -0.2142  0.6534 -1.7362
 5476TIP3   OH237986   3.672   3.691   1.820 -0.4114 -0.7054 -0.0646
 5476TIP3    H137987   3.691   3.645   1.739 -0.6384 -0.4475 -0.2669
 5476TIP3    H237988   3.594   3.743   1.800 -1.7171 -2.1785  0.9047
 5477TIP3   OH237989   5.073   1.374   3.482 -0.3218 -0.0339  0.4343
 5477TIP3    H137990   5.153   1.403   3.438  0.7147  1.1137  2.8866
 5477TIP3    H237991   5.083   1.279   3.488  1.0920  0.1296  1.0656
 5478TIP3   OH237992   4.606   2.239   0.631  0.4646  0.0080  0.0585
 5478TIP3    H137993   4.683   2.210   0.680  1.3061  0.4289 -1.0022
 5478TIP3    H237994   4.639   2.262   0.545 -0.9800 -0.5984 -0.6919
 5479TIP3   OH237995   0.559   4.903   1.727  0.1934  0.1146 -0.1353
 5479TIP3    H137996   0.596   4.837   1.785  1.5113 -0.6895 -1.7858
 5479TIP3    H237997   0.471   4.871   1.707  0.1336 -0.1568  0.5550
 5480TIP3   OH237998   5.784   1.603   1.342 -0.4663  0.7806 -0.0451
 5480TIP3    H137999   5.700   1.648   1.347 -0.7925  0.3411 -1.1036
 5480TIP3    H238000   5.849   1.673   1.335 -0.6844  1.1361  1.3307
 5481TIP3   OH238001   0.200   2.246   3.343 -0.1971  0.0886 -0.0889
 5481TIP3    H138002   0.116   2.264   3.386 -0.0220  0.3296  0.1613
 5481TIP3    H238003   0.243   2.183   3.401  0.7098  1.5924  0.9582
 5482TIP3   OH238004   0.134   3.995   0.392  0.4065 -0.0681 -0.0113
 5482TIP3    H138005   0.151   3.934   0.464 -0.1043  0.3022  0.4323
 5482TIP3    H238006   0.077   3.946   0.332 -1.3222  0.4861  1.1239
 5483TIP3   OH238007   2.158   4.167   1.849 -1.0142  0.5172 -0.1129
 5483TIP3    H138008   2.129   4.133   1.934  0.7883  0.5612  0.5639
 5483TIP3    H238009   2.186   4.089   1.800 -0.5392  0.6452 -0.0472
 5484TIP3   OH238010   2.111   5.890   0.979 -0.2114  0.5986  0.3366
 5484TIP3    H138011   2.033   5.849   1.015 -1.8782  2.1044 -1.3476
 5484TIP3    H238012   2.079   5.941   0.904  2.4111  1.1566 -0.5115
 5485TIP3   OH238013   3.142   0.918   8.424 -0.2100 -0.4785  0.1833
 5485TIP3    H138014   3.143   0.879   8.337 -0.5435 -2.1117  0.8715
 5485TIP3    H238015   3.149   0.844   8.484  3.1195  0.7290  1.5658
 5486TIP3   OH238016   0.637   5.106   0.727 -0.7533  0.3006  0.6441
 5486TIP3    H138017   0.662   5.103   0.634 -0.0893  0.7017  0.8046
 5486TIP3    H238018   0.544   5.082   0.727 -0.9983  1.1658 -0.2228
 5487TIP3   OH238019   6.217   0.906   0.533 -0.4879 -0.5173  0.3700
 5487TIP3    H138020   6.140   0.910   0.589  0.2757 -1.3920  1.5362
 5487TIP3    H238021   6.198   0.837   0.470 -0.5017 -1.0208  0.9180
 5488TIP3   OH238022   0.776   3.305   0.828  0.2700  0.1790 -0.2675
 5488TIP3    H138023   0.715   3.377   0.843  0.6496  0.0124  2.8270
 5488TIP3    H238024   0.792   3.306   0.734 -2.9737  1.4283 -0.9534
 5489TIP3   OH238025   3.601   6.204   1.565 -0.0028  0.1129 -0.1698
 5489TIP3    H138026   3.626   6.121   1.606  2.8288  0.5070 -0.8803
 5489TIP3    H238027   3.600   6.267   1.637 -0.4975 -0.2197  0.1179
 5490TIP3   OH238028   3.678   5.092   3.791 -0.1736 -0.4786 -0.2272
 5490TIP3    H138029   3.608   5.146   3.754 -2.0969 -1.9162  1.1518
 5490TIP3    H238030   3.758   5.134   3.760 -1.5973  0.9232 -2.3418
 5491TIP3   OH238031   6.933   3.602   0.621  0.3442  0.0351  0.3120
 5491TIP3    H138032   6.932   3.589   0.716  2.1008  0.5648  0.4464
 5491TIP3    H238033   6.867   3.541   0.587 -0.6729  0.2131  1.9027
 5492TIP3   OH238034   1.633   6.921   2.768 -0.2257 -0.0098 -0.3764
 5492TIP3    H138035   1.612   7.014   2.758 -1.8218  0.1733  3.0638
 5492TIP3    H238036   1.707   6.920   2.828  0.3709 -0.9754 -1.1109
 5493TIP3   OH238037   2.360   0.893   0.543 -0.3992  0.2909 -0.4265
 5493TIP3    H138038   2.327   0.980   0.564 -1.1247 -0.2594  0.7946
 5493TIP3    H238039   2.454   0.905   0.532 -0.6094  1.3844 -1.2142
 5494TIP3   OH238040   3.092   3.763   2.384 -0.1790 -0.2711  0.2757
 5494TIP3    H138041   3.163   3.783   2.445 -1.0581 -0.5245  1.3881
 5494TIP3    H238042   3.137   3.754   2.299  1.2024 -1.0123  1.0445
 5495TIP3   OH238043   0.771   6.018   1.753  0.1004  0.3240 -0.1660
 5495TIP3    H138044   0.689   6.029   1.800 -0.3932  0.5401 -1.0604
 5495TIP3    H238045   0.829   6.084   1.792 -0.4175  0.7617 -0.1253
 5496TIP3   OH238046   4.976   2.723   0.626 -0.1241 -0.1488  0.2224
 5496TIP3    H138047   4.945   2.637   0.598  0.6910 -0.5322  0.4714
 5496TIP3    H238048   4.974   2.776   0.546  3.7665 -1.6752 -1.1429
 5497TIP3   OH238049   3.764   2.186   2.628  0.4793 -0.4392  0.6132
 5497TIP3    H138050   3.847   2.152   2.661  0.6125 -0.1480  0.5755
 5497TIP3    H238051   3.772   2.281   2.636 -0.2142 -0.4352  1.5187
 5498TIP3   OH238052   6.108   2.235   2.314 -0.3635 -0.4040  0.5402
 5498TIP3    H138053   6.113   2.327   2.339  2.1104 -0.7521  1.5838
 5498TIP3    H238054   6.153   2.231   2.229  1.0101 -0.8656  1.2685
 5499TIP3   OH238055   6.167   5.641   2.230  0.3928 -0.7177  0.2504
 5499TIP3    H138056   6.112   5.677   2.300 -0.9391 -0.2106 -1.0092
 5499TIP3    H238057   6.256   5.665   2.254 -0.0971 -0.0647  1.4751
 5500TIP3   OH238058   5.614   0.973   0.649  0.6148 -0.2657 -0.6539
 5500TIP3    H138059   5.611   1.023   0.731 -0.2183  1.8338 -1.8670
 5500TIP3    H238060   5.682   0.907   0.663  0.8738  0.3889  1.5123
 5501TIP3   OH238061   2.563   5.133   0.144 -0.0407 -0.4769 -0.1064
 5501TIP3    H138062   2.560   5.228   0.153 -0.3201 -0.5097  0.1656
 5501TIP3    H238063   2.495   5.112   0.080  1.0035 -0.3713 -1.2946
 5502TIP3   OH238064   4.112   0.000   2.685 -0.1854 -0.1917  0.0186
 5502TIP3    H138065   4.169   0.061   2.733 -0.5790  0.4782 -0.3442
 5502TIP3    H238066   4.053  -0.035   2.752 -0.8333  0.8587  0.0289
 5503TIP3   OH238067   1.381   4.449   2.073  0.1058 -0.1743 -0.0092
 5503TIP3    H138068   1.298   4.495   2.070 -0.3842 -1.0779 -0.8497
 5503TIP3    H238069   1.438   4.505   2.126 -0.5221  1.2688 -0.8206
 5504TIP3   OH238070   1.524   0.113   0.659  0.2557  0.0686  0.2975
 5504TIP3    H138071   1.450   0.138   0.714 -0.4126 -0.8782 -0.1650
 5504TIP3    H238072   1.538   0.189   0.602  0.2589  0.6193  1.0048
 5505TIP3   OH238073   2.472   2.380   7.640  0.0477 -0.2718  0.6777
 5505TIP3    H138074   2.518   2.303   7.672  0.5647  0.0246  0.6739
 5505TIP3    H238075   2.404   2.346   7.583 -1.1876 -0.8237  2.4295
 5506TIP3   OH238076   3.852   5.966   1.673  0.0108 -0.1111 -0.0723
 5506TIP3    H138077   3.870   5.911   1.749 -2.3672  0.4644  0.9770
 5506TIP3    H238078   3.819   6.048   1.710 -1.7613 -0.0272 -1.7097
 5507TIP3   OH238079   0.488   1.093   0.044 -0.0458  0.4355  0.6913
 5507TIP3    H138080   0.519   1.132  -0.038  0.6524 -0.9278  0.2723
 5507TIP3    H238081   0.421   1.153   0.075 -0.7640  0.6795 -1.1963
 5508TIP3   OH238082   3.114   6.714   1.724 -0.0202 -0.3896  0.0087
 5508TIP3    H138083   3.132   6.804   1.750 -0.5775 -0.4939  0.8034
 5508TIP3    H238084   3.060   6.722   1.645 -0.8540  0.0054  0.6014
 5509TIP3   OH238085   0.878   1.149   0.511  0.0189  0.3282  0.4345
 5509TIP3    H138086   0.950   1.211   0.526 -0.0818  0.7898 -0.8636
 5509TIP3    H238087   0.918   1.076   0.465 -0.3306  0.5821 -0.2854
 5510TIP3   OH238088   6.660   5.033   1.102  0.4216 -0.3882  0.1344
 5510TIP3    H138089   6.652   5.013   1.196 -0.8154  0.5203  0.2356
 5510TIP3    H238090   6.685   4.949   1.063  0.2619 -0.9517  1.1827
 5511TIP3   OH238091   4.588   3.224   3.592 -0.6473  0.6565  0.0775
 5511TIP3    H138092   4.583   3.136   3.629  3.3391  0.2943  0.2260
 5511TIP3    H238093   4.620   3.278   3.664  0.6909  1.3483 -0.9976
 5512TIP3   OH238094   6.219   0.169   0.073 -0.4330 -0.5205 -0.6236
 5512TIP3    H138095   6.129   0.200   0.062 -0.1778 -0.2978 -2.3401
 5512TIP3    H238096   6.219   0.082   0.033 -0.2798 -1.2770  0.9407
 5513TIP3   OH238097   4.158   6.393   0.675  1.2931  0.1880  0.2827
 5513TIP3    H138098   4.160   6.367   0.767 -0.0808  1.9374  0.8782
 5513TIP3    H238099   4.109   6.475   0.675 -2.3450 -1.6953 -2.4900
 5514TIP3   OH238100   6.197   2.423   0.273 -0.0029  0.3785 -0.1148
 5514TIP3    H138101   6.114   2.440   0.228  0.5158  3.3384 -0.2035
 5514TIP3    H238102   6.182   2.450   0.363  0.1393 -1.6884  0.5839
 5515TIP3   OH238103   0.062   4.380   1.209 -0.1572 -0.9237 -0.2449
 5515TIP3    H138104   0.142   4.432   1.213 -0.6520 -0.1991  0.5882
 5515TIP3    H238105   0.059   4.333   1.293 -1.8665  1.0351  0.9017
 5516TIP3   OH238106   4.022   6.326   7.504 -0.0710 -0.3020 -0.3624
 5516TIP3    H138107   4.026   6.261   7.434 -2.4091 -3.4925  2.1751
 5516TIP3    H238108   4.109   6.323   7.544 -0.6306 -3.5469  0.9042
 5517TIP3   OH238109   5.645   5.771   1.307  0.1717 -0.3901  0.4933
 5517TIP3    H138110   5.642   5.866   1.317  0.4725 -0.3715  0.4090
 5517TIP3    H238111   5.735   5.753   1.280  0.3372 -0.7789  1.2970
 5518TIP3   OH238112   3.237   3.083   1.695  0.2945  0.0567 -0.6220
 5518TIP3    H138113   3.175   3.123   1.635 -2.7284 -1.1691  1.4616
 5518TIP3    H238114   3.253   2.996   1.659 -1.0994 -0.4851  0.0290
 5519TIP3   OH238115   4.572   0.154   1.059  0.3761 -0.3734 -0.2520
 5519TIP3    H138116   4.554   0.122   0.970  0.9042  1.0910 -0.9162
 5519TIP3    H238117   4.499   0.212   1.079  0.7992  0.1408 -0.1712
 5520TIP3   OH238118   6.276   0.489   0.822 -0.0217  0.7214  0.3888
 5520TIP3    H138119   6.206   0.545   0.855 -0.6674 -0.3549  0.9042
 5520TIP3    H238120   6.252   0.401   0.851  2.5186  0.5268  2.3002
 5521TIP3   OH238121   5.144   3.557   7.860 -0.2360 -0.5292 -0.4528
 5521TIP3    H138122   5.082   3.625   7.889  1.6821  1.1780 -0.1105
 5521TIP3    H238123   5.142   3.562   7.765 -1.2082 -1.0770 -0.4742
 5522TIP3   OH238124   1.522   0.502   2.405 -0.3810 -0.4589 -0.6975
 5522TIP3    H138125   1.436   0.463   2.414 -0.5537  0.2626  1.4951
 5522TIP3    H238126   1.513   0.567   2.336 -1.0706 -1.6498 -1.7561
 5523TIP3   OH238127   3.398   6.031   8.491 -0.0084  0.4973 -0.6363
 5523TIP3    H138128   3.471   5.993   8.442 -1.0488 -1.4404 -0.7702
 5523TIP3    H238129   3.330   6.045   8.425 -0.4304  0.4750 -0.2075
 5524TIP3   OH238130   1.610   1.348   2.838  0.6405  0.2039  0.5182
 5524TIP3    H138131   1.617   1.440   2.812  0.9354 -0.1049 -0.5745
 5524TIP3    H238132   1.701   1.320   2.852  0.6334 -0.1897 -0.1852
 5525TIP3   OH238133   2.726   4.694   0.888  0.0210  0.6213 -0.5070
 5525TIP3    H138134   2.698   4.673   0.799 -1.6590 -0.2100  0.1858
 5525TIP3    H238135   2.692   4.783   0.903 -1.0632  0.1616 -0.1679
 5526TIP3   OH238136   2.476   4.976   2.589 -0.1665 -0.1325 -0.3246
 5526TIP3    H138137   2.504   4.913   2.656  0.3006 -0.1516 -0.5356
 5526TIP3    H238138   2.455   5.055   2.639 -2.6437 -1.0005  0.1854
 5527TIP3   OH238139   5.982   6.594   2.808 -0.0890 -0.5721 -0.4425
 5527TIP3    H138140   6.071   6.574   2.779  0.1247 -0.4789  0.1416
 5527TIP3    H238141   5.976   6.554   2.895 -0.0013  0.9954  0.3046
 5528TIP3   OH238142   4.693   4.399   1.054  0.4338  0.2372  0.3052
 5528TIP3    H138143   4.626   4.438   1.111  0.6743 -0.2269  0.9241
 5528TIP3    H238144   4.678   4.305   1.062 -0.2172  0.1866 -1.2642
 5529TIP3   OH238145   6.657   3.676   8.057 -0.0006 -0.1380  0.0210
 5529TIP3    H138146   6.613   3.705   8.137 -0.4909 -0.7448 -0.0126
 5529TIP3    H238147   6.749   3.699   8.070  0.0358 -0.7479  1.0269
 5530TIP3   OH238148   0.984   1.465   2.888  0.2112 -0.3931  0.0859
 5530TIP3    H138149   1.052   1.500   2.945  2.1231 -2.4905 -0.7795
 5530TIP3    H238150   0.988   1.370   2.900 -1.6613 -0.6783 -1.0112
 5531TIP3   OH238151   2.181   3.314   2.920  0.1413  0.1589 -0.0987
 5531TIP3    H138152   2.147   3.387   2.867  0.2526  0.8245  0.7245
 5531TIP3    H238153   2.242   3.356   2.981  1.6883 -0.8637 -0.8555
 5532TIP3   OH238154   6.236   6.144   0.663  0.4390 -0.3936 -0.2440
 5532TIP3    H138155   6.244   6.051   0.680  1.6502 -0.4632 -1.0598
 5532TIP3    H238156   6.309   6.184   0.711  0.5840 -0.0013 -0.7807
 5533TIP3   OH238157   2.971   3.291   2.196 -0.0486 -0.6942  0.2219
 5533TIP3    H138158   3.032   3.357   2.229 -1.4757  0.1622  1.2943
 5533TIP3    H238159   2.949   3.322   2.108 -0.1290 -0.1379  0.4316
 5534TIP3   OH238160   4.940   6.679   1.018  0.0206 -0.0474 -0.0091
 5534TIP3    H138161   4.846   6.670   1.004 -0.1133 -0.1520  0.9070
 5534TIP3    H238162   4.948   6.760   1.069  0.3387 -0.5574  0.7636
 5535TIP3   OH238163   0.354   1.999   7.943  0.4903 -0.2542  0.5079
 5535TIP3    H138164   0.338   2.068   8.008  1.7942 -0.6104  1.2608
 5535TIP3    H238165   0.448   1.980   7.952  0.5278 -0.8648 -0.9535
 5536TIP3   OH238166   4.595   1.604   0.929  0.2646 -1.0078 -0.1903
 5536TIP3    H138167   4.591   1.628   1.021  0.8137 -0.9867 -0.1694
 5536TIP3    H238168   4.641   1.519   0.928  1.1408 -0.5477 -0.5131
 5537TIP3   OH238169   1.714   4.658   0.720  0.1832 -0.5472 -0.6603
 5537TIP3    H138170   1.763   4.696   0.792 -1.8631  1.9073 -0.4260
 5537TIP3    H238171   1.771   4.589   0.686  3.8416  2.1149 -0.5105
 5538TIP3   OH238172   0.418   2.048   3.432 -0.5776 -0.3132  0.9896
 5538TIP3    H138173   0.449   2.046   3.523  2.4436  0.3002  0.0955
 5538TIP3    H238174   0.423   1.958   3.402  0.6998 -0.2006  0.8033
 5539TIP3   OH238175   0.334   6.042   0.663  0.0921 -0.2760 -0.6030
 5539TIP3    H138176   0.241   6.060   0.676 -0.1214  0.7150 -2.9765
 5539TIP3    H238177   0.346   5.953   0.696 -1.3161  0.1339  1.1978
 5540TIP3   OH238178   1.570   0.110   7.864  0.0208  0.4209 -0.3717
 5540TIP3    H138179   1.655   0.067   7.863 -0.1833 -0.1257  1.4456
 5540TIP3    H238180   1.508   0.044   7.832  0.2050  0.6269 -1.1505
 5541TIP3   OH238181   0.541   3.770   2.519  0.3070  0.5133 -1.0057
 5541TIP3    H138182   0.612   3.770   2.583 -0.3399  0.3259 -0.2877
 5541TIP3    H238183   0.509   3.680   2.519 -0.0301  0.6327 -1.2314
 5542TIP3   OH238184   1.572   0.307   1.267  0.2766 -0.2849 -0.2215
 5542TIP3    H138185   1.632   0.344   1.332 -0.3007  2.9902 -1.4015
 5542TIP3    H238186   1.489   0.297   1.314  0.7789 -1.4099  0.4596
 5543TIP3   OH238187   6.411   3.381   2.301 -0.6900  0.0021  0.8781
 5543TIP3    H138188   6.460   3.458   2.271  0.0414 -0.1658  1.5962
 5543TIP3    H238189   6.419   3.384   2.397 -3.4983  0.8825  1.1654
 5544TIP3   OH238190   0.340   6.832   3.223 -0.0580  0.2058 -0.2964
 5544TIP3    H138191   0.309   6.792   3.305 -0.6157  1.0346 -0.0877
 5544TIP3    H238192   0.387   6.910   3.252  0.1717  0.2304 -0.7444
 5545TIP3   OH238193   1.398   0.661   2.652 -0.1546 -0.0846  0.0987
 5545TIP3    H138194   1.470   0.621   2.700 -1.4749  1.1598  3.4071
 5545TIP3    H238195   1.321   0.608   2.673 -0.7036  0.0997 -1.2863
 5546TIP3   OH238196   1.394   3.676   1.250 -0.3726 -0.4452  0.5134
 5546TIP3    H138197   1.332   3.744   1.276 -1.0033 -0.7490 -0.1489
 5546TIP3    H238198   1.456   3.670   1.323 -0.1495  1.0203  0.4688
 5547TIP3   OH238199   5.013   3.215   1.119 -0.0475  0.1604  0.0003
 5547TIP3    H138200   5.021   3.147   1.185  0.1960 -0.0515 -0.2465
 5547TIP3    H238201   5.076   3.282   1.146  0.9960 -0.4949 -0.7033
 5548TIP3   OH238202   2.576   1.796   1.702  0.3050  0.4746 -0.1906
 5548TIP3    H138203   2.510   1.858   1.671 -0.0938 -0.0713 -0.4531
 5548TIP3    H238204   2.565   1.794   1.797 -1.6144 -1.2730 -0.3671
 5549TIP3   OH238205   2.638   5.083   1.076  0.1911 -0.2409  0.1613
 5549TIP3    H138206   2.612   5.146   1.142  1.7783 -0.0768  0.6725
 5549TIP3    H238207   2.728   5.060   1.099  1.6504  1.5214 -3.2095
 5550TIP3   OH238208   2.666   0.206   7.736  0.4979  0.0395 -0.2444
 5550TIP3    H138209   2.602   0.207   7.807  1.8896  1.2830  1.0793
 5550TIP3    H238210   2.635   0.138   7.676 -1.0322 -0.6694  1.2715
 5551TIP3   OH238211   4.309   5.667   3.328  0.5653  0.2090  0.6458
 5551TIP3    H138212   4.313   5.578   3.361 -0.3267 -1.2797 -2.7593
 5551TIP3    H238213   4.223   5.699   3.354  0.5353 -0.2466  1.1111
 5552TIP3   OH238214   3.820   3.495   3.191 -0.3233 -0.8629  0.6931
 5552TIP3    H138215   3.821   3.528   3.281  0.3513 -2.9895  1.5205
 5552TIP3    H238216   3.755   3.425   3.191  1.0398 -2.1779  0.0487
 5553TIP3   OH238217   0.830   3.372   0.569  0.6335  0.5630  0.1879
 5553TIP3    H138218   0.867   3.381   0.482 -1.3762 -0.8450 -0.8882
 5553TIP3    H238219   0.851   3.455   0.613  1.3125  1.4718 -1.7533
 5554TIP3   OH238220   1.064   0.487   0.278  0.4571 -0.1577  0.2345
 5554TIP3    H138221   1.032   0.397   0.280 -0.6651  0.2211  2.4682
 5554TIP3    H238222   1.043   0.522   0.364  3.3763  1.4181  0.4432
 5555TIP3   OH238223   5.858   0.069   0.138 -0.1840  0.2160  0.0892
 5555TIP3    H138224   5.812   0.093   0.218  2.8299 -1.4191  2.5443
 5555TIP3    H238225   5.812  -0.008   0.106  0.6556 -1.4197  2.5013
 5556TIP3   OH238226   4.630   1.627   3.863 -0.4079  0.7134 -0.4602
 5556TIP3    H138227   4.586   1.692   3.919 -1.8049 -0.4935 -0.0940
 5556TIP3    H238228   4.559   1.578   3.822  0.6012 -0.4948 -0.8478
 5557TIP3   OH238229   6.429   1.793   0.737  0.5080  0.3564 -0.4916
 5557TIP3    H138230   6.384   1.786   0.653  0.5221  0.4391 -0.5060
 5557TIP3    H238231   6.422   1.885   0.761 -0.3741  0.1553  0.0779
 5558TIP3   OH238232   4.727   4.441   2.748  0.3688  0.5799 -0.6046
 5558TIP3    H138233   4.808   4.478   2.784  0.5482  0.3649 -0.7859
 5558TIP3    H238234   4.702   4.373   2.810 -0.1575  1.2330 -0.0776
 5559TIP3   OH238235   1.848   5.769   2.889  0.0696 -0.0121 -0.4075
 5559TIP3    H138236   1.853   5.697   2.825 -2.0613 -0.6675  0.0669
 5559TIP3    H238237   1.905   5.741   2.960  0.7429 -0.3170 -1.0469
 5560TIP3   OH238238   1.212   5.294   7.781 -0.6419  0.1575 -0.1479
 5560TIP3    H138239   1.271   5.264   7.851 -0.0531 -1.1289 -1.1450
 5560TIP3    H238240   1.134   5.325   7.826  0.1865  0.4540  1.1296
 5561TIP3   OH238241   4.282   6.801   2.252 -0.7993 -0.2682 -0.0577
 5561TIP3    H138242   4.371   6.803   2.217 -0.6122 -0.5282  0.3961
 5561TIP3    H238243   4.229   6.765   2.181 -0.6894  0.6680 -0.6344
 5562TIP3   OH238244   2.414   6.914   3.536  0.6590 -0.1635  0.1779
 5562TIP3    H138245   2.320   6.932   3.531  0.3414 -1.0524  2.1233
 5562TIP3    H238246   2.452   6.994   3.573  0.5434 -0.1532  0.2735
 5563TIP3   OH238247   1.553   0.884   1.991  0.4006  0.4056  0.2181
 5563TIP3    H138248   1.496   0.852   1.921 -0.7059  0.9117  0.8716
 5563TIP3    H238249   1.501   0.949   2.037  1.5741  1.0087  0.7369
 5564TIP3   OH238250   5.238   4.858   1.195 -0.3164 -0.4310  0.1729
 5564TIP3    H138251   5.331   4.857   1.217  0.6561  0.7191 -3.3084
 5564TIP3    H238252   5.205   4.940   1.233  0.3789 -0.2421  0.3794
 5565TIP3   OH238253   0.500   2.034   2.215  1.3243  0.2823 -0.4964
 5565TIP3    H138254   0.544   1.973   2.274 -0.1068 -0.5700 -0.2465
 5565TIP3    H238255   0.511   2.119   2.255 -0.0747 -0.3416  1.3683
 5566TIP3   OH238256   0.760   4.939   1.960  0.6138  0.2232 -0.3634
 5566TIP3    H138257   0.778   4.864   1.902  1.0486  0.9347 -1.1749
 5566TIP3    H238258   0.775   5.016   1.905  0.7642  0.9220  0.6270
 5567TIP3   OH238259   2.762   5.456   3.266 -0.2298 -0.3975  0.0640
 5567TIP3    H138260   2.851   5.490   3.273  0.0045 -1.2817  2.0967
 5567TIP3    H238261   2.731   5.451   3.356 -2.2174 -0.4820 -0.5762
 5568TIP3   OH238262   0.244   2.022   7.216  0.8154 -0.1121  0.3147
 5568TIP3    H138263   0.150   2.002   7.214  1.0583 -1.1852 -1.4945
 5568TIP3    H238264   0.265   2.051   7.128  2.3661 -0.7054  0.4542
 5569TIP3   OH238265   4.442   4.444   1.443 -0.0951  0.6385  0.1354
 5569TIP3    H138266   4.527   4.452   1.487  0.1838 -1.2997  0.0015
 5569TIP3    H238267   4.378   4.471   1.510  0.3893 -1.3502  1.4929
 5570TIP3   OH238268   4.230   2.312   0.480  0.1958  0.3014 -0.0280
 5570TIP3    H138269   4.142   2.291   0.509  0.8981 -1.7068  0.8285
 5570TIP3    H238270   4.270   2.356   0.555 -0.3830  2.2476 -0.8123
 5571TIP3   OH238271   0.705   2.320   0.061 -0.1451  0.0131 -0.5298
 5571TIP3    H138272   0.782   2.299   0.008  0.3610  0.2703  0.0925
 5571TIP3    H238273   0.656   2.383   0.008  0.9436  1.1619 -0.2298
 5572TIP3   OH238274   2.058   1.140   8.398  0.3787 -0.4418 -0.1560
 5572TIP3    H138275   2.055   1.235   8.386  1.2306 -0.1294  1.7919
 5572TIP3    H238276   1.996   1.123   8.469  0.6312 -1.2788 -0.1298
 5573TIP3   OH238277   2.794   0.708   2.923  0.5446 -0.1494 -0.7432
 5573TIP3    H138278   2.760   0.627   2.962  1.1128 -0.7758 -1.5419
 5573TIP3    H238279   2.794   0.770   2.996 -0.6873 -0.6123 -0.3081
 5574TIP3   OH238280   4.039   6.366   2.027  0.0881 -0.0679 -0.2795
 5574TIP3    H138281   4.046   6.453   1.988 -0.7743 -0.6834 -1.9347
 5574TIP3    H238282   3.945   6.350   2.032  0.2264 -1.4818 -1.4509
 5575TIP3   OH238283   4.319   5.807   2.021 -0.0402 -0.7834 -0.6092
 5575TIP3    H138284   4.317   5.899   2.046 -0.9802 -1.1136  0.6000
 5575TIP3    H238285   4.397   5.799   1.966  0.1348  0.6970 -0.6039
 5576TIP3   OH238286   4.109   2.566   8.250  0.0276  0.8349  0.4193
 5576TIP3    H138287   4.134   2.657   8.234  0.9929  0.9844  2.5007
 5576TIP3    H238288   4.183   2.515   8.217 -0.5365  0.7578 -0.7962
 5577TIP3   OH238289   5.845   1.515   2.734 -0.4557  0.2863 -0.1703
 5577TIP3    H138290   5.922   1.561   2.700  0.1063 -1.7027 -1.8310
 5577TIP3    H238291   5.792   1.496   2.656 -1.2733 -0.7432  0.5992
 5578TIP3   OH238292   2.795   4.275   0.405 -0.4206 -0.2845  0.3585
 5578TIP3    H138293   2.786   4.227   0.323 -0.2210  2.2390 -1.2583
 5578TIP3    H238294   2.874   4.240   0.446  0.2135 -0.7253 -1.1775
 5579TIP3   OH238295   4.938   6.204   2.804  0.6841 -0.4415  0.5552
 5579TIP3    H138296   4.934   6.112   2.780 -1.4085  0.2329 -2.3303
 5579TIP3    H238297   4.846   6.230   2.815  1.1472  1.4856  0.2601
 5580TIP3   OH238298   4.427   1.727   2.186 -0.3997  0.4970 -0.3068
 5580TIP3    H138299   4.418   1.729   2.281  0.1730 -3.3868  0.0224
 5580TIP3    H238300   4.339   1.742   2.153 -0.5090  2.4618  0.7545
 5581TIP3   OH238301   5.166   1.013   3.308 -0.3963 -0.1545 -0.3213
 5581TIP3    H138302   5.185   0.961   3.230 -2.1556 -1.1357 -0.1555
 5581TIP3    H238303   5.071   1.006   3.319 -0.2814  0.5479  1.5095
 5582TIP3   OH238304   2.704   4.989   1.927 -0.0703 -0.1534  0.1611
 5582TIP3    H138305   2.626   4.935   1.937 -0.4442  0.5469  1.2996
 5582TIP3    H238306   2.768   4.949   1.986 -0.3721  0.6566  1.0609
 5583TIP3   OH238307   1.850   4.942   2.036 -0.0971  0.1087 -0.4522
 5583TIP3    H138308   1.923   4.932   1.975  2.5294 -1.2527  2.6004
 5583TIP3    H238309   1.881   5.006   2.100 -1.4219 -0.7107  1.0712
 5584TIP3   OH238310   1.804   1.830   7.890  0.0779 -0.5416  0.4829
 5584TIP3    H138311   1.757   1.850   7.971  1.4307  0.3208  1.0789
 5584TIP3    H238312   1.804   1.734   7.886 -2.2951 -0.5828  0.0859
 5585TIP3   OH238313   1.091   3.624   1.492  0.4141  0.0766 -0.2538
 5585TIP3    H138314   1.174   3.639   1.446  0.2431  1.5864 -0.1288
 5585TIP3    H238315   1.027   3.615   1.421  0.2629  1.7144 -0.3669
 5586TIP3   OH238316   2.353   4.840   2.949  0.9405 -0.5313  0.1801
 5586TIP3    H138317   2.337   4.928   2.916 -1.8786 -0.6679  0.8482
 5586TIP3    H238318   2.352   4.849   3.044 -1.3410 -1.4491  0.3194
 5587TIP3   OH238319   2.560   0.612   0.558  0.3016 -0.2023 -0.2311
 5587TIP3    H138320   2.509   0.658   0.624 -1.0134  0.1829 -1.4523
 5587TIP3    H238321   2.616   0.679   0.519 -0.7838  0.1752 -1.2205
 5588TIP3   OH238322   5.554   2.407   2.587 -0.4269 -0.0157 -0.2366
 5588TIP3    H138323   5.637   2.455   2.593  1.5652 -3.1494 -0.7595
 5588TIP3    H238324   5.532   2.386   2.678  0.2689 -0.5629 -0.1851
 5589TIP3   OH238325   0.835   4.678   3.023 -0.1912  0.5824 -0.3095
 5589TIP3    H138326   0.817   4.584   3.018  1.2812  0.1163  1.7314
 5589TIP3    H238327   0.882   4.689   3.106  3.4934  2.4453 -2.3630
 5590TIP3   OH238328   0.185   2.573   0.900 -0.0416 -0.0369 -0.2176
 5590TIP3    H138329   0.163   2.483   0.876  0.7503 -0.3359  0.1678
 5590TIP3    H238330   0.123   2.626   0.850 -0.0078 -0.7588 -1.0565
 5591TIP3   OH238331   6.793   5.651   0.118  0.1552  0.0276  0.1903
 5591TIP3    H138332   6.845   5.611   0.047 -2.2051 -0.6752 -1.2630
 5591TIP3    H238333   6.767   5.577   0.173  0.6242  0.3682  0.8815
 5592TIP3   OH238334   5.534   4.660   0.921 -0.2483 -0.0780  0.3679
 5592TIP3    H138335   5.600   4.641   0.855 -1.1141  0.6837 -0.7553
 5592TIP3    H238336   5.582   4.661   1.004  0.9674 -0.4661 -0.3076
 5593TIP3   OH238337   6.531   3.826   2.062  0.5316 -0.4380 -0.5085
 5593TIP3    H138338   6.564   3.759   2.121  2.9016  0.2541 -0.9521
 5593TIP3    H238339   6.475   3.779   2.001  1.3347 -1.8370 -0.2034
 5594TIP3   OH238340   1.708   5.476   2.893 -0.5103 -0.5530  0.2579
 5594TIP3    H138341   1.661   5.526   2.960 -0.9023 -0.6899  0.0873
 5594TIP3    H238342   1.799   5.474   2.923 -0.6548 -0.4685  0.6954
 5595TIP3   OH238343   4.970   1.932   0.245  0.2308  0.0601  0.4534
 5595TIP3    H138344   4.967   1.953   0.339  1.6660  0.0801  0.5232
 5595TIP3    H238345   4.975   2.017   0.202  2.8416  0.0538  0.5708
 5596TIP3   OH238346   4.855   2.667   7.550  0.2790  0.7910 -1.4217
 5596TIP3    H138347   4.864   2.610   7.625  0.4127 -2.8334 -3.9281
 5596TIP3    H238348   4.793   2.734   7.577  0.0417 -0.5370  1.7111
 5597TIP3   OH238349   5.218   3.290   1.868  1.1307 -0.2609  0.1489
 5597TIP3    H138350   5.254   3.223   1.926  1.5016 -0.6242 -0.4788
 5597TIP3    H238351   5.268   3.280   1.787 -0.4117 -0.8362 -0.7907
 5598TIP3   OH238352   4.073   0.710   0.419 -0.4189  0.1815  0.1971
 5598TIP3    H138353   4.099   0.646   0.353  1.7297  0.6460  0.5174
 5598TIP3    H238354   4.149   0.719   0.476 -0.1463  3.8008 -0.4525
 5599TIP3   OH238355   0.126   5.236   3.395  0.7263  0.0216 -0.3195
 5599TIP3    H138356   0.071   5.167   3.431 -0.3077  0.7743 -0.4196
 5599TIP3    H238357   0.179   5.266   3.469 -0.3720  0.5933  0.2503
 5600TIP3   OH238358   6.655   1.564   1.367  0.0621 -0.1778 -0.5375
 5600TIP3    H138359   6.628   1.648   1.405  1.2023  0.4177 -0.9751
 5600TIP3    H238360   6.578   1.532   1.321 -0.8394 -0.1142  0.8903
 5601TIP3   OH238361   1.658   6.485   2.817  0.3276  0.2402 -0.6169
 5601TIP3    H138362   1.588   6.547   2.796 -1.4308 -1.4776 -0.0664
 5601TIP3    H238363   1.668   6.492   2.912 -1.2932 -1.6595 -0.2473
 5602TIP3   OH238364   0.396   4.400   2.374  0.4228  0.2275  0.3939
 5602TIP3    H138365   0.412   4.456   2.450  1.3127 -0.2838  0.5930
 5602TIP3    H238366   0.455   4.326   2.386 -2.7107 -2.2606  1.6311
 5603TIP3   OH238367   3.973   6.642   2.700  0.0319 -0.1114  0.3936
 5603TIP3    H138368   4.033   6.652   2.627  0.5133  2.1322  1.0066
 5603TIP3    H238369   3.931   6.728   2.709 -0.4657 -0.4957  2.3283
 5604TIP3   OH238370   6.428   6.388   0.666  1.0712  0.1212  0.0084
 5604TIP3    H138371   6.486   6.341   0.607  1.0452  0.1335 -0.0269
 5604TIP3    H238372   6.416   6.473   0.624 -0.2854 -0.4570 -0.8109
 5605TIP3   OH238373   5.202   1.436   2.830  0.5184  0.0804  0.1785
 5605TIP3    H138374   5.292   1.464   2.812 -0.1542  1.6100 -1.0164
 5605TIP3    H238375   5.171   1.497   2.897  0.3813 -0.4585  0.6063
 5606TIP3   OH238376   5.699   0.323   1.174 -0.4616 -0.3111  0.2968
 5606TIP3    H138377   5.651   0.390   1.125  0.7747  0.6486  0.3655
 5606TIP3    H238378   5.630   0.274   1.220 -1.4922  0.0363 -0.8037
 5607TIP3   OH238379   5.965   0.411   2.919 -0.4190  0.6942 -1.0457
 5607TIP3    H138380   5.932   0.337   2.971  0.2144  0.6505 -0.6966
 5607TIP3    H238381   5.901   0.421   2.849 -0.0676 -0.7440 -1.6004
 5608TIP3   OH238382   4.207   5.062   0.327 -0.3059  0.2892  0.0808
 5608TIP3    H138383   4.202   5.039   0.420  0.7291  1.1073  0.3585
 5608TIP3    H238384   4.159   5.145   0.321 -0.8448 -0.0384 -0.2297
 5609TIP3   OH238385   2.990   0.234   1.865  0.2656  0.0036  0.1305
 5609TIP3    H138386   2.957   0.319   1.836  0.6187 -0.1231 -0.6675
 5609TIP3    H238387   3.040   0.254   1.944  0.7595  0.6156 -0.3265
 5610TIP3   OH238388   0.264   5.426   1.075 -0.0091  0.4544  0.1041
 5610TIP3    H138389   0.322   5.502   1.071 -1.1148  1.3424  0.3766
 5610TIP3    H238390   0.195   5.445   1.011 -0.8153  0.1318  0.8555
 5611TIP3   OH238391   4.936   2.363   2.233  0.0010 -0.1707 -0.6630
 5611TIP3    H138392   4.925   2.395   2.144  1.6986  1.4988 -0.3378
 5611TIP3    H238393   4.970   2.438   2.282 -0.2866 -1.2118  1.2681
 5612TIP3   OH238394   3.837   4.721   0.636 -0.3504 -0.1181 -0.0382
 5612TIP3    H138395   3.842   4.755   0.547  3.5036 -1.8057 -0.6929
 5612TIP3    H238396   3.774   4.649   0.632  0.0601 -0.4246 -1.5359
 5613TIP3   OH238397   2.698   2.062   2.256 -0.1429 -0.7196 -0.3051
 5613TIP3    H138398   2.745   2.099   2.331 -0.6396 -0.1491 -0.2720
 5613TIP3    H238399   2.610   2.046   2.289 -0.5767  0.2233 -0.9696
 5614TIP3   OH238400   0.020   1.026   0.820  0.3138  0.1388  0.9951
 5614TIP3    H138401  -0.036   0.954   0.850  0.0130  0.3325  0.9068
 5614TIP3    H238402  -0.024   1.105   0.851 -1.4016  0.5230 -1.9885
 5615TIP3   OH238403   3.189   1.224   0.119 -0.6423 -0.4631  0.5382
 5615TIP3    H138404   3.157   1.309   0.089  1.1409  0.2827  0.6755
 5615TIP3    H238405   3.111   1.168   0.118 -1.2400  0.1627 -2.9980
 5616TIP3   OH238406   0.575   1.498   2.612  0.3669  0.1354  0.7762
 5616TIP3    H138407   0.667   1.518   2.628  0.2909  0.8872  0.3176
 5616TIP3    H238408   0.576   1.437   2.539  0.5083  0.1154  0.7950
 5617TIP3   OH238409   5.333   3.851   8.367  0.2816  0.5428 -0.0702
 5617TIP3    H138410   5.353   3.882   8.456 -0.2394  0.1211  0.1958
 5617TIP3    H238411   5.360   3.924   8.310  2.4619  0.0755  0.2582
 5618TIP3   OH238412   3.466   3.219   2.158  0.4264 -0.0489 -0.4567
 5618TIP3    H138413   3.547   3.169   2.150 -0.8555 -2.4662  0.3020
 5618TIP3    H238414   3.424   3.209   2.072  0.5960  0.5783 -0.6152
 5619TIP3   OH238415   3.679   5.420   8.486 -0.6769 -0.2506 -0.0280
 5619TIP3    H138416   3.636   5.426   8.401  1.8923  2.9493 -1.3404
 5619TIP3    H238417   3.637   5.486   8.540 -0.2073 -0.0312  0.0786
 5620TIP3   OH238418   2.941   5.059   0.258 -0.1338 -0.0542  0.2607
 5620TIP3    H138419   3.004   5.064   0.331  0.6765 -0.8252 -0.3611
 5620TIP3    H238420   2.892   4.979   0.275  1.1679 -1.1424 -0.8731
 5621TIP3   OH238421   2.913   4.200   0.769 -0.2803 -0.1007  0.2977
 5621TIP3    H138422   2.952   4.249   0.697 -1.9250 -0.4214 -0.8735
 5621TIP3    H238423   2.892   4.266   0.835  0.2710  0.3506  0.0255
 5622TIP3   OH238424   4.710   2.455   8.176 -0.6516  0.5202 -0.0800
 5622TIP3    H138425   4.632   2.489   8.220 -0.6962 -0.5649  0.7227
 5622TIP3    H238426   4.686   2.449   8.083 -1.5436  0.1723  0.1667
 5623TIP3   OH238427   6.145   1.585   1.614  0.6635 -0.4243  0.3883
 5623TIP3    H138428   6.111   1.519   1.674 -0.8765  0.7309  0.8425
 5623TIP3    H238429   6.185   1.651   1.670  2.8219 -1.2405 -0.0954
 5624TIP3   OH238430   0.046   1.067   8.078 -0.0422  0.1562  0.0676
 5624TIP3    H138431   0.090   0.993   8.038 -1.0016  0.0611 -0.8464
 5624TIP3    H238432   0.110   1.139   8.072  0.5442 -0.3476  0.1425
 5625TIP3   OH238433   2.583   0.659   2.671 -0.3581 -0.2648 -0.3721
 5625TIP3    H138434   2.649   0.643   2.738  0.3660  0.1259 -0.9678
 5625TIP3    H238435   2.573   0.575   2.626 -0.3679 -0.3605 -0.1901
 5626TIP3   OH238436   6.514   3.778   8.270  0.7160  0.4031  0.0923
 5626TIP3    H138437   6.421   3.793   8.257  0.9049  1.6130  0.0284
 5626TIP3    H238438   6.529   3.797   8.363  0.8741  0.0846  0.1311
 5627TIP3   OH238439   5.831   3.582   0.144 -1.3229  0.1379 -0.5976
 5627TIP3    H138440   5.886   3.661   0.151 -0.7112 -0.3830  0.8790
 5627TIP3    H238441   5.892   3.509   0.152 -2.1571 -0.4608  0.6734
 5628TIP3   OH238442   4.474   3.211   2.008  0.2042  0.1205 -0.5754
 5628TIP3    H138443   4.557   3.171   2.034 -0.3264  1.5056  4.2639
 5628TIP3    H238444   4.422   3.138   1.973  1.0505 -2.5828  3.0911
 5629TIP3   OH238445   3.578   4.798   3.632 -0.5184  0.5082  0.0424
 5629TIP3    H138446   3.628   4.796   3.713 -2.8630 -1.2863  1.5907
 5629TIP3    H238447   3.547   4.889   3.625  0.1519  0.8078  0.8654
 5630TIP3   OH238448   1.248   2.082   1.320  0.0293  0.7184  0.4630
 5630TIP3    H138449   1.322   2.115   1.269 -1.3709  1.3664 -1.2653
 5630TIP3    H238450   1.228   2.152   1.382  0.4167  0.8427  0.4489
 5631TIP3   OH238451   6.942   0.944   1.838  0.3820  0.2530  0.2537
 5631TIP3    H138452   6.922   0.871   1.780  1.9135 -0.3272  0.4019
 5631TIP3    H238453   6.999   1.001   1.786  1.6123 -0.1773  1.0789
 5632TIP3   OH238454   5.414   1.056   3.835  0.1773 -0.9145 -0.8690
 5632TIP3    H138455   5.499   1.014   3.850  0.8752 -0.2751 -2.7907
 5632TIP3    H238456   5.355   0.984   3.811  0.3112 -1.2844 -0.1111
 5633TIP3   OH238457   4.760   4.615   8.018  0.5327  0.4496  0.4062
 5633TIP3    H138458   4.806   4.533   8.034 -1.0765 -1.0739 -2.0370
 5633TIP3    H238459   4.807   4.655   7.945  0.0159  0.5710  0.1302
 5634TIP3   OH238460   1.590   3.140   2.336 -0.0062 -0.4572  0.0993
 5634TIP3    H138461   1.544   3.179   2.410 -0.1473 -0.4427  0.0041
 5634TIP3    H238462   1.637   3.065   2.373 -2.5277 -2.3673 -0.3083
 5635TIP3   OH238463   0.990   3.272   8.049 -0.4062  0.2006 -0.2969
 5635TIP3    H138464   1.023   3.251   7.962  0.6712  1.1079 -0.1365
 5635TIP3    H238465   1.045   3.220   8.109  0.2408  1.1141 -0.0698
 5636TIP3   OH238466   3.701   1.380   2.350 -0.1243  0.4234 -0.1498
 5636TIP3    H138467   3.758   1.345   2.280 -0.0773  0.2077 -0.0038
 5636TIP3    H238468   3.625   1.322   2.349 -1.3541  1.9445 -1.7737
 5637TIP3   OH238469   0.009   5.560   8.073 -0.0618 -0.2215 -0.2469
 5637TIP3    H138470   0.102   5.539   8.061 -0.2069  0.0896 -2.1402
 5637TIP3    H238471   0.010   5.644   8.121  0.5863 -0.8651  0.9152
 5638TIP3   OH238472   0.604   6.375   3.327 -0.2435  0.3553 -0.0472
 5638TIP3    H138473   0.559   6.397   3.408 -0.2783 -2.7879  0.9042
 5638TIP3    H238474   0.691   6.415   3.336 -0.0688 -0.3591  1.8270
 5639TIP3   OH238475   2.765   3.301   7.389  0.0708 -0.2677 -0.0918
 5639TIP3    H138476   2.860   3.308   7.379  0.1137 -1.0769 -0.3460
 5639TIP3    H238477   2.731   3.299   7.300 -0.3775  2.0763 -0.0149
 5640TIP3   OH238478   5.898   4.112   2.312  0.1705  0.1238 -0.0487
 5640TIP3    H138479   5.875   4.024   2.283 -0.8091 -0.0693  1.2415
 5640TIP3    H238480   5.828   4.137   2.372  0.4977  1.7381 -0.3000
 5641TIP3   OH238481   3.674   6.758   1.275  0.1217 -0.1830  0.2176
 5641TIP3    H138482   3.660   6.840   1.228  0.6276 -0.4604 -0.4330
 5641TIP3    H238483   3.586   6.727   1.296 -0.2184 -0.8161 -1.8821
 5642TIP3   OH238484   0.405   1.685   2.929  0.1871  0.0892 -0.2327
 5642TIP3    H138485   0.333   1.632   2.897  0.1706  0.3848 -0.6931
 5642TIP3    H238486   0.462   1.697   2.853  0.6958 -0.0954  0.1118
 5643TIP3   OH238487   3.926   1.874   1.207  0.2475 -0.7969  0.9231
 5643TIP3    H138488   3.966   1.820   1.139 -0.0833  0.3814 -0.2633
 5643TIP3    H238489   3.834   1.880   1.181  0.1044 -0.3606  1.5107
 5644TIP3   OH238490   2.655   1.284   2.864  0.2671 -0.5278 -0.6622
 5644TIP3    H138491   2.641   1.379   2.863  0.3488 -0.4692  0.8500
 5644TIP3    H238492   2.749   1.273   2.858  0.4821 -0.3699  1.5664
 5645TIP3   OH238493   6.804   4.580   1.758 -0.2471 -0.0987  0.2591
 5645TIP3    H138494   6.786   4.489   1.734 -0.8211  0.1596 -0.3235
 5645TIP3    H238495   6.872   4.607   1.697  0.3220 -0.2989  0.7956
 5646TIP3   OH238496   2.761   6.717   0.579 -0.5638 -0.4161 -0.1615
 5646TIP3    H138497   2.718   6.743   0.497 -1.1866  1.1985  0.6159
 5646TIP3    H238498   2.827   6.784   0.594  1.2972 -2.0809 -0.5805
 5647TIP3   OH238499   4.705   2.856   7.675  0.0637  0.0771  0.0284
 5647TIP3    H138500   4.660   2.826   7.755 -0.0617  1.2165  0.4055
 5647TIP3    H238501   4.646   2.922   7.639  0.2154 -0.2973 -0.9171
 5648TIP3   OH238502   2.600   6.587   0.322  0.0721 -0.0754 -0.1926
 5648TIP3    H138503   2.548   6.534   0.261  0.1252  1.9288 -2.0998
 5648TIP3    H238504   2.667   6.527   0.354 -1.2731 -1.7749 -0.3983
 5649TIP3   OH238505   1.237   1.601   0.306  0.5405  0.3070  0.0846
 5649TIP3    H138506   1.242   1.696   0.300 -2.3548  0.4309 -2.0596
 5649TIP3    H238507   1.145   1.582   0.323  0.9781 -2.1290  0.1404
 5650TIP3   OH238508   1.086   5.622   1.257  0.3054  0.1699  0.3021
 5650TIP3    H138509   1.059   5.677   1.183 -0.4287  1.0475  1.1920
 5650TIP3    H238510   1.103   5.536   1.219  1.7758  1.0648 -1.1824
 5651TIP3   OH238511   0.933   6.520   3.714  0.6436  0.6356 -0.1777
 5651TIP3    H138512   0.855   6.474   3.684  1.2370 -0.5645  0.0740
 5651TIP3    H238513   0.984   6.534   3.634  0.4254  0.9384 -0.2663
 5652TIP3   OH238514   2.572   5.779   1.701 -0.4974 -0.5178 -0.5340
 5652TIP3    H138515   2.553   5.873   1.703 -1.2470 -0.6458 -1.1374
 5652TIP3    H238516   2.589   5.756   1.792 -1.6204 -0.0507 -0.1895
 5653TIP3   OH238517   3.100   3.030   2.596 -0.7316 -0.3765  0.1954
 5653TIP3    H138518   3.098   2.936   2.613 -0.5259 -0.5948 -0.9282
 5653TIP3    H238519   3.008   3.054   2.582 -0.6157 -0.8855 -1.8288
 5654TIP3   OH238520   3.871   4.258   1.914  0.2131 -0.1679 -0.1785
 5654TIP3    H138521   3.855   4.167   1.940 -0.8637 -0.4044 -1.5663
 5654TIP3    H238522   3.946   4.285   1.967 -0.6234 -1.2410  1.6692
 5655TIP3   OH238523   4.688   0.569   0.380 -0.0075  0.1098  0.6531
 5655TIP3    H138524   4.654   0.597   0.465  0.5971  1.5774  0.4392
 5655TIP3    H238525   4.731   0.646   0.345  0.7275 -0.7959 -0.5085
 5656TIP3   OH238526   6.276   3.050   1.234  0.2226  0.8634  0.0302
 5656TIP3    H138527   6.340   3.061   1.165  0.3721  2.0808  0.3472
 5656TIP3    H238528   6.321   3.077   1.314  1.1210 -3.3863  1.2426
 5657TIP3   OH238529   3.982   3.068   1.730  0.3672 -0.7309 -0.3212
 5657TIP3    H138530   3.962   3.119   1.652 -1.5808  1.0185  1.2167
 5657TIP3    H238531   4.013   3.132   1.794  2.7812 -2.2401  0.1439
 5658TIP3   OH238532   3.698   4.570   8.332 -0.0949 -0.1228 -0.5887
 5658TIP3    H138533   3.738   4.604   8.251 -0.9298  0.9886 -0.5688
 5658TIP3    H238534   3.711   4.640   8.396 -1.8914  0.2388 -0.5471
 5659TIP3   OH238535   3.100   0.403   3.220  0.5122  0.1216  0.7074
 5659TIP3    H138536   3.087   0.326   3.275  0.8604  0.1753  0.8709
 5659TIP3    H238537   3.119   0.474   3.281  2.0181 -0.0549  0.4891
 5660TIP3   OH238538   6.187   4.261   8.216 -0.3718 -0.0510  0.7529
 5660TIP3    H138539   6.214   4.171   8.232 -1.5502 -0.6857 -0.5768
 5660TIP3    H238540   6.267   4.313   8.225  0.6377 -1.4225 -0.0250
 5661TIP3   OH238541   6.397   2.237   7.653 -0.1041  0.0340  0.2684
 5661TIP3    H138542   6.430   2.278   7.573  0.0400 -0.7274 -0.0761
 5661TIP3    H238543   6.411   2.302   7.722 -1.2699  1.1559 -0.5111
 5662TIP3   OH238544   4.239   2.766   0.789  0.2224 -0.1052 -0.1422
 5662TIP3    H138545   4.233   2.826   0.715 -0.0763  0.4212  0.3037
 5662TIP3    H238546   4.176   2.800   0.852 -0.3495 -1.1883 -0.0966
 5663TIP3   OH238547   2.234   3.646   8.333  0.0885 -0.7549  0.1749
 5663TIP3    H138548   2.323   3.629   8.303 -0.2112 -1.0659 -0.5768
 5663TIP3    H238549   2.242   3.722   8.391  0.4231  1.2334 -2.3310
 5664TIP3   OH238550   0.733   3.062   3.198  0.0732  0.3373  0.4729
 5664TIP3    H138551   0.738   3.071   3.293  1.0999  1.0217  0.3648
 5664TIP3    H238552   0.746   2.969   3.182 -0.0279  0.2317  1.0021
 5665TIP3   OH238553   4.007   3.246   1.946  0.0596 -0.3113  0.4740
 5665TIP3    H138554   3.944   3.289   2.004 -0.8447  1.5321 -1.7198
 5665TIP3    H238555   4.092   3.278   1.977 -0.3539  0.2272  1.0897
 5666TIP3   OH238556   5.049   6.948   0.559 -0.3483 -0.5741  0.0027
 5666TIP3    H138557   4.963   6.986   0.540 -0.1240  0.0010  0.0934
 5666TIP3    H238558   5.036   6.895   0.637 -0.1494  1.3872  1.4358
 5667TIP3   OH238559   6.218   2.754   1.534 -0.1916  0.4149 -0.3027
 5667TIP3    H138560   6.181   2.789   1.453  1.1996  1.0534 -0.7011
 5667TIP3    H238561   6.312   2.745   1.515 -0.1118 -1.1230  0.6550
 5668TIP3   OH238562   3.563   5.944   2.457  0.8259 -0.2264 -0.1985
 5668TIP3    H138563   3.569   5.875   2.522 -1.5878 -0.7046 -0.4142
 5668TIP3    H238564   3.573   5.899   2.373  3.8626  0.3792 -0.2755
 5669TIP3   OH238565   1.620   2.384   2.846  0.0115 -0.0498 -0.5510
 5669TIP3    H138566   1.589   2.326   2.915 -0.8132  2.0356  0.9432
 5669TIP3    H238567   1.626   2.328   2.769 -1.1129 -2.0140  0.6860
 5670TIP3   OH238568   1.881   4.344   2.532 -1.0934 -0.0766 -0.2096
 5670TIP3    H138569   1.798   4.390   2.523 -0.7226  0.5453 -0.5474
 5670TIP3    H238570   1.942   4.393   2.477 -0.4100 -0.3012  0.3243
 5671TIP3   OH238571   2.938   3.345   1.919  0.1165  0.1377 -0.4487
 5671TIP3    H138572   2.978   3.280   1.861 -0.3291 -0.1572 -0.4306
 5671TIP3    H238573   2.987   3.426   1.902 -0.2739  0.1672 -1.5558
 5672TIP3   OH238574   5.315   3.271   1.626 -0.1243  0.8328  0.3063
 5672TIP3    H138575   5.330   3.343   1.564 -0.0001 -0.3536 -1.0994
 5672TIP3    H238576   5.386   3.209   1.609 -0.8258 -0.1167  0.7311
 5673TIP3   OH238577   2.400   5.190   7.845 -0.0755  0.1074 -0.3085
 5673TIP3    H138578   2.341   5.116   7.828  1.8180 -1.3223 -0.9498
 5673TIP3    H238579   2.395   5.243   7.766  0.3155 -0.6029 -0.8226
 5674TIP3   OH238580   1.474   0.869   7.437  0.2316 -0.8117  0.3047
 5674TIP3    H138581   1.554   0.824   7.463  1.7985 -0.1410 -2.8765
 5674TIP3    H238582   1.436   0.813   7.369 -0.3078  0.3769 -0.4046
 5675TIP3   OH238583   1.686   0.900   1.386  0.6970  0.3436  0.7549
 5675TIP3    H138584   1.636   0.908   1.467 -0.6847 -1.2941  0.1177
 5675TIP3    H238585   1.672   0.810   1.357  3.0808  0.1593 -0.1045
 5676TIP3   OH238586   3.479   4.740   2.675  0.1647  0.0583 -0.4091
 5676TIP3    H138587   3.545   4.701   2.618  0.0233 -1.0717  0.1752
 5676TIP3    H238588   3.494   4.701   2.760 -0.9680  0.1266 -0.1596
 5677TIP3   OH238589   4.175   0.164   8.471  0.5555  0.2388 -0.0618
 5677TIP3    H138590   4.193   0.111   8.393  0.9217  0.1512  0.0806
 5677TIP3    H238591   4.218   0.117   8.542  1.3712  1.0124 -0.0216
 5678TIP3   OH238592   3.721   6.175   3.307 -0.5414 -0.0420  0.3349
 5678TIP3    H138593   3.753   6.209   3.223  0.6504 -0.2437  0.6856
 5678TIP3    H238594   3.711   6.252   3.362 -0.0076 -0.0345  0.4273
 5679TIP3   OH238595   0.656   6.483   2.526  0.1642  0.0425  0.3417
 5679TIP3    H138596   0.666   6.490   2.431 -1.0689 -1.3154  0.0942
 5679TIP3    H238597   0.675   6.572   2.558  0.4500  0.5560 -1.1657
 5680TIP3   OH238598   0.557   2.783   2.581  0.0725 -0.0432  0.8521
 5680TIP3    H138599   0.616   2.722   2.537  0.2202  0.8602 -0.2470
 5680TIP3    H238600   0.505   2.821   2.510  0.3559  1.5126  1.4311
 5681TIP3   OH238601   0.345   1.223   7.598 -0.1307 -0.9943 -0.0213
 5681TIP3    H138602   0.436   1.228   7.629  0.3172 -1.6438 -1.1736
 5681TIP3    H238603   0.334   1.299   7.542 -1.0021  0.2862  1.8067
 5682TIP3   OH238604   6.057   2.923   2.247  0.2247 -0.1898 -0.0677
 5682TIP3    H138605   6.118   2.997   2.239 -2.1932  1.7811 -1.8830
 5682TIP3    H238606   5.982   2.959   2.294 -0.0858 -2.2161  1.0938
 5683TIP3   OH238607   3.317   3.300   8.457 -0.1183  0.5109  0.4294
 5683TIP3    H138608   3.332   3.351   8.537 -2.4320  2.3085 -0.1694
 5683TIP3    H238609   3.366   3.348   8.389  0.2408  0.1187  0.4096
 5684TIP3   OH238610   2.861   6.922   8.208 -0.3602  0.3674 -0.1112
 5684TIP3    H138611   2.767   6.922   8.186 -0.6769 -2.4801  0.8510
 5684TIP3    H238612   2.902   6.879   8.133 -0.1845 -0.5659  0.4990
 5685TIP3   OH238613   1.041   1.216   3.033 -0.4887 -0.4379 -0.9191
 5685TIP3    H138614   1.051   1.143   3.094 -0.5038 -0.6832 -1.2082
 5685TIP3    H238615   0.948   1.238   3.038 -0.3105  0.1853 -0.1262
 5686TIP3   OH238616   1.171   3.389   1.080 -0.2888 -0.1448 -0.2667
 5686TIP3    H138617   1.237   3.458   1.077 -1.4648  1.0412  0.2046
 5686TIP3    H238618   1.209   3.322   1.138  0.5717  0.4204 -0.1551
 5687TIP3   OH238619   6.945   5.593   3.433  0.7182 -0.0857 -0.6428
 5687TIP3    H138620   7.002   5.595   3.510  2.2688 -0.2178 -1.7487
 5687TIP3    H238621   6.999   5.557   3.364 -0.6221  0.1090 -1.8349
 5688TIP3   OH238622   1.062   3.105   1.471  0.6429  0.3906 -0.7496
 5688TIP3    H138623   1.057   3.179   1.533 -0.0324 -0.5166  0.3286
 5688TIP3    H238624   1.149   3.069   1.484  0.3907 -0.0014 -0.0364
 5689TIP3   OH238625   6.109   1.136   1.248 -0.3033  0.3017 -0.3167
 5689TIP3    H138626   6.203   1.144   1.231 -0.1426 -0.2429  0.2625
 5689TIP3    H238627   6.071   1.216   1.212  0.6954  1.7978  1.7937
 5690TIP3   OH238628   6.585   0.334   1.986 -0.2767 -0.3001  0.2892
 5690TIP3    H138629   6.563   0.253   1.941  3.0299 -1.4985  0.5317
 5690TIP3    H238630   6.570   0.315   2.079  0.9680 -0.9044  0.3963
 5691TIP3   OH238631   4.487   4.558   1.196  0.3255 -0.1352  0.0360
 5691TIP3    H138632   4.535   4.639   1.211  0.5147 -0.6837  2.9731
 5691TIP3    H238633   4.481   4.517   1.282  0.2964 -3.3074 -1.3351
 5692TIP3   OH238634   3.510   5.485   1.848  0.2760 -0.0493  0.5906
 5692TIP3    H138635   3.574   5.419   1.820 -0.6914 -0.2957 -1.1675
 5692TIP3    H238636   3.561   5.566   1.854  1.2699 -0.7328  1.8066
 5693TIP3   OH238637   5.508   6.639   0.639  0.0667  0.2808 -0.3874
 5693TIP3    H138638   5.436   6.702   0.649 -0.3506 -0.2122 -0.2427
 5693TIP3    H238639   5.544   6.628   0.727  0.5431  0.7792 -0.5137
 5694TIP3   OH238640   6.715   0.498   1.818  0.2249 -0.2146  0.7546
 5694TIP3    H138641   6.669   0.442   1.880 -1.7574 -1.0557 -1.3324
 5694TIP3    H238642   6.669   0.581   1.822 -0.3641 -0.4926 -0.0585
 5695TIP3   OH238643   3.025   4.797   8.219 -1.1642  0.5204 -0.4409
 5695TIP3    H138644   3.115   4.801   8.186 -1.1860  0.6532 -0.4880
 5695TIP3    H238645   2.972   4.826   8.144 -1.2180  0.7816 -0.3047
 5696TIP3   OH238646   5.672   4.071   3.317 -0.0991  0.1328 -0.1644
 5696TIP3    H138647   5.649   3.981   3.340 -3.5798  0.8088 -0.5695
 5696TIP3    H238648   5.626   4.125   3.381  1.1316  1.7020 -0.5274
 5697TIP3   OH238649   2.948   4.038   0.432  0.0378  0.3432  0.7255
 5697TIP3    H138650   2.940   4.059   0.525  0.6287  0.5342  0.7342
 5697TIP3    H238651   3.025   3.982   0.427  1.2460  1.9948  0.0891
 5698TIP3   OH238652   1.425   6.592   3.241 -0.0781 -0.0522  0.3081
 5698TIP3    H138653   1.339   6.619   3.207  0.1122 -0.4382 -0.5319
 5698TIP3    H238654   1.475   6.673   3.248 -0.2889  0.0946  0.1354
 5699TIP3   OH238655   1.380   3.456   1.607 -0.5254  0.1866  0.1308
 5699TIP3    H138656   1.353   3.545   1.631  1.6376  0.4546  1.8837
 5699TIP3    H238657   1.339   3.401   1.673 -0.4210  0.0851  0.1109
 5700TIP3   OH238658   4.779   0.663   1.121  0.3414  0.1820  0.3477
 5700TIP3    H138659   4.857   0.641   1.170 -0.0310 -1.1071  0.3886
 5700TIP3    H238660   4.730   0.581   1.115 -1.7020  1.2320  1.5590
 5701TIP3   OH238661   2.615   0.655   2.276 -0.1520  0.0439  0.2273
 5701TIP3    H138662   2.596   0.566   2.246  0.9260 -0.5988  1.3486
 5701TIP3    H238663   2.710   0.657   2.288  0.0270  1.7874 -1.0835
 5702TIP3   OH238664   5.831   4.891   1.788  0.1550  0.3004 -0.4369
 5702TIP3    H138665   5.756   4.919   1.841  1.4456  0.5826  1.3517
 5702TIP3    H238666   5.835   4.954   1.717 -0.5946  0.9920  0.1125
 5703TIP3   OH238667   6.542   3.663   2.309  0.1127  0.4909  0.0117
 5703TIP3    H138668   6.501   3.702   2.386 -0.7123  0.1026 -0.2160
 5703TIP3    H238669   6.596   3.592   2.343 -0.8678 -0.1962  0.1978
 5704TIP3   OH238670   2.375   0.464   2.315  0.6785 -0.3114  0.4565
 5704TIP3    H138671   2.303   0.401   2.312  0.3171  0.1064  0.1450
 5704TIP3    H238672   2.341   0.542   2.270  1.2542 -0.0358  0.4821
 5705TIP3   OH238673   6.771   4.628   2.520  0.1274  0.2022 -0.2966
 5705TIP3    H138674   6.768   4.724   2.522  0.2646  0.1949  0.4013
 5705TIP3    H238675   6.855   4.608   2.479  0.4927  0.3858  0.3453
 5706TIP3   OH238676   1.080   1.515   3.613 -0.7103 -0.1067 -0.0504
 5706TIP3    H138677   0.993   1.476   3.621 -0.3514 -0.9956 -0.3012
 5706TIP3    H238678   1.134   1.444   3.579  0.6588 -0.3114  2.3753
 5707TIP3   OH238679   1.383   3.126   1.744  0.2921 -0.3934 -0.0988
 5707TIP3    H138680   1.409   3.038   1.771 -0.0590 -0.2452  0.7780
 5707TIP3    H238681   1.290   3.131   1.766  0.6416  0.7075  1.2900
 5708TIP3   OH238682   0.478   0.563   3.474 -0.1078 -0.3789 -0.4035
 5708TIP3    H138683   0.464   0.485   3.527 -0.4446  0.6027  1.0251
 5708TIP3    H238684   0.442   0.541   3.388 -1.1887 -1.4286  0.2877
 5709TIP3   OH238685   0.764   1.646   2.090 -0.0123  0.1804 -0.1686
 5709TIP3    H138686   0.755   1.740   2.071  0.1366  0.3852  0.7097
 5709TIP3    H238687   0.677   1.619   2.117 -0.1394 -0.0224 -0.7755
 5710TIP3   OH238688   5.602   5.005   7.616  0.1928  0.1224 -0.0096
 5710TIP3    H138689   5.687   5.004   7.573 -0.0062 -0.1981 -0.4008
 5710TIP3    H238690   5.548   4.945   7.565  0.2505 -1.0890  1.2898
 5711TIP3   OH238691   2.041   1.524   2.876 -0.0689  0.3554 -0.9291
 5711TIP3    H138692   2.081   1.590   2.932  0.3894 -0.2141 -0.5755
 5711TIP3    H238693   1.965   1.493   2.926  0.1964  0.0270 -0.7193
 5712TIP3   OH238694   1.388   3.196   7.479 -0.0920 -0.2166  0.4188
 5712TIP3    H138695   1.325   3.124   7.480  0.4929 -0.8679 -2.0891
 5712TIP3    H238696   1.343   3.268   7.521 -1.8739 -1.1642  0.2331
 5713TIP3   OH238697   6.920   5.122   1.000  0.3113 -0.2201  0.7735
 5713TIP3    H138698   6.828   5.104   1.021 -0.2733  0.4522 -1.0249
 5713TIP3    H238699   6.938   5.067   0.925  0.5972  1.4695 -0.4428
 5714TIP3   OH238700   1.049   0.115   2.336 -0.1296  0.3465 -0.0394
 5714TIP3    H138701   1.016   0.202   2.360  1.4012  0.9555 -0.0680
 5714TIP3    H238702   1.091   0.082   2.416  0.9481  0.4415 -0.5538
 5715TIP3   OH238703   5.674   2.565   3.332  0.0907 -0.1267 -0.4245
 5715TIP3    H138704   5.630   2.512   3.265  3.2957 -0.8982 -2.1527
 5715TIP3    H238705   5.761   2.526   3.339  0.4906  1.0625  2.9915
 5716TIP3   OH238706   5.625   5.894   2.662  0.3922 -0.8508 -0.4945
 5716TIP3    H138707   5.661   5.977   2.632 -1.4922 -0.2487 -1.2480
 5716TIP3    H238708   5.650   5.830   2.595  0.8698 -0.6428 -0.5116
 5717TIP3   OH238709   0.378   1.747   1.862  0.1184  0.0165  0.0358
 5717TIP3    H138710   0.371   1.842   1.854  1.4951  0.1314 -0.1284
 5717TIP3    H238711   0.447   1.723   1.800 -1.5593 -1.3611 -1.3816
 5718TIP3   OH238712   5.289   0.059   1.525 -0.3950  0.8834  0.2205
 5718TIP3    H138713   5.276  -0.028   1.562  1.1468  1.1013  1.3874
 5718TIP3    H238714   5.316   0.113   1.599  2.8008  1.3419 -1.1110
 5719TIP3   OH238715   0.018   0.580   1.952 -0.2903  0.0716  0.6113
 5719TIP3    H138716  -0.036   0.588   1.873  0.5246  2.5632  0.2300
 5719TIP3    H238717  -0.036   0.616   2.022  0.4025  1.4768  0.4444
 5720TIP3   OH238718   1.207   3.849   1.349  0.1610  0.0554 -0.6247
 5720TIP3    H138719   1.119   3.886   1.343  0.0762  0.3038  1.4223
 5720TIP3    H238720   1.265   3.925   1.353  0.3330 -0.0833 -0.4615
 5721TIP3   OH238721   2.271   2.797   3.175  0.1430 -0.0321 -0.2188
 5721TIP3    H138722   2.217   2.829   3.247  2.6381 -0.7572  2.1340
 5721TIP3    H238723   2.323   2.727   3.214  0.2514 -1.8015 -3.2714
 5722TIP3   OH238724   2.357   2.825   2.904  0.3572  0.4776  0.8988
 5722TIP3    H138725   2.441   2.837   2.948  0.8061  0.9339 -0.0455
 5722TIP3    H238726   2.293   2.823   2.975  1.1449  0.2648  1.6236
 5723TIP3   OH238727   4.828   3.228   1.511  0.2034 -0.3385 -0.6486
 5723TIP3    H138728   4.911   3.233   1.463  1.2294  0.8129  1.1059
 5723TIP3    H238729   4.853   3.240   1.603 -1.7596 -1.5578  0.1016
 5724TIP3   OH238730   6.782   4.622   2.160  0.0489  0.0627 -0.5520
 5724TIP3    H138731   6.721   4.564   2.206  0.8837  0.2537  0.8565
 5724TIP3    H238732   6.827   4.565   2.098 -0.5372 -0.3833 -0.5782
 5725TIP3   OH238733   2.237   1.097   0.708 -0.4367 -0.0378  0.3201
 5725TIP3    H138734   2.237   1.191   0.687 -0.6708 -0.0163  0.4068
 5725TIP3    H238735   2.147   1.080   0.737  0.0125  0.0618  1.8740
 5726TIP3   OH238736   1.440   4.441   1.788 -0.5285 -0.4618 -0.1481
 5726TIP3    H138737   1.426   4.439   1.883  0.9387 -0.0437  0.0934
 5726TIP3    H238738   1.404   4.526   1.761 -1.0173 -0.6125  0.0154
 5727TIP3   OH238739   5.415   5.653   0.239  0.0776 -0.4462  0.1680
 5727TIP3    H138740   5.470   5.579   0.267  0.7752 -0.7280 -1.7840
 5727TIP3    H238741   5.332   5.640   0.286  1.1193 -0.8807  1.9879
 5728TIP3   OH238742   6.611   2.026   1.083  0.0551  0.1354  0.7494
 5728TIP3    H138743   6.635   2.118   1.071  0.9201 -0.0815  0.7324
 5728TIP3    H238744   6.520   2.021   1.054  0.6154  0.5868 -1.2644
 5729TIP3   OH238745   5.577   3.778   2.096 -0.7017  0.1792 -0.0145
 5729TIP3    H138746   5.546   3.690   2.118 -1.3511  0.6753  1.1458
 5729TIP3    H238747   5.508   3.836   2.125 -1.3453  1.0041 -2.8639
 5730TIP3   OH238748   0.086   2.565   1.159  0.1402  0.6637  0.5009
 5730TIP3    H138749   0.142   2.557   1.082 -0.0130 -1.5519  0.5619
 5730TIP3    H238750   0.074   2.475   1.190 -1.6778  1.2791  1.7716
 5731TIP3   OH238751   3.061   1.061   7.790  0.3647  0.2300 -0.2314
 5731TIP3    H138752   2.990   1.093   7.846 -0.0801 -0.2306 -0.5223
 5731TIP3    H238753   3.100   1.141   7.753 -0.1602  0.4803 -0.2592
 5732TIP3   OH238754   0.350   4.810   1.399 -0.0777 -0.0959 -0.1801
 5732TIP3    H138755   0.321   4.876   1.462 -1.8469 -0.0998 -0.9233
 5732TIP3    H238756   0.306   4.833   1.318  1.1723 -0.8251 -1.0949
 5733TIP3   OH238757   0.540   4.046   2.560 -0.2736 -0.0829  0.1494
 5733TIP3    H138758   0.570   4.091   2.638 -0.1031 -0.5241  0.3368
 5733TIP3    H238759   0.574   3.957   2.568  0.4711  0.0982 -0.8385
 5734TIP3   OH238760   2.169   0.801   8.338  0.2784 -0.4008  0.4774
 5734TIP3    H138761   2.240   0.800   8.274  0.3455 -1.4229  0.5569
 5734TIP3    H238762   2.177   0.718   8.385 -1.5885 -1.0185 -0.2115
 5735TIP3   OH238763   5.094   2.745   8.284 -0.3033  0.3791 -0.4062
 5735TIP3    H138764   5.185   2.760   8.312 -0.3661 -0.7449  0.4545
 5735TIP3    H238765   5.072   2.823   8.232  1.1438  0.6740 -0.6248
 5736TIP3   OH238766   2.114   2.437   8.479 -0.3015  0.9888  0.5932
 5736TIP3    H138767   2.060   2.513   8.500 -0.4336  0.9352  0.4458
 5736TIP3    H238768   2.103   2.424   8.385  0.2438  1.1907  0.4948
 5737TIP3   OH238769   3.413   4.130   1.306 -0.0990 -0.2177  0.4006
 5737TIP3    H138770   3.322   4.105   1.323 -0.9360  2.1844 -0.1760
 5737TIP3    H238771   3.409   4.223   1.286  2.6247  0.1772  1.2618
 5738TIP3   OH238772   6.501   2.821   0.567  0.0516  0.3052 -0.3624
 5738TIP3    H138773   6.595   2.838   0.582  0.1094 -0.3412  0.0552
 5738TIP3    H238774   6.489   2.835   0.473  0.1750  2.1933 -0.1369
 5739TIP3   OH238775   4.357   1.985   8.197 -0.3042 -0.2784 -0.2455
 5739TIP3    H138776   4.339   1.958   8.287 -0.3395  0.0060 -0.1655
 5739TIP3    H238777   4.439   2.034   8.203  0.6617 -1.7700 -0.6367
 5740TIP3   OH238778   1.342   1.256   0.761 -0.3580  0.1016 -0.1049
 5740TIP3    H138779   1.381   1.256   0.674 -0.0312 -0.8626  0.0305
 5740TIP3    H238780   1.374   1.175   0.802  0.0743  0.8675  1.1595
 5741TIP3   OH238781   2.403   0.095   7.646  0.2598  0.2506 -0.2495
 5741TIP3    H138782   2.386   0.088   7.552 -0.0916 -0.4969 -0.1419
 5741TIP3    H238783   2.347   0.027   7.685 -0.2445  1.1215  0.5735
 5742TIP3   OH238784   0.288   5.512   3.348  1.2701 -0.2755 -0.7180
 5742TIP3    H138785   0.311   5.511   3.441  2.8946 -0.0591 -1.1016
 5742TIP3    H238786   0.294   5.421   3.320 -1.4749 -0.7265 -0.1325
 5743TIP3   OH238787   5.198   1.454   2.334  0.1522  0.1122  0.9575
 5743TIP3    H138788   5.251   1.380   2.305  0.8719  0.6742  0.8004
 5743TIP3    H238789   5.138   1.471   2.261  0.1206 -0.1825  0.9145
 5744TIP3   OH238790   3.509   6.535   7.842  0.2275  0.3933 -0.2459
 5744TIP3    H138791   3.547   6.449   7.826  0.2094  0.0027  1.6098
 5744TIP3    H238792   3.419   6.528   7.812  0.9752  0.7167 -2.8277
 5745TIP3   OH238793   3.125   2.735   2.593  0.3841 -0.1991 -0.9164
 5745TIP3    H138794   3.150   2.647   2.622 -0.4384  0.0492  0.6329
 5745TIP3    H238795   3.042   2.722   2.548  0.1132 -0.1821 -0.4255
 5746TIP3   OH238796   1.821   2.165   3.794  0.2733 -0.1908  1.3276
 5746TIP3    H138797   1.762   2.153   3.719  0.2859  0.0633  1.2773
 5746TIP3    H238798   1.764   2.156   3.871  0.4245 -1.4381  1.3238
 5747TIP3   OH238799   4.879   3.565   8.484 -0.5336 -0.4073  0.1535
 5747TIP3    H138800   4.899   3.658   8.493 -1.1439 -0.2436 -0.0914
 5747TIP3    H238801   4.918   3.539   8.401  0.5001 -0.6185  0.6943
 5748TIP3   OH238802   3.717   5.741   1.313 -0.2342  0.3143  0.1260
 5748TIP3    H138803   3.788   5.802   1.296  0.3289 -0.5199 -0.6183
 5748TIP3    H238804   3.666   5.782   1.383  0.0060  1.7142 -0.4870
 5749TIP3   OH238805   4.235   6.379   1.355 -0.2997 -0.5536  0.2099
 5749TIP3    H138806   4.298   6.360   1.424  0.2591  2.5484  0.7205
 5749TIP3    H238807   4.288   6.419   1.286 -1.4142  0.2660 -0.1921
 5750TIP3   OH238808   6.461   6.787   3.205  0.1181  0.1472 -0.0267
 5750TIP3    H138809   6.405   6.747   3.139 -0.9325 -1.5445  1.8291
 5750TIP3    H238810   6.538   6.730   3.209  0.5680  0.7195 -0.3592
 5751TIP3   OH238811   6.045   5.692   0.372  0.1863  0.1433  0.1199
 5751TIP3    H138812   6.118   5.748   0.396  1.3725 -1.0510 -0.5683
 5751TIP3    H238813   6.069   5.656   0.287 -0.1022 -2.0669  0.9116
 5752TIP3   OH238814   3.383   1.061   7.755  0.4114  0.5531  0.2417
 5752TIP3    H138815   3.374   1.153   7.731  2.6529  0.6788 -0.3126
 5752TIP3    H238816   3.430   1.062   7.839 -1.9165 -0.0717  1.6686
 5753TIP3   OH238817   6.587   2.347   0.182  0.3688 -0.1769 -1.2029
 5753TIP3    H138818   6.669   2.352   0.231 -0.0523  0.1934 -0.5232
 5753TIP3    H238819   6.535   2.420   0.215 -0.8320 -1.3067 -0.5305
 5754TIP3   OH238820   5.749   2.614   3.664  0.0859  0.0689  0.2287
 5754TIP3    H138821   5.841   2.603   3.640  0.1019  0.0276  0.3083
 5754TIP3    H238822   5.751   2.625   3.760  0.0720  0.7227  0.1611
 5755TIP3   OH238823   5.062   6.122   2.241  0.0946 -0.3967  0.2378
 5755TIP3    H138824   5.003   6.194   2.264 -1.2984 -0.9880 -1.2967
 5755TIP3    H238825   5.140   6.165   2.207 -0.9042  0.4200 -1.1048
 5756TIP3   OH238826   1.284   4.861   1.348 -0.4748 -0.1330 -0.1623
 5756TIP3    H138827   1.353   4.870   1.414 -0.1689 -2.1364 -0.1483
 5756TIP3    H238828   1.243   4.948   1.344  2.6519  1.4573 -0.8640
 5757TIP3   OH238829   1.011   1.212   2.158  0.1852  0.1822 -1.2059
 5757TIP3    H138830   0.993   1.146   2.091 -0.6024  2.1225 -3.0032
 5757TIP3    H238831   1.083   1.264   2.122 -0.1194  1.1467 -0.4711
 5758TIP3   OH238832   5.785   6.597   8.272 -0.0082  0.2787  0.4604
 5758TIP3    H138833   5.695   6.579   8.298 -1.3142  2.2163 -2.3057
 5758TIP3    H238834   5.813   6.518   8.226 -1.0804  0.4444 -0.5114
 5759TIP3   OH238835   6.856   1.707   2.141  0.0215 -0.2251  0.1783
 5759TIP3    H138836   6.833   1.780   2.084  0.9664  0.3546  0.5155
 5759TIP3    H238837   6.939   1.674   2.105  0.8349  0.3931  1.4113
 5760TIP3   OH238838   1.585   6.555   0.580  0.0149 -0.2539  0.0291
 5760TIP3    H138839   1.609   6.472   0.621  1.3570  1.2317  2.5074
 5760TIP3    H238840   1.649   6.567   0.510 -0.4805 -1.4713 -0.6605
 5761TIP3   OH238841   6.021   6.779   1.423  0.1142 -0.2423  0.5254
 5761TIP3    H138842   6.113   6.774   1.448  0.3458 -1.2624 -0.4729
 5761TIP3    H238843   5.974   6.748   1.500  0.5548  0.7674  1.2267
 5762TIP3   OH238844   1.599   0.533   2.829  0.2606 -0.0360 -0.2690
 5762TIP3    H138845   1.592   0.537   2.924 -1.4731  0.7128 -0.3935
 5762TIP3    H238846   1.688   0.563   2.810 -0.0403  1.8462  1.0185
 5763TIP3   OH238847   1.229   6.590   2.074 -0.2534  0.3894 -0.1382
 5763TIP3    H138848   1.292   6.593   2.146  0.2680  2.0888 -0.6082
 5763TIP3    H238849   1.178   6.670   2.083 -2.9301 -1.2794  0.6539
 5764TIP3   OH238850   1.336   1.390   2.531  0.3812 -0.1518  0.8157
 5764TIP3    H138851   1.415   1.337   2.533  1.9591  1.9998 -0.3114
 5764TIP3    H238852   1.335   1.436   2.615 -1.1012 -1.9696  1.8836
 5765TIP3   OH238853   2.471   3.455   7.534  0.2081 -0.2141 -0.4209
 5765TIP3    H138854   2.392   3.454   7.588  1.0452 -0.8974  0.8380
 5765TIP3    H238855   2.526   3.385   7.570  1.3351  0.1573 -1.3571
 5766TIP3   OH238856   5.404   6.637   3.533  0.1552  0.2764 -0.4609
 5766TIP3    H138857   5.448   6.669   3.611 -0.4833  3.3343 -1.2091
 5766TIP3    H238858   5.359   6.557   3.561 -0.2067  1.3613  2.3353
 5767TIP3   OH238859   5.689   4.058   0.524  0.0133  1.2331 -0.0253
 5767TIP3    H138860   5.755   4.085   0.588  1.4764 -2.7011  0.4428
 5767TIP3    H238861   5.726   4.083   0.439  1.4137  0.5103  0.3359
 5768TIP3   OH238862   5.522   4.188   2.030  0.2328  0.1338  0.1713
 5768TIP3    H138863   5.522   4.238   1.949 -0.9725 -0.1140  0.0099
 5768TIP3    H238864   5.614   4.166   2.045  0.7486  2.0828  0.0602
 5769TIP3   OH238865   4.664   5.804   2.449  0.4003 -0.4982  0.4018
 5769TIP3    H138866   4.698   5.764   2.529  0.1029 -0.9248  0.3229
 5769TIP3    H238867   4.572   5.823   2.469 -0.2611 -2.4931 -0.4826
 5770TIP3   OH238868   2.870   2.426   7.508 -0.1890 -0.5058 -0.0464
 5770TIP3    H138869   2.843   2.369   7.436  0.3128 -1.6904  0.6945
 5770TIP3    H238870   2.867   2.371   7.586  1.1436  0.2330  0.5628
 5771TIP3   OH238871   2.773   6.765   1.741  0.1141 -0.1450  0.2308
 5771TIP3    H138872   2.796   6.756   1.649  1.5342  0.5398  0.4909
 5771TIP3    H238873   2.826   6.699   1.786 -0.3701 -0.2947  0.5992
 5772TIP3   OH238874   5.024   3.259   8.393 -0.5265 -0.2152  0.4642
 5772TIP3    H138875   5.054   3.316   8.322  1.0433  1.4586  2.3512
 5772TIP3    H238876   4.978   3.188   8.349  1.7635 -0.1511 -2.3514
 5773TIP3   OH238877   5.920   0.798   0.412 -0.4904 -0.1958 -0.4981
 5773TIP3    H138878   5.869   0.879   0.411  2.0080  1.5068  0.9136
 5773TIP3    H238879   5.942   0.782   0.321  0.1203  1.5222 -0.6840
 5774TIP3   OH238880   1.101   3.694   0.283 -0.3290  0.8133  0.4607
 5774TIP3    H138881   1.008   3.685   0.303 -0.4967  0.1792 -0.5421
 5774TIP3    H238882   1.103   3.736   0.197  0.2504 -0.7870 -0.3484
 5775TIP3   OH238883   3.497   4.232   0.949  0.2738  0.6315  0.0449
 5775TIP3    H138884   3.469   4.218   1.040  0.0601  1.9553  0.2149
 5775TIP3    H238885   3.537   4.319   0.950  3.2869 -0.6260 -0.4728
 5776TIP3   OH238886   4.841   4.349   8.053  0.1309  0.7693  0.3201
 5776TIP3    H138887   4.891   4.333   7.973  0.8065  1.8617  0.5018
 5776TIP3    H238888   4.752   4.319   8.033  0.8026 -1.0642 -0.0532
 5777TIP3   OH238889   5.273   5.445   1.464 -0.2508  0.0686 -0.0093
 5777TIP3    H138890   5.351   5.484   1.425 -0.5719  0.0428 -0.7081
 5777TIP3    H238891   5.261   5.490   1.547 -0.2465  0.9927 -0.5050
 5778TIP3   OH238892   1.381   6.420   7.544 -0.4381 -0.7410  0.1823
 5778TIP3    H138893   1.455   6.449   7.490  0.2235 -1.3553  0.7273
 5778TIP3    H238894   1.409   6.334   7.576  0.6707  0.9152  4.2012
 5779TIP3   OH238895   1.172   5.997   1.745 -0.0701  0.7994  0.1442
 5779TIP3    H138896   1.212   5.965   1.664  0.4144 -1.6627  1.2717
 5779TIP3    H238897   1.232   5.970   1.814 -2.8134 -1.7138  1.7747
 5780TIP3   OH238898   6.045   3.610   7.866  0.1529 -0.0804  0.2957
 5780TIP3    H138899   6.128   3.589   7.823 -0.8685 -2.3603 -0.7087
 5780TIP3    H238900   6.047   3.559   7.947  0.1043  0.5815  0.7203
 5781TIP3   OH238901   6.386   3.948   1.561 -0.3979 -0.3762  0.4773
 5781TIP3    H138902   6.300   3.978   1.530  0.6195  1.6220 -0.6490
 5781TIP3    H238903   6.425   3.908   1.484  0.7141  1.2698  0.1267
 5782TIP3   OH238904   2.183   4.780   3.413  0.1372 -0.6027 -0.6027
 5782TIP3    H138905   2.159   4.841   3.344  0.3398 -2.3727 -2.3164
 5782TIP3    H238906   2.130   4.807   3.488 -1.2028  0.4715 -1.8828
 5783TIP3   OH238907   5.382   2.547   0.175 -0.7504 -0.3586 -0.0672
 5783TIP3    H138908   5.458   2.522   0.122 -0.5191  0.0502  0.0646
 5783TIP3    H238909   5.419   2.577   0.258 -0.9513  1.0430 -0.4480
 5784TIP3   OH238910   3.585   5.115   0.381 -0.1604  0.2153 -0.3158
 5784TIP3    H138911   3.662   5.145   0.429 -0.1410 -0.0016 -0.2131
 5784TIP3    H238912   3.522   5.187   0.391  0.1578  0.5531 -0.7111
 5785TIP3   OH238913   6.911   3.971   2.668 -0.3176  0.4397 -0.9928
 5785TIP3    H138914   6.920   3.972   2.763 -0.2131 -0.9527 -0.9695
 5785TIP3    H238915   6.930   4.062   2.642 -2.4598  1.3937  0.4537
 5786TIP3   OH238916   5.627   1.626   8.407  0.5285  0.3603 -0.1924
 5786TIP3    H138917   5.552   1.656   8.459  0.9001  1.6868 -0.3773
 5786TIP3    H238918   5.599   1.542   8.371  0.0471 -0.3242  1.6814
 5787TIP3   OH238919   6.526   6.208   2.036 -0.3969  0.1680  0.2217
 5787TIP3    H138920   6.572   6.270   1.980 -1.3659 -1.2711 -2.3588
 5787TIP3    H238921   6.453   6.258   2.072 -0.8681  0.7149 -1.3937
 5788TIP3   OH238922   6.138   5.529   1.586 -0.2297  0.2722 -0.5189
 5788TIP3    H138923   6.147   5.613   1.630 -1.5505  0.2372 -0.1451
 5788TIP3    H238924   6.198   5.534   1.511 -0.2811  1.5180 -0.4931
 5789TIP3   OH238925   0.176   2.975   1.148  0.0674 -0.6588  0.4184
 5789TIP3    H138926   0.222   2.999   1.067  0.2287  0.5748  0.8506
 5789TIP3    H238927   0.087   3.008   1.136 -0.9234 -3.3738 -0.5751
 5790TIP3   OH238928   1.473   4.593   7.460 -0.8926 -0.0121  0.2587
 5790TIP3    H138929   1.554   4.609   7.510 -1.4298 -0.2218  1.2197
 5790TIP3    H238930   1.483   4.645   7.381  0.8069 -1.1130 -0.3061
 5791TIP3   OH238931   3.794   2.611   0.800  0.3462  1.0998 -0.2342
 5791TIP3    H138932   3.737   2.565   0.862 -1.8939  3.3902 -0.4293
 5791TIP3    H238933   3.793   2.702   0.830  3.1540  1.4201 -0.8871
 5792TIP3   OH238934   3.374   6.308   1.297 -0.0177  0.2510 -0.1317
 5792TIP3    H138935   3.289   6.315   1.254 -0.9163  0.4309  1.5985
 5792TIP3    H238936   3.378   6.384   1.356  1.6817  0.6829 -0.7198
 5793TIP3   OH238937   1.289   6.897   3.374 -0.3279  0.2271 -0.2774
 5793TIP3    H138938   1.265   6.990   3.375 -0.9145  0.0876 -0.7440
 5793TIP3    H238939   1.283   6.870   3.465  1.5966  1.0701  0.1488
 5794TIP3   OH238940   1.529   1.152   2.226 -0.3529 -0.2698 -0.1203
 5794TIP3    H138941   1.500   1.243   2.222 -0.5027 -0.3521 -2.1130
 5794TIP3    H238942   1.595   1.150   2.296 -0.7656  1.2317  0.3382
 5795TIP3   OH238943   5.410   6.934   3.501 -0.1809  0.3997 -0.6797
 5795TIP3    H138944   5.332   6.977   3.536  0.4168  0.6662  0.3775
 5795TIP3    H238945   5.439   6.877   3.572 -0.0032 -0.4818 -1.4489
 5796TIP3   OH238946   4.827   0.581   8.167 -0.1797  0.1948 -0.2510
 5796TIP3    H138947   4.882   0.657   8.185 -0.9220  0.5491  0.6125
 5796TIP3    H238948   4.862   0.544   8.086  0.7660  0.9172 -0.1878
 5797TIP3   OH238949   2.548   0.464   0.122  0.3927 -0.2144 -0.3271
 5797TIP3    H138950   2.627   0.410   0.123  0.9589  0.5884  0.9475
 5797TIP3    H238951   2.564   0.528   0.053  0.2628 -0.8897 -0.9905
 5798TIP3   OH238952   5.060   4.038   1.016  0.2607  0.5771 -0.4443
 5798TIP3    H138953   5.024   3.984   1.087 -0.8111  0.8703 -0.7469
 5798TIP3    H238954   5.150   4.054   1.041 -0.3714  1.5265  1.3746
 5799TIP3   OH238955   2.312   4.575   0.590  0.4608 -0.0772  0.3941
 5799TIP3    H138956   2.298   4.565   0.496 -0.1774 -0.8554  0.5619
 5799TIP3    H238957   2.341   4.666   0.600  1.7629 -0.3445 -0.6766
 5800TIP3   OH238958   0.421   3.074   0.235  0.0215  0.1644  0.1638
 5800TIP3    H138959   0.335   3.100   0.201 -1.3021 -0.6032  2.7239
 5800TIP3    H238960   0.450   3.150   0.286 -0.2858 -0.4337  1.2686
 5801TIP3   OH238961   2.171   1.786   0.370 -0.2292  0.3245  0.1377
 5801TIP3    H138962   2.138   1.872   0.397 -2.2655 -0.1430 -0.6894
 5801TIP3    H238963   2.179   1.737   0.452 -0.4415  0.8580  0.4812
 5802TIP3   OH238964   2.243   6.461   7.644  0.4869 -0.3201  0.2318
 5802TIP3    H138965   2.242   6.385   7.586  0.9844  1.2297 -1.9462
 5802TIP3    H238966   2.153   6.468   7.676  0.0074 -0.8418 -0.9442
 5803TIP3   OH238967   1.415   4.971   2.539  0.7616 -0.4031 -0.1690
 5803TIP3    H138968   1.393   4.887   2.499 -3.2385  1.0101 -1.4937
 5803TIP3    H238969   1.484   5.007   2.484  0.5848 -1.6855 -1.2832
 5804TIP3   OH238970   1.920   3.177   0.802 -0.7613  0.1085  0.1725
 5804TIP3    H138971   1.909   3.246   0.737  1.3111 -0.3517 -0.7488
 5804TIP3    H238972   1.836   3.130   0.802 -1.1504  0.7282 -1.4490
 5805TIP3   OH238973   4.540   2.253   7.810  0.2630  0.3507  0.2626
 5805TIP3    H138974   4.612   2.207   7.766  1.0784  2.2039 -0.4142
 5805TIP3    H238975   4.579   2.334   7.842 -1.6817  1.7278 -0.7314
 5806TIP3   OH238976   6.696   5.241   2.011 -0.0746  0.6412 -0.8091
 5806TIP3    H138977   6.736   5.254   2.097 -0.2055 -0.7660 -0.5055
 5806TIP3    H238978   6.770   5.236   1.950  0.2227 -1.0846 -0.3676
 5807TIP3   OH238979   3.008   4.754   0.948 -0.2146  0.1351 -0.2678
 5807TIP3    H138980   3.007   4.754   0.852  0.2078 -0.3433 -0.2793
 5807TIP3    H238981   2.929   4.707   0.973 -0.1809  0.0158 -0.3854
 5808TIP3   OH238982   5.566   3.536   3.127  0.2572 -0.3785  0.4290
 5808TIP3    H138983   5.612   3.481   3.191 -1.5674 -3.3719 -0.5965
 5808TIP3    H238984   5.605   3.513   3.043  1.2811  2.0419  0.1714
 5809TIP3   OH238985   0.171   4.868   0.504  0.0862 -0.2960 -0.6369
 5809TIP3    H138986   0.227   4.912   0.440  1.1481 -0.4113  0.1870
 5809TIP3    H238987   0.083   4.879   0.470  0.3041  2.3798 -0.5467
 5810TIP3   OH238988   4.564   2.478   2.496 -0.0607  0.4648  0.2580
 5810TIP3    H138989   4.510   2.440   2.426  2.3317 -1.5834 -0.6430
 5810TIP3    H238990   4.517   2.457   2.576 -1.2402 -0.0983 -0.5432
 5811TIP3   OH238991   0.995   4.111   2.549  1.0486 -0.0733 -0.2275
 5811TIP3    H138992   0.922   4.157   2.590  0.5188  1.2024 -2.4589
 5811TIP3    H238993   1.071   4.133   2.604  0.0146 -0.3775  1.3882
 5812TIP3   OH238994   1.702   2.671   0.015 -0.6024 -0.5510  0.1013
 5812TIP3    H138995   1.709   2.759  -0.022 -0.9409 -0.6585 -0.2125
 5812TIP3    H238996   1.633   2.678   0.081 -0.9062 -0.6772 -0.2017
 5813TIP3   OH238997   2.426   5.344   3.278 -0.3607  0.2382 -0.1622
 5813TIP3    H138998   2.427   5.391   3.195 -2.1182  0.9205  0.1409
 5813TIP3    H238999   2.448   5.410   3.343  1.0982 -0.3132 -0.0590
 5814TIP3   OH239000   0.524   0.318   1.217  0.1117  0.2301  0.2628
 5814TIP3    H139001   0.542   0.274   1.300 -0.4254  0.6824  0.6316
 5814TIP3    H239002   0.544   0.410   1.234 -0.7694  0.4591  0.1487
 5815TIP3   OH239003   2.804   1.976   0.708 -0.1719  0.4706  0.5635
 5815TIP3    H139004   2.719   1.933   0.716  0.0129  0.0443  0.2893
 5815TIP3    H239005   2.795   2.030   0.629 -0.0129 -0.0071  0.2084
 5816TIP3   OH239006   5.182   5.688   1.266 -0.2356  0.0005  0.3396
 5816TIP3    H139007   5.249   5.633   1.226 -1.1199 -0.8993  0.0576
 5816TIP3    H239008   5.154   5.641   1.344 -1.3104 -0.1959 -0.1365
 5817TIP3   OH239009   4.970   4.141   8.186 -0.1178 -0.6628  0.2179
 5817TIP3    H139010   4.898   4.198   8.159  1.8610  1.1331 -1.5946
 5817TIP3    H239011   4.927   4.061   8.218 -2.9602  1.1661  1.3748
 5818TIP3   OH239012   4.667   6.939   2.327  0.6664 -0.0431 -0.0697
 5818TIP3    H139013   4.634   6.850   2.315  0.8135 -0.4803  2.2550
 5818TIP3    H239014   4.679   6.973   2.238  2.0596 -2.8674 -1.0831
 5819TIP3   OH239015   1.006   1.675   2.268  0.3239 -0.0153 -0.0061
 5819TIP3    H139016   0.929   1.655   2.215 -0.4457  1.7776  0.3569
 5819TIP3    H239017   1.033   1.590   2.304 -0.8502 -0.8309 -0.9651
 5820TIP3   OH239018   2.975   5.760   3.507 -0.1640  0.3946 -0.1219
 5820TIP3    H139019   3.059   5.805   3.515 -0.9733  2.0153 -0.1721
 5820TIP3    H239020   2.993   5.684   3.452  1.1363  1.0819 -0.6829
 5821TIP3   OH239021   1.590   1.612   2.537 -0.8189 -0.2085  0.2625
 5821TIP3    H139022   1.570   1.705   2.523  0.8981 -0.2044 -3.1948
 5821TIP3    H239023   1.664   1.613   2.598 -0.7208  0.6787  0.1436
 5822TIP3   OH239024   2.461   2.305   8.486 -0.3792 -0.0737 -0.0636
 5822TIP3    H139025   2.470   2.392   8.447  4.4037 -0.1621  0.2608
 5822TIP3    H239026   2.516   2.249   8.432 -0.6939 -2.1809  1.6878
 5823TIP3   OH239027   3.785   3.834   0.347 -0.4523  0.0693  0.5928
 5823TIP3    H139028   3.714   3.897   0.357 -1.0484 -0.7057  1.4805
 5823TIP3    H239029   3.827   3.832   0.433  0.8184  0.6962  0.0109
 5824TIP3   OH239030   3.959   3.359   0.591  0.1737  0.3882  0.0159
 5824TIP3    H139031   4.004   3.429   0.638 -0.8201  0.4522  0.8896
 5824TIP3    H239032   3.916   3.404   0.518  0.0968  0.5779  0.1775
 5825TIP3   OH239033   1.578   1.171   1.769  0.0973 -0.3114 -0.4193
 5825TIP3    H139034   1.594   1.217   1.851 -0.9109 -2.3132  0.9857
 5825TIP3    H239035   1.539   1.237   1.711  1.7358  1.3933  0.2953
 5826TIP3   OH239036   4.629   0.175   1.740  0.4320  0.3372  0.0349
 5826TIP3    H139037   4.676   0.156   1.659  0.6490 -0.5610  0.3606
 5826TIP3    H239038   4.536   0.171   1.716  0.4795 -0.8564  0.0215
 5827TIP3   OH239039   6.821   5.958   3.053 -0.4163 -0.0683  0.3155
 5827TIP3    H139040   6.836   5.897   2.981  0.3928  0.9624 -0.4182
 5827TIP3    H239041   6.825   5.904   3.132  3.3346 -0.6210 -0.0582
 5828TIP3   OH239042   2.729   6.652   2.026 -0.1719  0.7299 -0.6990
 5828TIP3    H139043   2.670   6.617   1.959 -1.7593  1.0192  0.4894
 5828TIP3    H239044   2.791   6.580   2.043 -1.3476 -0.3060 -0.6388
 5829TIP3   OH239045   3.400   5.939   0.270 -0.0159  0.1790 -0.7610
 5829TIP3    H139046   3.408   5.971   0.180  1.2179 -0.2590 -0.8168
 5829TIP3    H239047   3.490   5.924   0.299 -0.4381 -0.4967  0.2630
 5830TIP3   OH239048   3.181   6.609   0.680 -0.2462 -0.4981  0.4846
 5830TIP3    H139049   3.164   6.701   0.660 -2.1703 -0.6832  1.0399
 5830TIP3    H239050   3.156   6.562   0.600 -0.6892 -0.6414  0.7036
 5831TIP3   OH239051   0.253   0.683   2.814 -0.2858 -0.0229 -0.5998
 5831TIP3    H139052   0.259   0.744   2.740  0.5023  0.2232 -0.3393
 5831TIP3    H239053   0.249   0.739   2.891  1.6148 -0.2736 -0.2712
 5832TIP3   OH239054   4.154   2.172   2.162 -0.2686  0.5890  0.1204
 5832TIP3    H139055   4.099   2.113   2.111 -0.4557  1.1795 -0.3852
 5832TIP3    H239056   4.199   2.116   2.225  1.9302 -0.6398 -2.3132
 5833TIP3   OH239057   6.733   5.205   7.686 -0.5239 -0.0878  0.2600
 5833TIP3    H139058   6.776   5.120   7.679 -1.5849 -0.7653  1.5613
 5833TIP3    H239059   6.645   5.191   7.652 -0.3861  0.7705 -0.4866
 5834TIP3   OH239060   6.833   2.804   0.379 -0.2917  0.2695 -0.5857
 5834TIP3    H139061   6.890   2.735   0.412  0.3131  1.3286  0.6617
 5834TIP3    H239062   6.809   2.855   0.456 -0.1348  1.8781 -1.5479
 5835TIP3   OH239063   1.773   2.981   1.133 -0.5064  0.4159 -0.3570
 5835TIP3    H139064   1.696   2.965   1.078  0.5285 -0.1898 -1.6711
 5835TIP3    H239065   1.800   3.070   1.112 -2.7448  2.0053  2.5942
 5836TIP3   OH239066   5.261   1.981   0.592 -0.3905 -0.4627 -0.2939
 5836TIP3    H139067   5.277   1.922   0.665 -0.4955  0.2482  0.3243
 5836TIP3    H239068   5.317   1.949   0.521  2.3550  0.7800  1.1383
 5837TIP3   OH239069   0.582   3.721   3.240  1.0071 -0.3320  0.1842
 5837TIP3    H139070   0.610   3.671   3.316  1.0581 -0.0740  0.3348
 5837TIP3    H239071   0.663   3.742   3.194  0.9200 -1.2021 -0.3935
 5838TIP3   OH239072   6.681   2.674   1.290  0.4035  0.5741  0.4962
 5838TIP3    H139073   6.688   2.595   1.343  2.2046 -0.6587 -1.3819
 5838TIP3    H239074   6.759   2.725   1.312  1.1295  0.0828 -0.8300
 5839TIP3   OH239075   6.022   4.448   3.600 -0.2936  0.5411 -0.0301
 5839TIP3    H139076   5.962   4.481   3.667  0.4060  1.2484  0.2673
 5839TIP3    H239077   6.102   4.500   3.612  0.2777 -0.1850 -0.6041
 5840TIP3   OH239078   5.163   3.956   7.774 -0.2722  0.3470  0.1197
 5840TIP3    H139079   5.201   3.999   7.697 -0.4436  0.4381  0.0851
 5840TIP3    H239080   5.076   3.995   7.782 -0.1182  0.5977  0.5754
 5841TIP3   OH239081   5.486   2.551   3.115  0.1061 -0.5206 -0.0907
 5841TIP3    H139082   5.450   2.637   3.092  2.3522  0.1446 -1.3876
 5841TIP3    H239083   5.419   2.489   3.088 -1.0728  0.7642 -0.2154
 5842TIP3   OH239084   4.874   6.353   8.254  0.5276 -0.1081  0.6893
 5842TIP3    H139085   4.847   6.292   8.186 -0.3876  1.9799 -0.9408
 5842TIP3    H239086   4.922   6.422   8.207  0.6056  0.9735  2.2709
 5843TIP3   OH239087   5.100   6.310   0.252  0.5539  0.3233 -0.4162
 5843TIP3    H139088   5.087   6.318   0.158 -2.5827  0.6836 -0.0477
 5843TIP3    H239089   5.109   6.401   0.283  1.9170  0.1920 -0.3576
 5844TIP3   OH239090   5.707   2.923   0.353  0.0811 -0.0690  0.2488
 5844TIP3    H139091   5.629   2.957   0.396  0.6581  0.6432  0.7602
 5844TIP3    H239092   5.704   2.959   0.265 -1.1355 -1.5751 -0.3679
 5845TIP3   OH239093   0.502   0.692   0.739  0.3283 -0.3303 -0.1283
 5845TIP3    H139094   0.422   0.745   0.736  0.2202 -0.4715  0.1963
 5845TIP3    H239095   0.573   0.756   0.739  0.2137 -0.2028 -0.3861
 5846TIP3   OH239096   0.425   1.493   7.006 -0.1946 -0.0180  0.7293
 5846TIP3    H139097   0.437   1.586   6.987 -1.1158 -0.2317 -1.1033
 5846TIP3    H239098   0.502   1.469   7.058  0.9841  1.3614 -0.3068
 5847TIP3   OH239099   6.515   6.555   7.782  0.4958 -0.5923  0.2013
 5847TIP3    H139100   6.493   6.618   7.713  2.2774  0.2589  0.3443
 5847TIP3    H239101   6.517   6.470   7.738 -0.4753 -0.3613 -0.3190
 5848TIP3   OH239102   0.708   5.100   0.456  0.8906 -0.6320 -0.0056
 5848TIP3    H139103   0.729   5.176   0.401 -0.1897 -0.1763  0.1844
 5848TIP3    H239104   0.777   5.036   0.436  0.9623 -0.1782 -1.3008
 5849TIP3   OH239105   6.186   6.425   0.818  0.0521 -0.3036  0.3729
 5849TIP3    H139106   6.252   6.388   0.760 -0.3565 -1.6958  0.7636
 5849TIP3    H239107   6.132   6.351   0.844  0.9799  0.0314  3.5944
 5850TIP3   OH239108   2.133   4.260   2.919 -0.2663 -0.1534  0.2061
 5850TIP3    H139109   2.094   4.233   2.836  0.5336  1.1215 -0.6242
 5850TIP3    H239110   2.143   4.179   2.969 -1.1216 -0.8851 -0.7795
 5851TIP3   OH239111   0.336   1.062   2.794  0.0912 -0.0100  0.0871
 5851TIP3    H139112   0.393   0.989   2.769  0.2509 -0.3440  1.3434
 5851TIP3    H239113   0.393   1.138   2.796  0.2988 -0.1714  0.4313
 5852TIP3   OH239114   2.584   4.699   0.347  0.2318  0.2308  0.2212
 5852TIP3    H139115   2.509   4.654   0.387 -0.4133  1.5425  0.5615
 5852TIP3    H239116   2.564   4.700   0.253  0.4114 -0.4586  0.1708
 5853TIP3   OH239117   6.533   0.759   2.196  0.0479 -0.1501 -0.0913
 5853TIP3    H139118   6.498   0.846   2.179  0.8853  0.0936 -0.6503
 5853TIP3    H239119   6.523   0.713   2.112  2.6986  0.5261 -0.8971
 5854TIP3   OH239120   6.615   2.883   2.600 -0.1253  0.5514  0.7834
 5854TIP3    H139121   6.556   2.841   2.663 -0.7523 -0.1525 -0.2351
 5854TIP3    H239122   6.603   2.976   2.614 -0.8560  0.4066  1.1544
 5855TIP3   OH239123   1.090   5.526   2.709  0.2420  0.1785 -0.4608
 5855TIP3    H139124   1.027   5.589   2.743 -0.8914 -1.7869  1.3391
 5855TIP3    H239125   1.123   5.480   2.787 -0.0287 -2.3545 -1.7326
 5856TIP3   OH239126   2.329   1.657   2.235  0.4362  0.1025 -0.0052
 5856TIP3    H139127   2.304   1.700   2.316 -0.4132  0.2518 -0.3339
 5856TIP3    H239128   2.392   1.717   2.195 -0.0351  0.6042 -0.0138
 5857TIP3   OH239129   5.094   2.126   2.480  0.1831  0.0465 -0.0349
 5857TIP3    H139130   5.188   2.143   2.488 -0.0302  2.7061 -1.9045
 5857TIP3    H239131   5.089   2.036   2.449  2.2826  0.3979 -1.6515
 5858TIP3   OH239132   4.874   0.837   3.187 -0.0007  0.6030  0.4046
 5858TIP3    H139133   4.935   0.771   3.156  1.8800  2.6437 -0.5301
 5858TIP3    H239134   4.846   0.807   3.274  1.5691 -0.8678  0.4324
 5859TIP3   OH239135   4.887   1.098   3.751  0.1595  0.3244  0.0837
 5859TIP3    H139136   4.947   1.057   3.814  0.2702 -0.2503 -0.3917
 5859TIP3    H239137   4.876   1.187   3.784  0.7923  0.2516  0.5203
 5860TIP3   OH239138   0.827   0.665   3.428 -0.1692  0.1497  0.6844
 5860TIP3    H139139   0.906   0.672   3.376 -0.8818 -0.5280 -0.5217
 5860TIP3    H239140   0.827   0.575   3.460  0.8472  0.8513  2.8866
 5861TIP3   OH239141   5.497   3.381   2.519 -0.2269  0.0828  0.1322
 5861TIP3    H139142   5.578   3.431   2.530 -1.1197  1.8074 -0.7327
 5861TIP3    H239143   5.428   3.440   2.548 -1.3903 -0.3474 -1.5859
 5862TIP3   OH239144   5.358   0.955   2.392  0.0298  0.5250 -0.0774
 5862TIP3    H139145   5.359   0.885   2.326 -0.9158  1.9149 -1.6673
 5862TIP3    H239146   5.399   0.917   2.469  1.4739 -1.1059 -1.5739
 5863TIP3   OH239147   3.733   3.654   2.091 -0.5101  0.4033  0.1353
 5863TIP3    H139148   3.775   3.696   2.016 -0.2162  0.8738  0.5586
 5863TIP3    H239149   3.663   3.714   2.117  0.4054  1.0525  1.2303
 5864TIP3   OH239150   3.410   3.761   8.175  0.3355  0.3859  0.7130
 5864TIP3    H139151   3.341   3.805   8.125  0.6829  1.1833  0.9189
 5864TIP3    H239152   3.479   3.827   8.183  1.7290 -0.8385 -0.7115
 5865TIP3   OH239153   4.429   3.530   1.457  0.3094 -0.2783  0.5699
 5865TIP3    H139154   4.359   3.524   1.392  1.1679  0.5722 -0.4498
 5865TIP3    H239155   4.383   3.546   1.539 -0.7927 -1.4357  0.2181
 5866TIP3   OH239156   5.844   4.815   0.353  0.3436  0.3766 -0.6323
 5866TIP3    H139157   5.823   4.788   0.263  0.3217  1.4272 -0.9511
 5866TIP3    H239158   5.938   4.836   0.351  0.5943 -0.6040 -0.1387
 5867TIP3   OH239159   1.311   0.388   1.360  0.2876 -0.2521 -0.4195
 5867TIP3    H139160   1.274   0.329   1.294 -2.6353  1.3441 -0.3855
 5867TIP3    H239161   1.239   0.402   1.422  1.2361  2.3656  0.2176
 5868TIP3   OH239162   0.771   4.818   3.562 -0.1060  0.3364  0.4787
 5868TIP3    H139163   0.677   4.835   3.560 -0.2278 -0.0619  1.6717
 5868TIP3    H239164   0.810   4.890   3.513 -0.9406  1.2611  1.1247
 5869TIP3   OH239165   3.088   1.718   1.390 -0.0669 -0.5185 -0.0717
 5869TIP3    H139166   3.162   1.729   1.330  0.9041 -2.0883  0.7591
 5869TIP3    H239167   3.011   1.735   1.336  0.8329 -0.1178 -1.2940
 5870TIP3   OH239168   6.080   0.026   2.766  0.0247 -0.1922 -0.1787
 5870TIP3    H139169   6.105   0.080   2.691 -0.8802 -2.5984 -2.3864
 5870TIP3    H239170   5.991  -0.004   2.745  0.0848 -1.6814  1.4370
 5871TIP3   OH239171   3.426   5.312   0.466 -0.3909  0.3742 -0.7340
 5871TIP3    H139172   3.454   5.345   0.380 -1.5250  0.0969 -1.2325
 5871TIP3    H239173   3.463   5.374   0.528  1.2872  0.0308 -1.3354
 5872TIP3   OH239174   3.613   2.962   7.671 -0.1359  0.1013  0.3081
 5872TIP3    H139175   3.663   2.977   7.591 -0.3717  0.7851  0.2783
 5872TIP3    H239176   3.548   3.032   7.672 -1.8009 -1.3850 -0.1863
 5873TIP3   OH239177   4.137   5.417   1.640  0.7421 -0.1364 -0.3751
 5873TIP3    H139178   4.118   5.478   1.569 -2.4971  0.3974  0.7722
 5873TIP3    H239179   4.065   5.354   1.637  1.0518 -0.6636  1.7825
 5874TIP3   OH239180   2.544   2.595   1.057  0.2870 -0.3275 -0.6473
 5874TIP3    H139181   2.519   2.679   1.096  0.6623  0.1561 -1.4327
 5874TIP3    H239182   2.475   2.535   1.085 -0.7259  0.5450 -1.1878
 5875TIP3   OH239183   6.374   4.422   2.361  0.7749 -0.3984 -0.2435
 5875TIP3    H139184   6.312   4.493   2.374 -0.4190 -1.6140  1.0111
 5875TIP3    H239185   6.325   4.356   2.313  1.4308 -0.9529 -0.1662
 5876TIP3   OH239186   1.333   2.437   8.455  0.4529  0.2418 -0.3593
 5876TIP3    H139187   1.426   2.426   8.435  0.0936 -0.5993 -1.6931
 5876TIP3    H239188   1.330   2.444   8.550  1.8994  0.5186 -0.3086
 5877TIP3   OH239189   6.667   6.775   0.835  0.5203 -0.0054 -0.3629
 5877TIP3    H139190   6.747   6.781   0.783 -0.5783 -0.0441 -2.1386
 5877TIP3    H239191   6.628   6.691   0.810 -0.1849  0.0963  0.3348
 5878TIP3   OH239192   6.055   2.801   3.513  0.0165  0.1064  0.1244
 5878TIP3    H139193   6.144   2.808   3.547 -0.6814  0.2521  2.0769
 5878TIP3    H239194   6.024   2.716   3.544  0.2697 -1.0828 -2.6717
 5879TIP3   OH239195   0.242   5.464   2.260  0.1766  0.2927 -0.4667
 5879TIP3    H139196   0.159   5.504   2.234  0.9439  0.3237 -3.2228
 5879TIP3    H239197   0.290   5.535   2.303 -1.2987  0.1580  1.5740
 5880TIP3   OH239198   5.790   4.182   2.048 -0.0329 -0.3656 -0.1738
 5880TIP3    H139199   5.844   4.250   2.008  0.7998 -1.4188 -0.8896
 5880TIP3    H239200   5.840   4.154   2.125  0.0434 -0.7527 -0.3605
 5881TIP3   OH239201   5.026   6.270   0.916 -0.0708 -0.2371 -0.1041
 5881TIP3    H139202   4.935   6.290   0.936  0.1731 -0.3649  1.2706
 5881TIP3    H239203   5.042   6.307   0.830 -1.0313  1.0223  0.2492
 5882TIP3   OH239204   4.864   3.852   0.059  0.1419  0.5379 -0.1537
 5882TIP3    H139205   4.843   3.890   0.144 -0.9420 -0.0884 -0.1290
 5882TIP3    H239206   4.784   3.863   0.007  0.5978  0.3863 -0.8988
 5883TIP3   OH239207   2.820   2.680   1.441 -0.5879  0.4357  0.1233
 5883TIP3    H139208   2.859   2.642   1.362  0.2044  0.6999  0.3863
 5883TIP3    H239209   2.824   2.610   1.506 -0.0341  0.6472  0.3171
 5884TIP3   OH239210   0.605   5.634   8.157  0.6605  0.1449 -0.1036
 5884TIP3    H139211   0.621   5.557   8.211  0.8069 -0.4498 -0.9907
 5884TIP3    H239212   0.665   5.625   8.083  1.4801  1.6659  0.3290
 5885TIP3   OH239213   3.840   5.665   2.277  0.4088 -0.4027  0.2544
 5885TIP3    H139214   3.771   5.732   2.273  0.7524 -0.0984 -2.1748
 5885TIP3    H239215   3.878   5.675   2.364  0.2135  2.3393  0.1159
 5886TIP3   OH239216   6.581   1.926   8.239 -0.3085  0.0059  0.8171
 5886TIP3    H139217   6.564   1.938   8.333 -0.5715  0.7013  0.6864
 5886TIP3    H239218   6.570   1.831   8.225 -2.8914  0.1807  1.0166
 5887TIP3   OH239219   1.964   4.167   0.815  0.4667 -0.3082  0.0961
 5887TIP3    H139220   1.953   4.255   0.852 -1.6686 -0.2862 -0.4252
 5887TIP3    H239221   1.989   4.113   0.890  3.5486  0.9696  0.1150
 5888TIP3   OH239222   2.583   2.099   7.693 -0.6897 -0.2911  0.5247
 5888TIP3    H139223   2.573   2.007   7.718  0.5329 -1.0836 -1.6907
 5888TIP3    H239224   2.640   2.098   7.616  0.6985  2.4485  1.3661
 5889TIP3   OH239225   3.324   5.525   2.320 -0.2874 -0.3496  0.2270
 5889TIP3    H139226   3.257   5.456   2.319 -1.4369  0.7104 -1.1893
 5889TIP3    H239227   3.288   5.591   2.380  0.5903 -0.7473  1.2189
 5890TIP3   OH239228   3.115   3.082   8.072 -0.0078 -0.8149 -0.5222
 5890TIP3    H139229   3.180   3.103   8.006  0.3012 -0.9884 -0.2750
 5890TIP3    H239230   3.147   3.002   8.113  0.6387  0.1513  0.9351
 5891TIP3   OH239231   3.232   1.717   3.556  0.3762  0.0421  0.1686
 5891TIP3    H139232   3.162   1.758   3.505  1.3884 -0.0533 -1.3872
 5891TIP3    H239233   3.208   1.624   3.559 -0.1048  0.1777  0.5709
 5892TIP3   OH239234   0.597   1.691   8.182 -0.5549 -0.0537  0.5981
 5892TIP3    H139235   0.675   1.726   8.140 -1.3723 -0.8211 -1.7180
 5892TIP3    H239236   0.526   1.749   8.153 -1.0495 -0.0331  1.7525
 5893TIP3   OH239237   3.859   6.089   2.135  0.1401 -0.2594  0.2578
 5893TIP3    H139238   3.866   6.142   2.215  2.8766  1.3775 -0.8994
 5893TIP3    H239239   3.949   6.064   2.115 -0.4790 -0.8050 -2.1954
 5894TIP3   OH239240   3.435   2.926   1.327 -0.0726  0.0491 -0.1549
 5894TIP3    H139241   3.428   2.880   1.243 -0.1277 -1.2075  0.5183
 5894TIP3    H239242   3.464   3.014   1.303 -0.4925 -0.1514 -1.5256
 5895TIP3   OH239243   2.333   1.059   8.452  0.2926  0.1321  0.0871
 5895TIP3    H139244   2.361   0.979   8.408 -0.4093 -0.6177  0.9400
 5895TIP3    H239245   2.253   1.085   8.406  0.6017  0.4254 -0.2833
 5896TIP3   OH239246   4.627   6.187   1.893  0.3177 -0.3055 -0.0869
 5896TIP3    H139247   4.673   6.183   1.809  1.5948  1.7703  0.4544
 5896TIP3    H239248   4.582   6.271   1.892  1.2553  0.2593  1.7326
 5897TIP3   OH239249   6.862   0.277   2.100 -0.1096 -0.6423 -0.2452
 5897TIP3    H139250   6.957   0.283   2.103 -0.1738  1.2141 -0.4613
 5897TIP3    H239251   6.839   0.298   2.010 -0.8517  3.4908  0.6963
 5898TIP3   OH239252   6.482   6.014   1.452 -0.1586 -0.3115 -0.2751
 5898TIP3    H139253   6.453   6.055   1.371  2.1477  0.9017 -0.5847
 5898TIP3    H239254   6.538   6.080   1.494  1.4493 -2.0983  0.6040
 5899TIP3   OH239255   3.933   3.092   7.640  0.1609 -0.0197  0.0570
 5899TIP3    H139256   3.862   3.060   7.585  1.9535 -0.1395 -2.3899
 5899TIP3    H239257   3.939   3.186   7.620  0.0639  0.2018  1.0131
 5900TIP3   OH239258   5.127   2.285   0.425  0.3465  0.2265  0.1319
 5900TIP3    H139259   5.121   2.267   0.331  1.3852  1.7170 -0.2575
 5900TIP3    H239260   5.181   2.364   0.431 -0.3214  0.5941  1.9496
 5901TIP3   OH239261   0.310   4.981   1.167  0.3545 -0.8175 -0.0042
 5901TIP3    H139262   0.272   5.058   1.125  1.9396  0.2602  0.4435
 5901TIP3    H239263   0.317   4.916   1.097  0.8733  0.1635 -0.8863
 5902TIP3   OH239264   2.888   0.018   0.608  0.2400 -0.3150 -0.4855
 5902TIP3    H139265   2.892   0.069   0.527 -0.0607  0.9270  0.2546
 5902TIP3    H239266   2.977  -0.016   0.619  1.1733  2.1067  0.2429
 5903TIP3   OH239267   2.372   6.616   8.149  0.0076 -0.4683 -0.4578
 5903TIP3    H139268   2.340   6.697   8.189  0.2978 -1.1865  1.3629
 5903TIP3    H239269   2.366   6.631   8.055 -1.2487  1.1476 -0.1694
 5904TIP3   OH239270   1.776   2.364   8.248  0.7960 -0.0654  0.0157
 5904TIP3    H139271   1.809   2.388   8.161 -1.4664  0.2464 -0.8363
 5904TIP3    H239272   1.796   2.271   8.256 -0.4760 -0.5318 -1.6378
 5905TIP3   OH239273   5.897   1.635   8.484  0.1164  0.5494  0.4118
 5905TIP3    H139274   5.807   1.628   8.453  0.0228  0.2323  0.7487
 5905TIP3    H239275   5.894   1.608   8.576  0.7570 -0.6852  0.0917
 5906TIP3   OH239276   5.607   4.297   3.705 -0.0898  0.0159  0.0913
 5906TIP3    H139277   5.581   4.389   3.712  1.0371  0.3883 -0.2801
 5906TIP3    H239278   5.591   4.275   3.613 -1.5043 -0.5550  0.4395
 5907TIP3   OH239279   0.776   3.770   3.051 -0.0162  0.6910  0.4088
 5907TIP3    H139280   0.870   3.773   3.031  0.0565  1.6042  0.8534
 5907TIP3    H239281   0.736   3.829   2.987 -0.3336  0.0925  0.0411
 5908TIP3   OH239282   5.190   5.645   0.943  0.8058 -0.1255 -0.0738
 5908TIP3    H139283   5.229   5.698   0.872  1.1680 -0.8838 -0.4479
 5908TIP3    H239284   5.139   5.708   0.994 -0.2663  0.2885 -1.5718
 5909TIP3   OH239285   6.741   0.025   3.238 -0.4290 -0.3182 -0.3842
 5909TIP3    H139286   6.646   0.030   3.230 -0.6761  0.2065  2.2429
 5909TIP3    H239287   6.773   0.087   3.172 -1.9891  1.1961  0.2066
 5910TIP3   OH239288   1.006   2.530   7.634  0.4147  0.3484 -0.2550
 5910TIP3    H139289   1.080   2.589   7.621  1.7221 -1.3778 -0.9314
 5910TIP3    H239290   0.940   2.561   7.572  0.8748  1.3746 -0.2564
 5911TIP3   OH239291   1.928   1.784   0.579 -0.8131 -0.7327  0.0317
 5911TIP3    H139292   1.997   1.718   0.572  0.4948  0.1593  2.8483
 5911TIP3    H239293   1.860   1.753   0.519  1.4948 -2.2669 -2.0553
 5912TIP3   OH239294   5.841   6.029   3.641  0.1598 -0.3432 -0.4103
 5912TIP3    H139295   5.853   6.121   3.665  0.1228 -0.6265  0.7725
 5912TIP3    H239296   5.747   6.019   3.628  0.2208 -0.0992 -1.0994
 5913TIP3   OH239297   4.733   2.052   2.906 -0.3714 -0.2786  0.0850
 5913TIP3    H139298   4.803   2.058   2.972 -0.3902  0.3598  0.0573
 5913TIP3    H239299   4.673   1.987   2.942 -0.4997  0.2287  0.8238
 5914TIP3   OH239300   3.709   2.165   8.323  0.1163  0.1819 -0.1282
 5914TIP3    H139301   3.757   2.245   8.347 -1.1169  0.5048  1.4462
 5914TIP3    H239302   3.765   2.093   8.353 -0.4746  0.5611  2.0749
 5915TIP3   OH239303   6.866   5.287   3.226 -0.0053 -0.0207 -0.1546
 5915TIP3    H139304   6.907   5.314   3.144  0.1589 -2.0605 -0.7931
 5915TIP3    H239305   6.938   5.283   3.289 -0.0990  1.3443  0.0758
 5916TIP3   OH239306   2.488   1.942   8.274  0.1907 -0.5032  0.2839
 5916TIP3    H139307   2.545   1.945   8.198 -1.3146 -0.5087 -0.9004
 5916TIP3    H239308   2.530   1.880   8.334  1.3046 -0.6357 -0.6135
 5917TIP3   OH239309   6.911   1.634   1.404  1.1945 -0.0090  0.2093
 5917TIP3    H139310   6.966   1.562   1.374  1.3772  0.1508  0.1576
 5917TIP3    H239311   6.821   1.604   1.389  1.2635 -0.3473  0.4718
 5918TIP3   OH239312   0.169   2.610   0.248  0.2788  0.0888 -0.3179
 5918TIP3    H139313   0.213   2.693   0.268  0.9058 -0.6243  1.4651
 5918TIP3    H239314   0.113   2.594   0.324 -1.6573 -0.0024 -1.6789
 5919TIP3   OH239315   6.059   3.522   8.407 -0.1550 -0.3199 -0.1663
 5919TIP3    H139316   6.108   3.464   8.349 -1.5966  0.5640 -2.3689
 5919TIP3    H239317   6.080   3.490   8.495  0.6209 -2.9252 -1.2029
 5920TIP3   OH239318   2.967   3.153   2.854 -0.0370  0.4094  0.1925
 5920TIP3    H139319   2.873   3.171   2.860 -0.3442 -0.5968 -1.1521
 5920TIP3    H239320   2.973   3.058   2.850  0.8451  0.5016 -1.8907
 5921TIP3   OH239321   0.309   5.006   0.043 -0.1322  0.4670 -0.0976
 5921TIP3    H139322   0.351   4.920   0.048 -1.4858 -0.2587 -0.7683
 5921TIP3    H239323   0.304   5.026  -0.050  1.0129  1.7412  0.0700
 5922TIP3   OH239324   4.242   1.893   7.591 -0.4156  0.3772  0.1523
 5922TIP3    H139325   4.222   1.973   7.543  0.2947 -0.0691 -0.9310
 5922TIP3    H239326   4.163   1.840   7.583 -1.1099  1.1922  1.3848
 5923TIP3   OH239327   4.758   2.434   0.843  0.5640 -0.0372 -0.0434
 5923TIP3    H139328   4.744   2.501   0.911 -1.4641  0.9409 -1.3427
 5923TIP3    H239329   4.815   2.369   0.885  1.1908  1.6342  1.8376
 5924TIP3   OH239330   6.874   0.579   0.730 -0.3830  0.4578  0.1446
 5924TIP3    H139331   6.912   0.491   0.732 -1.4834 -0.0669 -0.4667
 5924TIP3    H239332   6.941   0.636   0.767  0.3023 -0.6614  0.6666
 5925TIP3   OH239333   2.354   1.947   2.147 -0.0300  0.2811  0.2905
 5925TIP3    H139334   2.275   1.997   2.125  0.5233  1.1420  0.1847
 5925TIP3    H239335   2.362   1.958   2.242 -0.6172 -0.7032  0.4655
 5926TIP3   OH239336   3.863   0.691   2.597 -0.7291  0.4318 -0.0854
 5926TIP3    H139337   3.907   0.606   2.592 -1.5127 -0.0938  1.2175
 5926TIP3    H239338   3.895   0.740   2.521 -0.0013 -0.8998 -0.6692
 5927TIP3   OH239339   5.274   2.203   0.763 -0.2555  0.0697  0.1757
 5927TIP3    H139340   5.255   2.207   0.669 -2.2718  1.0101  0.5567
 5927TIP3    H239341   5.287   2.110   0.781 -4.0588 -0.7287 -0.3772
 5928TIP3   OH239342   6.001   6.339   0.096 -0.3188 -0.2130 -0.4233
 5928TIP3    H139343   6.089   6.321   0.129 -0.6774  1.3322  1.5829
 5928TIP3    H239344   6.006   6.429   0.064 -1.2826  0.0746  0.2132
 5929TIP3   OH239345   5.408   4.003   2.257 -0.0233 -0.2634 -0.3829
 5929TIP3    H139346   5.405   4.080   2.313  3.7333 -0.8248  0.9097
 5929TIP3    H239347   5.381   3.931   2.314  1.2347 -0.4735 -0.0069
 5930TIP3   OH239348   4.486   2.306   0.867  0.1292 -0.7534  0.4814
 5930TIP3    H139349   4.547   2.341   0.803  0.7641  0.4445  1.6749
 5930TIP3    H239350   4.399   2.327   0.832  0.4746  2.0242  1.0627
 5931TIP3   OH239351   1.680   5.947   7.981 -0.3996  0.4942 -0.0904
 5931TIP3    H139352   1.712   6.036   7.995  0.1994  0.1754  0.5540
 5931TIP3    H239353   1.606   5.959   7.921 -1.4668  1.6224  1.3606
 5932TIP3   OH239354   6.413   3.811   3.419  0.9681 -0.3971  0.3791
 5932TIP3    H139355   6.423   3.854   3.503 -0.4812 -0.8016  0.7714
 5932TIP3    H239356   6.502   3.808   3.383  1.1037  3.4787  0.0107
 5933TIP3   OH239357   4.692   1.341   0.907  0.5887 -0.7817  0.3268
 5933TIP3    H139358   4.629   1.324   0.838  0.6272  1.9544 -0.5073
 5933TIP3    H239359   4.759   1.275   0.896 -0.1990 -1.3615 -1.2535
 5934TIP3   OH239360   5.857   3.538   2.053  0.4665 -0.2519 -0.1653
 5934TIP3    H139361   5.855   3.620   2.004  1.0697 -0.2306 -0.1672
 5934TIP3    H239362   5.845   3.469   1.987 -0.5493 -0.1490 -0.0974
 5935TIP3   OH239363   1.809   0.968   0.169  0.0876  0.4785  0.1757
 5935TIP3    H139364   1.865   0.892   0.182 -0.2060  0.4477  1.3872
 5935TIP3    H239365   1.720   0.935   0.181 -0.2330  0.5198 -1.7644
 5936TIP3   OH239366   2.166   3.342   8.228 -0.2666 -0.2808  0.4953
 5936TIP3    H139367   2.193   3.251   8.242 -1.5149 -0.8235 -0.4602
 5936TIP3    H239368   2.071   3.339   8.232 -0.3387  0.8798 -0.1814
 5937TIP3   OH239369   1.664   1.874   8.146  0.1277  0.5855 -0.0559
 5937TIP3    H139370   1.646   1.966   8.166  2.4005  0.9675  0.5968
 5937TIP3    H239371   1.669   1.831   8.231 -2.7045 -0.6344 -0.3792
 5938TIP3   OH239372   4.244   6.006   1.679  0.2478 -0.6378  0.0404
 5938TIP3    H139373   4.324   6.049   1.649 -0.4652 -0.7453 -2.1848
 5938TIP3    H239374   4.234   6.034   1.770  2.9661 -0.9006  0.5011
 5939TIP3   OH239375   4.835   3.282   3.479  0.2196 -0.2891  0.7442
 5939TIP3    H139376   4.880   3.290   3.563  0.7226 -0.5317  0.5038
 5939TIP3    H239377   4.742   3.275   3.501  0.2816  0.3980  1.2412
 5940TIP3   OH239378   2.299   1.885   2.452  0.0493 -0.0163  0.3328
 5940TIP3    H139379   2.317   1.965   2.501 -1.8437  0.5031  0.2327
 5940TIP3    H239380   2.209   1.894   2.422  0.3248 -1.4662 -1.0803
 5941TIP3   OH239381   2.802   5.716   0.546 -0.0914 -0.3956 -0.0529
 5941TIP3    H139382   2.873   5.758   0.595 -0.1099 -1.7202  1.1696
 5941TIP3    H239383   2.737   5.785   0.534  0.3806  0.2352  0.8703
 5942TIP3   OH239384   5.813   0.440   0.368  0.1605 -0.3487 -0.0568
 5942TIP3    H139385   5.892   0.426   0.420  0.8012  0.4841 -0.7709
 5942TIP3    H239386   5.807   0.364   0.312  0.7736 -0.1653 -0.3823
 5943TIP3   OH239387   0.775   1.117   7.953 -0.1354 -0.0566 -0.1870
 5943TIP3    H139388   0.857   1.141   7.995 -0.1605 -0.4355  0.0785
 5943TIP3    H239389   0.801   1.070   7.874 -0.0756  1.1785 -0.9422
 5944TIP3   OH239390   2.807   0.094   2.108  0.4806  0.0359 -0.1726
 5944TIP3    H139391   2.713   0.097   2.129  0.5431  1.0137 -0.0126
 5944TIP3    H239392   2.840   0.180   2.133  1.5226 -0.4598  0.2045
 5945TIP3   OH239393   3.910   1.478   0.052  0.0663 -0.0513  0.3392
 5945TIP3    H139394   3.864   1.405   0.010  0.1967  0.5695 -0.9419
 5945TIP3    H239395   3.921   1.450   0.143 -3.5761  0.0940  0.9921
 5946TIP3   OH239396   3.966   1.551   1.985  0.3786  0.0070 -0.0910
 5946TIP3    H139397   3.897   1.495   1.950  1.4385 -1.8271  0.5813
 5946TIP3    H239398   4.032   1.490   2.018  1.5583  1.6713  0.8138
 5947TIP3   OH239399   1.661   6.294   0.689 -0.1761  0.1124 -0.3622
 5947TIP3    H139400   1.613   6.215   0.713 -0.7559  0.7936  0.8305
 5947TIP3    H239401   1.738   6.295   0.747  0.6652 -0.3560 -1.4400
 5948TIP3   OH239402   5.949   3.856   7.782 -0.2103  0.0079 -0.3519
 5948TIP3    H139403   5.979   3.768   7.804  0.0393  0.4095  0.9769
 5948TIP3    H239404   5.859   3.859   7.814  0.2209  0.6684  0.8376
 5949TIP3   OH239405   5.158   4.430   0.221  0.5079 -0.4045 -0.2550
 5949TIP3    H139406   5.182   4.464   0.135  0.6729  0.0683 -0.0257
 5949TIP3    H239407   5.063   4.426   0.220  0.3266  2.1975  0.4955
 5950TIP3   OH239408   6.118   3.979   8.392 -0.3986 -0.0505 -0.1675
 5950TIP3    H139409   6.193   3.939   8.437 -1.2794 -2.0749 -0.3747
 5950TIP3    H239410   6.071   4.026   8.461 -0.0890 -0.5655  0.4034
 5951TIP3   OH239411   4.971   3.071   4.006  0.3928  0.1459  0.2493
 5951TIP3    H139412   5.050   3.031   3.970  0.1362  0.9327 -1.3030
 5951TIP3    H239413   5.002   3.147   4.055  0.6107  0.7493 -0.7804
 5952TIP3   OH239414   1.150   2.369   8.088 -0.1076 -0.1268  0.1855
 5952TIP3    H139415   1.229   2.331   8.050  0.7956  0.7724  1.1017
 5952TIP3    H239416   1.091   2.380   8.014  0.4262 -1.2771 -0.4398
 5953TIP3   OH239417   6.807   3.169   0.068  0.0950 -0.6660 -0.4382
 5953TIP3    H139418   6.885   3.114   0.077  0.1319 -0.4574  0.5748
 5953TIP3    H239419   6.741   3.110   0.032  0.1439 -1.3865  0.6027
 5954TIP3   OH239420   6.482   6.537   0.883 -0.3273  0.5127 -0.4968
 5954TIP3    H139421   6.477   6.462   0.824 -2.0448  0.3133 -0.1403
 5954TIP3    H239422   6.429   6.605   0.841 -0.3184  0.8826  0.0696
 5955TIP3   OH239423   3.903   2.982   8.347 -0.6365  0.2005  0.0580
 5955TIP3    H139424   3.931   3.063   8.389  2.0060 -0.6540  0.0934
 5955TIP3    H239425   3.836   2.946   8.406  2.7249 -0.8477  3.6247
 5956TIP3   OH239426   2.835   0.769   3.366 -0.9447  0.2657 -0.2631
 5956TIP3    H139427   2.793   0.706   3.424  0.4297 -0.1988  0.2562
 5956TIP3    H239428   2.929   0.754   3.377 -0.5813  2.2059 -0.3384
 5957TIP3   OH239429   0.071   5.533   8.489 -0.0871  0.3419 -0.0037
 5957TIP3    H139430   0.063   5.490   8.574 -0.0823  0.6025  0.1294
 5957TIP3    H239431   0.102   5.464   8.430 -2.3966 -0.5041 -0.3503
 5958TIP3   OH239432   0.080   6.500   0.380 -0.2305 -0.1462 -0.9875
 5958TIP3    H139433   0.099   6.418   0.334 -0.7732 -0.0635 -1.3820
 5958TIP3    H239434   0.031   6.473   0.458  0.9755 -0.3127 -0.2743
 5959TIP3   OH239435   5.026   5.586   2.187  0.1256  0.4855 -0.0247
 5959TIP3    H139436   4.943   5.540   2.199 -0.1770  1.1337  0.4121
 5959TIP3    H239437   5.007   5.677   2.210  0.7186  0.8382 -0.8511
 5960TIP3   OH239438   5.662   5.096   2.109  0.0861  0.1125 -0.3187
 5960TIP3    H139439   5.711   5.040   2.170 -0.4809 -0.3383 -0.2717
 5960TIP3    H239440   5.729   5.134   2.052  0.6682  0.8312  0.8107
 5961TIP3   OH239441   5.386   0.339   1.438 -0.1048  0.1862 -0.8605
 5961TIP3    H139442   5.373   0.425   1.397  0.0337  0.3465 -0.5735
 5961TIP3    H239443   5.352   0.350   1.527  1.7635  0.5425 -0.1567
 5962TIP3   OH239444   2.893   5.279   0.488 -0.2182 -0.0632 -0.0499
 5962TIP3    H139445   2.890   5.184   0.500 -0.7520 -0.0100  0.2793
 5962TIP3    H239446   2.986   5.299   0.479 -0.2188 -0.9236 -2.6403
 5963TIP3   OH239447   0.623   3.975   1.825  0.6615 -0.2392 -0.4149
 5963TIP3    H139448   0.603   4.012   1.911 -1.8339 -1.4026 -0.4215
 5963TIP3    H239449   0.676   4.043   1.783  0.1292  1.3043  1.2337
 5964TIP3   OH239450   3.059   1.445   0.049 -0.1044  0.5332 -0.2743
 5964TIP3    H139451   3.089   1.524   0.094  0.0911  0.6407 -0.5890
 5964TIP3    H239452   3.037   1.475  -0.040 -0.1901  0.2667 -0.3446
 5965TIP3   OH239453   5.331   3.442   3.331 -0.3899  0.7726  0.9008
 5965TIP3    H139454   5.306   3.451   3.423 -0.2015  1.9307  0.8555
 5965TIP3    H239455   5.427   3.441   3.332 -0.3911 -0.0083  0.7742
 5966TIP3   OH239456   5.925   1.249   2.447  0.2065 -0.0213  0.1662
 5966TIP3    H139457   5.957   1.209   2.366 -0.2284 -1.2777  0.5871
 5966TIP3    H239458   5.839   1.209   2.460  0.0750  0.5224  1.0028
 5967TIP3   OH239459   5.087   5.268   1.900  0.0871 -0.6554  0.0287
 5967TIP3    H139460   5.134   5.345   1.867  0.7357 -1.5439 -1.1978
 5967TIP3    H239461   5.151   5.223   1.956 -0.2123 -0.4475  0.5477
 5968TIP3   OH239462   0.301   3.468   8.336  0.2881  0.0357  0.2566
 5968TIP3    H139463   0.348   3.528   8.278 -1.1857  0.5740 -0.4155
 5968TIP3    H239464   0.220   3.449   8.290  0.5984 -2.3040  0.5668
 5969TIP3   OH239465   5.257   3.288   0.606 -1.1344  0.0663  0.5096
 5969TIP3    H139466   5.287   3.201   0.633 -1.1711 -0.0266  0.2502
 5969TIP3    H239467   5.189   3.271   0.541  0.0102  0.3112 -0.7842
 5970TIP3   OH239468   6.530   3.288   3.048 -0.0856  0.2478 -0.1468
 5970TIP3    H139469   6.459   3.352   3.056 -0.4812 -0.3077  0.8503
 5970TIP3    H239470   6.548   3.260   3.137  1.4605  0.4322 -0.3679
 5971TIP3   OH239471   4.346   6.199   2.722 -0.0552 -0.1688  0.5462
 5971TIP3    H139472   4.284   6.130   2.747  1.9918 -1.9832  0.8839
 5971TIP3    H239473   4.431   6.167   2.753  1.2831  1.5394 -1.1592
 5972TIP3   OH239474   1.208   1.260   3.536  1.0466 -0.3399  0.0108
 5972TIP3    H139475   1.268   1.187   3.545  1.8888  0.2156 -0.8782
 5972TIP3    H239476   1.149   1.235   3.464  1.3359 -0.1515 -0.2946
 5973TIP3   OH239477   6.216   2.160   1.420 -0.3537  0.3560  0.2984
 5973TIP3    H139478   6.148   2.100   1.450  0.7984 -1.1164  0.0539
 5973TIP3    H239479   6.192   2.244   1.461 -0.9855 -0.6720  2.1992
 5974TIP3   OH239480   0.788   1.329   2.034  0.4064  0.1443  0.3168
 5974TIP3    H139481   0.784   1.423   2.053 -0.0399  0.0661  0.6245
 5974TIP3    H239482   0.849   1.294   2.100 -0.7601 -0.0470  1.3446
 5975TIP3   OH239483   1.636   4.465   2.534 -0.5150 -0.7382  0.2355
 5975TIP3    H139484   1.615   4.497   2.621 -0.5039  1.3587 -0.4780
 5975TIP3    H239485   1.557   4.421   2.504 -0.7266 -0.9205  1.0433
 5976TIP3   OH239486   5.878   5.917   0.306  0.5554 -0.1654 -0.7515
 5976TIP3    H139487   5.917   5.965   0.233  0.3731  0.2121 -0.6039
 5976TIP3    H239488   5.917   5.829   0.301  1.7361  0.3125 -0.3711
 5977TIP3   OH239489   5.042   0.910   2.125 -0.1784  0.2555 -0.4868
 5977TIP3    H139490   4.981   0.838   2.110  1.0727 -1.3077  1.3077
 5977TIP3    H239491   5.030   0.933   2.217  2.4116 -0.7223  0.2047
 5978TIP3   OH239492   1.080   2.999   2.271  0.0931 -0.3259 -0.3617
 5978TIP3    H139493   1.006   3.013   2.330 -0.5955 -1.1558 -1.0059
 5978TIP3    H239494   1.115   3.087   2.256  1.6230 -0.2229  2.8953
 5979TIP3   OH239495   2.931   0.615   0.617  0.0833 -0.4456  0.3157
 5979TIP3    H139496   2.924   0.552   0.689 -1.1517  0.1178  0.7088
 5979TIP3    H239497   3.024   0.618   0.597  0.2091 -2.2158  0.4417
 5980TIP3   OH239498   6.305   0.554   1.467  0.0623  0.0142 -0.3629
 5980TIP3    H139499   6.325   0.509   1.385  1.0955 -0.4241  0.1136
 5980TIP3    H239500   6.210   0.549   1.475 -0.3438  2.0239 -2.6370
 5981TIP3   OH239501   4.149   4.969   7.788  0.2666 -0.2305 -0.3289
 5981TIP3    H139502   4.132   4.960   7.695 -1.3009  0.3617 -0.1311
 5981TIP3    H239503   4.243   4.955   7.797  0.7538  1.4361 -2.2042
 5982TIP3   OH239504   0.314   2.511   0.533  0.6476  0.0582 -0.2858
 5982TIP3    H139505   0.224   2.544   0.543  0.9507  0.6379  0.7195
 5982TIP3    H239506   0.303   2.424   0.496 -0.4860 -0.7638  1.7509
 5983TIP3   OH239507   3.457   6.815   8.206 -0.6013  0.0945  0.2972
 5983TIP3    H139508   3.490   6.840   8.120  0.5766  2.0308  1.2323
 5983TIP3    H239509   3.408   6.735   8.191  0.1753 -0.0103 -2.0467
 5984TIP3   OH239510   3.827   1.019   0.969  0.3882 -0.6344  0.1430
 5984TIP3    H139511   3.866   1.058   1.048 -1.5869 -0.9600  1.3655
 5984TIP3    H239512   3.896   0.965   0.932  1.2870 -0.7164  1.8403
 5985TIP3   OH239513   4.825   4.358   2.222 -0.3692 -0.4477  0.1604
 5985TIP3    H139514   4.904   4.409   2.200 -0.0179 -0.9100  0.3528
 5985TIP3    H239515   4.818   4.294   2.151  0.8340 -2.0265  1.4161
 5986TIP3   OH239516   6.159   3.985   0.798  0.0163 -0.2604  0.2044
 5986TIP3    H139517   6.126   4.058   0.850  0.4372 -0.4583  0.7626
 5986TIP3    H239518   6.083   3.953   0.750 -0.1098  0.7259 -0.2733
 5987TIP3   OH239519   0.505   5.018   2.432 -0.4318 -0.3105 -0.1876
 5987TIP3    H139520   0.432   5.078   2.449 -0.8104 -0.4011 -1.4235
 5987TIP3    H239521   0.464   4.933   2.416  0.1334 -1.1164  2.1973
 5988TIP3   OH239522   1.483   0.127   0.053 -0.0083  0.0937 -0.2102
 5988TIP3    H139523   1.487   0.200   0.114  0.1077 -0.5634  0.5820
 5988TIP3    H239524   1.496   0.049   0.107  2.7084 -0.3975 -1.3510
 5989TIP3   OH239525   0.559   6.528   0.707  0.3790 -0.1789 -0.4489
 5989TIP3    H139526   0.532   6.437   0.702  0.9593 -0.5261  1.7354
 5989TIP3    H239527   0.538   6.564   0.621 -0.4835 -2.1808 -1.1340
 5990TIP3   OH239528   4.864   0.162   2.420  0.7410  0.2688  0.4899
 5990TIP3    H139529   4.913   0.137   2.499 -0.8947 -0.1044  1.4358
 5990TIP3    H239530   4.815   0.084   2.396  1.1108  0.4233 -0.8413
 5991TIP3   OH239531   0.620   0.150   1.420  0.8194  0.2051 -0.5320
 5991TIP3    H139532   0.622   0.088   1.493  0.1152  1.7050  0.8166
 5991TIP3    H239533   0.698   0.205   1.434  0.7737  0.3969 -1.0155
 5992TIP3   OH239534   0.174   0.653   3.236 -0.0320  0.3717  0.0428
 5992TIP3    H139535   0.226   0.582   3.273  0.0300  0.2710 -0.2352
 5992TIP3    H239536   0.159   0.712   3.310 -0.8542 -0.3767  0.4868
 5993TIP3   OH239537   4.871   0.404   1.537  0.1693 -0.3429  0.1577
 5993TIP3    H139538   4.846   0.397   1.630 -0.0453  0.4482  0.1726
 5993TIP3    H239539   4.823   0.333   1.494 -1.7497  0.7938  0.2761
 5994TIP3   OH239540   3.377   0.146   1.087 -0.1511  0.1437  0.4528
 5994TIP3    H139541   3.291   0.188   1.086 -0.8355 -1.1990 -0.3805
 5994TIP3    H239542   3.439   0.219   1.078 -1.1744  1.1538  1.2712
 5995TIP3   OH239543   2.809   5.661   1.045 -0.3216  0.3313 -0.0048
 5995TIP3    H139544   2.724   5.667   1.088  0.1674  0.7557  0.9160
 5995TIP3    H239545   2.788   5.649   0.952 -1.3820  0.2973  0.2318
 5996TIP3   OH239546   1.847   4.543   1.874  0.2814 -0.0579  0.0752
 5996TIP3    H139547   1.933   4.551   1.832 -0.4210  1.4385 -1.2167
 5996TIP3    H239548   1.857   4.588   1.958  1.4518 -2.2654  1.1909
 5997TIP3   OH239549   1.939   6.025   0.499  0.2229  0.2431  0.1287
 5997TIP3    H139550   1.881   5.958   0.534  1.5418 -1.0601 -0.0437
 5997TIP3    H239551   1.882   6.098   0.478 -1.4274 -1.1735 -0.5674
 5998TIP3   OH239552   2.488   0.749   2.933 -0.2691  0.2968 -0.0347
 5998TIP3    H139553   2.416   0.748   2.996 -0.7431 -0.1274 -0.5719
 5998TIP3    H239554   2.544   0.677   2.961  0.0296  0.7147  0.4674
 5999TIP3   OH239555   1.677   0.467   7.691  0.2727 -0.1049  0.1272
 5999TIP3    H139556   1.683   0.383   7.646  0.2382 -0.8413  1.4352
 5999TIP3    H239557   1.588   0.498   7.674  0.0382 -0.7038  0.2439
 6000TIP3   OH239558   5.341   0.770   3.841 -0.0102  1.1668 -0.5233
 6000TIP3    H139559   5.407   0.739   3.779 -0.1820  1.7447 -1.0133
 6000TIP3    H239560   5.312   0.692   3.887  0.2629  0.7547 -1.0403
 6001TIP3   OH239561   3.034   3.035   0.981  0.0324 -0.4803  0.1801
 6001TIP3    H139562   2.983   3.100   0.934 -1.0696 -1.5210 -0.1081
 6001TIP3    H239563   3.087   2.993   0.914  1.1309  0.4376  0.4433
 6002TIP3   OH239564   4.741   4.773   0.581 -0.1767  0.3167 -0.3881
 6002TIP3    H139565   4.786   4.689   0.579  0.3057  0.5284  0.7900
 6002TIP3    H239566   4.811   4.838   0.568 -0.5913  0.5394 -1.6535
 6003TIP3   OH239567   2.868   2.457   1.614 -0.2390 -0.0964 -0.3651
 6003TIP3    H139568   2.796   2.425   1.668  0.6742  0.1906  1.0884
 6003TIP3    H239569   2.884   2.387   1.551 -0.9498 -0.7214  0.1327
 6004TIP3   OH239570   1.902   0.945   1.196 -0.4717 -0.6327  0.1094
 6004TIP3    H139571   1.942   0.860   1.180 -1.6730 -1.5525  1.7832
 6004TIP3    H239572   1.834   0.929   1.261 -0.8331  1.5843  0.3741
 6005TIP3   OH239573   2.208   2.597   7.617  0.2321 -0.3447  0.1752
 6005TIP3    H139574   2.201   2.562   7.528  1.6957  0.4705 -0.3004
 6005TIP3    H239575   2.262   2.676   7.608 -4.2337  3.2478  0.8506
 6006TIP3   OH239576   6.443   3.778   2.536 -0.5431 -0.0292 -0.2884
 6006TIP3    H139577   6.506   3.850   2.536  0.4734 -0.8826  0.8504
 6006TIP3    H239578   6.411   3.774   2.627 -1.0261 -0.6489 -0.4742
 6007TIP3   OH239579   4.474   2.897   1.743 -0.0615  0.2517  0.3722
 6007TIP3    H139580   4.469   2.908   1.838  2.0648  0.3964  0.5067
 6007TIP3    H239581   4.549   2.950   1.716 -0.4086 -0.0741 -1.3510
 6008TIP3   OH239582   0.619   2.200   1.585 -0.2683  0.2316  0.0618
 6008TIP3    H139583   0.695   2.250   1.616 -0.5780 -0.2939  1.7939
 6008TIP3    H239584   0.552   2.267   1.567  0.0411  0.5849  0.2197
 6009TIP3   OH239585   2.385   6.659   0.506  0.0830 -0.2928  0.1465
 6009TIP3    H139586   2.453   6.624   0.448  2.3438  2.0772  1.1686
 6009TIP3    H239587   2.428   6.729   0.554 -2.2777 -0.7073  3.1723
 6010TIP3   OH239588   1.283   4.989   8.270  0.6845  0.0352 -0.3054
 6010TIP3    H139589   1.230   5.036   8.206  1.8758  0.0249 -1.3349
 6010TIP3    H239590   1.230   4.913   8.293 -0.0123  0.3485 -0.8287
 6011TIP3   OH239591   2.057   3.912   2.524 -0.2605 -0.2145  0.6546
 6011TIP3    H139592   2.017   3.884   2.441 -0.4595 -0.5477  0.8596
 6011TIP3    H239593   2.103   3.834   2.555  0.6388  0.1964  0.3688
 6012TIP3   OH239594   6.292   1.392   3.269 -0.0926  0.0154  0.1117
 6012TIP3    H139595   6.199   1.372   3.281 -0.1048 -0.1439 -0.2297
 6012TIP3    H239596   6.302   1.405   3.175  0.1220  0.6127  0.2122
 6013TIP3   OH239597   6.741   4.490   1.170 -0.6332 -0.6959 -0.2222
 6013TIP3    H139598   6.831   4.461   1.181 -0.3165  0.0842 -0.7158
 6013TIP3    H239599   6.690   4.408   1.165 -0.1348 -1.1351  1.3298
 6014TIP3   OH239600   0.224   5.924   2.515 -0.3381  0.0525 -0.6128
 6014TIP3    H139601   0.163   5.943   2.443  1.0010 -0.3645 -1.9097
 6014TIP3    H239602   0.237   6.008   2.558 -0.6801  0.4426 -1.2482
 6015TIP3   OH239603   2.652   6.327   2.041  0.1457 -0.3929  0.1863
 6015TIP3    H139604   2.640   6.252   2.099 -0.5841 -0.3757  0.0561
 6015TIP3    H239605   2.745   6.349   2.051  0.3248 -1.1842  0.3756
 6016TIP3   OH239606   6.820   4.859   1.824 -0.1138  0.1465  0.1283
 6016TIP3    H139607   6.760   4.854   1.898 -1.1729 -0.1189 -0.7187
 6016TIP3    H239608   6.842   4.768   1.804 -0.5674  0.1513 -0.4402
 6017TIP3   OH239609   2.528   6.687   2.594  0.3528 -0.1516 -0.6996
 6017TIP3    H139610   2.458   6.724   2.539  0.0266 -1.0069 -0.8725
 6017TIP3    H239611   2.557   6.609   2.546 -1.4058 -2.1901  1.3351
 6018TIP3   OH239612   1.305   2.497   0.262 -0.0644  0.0354  0.3786
 6018TIP3    H139613   1.341   2.447   0.335 -0.7923 -1.0535  0.0248
 6018TIP3    H239614   1.214   2.515   0.288  0.2972  1.5307  0.6617
 6019TIP3   OH239615   2.756   0.773   0.774  0.3599 -0.5896  0.6670
 6019TIP3    H139616   2.837   0.729   0.751  0.5467  0.3443 -0.5412
 6019TIP3    H239617   2.699   0.702   0.805  1.5712 -1.2692  1.4251
 6020TIP3   OH239618   6.356   1.943   1.323  0.0597  0.6328  0.3741
 6020TIP3    H139619   6.373   1.937   1.229  0.2820  0.9811  0.3916
 6020TIP3    H239620   6.310   2.026   1.334 -0.2724  0.4314  0.5320
 6021TIP3   OH239621   0.374   5.516   7.732  0.4638  0.2353 -0.4318
 6021TIP3    H139622   0.328   5.555   7.657 -0.5324  1.3165  0.7058
 6021TIP3    H239623   0.320   5.440   7.755  0.4906  0.1936 -0.5070
 6022TIP3   OH239624   3.507   5.016   2.559 -0.5621 -0.1495  0.3117
 6022TIP3    H139625   3.513   4.990   2.651 -2.0255 -0.4255  0.3581
 6022TIP3    H239626   3.460   5.099   2.560  0.2900  0.3524 -0.1355
 6023TIP3   OH239627   0.849   2.581   1.009 -0.3182  0.4514  0.4817
 6023TIP3    H139628   0.833   2.625   0.925  0.5497 -1.3634 -0.7236
 6023TIP3    H239629   0.826   2.489   0.992  0.5162 -0.0799  2.0413
 6024TIP3   OH239630   0.824   3.098   7.501 -0.4072 -0.0998 -0.1107
 6024TIP3    H139631   0.904   3.137   7.464 -1.2382  0.8557 -0.9923
 6024TIP3    H239632   0.821   3.010   7.464  0.5469 -0.3733  0.4271
 6025TIP3   OH239633   6.492   1.455   0.411 -0.6757 -0.0619  0.8645
 6025TIP3    H139634   6.511   1.369   0.448  1.8038 -0.5950 -1.2967
 6025TIP3    H239635   6.500   1.516   0.484  0.1594 -1.4209  1.9524
 6026TIP3   OH239636   2.025   6.302   2.912  0.0968 -0.4298  0.2201
 6026TIP3    H139637   2.075   6.232   2.870 -0.4577  0.5107 -2.1702
 6026TIP3    H239638   1.934   6.276   2.902 -0.0609  0.0222  0.4380
 6027TIP3   OH239639   1.484   0.292   0.273  0.0411 -0.5895 -0.4547
 6027TIP3    H139640   1.524   0.254   0.351  0.0082  0.3494  0.0393
 6027TIP3    H239641   1.399   0.324   0.303  0.2515  0.2621 -0.7302
 6028TIP3   OH239642   5.917   1.723   3.772 -0.3283  0.2222 -0.2724
 6028TIP3    H139643   6.003   1.688   3.796 -0.6554  0.9345  2.2366
 6028TIP3    H239644   5.864   1.645   3.756  1.0297 -0.2370 -3.2682
 6029TIP3   OH239645   5.254   6.145   2.677 -0.4676  0.0389  0.0408
 6029TIP3    H139646   5.276   6.070   2.733  0.0126  0.6090  0.6217
 6029TIP3    H239647   5.196   6.108   2.611  1.6723 -1.4085 -1.1801
 6030TIP3   OH239648   1.548   6.020   1.821  0.5252 -0.3232 -0.5356
 6030TIP3    H139649   1.494   6.036   1.898  0.4876 -0.9499 -0.4280
 6030TIP3    H239650   1.507   6.072   1.752 -0.2582 -0.8291 -0.4684
 6031TIP3   OH239651   6.550   1.974   7.616 -0.4996 -0.4737  0.0336
 6031TIP3    H139652   6.643   1.968   7.596 -0.7734 -1.0596 -1.1589
 6031TIP3    H239653   6.535   2.066   7.635  0.7931 -0.7593  2.8319
 6032TIP3   OH239654   5.074   6.764   2.395 -0.0451 -0.1669  0.2051
 6032TIP3    H139655   5.162   6.797   2.376 -0.7350 -0.0254 -3.5318
 6032TIP3    H239656   5.087   6.674   2.423  1.2707 -0.0801 -0.0894
 6033TIP3   OH239657   2.878   2.066   0.047 -0.5530  0.0947  0.1842
 6033TIP3    H139658   2.883   2.067   0.143 -1.3403 -0.1167  0.2308
 6033TIP3    H239659   2.807   2.127   0.026  1.0028  1.8328 -0.3753
 6034TIP3   OH239660   0.479   2.424   8.101 -0.1629 -0.0921 -0.6008
 6034TIP3    H139661   0.561   2.420   8.052  0.8469 -3.1715  1.1213
 6034TIP3    H239662   0.414   2.452   8.036  1.5576 -1.3708 -3.0320
 6035TIP3   OH239663   5.941   3.879   1.253  0.3081  0.2910 -0.3966
 6035TIP3    H139664   5.862   3.918   1.217  0.4146  0.3565 -0.5622
 6035TIP3    H239665   5.986   3.841   1.177  0.3371  0.0810 -0.2763
 6036TIP3   OH239666   4.670   2.467   7.901  0.9981  0.0292 -0.0799
 6036TIP3    H139667   4.605   2.534   7.877 -0.4485 -0.6748  1.6696
 6036TIP3    H239668   4.734   2.470   7.830 -0.7005  1.0738 -1.6651
 6037TIP3   OH239669   1.643   3.818   1.763 -0.6925 -0.4672 -0.2883
 6037TIP3    H139670   1.600   3.903   1.755  1.8287  0.9847  0.4381
 6037TIP3    H239671   1.610   3.782   1.846 -1.6580 -0.1372 -0.5171
 6038TIP3   OH239672   5.406   1.725   0.073  0.8705 -0.0040  0.4120
 6038TIP3    H139673   5.329   1.673   0.095  0.1354  0.4005 -1.0842
 6038TIP3    H239674   5.394   1.807   0.122  0.3145  0.0703  0.1643
 6039TIP3   OH239675   3.233   3.885   1.592  0.3768  0.1904  0.7958
 6039TIP3    H139676   3.233   3.939   1.513 -0.1829  1.9488  1.9518
 6039TIP3    H239677   3.158   3.827   1.582  1.1807 -0.6739 -0.6139
 6040TIP3   OH239678   3.539   4.238   3.210  0.0414 -0.0444 -0.2290
 6040TIP3    H139679   3.596   4.196   3.275  1.4512  0.8209 -0.8725
 6040TIP3    H239680   3.527   4.172   3.142 -1.1014 -0.8084  0.6817
 6041TIP3   OH239681   4.554   2.246   1.112  0.2235  0.1816 -0.5999
 6041TIP3    H139682   4.462   2.238   1.133  0.1659  0.8716 -0.5642
 6041TIP3    H239683   4.556   2.257   1.017  0.3203 -0.5708 -0.6859
 6042TIP3   OH239684   0.544   6.746   0.124  0.2111 -0.4439  0.6928
 6042TIP3    H139685   0.639   6.751   0.128  0.3995  2.1779 -2.3600
 6042TIP3    H239686   0.526   6.660   0.085  1.4888 -0.2431 -0.4024
 6043TIP3   OH239687   3.648   6.256   1.293  0.4811 -0.4296  0.4217
 6043TIP3    H139688   3.652   6.262   1.388  0.0272  0.2978  0.4008
 6043TIP3    H239689   3.555   6.265   1.272  0.3265 -2.5024  0.0107
 6044TIP3   OH239690   1.040   0.749   0.759  0.1175 -0.2889  0.2323
 6044TIP3    H139691   1.052   0.661   0.796  0.5128  0.2664  1.4702
 6044TIP3    H239692   1.063   0.808   0.830 -1.2980  0.8305 -0.1901
 6045TIP3   OH239693   6.714   6.596   4.062  0.4150 -0.4896 -0.6017
 6045TIP3    H139694   6.777   6.621   4.130 -0.1274  1.8034 -0.8690
 6045TIP3    H239695   6.768   6.561   3.991  1.0953 -1.5697  0.4082
 6046TIP3   OH239696   5.585   3.336   2.138 -0.2536  0.0872  0.1015
 6046TIP3    H139697   5.625   3.294   2.062 -0.5501  1.1407 -0.6643
 6046TIP3    H239698   5.532   3.407   2.102 -0.2755  0.7196  1.3013
 6047TIP3   OH239699   2.983   3.569   0.373 -0.2910 -0.0382 -0.4199
 6047TIP3    H139700   2.979   3.630   0.446 -2.6626 -0.4377 -0.1516
 6047TIP3    H239701   3.065   3.592   0.328  0.3641  1.3509  1.3311
 6048TIP3   OH239702   0.239   5.804   1.476 -0.0087 -0.0469  0.4523
 6048TIP3    H139703   0.239   5.744   1.402  0.8434  1.0786 -0.5052
 6048TIP3    H239704   0.332   5.816   1.497 -0.1244  1.3305  0.2649
 6049TIP3   OH239705   5.617   2.809   1.146 -0.5796 -0.1472 -0.1369
 6049TIP3    H139706   5.697   2.758   1.164 -0.3023  0.5007  0.4972
 6049TIP3    H239707   5.548   2.743   1.139  0.2373 -0.8633 -2.2286
 6050TIP3   OH239708   6.362   4.967   0.082  0.1253  0.6675  0.0174
 6050TIP3    H139709   6.443   4.940   0.037  0.5184  0.9071  0.5744
 6050TIP3    H239710   6.337   4.891   0.134 -0.5560  0.2435 -0.9064
 6051TIP3   OH239711   1.649   5.053   2.754  0.5017 -0.3294 -0.2286
 6051TIP3    H139712   1.662   5.078   2.663  0.0343  0.5009 -0.0741
 6051TIP3    H239713   1.614   4.964   2.750 -0.4607  0.0622 -0.8986
 6052TIP3   OH239714   5.939   1.833   1.361 -0.2868 -0.4770 -0.1429
 6052TIP3    H139715   5.872   1.901   1.362 -0.1136 -0.2938 -0.6800
 6052TIP3    H239716   5.935   1.794   1.448  0.1915  0.7742  0.4595
 6053TIP3   OH239717   2.788   4.135   8.309 -0.0157  0.8560 -0.3155
 6053TIP3    H139718   2.877   4.163   8.330  1.1077 -1.9879 -0.8662
 6053TIP3    H239719   2.782   4.045   8.343 -2.8646  1.1088  0.1128
 6054TIP3   OH239720   1.656   4.202   7.443  0.0316  0.1764  0.3232
 6054TIP3    H139721   1.583   4.149   7.475 -0.3891 -1.5538 -2.9909
 6054TIP3    H239722   1.734   4.151   7.467  0.0971  1.0617  2.1712
 6055TIP3   OH239723   4.531   3.350   1.299  0.4895 -0.2073 -0.0656
 6055TIP3    H139724   4.508   3.416   1.366  0.7293 -1.0305  0.8528
 6055TIP3    H239725   4.619   3.375   1.271  1.0786 -0.7924  1.1564
 6056TIP3   OH239726   1.231   1.474   0.876  0.0590  0.5232 -0.2948
 6056TIP3    H139727   1.267   1.426   0.802  1.0053  0.7515 -0.0058
 6056TIP3    H239728   1.299   1.538   0.898 -1.1356  2.0031 -0.6577
 6057TIP3   OH239729   1.923   3.459   7.481 -0.2875 -0.5053  0.3085
 6057TIP3    H139730   1.975   3.388   7.444 -0.4168 -0.6440  0.3911
 6057TIP3    H239731   1.962   3.539   7.446 -0.6076 -0.6443 -0.3861
 6058TIP3   OH239732   5.039   2.712   1.838  0.4965 -0.2726 -0.1972
 6058TIP3    H139733   5.107   2.664   1.791  0.6348 -0.7127  0.4398
 6058TIP3    H239734   5.041   2.800   1.799 -0.3007 -0.9679 -1.9177
 6059TIP3   OH239735   5.977   5.378   1.829 -0.2222 -0.1441 -0.0534
 6059TIP3    H139736   5.973   5.407   1.738  0.8355 -1.0953 -0.4247
 6059TIP3    H239737   6.070   5.361   1.844 -0.5601 -1.3466  0.7739
 6060TIP3   OH239738   3.902   5.702   0.645  0.3862 -0.1216 -0.3648
 6060TIP3    H139739   3.927   5.737   0.560  0.8566 -1.3991 -0.7667
 6060TIP3    H239740   3.983   5.666   0.682  0.1845  0.3742  0.6159
 6061TIP3   OH239741   3.433   5.613   0.065  0.0961  0.7577  0.2069
 6061TIP3    H139742   3.399   5.644   0.149  0.6980 -0.9327  1.1237
 6061TIP3    H239743   3.366   5.637   0.002 -1.0994  0.7067  1.4123
 6062TIP3   OH239744   0.922   4.768   0.089 -0.3308  0.0684 -0.1351
 6062TIP3    H139745   0.852   4.815   0.044 -0.1241 -0.1562 -0.7147
 6062TIP3    H239746   0.905   4.675   0.070  0.1501  0.0163 -0.3363
 6063TIP3   OH239747   5.504   0.525   0.207 -0.0596 -0.0510 -0.1490
 6063TIP3    H139748   5.592   0.532   0.244 -0.5101  0.9216  0.8140
 6063TIP3    H239749   5.486   0.431   0.205  1.2304 -0.3019 -0.9639
 6064TIP3   OH239750   4.401   0.288   2.110 -0.1242 -0.3234 -0.0002
 6064TIP3    H139751   4.429   0.323   2.026  0.7198 -1.6652 -0.3023
 6064TIP3    H239752   4.363   0.363   2.156  0.5578  0.7056 -1.0684
 6065TIP3   OH239753   4.862   1.370   3.810 -0.3935  0.3838  0.2296
 6065TIP3    H139754   4.809   1.393   3.886 -1.1972  0.1519 -0.2462
 6065TIP3    H239755   4.849   1.443   3.749  0.8897  0.9655  0.6137
 6066TIP3   OH239756   0.993   1.287   3.333 -0.0453  0.1286  0.3238
 6066TIP3    H139757   0.925   1.345   3.300  1.6765  0.8168 -2.3683
 6066TIP3    H239758   0.946   1.210   3.364 -2.0606 -0.0011 -2.6282
 6067TIP3   OH239759   5.147   0.158   3.592  0.0908  0.2563  0.2655
 6067TIP3    H139760   5.149   0.178   3.499  3.6289  1.6809  0.4824
 6067TIP3    H239761   5.158   0.243   3.635  1.5256 -0.6445  1.8029
 6068TIP3   OH239762   0.854   3.759   8.355 -0.1833  0.6910 -0.2951
 6068TIP3    H139763   0.814   3.831   8.306  1.2581  0.2283 -2.2651
 6068TIP3    H239764   0.845   3.683   8.297  2.5612  0.3491 -0.3693
 6069TIP3   OH239765   2.384   3.226   0.604  0.5384 -0.2787 -0.2844
 6069TIP3    H139766   2.427   3.268   0.529  1.0348  0.3562  0.3452
 6069TIP3    H239767   2.420   3.271   0.680 -1.1519  0.1643  0.2777
 6070TIP3   OH239768   2.128   0.300   2.275 -0.7404  0.4218 -0.5683
 6070TIP3    H139769   2.054   0.260   2.230 -0.9424  0.6861 -0.4812
 6070TIP3    H239770   2.099   0.306   2.367  0.0611 -1.0369 -0.2077
 6071TIP3   OH239771   3.028   1.877   3.152 -0.2546  0.0939 -0.2429
 6071TIP3    H139772   3.053   1.785   3.157  0.6221  0.3471  0.4000
 6071TIP3    H239773   3.055   1.914   3.237  1.6612  1.4527 -1.3557
 6072TIP3   OH239774   6.931   5.215   0.639 -0.1888  0.5191  0.8138
 6072TIP3    H139775   6.873   5.288   0.615 -0.1785 -0.4055 -2.5268
 6072TIP3    H239776   6.871   5.142   0.654 -0.0205  0.1799 -0.1336
 6073TIP3   OH239777   1.569   0.542   3.106  0.0666  0.0587 -0.1651
 6073TIP3    H139778   1.492   0.566   3.157  0.6241  0.2796  0.5799
 6073TIP3    H239779   1.638   0.529   3.171  1.2061  1.8482 -0.9417
 6074TIP3   OH239780   6.759   6.006   3.656  0.1920  1.0047 -0.4900
 6074TIP3    H139781   6.712   6.087   3.639 -2.0607 -0.0476  0.3416
 6074TIP3    H239782   6.710   5.939   3.607  3.0931  0.3331 -2.7567
 6075TIP3   OH239783   1.268   5.753   2.154 -0.3592  0.1840  0.5820
 6075TIP3    H139784   1.230   5.836   2.185  1.4749  0.8022  1.2709
 6075TIP3    H239785   1.287   5.704   2.234  0.2729 -0.1155  0.2561
 6076TIP3   OH239786   4.022   2.615   0.955 -0.1284  0.0523 -0.7981
 6076TIP3    H139787   3.961   2.603   0.883 -0.2063 -1.4450 -0.5252
 6076TIP3    H239788   3.983   2.683   1.010 -1.3021 -0.5300 -0.8854
 6077TIP3   OH239789   5.069   4.511   1.692  0.6330 -0.3754 -0.0382
 6077TIP3    H139790   5.147   4.511   1.748  1.1703  2.8130 -0.5886
 6077TIP3    H239791   5.093   4.567   1.618 -2.1381  0.6816 -0.2553
 6078TIP3   OH239792   0.626   0.070   3.400 -0.8995  0.0582  0.1970
 6078TIP3    H139793   0.541   0.100   3.431 -0.9075 -0.2295  0.4629
 6078TIP3    H239794   0.672   0.150   3.373 -2.2398  0.0352 -2.5528
 6079TIP3   OH239795   5.502   5.517   3.110 -0.6401  0.0416 -0.0026
 6079TIP3    H139796   5.503   5.472   3.194  2.5733  0.3999  0.2802
 6079TIP3    H239797   5.540   5.603   3.128 -1.2537  0.6735 -1.5596
 6080TIP3   OH239798   3.365   0.809   3.018  0.1365 -0.1689  0.0770
 6080TIP3    H139799   3.406   0.767   2.942  0.6686 -0.0924  0.3175
 6080TIP3    H239800   3.438   0.831   3.076 -0.2833 -0.4677  0.7350
 6081TIP3   OH239801   1.326   6.275   1.176  0.0303  0.1304 -0.1359
 6081TIP3    H139802   1.266   6.258   1.102  1.3695  1.3587 -1.5736
 6081TIP3    H239803   1.359   6.363   1.160 -0.5500  0.9256  2.6490
 6082TIP3   OH239804   1.426   1.009   1.141 -0.3089 -0.2778 -0.4151
 6082TIP3    H139805   1.508   0.997   1.092 -0.0669  1.7160 -0.5687
 6082TIP3    H239806   1.403   1.101   1.128 -3.1224 -1.0099 -1.1641
 6083TIP3   OH239807   2.662   1.171   2.029 -0.1384 -0.3707  0.0808
 6083TIP3    H139808   2.637   1.247   2.083 -0.0750 -0.1192 -0.2394
 6083TIP3    H239809   2.590   1.161   1.967 -1.3602 -2.1085  1.6743
 6084TIP3   OH239810   1.514   2.667   0.213 -0.1082  0.5050  0.3142
 6084TIP3    H139811   1.537   2.714   0.294  1.3140 -0.4415  0.4951
 6084TIP3    H239812   1.460   2.594   0.243  1.6252 -0.6915  0.6156
 6085TIP3   OH239813   6.309   0.405   1.920 -0.1546  0.0828  0.3265
 6085TIP3    H139814   6.402   0.385   1.930 -0.0912  0.7563  1.2329
 6085TIP3    H239815   6.276   0.336   1.862  1.0487  0.2571 -0.5997
 6086TIP3   OH239816   4.627   6.917   0.839  0.0832  0.1742  0.1055
 6086TIP3    H139817   4.548   6.890   0.791  0.6442  0.9944 -1.3607
 6086TIP3    H239818   4.615   6.882   0.927 -1.8302  0.1099 -0.1378
 6087TIP3   OH239819   4.428   1.112   1.798 -0.3654  0.1655  0.3024
 6087TIP3    H139820   4.509   1.083   1.756 -1.2363  0.0117 -1.3507
 6087TIP3    H239821   4.394   1.180   1.740 -2.3287 -1.0258 -0.0249
 6088TIP3   OH239822   2.991   5.163   0.014  0.4848 -0.3524  0.3411
 6088TIP3    H139823   3.064   5.112  -0.020  2.7766  1.6627  1.9354
 6088TIP3    H239824   2.975   5.127   0.101  1.9164  1.3257  1.3536
 6089TIP3   OH239825   1.886   3.872   8.277 -0.6398  0.1854  0.1832
 6089TIP3    H139826   1.882   3.887   8.182 -0.2743  0.0082  0.1389
 6089TIP3    H239827   1.972   3.905   8.302  0.1881 -1.7898  0.0995
 6090TIP3   OH239828   1.331   5.251   0.808 -0.0014 -0.3037  0.5892
 6090TIP3    H139829   1.254   5.203   0.838  0.8016 -0.5882  2.3132
 6090TIP3    H239830   1.391   5.183   0.776  0.7900 -0.4257  2.2331
 6091TIP3   OH239831   0.975   2.728   8.002  0.0877 -0.0859 -0.6066
 6091TIP3    H139832   1.021   2.771   7.930 -0.9222  0.1055 -1.1501
 6091TIP3    H239833   0.974   2.793   8.072  1.6545 -0.5070 -0.1648
 6092TIP3   OH239834   3.284   0.011   1.912 -0.2993  0.0299  0.5398
 6092TIP3    H139835   3.261  -0.034   1.993  0.0637  0.1115  0.6896
 6092TIP3    H239836   3.202   0.015   1.862 -1.1358  2.1815  1.9507
 6093TIP3   OH239837   1.376   2.330   2.527 -0.0756  0.4266  0.3981
 6093TIP3    H139838   1.309   2.297   2.587  0.4284 -0.6680  0.3805
 6093TIP3    H239839   1.402   2.253   2.476  0.1557  1.1521 -0.6004
 6094TIP3   OH239840   5.241   3.897   0.292  0.1466 -0.1435 -0.1107
 6094TIP3    H139841   5.246   3.983   0.249  4.3746 -0.3058 -0.3236
 6094TIP3    H239842   5.191   3.913   0.372  0.6362  2.4694 -0.2395
 6095TIP3   OH239843   5.453   5.167   3.164 -0.1636  0.1970 -0.1419
 6095TIP3    H139844   5.521   5.234   3.163  1.0692 -0.9950 -2.0147
 6095TIP3    H239845   5.378   5.210   3.205  1.4626  1.7716  1.3755
 6096TIP3   OH239846   4.620   2.933   0.347 -0.3416  0.0934 -0.2659
 6096TIP3    H139847   4.552   2.868   0.329 -0.1942 -0.2906  0.4776
 6096TIP3    H239848   4.598   3.008   0.293 -0.3715 -0.6730 -1.3451
 6097TIP3   OH239849   4.757   3.622   2.793  0.2355 -0.1476 -0.4067
 6097TIP3    H139850   4.685   3.561   2.774 -1.0454  0.2054  2.6265
 6097TIP3    H239851   4.757   3.683   2.719 -2.5700 -0.2361 -0.5986
 6098TIP3   OH239852   0.976   4.419   2.380 -0.1183 -0.9307  0.6471
 6098TIP3    H139853   1.050   4.383   2.332 -0.6568 -0.7019 -0.3886
 6098TIP3    H239854   0.904   4.421   2.317 -0.4249  0.8675  0.9766
 6099TIP3   OH239855   5.470   3.266   8.336 -0.1234 -0.5377 -0.6155
 6099TIP3    H139856   5.470   3.261   8.432  2.9074 -1.1171 -0.5512
 6099TIP3    H239857   5.456   3.359   8.317 -1.5643 -0.5287  0.3130
 6100TIP3   OH239858   3.541   1.557   3.532  0.1449  0.6073 -0.0058
 6100TIP3    H139859   3.548   1.649   3.557  0.4397  0.5448  0.1443
 6100TIP3    H239860   3.632   1.528   3.522  0.0713  0.1625  0.5785
 6101TIP3   OH239861   1.834   2.727   0.326  0.9078 -0.3400  0.2206
 6101TIP3    H139862   1.897   2.781   0.277  1.7100 -0.3562  1.1889
 6101TIP3    H239863   1.822   2.775   0.408 -1.1401  0.1717 -0.3248
 6102TIP3   OH239864   1.922   6.932   2.537 -0.1778  0.1291  0.4048
 6102TIP3    H139865   1.944   6.930   2.444  1.4091  1.2975  0.6972
 6102TIP3    H239866   1.828   6.950   2.540  0.1070  2.1424 -0.9991
 6103TIP3   OH239867   2.632   4.984   0.390  0.3051  0.1785 -0.1015
 6103TIP3    H139868   2.645   4.901   0.344  1.5447  0.6517 -0.6654
 6103TIP3    H239869   2.595   5.042   0.325  1.1995  0.5868 -0.2662
 6104TIP3   OH239870   1.390   5.165   1.179 -0.4309 -0.7382  0.1000
 6104TIP3    H139871   1.482   5.176   1.156 -0.7707  0.9914 -0.6473
 6104TIP3    H239872   1.362   5.088   1.130  0.2673 -0.3913 -0.8757
 6105TIP3   OH239873   6.865   2.316   2.861  0.3323 -0.1918  0.3071
 6105TIP3    H139874   6.878   2.296   2.953  0.1153  4.6816  1.6961
 6105TIP3    H239875   6.775   2.287   2.843  0.1084 -0.5709  1.8657
 6106TIP3   OH239876   3.580   4.284   0.299  0.0635  0.5720 -0.1008
 6106TIP3    H139877   3.523   4.309   0.226  0.2277 -0.0248 -0.4456
 6106TIP3    H239878   3.651   4.348   0.297  0.1204  0.4977 -0.5317
 6107TIP3   OH239879   4.508   4.225   2.259 -0.0459 -0.0419  0.2875
 6107TIP3    H139880   4.455   4.239   2.337 -0.7888  0.6093 -0.3282
 6107TIP3    H239881   4.591   4.268   2.279 -0.0434 -0.3249  0.9172
 6108TIP3   OH239882   3.567   3.156   1.537  0.6356 -0.4621  0.6409
 6108TIP3    H139883   3.581   3.228   1.599 -2.2651 -0.5344  1.5130
 6108TIP3    H239884   3.507   3.193   1.471  1.5820 -1.1867 -0.6826
 6109TIP3   OH239885   5.136   5.589   0.268  0.0511  0.1102  0.0256
 6109TIP3    H139886   5.133   5.497   0.291 -0.6098  0.6805  2.4876
 6109TIP3    H239887   5.051   5.607   0.229 -0.1740 -0.1221  0.4056
 6110TIP3   OH239888   1.005   6.532   8.475  0.0325 -0.2759  0.4763
 6110TIP3    H139889   1.078   6.590   8.499  0.6255 -0.3671 -0.9753
 6110TIP3    H239890   1.048   6.452   8.444 -0.7056 -0.4800 -0.0322
 6111TIP3   OH239891   3.982   2.103   8.215 -0.5272 -0.3474 -0.0374
 6111TIP3    H139892   4.031   2.173   8.258  0.3454 -2.0113  1.8356
 6111TIP3    H239893   3.983   2.127   8.122  0.5892  1.5882  0.4183
 6112TIP3   OH239894   0.999   2.841   1.351  0.2259 -0.6642  0.2730
 6112TIP3    H139895   1.011   2.829   1.257  0.4811  1.6802 -0.0519
 6112TIP3    H239896   1.068   2.901   1.377 -0.0474 -0.9950  1.9212
 6113TIP3   OH239897   5.875   6.475   2.267 -0.4788 -0.4404  0.5164
 6113TIP3    H139898   5.846   6.503   2.354  1.1557 -1.5000  1.4568
 6113TIP3    H239899   5.826   6.395   2.250 -0.4970 -0.4529  0.6303
 6114TIP3   OH239900   5.996   6.601   4.252  0.3318 -0.2999  0.3849
 6114TIP3    H139901   5.939   6.527   4.234  1.5483 -1.7036  1.9921
 6114TIP3    H239902   6.085   6.567   4.242  0.9294  1.3813 -0.4192
 6115TIP3   OH239903   3.722   2.059   2.972 -0.0190  0.0515  0.2033
 6115TIP3    H139904   3.792   2.115   2.940 -0.3196 -0.4307 -1.3778
 6115TIP3    H239905   3.656   2.120   3.006 -0.9043  0.8514 -2.6085
 6116TIP3   OH239906   3.435   3.307   0.763 -0.0007 -0.3515  0.0591
 6116TIP3    H139907   3.490   3.385   0.768 -0.5085 -0.0419  1.1792
 6116TIP3    H239908   3.498   3.234   0.762  0.4581  0.0031  1.0880
 6117TIP3   OH239909   3.422   6.051   1.963  0.0582 -0.3286 -0.5220
 6117TIP3    H139910   3.476   6.123   1.994  0.6888 -0.8127 -0.4688
 6117TIP3    H239911   3.352   6.093   1.912  0.4504  0.3085 -0.5414
 6118TIP3   OH239912   2.060   0.194   1.791 -0.1842 -0.0424 -0.5686
 6118TIP3    H139913   2.016   0.220   1.710  0.4515  0.6220 -0.7169
 6118TIP3    H239914   2.149   0.172   1.764  0.7291  2.3372  0.1888
 6119TIP3   OH239915   6.838   6.242   0.516  0.1453  0.0173  0.2339
 6119TIP3    H139916   6.750   6.261   0.486  0.5822  0.9523 -0.4825
 6119TIP3    H239917   6.875   6.327   0.539  0.2243 -0.5390  2.3805
 6120TIP3   OH239918   6.499   0.221   2.363  0.3546 -0.0600  0.3731
 6120TIP3    H139919   6.472   0.311   2.384 -2.5972 -0.9323  0.6296
 6120TIP3    H239920   6.443   0.195   2.291  1.8403 -1.4402 -0.3503
 6121TIP3   OH239921   5.949   1.253   1.032 -0.3509 -0.3461  0.4768
 6121TIP3    H139922   5.997   1.335   1.022  1.9564 -1.6109  0.4577
 6121TIP3    H239923   5.882   1.272   1.097  0.9221  1.2514  1.3995
 6122TIP3   OH239924   1.898   1.847   1.786  0.0160 -0.0901  0.3622
 6122TIP3    H139925   1.926   1.760   1.756 -1.2394 -0.8583  1.3289
 6122TIP3    H239926   1.878   1.895   1.705  1.8849 -0.2647 -0.2382
 6123TIP3   OH239927   6.948   2.484   8.084 -0.2451  0.6294  0.1950
 6123TIP3    H139928   6.933   2.550   8.016  0.0367  1.6607  1.1139
 6123TIP3    H239929   6.924   2.528   8.166 -0.0177 -0.4058  0.8308
 6124TIP3   OH239930   5.535   6.001   2.290  0.1930 -0.1129 -0.6524
 6124TIP3    H139931   5.569   6.007   2.200 -1.0110 -2.9820 -1.3799
 6124TIP3    H239932   5.542   5.909   2.313  0.1342  0.4795  2.1376
 6125TIP3   OH239933   3.938   2.934   0.287 -0.3419 -0.1706 -0.3545
 6125TIP3    H139934   3.990   2.854   0.297 -0.6581 -0.1174  2.3391
 6125TIP3    H239935   3.995   3.004   0.320 -1.0251  0.3173 -0.1905
 6126TIP3   OH239936   2.681   6.286   3.545  0.3764  0.5302  0.6458
 6126TIP3    H139937   2.640   6.205   3.577  3.0381 -1.2022 -0.0203
 6126TIP3    H239938   2.762   6.293   3.594  1.6968  1.0415 -1.4853
 6127TIP3   OH239939   2.307   6.520   0.734  0.7524  0.3334  0.0292
 6127TIP3    H139940   2.366   6.446   0.747  1.4322  0.6459 -1.1348
 6127TIP3    H239941   2.338   6.562   0.654  1.5324  2.9984  1.6274
 6128TIP3   OH239942   2.228   4.594   2.054  0.5186  0.0723 -0.3286
 6128TIP3    H139943   2.206   4.536   1.981 -0.4723  0.5431 -0.4161
 6128TIP3    H239944   2.185   4.677   2.033 -2.3958 -0.6100  2.1896
 6129TIP3   OH239945   0.584   5.844   2.489  0.2714  0.3576 -0.3840
 6129TIP3    H139946   0.567   5.786   2.414 -1.1640  0.7310 -0.3735
 6129TIP3    H239947   0.557   5.930   2.458  3.2119  1.2835 -0.7213
 6130TIP3   OH239948   2.942   0.123   7.865 -0.0594  0.5716  0.3500
 6130TIP3    H139949   2.849   0.147   7.870 -0.6436 -1.0887 -1.5542
 6130TIP3    H239950   2.982   0.195   7.816 -0.6761  0.5111 -0.2630
 6131TIP3   OH239951   6.724   0.619   0.302  0.2381 -1.2328 -0.6064
 6131TIP3    H139952   6.638   0.583   0.281 -0.6967  0.4066  0.1880
 6131TIP3    H239953   6.782   0.543   0.304 -1.2491 -2.4251 -0.8398
 6132TIP3   OH239954   5.423   1.626   2.398 -0.1899  0.6257  0.0362
 6132TIP3    H139955   5.466   1.671   2.325  1.1735 -2.3658 -1.1394
 6132TIP3    H239956   5.349   1.581   2.357 -1.5202  1.6678  1.1892
 6133TIP3   OH239957   1.791   2.298   2.113 -0.1644  0.1671  0.0977
 6133TIP3    H139958   1.850   2.251   2.172  2.0464  0.8930 -1.3586
 6133TIP3    H239959   1.850   2.344   2.053 -2.2669  1.0073 -1.4596
 6134TIP3   OH239960   4.432   0.780   2.334  0.2861 -0.0235  0.3579
 6134TIP3    H139961   4.410   0.688   2.323  1.9460 -0.5794  1.3256
 6134TIP3    H239962   4.349   0.822   2.359 -0.0796 -1.6942  2.2300
 6135TIP3   OH239963   1.203   3.305   0.817 -0.1750 -0.2690 -0.0331
 6135TIP3    H139964   1.196   3.329   0.909  1.9604  0.0456  0.0900
 6135TIP3    H239965   1.193   3.387   0.770 -0.1364 -0.2593 -0.0239
 6136TIP3   OH239966   2.541   4.270   2.553  0.2263 -0.0031  0.3117
 6136TIP3    H139967   2.618   4.218   2.575  1.2056  0.2777 -2.1973
 6136TIP3    H239968   2.571   4.330   2.485 -1.6111  1.8482  1.0174
 6137TIP3   OH239969   3.592   5.540   2.968 -0.9578 -0.5821  0.0324
 6137TIP3    H139970   3.500   5.518   2.985 -1.6320  0.7348 -1.6607
 6137TIP3    H239971   3.599   5.631   2.995 -0.0186 -0.7838  0.4987
 6138TIP3   OH239972   2.870   1.616   0.357 -0.3576  0.6444  0.0085
 6138TIP3    H139973   2.913   1.608   0.442  1.0747 -0.8452 -0.8083
 6138TIP3    H239974   2.837   1.528   0.338  0.4109  0.6449 -1.4894
 6139TIP3   OH239975   3.183   3.314   0.843 -0.1540  0.3453  0.6263
 6139TIP3    H139976   3.277   3.327   0.826  0.0198 -0.2773  1.0504
 6139TIP3    H239977   3.178   3.225   0.880 -1.1458 -0.4185 -1.2261
 6140TIP3   OH239978   0.082   3.260   2.432 -0.6305  0.1614 -0.0933
 6140TIP3    H139979   0.083   3.165   2.423 -0.0728  0.0848  0.7125
 6140TIP3    H239980   0.019   3.278   2.502 -0.6773  0.3807 -0.1902
 6141TIP3   OH239981   6.252   0.345   3.656 -0.3335 -0.5216 -0.1718
 6141TIP3    H139982   6.184   0.335   3.722 -1.9071  2.6101 -1.1199
 6141TIP3    H239983   6.323   0.392   3.701 -1.5767  1.9931 -0.6136
 6142TIP3   OH239984   4.100   1.038   0.722  0.3570  0.0986  0.1718
 6142TIP3    H139985   4.070   1.061   0.633 -1.0230 -0.3463  0.5035
 6142TIP3    H239986   4.183   1.085   0.731  1.1688 -0.8176 -1.8092
 6143TIP3   OH239987   6.052   6.352   1.206  0.1982  0.8224 -0.7647
 6143TIP3    H139988   5.993   6.362   1.281 -0.3312  0.3753 -1.1111
 6143TIP3    H239989   6.101   6.433   1.204 -0.8924  1.5033 -0.8743
 6144TIP3   OH239990   6.647   4.951   0.006  0.1678 -0.8431 -0.0663
 6144TIP3    H139991   6.738   4.972  -0.016 -0.3230  0.1739 -1.2870
 6144TIP3    H239992   6.600   4.959  -0.077 -1.1919 -0.4494  0.7023
 6145TIP3   OH239993   4.206   4.817   1.989  0.1113  0.5356  0.3551
 6145TIP3    H139994   4.193   4.877   1.915  1.1646  0.4832  0.1104
 6145TIP3    H239995   4.276   4.858   2.040  0.3141 -0.1102  0.5936
 6146TIP3   OH239996   1.620   6.055   2.665 -0.4737  0.1997  0.1034
 6146TIP3    H139997   1.532   6.018   2.660 -0.0749 -0.6918 -0.5203
 6146TIP3    H239998   1.659   6.012   2.741 -0.7488  1.0132  0.7245
 6147TIP3   OH239999   2.551   2.635   7.484  0.0999  0.2625 -1.4294
 6147TIP3    H140000   2.533   2.568   7.550  0.6099  0.5763 -0.9655
 6147TIP3    H240001   2.468   2.681   7.473  0.2979  0.9445 -0.1637
 6148TIP3   OH240002   0.093   4.847   2.680 -0.3583  0.2159 -0.2428
 6148TIP3    H140003   0.068   4.837   2.772 -0.8099  1.6303 -0.1876
 6148TIP3    H240004   0.142   4.767   2.659  1.2887  0.6219  1.7305
 6149TIP3   OH240005   5.306   1.642   1.934 -0.2111 -0.0550  0.0155
 6149TIP3    H140006   5.332   1.550   1.925 -1.9606 -0.7448  1.3876
 6149TIP3    H240007   5.211   1.642   1.917 -0.0846  1.6741 -0.9137
 6150TIP3   OH240008   2.828   5.435   0.211 -0.1937  0.2676 -0.2043
 6150TIP3    H140009   2.825   5.438   0.115  0.2939  0.0890 -0.2293
 6150TIP3    H240010   2.840   5.342   0.232 -3.3306 -0.1665  0.1475
 6151TIP3   OH240011   4.825   6.844   8.336 -0.2793  0.0070 -0.0305
 6151TIP3    H140012   4.828   6.859   8.242  1.9097 -0.5575 -0.1232
 6151TIP3    H240013   4.859   6.925   8.375 -0.9303  0.1431  0.2631
 6152TIP3   OH240014   1.782   2.941   2.386 -0.4071  0.1833 -0.0181
 6152TIP3    H140015   1.818   2.975   2.468  2.2568  1.4949 -1.5820
 6152TIP3    H240016   1.767   2.848   2.402  1.1123  0.1775  1.6350
 6153TIP3   OH240017   4.509   6.753   2.776  0.0300 -0.1803 -0.4881
 6153TIP3    H140018   4.581   6.702   2.814  0.6914  1.1387  0.0894
 6153TIP3    H240019   4.505   6.723   2.685  0.1908 -1.4735 -0.0975
 6154TIP3   OH240020   4.694   0.375   1.190  0.0742 -0.1806 -0.5016
 6154TIP3    H140021   4.784   0.358   1.161 -0.0487 -0.4276 -0.7465
 6154TIP3    H240022   4.656   0.288   1.202 -0.0513 -0.0767 -0.1366
 6155TIP3   OH240023   6.054   5.617   8.304  0.6537 -0.1851 -0.1492
 6155TIP3    H140024   6.077   5.710   8.316 -0.0368  0.0295 -0.4576
 6155TIP3    H240025   6.050   5.605   8.209 -1.2410 -0.0148 -0.1232
 6156TIP3   OH240026   1.402   5.413   1.494  0.1133  0.0492 -0.3310
 6156TIP3    H140027   1.328   5.383   1.442  0.3174 -0.9009 -0.1016
 6156TIP3    H240028   1.363   5.465   1.564 -0.2910  0.0300 -0.5403
 6157TIP3   OH240029   6.861   6.053   2.021 -0.5282 -0.2404  0.4125
 6157TIP3    H140030   6.948   6.013   2.023 -0.9086 -1.0665  1.5046
 6157TIP3    H240031   6.852   6.085   1.931  0.8706 -0.1955  0.2588
 6158TIP3   OH240032   3.462   1.434   8.145  0.2982  0.3311  0.2462
 6158TIP3    H140033   3.518   1.451   8.069  0.7974  0.0766  0.5524
 6158TIP3    H240034   3.412   1.356   8.122 -1.5286  1.7720 -0.9050
 6159TIP3   OH240035   6.153   0.176   1.850  0.2416  0.1400  0.5858
 6159TIP3    H140036   6.175   0.111   1.783 -2.1696 -1.3552  1.1402
 6159TIP3    H240037   6.061   0.197   1.834  0.5262  2.2248  1.4494
 6160TIP3   OH240038   2.089   5.459   3.179  0.4480  0.0103 -0.4413
 6160TIP3    H140039   2.113   5.543   3.217 -0.7316  0.5900 -0.8976
 6160TIP3    H240040   1.994   5.453   3.192  0.3930 -0.8813 -1.1257
 6161TIP3   OH240041   0.541   1.943   3.703 -0.0737  0.0601 -0.2832
 6161TIP3    H140042   0.471   1.955   3.767 -0.3894 -0.8445 -0.4549
 6161TIP3    H240043   0.573   2.032   3.687 -1.7218  0.5927 -0.8193
 6162TIP3   OH240044   2.738   0.381   2.724 -0.0548 -0.3568 -0.6278
 6162TIP3    H140045   2.682   0.393   2.647 -1.3734 -2.6855 -0.1226
 6162TIP3    H240046   2.689   0.321   2.781  2.2401 -1.1870  0.6162
 6163TIP3   OH240047   3.299   6.013   8.067  0.2321  0.5872  0.0155
 6163TIP3    H140048   3.366   5.951   8.036  0.0973 -0.0682  0.9793
 6163TIP3    H240049   3.266   6.054   7.987  0.2805 -0.6382 -0.6735
 6164TIP3   OH240050   1.090   4.742   1.205 -0.1349 -0.5555  0.4309
 6164TIP3    H140051   1.051   4.799   1.139 -0.0669 -1.3707 -0.3251
 6164TIP3    H240052   1.156   4.797   1.248 -1.1449  0.4120  0.7959
 6165TIP3   OH240053   2.259   1.337   1.543 -0.3620  0.1030 -0.2870
 6165TIP3    H140054   2.248   1.422   1.586  1.6565  1.2738 -1.8947
 6165TIP3    H240055   2.318   1.354   1.470  1.1945 -2.9249  0.0746
 6166TIP3   OH240056   3.648   3.345   1.033 -0.3885  0.2629 -0.1587
 6166TIP3    H140057   3.737   3.372   1.010 -0.5827 -0.0681 -1.3742
 6166TIP3    H240058   3.659   3.262   1.078  0.0611  1.3000  1.7319
 6167TIP3   OH240059   6.317   4.717   7.611  0.0795  0.2003 -0.3195
 6167TIP3    H140060   6.395   4.772   7.612  1.9434 -2.2402  0.5385
 6167TIP3    H240061   6.338   4.648   7.548 -3.0731  1.5062 -3.1178
 6168TIP3   OH240062   3.013   4.944   1.507 -0.0300 -0.8516 -0.0441
 6168TIP3    H140063   3.041   4.972   1.594 -0.3437 -0.2746 -0.1256
 6168TIP3    H240064   3.074   4.986   1.446  0.5172 -1.6808 -0.0806
 6169TIP3   OH240065   1.733   5.141   0.876  0.1627 -0.0803  0.1660
 6169TIP3    H140066   1.762   5.229   0.901 -1.2693  0.1010  1.3590
 6169TIP3    H240067   1.707   5.100   0.958 -1.7490 -0.6126 -0.6407
 6170TIP3   OH240068   2.175   6.349   0.004  0.6037 -0.2002 -0.6144
 6170TIP3    H140069   2.138   6.386  -0.076  0.9532 -0.6158 -0.9715
 6170TIP3    H240070   2.268   6.337  -0.016  0.6422 -0.5482 -0.2318
 6171TIP3   OH240071   6.455   5.323   7.417  0.2058 -0.0115  0.2614
 6171TIP3    H140072   6.519   5.280   7.361  0.1599  1.5476 -1.0365
 6171TIP3    H240073   6.501   5.399   7.452 -0.8571  1.0136 -0.5241
 6172TIP3   OH240074   1.632   1.716   2.853  0.0617  0.9148 -0.0793
 6172TIP3    H140075   1.715   1.683   2.820 -0.9552  0.5449 -2.5165
 6172TIP3    H240076   1.628   1.687   2.944  2.2396  0.3278 -0.1231
 6173TIP3   OH240077   6.851   2.338   0.255  0.3686  0.0525 -0.0965
 6173TIP3    H140078   6.907   2.261   0.245 -0.8879 -1.2877  2.3931
 6173TIP3    H240079   6.895   2.391   0.322  0.2521  0.5888 -0.4390
 6174TIP3   OH240080   4.615   3.394   2.770  0.1854 -0.4308  0.3897
 6174TIP3    H140081   4.597   3.388   2.676 -0.8890  0.2047  0.5329
 6174TIP3    H240082   4.535   3.362   2.812  0.4666 -0.2542  1.0837
 6175TIP3   OH240083   5.995   1.976   2.011 -0.6572 -0.5956 -0.8388
 6175TIP3    H140084   6.072   2.023   2.042 -1.8084 -0.1205  1.5751
 6175TIP3    H240085   5.927   2.043   2.003 -1.5088 -1.3713 -0.3214
 6176TIP3   OH240086   1.497   2.781   0.473 -0.2995  0.4411  0.5044
 6176TIP3    H140087   1.459   2.865   0.448  1.5099  1.1789  0.0422
 6176TIP3    H240088   1.577   2.804   0.521 -0.3362 -1.0120  1.3192
 6177TIP3   OH240089   4.653   3.708   1.459  0.0868  0.3529 -0.3173
 6177TIP3    H140090   4.607   3.626   1.438  0.8517  0.2099 -1.5517
 6177TIP3    H240091   4.611   3.740   1.539 -0.1613 -1.3046  0.2576
 6178TIP3   OH240092   5.042   4.039   8.442  0.1551  0.2208 -0.0103
 6178TIP3    H140093   5.070   4.044   8.351 -1.1349  1.8340 -0.3717
 6178TIP3    H240094   4.987   3.960   8.447 -1.9551  1.5086 -1.3480
 6179TIP3   OH240095   4.696   4.394   1.610 -0.3666  0.6639 -0.0457
 6179TIP3    H140096   4.635   4.360   1.676 -0.8324  0.7800 -0.4132
 6179TIP3    H240097   4.769   4.429   1.661 -0.1158 -0.4154  0.3556
 6180TIP3   OH240098   1.862   5.047   0.108 -0.2803  0.4341 -0.0851
 6180TIP3    H140099   1.904   5.120   0.153  0.2684 -1.4716  2.8045
 6180TIP3    H240100   1.934   4.988   0.085 -0.8438  0.0092 -0.8123
 6181TIP3   OH240101   5.610   3.386   3.372 -0.0499  0.1498 -0.7286
 6181TIP3    H140102   5.683   3.441   3.401 -1.0680  2.0047 -1.4693
 6181TIP3    H240103   5.649   3.300   3.356  1.3386  0.1755  1.9796
 6182TIP3   OH240104   0.354   0.727   8.220 -0.0194  0.4098  0.3625
 6182TIP3    H140105   0.379   0.636   8.234 -2.9720 -0.6110 -0.2993
 6182TIP3    H240106   0.361   0.767   8.307 -2.3461 -1.5387  1.5894
 6183TIP3   OH240107   3.971   4.858   3.290 -0.0143 -0.0715  0.3192
 6183TIP3    H140108   3.932   4.931   3.337 -0.5894 -0.2907  0.1927
 6183TIP3    H240109   3.901   4.826   3.233  0.3787 -0.4168  0.0238
 6184TIP3   OH240110   0.707   3.040   0.218  0.1047 -0.0090 -0.1359
 6184TIP3    H140111   0.676   2.950   0.206  0.6666 -0.2280  0.0412
 6184TIP3    H240112   0.652   3.076   0.287  1.6873 -1.1197  1.7817
 6185TIP3   OH240113   0.615   2.331   0.333  0.4147 -0.1180  0.2701
 6185TIP3    H140114   0.650   2.297   0.251  0.1237 -2.0165  0.8865
 6185TIP3    H240115   0.563   2.407   0.307  0.7058 -0.4075 -1.2456
 6186TIP3   OH240116   3.701   4.893   2.927 -0.2286 -0.2556 -0.1411
 6186TIP3    H140117   3.724   4.852   3.010  1.8194  0.5176 -0.2701
 6186TIP3    H240118   3.784   4.903   2.881 -1.1047  0.8608 -1.5811
 6187TIP3   OH240119   4.874   0.300   0.104  0.6433 -0.2001 -0.5184
 6187TIP3    H140120   4.940   0.367   0.087  1.2728 -1.2145 -2.3170
 6187TIP3    H240121   4.887   0.235   0.035 -2.1341 -0.5325 -0.8478
 6188TIP3   OH240122   6.495   2.421   7.817 -0.1078 -0.2079  0.1753
 6188TIP3    H140123   6.458   2.394   7.901  0.1436 -1.3598 -0.0644
 6188TIP3    H240124   6.546   2.500   7.838 -0.9257  0.1529  0.8870
 6189TIP3   OH240125   0.980   0.540   1.860 -0.0729  0.6027 -0.3737
 6189TIP3    H140126   1.049   0.593   1.901 -0.7370  0.0357  1.5705
 6189TIP3    H240127   0.904   0.598   1.858 -1.1186 -0.4906  2.7639
 6190TIP3   OH240128   0.949   3.837   1.952  0.3618 -0.4965 -0.2429
 6190TIP3    H140129   0.995   3.875   1.877  3.0609 -2.3794  0.2921
 6190TIP3    H240130   0.887   3.775   1.913 -0.7607  1.0211 -0.9578
 6191TIP3   OH240131   5.495   0.233   0.158  0.5731  0.0561 -0.1405
 6191TIP3    H140132   5.541   0.236   0.074 -1.1626 -1.1130 -1.1978
 6191TIP3    H240133   5.533   0.157   0.203  0.4643 -0.2261 -0.5193
 6192TIP3   OH240134   3.678   0.097   8.118 -0.2932  0.1889  0.1502
 6192TIP3    H140135   3.695   0.011   8.078 -1.3193 -0.0016  0.0973
 6192TIP3    H240136   3.757   0.148   8.099 -0.7148  0.1081 -2.1175
 6193TIP3   OH240137   5.042   0.143   1.343 -0.0521  0.0285  0.1913
 6193TIP3    H140138   5.096   0.212   1.383  0.4211  0.4857 -1.1820
 6193TIP3    H240139   5.058   0.066   1.398 -0.6071  0.9868  1.7760
 6194TIP3   OH240140   3.708   0.772   0.723  0.5643  0.5174  0.1332
 6194TIP3    H140141   3.668   0.686   0.708  1.7601 -0.0341 -0.0750
 6194TIP3    H240142   3.652   0.834   0.676 -0.4715 -0.1164  0.5221
 6195TIP3   OH240143   2.054   3.820   0.659  0.1632 -0.0551  0.1914
 6195TIP3    H140144   2.100   3.736   0.660  0.8086  0.2869 -0.2376
 6195TIP3    H240145   2.008   3.823   0.743  0.6899 -0.5358  0.5046
 6196TIP3   OH240146   1.374   5.736   0.535  0.0179  0.0234  0.3422
 6196TIP3    H140147   1.429   5.662   0.511 -1.1965 -0.3685 -1.4124
 6196TIP3    H240148   1.286   5.699   0.542 -0.7728  1.4316 -1.5193
 6197TIP3   OH240149   4.534   1.817   0.151  0.0567 -0.5113 -0.2577
 6197TIP3    H140150   4.625   1.790   0.156  0.0068 -0.5027  1.3936
 6197TIP3    H240151   4.537   1.913   0.153  0.0435 -0.4818 -1.3020
 6198TIP3   OH240152   5.548   0.533   0.521  0.4088 -0.3243 -0.2822
 6198TIP3    H140153   5.477   0.595   0.502 -0.1183 -0.6020  0.6721
 6198TIP3    H240154   5.617   0.555   0.459  0.4387  1.5679  0.3664
 6199TIP3   OH240155   6.631   1.293   1.361 -0.1871 -0.6039  0.5240
 6199TIP3    H140156   6.680   1.375   1.362  0.2552 -0.8696  0.4922
 6199TIP3    H240157   6.668   1.242   1.434  0.6500 -1.4319 -0.4564
 6200TIP3   OH240158   2.771   1.174   7.805  0.3941 -0.0022 -0.2423
 6200TIP3    H140159   2.831   1.167   7.731  0.8828 -0.1076  0.1584
 6200TIP3    H240160   2.697   1.118   7.780  0.9964 -0.8331 -0.2307
 6201TIP3   OH240161   2.904   0.336   0.752  0.2843  0.4355  0.3134
 6201TIP3    H140162   2.852   0.292   0.820 -0.0758  0.6717  0.1932
 6201TIP3    H240163   2.859   0.315   0.670  1.0492 -0.3336  0.0726
 6202TIP3   OH240164   1.838   1.996   3.316  0.4634  0.4208 -0.6081
 6202TIP3    H140165   1.836   1.901   3.320 -1.5182  0.4418 -0.0952
 6202TIP3    H240166   1.891   2.022   3.391  0.6991 -0.2480 -0.5322
 6203TIP3   OH240167   3.310   4.167   2.607 -0.3999  0.3035  0.2059
 6203TIP3    H140168   3.397   4.209   2.613 -0.2742  0.1021 -0.1575
 6203TIP3    H240169   3.257   4.231   2.560 -0.4321  0.3971  0.3673
 6204TIP3   OH240170   0.337   2.804   2.150  0.3380 -0.8335 -0.1213
 6204TIP3    H140171   0.395   2.815   2.074  0.0091  0.5605 -0.1955
 6204TIP3    H240172   0.285   2.726   2.129 -1.1340  0.6346 -2.2772
 6205TIP3   OH240173   3.080   4.292   0.571  0.0398 -0.3086 -0.4323
 6205TIP3    H140174   3.160   4.295   0.623  0.9487  2.2297 -1.7977
 6205TIP3    H240175   3.109   4.306   0.481 -1.6961 -2.2914 -1.3695
 6206TIP3   OH240176   4.502   4.693   8.020 -0.1528 -0.0295  0.3199
 6206TIP3    H140177   4.593   4.666   8.019  0.3316  1.1337  3.3395
 6206TIP3    H240178   4.453   4.613   8.044  0.2123 -0.3162  0.1148
 6207TIP3   OH240179   6.583   2.062   2.126 -0.3996 -0.1105  0.9566
 6207TIP3    H140180   6.521   2.029   2.061  0.6208 -0.1639 -0.0389
 6207TIP3    H240181   6.666   2.019   2.103  0.1243  0.3704  1.9023
 6208TIP3   OH240182   0.731   5.353   1.448 -0.0995  1.0773  0.1084
 6208TIP3    H140183   0.693   5.283   1.502 -0.8679  1.9617  0.7412
 6208TIP3    H240184   0.805   5.311   1.404 -1.7247 -0.6984 -1.1153
 6209TIP3   OH240185   4.853   3.628   2.050  0.2974  0.6202 -0.5516
 6209TIP3    H140186   4.797   3.701   2.077 -0.8622 -0.6088  0.5176
 6209TIP3    H240187   4.814   3.551   2.092  2.2559 -0.4422 -0.5651
 6210TIP3   OH240188   6.848   2.614   8.298  0.5995 -0.4062 -0.3837
 6210TIP3    H140189   6.829   2.707   8.300 -0.5181 -0.6250  0.0760
 6210TIP3    H240190   6.859   2.590   8.390 -0.2579 -0.9327 -0.4072
 6211TIP3   OH240191   1.950   0.447   8.267  0.0329 -0.1545 -0.0850
 6211TIP3    H140192   1.911   0.360   8.272 -0.5280  0.0454 -0.8612
 6211TIP3    H240193   1.875   0.506   8.256  0.3930  0.4458  0.5620
 6212TIP3   OH240194   2.654   3.160   1.107 -0.2860  0.1165 -0.0616
 6212TIP3    H140195   2.576   3.190   1.153 -0.1997 -0.7126  0.6578
 6212TIP3    H240196   2.677   3.232   1.048 -2.6030 -0.3315 -1.6220
 6213TIP3   OH240197   4.586   6.672   2.281  0.4613  0.7621  0.3107
 6213TIP3    H140198   4.549   6.590   2.249 -0.2396  0.3194  2.1096
 6213TIP3    H240199   4.675   6.673   2.246 -0.1819  0.2405 -1.4014
 6214TIP3   OH240200   2.868   2.543   1.164 -0.4340 -0.4993  0.2260
 6214TIP3    H140201   2.852   2.472   1.102  0.5904 -1.2163  0.7303
 6214TIP3    H240202   2.844   2.623   1.118 -2.2266 -1.2124 -0.1385
 6215TIP3   OH240203   0.220   3.240   8.111  0.1199 -0.4550  0.1856
 6215TIP3    H140204   0.300   3.240   8.163  1.0109  0.1896 -1.1275
 6215TIP3    H240205   0.246   3.200   8.028 -0.8017  0.1525 -0.4152
 6216TIP3   OH240206   2.034   3.292   1.351 -0.1090 -0.0193 -0.0802
 6216TIP3    H140207   1.954   3.304   1.300  0.4446 -1.6582 -1.4179
 6216TIP3    H240208   2.016   3.218   1.408  0.3002 -0.1150 -0.0697
 6217TIP3   OH240209   2.746   1.519   2.954 -0.7737 -0.4684 -0.0502
 6217TIP3    H140210   2.699   1.541   3.034  0.4882 -0.2308  0.6560
 6217TIP3    H240211   2.818   1.463   2.983 -0.7600 -1.0386 -1.1309
 6218TIP3   OH240212   5.405   2.579   1.059 -0.5684  0.4403  0.2388
 6218TIP3    H140213   5.410   2.523   0.981  1.1384  0.5301  0.2356
 6218TIP3    H240214   5.370   2.662   1.026  1.2707  0.8818 -0.7229
 6219TIP3   OH240215   2.609   0.439   8.047  0.1418 -0.1010 -0.1236
 6219TIP3    H140216   2.684   0.456   7.991  0.3676  1.3535  0.5707
 6219TIP3    H240217   2.645   0.391   8.122  0.1056 -0.7020 -0.4854
 6220TIP3   OH240218   1.213   2.738   0.497 -0.3932  0.1178  0.2655
 6220TIP3    H140219   1.237   2.717   0.587  0.3592 -0.4262 -0.0514
 6220TIP3    H240220   1.296   2.763   0.456 -0.4434 -1.2127 -0.7009
 6221TIP3   OH240221   1.828   2.503   3.477 -0.4887  0.0156  0.0017
 6221TIP3    H140222   1.888   2.574   3.499 -0.6385 -0.3079  1.5667
 6221TIP3    H240223   1.754   2.547   3.435 -0.4887  0.7799  0.7628
 6222TIP3   OH240224   0.497   6.606   8.294  0.1675  0.2551  0.0839
 6222TIP3    H140225   0.468   6.576   8.208  0.6056  1.4842 -0.5315
 6222TIP3    H240226   0.579   6.654   8.276  0.2185  0.6050  1.1659
 6223TIP3   OH240227   6.856   5.331   7.416  0.1592 -0.4041 -0.1178
 6223TIP3    H140228   6.766   5.324   7.383 -0.0181  0.6185  0.1095
 6223TIP3    H240229   6.905   5.267   7.365 -0.2484  0.6048 -1.8943
 6224TIP3   OH240230   2.913   3.282   3.242 -0.3321 -0.5247 -0.2766
 6224TIP3    H140231   2.986   3.340   3.219 -0.8533 -0.0232 -0.7188
 6224TIP3    H240232   2.870   3.325   3.315 -0.2990 -0.7195 -0.1428
 6225TIP3   OH240233   1.218   5.608   2.379  0.3119 -0.3158  0.1379
 6225TIP3    H140234   1.193   5.524   2.340 -1.1350 -0.4864  1.3534
 6225TIP3    H240235   1.250   5.585   2.467 -0.0810  0.3974  0.4735
 6226TIP3   OH240236   5.093   4.002   3.493  0.2983  0.2523  0.0020
 6226TIP3    H140237   5.148   4.019   3.417 -0.9220  0.5738 -0.8315
 6226TIP3    H240238   5.006   4.029   3.467 -0.5463 -1.4906  0.8132
 6227TIP3   OH240239   5.720   1.764   2.518  0.0742 -0.2971 -0.2203
 6227TIP3    H140240   5.722   1.791   2.426 -0.9073  0.3904 -0.0623
 6227TIP3    H240241   5.730   1.669   2.516  1.8418 -0.1424 -0.9117
 6228TIP3   OH240242   1.886   6.005   8.128  0.2146 -0.7953 -0.1735
 6228TIP3    H140243   1.884   5.948   8.205 -0.1046 -0.6434 -0.0657
 6228TIP3    H240244   1.820   5.969   8.069 -1.6899  0.7766  0.8681
 6229TIP3   OH240245   3.434   1.611   2.196  0.3422 -0.0972 -0.1434
 6229TIP3    H140246   3.477   1.587   2.114  0.1111 -1.7489  0.1835
 6229TIP3    H240247   3.432   1.707   2.195  1.3392 -0.0587 -1.5384
 6230TIP3   OH240248   3.071   3.688   8.447 -0.5095 -0.1251 -0.2403
 6230TIP3    H140249   3.001   3.726   8.500 -1.4806 -2.3193  0.1665
 6230TIP3    H240250   3.043   3.702   8.356  0.3387  2.1492 -0.2163
 6231TIP3   OH240251   6.947   6.689   1.694 -0.0160  0.5721 -0.2332
 6231TIP3    H140252   6.998   6.609   1.709 -2.2550 -0.6463  1.3555
 6231TIP3    H240253   6.887   6.666   1.623 -0.5384  0.9123  0.0958
 6232TIP3   OH240254   1.167   4.222   1.031 -0.2176  0.1425 -0.4102
 6232TIP3    H140255   1.179   4.290   0.965 -1.5745 -0.6077 -1.4884
 6232TIP3    H240256   1.127   4.149   0.984 -0.3819 -0.7663  1.0543
 6233TIP3   OH240257   0.412   3.809   1.392  0.3949  0.4449  0.1763
 6233TIP3    H140258   0.390   3.851   1.476  2.0663 -0.0158  0.8706
 6233TIP3    H240259   0.350   3.736   1.386  0.1156  0.6028  0.9133
 6234TIP3   OH240260   5.366   3.132   2.046 -0.4185  0.1103  0.1503
 6234TIP3    H140261   5.444   3.188   2.053  0.8020 -1.1522 -2.2610
 6234TIP3    H240262   5.352   3.100   2.135 -0.0640  2.7229  1.2534
 6235TIP3   OH240263   3.283   1.305   2.116 -0.6897 -0.3501  0.3402
 6235TIP3    H140264   3.301   1.320   2.023  1.1086 -0.8383  0.5660
 6235TIP3    H240265   3.295   1.390   2.157 -0.9594 -0.2397  0.1856
 6236TIP3   OH240266   5.636   3.030   8.289  0.2416  0.3591 -0.0986
 6236TIP3    H140267   5.723   3.032   8.248 -0.1640  0.9431 -0.9339
 6236TIP3    H240268   5.615   3.122   8.304 -0.7776  0.2920 -1.0544
 6237TIP3   OH240269   0.561   0.330   8.086  0.1871 -0.5328  0.1796
 6237TIP3    H140270   0.540   0.371   8.169 -0.7985 -0.4802 -0.0773
 6237TIP3    H240271   0.553   0.400   8.021 -0.7781 -0.9496 -0.1680
 6238TIP3   OH240272   4.374   5.361   2.080 -0.0484 -0.2195 -0.4445
 6238TIP3    H140273   4.414   5.439   2.041  0.7320 -0.5028 -0.2460
 6238TIP3    H240274   4.433   5.290   2.055 -0.3344 -0.6245  0.0153
 6239TIP3   OH240275   6.177   1.702   0.189  0.4637  0.1441  0.7142
 6239TIP3    H140276   6.232   1.775   0.218  0.5305  0.9546 -1.2906
 6239TIP3    H240277   6.089   1.724   0.220  0.4887  1.0651  0.1519
 6240TIP3   OH240278   1.449   3.104   8.145  0.1207  0.3216  0.0733
 6240TIP3    H140279   1.417   3.015   8.159 -0.5672  0.5843  0.2597
 6240TIP3    H240280   1.499   3.100   8.064 -1.3092  0.0937 -0.8496
 6241TIP3   OH240281   0.724   5.205   8.201 -0.2509 -0.1643  0.3785
 6241TIP3    H140282   0.635   5.207   8.165 -0.3937  0.9212  0.7591
 6241TIP3    H240283   0.775   5.157   8.135 -0.6225  1.3159 -1.0505
 6242TIP3   OH240284   3.943   4.661   3.497  0.1554  0.1615  0.6981
 6242TIP3    H140285   3.948   4.714   3.576  1.1575 -0.6586  1.2034
 6242TIP3    H240286   3.971   4.720   3.427  2.0448  0.1175  1.3618
 6243TIP3   OH240287   2.030   0.455   1.866 -0.3982  0.2555 -0.3000
 6243TIP3    H140288   2.044   0.361   1.881 -1.4338  0.0834 -0.3485
 6243TIP3    H240289   2.029   0.493   1.954 -1.3974  0.0005 -0.1925
 6244TIP3   OH240290   4.312   4.163   2.081 -0.2275 -0.4904 -0.5464
 6244TIP3    H140291   4.243   4.228   2.076  0.2780 -0.0286 -2.1856
 6244TIP3    H240292   4.368   4.192   2.153  1.0820  2.0660 -2.4370
 6245TIP3   OH240293   2.480   0.807   8.417  0.3581  0.2061 -0.9067
 6245TIP3    H140294   2.460   0.783   8.326  2.1755 -0.4512 -1.1665
 6245TIP3    H240295   2.573   0.828   8.417  0.3215  0.5175  0.7552
 6246TIP3   OH240296   4.577   3.577   2.173  0.0645  0.0143  0.3920
 6246TIP3    H140297   4.638   3.505   2.190 -0.7994 -0.5502  1.1700
 6246TIP3    H240298   4.506   3.565   2.237 -1.5009 -0.0870 -1.2776
 6247TIP3   OH240299   1.947   0.811   8.087  0.1046  0.0556  0.1967
 6247TIP3    H140300   1.854   0.818   8.065  0.5972  1.0086 -1.8219
 6247TIP3    H240301   1.987   0.770   8.010  1.2606 -1.1861  1.4031
 6248TIP3   OH240302   3.087   1.906   2.403  0.0302 -0.3725 -0.2247
 6248TIP3    H140303   3.168   1.942   2.441  1.0305 -1.7072 -0.9992
 6248TIP3    H240304   3.067   1.964   2.330 -0.7748  1.0347  1.0537
 6249TIP3   OH240305   0.772   5.950   1.489 -0.5399  0.0996  0.0083
 6249TIP3    H140306   0.850   5.914   1.448 -0.3898 -0.3469  0.6684
 6249TIP3    H240307   0.802   5.981   1.574 -0.6683  1.7923 -0.5153
 6250TIP3   OH240308   3.048   5.990   0.390 -0.2643  0.2351 -0.1308
 6250TIP3    H140309   3.120   6.032   0.344 -0.0902 -0.0773 -0.1504
 6250TIP3    H240310   2.977   5.984   0.325 -0.4211  0.8208 -0.0211
 6251TIP3   OH240311   5.666   0.467   2.528 -0.0630 -0.1126  0.0001
 6251TIP3    H140312   5.736   0.482   2.464 -0.1235 -0.3690 -0.1260
 6251TIP3    H240313   5.615   0.395   2.492  0.6361 -1.1111  0.9523
 6252TIP3   OH240314   3.091   3.146   1.225  0.2665  0.6784 -0.0608
 6252TIP3    H140315   3.077   3.110   1.137  0.0621  2.3365 -0.7501
 6252TIP3    H240316   3.142   3.080   1.271  3.1617  1.0724 -2.4432
 6253TIP3   OH240317   3.119   2.732   0.424 -0.4599  0.2212 -0.4975
 6253TIP3    H140318   3.102   2.693   0.510  0.0700 -0.6671 -0.7687
 6253TIP3    H240319   3.132   2.825   0.441  1.2360 -0.1704  0.6410
 6254TIP3   OH240320   4.321   0.392   8.379  0.1936 -0.4122 -0.1151
 6254TIP3    H140321   4.267   0.469   8.395  0.7247 -0.0948  0.1413
 6254TIP3    H240322   4.283   0.324   8.435 -0.3955 -0.3983 -0.4889
 6255TIP3   OH240323   5.744   3.236   2.459  0.1998 -0.1426  0.1897
 6255TIP3    H140324   5.785   3.299   2.399  1.2449  0.4914  1.5152
 6255TIP3    H240325   5.813   3.173   2.479  0.1418  0.1219  1.3329
 6256TIP3   OH240326   0.639   4.771   1.351 -0.1982 -0.5811 -0.0043
 6256TIP3    H140327   0.665   4.862   1.332  0.4036 -0.6246  0.5704
 6256TIP3    H240328   0.556   4.780   1.398  0.1003 -0.2921  0.4847
 6257TIP3   OH240329   4.016   2.427   3.097  0.0897  0.1274 -0.1734
 6257TIP3    H140330   4.098   2.379   3.100 -0.0794 -0.3080  4.9340
 6257TIP3    H240331   4.042   2.518   3.084  1.0316 -0.3114 -1.6300
 6258TIP3   OH240332   5.830   0.031   1.406  0.3111 -0.4030 -0.2081
 6258TIP3    H140333   5.738   0.016   1.382  0.3922 -0.2612 -0.6136
 6258TIP3    H240334   5.867  -0.057   1.413 -0.0940 -0.5063  0.9370
 6259TIP3   OH240335   2.526   4.182   2.849 -0.0773 -0.1442 -0.1211
 6259TIP3    H140336   2.453   4.242   2.830  0.0526 -0.0132 -0.2060
 6259TIP3    H240337   2.584   4.231   2.906  0.8429  0.4126 -1.4710
 6260TIP3   OH240338   0.943   0.289   2.693  0.1376 -0.1022  0.3763
 6260TIP3    H140339   0.955   0.312   2.601  3.2004 -1.3029  0.3845
 6260TIP3    H240340   0.849   0.303   2.709 -0.5167  0.0166 -2.9315
 6261TIP3   OH240341   6.161   2.786   3.914  0.6196  0.0101 -0.3168
 6261TIP3    H140342   6.218   2.763   3.987  1.2320 -0.1257 -0.8216
 6261TIP3    H240343   6.221   2.796   3.840  0.1367  1.1491 -0.5765
 6262TIP3   OH240344   6.131   3.534   2.011  0.3760 -0.7242  0.9390
 6262TIP3    H140345   6.045   3.538   2.053  0.0228 -1.7546  0.3471
 6262TIP3    H240346   6.118   3.578   1.927  0.4147 -0.9226  0.8289
 6263TIP3   OH240347   6.305   0.885   1.857 -0.2751 -0.5479 -0.3578
 6263TIP3    H140348   6.308   0.981   1.855  0.6678 -0.5433  0.5758
 6263TIP3    H240349   6.261   0.864   1.939  0.0832 -0.9057 -0.2529
 6264TIP3   OH240350   5.092   6.659   1.388 -0.0994 -0.1476 -0.3954
 6264TIP3    H140351   5.054   6.617   1.311 -0.2439  0.5802 -0.7323
 6264TIP3    H240352   5.026   6.648   1.456  0.9932 -2.8524  0.3261
 6265TIP3   OH240353   4.492   3.489   1.937  0.5833 -0.2852 -0.9364
 6265TIP3    H140354   4.504   3.402   1.975  0.5588 -0.1296 -0.5675
 6265TIP3    H240355   4.516   3.549   2.008  0.5867  0.0066 -1.1861
 6266TIP3   OH240356   1.544   0.152   8.251 -0.3162  0.1661  0.4779
 6266TIP3    H140357   1.534   0.247   8.254 -2.1158  0.0349  0.1454
 6266TIP3    H240358   1.456   0.118   8.269 -0.0676 -1.4041 -0.9556
 6267TIP3   OH240359   6.341   4.890   7.950  0.2078  0.2352  0.5235
 6267TIP3    H140360   6.340   4.953   8.022 -0.0859 -0.4075  1.0958
 6267TIP3    H240361   6.336   4.805   7.993  2.0958 -0.2594 -0.1783
 6268TIP3   OH240362   1.600   1.231   7.981  0.5641 -0.2444  1.0052
 6268TIP3    H140363   1.547   1.185   7.916  0.1792  1.1696  0.2867
 6268TIP3    H240364   1.570   1.322   7.977  2.6968  0.5154  0.9273
 6269TIP3   OH240365   0.167   6.209   7.512  0.2768  0.4422 -0.3522
 6269TIP3    H140366   0.073   6.201   7.532  0.0663  1.2758 -0.9789
 6269TIP3    H240367   0.175   6.178   7.422  1.0439 -2.1769  0.5183
 6270TIP3   OH240368   1.158   4.177   7.253 -0.3516  0.0696  0.4969
 6270TIP3    H140369   1.174   4.253   7.309 -1.1410  1.6223 -1.2769
 6270TIP3    H240370   1.234   4.175   7.194 -0.4242 -0.4046  0.4177
 6271TIP3   OH240371   3.157   5.139   1.023 -0.1539 -0.4242  0.4427
 6271TIP3    H140372   3.131   5.152   0.931 -1.2819  1.2712  0.9414
 6271TIP3    H240373   3.196   5.223   1.048  1.3316 -1.3013  1.1826
 6272TIP3   OH240374   2.376   3.822   1.264 -0.0290  0.5226 -0.1882
 6272TIP3    H140375   2.370   3.741   1.214 -0.0663  0.3279  0.1340
 6272TIP3    H240376   2.421   3.798   1.345  0.8256  1.0179 -0.5094
 6273TIP3   OH240377   0.642   2.642   0.224  0.0142 -0.1002 -0.0758
 6273TIP3    H140378   0.585   2.570   0.196  0.0490  0.1665 -0.8364
 6273TIP3    H240379   0.589   2.690   0.288  0.1725 -1.0793  0.8232
 6274TIP3   OH240380   1.345   0.954   1.416 -0.2288 -0.4734  0.7244
 6274TIP3    H140381   1.325   1.044   1.440  0.7626 -0.1305  0.3318
 6274TIP3    H240382   1.384   0.960   1.329 -0.2505 -1.2936  0.6464
 6275TIP3   OH240383   5.456   1.610   7.967 -0.0942 -0.2438 -0.1849
 6275TIP3    H140384   5.475   1.548   7.897 -1.2501 -1.4600  0.5355
 6275TIP3    H240385   5.361   1.614   7.971 -0.0366  0.4612  0.7503
 6276TIP3   OH240386   2.091   1.827   3.442  0.3897 -0.1269  0.4691
 6276TIP3    H140387   2.185   1.834   3.425  0.5852 -1.1662  1.0858
 6276TIP3    H240388   2.064   1.917   3.464  1.6125 -0.1425  2.1644
 6277TIP3   OH240389   3.301   6.859   1.000 -0.0195  0.0281  0.3957
 6277TIP3    H140390   3.213   6.833   1.027 -0.8278  0.5463 -1.5937
 6277TIP3    H240391   3.293   6.951   0.975  0.4312 -0.5788 -2.2820
 6278TIP3   OH240392   6.380   3.460   0.477  0.5418  0.5630 -0.6830
 6278TIP3    H140393   6.409   3.387   0.422  0.7209 -0.7707  1.0744
 6278TIP3    H240394   6.318   3.508   0.422 -0.1675 -1.3556 -1.6803
 6279TIP3   OH240395   3.594   5.835   1.706 -0.0487 -0.3442  0.3794
 6279TIP3    H140396   3.596   5.813   1.800  0.1165  0.3448  0.5392
 6279TIP3    H240397   3.683   5.864   1.686 -0.0906 -0.4659  0.0141
 6280TIP3   OH240398   6.112   1.419   1.246  0.1527  0.1343 -0.2943
 6280TIP3    H140399   6.125   1.343   1.304  2.3930  0.4773 -0.2536
 6280TIP3    H240400   6.092   1.491   1.305 -0.5074 -0.1054 -0.2141
 6281TIP3   OH240401   1.303   0.917   0.615 -0.1655  0.1090  0.4298
 6281TIP3    H140402   1.313   0.949   0.705  0.5473 -0.2627  0.4915
 6281TIP3    H240403   1.299   0.822   0.624 -1.6429  0.1369  0.1954
 6282TIP3   OH240404   3.133   5.168   1.375  0.2584  0.1010  0.0614
 6282TIP3    H140405   3.133   5.263   1.388  2.3753  0.1878 -0.2688
 6282TIP3    H240406   3.119   5.157   1.281 -0.7185  0.0274  0.2013
 6283TIP3   OH240407   0.645   5.396   2.702 -0.0989 -0.8576 -0.0285
 6283TIP3    H140408   0.692   5.474   2.674 -0.9970 -0.2645  0.0802
 6283TIP3    H240409   0.571   5.390   2.641 -0.1606 -1.5006  0.1014
 6284TIP3   OH240410   2.534   0.418   2.549  0.2045 -0.3623 -0.4304
 6284TIP3    H140411   2.476   0.449   2.478 -0.1933  1.8380  0.7661
 6284TIP3    H240412   2.506   0.328   2.564 -2.1736  0.2526 -0.6710
 6285TIP3   OH240413   3.914   1.126   1.844  0.3100  0.7594  0.3881
 6285TIP3    H140414   3.856   1.198   1.820 -0.6158 -0.3384 -0.8128
 6285TIP3    H240415   4.002   1.157   1.820 -0.1566  1.2153 -0.7878
 6286TIP3   OH240416   0.704   6.836   7.945  0.4918  0.0008 -0.0327
 6286TIP3    H140417   0.738   6.922   7.921  0.8635  0.0458  0.6115
 6286TIP3    H240418   0.739   6.776   7.879 -1.4211  0.6177 -1.6907
 6287TIP3   OH240419   5.166   4.774   7.556  0.6780  0.2759  0.1326
 6287TIP3    H140420   5.138   4.695   7.601  1.3062  0.0650  0.1637
 6287TIP3    H240421   5.116   4.844   7.597 -0.4714 -0.1908 -0.4338
 6288TIP3   OH240422   3.268   3.934   8.020  0.1440  0.1278  0.5912
 6288TIP3    H140423   3.327   4.009   8.019  1.2478 -0.7123 -0.1408
 6288TIP3    H240424   3.276   3.896   7.932 -2.0723  0.4160  0.2229
 6289TIP3   OH240425   4.210   1.086   8.301  0.5934  0.7377 -0.1180
 6289TIP3    H140426   4.190   1.175   8.330 -0.7086  0.2312  0.6361
 6289TIP3    H240427   4.242   1.042   8.379 -0.2863  0.1225 -0.0837
 6290TIP3   OH240428   1.332   6.246   0.023  0.3952 -0.1016  0.0200
 6290TIP3    H140429   1.262   6.237  -0.042 -0.5016  1.7502  0.6464
 6290TIP3    H240430   1.412   6.252  -0.029 -0.3306  1.6578 -1.0071
 6291TIP3   OH240431   5.313   4.476   1.757  0.3227 -0.6833 -0.1282
 6291TIP3    H140432   5.368   4.532   1.812 -0.5093  0.2683 -0.2501
 6291TIP3    H240433   5.376   4.426   1.705  1.1590  1.8973 -1.8004
 6292TIP3   OH240434   2.275   2.201   7.912  0.5970  0.1027  0.0492
 6292TIP3    H140435   2.206   2.264   7.892 -1.3301 -2.1181 -0.7961
 6292TIP3    H240436   2.278   2.143   7.836  3.2020 -0.0986  0.2105
 6293TIP3   OH240437   1.074   3.982   8.230  0.1469  0.4303 -0.5626
 6293TIP3    H140438   1.123   3.902   8.212 -0.0806 -0.0067  0.7012
 6293TIP3    H240439   0.982   3.956   8.229  0.0871  0.5980  0.2152
 6294TIP3   OH240440   6.654   1.187   7.841  0.6605  0.3441 -0.1221
 6294TIP3    H140441   6.609   1.213   7.760 -1.9618  1.7044  1.6152
 6294TIP3    H240442   6.671   1.270   7.886  1.7234 -0.3965  0.8929
 6295TIP3   OH240443   4.026   0.813   0.872 -0.0650 -0.1913  0.2063
 6295TIP3    H140444   4.055   0.883   0.814  0.4431  0.7684  1.5675
 6295TIP3    H240445   4.023   0.735   0.817 -0.8982  0.9349 -1.4205
 6296TIP3   OH240446   3.370   3.783   3.217  0.5230  0.2744  0.0468
 6296TIP3    H140447   3.287   3.831   3.225  0.7762  0.8586 -0.7376
 6296TIP3    H240448   3.344   3.691   3.214 -0.0793  0.4373  0.0748
 6297TIP3   OH240449   2.073   5.235   2.452  0.2952 -0.0724 -0.1634
 6297TIP3    H140450   2.120   5.286   2.519  1.3327 -0.0720 -0.8640
 6297TIP3    H240451   2.142   5.184   2.409 -0.4820 -0.7165 -0.6615
 6298TIP3   OH240452   2.728   0.101   8.435 -0.2953 -0.3605  0.3561
 6298TIP3    H140453   2.801   0.042   8.415  0.2063  0.7892 -1.4559
 6298TIP3    H240454   2.767   0.172   8.486 -0.6497 -0.9415  1.4582
 6299TIP3   OH240455   6.002   3.812   0.232  0.0963 -0.5308 -0.0492
 6299TIP3    H140456   6.061   3.789   0.303  0.4963 -3.2238 -1.1319
 6299TIP3    H240457   5.916   3.822   0.274  0.3782 -1.7650  0.8686
 6300TIP3   OH240458   1.161   3.780   2.460 -0.2760 -0.2428 -0.2658
 6300TIP3    H140459   1.217   3.768   2.382 -0.5117  0.2628 -0.5209
 6300TIP3    H240460   1.137   3.873   2.457 -0.5571 -0.2994  0.2337
 6301TIP3   OH240461   1.003   2.573   0.362 -0.2301 -0.0772  0.6594
 6301TIP3    H140462   1.059   2.607   0.432 -1.9091 -0.0252  2.0476
 6301TIP3    H240463   0.920   2.619   0.374 -0.2416  0.8386 -2.1414
 6302TIP3   OH240464   3.115   4.699   0.440  0.3296 -0.1698  0.1714
 6302TIP3    H140465   3.057   4.631   0.406 -0.0466 -0.6737  1.7338
 6302TIP3    H240466   3.091   4.708   0.533  2.0659  0.3077  0.6257
 6303TIP3   OH240467   1.228   4.843   2.723  0.5716  0.3444  0.4205
 6303TIP3    H140468   1.259   4.781   2.789  0.3636  2.0665  2.2476
 6303TIP3    H240469   1.304   4.899   2.705  0.4207  0.3348 -0.2718
 6304TIP3   OH240470   6.827   4.032   1.944 -0.4376  0.0104  0.2119
 6304TIP3    H140471   6.867   4.006   2.026 -0.4472 -2.0300 -0.3660
 6304TIP3    H240472   6.734   4.045   1.965 -0.3073  0.2539  0.6505
 6305TIP3   OH240473   3.704   0.061   1.153  0.8769  0.4618  0.5616
 6305TIP3    H140474   3.758   0.013   1.090  1.4043  0.1240  1.2696
 6305TIP3    H240475   3.680   0.142   1.106 -0.0306 -0.4608 -0.6408
 6306TIP3   OH240476   0.827   5.173   1.827  0.2630  0.3477 -0.3698
 6306TIP3    H140477   0.908   5.222   1.845 -0.4776  1.2739  0.5963
 6306TIP3    H240478   0.818   5.176   1.732  0.4240  1.8212 -0.3719
 6307TIP3   OH240479   3.700   2.809   3.431  0.4984 -0.5688  0.0799
 6307TIP3    H140480   3.774   2.849   3.475 -0.3519  1.3018 -0.1058
 6307TIP3    H240481   3.624   2.835   3.484  0.0110 -3.5566  1.0740
 6308TIP3   OH240482   3.782   3.547   3.471  0.0928  0.0067 -0.4510
 6308TIP3    H140483   3.693   3.511   3.469  0.5223 -1.0606 -0.8838
 6308TIP3    H240484   3.827   3.494   3.537  0.4840  0.3634 -0.4327
 6309TIP3   OH240485   2.907   0.584   2.353  0.2877 -0.0994  0.0129
 6309TIP3    H140486   2.887   0.656   2.414  0.5443  1.0315 -1.1946
 6309TIP3    H240487   2.962   0.525   2.405  0.1498  0.6086  1.0157
 6310TIP3   OH240488   2.547   4.857   1.352 -0.7267  0.3493 -0.1641
 6310TIP3    H140489   2.494   4.893   1.424 -0.9686  0.4066 -0.3696
 6310TIP3    H240490   2.624   4.913   1.348 -1.0910  0.8373 -0.4686
 6311TIP3   OH240491   1.746   3.055   1.820  0.1244 -0.2029  0.3217
 6311TIP3    H140492   1.731   3.123   1.753  0.4476  0.0849  0.5363
 6311TIP3    H240493   1.840   3.039   1.817  0.2732  0.3747  1.2297
 6312TIP3   OH240494   2.642   1.381   0.533  0.2536  0.3386  0.4559
 6312TIP3    H140495   2.598   1.298   0.515  0.1920  0.3806  0.4088
 6312TIP3    H240496   2.572   1.438   0.564 -0.2561  1.1974 -2.0342
 6313TIP3   OH240497   4.609   2.835   7.932 -0.8766  0.5391  0.1572
 6313TIP3    H140498   4.671   2.810   8.000 -1.0624  1.7309  0.7767
 6313TIP3    H240499   4.555   2.757   7.920 -1.6439  0.6732  2.2794
 6314TIP3   OH240500   5.539   2.808   8.206 -0.2949 -0.0183 -0.0707
 6314TIP3    H140501   5.573   2.894   8.233 -2.7766  0.1798  3.0122
 6314TIP3    H240502   5.467   2.829   8.146 -0.8072  0.1267  0.5702
 6315TIP3   OH240503   2.461   4.600   2.629 -0.0984 -0.1645 -0.0494
 6315TIP3    H140504   2.422   4.586   2.715  1.9848 -0.6676  0.8748
 6315TIP3    H240505   2.555   4.585   2.642  0.5115  1.4396 -2.0244
 6316TIP3   OH240506   6.657   1.684   0.833  0.4962 -0.3092 -0.0078
 6316TIP3    H140507   6.715   1.634   0.776  0.9702 -0.6988  0.8039
 6316TIP3    H240508   6.589   1.718   0.774  1.7390  0.4738 -1.0402
 6317TIP3   OH240509   0.629   2.061   0.168  0.0908 -0.0947 -0.6638
 6317TIP3    H140510   0.659   2.142   0.127 -0.0995 -0.6959 -2.0676
 6317TIP3    H240511   0.552   2.086   0.219  0.4246  0.7097 -0.5452
 6318TIP3   OH240512   2.069   3.812   1.728  0.0941  0.2999  0.2439
 6318TIP3    H140513   2.103   3.751   1.794  0.4105 -1.8114 -1.7420
 6318TIP3    H240514   1.992   3.851   1.768 -0.5756 -2.0084  1.3639
 6319TIP3   OH240515   3.574   3.940   7.771 -0.9569  0.3916 -0.0139
 6319TIP3    H140516   3.567   4.028   7.809  0.0220 -0.5009  2.5030
 6319TIP3    H240517   3.484   3.913   7.755 -1.3239  1.4488  0.1809
 6320TIP3   OH240518   1.212   5.718   1.881  0.8236  0.5684  0.7702
 6320TIP3    H140519   1.295   5.736   1.927  0.5068  1.1149  1.1461
 6320TIP3    H240520   1.152   5.692   1.951  0.8291 -0.4305  0.4263
 6321TIP3   OH240521   2.992   6.443   1.553 -0.1320  0.2519  0.5945
 6321TIP3    H140522   2.931   6.512   1.527  0.6296  1.2010  1.2734
 6321TIP3    H240523   3.069   6.457   1.498 -0.3063 -0.6176  0.1082
 6322TIP3   OH240524   5.175   2.270   3.693  0.3052  0.1948 -0.1629
 6322TIP3    H140525   5.102   2.332   3.687  0.7965  0.7996 -0.0309
 6322TIP3    H240526   5.139   2.187   3.663 -0.2262  0.6673 -0.8603
 6323TIP3   OH240527   0.548   6.399   1.959 -0.2322 -0.0620 -0.0389
 6323TIP3    H140528   0.630   6.376   1.914  0.6258  1.0938  0.8665
 6323TIP3    H240529   0.521   6.317   2.000  1.0773 -0.2420  0.5420
 6324TIP3   OH240530   0.372   1.059   7.383  0.6749  0.2248 -0.2095
 6324TIP3    H140531   0.365   1.092   7.472 -0.6737 -0.0498 -0.2046
 6324TIP3    H240532   0.350   1.134   7.328  2.0081  0.5411 -0.3593
 6325TIP3   OH240533   4.784   6.927   2.024 -0.0068 -0.1753  0.2828
 6325TIP3    H140534   4.764   6.847   1.974 -0.6750  1.7942 -2.8626
 6325TIP3    H240535   4.699   6.968   2.037  0.5353  1.1375 -0.2132
 6326TIP3   OH240536   5.290   3.561   8.156  0.1796  0.6973  0.2542
 6326TIP3    H140537   5.343   3.572   8.235  0.9460  1.5719 -0.3496
 6326TIP3    H240538   5.346   3.595   8.086 -0.9574  1.0683 -0.4919
 6327TIP3   OH240539   1.935   6.292   1.654  0.1764  0.0316  0.9818
 6327TIP3    H140540   1.959   6.225   1.718 -1.3468 -0.5749  0.9800
 6327TIP3    H240541   1.859   6.335   1.694 -0.4567  0.0077 -0.1598
 6328TIP3   OH240542   5.810   4.869   1.358  0.4549 -0.1180  0.0186
 6328TIP3    H140543   5.775   4.906   1.277  2.4604 -0.4537 -1.0642
 6328TIP3    H240544   5.809   4.942   1.420 -1.8413 -0.0609 -0.0074
 6329TIP3   OH240545   5.977   4.127   7.697 -0.1676 -0.1424  0.3213
 6329TIP3    H140546   5.966   4.037   7.728 -1.9071 -0.4735 -1.0630
 6329TIP3    H240547   6.055   4.125   7.643 -0.2334 -0.8385  0.2469
 6330TIP3   OH240548   2.334   6.134   1.124  0.5233 -0.2523 -0.2305
 6330TIP3    H140549   2.336   6.104   1.215  0.3964 -0.3389 -0.2560
 6330TIP3    H240550   2.373   6.062   1.074 -0.0197 -0.4855 -0.3222
 6331TIP3   OH240551   6.141   2.768   2.642  0.0845  0.2274 -0.2799
 6331TIP3    H140552   6.093   2.723   2.711 -1.4768 -0.9460 -2.0254
 6331TIP3    H240553   6.224   2.720   2.634 -1.1495 -1.8425 -1.4484
 6332TIP3   OH240554   4.897   5.268   2.140  0.1084  0.1694  0.1388
 6332TIP3    H140555   4.964   5.233   2.199 -0.2905 -0.0220  0.4890
 6332TIP3    H240556   4.946   5.306   2.068  0.5608 -1.8505 -0.6987
 6333TIP3   OH240557   6.108   3.471   0.184  0.1452 -0.5117  0.7221
 6333TIP3    H140558   6.119   3.388   0.137  0.1469 -0.9843  1.5340
 6333TIP3    H240559   6.120   3.448   0.276  2.0225  0.7285  0.8340
 6334TIP3   OH240560   1.638   3.486   2.162 -0.2671 -0.4516  0.6906
 6334TIP3    H140561   1.664   3.398   2.137 -2.0395 -1.1539  1.2061
 6334TIP3    H240562   1.558   3.475   2.213  0.4588  1.3197  2.3623
 6335TIP3   OH240563   0.881   1.443   7.937 -0.0441  0.2000  0.1886
 6335TIP3    H140564   0.920   1.530   7.946 -0.1824  0.3038 -0.1910
 6335TIP3    H240565   0.864   1.434   7.844  2.1778 -1.1981 -0.1530
 6336TIP3   OH240566   2.157   3.569   1.380  0.0900  0.1552  0.5075
 6336TIP3    H140567   2.143   3.477   1.360  1.1167 -0.1567  1.1722
 6336TIP3    H240568   2.112   3.616   1.310 -1.7444 -0.8175  0.9804
 6337TIP3   OH240569   2.388   6.292   2.658  0.5269  0.2163 -0.1873
 6337TIP3    H140570   2.431   6.278   2.742 -1.3905 -1.0456  0.6602
 6337TIP3    H240571   2.349   6.379   2.665 -0.4857 -0.2844  0.6739
 6338TIP3   OH240572   4.286   5.529   1.177 -0.4652  0.1645 -0.5501
 6338TIP3    H140573   4.196   5.562   1.175 -1.6156 -2.6748 -0.6969
 6338TIP3    H240574   4.297   5.488   1.091  1.0384  0.5835 -0.5757
 6339TIP3   OH240575   6.008   6.558   1.920 -1.1720  0.0026 -0.0179
 6339TIP3    H140576   6.075   6.608   1.967 -1.7427 -0.1777  1.0241
 6339TIP3    H240577   5.935   6.619   1.911 -1.2926 -0.1574 -0.1258
 6340TIP3   OH240578   6.034   5.244   2.654  1.1753 -0.1836  0.4367
 6340TIP3    H140579   6.101   5.233   2.587  2.5114  0.0770  1.6884
 6340TIP3    H240580   6.030   5.339   2.668  0.5583 -0.1998  0.3979
 6341TIP3   OH240581   1.870   0.631   7.873  0.0501  0.3000  0.2051
 6341TIP3    H140582   1.950   0.630   7.820 -0.1452 -2.1163 -0.1685
 6341TIP3    H240583   1.804   0.590   7.817 -0.3535 -1.6778  2.0113
 6342TIP3   OH240584   0.652   0.177   2.802 -0.1470  0.0458 -0.1314
 6342TIP3    H140585   0.626   0.178   2.894 -0.4674 -3.6324 -0.0245
 6342TIP3    H240586   0.570   0.183   2.754  0.0505  2.4663 -0.3131
 6343TIP3   OH240587   6.496   2.807   2.241 -0.2621 -0.2726 -0.2103
 6343TIP3    H140588   6.587   2.802   2.211 -0.7211 -0.7906 -1.5899
 6343TIP3    H240589   6.469   2.716   2.251 -0.4031 -0.1182  0.9954
 6344TIP3   OH240590   2.771   3.500   8.281 -0.6607  0.1065 -0.1282
 6344TIP3    H140591   2.781   3.506   8.376 -1.8294  0.2142 -0.0046
 6344TIP3    H240592   2.805   3.413   8.259 -0.7723 -0.0847  0.4473
 6345TIP3   OH240593   0.598   1.987   1.757 -0.4487  0.0940  0.3105
 6345TIP3    H140594   0.590   2.059   1.695  3.3899  2.5025  2.2276
 6345TIP3    H240595   0.623   1.911   1.704 -2.0122  0.7478 -1.4754
 6346TIP3   OH240596   2.767   5.299   8.179  0.0604  0.0772 -0.0272
 6346TIP3    H140597   2.744   5.249   8.101  2.0848  0.0331 -0.6393
 6346TIP3    H240598   2.765   5.391   8.151  1.6521  0.0220 -0.4266
 6347TIP3   OH240599   3.031   4.099   1.801 -0.3468 -0.7109  0.0119
 6347TIP3    H140600   2.947   4.056   1.816 -0.2387 -0.6432  0.8754
 6347TIP3    H240601   3.039   4.106   1.706 -1.9052  0.4383 -0.0739
 6348TIP3   OH240602   4.944   2.204   1.326 -0.0199 -0.0867  0.0545
 6348TIP3    H140603   5.006   2.236   1.392 -1.7501  1.7591  0.8759
 6348TIP3    H240604   4.895   2.281   1.299 -1.7796 -1.4202 -0.7849
 6349TIP3   OH240605   1.280   0.263   2.816 -0.2370  0.2306  1.0762
 6349TIP3    H140606   1.366   0.266   2.775  0.0916 -1.1726  1.5993
 6349TIP3    H240607   1.278   0.341   2.872 -0.5997  2.0308 -1.3028
 6350TIP3   OH240608   0.387   5.442   3.616  0.2914 -0.2393 -0.0306
 6350TIP3    H140609   0.450   5.513   3.621  0.0229 -0.0840  2.6645
 6350TIP3    H240610   0.440   5.362   3.627  0.3345 -0.3421 -0.8818
 6351TIP3   OH240611   0.412   4.356   8.117 -0.0401  0.6851 -0.7034
 6351TIP3    H140612   0.464   4.414   8.061 -0.9856  1.4423 -0.8132
 6351TIP3    H240613   0.409   4.401   8.201  0.7918 -0.1187 -0.2251
 6352TIP3   OH240614   5.328   3.086   3.461  0.3162  0.2825  0.0700
 6352TIP3    H140615   5.253   3.128   3.419  0.0277 -1.4074 -1.1845
 6352TIP3    H240616   5.326   3.118   3.551 -0.0832  2.6439 -0.7084
 6353TIP3   OH240617   4.893   1.375   8.311  0.0858  0.3843  0.3457
 6353TIP3    H140618   4.857   1.332   8.388 -0.2913  0.4971  0.2337
 6353TIP3    H240619   4.921   1.461   8.343  0.4708  0.2095  0.4823
 6354TIP3   OH240620   4.916   5.060   2.745  0.2625 -0.3149  0.4007
 6354TIP3    H140621   4.876   5.139   2.781  1.8931  0.5697  0.3846
 6354TIP3    H240622   4.970   5.025   2.816 -1.0508 -1.8943  0.6635
 6355TIP3   OH240623   2.654   1.712   2.337 -0.6658 -0.0185  0.4603
 6355TIP3    H140624   2.730   1.716   2.395 -0.4555 -0.2448  0.1999
 6355TIP3    H240625   2.603   1.638   2.370 -0.4645 -0.2480  0.2567
 6356TIP3   OH240626   5.200   3.056   0.890  0.0771 -0.1280 -0.2713
 6356TIP3    H140627   5.125   3.049   0.831  1.8150  1.1845 -2.8540
 6356TIP3    H240628   5.213   3.150   0.903  1.2995 -0.3153  0.0476
 6357TIP3   OH240629   3.817   2.630   0.170  0.2175  0.2040 -0.0547
 6357TIP3    H140630   3.786   2.566   0.105 -0.7745 -0.1139  0.7176
 6357TIP3    H240631   3.857   2.576   0.238 -0.3305  0.4193  0.4427
 6358TIP3   OH240632   3.874   2.455   0.368 -0.3167  0.2793  0.0874
 6358TIP3    H140633   3.885   2.537   0.416 -0.6750  0.2826  0.1672
 6358TIP3    H240634   3.840   2.393   0.433  2.0694 -0.5782  0.6157
 6359TIP3   OH240635   3.929   4.455   0.954  0.1184  0.0006 -0.4964
 6359TIP3    H140636   3.974   4.375   0.980 -0.7074 -0.7720 -1.3516
 6359TIP3    H240637   3.962   4.474   0.867 -3.2477 -2.3087 -2.4999
 6360TIP3   OH240638   5.931   5.844   0.840  0.1752 -0.1357  0.3712
 6360TIP3    H140639   5.923   5.751   0.860  1.8123 -0.0864  1.4963
 6360TIP3    H240640   5.842   5.879   0.849 -0.7305 -1.7949 -1.4420
 6361TIP3   OH240641   3.213   0.035   0.018 -0.3925 -0.3568  0.0820
 6361TIP3    H140642   3.155  -0.002   0.085  2.3443  0.4851  3.1318
 6361TIP3    H240643   3.272  -0.037  -0.005 -0.5674 -0.2955 -0.5909
 6362TIP3   OH240644   5.011   3.809   3.259  0.0207 -0.6290  0.1108
 6362TIP3    H140645   4.992   3.901   3.240 -0.8908 -0.8955 -0.2963
 6362TIP3    H240646   4.926   3.769   3.273  0.4456 -1.2783  0.9592
 6363TIP3   OH240647   3.128   1.365   2.745  0.4745  0.2305  0.4941
 6363TIP3    H140648   3.095   1.379   2.833 -0.7284 -1.3427  0.3443
 6363TIP3    H240649   3.093   1.280   2.719  0.7547  0.6624 -1.5204
 6364TIP3   OH240650   2.187   5.268   1.703 -0.7237  0.0127  0.6692
 6364TIP3    H140651   2.207   5.178   1.679 -0.4400  0.3898 -0.5772
 6364TIP3    H240652   2.098   5.266   1.736 -0.9887 -0.6029 -0.0703
 6365TIP3   OH240653   6.757   4.297   1.706 -0.3176  0.0669  0.1167
 6365TIP3    H140654   6.848   4.302   1.679  0.3023 -0.2204  1.9644
 6365TIP3    H240655   6.750   4.213   1.752 -0.7578  1.2460  2.3707
 6366TIP3   OH240656   3.694   1.541   7.371 -0.6632  0.2700  0.1904
 6366TIP3    H140657   3.713   1.503   7.285  0.1764  0.2153  0.3877
 6366TIP3    H240658   3.740   1.625   7.370 -1.8689  0.9480  0.0459
 6367TIP3   OH240659   0.660   0.618   2.966 -0.2003  0.4276 -0.7209
 6367TIP3    H140660   0.588   0.561   2.992  0.6455  0.6155  2.3700
 6367TIP3    H240661   0.686   0.585   2.879 -1.8137 -1.7864 -0.4560
 6368TIP3   OH240662   5.070   4.836   0.212 -0.2166  0.0154  0.2682
 6368TIP3    H140663   5.013   4.825   0.288 -0.1883  1.7799  0.5775
 6368TIP3    H240664   5.035   4.912   0.166  1.3975  0.6708  0.0451
 6369TIP3   OH240665   3.488   5.613   0.539 -0.2385 -0.2917 -0.8369
 6369TIP3    H140666   3.560   5.677   0.542 -0.0589 -0.5223 -0.0050
 6369TIP3    H240667   3.454   5.620   0.450  1.0750 -0.4539 -1.3774
 6370TIP3   OH240668   2.047   6.676   2.556  0.4260  0.5826  0.3031
 6370TIP3    H140669   1.973   6.637   2.603  0.1744  2.3557  1.4912
 6370TIP3    H240670   2.019   6.766   2.538  1.2578  0.4980 -1.6676
 6371TIP3   OH240671   1.113   4.088   1.550 -0.1570  0.5648 -0.1152
 6371TIP3    H140672   1.175   4.160   1.542  0.1009  0.3621  0.0223
 6371TIP3    H240673   1.091   4.065   1.460  1.0544 -0.2822 -0.2293
 6372TIP3   OH240674   0.448   1.815   3.154 -0.3526  0.2370  0.1567
 6372TIP3    H140675   0.382   1.883   3.142 -0.5920 -0.3510 -2.3843
 6372TIP3    H240676   0.438   1.758   3.078  2.8451 -0.0730 -0.1511
 6373TIP3   OH240677   3.465   3.544   2.908 -0.1230 -0.4958 -0.5611
 6373TIP3    H140678   3.552   3.509   2.923  0.3944 -0.2672 -2.7068
 6373TIP3    H240679   3.420   3.535   2.992  1.6982 -1.3448  0.3633
 6374TIP3   OH240680   2.106   5.124   1.133 -0.8747 -0.1374 -0.2842
 6374TIP3    H140681   2.055   5.044   1.128  0.9244 -1.5135  1.4905
 6374TIP3    H240682   2.197   5.095   1.128 -0.1747  1.9940 -1.2826
 6375TIP3   OH240683   5.406   2.702   1.440 -0.4459 -0.0376 -0.1496
 6375TIP3    H140684   5.325   2.665   1.405 -0.1867  1.0338 -1.9653
 6375TIP3    H240685   5.410   2.791   1.405  1.7819 -0.2382 -0.5942
 6376TIP3   OH240686   6.523   6.068   3.352  0.2820  0.7439 -0.1011
 6376TIP3    H140687   6.445   6.031   3.311 -1.0365  0.6046  2.3649
 6376TIP3    H240688   6.576   5.991   3.374 -1.3057  0.3171  2.7481
 6377TIP3   OH240689   2.298   4.421   1.215 -0.0813  0.1059 -0.5291
 6377TIP3    H140690   2.218   4.441   1.264 -1.1623 -0.4841 -1.9899
 6377TIP3    H240691   2.350   4.502   1.221  0.0023 -0.0477  1.8305
 6378TIP3   OH240692   3.158   3.475   2.331 -0.1979  0.1851  0.2481
 6378TIP3    H140693   3.200   3.561   2.339 -1.9241  1.0144  0.9306
 6378TIP3    H240694   3.229   3.412   2.344  1.2912  1.4703 -1.1908
 6379TIP3   OH240695   3.036   1.360   1.849  0.0881  0.7400 -0.0330
 6379TIP3    H140696   3.130   1.352   1.867  0.0721  0.6111 -0.0082
 6379TIP3    H240697   2.993   1.334   1.931 -0.1114 -3.5968 -1.2952
 6380TIP3   OH240698   3.716   1.710   0.002 -0.2295  0.0119  0.1612
 6380TIP3    H140699   3.706   1.764   0.080 -1.2811  0.0159  0.0274
 6380TIP3    H240700   3.756   1.629   0.034  0.5850  0.5248  0.4898
 6381TIP3   OH240701   4.526   1.133   7.771  0.2612  0.5164  0.3137
 6381TIP3    H140702   4.564   1.183   7.842  0.0138 -0.2492  0.9992
 6381TIP3    H240703   4.437   1.112   7.800  0.2802 -0.1155 -0.0452
 6382TIP3   OH240704   0.311   4.112   8.416  0.6565  0.4856  0.1538
 6382TIP3    H140705   0.289   4.113   8.509 -0.6143 -0.2969 -0.1135
 6382TIP3    H240706   0.389   4.057   8.410 -0.4790 -1.2427  0.5448
 6383TIP3   OH240707   1.139   6.736   1.318  0.2987  0.6432  0.7289
 6383TIP3    H140708   1.145   6.640   1.317  0.4111  0.5829  2.6613
 6383TIP3    H240709   1.154   6.759   1.410  2.9160  2.7055 -0.1206
 6384TIP3   OH240710   6.073   0.087   7.831 -0.1723 -0.3843 -0.4601
 6384TIP3    H140711   6.002   0.150   7.846  0.3090 -0.0338  0.4144
 6384TIP3    H240712   6.114   0.117   7.749  0.0715  0.4865 -0.0398
 6385TIP3   OH240713   6.488   3.124   1.066  0.6737  0.0530  0.3629
 6385TIP3    H140714   6.475   3.087   0.979  0.9390  2.5417 -0.8376
 6385TIP3    H240715   6.574   3.093   1.093  0.3100 -1.2732  0.0473
 6386TIP3   OH240716   5.683   2.110   8.109  0.0882 -0.5267 -0.6489
 6386TIP3    H140717   5.755   2.055   8.142  1.2516  1.8603  1.0864
 6386TIP3    H240718   5.607   2.084   8.161  0.0756 -1.8785 -1.2985
 6387TIP3   OH240719   5.462   5.486   3.856  0.2458 -0.4479  0.1014
 6387TIP3    H140720   5.487   5.499   3.948  0.6376  3.1063 -0.4012
 6387TIP3    H240721   5.532   5.528   3.806 -1.5841  0.6122 -1.7075
 6388TIP3   OH240722   6.616   0.690   1.330 -0.3091  0.2149 -0.4773
 6388TIP3    H140723   6.541   0.671   1.273 -0.6549  0.6245 -0.1582
 6388TIP3    H240724   6.597   0.776   1.367 -0.3882 -0.3165  0.7521
 6389TIP3   OH240725   3.929   1.708   8.140 -0.2622  0.1254  0.2498
 6389TIP3    H140726   3.952   1.767   8.069  0.6670 -1.3717 -0.7590
 6389TIP3    H240727   3.986   1.733   8.212 -0.6252  1.1210  0.2012
 6390TIP3   OH240728   4.690   1.951   7.728  0.3149  0.3502 -0.2697
 6390TIP3    H140729   4.740   1.890   7.674  1.0045 -1.1123  1.8833
 6390TIP3    H240730   4.753   2.020   7.751  1.2977 -1.1860  1.9600
 6391TIP3   OH240731   3.926   3.051   2.338  0.0133 -0.6777 -0.1400
 6391TIP3    H140732   3.922   3.011   2.425 -1.5356 -0.3592 -0.0464
 6391TIP3    H240733   3.974   3.133   2.353 -1.9650  0.3838  0.8764
 6392TIP3   OH240734   3.409   4.382   1.252  0.4052 -0.0546 -0.2176
 6392TIP3    H140735   3.355   4.428   1.188  0.3234 -0.1657 -0.2297
 6392TIP3    H240736   3.477   4.444   1.275 -0.3381  0.4833  0.5981
 6393TIP3   OH240737   5.419   2.218   1.119 -0.1538  0.3447 -0.0098
 6393TIP3    H140738   5.491   2.241   1.059  1.5713  1.1059  2.2095
 6393TIP3    H240739   5.413   2.293   1.178 -1.8894 -0.3166  0.6934
 6394TIP3   OH240740   5.933   1.096   2.219 -0.4836 -0.7952  0.2189
 6394TIP3    H140741   5.957   1.007   2.243 -1.3634 -1.0622  0.1444
 6394TIP3    H240742   5.837   1.096   2.216 -0.4887  0.0265 -0.2491
 6395TIP3   OH240743   1.311   1.079   7.933  0.0445 -0.1250  0.1367
 6395TIP3    H140744   1.365   1.132   7.875  1.0539 -1.6309 -0.3644
 6395TIP3    H240745   1.305   0.994   7.889 -0.3769 -0.8545  1.5420
 6396TIP3   OH240746   6.639   6.603   0.362 -0.1118  0.2978  0.5351
 6396TIP3    H140747   6.690   6.675   0.398  0.7025 -0.5507  1.1192
 6396TIP3    H240748   6.642   6.535   0.429 -1.2242 -0.1330  0.1733
 6397TIP3   OH240749   1.767   6.914   1.210  0.3329 -0.0479  1.0937
 6397TIP3    H140750   1.704   6.873   1.269  0.3694 -0.9037  0.5461
 6397TIP3    H240751   1.715   6.977   1.161  0.2047  0.3144  1.6799
 6398TIP3   OH240752   0.606   6.657   2.014 -0.0926  0.3389 -0.6686
 6398TIP3    H140753   0.591   6.565   1.992  1.0802  0.0964 -0.5552
 6398TIP3    H240754   0.522   6.700   1.999 -0.9848 -0.9600  0.3562
 6399TIP3   OH240755   6.282   5.592   2.791 -0.1697  0.6232  0.7638
 6399TIP3    H140756   6.375   5.614   2.790 -0.0167  0.2303 -2.4445
 6399TIP3    H240757   6.279   5.503   2.827  0.8966  0.0842 -0.3856
 6400TIP3   OH240758   1.059   2.039   1.119  0.1684 -0.5248  0.3116
 6400TIP3    H140759   1.116   2.049   1.196  0.7052  0.0232 -0.1469
 6400TIP3    H240760   1.071   2.120   1.070 -2.3178  0.3719  1.0381
 6401TIP3   OH240761   5.240   3.862   1.352 -0.0350  0.1641 -0.2095
 6401TIP3    H140762   5.196   3.941   1.319 -1.4429 -0.6432 -0.3649
 6401TIP3    H240763   5.305   3.841   1.286 -0.2508  0.7043 -0.5979
 6402TIP3   OH240764   2.010   3.086   1.530  0.5078 -0.1026 -0.0416
 6402TIP3    H140765   2.017   3.035   1.611 -1.1236 -2.3241 -1.1826
 6402TIP3    H240766   2.099   3.089   1.495  1.6150  2.3971  2.5551
 6403TIP3   OH240767   4.510   5.162   1.909 -0.2631  0.2259  0.5536
 6403TIP3    H140768   4.479   5.073   1.891 -0.1026  0.1085  0.8615
 6403TIP3    H240769   4.501   5.207   1.825 -1.2539  0.1912  0.6292
 6404TIP3   OH240770   3.613   1.149   1.952  0.0824  0.1676  0.5629
 6404TIP3    H140771   3.532   1.109   1.920  0.2883  0.3995 -0.2714
 6404TIP3    H240772   3.645   1.089   2.020 -1.4245  0.6912  1.7887
 6405TIP3   OH240773   3.204   5.585   0.595 -0.1649  0.1955 -0.2970
 6405TIP3    H140774   3.277   5.646   0.587  0.4999 -0.6030 -0.3590
 6405TIP3    H240775   3.128   5.641   0.610  0.6448  0.9816  1.1193
 6406TIP3   OH240776   5.566   1.405   0.919 -0.2552  0.5354  0.4030
 6406TIP3    H140777   5.636   1.444   0.867  1.9258 -0.1302  2.6761
 6406TIP3    H240778   5.587   1.312   0.922 -2.2228  0.0173 -0.2146
 6407TIP3   OH240779   0.529   5.224   1.030 -0.4058  0.1204 -0.2732
 6407TIP3    H140780   0.533   5.298   0.971  1.4376 -0.8511 -1.4661
 6407TIP3    H240781   0.436   5.202   1.035 -0.6786  0.5912 -2.3847
 6408TIP3   OH240782   4.557   1.784   2.671 -0.1822  0.4512  0.1527
 6408TIP3    H140783   4.463   1.778   2.657 -0.1430  0.3272 -0.0569
 6408TIP3    H240784   4.566   1.823   2.758 -0.4413 -0.9912  0.8655
 6409TIP3   OH240785   6.190   3.202   2.535  0.5151 -0.3280 -0.2049
 6409TIP3    H140786   6.189   3.290   2.571  1.6100  0.0230 -0.9797
 6409TIP3    H240787   6.257   3.204   2.467 -1.6785 -0.8502 -2.5317
 6410TIP3   OH240788   3.151   3.404   1.321  0.2434  0.0666  0.2021
 6410TIP3    H140789   3.127   3.444   1.237  1.5534 -0.4623 -0.4578
 6410TIP3    H240790   3.134   3.311   1.308  0.3767 -0.0073  0.5489
 6411TIP3   OH240791   0.058   2.853   2.753 -0.4124  0.1765  0.0481
 6411TIP3    H140792   0.057   2.869   2.848 -1.1257  0.6122 -0.0207
 6411TIP3    H240793   0.006   2.774   2.742 -0.4549  0.2107  0.0066
 6412TIP3   OH240794   3.561   0.010   1.934 -0.4056 -0.7356 -0.8560
 6412TIP3    H140795   3.475   0.010   1.893 -0.5868  0.0935 -0.4951
 6412TIP3    H240796   3.560  -0.067   1.992 -1.4428  0.0431  0.2193
 6413TIP3   OH240797   6.861   0.648   1.196 -0.3092  0.2671  0.0914
 6413TIP3    H140798   6.774   0.661   1.234 -0.3920  2.6067 -0.7170
 6413TIP3    H240799   6.907   0.593   1.260 -1.7811  0.5622  1.4671
 6414TIP3   OH240800   1.807   4.331   0.129 -0.3194 -0.1697 -0.4924
 6414TIP3    H140801   1.887   4.382   0.121  0.6275 -1.1414  1.8553
 6414TIP3    H240802   1.814   4.265   0.060  1.0796 -0.4324 -0.1267
 6415TIP3   OH240803   3.324   3.971   0.748 -0.1563 -0.4698 -0.5361
 6415TIP3    H140804   3.405   3.988   0.797 -0.2895 -0.3183 -0.3709
 6415TIP3    H240805   3.254   3.985   0.811 -0.2477 -2.9939  0.0405
 6416TIP3   OH240806   0.109   1.191   7.735 -0.0017 -0.0073  0.0393
 6416TIP3    H140807   0.182   1.190   7.673  0.9521  0.6687  1.1089
 6416TIP3    H240808   0.050   1.258   7.701  0.4152  0.2254 -0.2432
 6417TIP3   OH240809   4.307   3.919   0.115 -0.9300 -0.2716  0.6332
 6417TIP3    H140810   4.400   3.920   0.091 -1.1975  0.3139 -0.4280
 6417TIP3    H240811   4.272   3.841   0.072 -1.3011  0.5041 -0.5323
 6418TIP3   OH240812   1.999   4.379   1.424  0.1158 -0.4483  0.2299
 6418TIP3    H140813   1.998   4.361   1.330  1.7163 -0.2952  0.1641
 6418TIP3    H240814   1.935   4.449   1.435 -1.8047 -2.0045 -0.3660
 6419TIP3   OH240815   5.653   2.141   3.013  0.1376 -0.3115 -0.3505
 6419TIP3    H140816   5.633   2.194   3.090  1.4796  0.5057 -0.5347
 6419TIP3    H240817   5.618   2.055   3.033 -1.6841  0.5010  0.1596
 6420TIP3   OH240818   2.074   2.084   3.490 -0.8277 -0.5640  0.7471
 6420TIP3    H140819   2.136   2.087   3.563 -0.0143 -0.9060  0.0854
 6420TIP3    H240820   2.037   2.172   3.486  0.6419  0.0560  0.2922
 6421TIP3   OH240821   0.883   4.523   8.451  0.0065 -0.1655  0.3717
 6421TIP3    H140822   0.799   4.479   8.443  0.2541 -0.7838  1.1195
 6421TIP3    H240823   0.897   4.562   8.365 -1.8853  1.4942  0.7272
 6422TIP3   OH240824   3.103   0.773   2.247  0.8570  0.4923 -0.1558
 6422TIP3    H140825   3.042   0.706   2.276  1.8655 -0.3626  0.0437
 6422TIP3    H240826   3.049   0.851   2.235 -0.4804 -0.5199 -1.0888
 6423TIP3   OH240827   5.546   3.447   0.156 -0.0856  0.0754  0.2366
 6423TIP3    H140828   5.641   3.449   0.167 -0.0882 -2.7902  1.6403
 6423TIP3    H240829   5.512   3.472   0.242 -0.4664 -2.4147  0.8808
 6424TIP3   OH240830   3.075   5.408   1.669  0.0033  0.2576 -0.3543
 6424TIP3    H140831   3.071   5.313   1.656  3.0525  0.0951 -0.6436
 6424TIP3    H240832   3.082   5.444   1.581 -1.1492  0.7930 -0.2471
 6425TIP3   OH240833   3.594   3.388   7.666 -0.7230  0.2103  0.1441
 6425TIP3    H140834   3.535   3.313   7.670 -0.1698 -0.1829  1.0166
 6425TIP3    H240835   3.536   3.463   7.652 -1.3702 -0.2471  0.3337
 6426TIP3   OH240836   5.303   5.201   2.078  0.0374  0.0546  0.2759
 6426TIP3    H140837   5.334   5.113   2.058 -1.1431 -0.4870  0.7387
 6426TIP3    H240838   5.355   5.258   2.021  0.1097 -1.0162 -0.7742
 6427TIP3   OH240839   3.759   1.604   0.626  0.3302  0.2876 -0.7588
 6427TIP3    H140840   3.798   1.691   0.629  1.0326 -0.0411  1.4848
 6427TIP3    H240841   3.830   1.544   0.647 -0.7859 -0.5314  0.9552
 6428TIP3   OH240842   2.941   5.661   2.523  0.3502 -0.5274 -1.0780
 6428TIP3    H140843   2.968   5.604   2.595  0.4070  0.9844  0.1762
 6428TIP3    H240844   2.888   5.605   2.466 -0.0432 -1.7013  0.3602
 6429TIP3   OH240845   1.508   1.274   3.666  0.4316 -0.1026 -0.1140
 6429TIP3    H140846   1.575   1.297   3.602  0.5914  0.6517  0.3099
 6429TIP3    H240847   1.433   1.329   3.643  0.5306  0.2548  0.4167
 6430TIP3   OH240848   4.101   3.637   3.269 -0.7696 -0.1837 -0.2738
 6430TIP3    H140849   4.020   3.652   3.222  0.9259  0.4562 -3.2425
 6430TIP3    H240850   4.120   3.720   3.313 -1.0326  0.0901 -0.6788
 6431TIP3   OH240851   3.099   0.742   7.002 -0.5321 -0.5830 -0.6129
 6431TIP3    H140852   3.020   0.720   7.053 -1.5561 -0.9941 -2.2878
 6431TIP3    H240853   3.132   0.657   6.972  0.2554 -0.3719 -0.3615
 6432TIP3   OH240854   4.748   1.804   0.802  0.3685  0.1156 -0.2130
 6432TIP3    H140855   4.707   1.726   0.840 -0.3190  2.1405  3.5977
 6432TIP3    H240856   4.743   1.870   0.870  3.6779  2.6813 -2.1610
 6433TIP3   OH240857   6.391   4.760   1.036  0.0849 -0.4927  0.3327
 6433TIP3    H140858   6.312   4.730   0.991 -0.3804 -2.3078  2.2356
 6433TIP3    H240859   6.462   4.714   0.991  0.1776  1.2801 -1.5033
 6434TIP3   OH240860   4.215   3.952   1.930 -0.5766  0.0560 -0.4797
 6434TIP3    H140861   4.301   3.919   1.905 -0.9047 -1.8285  0.7020
 6434TIP3    H240862   4.233   4.014   2.001 -0.2793 -3.2960  2.6713
 6435TIP3   OH240863   1.302   2.511   7.723  0.0482 -0.6056 -0.2178
 6435TIP3    H140864   1.286   2.605   7.711 -0.9767 -0.5932  1.1029
 6435TIP3    H240865   1.396   2.505   7.737 -0.0856  0.4261  1.3298
 6436TIP3   OH240866   6.215   3.991   1.098 -0.1707 -0.1037 -0.0172
 6436TIP3    H140867   6.181   3.916   1.050 -1.3117 -0.0951  0.7389
 6436TIP3    H240868   6.261   3.954   1.172 -0.6768 -0.0734  0.3195
 6437TIP3   OH240869   6.887   3.554   7.706  0.0295  0.1513  0.3389
 6437TIP3    H140870   6.938   3.554   7.787 -1.2387 -0.5995  1.1752
 6437TIP3    H240871   6.948   3.587   7.640  1.6887 -0.9276  1.2337
 6438TIP3   OH240872   5.329   6.366   3.540  0.1010  0.4329  0.4140
 6438TIP3    H140873   5.343   6.365   3.634  1.1764 -1.9535  0.2831
 6438TIP3    H240874   5.417   6.356   3.502 -0.3787  0.6657 -0.8346
 6439TIP3   OH240875   1.796   2.106   0.807  0.2695  0.1488  0.4657
 6439TIP3    H140876   1.800   2.083   0.714  0.4821 -2.1847  0.9739
 6439TIP3    H240877   1.702   2.114   0.826  0.1868 -0.2009  0.2158
 6440TIP3   OH240878   2.405   0.130   7.354 -0.1346 -0.3387 -0.4812
 6440TIP3    H140879   2.476   0.190   7.374  0.1731 -0.6890 -0.5262
 6440TIP3    H240880   2.364   0.168   7.276  1.5429 -1.4372 -1.9676
 6441TIP3   OH240881   5.586   2.213   8.408 -0.1580 -0.0642  0.1239
 6441TIP3    H140882   5.634   2.131   8.398 -1.6632 -1.1594  1.3993
 6441TIP3    H240883   5.508   2.190   8.459 -1.0212  2.0156 -0.1298
 6442TIP3   OH240884   4.922   2.405   3.689 -0.0218 -0.0591 -0.1637
 6442TIP3    H140885   4.984   2.447   3.629  0.1613  0.4835  0.3944
 6442TIP3    H240886   4.855   2.472   3.704 -1.5224 -1.0789 -1.8281
 6443TIP3   OH240887   3.012   2.020   0.314  0.2260 -0.0713 -0.2076
 6443TIP3    H140888   3.024   1.942   0.260  1.2577  0.9955 -1.6109
 6443TIP3    H240889   3.061   2.001   0.394  1.1545 -0.5568 -0.8716
 6444TIP3   OH240890   4.268   6.643   1.998  0.2590 -0.1037  0.0293
 6444TIP3    H140891   4.238   6.595   1.921 -0.6921  0.9903 -0.3125
 6444TIP3    H240892   4.307   6.723   1.963  0.3229  0.1491  0.6641
 6445TIP3   OH240893   4.422   6.371   1.807  0.1948  0.5466  0.2009
 6445TIP3    H140894   4.338   6.415   1.793  0.3255  0.5597 -0.5973
 6445TIP3    H240895   4.437   6.323   1.726  0.7891  0.2603  0.4793
 6446TIP3   OH240896   0.443   0.584   2.247 -0.5278  0.2651 -0.1343
 6446TIP3    H140897   0.503   0.526   2.294  1.5864  1.9265 -0.6345
 6446TIP3    H240898   0.356   0.558   2.278  0.5534 -0.7224  2.3760
 6447TIP3   OH240899   2.204   0.679   0.527 -0.1134 -0.1833 -0.0078
 6447TIP3    H140900   2.252   0.759   0.552 -3.3582  1.3609  2.0023
 6447TIP3    H240901   2.194   0.686   0.432  1.8998  0.3771 -0.2302
 6448TIP3   OH240902   3.931   4.838   1.597 -0.0640 -0.0799  0.1130
 6448TIP3    H140903   3.961   4.813   1.510 -0.1488  0.5974 -0.1139
 6448TIP3    H240904   3.840   4.808   1.601 -0.0663 -0.0948 -0.0382
 6449TIP3   OH240905   0.455   3.168   8.216 -0.1100  0.5122 -0.9402
 6449TIP3    H140906   0.456   3.229   8.289 -0.8294  2.5563 -2.5453
 6449TIP3    H240907   0.535   3.116   8.226  0.7082  1.9541  0.2877
 6450TIP3   OH240908   1.718   0.320   0.097 -0.4067 -0.4058 -0.3455
 6450TIP3    H140909   1.645   0.317   0.159  0.5541 -0.4203  0.8238
 6450TIP3    H240910   1.677   0.314   0.011 -1.7113 -1.5381  0.3138
 6451TIP3   OH240911   0.327   1.968   1.319 -0.1481  0.4788  0.4911
 6451TIP3    H140912   0.350   1.895   1.376 -2.4975 -0.4645  0.3621
 6451TIP3    H240913   0.268   2.022   1.372  0.5107  1.5832  0.1348
 6452TIP3   OH240914   1.556   0.787   8.354 -0.7323 -0.2939 -0.0886
 6452TIP3    H140915   1.517   0.859   8.403  0.5139  0.9248 -0.7840
 6452TIP3    H240916   1.482   0.740   8.316 -1.5830  2.2409 -1.8195
 6453TIP3   OH240917   2.670   4.407   8.489  0.0642  0.5717  0.1957
 6453TIP3    H140918   2.647   4.315   8.507 -1.6474  1.0286  0.5253
 6453TIP3    H240919   2.753   4.420   8.534  2.1303 -1.6881 -2.4929
 6454TIP3   OH240920   3.398   4.180   1.965  0.2590  0.6251  0.4801
 6454TIP3    H140921   3.474   4.127   1.989  0.7542  2.1317  2.4862
 6454TIP3    H240922   3.394   4.174   1.869  2.9455  0.5581  0.2951
 6455TIP3   OH240923   5.973   3.867   0.633  0.0009 -0.1136  0.1557
 6455TIP3    H140924   5.897   3.810   0.627  0.4691 -0.6171 -1.9595
 6455TIP3    H240925   5.951   3.943   0.577  0.9475 -0.1852 -0.3368
 6456TIP3   OH240926   4.800   4.637   1.432 -0.1912  0.0694 -0.0192
 6456TIP3    H140927   4.751   4.705   1.386 -0.8237 -0.4185 -0.0800
 6456TIP3    H240928   4.779   4.557   1.385  0.6929 -0.1430 -0.0571
 6457TIP3   OH240929   4.741   4.730   1.696  0.2235  0.4482  0.2613
 6457TIP3    H140930   4.664   4.683   1.728 -0.1928  1.1304  0.2894
 6457TIP3    H240931   4.765   4.685   1.615  1.1914 -1.1999  1.3945
 6458TIP3   OH240932   0.432   3.589   0.657  0.0850 -0.1518 -0.3993
 6458TIP3    H140933   0.389   3.661   0.703  0.8683  0.4604 -0.5945
 6458TIP3    H240934   0.363   3.525   0.641 -0.8562  1.0402 -1.1735
 6459TIP3   OH240935   2.356   4.261   8.235  0.3934  0.3930 -0.7237
 6459TIP3    H140936   2.373   4.354   8.243  1.6363  0.2271 -1.1721
 6459TIP3    H240937   2.429   4.228   8.182 -0.3427 -0.7298 -1.0654
 6460TIP3   OH240938   1.667   0.425   0.779 -0.3271  0.1094 -0.0044
 6460TIP3    H140939   1.574   0.404   0.790 -0.8673  0.7497 -2.6694
 6460TIP3    H240940   1.682   0.497   0.841 -1.4189 -0.4021  0.9085
 6461TIP3   OH240941   3.651   0.439   8.260 -0.0831 -0.5139 -0.6065
 6461TIP3    H140942   3.586   0.383   8.218 -0.6178  0.2103 -0.7601
 6461TIP3    H240943   3.681   0.498   8.190  0.4141 -0.5519 -0.4303
 6462TIP3   OH240944   3.977   1.087   0.197  0.2879  0.9667 -0.2379
 6462TIP3    H140945   3.921   1.153   0.158  0.6718  0.9674 -0.8065
 6462TIP3    H240946   3.932   1.004   0.180  0.3932  0.9783 -0.5889
 6463TIP3   OH240947   5.008   4.523   2.484  0.3018  0.8494  0.3077
 6463TIP3    H140948   5.017   4.432   2.457 -1.0025  1.1489 -1.2681
 6463TIP3    H240949   4.943   4.521   2.554 -1.6458  0.7672 -1.3987
 6464TIP3   OH240950   4.122   2.513   2.221  0.2235 -0.3469  0.6676
 6464TIP3    H140951   4.034   2.544   2.239 -1.1553 -1.9413 -2.4006
 6464TIP3    H240952   4.154   2.571   2.151 -0.6300 -2.7723 -1.9469
 6465TIP3   OH240953   4.240   0.807   1.506  0.6730 -0.3185 -0.0966
 6465TIP3    H140954   4.208   0.779   1.421  1.4777 -1.8780  0.0748
 6465TIP3    H240955   4.167   0.857   1.544 -0.4040 -1.1993 -0.9280
 6466TIP3   OH240956   1.075   0.531   0.546 -0.4806 -0.6284  0.5022
 6466TIP3    H140957   1.026   0.469   0.599 -2.5221 -0.6395 -1.2844
 6466TIP3    H240958   1.087   0.607   0.603 -4.2075  0.1044  0.5679
 6467TIP3   OH240959   4.264   2.171   1.705 -0.1263  0.0102 -0.0204
 6467TIP3    H140960   4.344   2.218   1.728 -0.3398 -0.1541  1.0769
 6467TIP3    H240961   4.239   2.208   1.620  0.9661  0.2386 -0.2578
 6468TIP3   OH240962   6.041   6.815   0.845  0.2148 -0.2211 -0.4659
 6468TIP3    H140963   6.084   6.861   0.773 -0.4887 -0.8206 -1.2942
 6468TIP3    H240964   5.970   6.874   0.871  0.6716  0.1442 -0.0299
 6469TIP3   OH240965   0.264   3.870   3.523 -0.2538  0.5810  0.5726
 6469TIP3    H140966   0.345   3.838   3.563 -0.7742  0.1614  1.3248
 6469TIP3    H240967   0.241   3.948   3.573 -0.3796  0.6249  0.4472
 6470TIP3   OH240968   6.650   3.751   1.313  0.5839  0.4028  0.3465
 6470TIP3    H140969   6.685   3.840   1.320  0.4567  0.3340  4.1426
 6470TIP3    H240970   6.716   3.696   1.355 -0.6478 -0.8351  0.7265
 6471TIP3   OH240971   4.101   5.851   8.023  0.2992 -0.2112 -0.4113
 6471TIP3    H140972   4.165   5.902   8.073  0.8005  1.8971 -3.0035
 6471TIP3    H240973   4.144   5.833   7.940 -1.7331 -0.5170 -1.4618
 6472TIP3   OH240974   0.194   6.132   1.893  0.0435 -0.6420  0.6303
 6472TIP3    H140975   0.155   6.138   1.805  0.7883  0.3498  0.3407
 6472TIP3    H240976   0.215   6.223   1.915  1.6283 -1.0810  1.0200
 6473TIP3   OH240977   0.888   6.043   3.416  0.4297 -0.4271 -0.1048
 6473TIP3    H140978   0.831   5.980   3.372 -1.9076  0.8202  0.9867
 6473TIP3    H240979   0.864   6.036   3.508  1.6910  0.5479  0.3236
 6474TIP3   OH240980   6.760   0.711   8.260 -0.0607  0.1149 -0.1064
 6474TIP3    H140981   6.745   0.769   8.185 -1.4701 -0.3287 -0.1912
 6474TIP3    H240982   6.840   0.663   8.237 -0.3469  0.1456 -1.2220
 6475TIP3   OH240983   6.632   3.902   7.571 -0.1601 -0.1273 -0.0623
 6475TIP3    H140984   6.630   3.931   7.662 -0.9195 -0.4965  0.0511
 6475TIP3    H240985   6.556   3.944   7.530  0.9066  1.0797 -0.8716
 6476TIP3   OH240986   1.523   4.545   2.823  0.0046  0.2348 -0.0688
 6476TIP3    H140987   1.436   4.576   2.849 -0.1021 -1.6249  2.1425
 6476TIP3    H240988   1.581   4.619   2.843 -0.9316  1.1730 -0.7034
 6477TIP3   OH240989   3.084   6.708   0.166 -0.4522  0.2361  0.3247
 6477TIP3    H140990   3.047   6.624   0.139  0.6510 -0.0606 -0.3269
 6477TIP3    H240991   3.153   6.685   0.228 -0.9112  0.7401  1.0356
 6478TIP3   OH240992   5.698   1.270   1.254 -0.1120  0.2552  0.5350
 6478TIP3    H140993   5.634   1.341   1.249  0.2518  0.6023  0.7408
 6478TIP3    H240994   5.645   1.191   1.261 -0.5656  0.3154 -1.5265
 6479TIP3   OH240995   4.663   1.973   1.251 -0.0239  0.3297  0.1167
 6479TIP3    H140996   4.617   2.056   1.252 -0.9495 -0.1651 -0.0168
 6479TIP3    H240997   4.712   1.971   1.334 -0.6244  0.6645  0.4786
 6480TIP3   OH240998   4.620   5.348   0.625  0.0759 -0.0152  0.4790
 6480TIP3    H140999   4.607   5.340   0.531 -0.3180 -1.1723  0.6277
 6480TIP3    H241000   4.708   5.312   0.641  1.7581  3.4345  0.1232
 6481TIP3   OH241001   4.635   2.654   2.002 -0.1480 -0.1802  0.0000
 6481TIP3    H141002   4.658   2.643   1.910 -1.7581 -0.1283 -0.4371
 6481TIP3    H241003   4.586   2.737   2.005  0.0652 -0.0783  0.9342
 6482TIP3   OH241004   6.601   1.431   0.685 -0.3728 -0.4750 -0.5067
 6482TIP3    H141005   6.525   1.433   0.743  0.6492 -0.5838  0.8805
 6482TIP3    H241006   6.601   1.343   0.647  0.1488 -1.1499  1.0036
 6483TIP3   OH241007   1.698   5.368   1.218  0.3881  0.4834  0.1661
 6483TIP3    H141008   1.641   5.401   1.149 -0.3993 -1.4545 -0.1773
 6483TIP3    H241009   1.773   5.428   1.219 -0.3394  1.4566 -1.2751
 6484TIP3   OH241010   0.088   5.946   2.285  0.0436  0.0438  0.2276
 6484TIP3    H141011  -0.001   5.911   2.299 -1.1811  1.2095 -3.5859
 6484TIP3    H241012   0.115   5.909   2.201  1.9847  1.9543 -0.0494
 6485TIP3   OH241013   0.969   4.683   0.924 -0.4155 -0.0999 -0.7822
 6485TIP3    H141014   0.894   4.700   0.980  0.7420 -0.1808  0.8804
 6485TIP3    H241015   0.958   4.593   0.895  0.4764 -1.1769  1.9047
 6486TIP3   OH241016   4.518   1.431   3.683 -0.0880 -0.3457 -0.0370
 6486TIP3    H141017   4.562   1.452   3.600 -1.4467  0.7237 -0.5257
 6486TIP3    H241018   4.425   1.446   3.666 -0.5183 -1.1526  1.3835
 6487TIP3   OH241019   4.646   5.138   2.159 -0.4740  0.1189 -0.0752
 6487TIP3    H141020   4.605   5.149   2.074  0.1303 -2.6312 -0.8157
 6487TIP3    H241021   4.736   5.170   2.146 -0.2452 -0.7167 -0.6417
 6488TIP3   OH241022   1.201   0.839   2.552  0.0020 -0.2031  0.2251
 6488TIP3    H141023   1.186   0.798   2.467  0.8921  0.6146 -0.3452
 6488TIP3    H241024   1.264   0.781   2.596 -0.0735 -0.3634  0.1219
 6489TIP3   OH241025   1.739   2.433   2.350 -0.1648  0.0478  0.3090
 6489TIP3    H141026   1.717   2.394   2.265 -0.9110  0.1787  0.4295
 6489TIP3    H241027   1.833   2.421   2.359 -0.3526 -1.6317  0.2907
 6490TIP3   OH241028   6.946   6.783   2.163 -0.3988 -0.1259  0.4318
 6490TIP3    H141029   7.014   6.849   2.149  1.1138 -1.3011  1.7279
 6490TIP3    H241030   6.890   6.820   2.231  0.7655 -0.3328  1.5577
 6491TIP3   OH241031   4.883   1.463   1.524  0.0091  0.1426 -0.0753
 6491TIP3    H141032   4.835   1.446   1.442 -1.3417 -1.1512  0.9301
 6491TIP3    H241033   4.827   1.427   1.592  0.8915  1.6117  1.4955
 6492TIP3   OH241034   4.959   2.207   1.647  0.6380  0.4275  0.9447
 6492TIP3    H141035   5.042   2.212   1.694  1.6449 -1.9800 -0.4018
 6492TIP3    H241036   4.902   2.155   1.704  0.9189 -0.0654  0.7855
 6493TIP3   OH241037   4.836   5.135   0.679 -0.2637 -0.3544  0.6474
 6493TIP3    H141038   4.874   5.110   0.595 -0.9132  0.1727  0.1843
 6493TIP3    H241039   4.910   5.135   0.740  0.7484  1.7711 -0.4614
 6494TIP3   OH241040   5.217   2.554   1.715  0.4545  0.5789 -0.2766
 6494TIP3    H141041   5.297   2.607   1.718  0.3397  0.8351 -1.1815
 6494TIP3    H241042   5.233   2.491   1.645  1.4804 -2.1540  2.2102
 6495TIP3   OH241043   5.262   6.488   3.103 -0.2539 -0.1662 -0.1529
 6495TIP3    H141044   5.235   6.424   3.169  0.9984 -0.4342  0.1231
 6495TIP3    H241045   5.200   6.475   3.031 -1.3862 -0.1560  0.7857
 6496TIP3   OH241046   6.659   6.291   3.339  0.3225 -0.0037  0.4693
 6496TIP3    H141047   6.610   6.211   3.358  0.8661 -0.5300 -0.2793
 6496TIP3    H241048   6.670   6.290   3.244  0.8904  0.6407  0.5211
 6497TIP3   OH241049   1.377   1.200   8.181 -0.2192  0.2794 -0.8826
 6497TIP3    H141050   1.372   1.133   8.113  1.2604  0.2954 -1.0340
 6497TIP3    H241051   1.291   1.242   8.180 -0.5180 -0.3355 -2.1074
 6498TIP3   OH241052   4.061   2.205   1.261  0.7337  0.2163 -0.6830
 6498TIP3    H141053   4.148   2.182   1.230  0.7756 -0.4727 -0.0865
 6498TIP3    H241054   4.045   2.145   1.334  0.1539  0.9844 -0.1604
 6499TIP3   OH241055   3.167   6.235   0.839  0.5265  0.3812  0.5890
 6499TIP3    H141056   3.096   6.255   0.778  1.7676 -0.3719 -1.1913
 6499TIP3    H241057   3.150   6.291   0.915 -3.4667 -1.6552  1.4645
 6500TIP3   OH241058   4.960   3.867   1.212  0.2851  0.1828 -0.2256
 6500TIP3    H141059   4.885   3.820   1.176  0.7150  0.6972 -1.9027
 6500TIP3    H241060   4.964   3.840   1.303 -0.6812 -1.4535 -0.6322
 6501TIP3   OH241061   0.422   4.153   0.821  0.6841 -0.3401 -0.4999
 6501TIP3    H141062   0.356   4.166   0.752  0.0578 -3.4209 -0.6304
 6501TIP3    H241063   0.374   4.167   0.903  0.9114  1.2337 -0.5937
 6502TIP3   OH241064   0.403   4.442   2.870 -0.1708  0.1702  0.1991
 6502TIP3    H141065   0.342   4.515   2.883 -0.2460 -0.0720  1.2637
 6502TIP3    H241066   0.361   4.368   2.913 -1.0599 -1.0699 -2.5813
 6503TIP3   OH241067   4.950   1.779   3.008  0.0022 -0.2942  0.1182
 6503TIP3    H141068   5.011   1.836   3.053 -1.7856  2.0019 -0.1873
 6503TIP3    H241069   4.949   1.810   2.918 -2.8901  1.0220  0.4904
 6504TIP3   OH241070   0.012   5.104   1.297 -0.1677 -0.2585 -0.0430
 6504TIP3    H141071   0.041   5.083   1.208  1.5967  0.5455  0.2993
 6504TIP3    H241072   0.050   5.190   1.315  1.3041 -1.2795  2.2182
 6505TIP3   OH241073   3.564   0.804   8.467  0.1081 -0.2844 -0.0786
 6505TIP3    H141074   3.506   0.863   8.515 -1.8814  0.3149 -2.9428
 6505TIP3    H241075   3.597   0.856   8.394  2.5508 -1.2911  0.1970
 6506TIP3   OH241076   5.478   5.210   1.491  0.7152  0.1884 -0.5841
 6506TIP3    H141077   5.409   5.272   1.513 -0.0351 -1.1798  1.1750
 6506TIP3    H241078   5.552   5.236   1.547 -0.2134 -1.5016  1.5974
 6507TIP3   OH241079   2.847   3.900   1.624 -1.0473  0.3599  0.3655
 6507TIP3    H141080   2.886   3.966   1.567 -1.8754 -0.1804 -0.8921
 6507TIP3    H241081   2.824   3.947   1.704 -0.0109  1.1860  0.1964
 6508TIP3   OH241082   6.575   5.614   7.991 -0.0564 -0.0104  0.0400
 6508TIP3    H141083   6.525   5.602   8.072  0.3815  1.1741  0.5231
 6508TIP3    H241084   6.596   5.708   7.990 -0.4666  0.1024 -1.7028
 6509TIP3   OH241085   2.883   5.882   1.537 -0.4674  0.3284  0.2261
 6509TIP3    H141086   2.920   5.866   1.450  0.0929 -0.2563  0.5631
 6509TIP3    H241087   2.864   5.795   1.572  1.8301  0.3329  1.7433
 6510TIP3   OH241088   5.640   5.715   2.126 -0.0104 -0.2186 -0.1318
 6510TIP3    H141089   5.630   5.806   2.099 -1.2385 -0.7099 -1.4680
 6510TIP3    H241090   5.706   5.679   2.067 -0.2001 -0.4257 -0.2200
 6511TIP3   OH241091   0.877   5.536   1.735  0.4893  0.2608 -0.3296
 6511TIP3    H141092   0.941   5.502   1.672  0.5366  0.7855 -0.5710
 6511TIP3    H241093   0.924   5.605   1.782  1.4311 -2.0733  2.3915
 6512TIP3   OH241094   3.751   1.695   3.164  0.3823 -0.3127  0.0933
 6512TIP3    H141095   3.828   1.743   3.192 -0.1959  0.5973  0.1630
 6512TIP3    H241096   3.679   1.758   3.169 -0.3749 -1.1333  0.0353
 6513TIP3   OH241097   5.609   1.722   7.762 -0.2480  0.4917  0.1772
 6513TIP3    H141098   5.682   1.661   7.774 -0.2440  0.5742  0.5690
 6513TIP3    H241099   5.576   1.739   7.850  0.7679  2.2899  0.2667
 6514TIP3   OH241100   6.832   6.614   1.145 -0.1341  0.1338 -0.0029
 6514TIP3    H141101   6.925   6.590   1.149  0.3356  1.7881 -0.2408
 6514TIP3    H241102   6.810   6.606   1.052 -0.1821 -0.0765  0.0260
 6515TIP3   OH241103   3.969   6.941   3.492 -0.1627 -0.6643 -0.0723
 6515TIP3    H141104   3.998   6.876   3.427 -1.9945 -0.8482 -0.7710
 6515TIP3    H241105   3.989   6.900   3.576 -0.8477 -1.9715 -0.5018
 6516TIP3   OH241106   0.847   2.196   0.675 -0.1308  0.1544 -0.1157
 6516TIP3    H141107   0.827   2.132   0.743  1.0157  0.5421  0.6205
 6516TIP3    H241108   0.855   2.145   0.594  2.1284 -0.8818  0.6863
 6517TIP3   OH241109   6.308   6.334   7.579 -0.3941  0.1102  0.6325
 6517TIP3    H141110   6.259   6.403   7.624 -2.1932 -1.3008  0.9314
 6517TIP3    H241111   6.242   6.281   7.536  0.9763 -1.2068  0.0548
 6518TIP3   OH241112   6.061   3.745   3.081 -0.4535  0.4356  0.2070
 6518TIP3    H141113   5.979   3.772   3.040  0.2247  0.2467 -1.3337
 6518TIP3    H241114   6.045   3.655   3.110 -0.2970 -0.2136 -1.6069
 6519TIP3   OH241115   4.920   5.307   0.408 -0.9614  0.1719 -0.3857
 6519TIP3    H141116   5.014   5.319   0.392 -0.7963  0.8527  0.9549
 6519TIP3    H241117   4.878   5.355   0.337 -0.3038  0.4211 -0.6191
 6520TIP3   OH241118   0.187   5.579   1.290 -0.2587 -0.4873 -0.2952
 6520TIP3    H141119   0.205   5.493   1.252  0.3605 -0.2967 -0.4545
 6520TIP3    H241120   0.151   5.630   1.217  0.7040 -0.1934 -0.5775
 6521TIP3   OH241121   3.135   4.889   2.087  0.4718 -0.2264  0.1432
 6521TIP3    H141122   3.052   4.871   2.044 -1.3503  0.9223  2.9373
 6521TIP3    H241123   3.179   4.951   2.029 -1.9885  1.4986 -0.0269
 6522TIP3   OH241124   3.988   1.132   1.143  0.4455 -0.0148  0.1860
 6522TIP3    H141125   4.080   1.132   1.115  0.1408 -0.4120 -0.8935
 6522TIP3    H241126   3.970   1.223   1.165  0.3630  0.6407 -2.2914
 6523TIP3   OH241127   5.601   5.410   2.109 -0.4780  0.0607 -0.1157
 6523TIP3    H141128   5.594   5.315   2.115  0.1459  0.0022 -0.2646
 6523TIP3    H241129   5.611   5.439   2.199  2.2068 -0.2666 -0.2366
 6524TIP3   OH241130   6.577   5.664   1.673  0.0589  0.2413  0.1765
 6524TIP3    H141131   6.612   5.626   1.592  1.4314 -0.4900  1.0765
 6524TIP3    H241132   6.631   5.741   1.689  1.0158 -0.6431  1.3459
 6525TIP3   OH241133   5.518   6.359   7.940 -0.2470  0.4398  0.1905
 6525TIP3    H141134   5.494   6.292   7.876  1.1064  1.4185 -1.4143
 6525TIP3    H241135   5.605   6.332   7.971 -0.7297  0.1797  1.3935
 6526TIP3   OH241136   2.752   4.550   2.634  0.2828  0.0855 -0.3145
 6526TIP3    H141137   2.767   4.479   2.572  1.8955  0.1056  0.0262
 6526TIP3    H241138   2.794   4.520   2.715  1.1034  1.4695 -0.2097
 6527TIP3   OH241139   4.094   3.442   1.683 -0.6679 -0.4954  0.2864
 6527TIP3    H141140   4.156   3.370   1.689  0.8931  0.3562 -3.0576
 6527TIP3    H241141   4.023   3.409   1.629 -0.7571 -0.0159  0.1016
 6528TIP3   OH241142   4.866   3.676   7.593 -0.0726 -0.4629  0.8384
 6528TIP3    H141143   4.806   3.712   7.658  2.0688  0.0373  2.6763
 6528TIP3    H241144   4.849   3.726   7.514 -2.3593 -0.6716  1.1399
 6529TIP3   OH241145   6.338   1.398   0.799  0.1830 -0.3473 -0.4234
 6529TIP3    H141146   6.356   1.473   0.855  1.1842 -0.9694  0.1114
 6529TIP3    H241147   6.278   1.432   0.732  0.8512  0.9915 -0.3705
 6530TIP3   OH241148   3.539   5.273   3.660 -0.2239  0.1996  0.2222
 6530TIP3    H141149   3.598   5.268   3.584  1.5659 -0.6687  1.5706
 6530TIP3    H241150   3.453   5.289   3.622  0.4012 -1.2857 -2.0894
 6531TIP3   OH241151   1.083   6.943   1.122  0.0739  0.1409 -0.1672
 6531TIP3    H141152   1.114   6.874   1.181  2.0076  0.6296 -0.5592
 6531TIP3    H241153   1.037   6.896   1.053  1.3131 -0.7783 -0.4013
 6532TIP3   OH241154   5.940   5.816   3.415  0.4824  0.1286  0.3879
 6532TIP3    H141155   6.004   5.886   3.429  0.1617  0.5457 -0.1859
 6532TIP3    H241156   5.958   5.784   3.327  1.8101 -1.7757  1.2797
 6533TIP3   OH241157   3.759   4.807   8.442 -0.1392  0.2416 -0.0059
 6533TIP3    H141158   3.759   4.887   8.495 -0.5179 -0.4194  1.0186
 6533TIP3    H241159   3.850   4.797   8.415 -0.0433  0.9000  0.0357
 6534TIP3   OH241160   5.592   0.802   0.402  0.1553 -0.7732  0.9004
 6534TIP3    H141161   5.627   0.886   0.432 -0.3004 -0.3421  0.2796
 6534TIP3    H241162   5.639   0.784   0.320  1.3088 -1.8773  1.7669
 6535TIP3   OH241163   5.998   0.228   1.491  0.2162 -0.0482 -0.0928
 6535TIP3    H141164   6.090   0.211   1.510  0.1952 -0.2349 -0.1651
 6535TIP3    H241165   5.958   0.142   1.481  0.1878  0.0430 -0.7998
 6536TIP3   OH241166   1.599   3.425   1.457  0.4685  0.8544 -0.4587
 6536TIP3    H141167   1.586   3.354   1.394 -1.7733 -0.1214  0.9945
 6536TIP3    H241168   1.514   3.436   1.500  0.6714  4.4923 -0.6067
 6537TIP3   OH241169   0.751   5.972   2.134  0.1465  0.3683 -0.0841
 6537TIP3    H141170   0.798   6.047   2.171  0.6705  1.1126 -2.1421
 6537TIP3    H241171   0.738   5.994   2.042 -0.1536 -1.8518 -0.6339
 6538TIP3   OH241172   4.853   3.266   0.131  0.3903 -0.1062  0.1738
 6538TIP3    H141173   4.777   3.280   0.075  0.2139 -1.6324 -0.0264
 6538TIP3    H241174   4.928   3.275   0.072  0.3890  1.4324  0.3785
 6539TIP3   OH241175   0.518   0.614   1.522  0.4005  0.1610  0.4603
 6539TIP3    H141176   0.485   0.524   1.521 -1.6855  0.8690 -0.2381
 6539TIP3    H241177   0.483   0.651   1.603  1.6664  0.2290  0.9948
 6540TIP3   OH241178   0.825   3.628   0.344  0.7310  0.0783 -0.1474
 6540TIP3    H141179   0.846   3.656   0.433  2.9379 -0.5561 -0.4104
 6540TIP3    H241180   0.736   3.593   0.350  0.6819  0.4272  1.7099
 6541TIP3   OH241181   2.150   6.102   0.303 -0.1715 -0.4870 -0.1026
 6541TIP3    H141182   2.068   6.072   0.343  0.6374 -1.9653  0.5617
 6541TIP3    H241183   2.177   6.176   0.357 -1.2493  0.2614 -0.5651
 6542TIP3   OH241184   4.577   1.109   3.251  0.1683 -0.2761 -0.1436
 6542TIP3    H141185   4.523   1.065   3.186  0.7843  0.5635 -1.2691
 6542TIP3    H241186   4.661   1.063   3.247  0.4067  0.1732 -0.4109
 6543TIP3   OH241187   3.795   5.521   1.693  0.1410  0.4869  0.0115
 6543TIP3    H141188   3.783   5.434   1.730 -1.2633  0.2313 -0.9473
 6543TIP3    H241189   3.739   5.522   1.615 -1.2222  2.7711  0.8844
 6544TIP3   OH241190   6.263   5.474   0.511 -0.0371  0.0096 -0.2304
 6544TIP3    H141191   6.257   5.417   0.434  0.2618 -0.6134  0.2023
 6544TIP3    H241192   6.357   5.483   0.526  0.0807 -3.7831  2.8772
 6545TIP3   OH241193   2.651   5.282   3.084 -0.3238 -0.0056  0.5085
 6545TIP3    H141194   2.683   5.355   3.137 -1.3470  0.5261  0.4326
 6545TIP3    H241195   2.622   5.217   3.148 -1.1382  0.4482  0.6223
 6546TIP3   OH241196   3.890   2.816   1.489  0.0050 -0.5324 -0.1949
 6546TIP3    H141197   3.799   2.791   1.472  0.2753 -0.6314 -1.6706
 6546TIP3    H241198   3.890   2.911   1.483  0.1526 -0.5797 -1.2002
 6547TIP3   OH241199   2.493   3.147   7.684 -0.3751 -0.6630 -0.0074
 6547TIP3    H141200   2.565   3.208   7.668  0.3926 -1.5297  0.0617
 6547TIP3    H241201   2.417   3.188   7.642  0.1148  0.3342  0.0430
 6548TIP3   OH241202   5.383   5.602   2.111 -0.5346  0.3751 -0.3092
 6548TIP3    H141203   5.400   5.643   2.196 -2.6293  0.4169  0.1409
 6548TIP3    H241204   5.468   5.570   2.083  0.1583  0.0211  1.9816
 6549TIP3   OH241205   4.569   1.775   3.512  0.6727 -0.4903 -0.0486
 6549TIP3    H141206   4.516   1.714   3.461  0.5153  0.3414 -0.9202
 6549TIP3    H241207   4.507   1.816   3.573  0.2814  0.4701 -1.0554
 6550TIP3   OH241208   2.515   2.303   0.786 -0.4458 -0.1407  0.4607
 6550TIP3    H141209   2.578   2.324   0.717  0.5021 -2.3157  0.6004
 6550TIP3    H241210   2.431   2.331   0.751  0.0473 -1.0074 -1.5392
 6551TIP3   OH241211   1.283   1.786   1.200  0.0606  0.6045  0.0112
 6551TIP3    H141212   1.299   1.729   1.275 -1.5874 -1.4002 -1.0435
 6551TIP3    H241213   1.278   1.874   1.236  3.2740  0.2538  1.6591
 6552TIP3   OH241214   6.493   0.117   1.842 -0.4316  0.6711 -0.2822
 6552TIP3    H141215   6.475   0.023   1.841  0.5050  0.4868 -0.7556
 6552TIP3    H241216   6.452   0.150   1.762 -0.5201  0.6154 -0.2598
 6553TIP3   OH241217   3.274   5.602   8.349  0.4793  0.1627  0.0488
 6553TIP3    H141218   3.248   5.534   8.411  0.2162 -1.3601 -1.6536
 6553TIP3    H241219   3.194   5.622   8.300  1.0997 -0.0300 -1.0612
 6554TIP3   OH241220   2.321   6.079   2.960  0.0486 -0.1469 -0.6809
 6554TIP3    H141221   2.234   6.070   2.920 -0.1810 -0.3844 -0.1388
 6554TIP3    H241222   2.306   6.061   3.053  0.1767  2.4624 -0.0596
 6555TIP3   OH241223   1.996   6.635   2.895  0.3139  0.2494 -0.3333
 6555TIP3    H141224   2.010   6.543   2.870  2.1299  0.6387 -0.8672
 6555TIP3    H241225   2.036   6.643   2.981  2.0680  1.0036 -1.1775
 6556TIP3   OH241226   2.727   3.366   0.130 -0.8011 -0.5438 -0.5907
 6556TIP3    H141227   2.707   3.285   0.082  1.4831 -0.6175 -1.5254
 6556TIP3    H241228   2.820   3.380   0.115 -0.3657  0.4409  2.3963
 6557TIP3   OH241229   5.521   6.092   7.758  0.2205  0.1640  0.3173
 6557TIP3    H141230   5.602   6.085   7.809 -0.0020 -2.3940  0.4316
 6557TIP3    H241231   5.550   6.089   7.666  0.2916 -0.4228  0.3561
 6558TIP3   OH241232   4.076   1.895   1.747  0.2281  0.7135  0.3046
 6558TIP3    H141233   4.022   1.820   1.725  1.6244 -0.5662  1.0846
 6558TIP3    H241234   4.070   1.952   1.669 -1.2649  0.0781 -0.0755
 6559TIP3   OH241235   5.016   4.793   3.095 -0.2376  0.1799 -0.2432
 6559TIP3    H141236   5.077   4.864   3.112 -0.7406  0.2417  1.5105
 6559TIP3    H241237   4.975   4.776   3.180  1.3013 -3.5645 -0.0604
 6560TIP3   OH241238   1.840   1.706   0.154  0.4406  0.4419  0.6061
 6560TIP3    H141239   1.934   1.692   0.170  0.4703  0.0942  0.1505
 6560TIP3    H241240   1.801   1.620   0.168  0.3517  0.3215 -0.3306
 6561TIP3   OH241241   2.306   4.048   7.985  0.3605  0.2059 -0.6931
 6561TIP3    H141242   2.382   4.102   8.007 -0.4726  1.1649 -0.0385
 6561TIP3    H241243   2.269   4.089   7.907 -0.7171  1.0835  0.2489
 6562TIP3   OH241244   4.561   2.119   2.381 -0.2632 -0.0308 -0.4852
 6562TIP3    H141245   4.602   2.120   2.467 -0.2941  0.9974 -0.4698
 6562TIP3    H241246   4.472   2.087   2.398 -0.7348  1.5192  0.1023
 6563TIP3   OH241247   5.628   4.629   2.790 -0.1679 -0.0631  0.2834
 6563TIP3    H141248   5.687   4.626   2.715  0.3477 -0.4019  0.6998
 6563TIP3    H241249   5.552   4.679   2.759  0.2765  0.2614 -0.2959
 6564TIP3   OH241250   0.140   0.663   0.176  0.2852  0.3950  0.5911
 6564TIP3    H141251   0.072   0.597   0.192  0.5823 -0.1145 -0.1817
 6564TIP3    H241252   0.094   0.746   0.180 -0.2768  0.0893  0.6306
 6565TIP3   OH241253   4.551   0.448   1.534  0.4541  0.4021 -0.3203
 6565TIP3    H141254   4.579   0.445   1.442 -0.2930 -0.6503 -0.5320
 6565TIP3    H241255   4.480   0.384   1.539  1.4098 -0.5683  1.3131
 6566TIP3   OH241256   6.512   0.120   3.862 -0.4735  1.0450  0.8279
 6566TIP3    H141257   6.516   0.190   3.797 -1.2512  1.6524  1.4246
 6566TIP3    H241258   6.604   0.095   3.876 -0.3432 -0.4151 -1.8757
 6567TIP3   OH241259   3.617   4.467   0.958 -0.1911  0.4374  0.3024
 6567TIP3    H141260   3.704   4.492   0.991  0.2495  0.9265 -1.1689
 6567TIP3    H241261   3.563   4.545   0.969 -0.0687  0.5709 -0.0230
 6568TIP3   OH241262   4.120   0.805   1.252  0.4156  0.0636  0.0517
 6568TIP3    H141263   4.037   0.798   1.205  0.3297 -0.1805  0.2398
 6568TIP3    H241264   4.152   0.893   1.230  0.6480 -0.2414 -0.9089
 6569TIP3   OH241265   3.239   0.761   7.475  0.9219 -0.2330  0.2725
 6569TIP3    H141266   3.320   0.781   7.521  0.4891 -1.0212  1.4211
 6569TIP3    H241267   3.255   0.677   7.433  1.1709  0.2863 -0.7021
 6570TIP3   OH241268   6.675   6.245   1.423 -0.0365 -0.0845  0.0893
 6570TIP3    H141269   6.747   6.200   1.379  0.7707  1.3816 -0.1544
 6570TIP3    H241270   6.657   6.321   1.368 -1.6077 -0.2796  0.2946
 6571TIP3   OH241271   6.390   3.207   7.863 -0.2214 -0.5288 -0.6501
 6571TIP3    H141272   6.437   3.283   7.898 -0.5622 -0.2919 -0.7133
 6571TIP3    H241273   6.396   3.216   7.768  0.1560 -0.8401 -0.6606
 6572TIP3   OH241274   1.859   3.847   1.475  0.2941 -0.6190  0.0696
 6572TIP3    H141275   1.843   3.934   1.439  2.5559 -0.9128 -1.9141
 6572TIP3    H241276   1.915   3.861   1.551  0.9431 -0.3563 -0.4557
 6573TIP3   OH241277   6.471   3.003   0.814 -0.0829  0.7440  0.9884
 6573TIP3    H141278   6.458   2.915   0.849  0.5433  1.3805  2.9420
 6573TIP3    H241279   6.528   2.990   0.738 -2.7658 -0.8406 -0.9260
 6574TIP3   OH241280   3.624   3.306   3.236  0.5572  0.1516  0.3884
 6574TIP3    H141281   3.588   3.338   3.318 -0.9063  0.2933 -0.2745
 6574TIP3    H241282   3.581   3.221   3.222  1.1390 -0.0871 -0.0075
 6575TIP3   OH241283   4.746   1.439   2.444  0.0475 -0.1399  0.1610
 6575TIP3    H141284   4.717   1.455   2.534 -1.3523  0.6278 -0.4098
 6575TIP3    H241285   4.718   1.349   2.425 -0.2182 -0.0798  0.2733
 6576TIP3   OH241286   0.953   5.488   0.873  0.0516  0.3646 -0.5942
 6576TIP3    H141287   0.893   5.555   0.839 -2.1774 -1.2479 -0.0261
 6576TIP3    H241288   0.913   5.405   0.847  0.8374 -0.8115  1.7582
 6577TIP3   OH241289   5.112   3.975   0.552  0.0323  0.5766 -0.1199
 6577TIP3    H141290   5.176   3.966   0.623 -0.0888  0.9836  0.0399
 6577TIP3    H241291   5.056   4.048   0.579 -1.0676 -0.3495  0.1762
 6578TIP3   OH241292   5.313   0.732   2.134 -0.7084 -0.3343  0.0818
 6578TIP3    H141293   5.272   0.750   2.049  0.1819 -1.6567 -0.6636
 6578TIP3    H241294   5.299   0.638   2.147  0.7620 -0.5085  0.5193
 6579TIP3   OH241295   5.130   5.896   3.741  0.1310 -0.0425 -0.3401
 6579TIP3    H141296   5.191   5.827   3.768  0.4698  0.5334  0.3853
 6579TIP3    H241297   5.043   5.858   3.755  0.3116 -0.3091  0.0765
 6580TIP3   OH241298   6.644   3.575   0.853 -0.4873 -0.3260  0.1620
 6580TIP3    H141299   6.672   3.645   0.911 -0.0971 -0.9843  0.7876
 6580TIP3    H241300   6.591   3.619   0.786  2.6355  1.1021 -1.5815
 6581TIP3   OH241301   6.314   3.016   0.189  0.2112 -0.4029  1.0639
 6581TIP3    H141302   6.308   2.932   0.143 -0.2349 -0.2466  0.8245
 6581TIP3    H241303   6.406   3.023   0.215  1.2537  0.8309 -2.3649
 6582TIP3   OH241304   3.325   5.622   3.232  0.3613 -0.8079  0.7196
 6582TIP3    H141305   3.280   5.705   3.247  1.5497 -0.2454  1.3625
 6582TIP3    H241306   3.411   5.648   3.197 -0.2122 -1.8856 -1.6658
 6583TIP3   OH241307   4.145   2.761   2.852  0.2462 -0.1417 -0.2006
 6583TIP3    H141308   4.182   2.848   2.842 -0.4837  0.0620 -1.2322
 6583TIP3    H241309   4.134   2.751   2.947 -1.1289  1.5267 -0.1453
 6584TIP3   OH241310   6.760   6.752   1.883  0.8270  0.2841  0.1626
 6584TIP3    H141311   6.802   6.834   1.908  0.3440  1.1575 -1.6663
 6584TIP3    H241312   6.819   6.713   1.819  0.3577 -0.0503 -0.0738
 6585TIP3   OH241313   0.772   6.396   8.430  0.0921 -0.3490  0.4098
 6585TIP3    H141314   0.846   6.451   8.406  1.4517 -2.0517  0.5480
 6585TIP3    H241315   0.717   6.452   8.484  0.0459  1.6852 -1.5948
 6586TIP3   OH241316   5.606   3.270   3.695  0.1332  0.3010  0.1063
 6586TIP3    H141317   5.563   3.317   3.767  0.0040 -0.3849  0.4937
 6586TIP3    H241318   5.537   3.260   3.629 -0.2265 -0.4836  0.5781
 6587TIP3   OH241319   6.892   6.156   1.287  0.3187  0.0406 -0.1522
 6587TIP3    H141320   6.948   6.079   1.271 -1.0456 -0.7759 -1.1741
 6587TIP3    H241321   6.885   6.198   1.201 -0.1600  0.4752  0.0996
 6588TIP3   OH241322   1.201   4.552   2.561 -0.1540 -0.3198 -0.6557
 6588TIP3    H141323   1.168   4.579   2.647 -0.1573  3.1712 -1.6179
 6588TIP3    H241324   1.123   4.531   2.511 -0.3632  0.1976 -0.5568
 6589TIP3   OH241325   5.875   4.444   8.254 -0.1188  0.1835  0.2182
 6589TIP3    H141326   5.931   4.465   8.179  0.4420 -1.5936  0.0785
 6589TIP3    H241327   5.865   4.527   8.301  0.9312  0.9744 -0.8838
 6590TIP3   OH241328   0.121   5.256   0.356 -0.2107  0.0722  0.2628
 6590TIP3    H141329   0.104   5.234   0.447 -1.2058  1.8343  0.5476
 6590TIP3    H241330   0.044   5.307   0.329  0.7368  0.8363 -1.1036
 6591TIP3   OH241331   6.404   0.389   0.602 -0.0593  0.0783 -0.0459
 6591TIP3    H141332   6.483   0.338   0.624  0.4711  0.6922 -0.5081
 6591TIP3    H241333   6.376   0.426   0.686 -0.4384 -0.9382  0.2942
 6592TIP3   OH241334   6.882   3.260   8.041  0.1014 -0.1854 -0.0333
 6592TIP3    H141335   6.970   3.268   8.002 -0.5840  1.3142 -1.3896
 6592TIP3    H241336   6.878   3.170   8.072  1.6163 -0.7257 -1.2566
 6593TIP3   OH241337   1.077   3.532   8.381 -0.0970 -0.6803 -0.0751
 6593TIP3    H141338   1.066   3.438   8.372 -4.3336 -0.2222 -2.7180
 6593TIP3    H241339   1.035   3.553   8.464 -1.1956 -0.9743 -0.5388
 6594TIP3   OH241340   4.728   2.401   0.241 -0.0904  0.5200  0.2874
 6594TIP3    H141341   4.736   2.493   0.217 -2.3446  0.8959  0.7665
 6594TIP3    H241342   4.660   2.399   0.308 -0.9001 -1.5888 -0.4990
 6595TIP3   OH241343   0.151   3.821   2.513 -0.3294 -0.9474 -0.3500
 6595TIP3    H141344   0.095   3.863   2.578  1.4208  0.0031  0.6297
 6595TIP3    H241345   0.211   3.767   2.565  0.6466 -0.7297 -1.2257
 6596TIP3   OH241346   6.309   2.019   1.051 -0.1456 -0.1336  0.0460
 6596TIP3    H141347   6.222   1.984   1.069 -0.2474  0.3679  0.5373
 6596TIP3    H241348   6.312   2.029   0.956 -0.0889 -1.5444 -0.1228
 6597TIP3   OH241349   2.605   2.503   0.169  0.2285  0.1029  0.2067
 6597TIP3    H141350   2.693   2.538   0.186  0.6730 -0.7693 -0.2111
 6597TIP3    H241351   2.581   2.538   0.084 -0.0601  0.7623  0.5498
 6598TIP3   OH241352   2.816   5.807   8.460  0.0658 -0.1507  0.3681
 6598TIP3    H141353   2.885   5.744   8.444  0.3626  0.1063  0.6293
 6598TIP3    H241354   2.775   5.821   8.374 -0.6047 -1.3839  0.4644
 6599TIP3   OH241355   5.304   4.918   7.859  0.1426  0.3340 -0.6137
 6599TIP3    H141356   5.256   4.954   7.784 -1.1131 -0.3778 -0.1649
 6599TIP3    H241357   5.239   4.869   7.908  0.9128  0.9155  1.0509
 6600TIP3   OH241358   0.228   5.711   8.168 -0.4175 -0.8907 -0.1628
 6600TIP3    H141359   0.301   5.671   8.216  0.7033  1.1823 -0.0277
 6600TIP3    H241360   0.263   5.725   8.080  0.9807  3.7944  0.8805
 6601TIP3   OH241361   4.595   4.556   0.306 -0.2786 -0.5396  0.1952
 6601TIP3    H141362   4.545   4.481   0.337 -0.4876 -0.6858 -0.4812
 6601TIP3    H241363   4.574   4.563   0.213  0.6195 -0.3419 -0.0045
 6602TIP3   OH241364   2.063   0.897   2.610  0.2261 -0.3678  0.8499
 6602TIP3    H141365   2.146   0.852   2.593  0.6657  0.5192  0.5917
 6602TIP3    H241366   2.050   0.889   2.705  1.2881  0.6138  1.0995
 6603TIP3   OH241367   4.568   2.669   1.313  0.0711  0.7790  0.0820
 6603TIP3    H141368   4.543   2.686   1.404  0.0741  1.5980 -0.0622
 6603TIP3    H241369   4.590   2.576   1.311 -0.3012  0.6674  0.8314
 6604TIP3   OH241370   5.434   4.442   0.633 -0.4239 -0.2508  0.4735
 6604TIP3    H141371   5.527   4.451   0.610 -0.1736 -1.1677  1.0788
 6604TIP3    H241372   5.388   4.448   0.549  0.3122 -1.2754 -0.0291
 6605TIP3   OH241373   0.356   6.942   0.068 -0.1951 -0.0807 -0.0366
 6605TIP3    H141374   0.388   6.857   0.099  0.2370  0.0678 -0.0672
 6605TIP3    H241375   0.426   6.975   0.011  0.0137  0.6653  0.6280
 6606TIP3   OH241376   2.801   5.796   8.173 -0.2071  0.3642  0.0909
 6606TIP3    H141377   2.793   5.710   8.132  0.3619  0.4878 -0.2977
 6606TIP3    H241378   2.716   5.837   8.160 -0.2181  0.1740 -0.4615
 6607TIP3   OH241379   2.561   3.224   3.324  0.3736  0.3588 -0.5313
 6607TIP3    H141380   2.618   3.296   3.352  2.0571 -0.6917 -1.0853
 6607TIP3    H241381   2.593   3.148   3.372 -0.7360 -0.2292 -0.6942
 6608TIP3   OH241382   4.055   4.365   0.610 -0.2460  0.2151 -0.0843
 6608TIP3    H141383   3.963   4.358   0.634  0.1398  0.1249  1.4841
 6608TIP3    H241384   4.081   4.453   0.638  0.1734  0.2045 -0.4199
 6609TIP3   OH241385   0.181   1.328   0.412 -0.7883  0.2044  0.4174
 6609TIP3    H141386   0.089   1.354   0.404 -1.2649 -0.5568  2.7836
 6609TIP3    H241387   0.183   1.238   0.378 -0.9912  0.1093  0.6535
 6610TIP3   OH241388   0.189   0.490   2.297 -0.4288 -0.4022 -0.0038
 6610TIP3    H141389   0.130   0.438   2.351 -0.5606 -0.0200  0.2262
 6610TIP3    H241390   0.136   0.565   2.269  0.0903  0.2233  0.6439
 6611TIP3   OH241391   1.589   0.910   1.629 -0.4466 -0.1415  0.9173
 6611TIP3    H141392   1.574   0.999   1.663 -2.0221 -0.1187  0.2376
 6611TIP3    H241393   1.530   0.855   1.680  0.6930 -0.8704  1.4972
 6612TIP3   OH241394   5.855   0.433   3.810 -0.3314  0.4371  0.4131
 6612TIP3    H141395   5.905   0.366   3.857 -1.8669 -0.2627  1.1110
 6612TIP3    H241396   5.895   0.516   3.838 -0.3887 -0.0327  2.0184
 6613TIP3   OH241397   0.932   4.826   2.165  0.4056  0.1939  0.0558
 6613TIP3    H141398   0.935   4.891   2.094  0.1547 -0.9873 -1.0734
 6613TIP3    H241399   0.850   4.844   2.210  0.6527  1.0793  0.1740
 6614TIP3   OH241400   2.757   4.065   1.813 -0.0566  0.0457 -0.3444
 6614TIP3    H141401   2.714   4.148   1.791 -2.4419 -1.1083 -0.3592
 6614TIP3    H241402   2.704   4.028   1.883  1.9974 -0.6944  0.8988
 6615TIP3   OH241403   3.530   1.832   3.619  0.2934  0.0142  0.2186
 6615TIP3    H141404   3.520   1.908   3.675 -0.3093 -0.5416  0.8781
 6615TIP3    H241405   3.441   1.805   3.597  0.4817 -0.8161  0.4335
 6616TIP3   OH241406   0.445   6.141   0.999 -0.5690 -0.0624 -0.1840
 6616TIP3    H141407   0.449   6.074   1.067  0.4488  0.6055  0.4412
 6616TIP3    H241408   0.354   6.171   0.999 -0.4971  0.2336  1.2053
 6617TIP3   OH241409   1.880   4.730   2.685  0.2334  0.6921 -0.4729
 6617TIP3    H141410   1.918   4.661   2.741  0.0069  0.6341 -0.3911
 6617TIP3    H241411   1.950   4.751   2.623 -0.3381 -0.9971 -1.7616
 6618TIP3   OH241412   2.323   3.462   0.888 -0.1248  0.9085 -0.2024
 6618TIP3    H141413   2.392   3.397   0.902 -0.1515  1.1684  1.2865
 6618TIP3    H241414   2.243   3.417   0.916 -0.1947  1.4512  0.4828
 6619TIP3   OH241415   6.141   3.714   0.482 -0.6243 -0.1340 -0.3373
 6619TIP3    H141416   6.106   3.764   0.556  0.6762  0.2933  0.0117
 6619TIP3    H241417   6.136   3.622   0.510  4.4842  0.1256  2.5696
 6620TIP3   OH241418   4.316   0.939   0.319 -0.7398  0.1435  0.2426
 6620TIP3    H141419   4.321   1.015   0.376 -0.0400 -0.8755  1.6184
 6620TIP3    H241420   4.309   0.864   0.379 -0.9464 -0.9114 -1.0360
 6621TIP3   OH241421   4.762   0.436   2.868 -0.4827  0.3877  0.1441
 6621TIP3    H141422   4.786   0.349   2.900 -0.8199  0.0473 -0.4922
 6621TIP3    H241423   4.693   0.466   2.928  0.0384  0.4719  0.7106
 6622TIP3   OH241424   2.926   0.209   2.679 -0.7266 -0.0299  0.1712
 6622TIP3    H141425   2.960   0.163   2.755 -1.5573  0.0224  0.5939
 6622TIP3    H241426   2.858   0.267   2.714 -1.4279 -0.3260 -0.6527
 6623TIP3   OH241427   2.927   6.332   2.385  0.2110  0.6442 -0.3698
 6623TIP3    H141428   2.997   6.328   2.321 -1.1891  1.1784 -1.9893
 6623TIP3    H241429   2.933   6.249   2.432  1.7321  0.5659 -0.6506
 6624TIP3   OH241430   2.353   0.813   1.946 -0.3835 -0.7221 -0.1917
 6624TIP3    H141431   2.284   0.858   1.897  0.9108 -0.1229 -1.5524
 6624TIP3    H241432   2.388   0.880   2.005  0.5823 -0.3147 -1.1930
 6625TIP3   OH241433   3.638   3.326   0.469 -0.6172 -0.0075 -0.0292
 6625TIP3    H141434   3.695   3.373   0.409 -0.7702  0.4117  0.1479
 6625TIP3    H241435   3.677   3.341   0.556  0.1866 -1.4544 -0.1137
 6626TIP3   OH241436   2.524   0.282   8.355 -0.0141  0.1290 -0.3582
 6626TIP3    H141437   2.551   0.365   8.395  0.0579  0.7514 -1.6458
 6626TIP3    H241438   2.604   0.230   8.353 -0.0685 -0.0133  0.4951
 6627TIP3   OH241439   6.207   3.903   7.914 -0.9091  0.0939 -0.0035
 6627TIP3    H141440   6.228   3.827   7.860 -0.8398  1.1599 -1.5163
 6627TIP3    H241441   6.119   3.928   7.888 -0.2353  1.6536 -0.9085
 6628TIP3   OH241442   3.007   1.654   2.017 -0.3425 -0.7373  0.2555
 6628TIP3    H141443   2.961   1.572   2.034  0.8297 -1.3702  0.4384
 6628TIP3    H241444   3.050   1.675   2.100 -0.8099  0.1928  0.2783
 6629TIP3   OH241445   5.905   2.437   2.464 -0.3768 -0.7516 -0.2109
 6629TIP3    H141446   5.924   2.414   2.555 -0.3750  0.5162  0.1340
 6629TIP3    H241447   5.978   2.493   2.438 -1.4534  0.6807 -0.2639
 6630TIP3   OH241448   0.652   0.449   2.712  0.4005  0.2790 -0.2835
 6630TIP3    H141449   0.607   0.364   2.714  0.6240  0.1760  0.5225
 6630TIP3    H241450   0.649   0.475   2.620  0.8043 -0.8533 -0.6344
 6631TIP3   OH241451   1.573   1.187   2.539  0.0130 -1.3079 -0.1293
 6631TIP3    H141452   1.487   1.149   2.522  0.6121 -1.7528 -2.5175
 6631TIP3    H241453   1.635   1.118   2.515  1.0981  0.4980 -3.2023
 6632TIP3   OH241454   0.742   5.154   2.226  1.0245 -0.7964 -0.2409
 6632TIP3    H141455   0.781   5.240   2.208  0.7317 -0.5202  0.3955
 6632TIP3    H241456   0.730   5.115   2.139  1.2445 -0.2311 -0.5349
 6633TIP3   OH241457   0.717   6.718   8.198 -0.4586  0.0075 -0.1252
 6633TIP3    H141458   0.708   6.766   8.116  0.6575  0.0269 -0.2484
 6633TIP3    H241459   0.799   6.749   8.236 -0.4598 -0.7269  0.5099
 6634TIP3   OH241460   1.589   3.348   0.223 -0.4167 -0.2756 -0.0864
 6634TIP3    H141461   1.652   3.416   0.247  0.2677 -0.9518  0.1012
 6634TIP3    H241462   1.568   3.305   0.306  1.0889 -1.8954 -0.4926
 6635TIP3   OH241463   0.112   2.245   8.071 -0.1218 -0.1010 -0.3187
 6635TIP3    H141464   0.065   2.326   8.091  1.2506  0.5192  0.5187
 6635TIP3    H241465   0.117   2.243   7.975  0.0497  0.9274 -0.3408
 6636TIP3   OH241466   5.784   3.660   0.585  0.1744 -0.1508 -0.0065
 6636TIP3    H141467   5.780   3.574   0.543  0.8822 -0.8812  1.3561
 6636TIP3    H241468   5.729   3.652   0.662 -0.8025  1.0536 -0.5444
 6637TIP3   OH241469   0.912   4.364   0.386  0.0198  0.2483  0.1852
 6637TIP3    H141470   0.927   4.349   0.293  1.3368  2.4893 -0.0313
 6637TIP3    H241471   0.971   4.301   0.429 -0.6019 -0.8043 -0.4382
 6638TIP3   OH241472   0.462   3.840   1.038 -0.5162 -0.5492  0.3799
 6638TIP3    H141473   0.453   3.911   1.102 -0.9481  0.4097 -0.7104
 6638TIP3    H241474   0.550   3.806   1.052 -1.7924 -2.9074  4.0082
 6639TIP3   OH241475   2.894   4.534   0.335 -1.2468 -0.3440  0.1783
 6639TIP3    H141476   2.812   4.505   0.374 -0.4598 -1.0431  1.4240
 6639TIP3    H241477   2.918   4.464   0.274 -1.3058 -0.4125  0.2343
 6640TIP3   OH241478   3.575   0.430   0.512 -0.4053 -0.0697 -0.1942
 6640TIP3    H141479   3.633   0.485   0.565 -0.1704 -0.4963 -0.0030
 6640TIP3    H241480   3.627   0.410   0.434 -0.7387  0.5303 -0.5741
 6641TIP3   OH241481   4.574   5.764   0.178  0.1910 -0.0943  0.0827
 6641TIP3    H141482   4.488   5.805   0.169 -0.8678 -2.2673 -0.3317
 6641TIP3    H241483   4.601   5.783   0.268 -0.3474  1.2435 -0.0121
 6642TIP3   OH241484   2.563   6.854   0.219 -0.0079 -0.2425 -0.0096
 6642TIP3    H141485   2.548   6.821   0.130  0.9024 -0.8875  0.0608
 6642TIP3    H241486   2.562   6.776   0.274  4.1464 -0.5870 -0.0977
 6643TIP3   OH241487   1.926   0.702   0.124  0.2122 -0.4871 -0.3611
 6643TIP3    H141488   1.937   0.609   0.103 -0.7955 -0.9224  0.9347
 6643TIP3    H241489   2.010   0.729   0.162 -0.0037 -1.2876  0.7089
 6644TIP3   OH241490   0.125   3.861   3.202 -0.7114  0.4443  0.1110
 6644TIP3    H141491   0.061   3.926   3.173 -1.4250 -0.4884 -0.4681
 6644TIP3    H241492   0.085   3.821   3.279 -0.6565  0.1182 -0.0288
 6645TIP3   OH241493   1.841   3.729   7.975  0.1842  0.0837 -0.0856
 6645TIP3    H141494   1.888   3.667   8.031  0.6210 -1.4588 -2.0459
 6645TIP3    H241495   1.877   3.714   7.888 -2.2521  0.5506 -1.2400
 6646TIP3   OH241496   5.133   6.833   8.020  0.8402  0.1823 -0.1961
 6646TIP3    H141497   5.078   6.757   8.001  0.4093 -0.4531  2.9600
 6646TIP3    H241498   5.217   6.812   7.980  0.0378 -0.7862 -1.4840
 6647TIP3   OH241499   3.354   6.614   7.559 -0.4452  0.3371  0.0155
 6647TIP3    H141500   3.327   6.574   7.642 -0.3210 -0.4759 -0.3218
 6647TIP3    H241501   3.346   6.543   7.495  0.3704  0.6902 -0.4953
 6648TIP3   OH241502   0.031   4.913   0.799 -0.4386 -0.0689 -0.2927
 6648TIP3    H141503  -0.001   4.826   0.774  0.5116 -0.5072 -0.0159
 6648TIP3    H241504   0.065   4.951   0.718 -0.0048 -0.3293 -0.2327
 6649TIP3   OH241505   6.675   6.279   3.617 -0.2391 -1.0711 -0.3764
 6649TIP3    H141506   6.618   6.345   3.656  0.5854 -0.9848  0.7524
 6649TIP3    H241507   6.708   6.319   3.537 -0.4552 -0.4764 -0.1672
 6650TIP3   OH241508   6.742   4.708   2.961 -0.2750 -0.2049 -0.2853
 6650TIP3    H141509   6.813   4.647   2.941 -1.1778 -1.0901 -0.9179
 6650TIP3    H241510   6.709   4.680   3.046 -0.3719 -0.2893 -0.3506
 6651TIP3   OH241511   4.411   1.087   0.786 -0.0124  0.3684 -0.2391
 6651TIP3    H141512   4.452   1.129   0.861 -0.4868  0.2187  0.1033
 6651TIP3    H241513   4.388   0.999   0.817 -0.1268  0.2726 -0.5873
 6652TIP3   OH241514   6.581   5.993   0.565 -0.3989 -0.1659 -0.0606
 6652TIP3    H141515   6.589   6.017   0.658 -1.2070 -0.8462  0.1928
 6652TIP3    H241516   6.495   5.953   0.558 -0.0811 -0.7049 -0.9864
 6653TIP3   OH241517   1.597   4.059   0.074 -0.3977  0.0423 -0.1025
 6653TIP3    H141518   1.610   4.127   0.008 -0.2082  0.2297  0.1244
 6653TIP3    H241519   1.509   4.025   0.056 -0.3868  0.1587 -0.3873
 6654TIP3   OH241520   3.418   5.282   2.589  0.1289  0.0937  0.3212
 6654TIP3    H141521   3.507   5.315   2.602 -0.3711  1.9226 -0.6286
 6654TIP3    H241522   3.375   5.295   2.674 -0.0894  2.0760 -0.0634
 6655TIP3   OH241523   5.983   0.861   2.364  0.3995 -0.3406 -0.3405
 6655TIP3    H141524   6.017   0.795   2.424  0.2810 -0.3058 -0.2353
 6655TIP3    H241525   5.888   0.861   2.380  0.5960  1.1370  0.9344
 6656TIP3   OH241526   0.451   5.801   0.758 -0.0915  0.0745  0.2806
 6656TIP3    H141527   0.492   5.756   0.833 -1.6497 -0.2107  0.9873
 6656TIP3    H241528   0.482   5.752   0.681  2.4300  1.0489  0.5829
 6657TIP3   OH241529   0.625   5.483   1.789 -0.3045 -0.8445  0.0952
 6657TIP3    H141530   0.661   5.512   1.873  0.0048  0.4913 -0.4662
 6657TIP3    H241531   0.699   5.485   1.729 -0.8844  0.0478 -0.6273
 6658TIP3   OH241532   6.626   5.731   1.343 -0.4289 -0.0510  0.0893
 6658TIP3    H141533   6.692   5.755   1.277 -3.0207 -0.2198 -2.7617
 6658TIP3    H241534   6.605   5.813   1.386  0.7489  0.2138  0.2024
 6659TIP3   OH241535   0.658   2.456   0.577  0.0395  0.4116 -0.1308
 6659TIP3    H141536   0.602   2.451   0.655 -0.1646  0.6380 -0.2591
 6659TIP3    H241537   0.616   2.398   0.513  1.1711 -1.1705  0.5029
 6660TIP3   OH241538   6.055   4.356   8.453  0.4930 -0.8328 -0.1140
 6660TIP3    H141539   5.960   4.357   8.442  0.2517 -0.0909  1.7120
 6660TIP3    H241540   6.086   4.287   8.394 -1.1081 -0.6845 -1.1617
 6661TIP3   OH241541   3.417   0.365   0.190  1.0072 -0.4609 -0.0770
 6661TIP3    H141542   3.439   0.392   0.101  0.2843 -0.7984 -0.3708
 6661TIP3    H241543   3.410   0.269   0.185 -1.0653 -0.3437 -0.1539
 6662TIP3   OH241544   6.672   6.132   2.803 -0.2113 -0.6007  0.0179
 6662TIP3    H141545   6.767   6.141   2.813 -0.1505 -1.6132  0.5310
 6662TIP3    H241546   6.647   6.205   2.747  1.1144 -1.2423 -1.4881
 6663TIP3   OH241547   0.693   6.679   3.549 -0.0683  0.1792  0.3356
 6663TIP3    H141548   0.754   6.606   3.542  0.0345  0.4092 -2.6589
 6663TIP3    H241549   0.607   6.639   3.534 -0.5476  0.1129  2.8663
 6664TIP3   OH241550   0.399   6.195   3.383 -0.0954 -0.1471 -0.4908
 6664TIP3    H141551   0.459   6.246   3.330  0.7383  2.2179  2.4341
 6664TIP3    H241552   0.450   6.119   3.411  0.5725  0.3539 -0.3358
 6665TIP3   OH241553   0.770   2.588   3.350 -0.8120 -0.1806 -0.5635
 6665TIP3    H141554   0.845   2.565   3.405 -2.0781 -1.9619  0.5206
 6665TIP3    H241555   0.694   2.579   3.408 -2.0138 -0.0157 -2.0481
 6666TIP3   OH241556   1.617   3.213   1.651 -0.1989  0.0623 -0.0994
 6666TIP3    H141557   1.531   3.205   1.693  1.3515 -0.1817  3.3392
 6666TIP3    H241558   1.626   3.306   1.631 -2.2174 -0.2366 -3.0102
 6667TIP3   OH241559   0.180   5.590   1.934  0.4409 -0.4161 -0.5397
 6667TIP3    H141560   0.150   5.630   1.852  1.1594  1.3390  0.0044
 6667TIP3    H241561   0.229   5.513   1.906 -1.4218 -1.2787 -1.6049
 6668TIP3   OH241562   2.385   6.386   7.954  0.1828  0.2737 -0.2093
 6668TIP3    H141563   2.386   6.293   7.932 -0.8223  0.2303 -0.0983
 6668TIP3    H241564   2.329   6.392   8.031  0.7615  0.8972  0.1786
 6669TIP3   OH241565   1.432   4.597   0.854 -0.2064 -0.2487  0.5956
 6669TIP3    H141566   1.526   4.614   0.854 -0.1919 -0.3230  0.9612
 6669TIP3    H241567   1.423   4.513   0.808 -0.4467  1.5512 -2.9652
 6670TIP3   OH241568   3.671   2.174   7.503  0.3864 -0.1144  0.4711
 6670TIP3    H141569   3.620   2.096   7.524  1.0418 -0.5945  0.2996
 6670TIP3    H241570   3.605   2.239   7.478 -0.1442 -0.7174  0.2631
 6671TIP3   OH241571   0.151   3.904   8.325  0.1222 -0.2117 -0.3056
 6671TIP3    H141572   0.177   3.839   8.391 -0.6031 -0.3736 -0.1663
 6671TIP3    H241573   0.194   3.985   8.352  1.0721 -0.6384 -0.5002
 6672TIP3   OH241574   0.260   0.146   2.496  0.1257  0.1642 -0.4136
 6672TIP3    H141575   0.232   0.056   2.516  2.0958 -0.1774  1.0470
 6672TIP3    H241576   0.184   0.200   2.520 -0.2655 -0.9161  0.9169
 6673TIP3   OH241577   2.422   1.660   0.557 -0.2185  0.5140  0.2110
 6673TIP3    H141578   2.373   1.741   0.569 -0.6339  0.4045 -0.6280
 6673TIP3    H241579   2.499   1.686   0.505 -0.6523  0.2802 -0.5573
 6674TIP3   OH241580   1.960   2.330   0.280 -0.2821  0.0727  0.3095
 6674TIP3    H141581   1.887   2.369   0.231  0.6214 -0.0545 -1.1638
 6674TIP3    H241582   1.969   2.387   0.357 -0.1479  1.7600 -0.8941
 6675TIP3   OH241583   6.312   2.160   7.331 -0.4203  0.1707  0.0891
 6675TIP3    H141584   6.300   2.178   7.238 -0.5918  1.9281  0.4187
 6675TIP3    H241585   6.404   2.184   7.348 -0.1778 -0.8346  0.2362
 6676TIP3   OH241586   2.139   6.183   2.559  0.5442  0.6124  0.1304
 6676TIP3    H141587   2.124   6.089   2.569 -1.8870  1.1141  1.9723
 6676TIP3    H241588   2.228   6.196   2.592  0.6389 -0.9320  0.5932
 6677TIP3   OH241589   2.112   0.564   2.656 -0.0248  0.2899  0.5595
 6677TIP3    H141590   2.182   0.621   2.624  0.8952 -1.7012 -1.1816
 6677TIP3    H241591   2.138   0.542   2.746  0.6881  0.9191  0.5180
 6678TIP3   OH241592   6.015   2.456   1.298  0.2030  0.1956 -0.0205
 6678TIP3    H141593   6.061   2.447   1.382 -2.4557 -0.0098  1.5227
 6678TIP3    H241594   5.970   2.373   1.287 -0.8179  0.8337 -0.7919
 6679TIP3   OH241595   4.337   0.757   8.398 -0.3875  0.5884  0.1707
 6679TIP3    H141596   4.334   0.839   8.447 -0.9523  0.9470 -0.4394
 6679TIP3    H241597   4.323   0.689   8.463 -0.6765  1.0307  0.5748
 6680TIP3   OH241598   4.623   4.317   0.527  0.2810  0.0699  0.6153
 6680TIP3    H141599   4.557   4.248   0.528  0.3089  0.0448  0.7469
 6680TIP3    H241600   4.587   4.386   0.581  0.7880 -0.3458  1.5148
 6681TIP3   OH241601   2.438   1.197   1.074  0.1900 -0.1154  0.9095
 6681TIP3    H141602   2.530   1.176   1.089  0.2708 -0.6459 -0.2395
 6681TIP3    H241603   2.394   1.111   1.073 -0.5326  0.1908  2.6721
 6682TIP3   OH241604   6.738   1.856   0.153 -0.0004 -0.8304  0.3089
 6682TIP3    H141605   6.670   1.904   0.106  3.0633  3.6577 -0.1316
 6682TIP3    H241606   6.783   1.805   0.086  0.9118  1.2248 -0.7285
 6683TIP3   OH241607   1.354   1.472   2.823 -0.0714 -0.2213 -0.2929
 6683TIP3    H141608   1.369   1.516   2.906  0.9498 -1.6593  0.3359
 6683TIP3    H241609   1.432   1.418   2.810 -1.3703 -2.1002 -0.7946
 6684TIP3   OH241610   1.711   0.991   2.399  0.8277 -0.4060  0.0104
 6684TIP3    H141611   1.754   0.961   2.318 -0.0612  1.1840 -1.1180
 6684TIP3    H241612   1.660   0.915   2.428  0.4082 -0.7398 -1.4724
 6685TIP3   OH241613   0.452   5.737   1.937 -0.3038  0.4810  0.1691
 6685TIP3    H141614   0.518   5.669   1.948 -0.3412  0.6058  1.2772
 6685TIP3    H241615   0.373   5.690   1.910 -0.5272 -0.0251  1.6270
 6686TIP3   OH241616   4.801   6.705   0.465  0.2325  0.1944 -0.5045
 6686TIP3    H141617   4.824   6.749   0.547  1.7737  0.8194 -1.2206
 6686TIP3    H241618   4.804   6.774   0.399 -1.3830 -0.2179 -1.0504
 6687TIP3   OH241619   0.469   5.320   2.169 -0.1978  0.1109 -0.7214
 6687TIP3    H141620   0.391   5.331   2.223 -0.1795  0.9200 -0.8479
 6687TIP3    H241621   0.486   5.225   2.170  0.3699  0.1724  1.5019
 6688TIP3   OH241622   4.126   1.369   2.102 -0.0695  0.2762  0.1329
 6688TIP3    H141623   4.181   1.398   2.175 -1.1556 -0.4179  1.2762
 6688TIP3    H241624   4.173   1.294   2.066  0.5457  0.7056  0.0176
 6689TIP3   OH241625   3.633   6.811   8.430 -0.1447  1.1922  0.3996
 6689TIP3    H141626   3.562   6.813   8.366 -0.3085  1.6145  0.5956
 6689TIP3    H241627   3.708   6.849   8.384  0.2146 -0.0689 -0.1117
 6690TIP3   OH241628   6.382   5.353   2.890 -0.0232  0.0498  0.7556
 6690TIP3    H141629   6.400   5.327   2.799 -1.4770  1.5238  0.0040
 6690TIP3    H241630   6.414   5.279   2.942  0.2049 -1.1492 -0.9897
 6691TIP3   OH241631   3.198   6.850   1.338 -0.2985  0.1415 -0.2896
 6691TIP3    H141632   3.152   6.808   1.411  1.5315 -0.1236  0.7899
 6691TIP3    H241633   3.170   6.800   1.261 -0.9852 -0.6878  0.4661
 6692TIP3   OH241634   1.423   0.464   2.054 -0.5354  0.1137  0.4731
 6692TIP3    H141635   1.485   0.452   1.982  1.0565 -2.3304  2.1094
 6692TIP3    H241636   1.443   0.551   2.088  0.6365  0.1541 -0.2740
 6693TIP3   OH241637   6.805   6.590   8.371  0.4759 -0.3107  0.3079
 6693TIP3    H141638   6.786   6.654   8.439 -0.0520  1.0574 -1.0723
 6693TIP3    H241639   6.718   6.559   8.344  0.7235 -1.7226  1.0132
 6694TIP3   OH241640   6.870   2.532   2.039 -0.3551  0.0122  0.0589
 6694TIP3    H141641   6.853   2.489   2.123 -1.9608 -1.4423 -0.9446
 6694TIP3    H241642   6.817   2.612   2.042 -1.2427 -0.5549  0.0680
 6695TIP3   OH241643   4.752   1.262   0.055 -0.2662 -0.2664 -0.0792
 6695TIP3    H141644   4.744   1.324   0.128 -1.7735 -0.8906  0.3137
 6695TIP3    H241645   4.663   1.252   0.022  0.4049  0.1941 -2.2078
 6696TIP3   OH241646   4.244   2.029   0.191 -0.5216  0.1178  0.8878
 6696TIP3    H141647   4.294   2.108   0.213 -1.4615  0.8309  0.5596
 6696TIP3    H241648   4.173   2.028   0.255 -1.1729  0.1783  0.1757
 6697TIP3   OH241649   6.440   2.095   3.334  0.0322  0.3758 -0.1940
 6697TIP3    H141650   6.520   2.043   3.320 -0.6946 -0.8127 -0.0644
 6697TIP3    H241651   6.430   2.098   3.429 -0.9499 -0.9031 -0.2282
 6698TIP3   OH241652   5.684   0.607   8.289 -0.2803  0.1662  0.0223
 6698TIP3    H141653   5.766   0.576   8.327 -0.1969 -0.3191 -0.5384
 6698TIP3    H241654   5.633   0.636   8.364  0.1418 -0.1545  0.4435
 6699TIP3   OH241655   2.631   1.753   0.830  0.4408 -0.1119 -0.1769
 6699TIP3    H141656   2.654   1.687   0.895  0.2624  0.1983  0.2088
 6699TIP3    H241657   2.537   1.764   0.839  0.5218  0.4725  0.0378
 6700TIP3   OH241658   1.957   4.801   3.010  0.2192 -0.0395 -0.1226
 6700TIP3    H141659   2.046   4.834   3.023  0.9228 -1.5117 -0.8798
 6700TIP3    H241660   1.949   4.727   3.070  0.5758 -1.6991 -1.9920
 6701TIP3   OH241661   1.655   2.720   1.409 -0.5585  0.8084  0.1271
 6701TIP3    H141662   1.658   2.691   1.318 -3.2454  3.0658 -0.8367
 6701TIP3    H241663   1.691   2.809   1.407  0.9502  0.2905  1.6577
 6702TIP3   OH241664   0.709   3.426   3.283 -0.4005  0.0363  0.1613
 6702TIP3    H141665   0.698   3.492   3.214  0.7124  0.3833  0.2983
 6702TIP3    H241666   0.729   3.477   3.361 -0.3237 -0.4332  0.4477
 6703TIP3   OH241667   5.673   0.536   0.757  0.2970 -0.3342  0.1456
 6703TIP3    H141668   5.611   0.525   0.685  1.1775  1.4223 -0.9331
 6703TIP3    H241669   5.741   0.471   0.740  0.0161 -0.5812 -0.0474
 6704TIP3   OH241670   4.353   6.457   1.131  0.0421 -0.0615 -0.2631
 6704TIP3    H141671   4.440   6.493   1.147  0.7365 -1.8749  0.2818
 6704TIP3    H241672   4.362   6.407   1.049 -0.8314  0.7679 -0.8859
 6705TIP3   OH241673   3.408   3.089   0.984  0.4220 -0.0124 -0.3053
 6705TIP3    H141674   3.491   3.056   1.018  1.1640  0.5361 -1.5005
 6705TIP3    H241675   3.400   3.048   0.898 -1.3282 -1.2567  0.4120
 6706TIP3   OH241676   4.769   3.042   2.449 -0.1238 -0.4729  0.3185
 6706TIP3    H141677   4.802   2.972   2.392 -1.4764  0.2238 -1.4095
 6706TIP3    H241678   4.681   3.012   2.474 -0.0861 -0.1074  0.9075
 6707TIP3   OH241679   3.612   6.762   0.359  0.0825 -0.1088 -0.3960
 6707TIP3    H141680   3.662   6.810   0.425 -0.2541  0.7029 -0.7219
 6707TIP3    H241681   3.558   6.701   0.410 -0.7133  1.0117  0.1428
 6708TIP3   OH241682   1.418   0.275   2.263  0.5822  0.0491  0.5979
 6708TIP3    H141683   1.341   0.333   2.262 -1.7112 -2.7661 -1.4402
 6708TIP3    H241684   1.479   0.316   2.202 -0.5485  0.8164 -0.0632
 6709TIP3   OH241685   2.874   3.568   2.374 -0.2160  0.0620  0.1498
 6709TIP3    H141686   2.949   3.521   2.411 -1.0750 -0.2792  1.5247
 6709TIP3    H241687   2.803   3.505   2.374 -1.6872  1.5271  2.9871
 6710TIP3   OH241688   3.565   2.961   2.803 -0.4673 -0.1772  0.5972
 6710TIP3    H141689   3.493   2.902   2.778  0.9544 -1.9277  0.4120
 6710TIP3    H241690   3.629   2.904   2.845  1.0071  1.2577  0.4047
 6711TIP3   OH241691   3.225   6.197   2.836 -0.2427 -0.0085  0.0236
 6711TIP3    H141692   3.240   6.119   2.889 -0.0027  0.9203  1.3548
 6711TIP3    H241693   3.239   6.167   2.746  2.5958 -0.8932  0.6642
 6712TIP3   OH241694   0.821   6.735   0.470  0.3467 -0.0041  0.6132
 6712TIP3    H141695   0.727   6.735   0.482  0.5097  0.8633  2.0548
 6712TIP3    H241696   0.857   6.716   0.556  1.4949 -1.1756 -0.0827
 6713TIP3   OH241697   0.710   4.810   2.357  0.1582 -0.3787 -0.3825
 6713TIP3    H141698   0.755   4.740   2.402 -2.5083 -1.8468  0.1974
 6713TIP3    H241699   0.663   4.857   2.426 -1.6761 -0.8878 -1.2174
 6714TIP3   OH241700   5.272   1.072   2.010 -0.1383 -0.4395  0.0494
 6714TIP3    H141701   5.201   1.035   2.062  0.7219 -2.3777 -0.0618
 6714TIP3    H241702   5.292   1.005   1.945  3.3078 -1.0913  1.5323
 6715TIP3   OH241703   6.088   1.475   7.767  0.3045 -0.2264  0.0095
 6715TIP3    H141704   6.081   1.379   7.763  0.5265 -0.2845  0.8000
 6715TIP3    H241705   6.138   1.491   7.847  1.4225  0.4995 -0.8105
 6716TIP3   OH241706   3.302   1.224   1.557  0.5240  0.5216  0.3210
 6716TIP3    H141707   3.284   1.240   1.465 -3.1662  0.2043  0.8086
 6716TIP3    H241708   3.352   1.300   1.586  0.9811  1.0501 -1.7293
 6717TIP3   OH241709   2.188   6.054   7.837 -0.3821 -0.2231 -0.0312
 6717TIP3    H141710   2.273   6.073   7.878 -0.9687 -1.4893  1.9045
 6717TIP3    H241711   2.138   6.134   7.850 -0.6261 -0.6564  2.0567
 6718TIP3   OH241712   2.529   0.752   1.685  0.2990  0.4579  0.2193
 6718TIP3    H141713   2.468   0.760   1.611  0.0745  2.2167  0.5719
 6718TIP3    H241714   2.473   0.738   1.761  0.5809 -3.6940 -0.1004
 6719TIP3   OH241715   1.140   1.454   1.407 -0.8934  0.1837 -0.1071
 6719TIP3    H141716   1.061   1.508   1.397  0.4050  2.1595 -0.2418
 6719TIP3    H241717   1.158   1.457   1.501 -1.7890 -1.5655  0.1665
 6720TIP3   OH241718   1.462   1.159   7.724  0.0805  0.0910  0.0911
 6720TIP3    H141719   1.520   1.208   7.665 -0.8856  0.2768 -0.7325
 6720TIP3    H241720   1.380   1.149   7.674 -0.9839  0.7875  1.6229
 6721TIP3   OH241721   1.871   2.273   2.941 -0.0193  0.1460  0.1615
 6721TIP3    H141722   1.780   2.260   2.969  0.3636 -1.6245  0.7111
 6721TIP3    H241723   1.921   2.208   2.990  1.6890  1.6467  0.4963
 6722TIP3   OH241724   0.706   6.403   1.510  0.6910 -0.1984 -0.7662
 6722TIP3    H141725   0.746   6.488   1.492  1.3471 -0.4581 -0.5403
 6722TIP3    H241726   0.734   6.380   1.598 -1.3611  0.4017  0.1087
 6723TIP3   OH241727   5.246   0.454   2.107 -0.5060  0.0647  0.2239
 6723TIP3    H141728   5.155   0.424   2.099 -0.0992 -1.3185  0.3770
 6723TIP3    H241729   5.292   0.407   2.037 -0.1896  2.0910 -1.0006
 6724TIP3   OH241730   3.141   5.010   1.735 -0.0747 -0.6503  0.1428
 6724TIP3    H141731   3.214   4.968   1.779  0.5602  0.8764  0.6329
 6724TIP3    H241732   3.171   5.100   1.720 -0.5423 -0.8804 -2.7599
 6725TIP3   OH241733   0.023   3.490   0.881 -0.3000  0.0096  0.5196
 6725TIP3    H141734   0.107   3.484   0.926  0.2182 -0.0177 -0.4388
 6725TIP3    H241735  -0.041   3.495   0.952  0.4452 -0.7120  1.2670
 6726TIP3   OH241736   6.246   3.089   1.705  1.0373 -0.2478  0.3848
 6726TIP3    H141737   6.287   3.165   1.747 -0.2707  0.1007  1.0806
 6726TIP3    H241738   6.320   3.039   1.670  1.8801  2.1876 -1.6143
 6727TIP3   OH241739   1.308   0.745   8.237  0.7346 -0.5749 -1.0888
 6727TIP3    H141740   1.261   0.715   8.160  0.5481  0.5246 -1.4161
 6727TIP3    H241741   1.279   0.835   8.250  1.0165 -0.6284  0.0676
 6728TIP3   OH241742   5.135   1.822   8.485  0.0584  0.2117 -0.6375
 6728TIP3    H141743   5.100   1.893   8.431  0.4634  0.6228 -0.3638
 6728TIP3    H241744   5.219   1.856   8.518 -0.4667  0.2248  0.7686
 6729TIP3   OH241745   1.096   4.348   8.179  0.1974  0.1023  0.2172
 6729TIP3    H141746   1.156   4.379   8.246 -1.0728  1.0120  0.9791
 6729TIP3    H241747   1.036   4.422   8.165 -0.4456 -0.6015 -0.8660
 6730TIP3   OH241748   3.323   0.485   2.279 -0.2939  0.6922  0.2473
 6730TIP3    H141749   3.376   0.563   2.263  0.4797  0.2366  0.5051
 6730TIP3    H241750   3.332   0.469   2.373 -2.6784  1.8559  0.7407
 6731TIP3   OH241751   1.140   5.686   3.293 -0.6070 -0.1669  0.0657
 6731TIP3    H141752   1.197   5.645   3.358  0.3760  0.0269 -0.6672
 6731TIP3    H241753   1.052   5.675   3.330 -0.0775 -0.0046  1.4624
 6732TIP3   OH241754   2.126   0.284   2.545  0.1821 -0.0287  0.4046
 6732TIP3    H141755   2.110   0.375   2.568 -2.6604 -0.4099  0.2717
 6732TIP3    H241756   2.067   0.234   2.602  0.4021 -1.6660 -0.7366
 6733TIP3   OH241757   4.455   4.649   0.070 -0.4221  0.2264  0.0616
 6733TIP3    H141758   4.396   4.694   0.009  2.4220  2.6099 -1.1921
 6733TIP3    H241759   4.466   4.711   0.142 -0.1042 -0.5423  0.6860
 6734TIP3   OH241760   5.780   1.874   3.319  0.0788  0.0084  0.1603
 6734TIP3    H141761   5.688   1.880   3.295 -0.1394 -1.0221  0.6847
 6734TIP3    H241762   5.819   1.819   3.251  0.0709 -0.4737  0.5421
 6735TIP3   OH241763   3.584   5.119   7.922  0.0110  0.2940 -0.1218
 6735TIP3    H141764   3.535   5.038   7.935  0.3292  0.1745  0.3982
 6735TIP3    H241765   3.519   5.188   7.929 -0.1527  0.1151  0.1294
 6736TIP3   OH241766   1.292   0.959   0.901  0.1520  0.0174 -0.0269
 6736TIP3    H141767   1.333   0.874   0.886  2.4823  1.0540  0.1506
 6736TIP3    H241768   1.290   0.967   0.997 -0.3959  0.0222 -0.0365
 6737TIP3   OH241769   6.226   5.152   2.458 -0.1007 -0.0266 -0.1794
 6737TIP3    H141770   6.171   5.094   2.405  1.0883 -0.8502 -0.5321
 6737TIP3    H241771   6.258   5.218   2.397  0.8815 -0.6963 -0.3990
 6738TIP3   OH241772   3.871   0.992   7.652  0.3424 -0.0161 -0.6679
 6738TIP3    H141773   3.892   1.057   7.585 -0.5726 -0.7577 -1.7046
 6738TIP3    H241774   3.919   0.914   7.625 -1.3440 -0.8290 -1.4275
 6739TIP3   OH241775   4.045   5.645   1.206 -0.0018  0.1124 -0.1349
 6739TIP3    H141776   4.034   5.704   1.280  0.9373 -0.2957  0.3524
 6739TIP3    H241777   3.978   5.671   1.143 -0.6964  0.5839  0.7844
 6740TIP3   OH241778   1.391   5.176   3.271  0.8164  0.6010 -0.0101
 6740TIP3    H141779   1.374   5.241   3.340  0.3068 -1.4729  1.9406
 6740TIP3    H241780   1.486   5.177   3.261  0.9981  0.3240  1.4146
 6741TIP3   OH241781   6.497   5.598   0.970 -0.3986  0.2818 -0.0764
 6741TIP3    H141782   6.438   5.534   1.009 -0.0786  0.0741  0.0681
 6741TIP3    H241783   6.457   5.683   0.991  0.4267  0.2499  1.8248
 6742TIP3   OH241784   1.011   1.054   6.944 -0.3543  0.3858  0.3347
 6742TIP3    H141785   0.953   1.126   6.969 -0.6140 -0.0549  1.0320
 6742TIP3    H241786   0.953   0.991   6.900 -0.1589  0.5294 -0.1286
 6743TIP3   OH241787   1.064   5.310   3.269 -0.6176 -0.1107 -0.4436
 6743TIP3    H141788   1.130   5.354   3.323 -1.2697  0.9094 -0.4487
 6743TIP3    H241789   1.010   5.263   3.332 -0.0780 -0.7046 -0.4121
 6744TIP3   OH241790   0.676   4.371   1.876 -0.0889 -0.2728  0.2777
 6744TIP3    H141791   0.616   4.382   1.950  0.0768  1.4810  0.1877
 6744TIP3    H241792   0.631   4.414   1.803  0.9902  0.4967  0.0577
 6745TIP3   OH241793   3.380   6.098   0.775 -0.1493  0.7617  0.0506
 6745TIP3    H141794   3.300   6.147   0.792 -1.1077 -0.5991 -0.4423
 6745TIP3    H241795   3.424   6.095   0.860 -0.5788  1.5361  0.3149
 6746TIP3   OH241796   2.738   0.868   0.269  0.4689 -0.2368  0.2726
 6746TIP3    H141797   2.699   0.880   0.356 -1.5667  1.8423 -0.8044
 6746TIP3    H241798   2.740   0.773   0.257  0.5179 -0.5707  2.4360
 6747TIP3   OH241799   5.647   1.749   8.099 -0.5293  0.6888  0.1826
 6747TIP3    H141800   5.581   1.717   8.037  2.8542 -1.2660 -2.8117
 6747TIP3    H241801   5.654   1.679   8.164 -0.8697  0.5580  0.0804
 6748TIP3   OH241802   2.324   0.082   8.313 -0.1323 -0.6683  0.1954
 6748TIP3    H141803   2.392   0.149   8.307 -0.5838 -0.2458 -0.2299
 6748TIP3    H241804   2.268   0.111   8.385 -0.9569  0.0029 -0.6921
 6749TIP3   OH241805   0.981   1.748   3.702 -0.1268  0.3913 -0.2583
 6749TIP3    H141806   1.034   1.684   3.655 -1.4143 -2.0209  1.3778
 6749TIP3    H241807   1.024   1.758   3.786 -1.3964 -0.4717  0.5287
 6750TIP3   OH241808   5.136   4.852   0.915  0.3112 -0.3230 -0.3371
 6750TIP3    H141809   5.193   4.819   0.846  1.2236  1.0089 -0.2523
 6750TIP3    H241810   5.191   4.852   0.993 -0.0389  0.1925 -0.0836
 6751TIP3   OH241811   4.265   1.439   1.014  0.2206  0.1269 -0.4870
 6751TIP3    H141812   4.172   1.421   1.023  0.4651 -1.1155 -0.3113
 6751TIP3    H241813   4.290   1.478   1.098 -0.3528  1.5526 -0.9436
 6752TIP3   OH241814   2.820   6.596   8.062  0.4395 -0.6291 -0.3437
 6752TIP3    H141815   2.841   6.675   8.012  2.1134 -0.8515 -0.0249
 6752TIP3    H241816   2.725   6.587   8.052 -0.1055  2.3769  1.0229
 6753TIP3   OH241817   0.875   6.109   1.243  0.1205 -0.0687  0.1494
 6753TIP3    H141818   0.812   6.179   1.263 -0.4003 -0.3181 -0.5872
 6753TIP3    H241819   0.942   6.117   1.311 -0.3375  0.6553  0.5262
 6754TIP3   OH241820   6.227   1.665   1.356  0.0986 -0.1992 -0.1872
 6754TIP3    H141821   6.181   1.641   1.437 -0.6621 -0.2747 -0.6382
 6754TIP3    H241822   6.234   1.760   1.360 -0.1121 -0.1857 -0.1206
 6755TIP3   OH241823   0.101   4.135   7.800  0.1380 -0.7883 -0.0165
 6755TIP3    H141824   0.138   4.049   7.821 -0.4336 -1.1900 -0.6055
 6755TIP3    H241825   0.154   4.167   7.727  0.5181 -0.5238  0.3759
 6756TIP3   OH241826   4.616   1.322   7.985 -0.6572 -0.9470 -0.0331
 6756TIP3    H141827   4.700   1.334   7.941 -0.9336 -0.8143 -0.5306
 6756TIP3    H241828   4.631   1.355   8.074 -0.3960 -0.2362 -0.3360
 6757TIP3   OH241829   6.940   0.485   4.119  0.2988 -0.1029 -0.1699
 6757TIP3    H141830   6.929   0.466   4.212 -0.0518  0.1311 -0.1618
 6757TIP3    H241831   7.034   0.480   4.104  0.1895 -3.6374 -0.5397
 6758TIP3   OH241832   0.069   4.266   1.631  0.5783 -0.0012 -0.7167
 6758TIP3    H141833   0.150   4.233   1.671  1.9177  2.7733 -0.9361
 6758TIP3    H241834   0.067   4.224   1.545  0.9292 -1.2875 -0.1349
 6759TIP3   OH241835   3.793   3.829   2.539 -0.5211 -0.7092  0.5486
 6759TIP3    H141836   3.770   3.762   2.603 -0.4686  0.0425  1.3598
 6759TIP3    H241837   3.861   3.882   2.581 -0.3429 -0.3220 -0.1971
 6760TIP3   OH241838   4.069   1.653   2.333  0.0978 -0.3453  0.4881
 6760TIP3    H141839   4.011   1.610   2.395  0.1136  0.7650  1.3137
 6760TIP3    H241840   4.033   1.633   2.247 -0.4498 -1.1619  0.9013
 6761TIP3   OH241841   0.965   4.312   2.957 -0.5491  0.3035 -0.0251
 6761TIP3    H141842   0.877   4.348   2.950 -0.1085  1.2900 -0.7560
 6761TIP3    H241843   0.998   4.343   3.041  0.4751  3.2451 -1.3670
 6762TIP3   OH241844   3.156   1.791   7.603 -0.0922 -0.0401 -0.2231
 6762TIP3    H141845   3.165   1.696   7.608 -1.0984 -0.2329 -1.4809
 6762TIP3    H241846   3.094   1.805   7.531  0.3130  1.5812 -0.2912
 6763TIP3   OH241847   6.123   1.688   2.946  0.1689 -0.2134 -0.1332
 6763TIP3    H141848   6.150   1.596   2.947  0.5523 -0.1058 -0.4209
 6763TIP3    H241849   6.097   1.705   2.855  0.1876 -0.0164 -0.1035
 6764TIP3   OH241850   0.309   5.300   1.606  0.1401  0.3027 -0.5566
 6764TIP3    H141851   0.217   5.327   1.596 -0.6095 -0.5354  2.7381
 6764TIP3    H241852   0.339   5.345   1.685  2.4851  0.2736 -1.3661
 6765TIP3   OH241853   6.849   6.542   3.111 -0.1313  0.0255  0.1243
 6765TIP3    H141854   6.872   6.606   3.179 -0.1005  0.0892  0.0528
 6765TIP3    H241855   6.753   6.542   3.110 -0.1576  1.5012 -1.2311
 6766TIP3   OH241856   6.436   5.818   0.163  0.3166 -0.6193  0.2758
 6766TIP3    H141857   6.391   5.860   0.090 -0.1348 -0.8997  0.3812
 6766TIP3    H241858   6.393   5.732   0.171  0.6899 -0.7836  0.5581
 6767TIP3   OH241859   1.664   4.781   2.846  0.1367  0.0609  0.3060
 6767TIP3    H141860   1.749   4.775   2.803 -0.2402  2.1301 -0.9067
 6767TIP3    H241861   1.682   4.823   2.930  0.6604 -2.4102  1.4932
 6768TIP3   OH241862   6.739   3.926   0.823 -0.4433  0.3254  0.3040
 6768TIP3    H141863   6.740   3.875   0.904 -1.3231 -0.0227  0.1076
 6768TIP3    H241864   6.658   3.976   0.827  0.0865  1.2150  0.1780
 6769TIP3   OH241865   0.712   6.705   2.762 -0.0287 -0.2989 -0.2656
 6769TIP3    H141866   0.806   6.712   2.749 -0.1670  1.5397 -0.5799
 6769TIP3    H241867   0.698   6.616   2.794  2.3326  0.6570  4.2497
 6770TIP3   OH241868   5.215   3.361   1.321  0.5294  0.1514  0.0300
 6770TIP3    H141869   5.221   3.415   1.400  2.2857  1.6163 -1.0096
 6770TIP3    H241870   5.195   3.423   1.251  0.4959 -0.8845 -0.9059
 6771TIP3   OH241871   4.643   1.808   2.045  0.5374 -0.1327 -0.8083
 6771TIP3    H141872   4.581   1.851   1.986 -0.6836  1.1408  1.3110
 6771TIP3    H241873   4.589   1.754   2.102  1.6305 -0.8626 -0.4374
 6772TIP3   OH241874   0.375   5.481   8.016 -0.6251  0.0339 -0.4566
 6772TIP3    H141875   0.431   5.558   8.013  0.2414 -0.5652  0.1581
 6772TIP3    H241876   0.337   5.482   8.104 -0.5691 -0.2658 -0.4278
 6773TIP3   OH241877   6.782   1.996   3.045 -0.3194  0.1955 -0.1220
 6773TIP3    H141878   6.755   2.003   2.953  0.1109 -0.3069 -0.2936
 6773TIP3    H241879   6.859   2.054   3.051  0.6993 -1.0680 -0.5148
 6774TIP3   OH241880   3.231   0.484   8.378 -0.4475  0.6298 -0.1681
 6774TIP3    H141881   3.304   0.500   8.438  1.3154 -2.2853 -1.3257
 6774TIP3    H241882   3.224   0.565   8.327  3.8448  0.2264 -1.7848
 6775TIP3   OH241883   6.100   5.979   3.533 -0.2324 -0.5267 -0.1200
 6775TIP3    H141884   6.145   6.063   3.533  0.8995 -1.0599  2.2582
 6775TIP3    H241885   6.025   5.993   3.591 -0.5350 -0.9193 -0.4175
 6776TIP3   OH241886   0.567   6.258   2.960  0.2864 -0.1258 -0.0746
 6776TIP3    H141887   0.654   6.252   2.922  0.9835  0.2522  1.3732
 6776TIP3    H241888   0.580   6.237   3.053 -1.1578 -0.0412  0.1692
 6777TIP3   OH241889   3.908   4.420   1.547 -0.3056  0.3521 -0.1880
 6777TIP3    H141890   3.880   4.430   1.638 -2.4873  4.8632 -1.0384
 6777TIP3    H241891   3.988   4.472   1.541  0.6187 -1.0892 -0.5986
 6778TIP3   OH241892   3.519   2.577   8.036 -0.0450  0.7105  0.4994
 6778TIP3    H141893   3.600   2.622   8.061 -0.1312  0.8661  0.5002
 6778TIP3    H241894   3.461   2.647   8.005  0.0437  0.5207 -0.0923
 6779TIP3   OH241895   0.080   3.775   2.244  0.3252  0.0427 -0.5543
 6779TIP3    H141896   0.105   3.777   2.337  1.5561 -0.3356 -0.8626
 6779TIP3    H241897   0.011   3.709   2.239  0.8472 -0.5555 -0.0357
 6780TIP3   OH241898   2.397   1.720   0.217  0.3469  0.5407  0.2236
 6780TIP3    H141899   2.467   1.729   0.281  0.8691  2.2031 -0.5160
 6780TIP3    H241900   2.317   1.740   0.267  0.3796 -1.0370  0.9871
 6781TIP3   OH241901   3.171   6.435   0.479 -0.6012  0.1409 -0.7470
 6781TIP3    H141902   3.119   6.405   0.404 -0.8383  0.8481 -0.8755
 6781TIP3    H241903   3.234   6.365   0.494 -1.2792 -0.5068 -0.8979
 6782TIP3   OH241904   4.974   3.079   0.681 -0.2426  0.1416 -0.7939
 6782TIP3    H141905   5.022   3.086   0.598 -0.7154 -0.9475 -1.1802
 6782TIP3    H241906   4.916   3.004   0.669 -1.4328  0.9036 -0.0196
 6783TIP3   OH241907   1.350   5.076   0.173  0.4321 -0.6211  0.4088
 6783TIP3    H141908   1.275   5.050   0.120  1.2152 -0.5730 -0.7595
 6783TIP3    H241909   1.345   5.020   0.250  0.1874 -1.8857 -0.4818
 6784TIP3   OH241910   3.906   6.906   2.357  0.0718  0.4811  0.1324
 6784TIP3    H141911   3.915   6.987   2.307  1.6545  0.0464 -0.3575
 6784TIP3    H241912   3.899   6.838   2.290 -0.5438  0.1391  0.5345
 6785TIP3   OH241913   5.576   2.860   2.064  0.8252  0.6406  0.3407
 6785TIP3    H141914   5.652   2.908   2.097  0.9409  0.0690  0.9455
 6785TIP3    H241915   5.592   2.852   1.970  1.9173 -0.1270  0.5599
 6786TIP3   OH241916   5.120   6.381   0.693  0.1229 -0.0262  0.0857
 6786TIP3    H141917   5.211   6.367   0.667  0.3090 -0.8120  1.0925
 6786TIP3    H241918   5.069   6.351   0.618  0.6766 -0.5853 -0.0768
 6787TIP3   OH241919   1.525   4.656   1.193  0.2387 -0.2069 -0.9243
 6787TIP3    H141920   1.446   4.604   1.180 -0.1583 -0.1381  0.9612
 6787TIP3    H241921   1.495   4.737   1.235  1.3262 -0.4089  0.3353
 6788TIP3   OH241922   6.663   1.215   1.870  0.2842 -0.5266  0.1883
 6788TIP3    H141923   6.653   1.215   1.965 -0.3643  0.0011  0.1289
 6788TIP3    H241924   6.749   1.253   1.855  0.0629  0.1432  0.5487
 6789TIP3   OH241925   1.581   0.202   2.490 -0.0292  0.4746 -0.9473
 6789TIP3    H141926   1.541   0.279   2.451  3.7742  2.6145 -1.1300
 6789TIP3    H241927   1.634   0.164   2.420 -0.2772 -1.1549 -0.2936
 6790TIP3   OH241928   2.991   6.177   1.672  0.3729 -0.0099  0.2785
 6790TIP3    H141929   2.989   6.272   1.676  1.7656  0.0642 -0.1425
 6790TIP3    H241930   2.919   6.149   1.728 -0.8614  1.2934 -0.5903
 6791TIP3   OH241931   6.104   1.285   8.357 -0.1429  0.0168  0.1953
 6791TIP3    H141932   6.157   1.289   8.277  0.4295  3.0121  0.5814
 6791TIP3    H241933   6.131   1.363   8.406 -0.3271 -1.8138  3.4375
 6792TIP3   OH241934   5.802   0.799   4.244 -0.4593  0.0730  0.2431
 6792TIP3    H141935   5.852   0.866   4.198  0.3756 -0.7464 -0.0896
 6792TIP3    H241936   5.711   0.814   4.218 -0.4133  1.5927  0.8664
 6793TIP3   OH241937   4.372   2.767   3.556 -0.0398  0.1941  0.1263
 6793TIP3    H141938   4.380   2.679   3.591  2.4939  1.0638  2.0529
 6793TIP3    H241939   4.347   2.755   3.464 -1.2564 -2.4009  0.7245
 6794TIP3   OH241940   4.823   4.198   2.017 -0.2089 -0.3878  0.6816
 6794TIP3    H141941   4.731   4.170   2.013 -0.6047  0.8514  0.4641
 6794TIP3    H241942   4.845   4.218   1.926 -0.7377  2.2645  1.0489
 6795TIP3   OH241943   5.172   2.737   2.058 -0.2320  0.2014  0.3542
 6795TIP3    H141944   5.251   2.782   2.027 -0.1493  0.6067  1.1192
 6795TIP3    H241945   5.122   2.717   1.979  1.5925 -1.9115 -0.3700
 6796TIP3   OH241946   2.540   2.943   1.763  0.1175  0.4001  0.3325
 6796TIP3    H141947   2.452   2.956   1.797 -0.2401 -0.4257 -0.2291
 6796TIP3    H241948   2.536   2.976   1.673  0.7359  1.5110  0.6960
 6797TIP3   OH241949   3.689   2.249   0.733 -0.6028  0.1023 -0.9719
 6797TIP3    H141950   3.695   2.199   0.814  0.9619  1.0477 -0.4663
 6797TIP3    H241951   3.610   2.302   0.743  0.1086  0.9629  0.4118
 6798TIP3   OH241952   4.467   4.297   0.210  0.0207 -0.6873  0.2692
 6798TIP3    H141953   4.423   4.243   0.276  0.2178 -0.1661  0.8458
 6798TIP3    H241954   4.535   4.241   0.173  1.5064 -0.2944  2.2091
 6799TIP3   OH241955   4.693   3.684   0.432  0.1948 -0.0494  0.1571
 6799TIP3    H141956   4.617   3.643   0.389 -0.5579  1.2946  0.1458
 6799TIP3    H241957   4.768   3.645   0.389 -0.3422 -3.3690  1.9278
 6800TIP3   OH241958   6.049   0.813   7.857 -0.1175  0.0684 -0.4240
 6800TIP3    H141959   6.092   0.828   7.941 -2.1207 -1.1929  0.9163
 6800TIP3    H241960   6.071   0.722   7.835 -0.5855  0.0054 -0.6435
 6801TIP3   OH241961   0.257   3.630   0.301 -0.2731 -0.1426 -0.2326
 6801TIP3    H141962   0.224   3.682   0.228 -1.6196  1.3331  1.3382
 6801TIP3    H241963   0.326   3.684   0.339 -1.4950  0.4312  1.2506
 6802TIP3   OH241964   6.117   1.831   1.770 -0.2724  0.1894  0.0207
 6802TIP3    H141965   6.152   1.899   1.713 -1.3766 -0.0551 -0.9926
 6802TIP3    H241966   6.074   1.880   1.841 -2.0760  0.6314 -1.3125
 6803TIP3   OH241967   3.532   1.272   8.394  0.3441 -0.3233  0.4692
 6803TIP3    H141968   3.464   1.294   8.330  1.7419  1.6202 -0.4650
 6803TIP3    H241969   3.614   1.289   8.348  1.4623 -1.3872  1.9714
 6804TIP3   OH241970   3.626   3.968   0.852 -0.4844 -0.0071 -0.6668
 6804TIP3    H141971   3.573   3.974   0.932 -0.6124  1.9379 -0.8425
 6804TIP3    H241972   3.707   4.015   0.874 -1.6748  3.2587 -2.4646
 6805TIP3   OH241973   3.255   3.035   2.960 -0.3692  0.5022  0.0974
 6805TIP3    H141974   3.202   2.967   3.003 -0.2920  1.2161  1.3640
 6805TIP3    H241975   3.314   2.986   2.902  1.7458 -0.8690  3.1071
 6806TIP3   OH241976   0.278   1.268   0.067 -0.3764 -0.1519  0.4658
 6806TIP3    H141977   0.218   1.224   0.127 -0.8642 -0.1784 -0.0356
 6806TIP3    H241978   0.225   1.290  -0.009  0.5528 -1.4481 -0.6178
 6807TIP3   OH241979   2.908   4.476   8.009  0.4178 -0.0485 -0.3159
 6807TIP3    H141980   2.885   4.491   8.101  1.7542 -2.6603  0.5621
 6807TIP3    H241981   2.826   4.487   7.961 -0.9707 -1.4747  1.6040
 6808TIP3   OH241982   5.378   4.273   3.156  0.0553  0.1243  0.5020
 6808TIP3    H141983   5.367   4.342   3.222 -1.4674  0.2438  0.1599
 6808TIP3    H241984   5.420   4.317   3.082 -2.0286  1.0431 -0.2026
 6809TIP3   OH241985   4.925   2.126   3.140  0.2574  0.3812 -0.0793
 6809TIP3    H141986   4.933   2.184   3.216  1.3050  1.1097 -0.7380
 6809TIP3    H241987   4.893   2.044   3.178  0.9304  0.6679  1.1826
 6810TIP3   OH241988   5.354   5.224   0.853  0.7039 -0.2178 -0.6277
 6810TIP3    H141989   5.309   5.307   0.872  2.3761  0.8578 -1.2232
 6810TIP3    H241990   5.388   5.234   0.765  3.0490 -0.5434  0.1758
 6811TIP3   OH241991   4.684   1.569   8.148 -0.2789 -0.2242  0.4457
 6811TIP3    H141992   4.692   1.645   8.092 -1.5911 -0.6656 -0.4091
 6811TIP3    H241993   4.705   1.601   8.236  0.7278  0.7338 -0.1274
 6812TIP3   OH241994   2.308   5.095   2.405 -0.4393 -0.1151  0.0607
 6812TIP3    H141995   2.377   5.057   2.459 -1.4954 -1.2507  0.6767
 6812TIP3    H241996   2.348   5.107   2.319 -0.3725 -4.1342 -0.6685
 6813TIP3   OH241997   4.456   2.862   2.962  0.1681 -0.0645  0.1135
 6813TIP3    H141998   4.439   2.768   2.954 -1.0976  0.2670 -1.5879
 6813TIP3    H241999   4.437   2.883   3.054  0.8128 -1.5064  0.5999
 6814TIP3   OH242000   0.781   1.930   2.044 -0.0419 -0.0890 -0.3201
 6814TIP3    H142001   0.723   1.965   1.976 -0.3982 -1.8286 -0.9756
 6814TIP3    H242002   0.847   1.998   2.056 -0.4883  0.6583 -1.7500
 6815TIP3   OH242003   0.747   4.022   1.489  0.1463  0.3306  0.2780
 6815TIP3    H142004   0.746   3.927   1.477 -3.3140  0.2632  0.0168
 6815TIP3    H242005   0.786   4.035   1.575  0.0372 -1.3906  0.6300
 6816TIP3   OH242006   5.077   4.776   8.351 -0.1954  0.6726  0.0149
 6816TIP3    H142007   5.072   4.697   8.298  0.6962  1.3111 -1.0863
 6816TIP3    H242008   5.006   4.767   8.415  0.2661 -1.2670  0.3114
 6817TIP3   OH242009   3.865   1.148   7.429  0.3191 -0.3506 -0.2506
 6817TIP3    H142010   3.886   1.219   7.489 -1.3178 -0.5360  0.5902
 6817TIP3    H242011   3.941   1.142   7.372  2.1982 -0.5120  2.1196
 6818TIP3   OH242012   5.789   0.183   2.629  0.0927 -0.0146  0.6237
 6818TIP3    H142013   5.803   0.102   2.580  0.8670  0.0536  0.7261
 6818TIP3    H242014   5.798   0.252   2.564  1.0863  0.0738  0.8431
 6819TIP3   OH242015   0.778   0.748   0.667  0.2149  0.2182 -0.3404
 6819TIP3    H142016   0.843   0.716   0.604  1.4339 -0.1915  1.0838
 6819TIP3    H242017   0.829   0.789   0.736 -1.0584  0.1508  0.6791
 6820TIP3   OH242018   4.966   5.342   3.499  0.1014 -0.6699 -0.1116
 6820TIP3    H142019   4.881   5.300   3.513  0.7636 -2.0784 -0.1549
 6820TIP3    H242020   5.011   5.284   3.437  2.2888 -1.7136  2.2787
 6821TIP3   OH242021   3.273   6.819   7.406  0.1228  0.0162  0.4895
 6821TIP3    H142022   3.357   6.778   7.426  0.5929  0.9936  0.5668
 6821TIP3    H242023   3.293   6.883   7.338 -1.0345 -1.5769 -1.4717
 6822TIP3   OH242024   5.061   3.640   2.294  0.3086 -0.1933  0.2194
 6822TIP3    H142025   5.015   3.671   2.216  1.1718 -0.0522 -0.2508
 6822TIP3    H242026   5.081   3.548   2.275 -1.8940 -0.9752  1.4433
 6823TIP3   OH242027   5.708   5.638   3.845  0.2522 -0.3366 -0.0378
 6823TIP3    H142028   5.749   5.590   3.773 -0.2371 -1.2779  0.2982
 6823TIP3    H242029   5.780   5.654   3.907  0.9438  1.5169 -1.2158
 6824TIP3   OH242030   5.880   6.251   7.772 -0.3234  0.0466 -0.0810
 6824TIP3    H142031   5.884   6.261   7.677  0.8137  0.2039 -0.0263
 6824TIP3    H242032   5.969   6.227   7.798 -0.4899  0.5105  0.9950
 6825TIP3   OH242033   1.147   6.319   8.312 -0.5034 -0.5278 -0.0674
 6825TIP3    H142034   1.158   6.338   8.219  1.2591 -0.5744  0.0954
 6825TIP3    H242035   1.105   6.232   8.314 -1.2977 -0.1715 -0.7991
 6826TIP3   OH242036   6.722   0.280   0.321 -0.3083  0.6664 -0.0030
 6826TIP3    H142037   6.695   0.273   0.412  0.6963 -0.9797  0.2068
 6826TIP3    H242038   6.686   0.202   0.279  0.5865  0.5820 -0.6439
 6827TIP3   OH242039   3.823   2.903   1.882  0.3466 -0.5411  0.6230
 6827TIP3    H142040   3.738   2.885   1.842 -0.0311  0.0594  1.1353
 6827TIP3    H242041   3.871   2.951   1.815  0.5093 -1.3755  0.1177
 6828TIP3   OH242042   5.185   0.041   3.850  0.4632  0.2257 -0.6306
 6828TIP3    H142043   5.212   0.127   3.882 -0.6835  0.8124 -1.1783
 6828TIP3    H242044   5.198   0.045   3.755 -0.7859  0.2685 -0.8216
 6829TIP3   OH242045   0.028   2.051   0.157 -0.0915 -0.5091  0.3171
 6829TIP3    H142046   0.070   1.989   0.215 -1.6559 -0.4167  1.6181
 6829TIP3    H242047  -0.004   1.998   0.084  1.4888 -0.6920 -0.2821
 6830TIP3   OH242048   4.211   2.016   3.193 -0.2634  0.5305 -0.3229
 6830TIP3    H142049   4.259   1.989   3.271  0.2123 -2.0440 -1.3879
 6830TIP3    H242050   4.246   2.103   3.171  2.7185 -0.4834 -0.0643
 6831TIP3   OH242051   0.712   4.430   2.926 -0.3199  0.1484  0.5001
 6831TIP3    H142052   0.694   4.384   2.844  1.3538  0.2597  0.0246
 6831TIP3    H242053   0.629   4.428   2.974 -0.6324 -2.2927 -0.0221
 6832TIP3   OH242054   0.004   3.024   1.552 -0.2492 -0.0003  0.7756
 6832TIP3    H142055   0.073   2.979   1.602  0.7044  0.1155 -0.3801
 6832TIP3    H242056   0.048   3.100   1.514 -1.3300  0.7527  0.9821
 6833TIP3   OH242057   1.484   6.806   0.152 -0.0040 -0.6727 -0.0180
 6833TIP3    H142058   1.435   6.773   0.227 -2.4253 -0.7456 -1.5322
 6833TIP3    H242059   1.517   6.728   0.108  0.9824 -0.6483  0.6344
 6834TIP3   OH242060   2.039   1.828   3.125 -0.1559 -0.1556 -0.5895
 6834TIP3    H142061   1.975   1.789   3.184 -0.7629  2.0021  0.2800
 6834TIP3    H242062   2.121   1.782   3.144  0.1326  1.5897  3.3436
 6835TIP3   OH242063   4.816   3.231   0.386  0.5911  0.5666 -0.1088
 6835TIP3    H142064   4.833   3.227   0.292  0.8512 -0.6460 -0.0204
 6835TIP3    H242065   4.722   3.247   0.393 -0.0165 -2.2375 -0.6137
 6836TIP3   OH242066   4.260   0.141   0.872  0.7092  0.3639 -0.4597
 6836TIP3    H142067   4.296   0.064   0.828 -0.2889  0.6937 -1.8925
 6836TIP3    H242068   4.311   0.214   0.838  0.2083  0.5759 -0.7553
 6837TIP3   OH242069   0.199   6.253   0.937  0.0905 -0.5983  0.3428
 6837TIP3    H142070   0.184   6.212   0.852  1.0125 -2.6814  1.1283
 6837TIP3    H242071   0.112   6.257   0.978  0.1085 -2.9347  0.7143
 6838TIP3   OH242072   1.359   2.334   2.157  0.5993 -0.2467 -0.3477
 6838TIP3    H142073   1.413   2.354   2.080  2.1491  0.6990  0.9289
 6838TIP3    H242074   1.409   2.269   2.205 -0.8832 -1.6654 -0.6402
 6839TIP3   OH242075   3.336   4.420   1.617  0.0576 -0.1853  0.6611
 6839TIP3    H142076   3.350   4.332   1.652 -0.2580 -0.0934  1.0320
 6839TIP3    H242077   3.257   4.412   1.564  0.6594 -0.3750 -0.2288
 6840TIP3   OH242078   2.593   6.101   2.525 -0.2114 -0.2129  0.1517
 6840TIP3    H142079   2.677   6.058   2.545 -0.2941 -0.2376  0.4397
 6840TIP3    H242080   2.593   6.180   2.580  0.5552  0.8999 -1.3521
 6841TIP3   OH242081   0.064   1.393   1.257  0.3987  0.5263 -0.3742
 6841TIP3    H142082   0.065   1.318   1.316 -0.7441 -0.4300 -1.5208
 6841TIP3    H242083   0.043   1.356   1.171  0.3229  2.0852 -1.0597
 6842TIP3   OH242084   1.744   0.003   0.287 -0.3134 -0.0153  0.0423
 6842TIP3    H142085   1.797   0.081   0.271 -1.4958  1.6190  3.1730
 6842TIP3    H242086   1.792  -0.068   0.245  2.4293  1.9148 -0.3398
 6843TIP3   OH242087   6.520   3.397   1.047  0.1233 -0.3900 -0.5377
 6843TIP3    H142088   6.539   3.423   0.957 -1.4541  0.3381 -0.7043
 6843TIP3    H242089   6.506   3.302   1.042 -2.0661 -0.0877 -1.5366
 6844TIP3   OH242090   5.508   1.902   3.348 -0.0603 -0.0535 -0.2573
 6844TIP3    H142091   5.444   1.832   3.333 -0.4325  0.0122  0.9642
 6844TIP3    H242092   5.462   1.966   3.402  0.9108  0.1933  0.2972
 6845TIP3   OH242093   3.650   6.620   2.330  0.5515  0.1610 -0.2124
 6845TIP3    H142094   3.629   6.691   2.390  0.9696 -0.4915  0.7174
 6845TIP3    H242095   3.612   6.542   2.370 -1.1730  0.0506 -1.9350
 6846TIP3   OH242096   3.495   1.312   1.323  0.4393 -0.2284  0.1786
 6846TIP3    H142097   3.543   1.395   1.327  0.4033 -0.0361 -2.2692
 6846TIP3    H242098   3.498   1.286   1.231  1.0994 -3.3660  0.9805
 6847TIP3   OH242099   4.812   3.492   1.155 -0.4723 -0.6345 -0.2906
 6847TIP3    H142100   4.834   3.405   1.189 -2.2252 -0.3486  1.8054
 6847TIP3    H242101   4.850   3.552   1.219 -2.2697 -0.0117  0.2496
 6848TIP3   OH242102   2.828   3.088   2.558 -0.1970  0.9720 -0.1492
 6848TIP3    H142103   2.759   3.061   2.498 -0.3710  0.5605  0.2362
 6848TIP3    H242104   2.792   3.073   2.646  0.4213  0.6461  0.0540
 6849TIP3   OH242105   3.995   6.619   1.896 -0.5481 -0.1164  0.1782
 6849TIP3    H142106   4.036   6.701   1.921 -1.7215  0.5270  0.0629
 6849TIP3    H242107   4.001   6.617   1.801  0.7398 -0.8661  0.2480
 6850TIP3   OH242108   2.062   5.981   1.456 -0.3374 -0.3286 -0.1854
 6850TIP3    H142109   2.123   6.033   1.508  0.6951 -2.3409  0.7251
 6850TIP3    H242110   1.986   5.969   1.513 -0.3852 -0.1821 -0.2193
 6851TIP3   OH242111   6.503   6.808   8.332 -0.0689 -0.2820  0.2636
 6851TIP3    H142112   6.575   6.820   8.271  1.0415  0.5430  1.6740
 6851TIP3    H242113   6.545   6.803   8.418 -1.5360 -1.8878  0.9388
 6852TIP3   OH242114   5.098   1.024   2.402  0.4178  0.0102  0.4721
 6852TIP3    H142115   5.100   1.107   2.450  1.0322 -1.0335  2.3494
 6852TIP3    H242116   5.189   0.994   2.402  0.5235  0.1683 -1.7976
 6853TIP3   OH242117   4.730   6.079   0.453  0.6650 -0.2434  0.2107
 6853TIP3    H142118   4.650   6.131   0.450  1.7147  1.3804 -0.7211
 6853TIP3    H242119   4.718   6.021   0.529 -0.5200  1.4019  1.3422
 6854TIP3   OH242120   3.484   2.797   2.179  0.3008  0.0857  0.0056
 6854TIP3    H142121   3.461   2.762   2.266  1.5472  1.1418  0.7969
 6854TIP3    H242122   3.505   2.719   2.128  1.0110 -0.4956  1.1208
 6855TIP3   OH242123   3.094   6.379   3.473  0.4122 -0.0009  0.3049
 6855TIP3    H142124   3.189   6.365   3.466 -0.0021 -2.5584 -1.7875
 6855TIP3    H242125   3.074   6.439   3.401  0.1183 -1.8752 -1.2416
 6856TIP3   OH242126   0.338   4.005   2.377 -0.1977  0.2653  1.0021
 6856TIP3    H142127   0.263   3.952   2.405 -0.6847  0.9272  0.9628
 6856TIP3    H242128   0.393   4.012   2.455  0.4279 -1.2105  0.7253
 6857TIP3   OH242129   2.654   6.029   1.532  0.3411  0.2293 -0.6018
 6857TIP3    H142130   2.669   6.086   1.457  1.6133 -0.6972 -1.0891
 6857TIP3    H242131   2.736   5.981   1.543 -0.3942 -0.8935  0.3161
 6858TIP3   OH242132   1.182   5.491   2.086  0.1568  0.0724 -0.0544
 6858TIP3    H142133   1.205   5.424   2.151  1.0179  1.8038  1.5457
 6858TIP3    H242134   1.210   5.574   2.127 -1.0529  1.4369 -1.8404
 6859TIP3   OH242135   3.987   3.895   0.825  0.0814  0.1427  0.7779
 6859TIP3    H142136   3.943   3.976   0.852  2.7790  1.7346  0.8611
 6859TIP3    H242137   4.080   3.919   0.823  0.7423 -2.0174 -2.4856
 6860TIP3   OH242138   3.829   1.421   0.340 -1.0946 -0.1188  0.1711
 6860TIP3    H142139   3.794   1.510   0.341 -0.7101  0.1905 -2.8895
 6860TIP3    H242140   3.911   1.427   0.389 -0.9091  1.3039 -0.2691
 6861TIP3   OH242141   3.845   6.356   3.123 -0.1398 -0.1198  0.0062
 6861TIP3    H142142   3.911   6.295   3.089  0.1053  0.2849 -0.2467
 6861TIP3    H242143   3.896   6.423   3.168 -0.3883  0.1087 -0.0535
 6862TIP3   OH242144   6.756   0.320   2.370 -0.9058 -0.2092  0.0913
 6862TIP3    H142145   6.791   0.328   2.281 -2.4500  2.1089 -0.3666
 6862TIP3    H242146   6.668   0.285   2.358 -1.3124  0.5976  0.6605
 6863TIP3   OH242147   0.150   2.590   7.758 -0.1097 -0.5998  0.5167
 6863TIP3    H142148   0.059   2.614   7.774 -0.6203 -1.7043 -0.5756
 6863TIP3    H242149   0.146   2.502   7.722  1.4638 -1.0409  1.3009
 6864TIP3   OH242150   4.428   4.193   2.728 -0.0285  0.1117 -0.2668
 6864TIP3    H142151   4.382   4.141   2.794  1.1159  1.4870  1.7216
 6864TIP3    H242152   4.499   4.236   2.777 -0.5815  3.1240 -1.8860
 6865TIP3   OH242153   1.151   2.269   0.579 -0.2004 -0.1587  0.2355
 6865TIP3    H142154   1.128   2.335   0.645 -2.8538 -0.9966  0.2995
 6865TIP3    H242155   1.087   2.282   0.509  0.1852 -1.6613 -0.4415
 6866TIP3   OH242156   0.731   3.590   8.138 -0.5832  0.2299  0.5922
 6866TIP3    H142157   0.636   3.584   8.130 -0.4722 -0.8487 -0.0253
 6866TIP3    H242158   0.763   3.593   8.048  0.0313 -0.8192  0.7550
 6867TIP3   OH242159   3.517   4.657   8.018 -0.2688 -0.1249  0.6157
 6867TIP3    H142160   3.605   4.646   8.053 -0.5954  1.0806  1.8834
 6867TIP3    H242161   3.459   4.623   8.086 -0.8158 -0.2057  0.1175
 6868TIP3   OH242162   4.913   3.261   3.233 -0.1829  0.0971 -0.4106
 6868TIP3    H142163   4.886   3.286   3.321 -0.7401  0.6073 -0.7227
 6868TIP3    H242164   4.833   3.263   3.181  0.1771  0.0107 -0.9802
 6869TIP3   OH242165   2.445   2.589   8.450  0.1780 -0.4432 -0.0994
 6869TIP3    H142166   2.352   2.609   8.439  0.2096  1.3432  2.2336
 6869TIP3    H242167   2.490   2.662   8.406  0.5007 -1.1387 -0.9487
 6870TIP3   OH242168   4.941   6.852   3.808 -0.2872  0.6092  0.0477
 6870TIP3    H142169   5.026   6.895   3.810  0.0845 -0.0654  2.9887
 6870TIP3    H242170   4.883   6.915   3.765  1.1033  2.3100  0.5676
 6871TIP3   OH242171   6.669   6.863   0.463  0.5916 -0.4557  0.3784
 6871TIP3    H142172   6.740   6.886   0.404 -0.7336 -1.2990 -1.6435
 6871TIP3    H242173   6.615   6.942   0.470  0.6552 -0.4080  0.3199
 6872TIP3   OH242174   4.092   6.785   1.291 -0.1737  0.1021 -0.4901
 6872TIP3    H142175   4.037   6.861   1.310 -0.3715 -0.3577  0.8769
 6872TIP3    H242176   4.165   6.820   1.239 -1.0011  0.9620 -1.1010
 6873TIP3   OH242177   0.125   5.573   7.560 -0.6259  0.0001  0.1610
 6873TIP3    H142178   0.107   5.650   7.615 -0.9704  0.0419 -0.0076
 6873TIP3    H242179   0.201   5.598   7.507 -1.4552  0.6684 -0.7416
 6874TIP3   OH242180   5.872   0.682   1.791 -0.2769 -0.2314 -0.3810
 6874TIP3    H142181   5.811   0.756   1.786 -0.9820 -0.8689 -3.2227
 6874TIP3    H242182   5.881   0.653   1.700  1.7075 -2.2637  0.3826
 6875TIP3   OH242183   5.004   0.965   2.835 -0.4051  0.0306 -0.2733
 6875TIP3    H142184   4.911   0.982   2.819  0.0332  2.3715 -0.8081
 6875TIP3    H242185   5.050   1.026   2.776  1.4019  1.3349  2.2683
 6876TIP3   OH242186   4.107   2.670   1.387 -0.1977  0.7306 -0.4267
 6876TIP3    H142187   4.033   2.679   1.447  0.3657 -2.1125  0.8527
 6876TIP3    H242188   4.170   2.737   1.415 -1.5681  2.1087 -0.5065
 6877TIP3   OH242189   4.891   2.807   0.358  0.2070 -0.2146  0.0645
 6877TIP3    H142190   4.806   2.816   0.316 -0.1807  1.0167  1.0437
 6877TIP3    H242191   4.946   2.874   0.317 -0.5329  1.8926  2.2439
 6878TIP3   OH242192   3.286   1.941   1.600  0.2055  0.2485  0.7270
 6878TIP3    H142193   3.222   1.874   1.577 -1.8326  2.4214 -0.2907
 6878TIP3    H242194   3.261   1.970   1.688 -1.6336  2.4826 -0.4134
 6879TIP3   OH242195   3.382   0.100   1.357 -0.8568  0.0617  0.2316
 6879TIP3    H142196   3.391   0.120   1.264 -0.1643 -1.8357 -0.1440
 6879TIP3    H242197   3.304   0.045   1.363 -0.2515 -0.7710  0.6076
 6880TIP3   OH242198   5.442   6.903   2.676  0.1424 -0.1524  0.2383
 6880TIP3    H142199   5.387   6.870   2.747 -0.0176 -2.5095 -0.8879
 6880TIP3    H242200   5.470   6.990   2.705 -2.8887  0.4926  1.5311
 6881TIP3   OH242201   0.302   1.601   0.490 -0.3839  0.5070 -0.4773
 6881TIP3    H142202   0.341   1.688   0.485 -0.1036  0.3951 -0.2851
 6881TIP3    H242203   0.214   1.612   0.455 -0.5372  0.9732  0.0512
 6882TIP3   OH242204   6.124   2.613   2.401  0.4366  0.0384 -0.0872
 6882TIP3    H142205   6.215   2.599   2.428  0.1133 -0.2311  0.8913
 6882TIP3    H242206   6.101   2.698   2.438  0.4092  0.2897 -0.6739
 6883TIP3   OH242207   0.152   3.228   1.493  0.3774  0.6312  0.3465
 6883TIP3    H142208   0.105   3.283   1.431  1.7553  0.9818 -0.4254
 6883TIP3    H242209   0.232   3.203   1.448  0.2033 -1.3057  1.0106
 6884TIP3   OH242210   4.605   4.675   2.823 -0.6608  0.6627  0.0033
 6884TIP3    H142211   4.657   4.736   2.771 -0.8302  0.2527 -0.6504
 6884TIP3    H242212   4.637   4.589   2.798 -1.5690  0.4126 -0.3091
 6885TIP3   OH242213   3.860   3.498   0.894  0.0629  0.2651 -0.0663
 6885TIP3    H142214   3.845   3.589   0.920  0.3718  0.2162  0.2902
 6885TIP3    H242215   3.936   3.502   0.836  0.6913  0.1276  0.7210
 6886TIP3   OH242216   6.009   1.241   2.869 -0.0011  0.1346 -0.2991
 6886TIP3    H142217   5.982   1.181   2.938  1.9227  0.6642  0.9878
 6886TIP3    H242218   5.987   1.328   2.902  0.5853  0.3681 -0.5128
 6887TIP3   OH242219   4.385   5.080   0.827  0.1753 -0.0452 -0.8708
 6887TIP3    H142220   4.383   5.006   0.766 -2.4816 -1.4116  0.7150
 6887TIP3    H242221   4.477   5.086   0.854  1.0576 -0.5979 -3.4926
 6888TIP3   OH242222   3.399   1.588   8.443  0.3530 -0.3727 -0.6836
 6888TIP3    H142223   3.316   1.617   8.483 -0.5784 -1.2450 -1.8931
 6888TIP3    H242224   3.465   1.604   8.510 -1.2552 -2.7969  1.6558
 6889TIP3   OH242225   3.704   4.427   0.078 -0.1262 -0.1877  0.4743
 6889TIP3    H142226   3.741   4.459  -0.004 -0.3232 -0.7264  0.1681
 6889TIP3    H242227   3.705   4.503   0.136 -1.6392  0.6913 -0.5890
 6890TIP3   OH242228   0.706   3.627   3.495  0.9660 -0.1465  0.0207
 6890TIP3    H142229   0.653   3.704   3.516  1.7301  1.1320 -2.3859
 6890TIP3    H242230   0.790   3.643   3.538  1.6502  1.1867 -1.7044
 6891TIP3   OH242231   0.512   5.348   0.564  0.1245 -0.2680 -0.2500
 6891TIP3    H142232   0.435   5.307   0.603  0.6917  1.0023  2.4747
 6891TIP3    H242233   0.585   5.297   0.596  0.6564  1.1772  0.9591
 6892TIP3   OH242234   0.319   4.154   1.476 -0.0065 -0.5515  0.2206
 6892TIP3    H142235   0.401   4.196   1.450  0.4482 -2.0463 -0.9083
 6892TIP3    H242236   0.347   4.074   1.521 -0.8495  0.1086  1.9893
 6893TIP3   OH242237   1.789   3.334   3.407 -0.2117 -0.3609 -0.2460
 6893TIP3    H142238   1.775   3.280   3.330 -1.1506  0.0701 -0.3925
 6893TIP3    H242239   1.832   3.413   3.374  0.1691 -0.5494 -0.1989
 6894TIP3   OH242240   6.903   1.275   2.424 -0.4833 -0.1999 -0.3377
 6894TIP3    H142241   6.971   1.229   2.473 -0.5804 -0.6647 -0.6344
 6894TIP3    H242242   6.866   1.337   2.487  1.3565  1.2967 -0.6215
 6895TIP3   OH242243   6.784   2.879   8.378 -0.3590  0.2661 -0.4378
 6895TIP3    H142244   6.736   2.960   8.363 -0.4580  0.4463  0.7543
 6895TIP3    H242245   6.841   2.898   8.452 -0.4657 -0.7875 -0.0629
 6896TIP3   OH242246   1.545   1.136   0.511 -0.0441  0.2477 -0.1404
 6896TIP3    H142247   1.472   1.075   0.520 -1.0594  1.3215 -0.8099
 6896TIP3    H242248   1.622   1.080   0.500 -1.2103 -0.9938 -2.9893
 6897TIP3   OH242249   4.445   4.470   2.034 -0.2851  0.0253 -0.2453
 6897TIP3    H142250   4.376   4.504   2.091  0.4626  0.4285  0.4449
 6897TIP3    H242251   4.517   4.450   2.094 -0.2295 -1.5567 -0.7935
 6898TIP3   OH242252   0.961   6.861   8.235  0.1392 -0.6199 -0.5388
 6898TIP3    H142253   0.971   6.854   8.330 -3.1025  0.3545  0.0209
 6898TIP3    H242254   1.026   6.802   8.199  1.2186 -1.3060  2.2964
 6899TIP3   OH242255   0.016   0.449   7.631  0.2350  0.3843  0.0296
 6899TIP3    H142256   0.061   0.509   7.572 -1.8052  0.6819 -1.3147
 6899TIP3    H242257  -0.020   0.505   7.700 -0.2552  0.5179 -0.3243
 6900TIP3   OH242258   6.053   0.110   1.225  0.3947  0.1171  0.1463
 6900TIP3    H142259   6.002   0.114   1.306 -1.1998 -1.0672 -0.7581
 6900TIP3    H242260   6.034   0.192   1.180 -1.3620 -0.5931 -0.5054
 6901TIP3   OH242261   1.958   0.451   0.060 -0.1030  0.3934 -0.1621
 6901TIP3    H142262   1.870   0.413   0.056  0.5880 -1.4063  0.7026
 6901TIP3    H242263   1.978   0.473  -0.031 -0.7219 -0.9304 -0.6487
 6902TIP3   OH242264   2.471   3.831   8.069 -0.5863 -0.2238 -0.6646
 6902TIP3    H142265   2.417   3.910   8.082  0.9322  1.0081 -1.5275
 6902TIP3    H242266   2.554   3.864   8.035  1.1838 -1.9343  1.6649
 6903TIP3   OH242267   1.279   4.138   3.573 -0.3938 -0.2692  0.1343
 6903TIP3    H142268   1.257   4.217   3.623 -3.1310  1.0668 -2.8458
 6903TIP3    H242269   1.302   4.170   3.486  0.6525 -2.6972 -0.5780
 6904TIP3   OH242270   0.821   6.661   0.162  0.3036 -0.2617  0.5516
 6904TIP3    H142271   0.873   6.603   0.107 -2.6093 -1.6663 -0.9298
 6904TIP3    H242272   0.856   6.647   0.250  0.0460 -4.0681  0.2226
 6905TIP3   OH242273   2.825   2.666   3.204  0.6822  0.1406  0.3117
 6905TIP3    H142274   2.883   2.741   3.213  1.0441 -0.1434  0.3456
 6905TIP3    H242275   2.873   2.594   3.245  0.3950 -0.1405  0.1530
 6906TIP3   OH242276   1.276   1.254   0.222  0.4734 -0.0627  0.0037
 6906TIP3    H142277   1.234   1.311   0.157 -0.1950 -0.2938  0.2216
 6906TIP3    H242278   1.246   1.166   0.199 -0.5603 -0.0550  1.1868
 6907TIP3   OH242279   1.496   6.916   0.428 -0.0278 -0.1556  0.2260
 6907TIP3    H142280   1.565   6.899   0.364  1.1160  1.1583  1.0570
 6907TIP3    H242281   1.539   6.967   0.496 -1.9708  1.2629  0.4670
 6908TIP3   OH242282   5.922   3.787   1.931  0.6549  0.2274 -0.3582
 6908TIP3    H142283   6.009   3.822   1.953  0.3257  2.0261 -1.6774
 6908TIP3    H242284   5.904   3.822   1.844 -0.6842 -1.5399 -0.8448
 6909TIP3   OH242285   1.045   1.085   0.112 -0.2247 -0.0288  0.6702
 6909TIP3    H142286   1.049   1.140   0.034  0.8410 -1.8613 -0.6576
 6909TIP3    H242287   0.952   1.075   0.130 -0.4486  1.5315  0.4808
 6910TIP3   OH242288   0.051   6.076   0.730  0.0542  0.1201 -0.2828
 6910TIP3    H142289  -0.004   6.061   0.654  0.8603 -0.3039 -0.7936
 6910TIP3    H242290  -0.004   6.128   0.790 -1.4080 -1.4790 -0.1607
 6911TIP3   OH242291   6.293   1.335   1.955  0.1672  0.2837 -0.3170
 6911TIP3    H142292   6.347   1.380   2.019  1.4666 -2.2998  0.5734
 6911TIP3    H242293   6.345   1.336   1.874  0.8152 -0.6786  0.0641
 6912TIP3   OH242294   1.080   2.077   2.338 -0.0788 -0.5653 -0.2025
 6912TIP3    H142295   1.068   2.172   2.331 -0.7504 -0.7712 -2.5477
 6912TIP3    H242296   1.106   2.063   2.429 -2.0832  1.6505  0.8162
 6913TIP3   OH242297   2.348   3.070   0.912 -0.0238  0.1494 -0.1162
 6913TIP3    H142298   2.398   3.119   0.848 -0.9761  2.2223  0.6419
 6913TIP3    H242299   2.259   3.067   0.877  0.1230 -1.6002 -0.4233
 6914TIP3   OH242300   3.831   2.456   2.510 -0.0782 -0.4771  0.4429
 6914TIP3    H142301   3.847   2.533   2.455 -0.7561 -0.4863  0.2194
 6914TIP3    H242302   3.912   2.407   2.508 -0.7560 -1.6355 -2.3758
 6915TIP3   OH242303   2.586   4.381   0.547 -0.0648  0.2650 -0.0071
 6915TIP3    H142304   2.520   4.389   0.478 -1.4864 -5.6859  0.0830
 6915TIP3    H242305   2.660   4.337   0.505  0.1992 -0.8846  1.5708
 6916TIP3   OH242306   1.401   2.048   8.246  0.0500  0.2405  0.3447
 6916TIP3    H142307   1.474   2.090   8.201 -0.2152 -0.1086 -0.4399
 6916TIP3    H242308   1.441   2.005   8.321  0.5282  0.7158  0.3686
 6917TIP3   OH242309   2.475   3.796   0.758 -0.1700 -0.1304  0.0150
 6917TIP3    H142310   2.524   3.873   0.786  1.9873 -1.4863  0.2041
 6917TIP3    H242311   2.457   3.812   0.665  0.8586  0.3218 -0.1218
 6918TIP3   OH242312   5.714   3.673   3.744  0.1128 -0.0711  0.3148
 6918TIP3    H142313   5.804   3.656   3.771  0.7107  1.9401 -0.2421
 6918TIP3    H242314   5.660   3.639   3.815  1.4403  1.1443  1.9849
 6919TIP3   OH242315   2.066   5.632   7.654 -0.1971  0.2801  0.4706
 6919TIP3    H142316   2.033   5.708   7.703 -0.5040  0.4746 -0.0339
 6919TIP3    H242317   2.155   5.658   7.627 -0.9206  1.1665 -1.1807
 6920TIP3   OH242318   5.712   6.347   0.140  0.0597 -0.2419  0.1099
 6920TIP3    H142319   5.711   6.280   0.209  0.8759 -0.2062  0.1641
 6920TIP3    H242320   5.802   6.378   0.138 -0.2164  0.5733 -0.1968
 6921TIP3   OH242321   6.430   1.519   1.220 -0.1770  0.4691 -0.6959
 6921TIP3    H142322   6.372   1.559   1.284  1.2748  0.6220  0.5596
 6921TIP3    H242323   6.415   1.569   1.140 -1.7027  0.5475 -0.3946
 6922TIP3   OH242324   1.695   3.552   7.607 -0.4076 -0.6376  0.4598
 6922TIP3    H142325   1.756   3.513   7.546  0.4971 -1.9236  2.1129
 6922TIP3    H242326   1.687   3.644   7.579  2.6439 -0.2954  0.4488
 6923TIP3   OH242327   6.848   6.869   3.656 -0.4724 -1.0233 -0.7589
 6923TIP3    H142328   6.796   6.800   3.616 -0.6985 -0.1997 -1.9489
 6923TIP3    H242329   6.928   6.872   3.604  0.5245 -1.8480  0.6618
 6924TIP3   OH242330   6.762   1.868   0.432 -0.0166  0.3775 -0.1929
 6924TIP3    H142331   6.855   1.885   0.417 -0.1176  0.8795 -0.2773
 6924TIP3    H242332   6.723   1.871   0.345 -0.1142  0.1617 -0.1576
 6925TIP3   OH242333   1.383   3.438   2.802  0.4516  0.0013  0.3179
 6925TIP3    H142334   1.433   3.360   2.828  0.3720 -0.1090  0.1421
 6925TIP3    H242335   1.340   3.413   2.720  2.6649  1.1844 -1.2997
 6926TIP3   OH242336   6.739   6.112   8.327  0.0931  0.2794 -0.5289
 6926TIP3    H142337   6.724   6.112   8.421  0.7221 -0.6198 -0.4204
 6926TIP3    H242338   6.676   6.049   8.292  0.4662 -0.0640 -0.5953
 6927TIP3   OH242339   2.428   5.442   2.137  0.1046  0.1294  0.1587
 6927TIP3    H142340   2.396   5.367   2.087  2.2839 -1.1420  0.5255
 6927TIP3    H242341   2.435   5.409   2.227  1.9610  0.3952  0.1653
 6928TIP3   OH242342   0.058   5.976   3.525 -0.0590 -0.2305 -0.1060
 6928TIP3    H142343   0.100   5.892   3.540  0.0181 -0.6985 -2.5467
 6928TIP3    H242344  -0.022   5.973   3.578  0.9014 -1.0129  1.3524
 6929TIP3   OH242345   3.146   2.689   0.980  0.3105 -0.7626  0.4445
 6929TIP3    H142346   3.185   2.707   0.895  2.2759  0.1604  1.4914
 6929TIP3    H242347   3.140   2.593   0.984  0.6329 -0.8295 -0.5292
 6930TIP3   OH242348   2.790   2.643   0.305  0.6246  0.0772  0.8919
 6930TIP3    H142349   2.833   2.724   0.280 -2.7926  1.7586 -0.0715
 6930TIP3    H242350   2.721   2.670   0.366 -2.1554 -1.6476 -1.2567
 6931TIP3   OH242351   1.837   6.679   0.915  0.4681 -0.2374 -0.2895
 6931TIP3    H142352   1.787   6.597   0.908  1.2988 -0.6330 -2.2946
 6931TIP3    H242353   1.770   6.748   0.909  0.0265 -0.7626 -1.7957
 6932TIP3   OH242354   1.815   6.126   8.406 -0.6196 -0.3735  0.1586
 6932TIP3    H142355   1.896   6.075   8.406 -0.9468 -0.8969 -0.0530
 6932TIP3    H242356   1.746   6.061   8.403 -1.0986 -0.0129  1.9196
 6933TIP3   OH242357   5.884   2.989   8.161  1.0395 -0.3087 -0.0133
 6933TIP3    H142358   5.961   2.932   8.153  0.2494 -1.3538 -0.4569
 6933TIP3    H242359   5.865   3.016   8.071  0.1752 -1.0630 -0.0784
 6934TIP3   OH242360   5.293   4.425   1.274 -0.1664 -0.6573 -0.2143
 6934TIP3    H142361   5.198   4.415   1.277  0.0687 -4.2684 -0.0243
 6934TIP3    H242362   5.314   4.437   1.181 -0.7403 -1.3758 -0.4433
 6935TIP3   OH242363   4.556   4.333   2.918  0.0219 -0.1110 -0.2043
 6935TIP3    H142364   4.461   4.344   2.921  0.0021 -0.3888  0.3566
 6935TIP3    H242365   4.581   4.311   3.007  0.9879  2.7924  0.3674
 6936TIP3   OH242366   5.393   1.704   7.598  0.3335 -0.0380  0.5048
 6936TIP3    H142367   5.345   1.750   7.666  1.3213  0.3204  0.9841
 6936TIP3    H242368   5.478   1.684   7.638  0.0144 -2.1215  0.2577
 6937TIP3   OH242369   1.908   0.499   0.417 -0.3360 -0.1452  0.9423
 6937TIP3    H142370   1.972   0.498   0.346 -1.1638  0.7646  0.1600
 6937TIP3    H242371   1.953   0.544   0.489  1.0922 -2.4774  1.6316
 6938TIP3   OH242372   5.815   4.072   3.758 -0.0411 -0.2375  0.0299
 6938TIP3    H142373   5.741   4.133   3.763 -0.4079 -0.7783  1.7677
 6938TIP3    H242374   5.891   4.126   3.780 -0.4129 -0.4048  1.9661
 6939TIP3   OH242375   0.736   0.868   3.148 -0.0124 -0.2861  0.0376
 6939TIP3    H142376   0.743   0.808   3.074 -0.7521 -0.1523 -0.1425
 6939TIP3    H242377   0.824   0.904   3.158  0.0121 -0.0461 -0.9948
 6940TIP3   OH242378   6.039   6.677   3.630 -0.4830 -0.7170 -0.1736
 6940TIP3    H142379   6.080   6.620   3.694 -1.3196 -0.8063  0.2948
 6940TIP3    H242380   5.952   6.694   3.665 -0.0110  1.4695  0.1047
 6941TIP3   OH242381   3.568   0.712   1.469 -0.6611 -0.1671  0.1786
 6941TIP3    H142382   3.662   0.731   1.467 -0.4910 -1.0012 -0.5083
 6941TIP3    H242383   3.562   0.618   1.454 -1.4901 -0.6234  2.9485
 6942TIP3   OH242384   1.656   5.858   1.249 -0.0606 -0.3628  0.1072
 6942TIP3    H142385   1.574   5.887   1.209 -0.3701  0.4817  1.3223
 6942TIP3    H242386   1.631   5.826   1.336  1.0439  1.1426  1.0278
 6943TIP3   OH242387   4.565   0.597   2.040 -0.2932  0.0831 -0.4380
 6943TIP3    H142388   4.549   0.563   1.952  0.3413 -0.2053 -0.4498
 6943TIP3    H242389   4.509   0.674   2.047  1.3083  1.4829 -1.9445
 6944TIP3   OH242390   2.565   6.483   1.818 -0.1881 -0.3803 -1.0682
 6944TIP3    H142391   2.596   6.438   1.896  0.0246  0.4440 -0.6686
 6944TIP3    H242392   2.599   6.431   1.745  1.3964 -0.0078 -0.6303
 6945TIP3   OH242393   6.297   3.473   2.652 -0.1712 -0.5467  0.1402
 6945TIP3    H142394   6.262   3.520   2.576  3.1913  1.7461 -0.2096
 6945TIP3    H242395   6.378   3.518   2.672  1.0202 -3.5160  2.7534
 6946TIP3   OH242396   3.998   3.781   1.882  0.6135 -0.1936 -0.1712
 6946TIP3    H142397   3.958   3.737   1.808  0.2772  0.6773 -0.5161
 6946TIP3    H242398   4.075   3.824   1.846  0.5359  0.1056  0.0193
 6947TIP3   OH242399   0.201   1.931   2.716 -0.1752 -0.1958  0.1323
 6947TIP3    H142400   0.204   1.875   2.638  0.1436  0.2085 -0.1485
 6947TIP3    H242401   0.283   1.980   2.713 -0.5892  0.5125  0.2150
 6948TIP3   OH242402   5.103   2.504   8.155  0.3366 -0.3889 -0.6153
 6948TIP3    H142403   5.129   2.499   8.063  1.1095  0.2500 -0.4444
 6948TIP3    H242404   5.088   2.597   8.171 -2.3099 -0.7277 -0.7485
 6949TIP3   OH242405   4.581   1.470   1.960 -0.1078  0.2874 -0.2298
 6949TIP3    H142406   4.487   1.467   1.944 -0.1596  0.2641  0.0735
 6949TIP3    H242407   4.589   1.489   2.053  0.1925  0.9682 -0.3894
 6950TIP3   OH242408   5.683   1.929   1.327 -0.0958  0.4691  0.4737
 6950TIP3    H142409   5.649   1.982   1.399  0.6142  0.7388  0.6213
 6950TIP3    H242410   5.616   1.861   1.313  0.5358 -0.6883  2.5800
 6951TIP3   OH242411   3.895   2.803   1.194 -0.0570 -0.2218 -0.0838
 6951TIP3    H142412   3.907   2.897   1.192  0.1211 -0.2478 -0.2753
 6951TIP3    H242413   3.921   2.777   1.282 -2.4077  0.2007  0.8122
 6952TIP3   OH242414   3.374   6.868   7.882 -0.5042 -0.3172 -0.0851
 6952TIP3    H142415   3.314   6.794   7.872 -1.4092  0.0870  1.8371
 6952TIP3    H242416   3.316   6.945   7.884  0.3773  0.4326 -1.5561
 6953TIP3   OH242417   3.799   5.918   2.904  0.4462 -0.5881 -0.1844
 6953TIP3    H142418   3.866   5.926   2.972  0.0732  0.4398  0.0695
 6953TIP3    H242419   3.795   6.005   2.864 -0.4049 -0.7773 -0.5173
 6954TIP3   OH242420   4.679   0.807   0.898  0.3777  0.3793  0.3451
 6954TIP3    H142421   4.755   0.799   0.840  0.0153 -0.4547 -0.0389
 6954TIP3    H242422   4.707   0.767   0.980  0.2065 -0.3824  0.0435
 6955TIP3   OH242423   1.356   0.661   0.575 -0.1244  0.4696  0.0862
 6955TIP3    H142424   1.380   0.618   0.657 -0.1415 -0.7288 -0.5252
 6955TIP3    H242425   1.289   0.605   0.536 -0.3292  1.1778 -0.6233
 6956TIP3   OH242426   6.110   2.660   2.102 -0.0419 -0.2897  0.7238
 6956TIP3    H142427   6.113   2.742   2.151  1.3848 -0.6413  1.2783
 6956TIP3    H242428   6.147   2.595   2.161  1.2889 -0.8283 -0.6201
 6957TIP3   OH242429   1.910   1.261   0.123  0.2751 -0.4755  0.0027
 6957TIP3    H142430   1.845   1.329   0.136  0.0116 -0.2345 -2.1710
 6957TIP3    H242431   1.860   1.179   0.128  0.2135 -0.4034  0.5618
 6958TIP3   OH242432   2.072   4.655   0.724  0.1311  0.2153 -0.3494
 6958TIP3    H142433   2.067   4.570   0.680  1.2388  0.9633 -2.0244
 6958TIP3    H242434   2.093   4.717   0.654  0.0238  1.7806  0.9450
 6959TIP3   OH242435   4.902   4.038   1.492 -0.0421  0.7322 -0.0922
 6959TIP3    H142436   4.808   4.021   1.492  0.0194  0.3744  0.1279
 6959TIP3    H242437   4.920   4.076   1.406 -0.5277  1.6239  0.1841
 6960TIP3   OH242438   5.038   2.084   2.841  0.5154 -0.1921  0.3080
 6960TIP3    H142439   5.013   1.995   2.817  0.3929  0.2856 -1.4131
 6960TIP3    H242440   4.989   2.140   2.781  0.8986  1.0347  1.0983
 6961TIP3   OH242441   4.677   1.744   1.616 -0.3817 -0.1458  0.3173
 6961TIP3    H142442   4.733   1.822   1.607 -0.1011 -0.5432 -1.9614
 6961TIP3    H242443   4.714   1.697   1.691  2.3967 -0.3788 -1.0632
 6962TIP3   OH242444   5.590   0.196   3.594  0.0911  0.2742 -0.3707
 6962TIP3    H142445   5.538   0.161   3.522 -0.4626 -0.7783  0.5129
 6962TIP3    H242446   5.623   0.119   3.640  0.7235  0.9228  0.2979
 6963TIP3   OH242447   3.234   1.898   7.857  0.4750 -0.9567  0.1453
 6963TIP3    H142448   3.198   1.986   7.873  0.1200 -1.2411  0.9348
 6963TIP3    H242449   3.196   1.873   7.772 -1.3700 -1.3070  1.0143
 6964TIP3   OH242450   0.019   2.786   1.334  0.0441 -0.4449  0.3714
 6964TIP3    H142451   0.033   2.706   1.284 -0.4017 -1.1962  1.4097
 6964TIP3    H242452   0.088   2.845   1.305 -0.1821 -0.8626 -1.0882
 6965TIP3   OH242453   6.674   1.182   2.169  0.4599 -0.1504 -0.1795
 6965TIP3    H142454   6.758   1.142   2.148  0.4562 -0.8526  1.0503
 6965TIP3    H242455   6.683   1.213   2.260 -0.0504  1.2934 -0.5800
 6966TIP3   OH242456   4.928   3.965   2.560 -0.0167  0.5053  0.4326
 6966TIP3    H142457   4.847   3.963   2.612 -0.8370  0.3826 -0.8053
 6966TIP3    H242458   4.919   4.043   2.505  0.8025  0.5938  0.4219
 6967TIP3   OH242459   1.757   3.886   1.136  0.6085  0.6878  0.2618
 6967TIP3    H142460   1.771   3.956   1.199  1.4883  1.0076 -0.2733
 6967TIP3    H242461   1.680   3.914   1.085  0.9516  1.2607  0.0544
 6968TIP3   OH242462   2.381   5.122   1.356 -0.0732 -0.0356  0.3948
 6968TIP3    H142463   2.387   5.137   1.262 -1.2092 -0.3198  0.2568
 6968TIP3    H242464   2.439   5.188   1.395  1.6722 -0.9502 -0.5430
 6969TIP3   OH242465   0.617   0.922   7.810 -0.3375  0.7009  0.4760
 6969TIP3    H142466   0.634   0.916   7.904 -0.1879 -1.6083  0.3560
 6969TIP3    H242467   0.554   0.853   7.792 -0.1004  0.8649 -1.1819
 6970TIP3   OH242468   4.073   1.963   1.424  0.1209  0.3102 -0.2815
 6970TIP3    H142469   4.024   1.906   1.365 -0.3804 -0.0222  0.4460
 6970TIP3    H242470   4.165   1.943   1.406 -0.0271  0.2207 -0.9505
 6971TIP3   OH242471   5.576   3.301   1.482  0.2150  0.1867  0.3814
 6971TIP3    H142472   5.641   3.244   1.441  0.5319  0.0794  1.0263
 6971TIP3    H242473   5.557   3.368   1.415 -1.7572 -1.8360 -1.2574
 6972TIP3   OH242474   5.063   3.469   2.590 -0.1762 -0.1510 -0.1282
 6972TIP3    H142475   5.074   3.558   2.558  0.4403 -0.4146 -0.6568
 6972TIP3    H242476   4.990   3.434   2.539 -0.4445  0.0576  0.1071
 6973TIP3   OH242477   1.077   5.365   1.059 -0.5407 -0.4094 -0.5592
 6973TIP3    H142478   1.056   5.415   0.980  1.9118  1.5982 -0.0795
 6973TIP3    H242479   1.089   5.275   1.028 -2.6182 -0.3055 -1.8859
 6974TIP3   OH242480   5.843   2.325   0.484 -0.3272  0.2888  0.1291
 6974TIP3    H142481   5.768   2.268   0.465 -0.4587  0.3586  0.4306
 6974TIP3    H242482   5.868   2.303   0.574  0.3110 -0.0622 -0.1248
 6975TIP3   OH242483   6.396   5.793   0.612  0.1702 -0.3530 -0.0789
 6975TIP3    H142484   6.340   5.793   0.534 -0.3848  0.2705  0.3125
 6975TIP3    H242485   6.336   5.804   0.685  0.6507 -1.3590  0.4825
 6976TIP3   OH242486   3.083   5.723   1.051 -0.4129  0.5611  0.5395
 6976TIP3    H142487   3.178   5.733   1.058 -0.5763  1.6125  1.5968
 6976TIP3    H242488   3.052   5.810   1.026 -1.1848  0.4780  1.1944
 6977TIP3   OH242489   6.872   2.411   2.288  0.2325 -0.2085  0.0950
 6977TIP3    H142490   6.929   2.425   2.364  1.6834 -2.4033 -0.5122
 6977TIP3    H242491   6.798   2.362   2.324  0.4569 -0.4335  0.2544
 6978TIP3   OH242492   0.071   5.706   1.087  0.2419  0.1680 -0.2187
 6978TIP3    H142493   0.030   5.749   1.011  0.3362 -2.9931 -2.2198
 6978TIP3    H242494   0.010   5.636   1.110  2.0540 -1.3873  0.0513
 6979TIP3   OH242495   6.889   3.813   7.968  0.1915 -0.0444  0.4029
 6979TIP3    H142496   6.882   3.828   7.874 -0.7049 -2.7927 -0.0716
 6979TIP3    H242497   6.976   3.775   7.980  0.3880  0.5035  0.7298
 6980TIP3   OH242498   2.615   0.591   0.901  0.7997  0.1252 -0.4445
 6980TIP3    H142499   2.586   0.615   0.989 -1.1830  0.8934 -1.2624
 6980TIP3    H242500   2.617   0.495   0.902 -0.0855  0.1031  0.1763
 6981TIP3   OH242501   4.228   4.589   2.183  0.1658  0.0831  0.2133
 6981TIP3    H142502   4.217   4.661   2.121 -0.5636 -1.3887 -1.4358
 6981TIP3    H242503   4.139   4.565   2.209  0.1930 -1.8308 -1.2370
 6982TIP3   OH242504   3.765   2.974   0.476  0.2789 -0.3528 -0.2199
 6982TIP3    H142505   3.710   2.901   0.445  1.5447 -1.6313  0.4239
 6982TIP3    H242506   3.821   2.995   0.401 -0.5808  0.4752 -0.6454
 6983TIP3   OH242507   6.089   3.435   0.478  0.3563 -0.1640 -0.2476
 6983TIP3    H142508   6.141   3.356   0.494 -0.1165 -0.2017  1.2743
 6983TIP3    H242509   6.020   3.432   0.544  0.5667  1.7374  0.1185
 6984TIP3   OH242510   3.492   0.530   8.487 -0.2520 -0.0670  0.1219
 6984TIP3    H142511   3.494   0.626   8.488 -1.2813 -0.0415 -0.0911
 6984TIP3    H242512   3.540   0.506   8.408  0.4144  0.2455  0.4151
 6985TIP3   OH242513   5.937   3.737   2.577 -0.1044  0.5117  0.1271
 6985TIP3    H142514   5.991   3.785   2.513  1.2239 -0.4935  0.4625
 6985TIP3    H242515   5.953   3.782   2.660 -3.1962  2.9550 -0.4027
 6986TIP3   OH242516   0.944   0.654   2.715 -0.0962 -0.0029 -0.7160
 6986TIP3    H142517   0.889   0.668   2.638 -0.9200 -0.3970 -0.2015
 6986TIP3    H242518   1.020   0.606   2.681 -1.4957 -2.1889 -0.9522
 6987TIP3   OH242519   0.403   2.502   1.156 -0.1712  0.1244 -0.1734
 6987TIP3    H142520   0.468   2.444   1.114  0.4438 -0.0394  0.9564
 6987TIP3    H242521   0.329   2.444   1.174 -0.0347 -0.0398 -0.1269
 6988TIP3   OH242522   2.666   2.492   8.083  0.2238 -0.1064  0.1930
 6988TIP3    H142523   2.639   2.400   8.076  2.8040 -0.8933 -0.2622
 6988TIP3    H242524   2.660   2.525   7.994  2.3825 -0.8219 -0.2633
 6989TIP3   OH242525   6.456   6.901   4.073 -0.5486  0.1696 -0.0824
 6989TIP3    H142526   6.421   6.911   4.162 -1.1306  1.7744 -0.4613
 6989TIP3    H242527   6.446   6.988   4.033 -0.1311 -0.4712 -1.6628
 6990TIP3   OH242528   1.593   4.195   1.334  0.6191 -0.1346  0.4381
 6990TIP3    H142529   1.607   4.239   1.250 -0.8601 -1.1673 -0.3923
 6990TIP3    H242530   1.677   4.155   1.355  1.0683  0.3243 -0.4383
 6991TIP3   OH242531   6.200   4.316   2.896 -0.1965  0.1864 -0.0988
 6991TIP3    H142532   6.253   4.273   2.830 -2.6643  1.8058 -3.4333
 6991TIP3    H242533   6.260   4.375   2.941  1.3366  0.1415 -1.9770
 6992TIP3   OH242534   6.139   5.872   8.227 -0.1326 -0.2204  0.2480
 6992TIP3    H142535   6.185   5.895   8.147  0.9057 -0.9666  0.6184
 6992TIP3    H242536   6.192   5.910   8.297 -0.6970 -0.1030  0.6193
 6993TIP3   OH242537   3.204   6.466   2.794 -0.3214  0.2416 -0.3597
 6993TIP3    H142538   3.276   6.512   2.838 -0.5599 -0.8864  1.2882
 6993TIP3    H242539   3.214   6.375   2.820 -1.6087 -0.1472 -1.1454
 6994TIP3   OH242540   3.194   6.949   3.153 -0.3852  0.1740  0.3392
 6994TIP3    H142541   3.270   6.932   3.097 -0.7151  0.7968 -0.3158
 6994TIP3    H242542   3.230   6.957   3.241  0.4396  1.3127 -0.0777
 6995TIP3   OH242543   3.154   4.341   2.454 -0.6267 -0.0758 -0.1688
 6995TIP3    H142544   3.109   4.386   2.526 -2.5848  0.5331 -1.6742
 6995TIP3    H242545   3.083   4.300   2.404  0.6941 -0.6880 -1.6142
 6996TIP3   OH242546   4.564   1.500   0.113  0.1024 -0.0005  0.2223
 6996TIP3    H142547   4.564   1.583   0.161 -0.5035  0.2131 -0.1344
 6996TIP3    H242548   4.521   1.438   0.171  1.5950 -0.3782  0.9838
 6997TIP3   OH242549   2.954   5.482   2.307  0.2477  0.4783 -0.2054
 6997TIP3    H142550   2.935   5.517   2.220  0.6856 -0.0592 -0.5256
 6997TIP3    H242551   3.042   5.444   2.299  0.4508  0.7573  0.5722
 6998TIP3   OH242552   3.375   5.358   1.603 -0.0759  0.3419  0.0484
 6998TIP3    H142553   3.353   5.349   1.510  0.5833  0.1604 -0.0915
 6998TIP3    H242554   3.393   5.269   1.631 -0.3330  0.3907  0.3693
 6999TIP3   OH242555   6.237   5.345   1.949 -0.1169 -0.6122  0.4363
 6999TIP3    H142556   6.228   5.255   1.979  0.0019 -1.2116 -1.2282
 6999TIP3    H242557   6.327   5.352   1.917 -0.0820  0.1355  0.6674
 7000TIP3   OH242558   5.825   2.758   0.543 -0.2723  0.0704  0.5792
 7000TIP3    H142559   5.775   2.818   0.488 -1.3263 -0.3605  1.0382
 7000TIP3    H242560   5.789   2.671   0.524  1.8142 -0.5786 -0.7244
 7001TIP3   OH242561   2.277   0.581   3.736 -0.0322  0.6310  0.0175
 7001TIP3    H142562   2.220   0.541   3.802  1.7999  0.4208  1.5678
 7001TIP3    H242563   2.275   0.674   3.756 -0.3552  0.7001 -0.3439
 7002TIP3   OH242564   0.123   4.514   0.890 -0.2142  0.7226 -0.1288
 7002TIP3    H142565   0.125   4.565   0.971  0.7118  0.7450 -0.1590
 7002TIP3    H242566   0.214   4.494   0.872 -0.5381 -0.8384 -0.1858
 7003TIP3   OH242567   1.219   0.011   0.056  0.3720  0.2567 -0.3253
 7003TIP3    H142568   1.222   0.038   0.148  0.2524  1.5098 -0.6713
 7003TIP3    H242569   1.302   0.040   0.019  0.5507 -0.5126 -0.5550
 7004TIP3   OH242570   6.918   0.453   8.351  0.1869  1.1083 -0.8212
 7004TIP3    H142571   6.835   0.430   8.392  0.6228  0.1092 -0.4696
 7004TIP3    H242572   6.983   0.399   8.396  0.9120  1.2587 -1.6583
 7005TIP3   OH242573   1.699   2.928   8.390  0.1463  0.4502 -0.2044
 7005TIP3    H142574   1.704   2.990   8.316  0.2104  2.2382  1.2347
 7005TIP3    H242575   1.647   2.973   8.456 -0.6970 -1.5012  0.5163
 7006TIP3   OH242576   0.870   4.423   0.809  0.0292  0.3425  0.0720
 7006TIP3    H142577   0.796   4.384   0.762  0.5584 -0.1993 -0.3335
 7006TIP3    H242578   0.850   4.409   0.902 -0.4099  0.2693 -0.0319
 7007TIP3   OH242579   1.409   1.816   2.334 -0.7402 -0.4489 -0.8178
 7007TIP3    H142580   1.480   1.786   2.277 -0.2691 -0.0544 -0.4450
 7007TIP3    H242581   1.344   1.853   2.274 -0.8786 -1.3097 -1.2015
 7008TIP3   OH242582   5.481   1.937   3.058 -0.5793 -0.4181 -0.3748
 7008TIP3    H142583   5.404   1.994   3.051  0.5269  1.0600 -1.1760
 7008TIP3    H242584   5.488   1.917   3.152 -0.3844  1.6979  0.1032
 7009TIP3   OH242585   0.821   5.673   2.245 -0.2762 -0.0414  0.0051
 7009TIP3    H142586   0.846   5.750   2.194 -2.3856 -0.0548 -1.1746
 7009TIP3    H242587   0.812   5.705   2.334 -0.0304  0.8350 -0.2718
 7010TIP3   OH242588   3.838   0.495   7.674 -0.0864  0.0344  0.1806
 7010TIP3    H142589   3.797   0.568   7.721  0.3815 -1.8434  3.8243
 7010TIP3    H242590   3.932   0.514   7.677  0.2257 -1.4740  2.8752
 7011TIP3   OH242591   5.165   6.327   1.364 -0.0267 -0.1185 -0.3129
 7011TIP3    H142592   5.241   6.386   1.368 -0.3341  0.2248  0.6632
 7011TIP3    H242593   5.090   6.385   1.359 -0.2220 -0.4611 -1.8982
 7012TIP3   OH242594   1.746   4.771   0.382 -0.1653 -0.5423  0.2360
 7012TIP3    H142595   1.822   4.732   0.338  0.6302 -1.2390  2.1439
 7012TIP3    H242596   1.679   4.702   0.379 -0.2605 -0.4382 -0.2008
 7013TIP3   OH242597   2.743   2.768   7.875 -0.2679 -0.6652 -0.1178
 7013TIP3    H142598   2.659   2.775   7.831 -0.1109  0.2950 -0.2950
 7013TIP3    H242599   2.766   2.859   7.898  0.7542 -0.8940 -0.1672
 7014TIP3   OH242600   0.530   3.492   2.631 -0.1944  0.1288 -0.1864
 7014TIP3    H142601   0.475   3.480   2.554 -0.7927  1.1103  0.0685
 7014TIP3    H242602   0.471   3.481   2.705  0.0271  0.8236  0.1025
 7015TIP3   OH242603   0.098   1.777   2.950 -0.6959 -0.3258 -0.3520
 7015TIP3    H142604   0.156   1.812   3.018 -2.2053  0.0784  0.7872
 7015TIP3    H242605   0.149   1.781   2.870  0.8418 -0.0007  0.6133
 7016TIP3   OH242606   4.668   0.640   3.249  0.2816  0.0372  0.2822
 7016TIP3    H142607   4.667   0.568   3.186 -0.9572  0.3064 -0.0399
 7016TIP3    H242608   4.743   0.622   3.306 -1.0031 -2.5187  1.3422
 7017TIP3   OH242609   5.542   1.711   1.267  0.3323 -0.4805  0.0802
 7017TIP3    H142610   5.545   1.619   1.241  1.6437 -0.6398  0.6824
 7017TIP3    H242611   5.461   1.720   1.317 -0.3030 -1.0545 -0.8257
 7018TIP3   OH242612   3.692   5.520   8.178 -0.2681  0.7454 -0.1318
 7018TIP3    H142613   3.601   5.510   8.204 -1.1698  0.9095 -2.8900
 7018TIP3    H242614   3.688   5.557   8.090  2.4504  0.1404 -0.6076
 7019TIP3   OH242615   4.938   4.095   3.286  0.5620 -0.0427  0.2635
 7019TIP3    H142616   4.843   4.086   3.284  0.6621 -1.0549 -0.1088
 7019TIP3    H242617   4.952   4.186   3.314 -0.5037  0.0305  0.6179
 7020TIP3   OH242618   5.307   1.026   7.610 -0.1542 -0.3032 -1.2134
 7020TIP3    H142619   5.396   1.059   7.601  0.1738 -0.4048  1.0227
 7020TIP3    H242620   5.257   1.073   7.543  1.2251  1.2141 -1.2446
 7021TIP3   OH242621   0.543   6.658   0.429 -0.8835 -0.1768  0.2133
 7021TIP3    H142622   0.494   6.577   0.419  0.5300 -0.9682 -0.7162
 7021TIP3    H242623   0.551   6.692   0.340  1.5632 -0.9240  0.0782
 7022TIP3   OH242624   0.265   6.690   2.780  0.2013  0.3510 -0.4952
 7022TIP3    H142625   0.336   6.637   2.818 -0.4108  0.2962  0.6134
 7022TIP3    H242626   0.305   6.732   2.704  1.5508  0.6311  0.3268
 7023TIP3   OH242627   2.705   2.358   0.974  1.0053 -0.0333  0.4126
 7023TIP3    H142628   2.644   2.427   1.000  0.9912  0.3520 -0.5855
 7023TIP3    H242629   2.656   2.305   0.910  2.3574  1.6167 -2.1767
 7024TIP3   OH242630   4.754   1.616   0.364 -0.6926 -0.5348 -0.0386
 7024TIP3    H142631   4.805   1.631   0.444 -0.4149  0.9176 -0.4566
 7024TIP3    H242632   4.667   1.652   0.384  0.0001  1.8876 -1.0833
 7025TIP3   OH242633   3.913   0.472   3.134  0.2840  0.4901 -0.3957
 7025TIP3    H142634   4.009   0.470   3.132  0.3796  2.9052 -1.3705
 7025TIP3    H242635   3.889   0.519   3.054 -1.8255 -1.6229 -1.0960
 7026TIP3   OH242636   3.415   1.717   3.336 -0.1871  0.6050  0.1074
 7026TIP3    H142637   3.456   1.650   3.391  0.8248  1.8642  0.9329
 7026TIP3    H242638   3.336   1.742   3.383 -0.7727 -0.2599 -0.3938
 7027TIP3   OH242639   3.545   6.358   2.422 -0.6195  0.8754  0.2409
 7027TIP3    H142640   3.570   6.300   2.494  4.7829 -1.3753 -2.8572
 7027TIP3    H242641   3.469   6.315   2.382  0.2488 -1.3762  0.8922
 7028TIP3   OH242642   6.356   3.226   7.562 -0.0543 -0.2041 -0.2441
 7028TIP3    H142643   6.284   3.167   7.585  1.2435 -1.7913 -0.0353
 7028TIP3    H242644   6.394   3.187   7.483  0.8048  0.3776 -0.1284
 7029TIP3   OH242645   3.265   0.621   1.082  0.2281 -0.0027  0.4025
 7029TIP3    H142646   3.193   0.579   1.035 -0.2542  0.6828  0.5267
 7029TIP3    H242647   3.338   0.619   1.019 -0.7798  2.1473 -0.9654
 7030TIP3   OH242648   2.166   1.042   8.108 -0.0197 -0.2374 -0.9613
 7030TIP3    H142649   2.199   1.024   8.020 -0.1971 -0.9626 -0.8841
 7030TIP3    H242650   2.186   1.134   8.122  0.0014 -0.1082 -1.7653
 7031TIP3   OH242651   6.567   4.764   7.263  0.0641  0.3359  0.0089
 7031TIP3    H142652   6.605   4.751   7.350 -0.3805 -0.0365  0.1527
 7031TIP3    H242653   6.641   4.754   7.203  1.0575  3.6834  0.4572
 7032TIP3   OH242654   4.312   2.093   1.226  0.4881 -0.4303  0.8092
 7032TIP3    H142655   4.318   2.001   1.252  3.1574 -0.7234 -0.4826
 7032TIP3    H242656   4.360   2.141   1.294  2.0351 -0.4663 -0.1936
 7033TIP3   OH242657   6.525   5.220   0.971 -0.0423  0.3322  0.4119
 7033TIP3    H142658   6.437   5.238   1.003 -0.2242 -0.4125  0.3452
 7033TIP3    H242659   6.557   5.149   1.027 -0.5882 -1.4106 -1.3956
 7034TIP3   OH242660   0.297   6.773   3.813  0.0188 -0.2330 -0.1778
 7034TIP3    H142661   0.355   6.701   3.836  1.0269  0.3542 -0.8366
 7034TIP3    H242662   0.350   6.852   3.825 -0.4892  0.2856 -1.2422
 7035TIP3   OH242663   6.948   1.081   2.774  0.0979  0.1298 -0.1739
 7035TIP3    H142664   6.994   1.054   2.854  1.3684 -0.3152 -1.0249
 7035TIP3    H242665   6.906   1.164   2.798  1.7653  0.8157  0.5025
 7036TIP3   OH242666   5.952   2.280   0.721  0.4927  0.4692 -0.0312
 7036TIP3    H142667   5.959   2.206   0.780 -1.7383  0.8865  0.8535
 7036TIP3    H242668   6.041   2.314   0.714  1.0940 -0.6114  1.7488
 7037TIP3   OH242669   2.228   2.676   8.326  0.0168  0.9498 -0.3154
 7037TIP3    H142670   2.167   2.702   8.395  0.2924 -1.5993  0.9902
 7037TIP3    H242671   2.181   2.610   8.275  1.0550  0.2063 -0.3413
 7038TIP3   OH242672   3.884   0.426   2.045 -0.1476  0.3244  0.4385
 7038TIP3    H142673   3.934   0.453   1.968  0.7275 -0.2753  0.7753
 7038TIP3    H242674   3.799   0.399   2.011 -0.1693  1.1276 -0.1789
 7039TIP3   OH242675   4.218   3.684   0.041  0.0619 -0.6896 -0.3900
 7039TIP3    H142676   4.134   3.673   0.087  0.9345 -1.2412  1.1580
 7039TIP3    H242677   4.217   3.617  -0.028 -1.7966  0.9580 -2.0708
 7040TIP3   OH242678   2.374   2.607   1.910  0.7767 -0.3470  0.7199
 7040TIP3    H142679   2.320   2.682   1.934 -0.6119 -1.1325  0.1741
 7040TIP3    H242680   2.382   2.556   1.991  0.1291 -0.5560  0.6581
 7041TIP3   OH242681   2.676   4.632   0.637  0.2596  0.4461  0.5812
 7041TIP3    H142682   2.636   4.671   0.559  0.1011  0.1318  0.5048
 7041TIP3    H242683   2.679   4.539   0.619  3.2964  0.6637 -0.4385
 7042TIP3   OH242684   0.922   2.651   1.571  0.0278  0.2181  0.6787
 7042TIP3    H142685   0.976   2.710   1.518  0.6835 -0.8344  0.1561
 7042TIP3    H242686   0.928   2.566   1.528 -1.5251 -0.0913  0.9911
 7043TIP3   OH242687   5.669   5.739   2.417  0.0651  0.1714 -0.9206
 7043TIP3    H142688   5.710   5.676   2.357 -1.6825 -0.4692 -1.5019
 7043TIP3    H242689   5.619   5.684   2.478 -0.7475  0.9443 -0.8723
 7044TIP3   OH242690   3.684   4.101   3.388 -0.3253 -0.6281 -0.0684
 7044TIP3    H142691   3.757   4.039   3.387  0.9148  0.7048  1.7255
 7044TIP3    H242692   3.617   4.058   3.442  1.2851  0.2487  2.8645
 7045TIP3   OH242693   3.023   1.737   7.114  0.4247 -0.2057 -0.0431
 7045TIP3    H142694   2.937   1.696   7.109  0.3736 -0.0562 -0.3636
 7045TIP3    H242695   3.076   1.675   7.165  0.2261 -0.4627 -0.1468
 7046TIP3   OH242696   3.933   4.796   1.332  0.3605 -0.1755  0.1175
 7046TIP3    H142697   3.886   4.877   1.313  0.8563  0.4090  1.3057
 7046TIP3    H242698   4.023   4.813   1.305  0.5056 -0.2644  0.5387
 7047TIP3   OH242699   2.062   2.247   0.814 -0.4208 -0.3710 -1.1360
 7047TIP3    H142700   2.109   2.180   0.864 -0.6471 -0.2857 -0.8068
 7047TIP3    H242701   1.981   2.261   0.863  0.4058  1.4328 -0.1825
 7048TIP3   OH242702   3.902   0.188   2.638 -0.0661  0.4120 -0.2316
 7048TIP3    H142703   3.981   0.136   2.622 -0.8119  0.0897 -3.4707
 7048TIP3    H242704   3.858   0.142   2.710  0.7119 -1.8217 -1.0851
 7049TIP3   OH242705   4.769   5.908   0.650  0.0084 -0.4506  0.4455
 7049TIP3    H142706   4.845   5.852   0.663  0.6633  0.1865 -0.5677
 7049TIP3    H242707   4.735   5.923   0.739  1.3979 -0.2768  0.9620
 7050TIP3   OH242708   1.660   0.023   2.289  0.3345 -0.0733  0.2520
 7050TIP3    H142709   1.659   0.075   2.208  0.0662 -0.4488  0.0125
 7050TIP3    H242710   1.723  -0.047   2.271 -1.1169 -1.2892 -0.3605
 7051TIP3   OH242711   6.847   6.731   2.840 -0.1828 -0.2484  0.4330
 7051TIP3    H142712   6.847   6.642   2.805 -1.2233 -0.0112 -0.2281
 7051TIP3    H242713   6.780   6.729   2.909 -0.1291 -0.0079  0.4917
 7052TIP3   OH242714   2.016   6.027   0.761 -0.2873  0.1877 -0.2876
 7052TIP3    H142715   2.039   6.042   0.670 -0.9671 -0.3289 -0.5467
 7052TIP3    H242716   1.931   6.069   0.772 -0.7595 -0.7521 -0.2117
 7053TIP3   OH242717   0.244   2.863   0.299  0.6079 -0.2681  0.0404
 7053TIP3    H142718   0.323   2.907   0.267  0.0401  1.0680  0.3804
 7053TIP3    H242719   0.198   2.931   0.348 -1.7447 -0.3997 -1.8175
 7054TIP3   OH242720   3.205   3.225   2.735  0.2041 -0.4168 -0.0580
 7054TIP3    H142721   3.205   3.138   2.696 -2.1618  0.5942 -2.6052
 7054TIP3    H242722   3.114   3.239   2.762 -0.0536  2.1139 -1.9187
 7055LIG      O42723   2.590   4.260   4.172 -0.3175  0.0371 -0.0381
 7055LIG      N42724   2.462   4.488   4.090 -0.5062  0.1462  0.4434
 7055LIG     C142725   2.498   4.043   4.182  0.7871  0.1382 -0.2116
 7055LIG     C242726   2.506   4.173   4.099  0.4353 -0.0679 -0.0845
 7055LIG     C342727   2.638   3.973   4.212 -1.2883 -0.7031  0.0675
 7055LIG     C442728   2.412   4.052   4.309  0.3140 -0.1564  0.0178
 7055LIG     C542729   2.373   4.247   4.092  0.5291  0.0092  0.3952
 7055LIG     C642730   2.631   3.841   4.287  0.3669 -0.3223 -0.3252
 7055LIG     C742731   2.413   3.915   4.383  0.3118 -1.0687 -0.6388
 7055LIG     C842732   2.552   3.852   4.420 -0.3523  0.3867  0.5099
 7055LIG     C942733   2.371   4.386   4.021  0.1844 -0.5371 -0.2378
 7055LIG    C1042734   2.548   4.148   3.956  0.2080  0.3162  0.3788
 7055LIG    C1142735   2.520   4.596   4.004  0.6307 -0.6082 -0.4823
 7055LIG    C1242736   2.406   4.534   4.215 -0.3213 -0.2133 -0.2771
 7055LIG    C1342737   2.405   4.695   3.977 -0.1729 -0.3137  0.5529
 7055LIG    C1442738   2.285   4.633   4.189  0.0324  0.9407 -0.4985
 7055LIG    C1542739   2.326   4.746   4.093  0.3462 -0.0179  0.4207
 7055LIG    C1642740   2.461   4.087   3.858 -0.2077 -1.0533  0.2401
 7055LIG    C1742741   2.666   4.205   3.906 -0.5000  0.6959 -0.2945
 7055LIG    C1842742   2.494   4.096   3.720 -0.3859  0.4110 -0.0213
 7055LIG    C1942743   2.701   4.205   3.770  0.5788  0.0831 -0.0589
 7055LIG    C2042744   2.615   4.149   3.673  0.0604  0.0095  0.1273
 7055LIG     H142745   2.445   3.968   4.120  3.4006 -1.0720 -1.1509
 7055LIG     H242746   2.697   4.045   4.273 -0.9071 -3.0249  2.6527
 7055LIG     H342747   2.693   3.957   4.117 -1.1424 -0.7046  0.1514
 7055LIG     H442748   2.312   4.085   4.273  1.8379  1.0768 -3.4735
 7055LIG     H542749   2.447   4.140   4.367 -0.6737  1.7986 -2.2281
 7055LIG     H642750   2.331   4.264   4.194  0.0111 -0.0655  0.1972
 7055LIG     H742751   2.296   4.187   4.040 -0.0686  2.1921 -1.3989
 7055LIG     H842752   2.739   3.827   4.309  0.3117 -0.6874 -0.2770
 7055LIG     H942753   2.589   3.760   4.224 -1.1984  0.4638 -0.3412
 7055LIG    H1042754   2.365   3.841   4.315 -0.7354  1.2870 -2.6482
 7055LIG    H1142755   2.358   3.901   4.478 -1.2981  1.0037 -1.1868
 7055LIG    H1242756   2.607   3.918   4.490  1.6341 -1.9619  1.3232
 7055LIG    H1342757   2.538   3.753   4.469  0.1107  0.0208 -0.0809
 7055LIG    H1442758   2.408   4.368   3.918  0.8772  1.2507 -0.3419
 7055LIG    H1542759   2.264   4.410   4.002 -0.8109 -2.6134  2.1585
 7055LIG    H1642760   2.561   4.556   3.909  3.0045  2.3806 -0.8587
 7055LIG    H1742761   2.600   4.654   4.054 -0.2199  0.5811 -0.4588
 7055LIG    H1842762   2.490   4.582   4.270 -1.0563  0.8274 -0.0280
 7055LIG    H1942763   2.374   4.446   4.274  1.3795 -1.5496 -1.2324
 7055LIG    H2042764   2.554   4.347   4.151  1.1766  1.0227  1.3044
 7055LIG    H2142765   2.342   4.638   3.906  0.9877 -0.8606 -0.0617
 7055LIG    H2242766   2.447   4.786   3.929 -2.9663  1.3321  0.9953
 7055LIG    H2342767   2.242   4.681   4.280  2.6475 -0.9914  1.9782
 7055LIG    H2442768   2.209   4.572   4.137  0.1165 -2.1966  2.6704
 7055LIG    H2542769   2.233   4.788   4.049  1.1375  1.7020  0.3160
 7055LIG    H2642770   2.380   4.828   4.145  0.0715  1.4711 -1.5188
 7055LIG    H2742771   2.364   4.047   3.886  0.4269 -2.3545  0.6540
 7055LIG    H2842772   2.727   4.267   3.970 -1.6243  1.0378  0.4663
 7055LIG    H2942773   2.427   4.050   3.649  1.4114 -1.1300 -0.8093
 7055LIG    H3042774   2.786   4.259   3.730  0.8707 -1.1417 -1.1370
 7055LIG    H3142775   2.632   4.145   3.566  2.2063  0.3164  0.4115
   6.95328   6.95328   8.49085
