Title
42775
    1SAPS     N    1   0.891   1.674   7.713  0.1032 -0.1552 -0.1577
    1SAPS   HN1    2   0.795   1.635   7.725 -0.8223  0.9887 -2.9950
    1SAPS   HN2    3   0.921   1.629   7.625  2.0370 -0.3650  0.5642
    1SAPS   HN3    4   0.950   1.632   7.788 -0.7317 -1.1544 -0.0362
    1SAPS   C12    5   0.899   1.822   7.702 -0.4602  0.6121  0.3556
    1SAPS  H12A    6   0.815   1.853   7.641 -0.3236 -0.8699 -0.6684
    1SAPS   C13    7   0.880   1.900   7.833 -0.0518 -0.1991 -0.7470
    1SAPS  O13A    8   0.918   1.847   7.938 -0.1815 -0.1698  0.0840
    1SAPS  O13B    9   0.878   2.025   7.824  0.0534 -0.2568 -0.6459
    1SAPS   C11   10   1.043   1.844   7.647  0.2049 -0.9652 -0.4310
    1SAPS  H11A   11   1.111   1.795   7.720 -0.9574  0.6786  1.9307
    1SAPS  H11B   12   1.071   1.951   7.657  0.1318 -0.7731 -2.0675
    1SAPS     P   13   1.033   1.852   7.385 -0.1335 -0.0100  0.0978
    1SAPS   O13   14   1.083   1.757   7.275  0.1024  0.3191  0.3606
    1SAPS   O14   15   0.892   1.881   7.380  0.3530 -0.5654 -0.2924
    1SAPS   O12   16   1.065   1.785   7.524  0.2063 -0.9198  0.5536
    1SAPS   O11   17   1.114   1.984   7.379 -0.4050  0.0662 -0.3809
    1SAPS    C1   18   1.251   1.984   7.419  0.8872  0.2544 -0.0500
    1SAPS    HA   19   1.266   1.972   7.528 -1.6113 -1.2210  0.2138
    1SAPS    HB   20   1.297   1.902   7.359  0.5917  0.5877 -0.7515
    1SAPS    C2   21   1.337   2.110   7.371 -0.4169  0.8271 -0.4937
    1SAPS    HS   22   1.309   2.193   7.440  1.1252 -0.5576  1.9388
    1SAPS   O21   23   1.306   2.145   7.237 -0.1294 -0.1944 -0.0756
    1SAPS   C21   24   1.367   2.260   7.196 -0.3079  0.0833  0.1136
    1SAPS   O22   25   1.423   2.335   7.273  0.1229 -0.1549  0.0050
    1SAPS   C22   26   1.391   2.257   7.042 -0.5348  0.2335  0.1983
    1SAPS   H2R   27   1.499   2.236   7.026  0.1144  1.0582  2.9311
    1SAPS   H2S   28   1.325   2.180   6.997 -3.5999  2.1303  1.1272
    1SAPS    C3   29   1.489   2.084   7.399 -0.1480  0.0946  0.2851
    1SAPS    HX   30   1.501   2.054   7.506 -0.0182  0.3612  0.3474
    1SAPS    HY   31   1.542   2.181   7.383 -0.8732  0.4679  0.1252
    1SAPS   O31   32   1.535   1.976   7.319 -0.2559 -0.1047 -0.1363
    1SAPS   C31   33   1.620   1.998   7.214  0.6115  0.4035 -0.1234
    1SAPS   O32   34   1.664   2.108   7.184 -0.1139  0.2625 -0.3649
    1SAPS   C32   35   1.621   1.870   7.140 -0.2582  0.1141 -0.4275
    1SAPS   H2X   36   1.634   1.787   7.213  4.0608  0.4552 -0.5374
    1SAPS   H2Y   37   1.713   1.859   7.079 -0.0435 -3.9298  0.3475
    1SAPS   C23   38   1.367   2.390   6.974 -0.3443  0.3979  0.3416
    1SAPS   H3R   39   1.454   2.452   7.004  0.0214  0.1573 -0.2247
    1SAPS   H3S   40   1.278   2.447   7.010  0.7178  2.6419 -0.3518
    1SAPS   C24   41   1.363   2.387   6.820 -0.8790 -0.3381 -1.3001
    1SAPS   H4R   42   1.260   2.347   6.808 -0.7638 -1.5467  1.0150
    1SAPS   H4S   43   1.430   2.307   6.782 -2.8048 -1.5625 -2.3241
    1SAPS   C25   44   1.397   2.522   6.760  0.4407  0.3087 -0.4744
    1SAPS   H5R   45   1.418   2.606   6.827 -1.3882  1.5784 -1.4373
    1SAPS   C26   46   1.406   2.541   6.628  0.5413 -0.3613  0.5043
    1SAPS   H6R   47   1.431   2.642   6.593  0.3575 -0.6035 -0.3671
    1SAPS   C27   48   1.387   2.433   6.530  0.3532  0.4554  0.4202
    1SAPS   H7R   49   1.373   2.334   6.578 -1.7612  1.1267  1.3024
    1SAPS   H7S   50   1.478   2.429   6.467 -1.4573  1.7378 -2.4490
    1SAPS   C28   51   1.265   2.456   6.437  0.6134  0.7078 -0.4556
    1SAPS   H8R   52   1.169   2.472   6.487  0.9481 -0.1366  0.5070
    1SAPS   C29   53   1.267   2.419   6.308  0.3842  0.1687 -0.5621
    1SAPS   H9R   54   1.176   2.433   6.248  1.0915  0.4562 -1.5896
    1SAPS  C210   55   1.377   2.361   6.230 -0.7457 -0.4118 -0.3068
    1SAPS  H10R   56   1.343   2.274   6.169  0.4971 -0.9847 -0.2050
    1SAPS  H10S   57   1.471   2.332   6.282 -0.2524  3.5258  1.3086
    1SAPS  C211   58   1.409   2.473   6.128  0.8238 -0.4381  0.0796
    1SAPS  H11R   59   1.433   2.567   6.181  0.6848 -1.0804  1.3210
    1SAPS  C212   60   1.405   2.469   5.992  0.1361  0.3705  0.0191
    1SAPS  H12R   61   1.429   2.554   5.927  0.2422 -0.0093 -0.4433
    1SAPS  C213   62   1.379   2.342   5.914  0.1158  0.4626 -0.2609
    1SAPS  H13R   63   1.427   2.267   5.980 -1.3934  1.8299  2.5732
    1SAPS  H13S   64   1.443   2.349   5.823  0.0815  0.7827 -0.2625
    1SAPS  C214   65   1.233   2.306   5.896  0.0450  0.1132  0.6394
    1SAPS  H14R   66   1.192   2.229   5.963 -1.9413  0.6292  0.0848
    1SAPS  C215   67   1.157   2.381   5.820  0.5357 -0.1839 -0.3252
    1SAPS  H15R   68   1.056   2.338   5.813  0.7334 -1.0420  1.4587
    1SAPS  C216   69   1.188   2.502   5.734 -0.1796  0.3281  0.0680
    1SAPS  H16R   70   1.295   2.522   5.714  0.3614  0.7800  2.9384
    1SAPS  H16S   71   1.153   2.596   5.782  1.2892  0.5425  0.7753
    1SAPS  C217   72   1.115   2.506   5.599 -0.7691  0.5288  0.8340
    1SAPS  H17R   73   1.147   2.424   5.531  0.8815  0.7100  1.3473
    1SAPS  H17S   74   1.152   2.598   5.549 -0.0240 -0.3862 -0.3308
    1SAPS  C218   75   0.961   2.502   5.596  0.1492  0.2921 -0.2528
    1SAPS  H18R   76   0.912   2.403   5.604  0.4739  0.1267 -0.3287
    1SAPS  H18S   77   0.939   2.539   5.493  1.5309 -0.3879 -0.8168
    1SAPS  C219   78   0.895   2.599   5.694 -0.0379 -0.1790  0.0739
    1SAPS  H19R   79   0.945   2.698   5.683 -2.3002  1.1273  0.8957
    1SAPS  H19S   80   0.902   2.560   5.798 -0.1157  2.3210  1.1018
    1SAPS  C220   81   0.740   2.630   5.690 -0.0204  0.3843  0.4658
    1SAPS  H20R   82   0.688   2.533   5.674  2.0567 -0.4873 -1.7405
    1SAPS  H20S   83   0.718   2.703   5.610  1.5965  0.1578 -0.2184
    1SAPS  H20T   84   0.709   2.677   5.785 -1.1816 -0.7643  0.6856
    1SAPS   C33   85   1.499   1.841   7.042 -0.4326  0.0070 -0.2575
    1SAPS   H3X   86   1.406   1.852   7.102 -1.0603 -0.0784 -1.1884
    1SAPS   H3Y   87   1.498   1.733   7.015 -1.3291  0.3251 -1.6215
    1SAPS   C34   88   1.497   1.924   6.919  1.2277  0.2934  0.2044
    1SAPS   H4X   89   1.582   1.913   6.848  1.5676  1.4761  0.4037
    1SAPS   H4Y   90   1.495   2.035   6.933 -1.5772  0.4148 -0.4957
    1SAPS   C35   91   1.363   1.900   6.855  0.1502  0.5484 -0.3539
    1SAPS   H5X   92   1.273   1.929   6.914 -1.6469 -1.3170 -2.0332
    1SAPS   H5Y   93   1.365   1.791   6.836 -0.6459  0.7165 -1.5317
    1SAPS   C36   94   1.343   1.982   6.719 -0.1902  0.4448 -0.2746
    1SAPS   H6X   95   1.381   1.922   6.634 -2.6695 -0.3586 -0.9022
    1SAPS   H6Y   96   1.402   2.076   6.712 -1.2214  1.0396 -1.5410
    1SAPS   C37   97   1.199   2.010   6.699  0.3923  0.5607  0.0225
    1SAPS   H7X   98   1.174   2.080   6.781  2.0466  0.9337  0.2437
    1SAPS   H7Y   99   1.142   1.915   6.708 -3.4258  2.6136 -0.3021
    1SAPS   C38  100   1.180   2.074   6.557  0.3397 -0.6174 -0.5005
    1SAPS   H8X  101   1.261   2.146   6.532 -1.1352  0.9281 -1.0245
    1SAPS   H8Y  102   1.083   2.128   6.556  0.0532 -1.0556  0.8823
    1SAPS   C39  103   1.180   1.972   6.443  0.6068 -0.4037  0.1657
    1SAPS   H9X  104   1.086   1.914   6.462  0.3260  0.0096  0.0498
    1SAPS   H9Y  105   1.267   1.904   6.435 -0.1453 -1.3418 -0.3346
    1SAPS  C310  106   1.189   2.043   6.307  0.4421  0.3120  0.4328
    1SAPS  H10X  107   1.283   2.099   6.290 -1.0558  1.8124 -4.8431
    1SAPS  H10Y  108   1.109   2.119   6.300  1.3867  1.2520 -0.3710
    1SAPS  C311  109   1.173   1.934   6.201 -0.5068 -0.3930 -0.3444
    1SAPS  H11X  110   1.077   1.880   6.217 -0.1601 -0.7409  0.6468
    1SAPS  H11Y  111   1.253   1.858   6.216 -0.5881 -0.5540 -0.7182
    1SAPS  C312  112   1.183   1.982   6.059  0.2745  0.1067  0.3119
    1SAPS  H12X  113   1.280   2.034   6.046 -0.4784  1.9262  1.5360
    1SAPS  H12Y  114   1.101   2.055   6.042  1.2242  1.3791  1.0161
    1SAPS  C313  115   1.161   1.883   5.947  0.0271 -0.1215  0.2843
    1SAPS  H13X  116   1.061   1.837   5.968 -0.3190  1.4036  2.2429
    1SAPS  H13Y  117   1.237   1.804   5.962 -0.9524 -1.1560 -0.0690
    1SAPS  C314  118   1.165   1.947   5.801  0.0682  0.9155 -0.7112
    1SAPS  H14X  119   1.190   1.883   5.713 -2.6302  2.7215 -2.9959
    1SAPS  H14Y  120   1.236   2.033   5.801 -0.6510  1.6507  2.6498
    1SAPS  C315  121   1.037   2.017   5.753 -0.3095 -0.0058  0.2824
    1SAPS  H15X  122   0.985   2.082   5.826  2.1869  2.2097  0.2681
    1SAPS  H15Y  123   0.969   1.936   5.718 -0.2580  1.2387 -3.1201
    1SAPS  C316  124   1.052   2.095   5.621  0.0113  0.3636 -0.1576
    1SAPS  H16X  125   1.122   2.041   5.555 -0.2713  2.5648 -2.3790
    1SAPS  H16Y  126   1.097   2.196   5.627 -0.9300  0.8903 -1.4921
    1SAPS  C317  127   0.914   2.083   5.551  0.9947 -0.1428 -0.7169
    1SAPS  H17X  128   0.843   2.138   5.617  1.9023 -0.0448  0.2019
    1SAPS  H17Y  129   0.889   1.975   5.554  2.6998 -0.6661 -2.8322
    1SAPS  C318  130   0.904   2.147   5.412 -0.0365 -0.1739  1.1295
    1SAPS  H18X  131   0.992   2.110   5.355 -0.0935  0.8280  0.3776
    1SAPS  H18Y  132   0.910   2.258   5.417 -0.3688 -0.0077 -1.3488
    1SAPS  H18Z  133   0.808   2.118   5.366  0.2842  1.5948 -0.7954
    2SAPS     N  134   2.824   2.082   7.705  0.1738  0.0354 -0.0923
    2SAPS   HN1  135   2.910   2.039   7.665  1.0468  0.8083  0.8882
    2SAPS   HN2  136   2.805   2.177   7.667  0.1709  0.7693  1.6545
    2SAPS   HN3  137   2.833   2.084   7.808 -0.4435 -1.4476  0.0286
    2SAPS   C12  138   2.701   1.999   7.664 -0.5885  0.0908 -0.2529
    2SAPS  H12A  139   2.719   1.900   7.704 -1.1688  0.3573  0.7004
    2SAPS   C13  140   2.570   2.046   7.735 -0.0673  0.4778  0.2939
    2SAPS  O13A  141   2.571   2.142   7.820 -0.1484  0.4662  0.4198
    2SAPS  O13B  142   2.459   2.007   7.690 -0.2012  0.2079  0.0249
    2SAPS   C11  143   2.697   1.986   7.506  0.3752  0.7015 -0.3536
    2SAPS  H11A  144   2.670   2.085   7.463  0.4412  1.1936  0.7039
    2SAPS  H11B  145   2.607   1.933   7.470  1.2744 -1.0991 -0.0714
    2SAPS     P  146   2.839   1.903   7.301 -0.1623  0.2669  0.0285
    2SAPS   O13  147   2.756   1.999   7.221  0.2474 -0.2894 -0.4850
    2SAPS   O14  148   2.988   1.907   7.280  0.1094 -0.3824 -0.2447
    2SAPS   O12  149   2.819   1.926   7.460  0.1666 -0.0674  0.3154
    2SAPS   O11  150   2.779   1.765   7.273 -0.0865  0.0287 -0.0959
    2SAPS    C1  151   2.700   1.684   7.357 -0.0875 -0.1881 -0.2549
    2SAPS    HA  152   2.766   1.604   7.396 -0.2480 -1.0043 -1.5879
    2SAPS    HB  153   2.661   1.740   7.444  2.1435  1.1376 -0.0286
    2SAPS    C2  154   2.574   1.639   7.274  0.4258 -0.3538  0.1626
    2SAPS    HS  155   2.532   1.550   7.326  0.8464  0.5252  2.0613
    2SAPS   O21  156   2.605   1.615   7.138  0.8022  0.0620 -0.0749
    2SAPS   C21  157   2.683   1.515   7.120  0.0145  0.4335 -0.6080
    2SAPS   O22  158   2.718   1.435   7.204  0.4104 -0.4299  0.4414
    2SAPS   C22  159   2.687   1.486   6.967 -0.5262  0.3375  0.1220
    2SAPS   H2R  160   2.746   1.394   6.951  0.1008  0.1613  2.9498
    2SAPS   H2S  161   2.585   1.467   6.929 -1.3778 -0.1047  2.5035
    2SAPS    C3  162   2.468   1.753   7.275 -0.2182 -0.5261 -0.4392
    2SAPS    HX  163   2.521   1.850   7.260 -0.9295 -0.0016  0.3802
    2SAPS    HY  164   2.417   1.753   7.373 -0.9763 -0.9251 -0.8231
    2SAPS   O31  165   2.363   1.737   7.172  0.3726 -0.1044  0.4101
    2SAPS   C31  166   2.372   1.806   7.056 -0.4942 -0.0151 -0.4754
    2SAPS   O32  167   2.453   1.890   7.025 -0.1420 -0.6079  0.2884
    2SAPS   C32  168   2.261   1.750   6.959  0.4319  0.6160 -0.2602
    2SAPS   H2X  169   2.174   1.815   6.981 -0.1613 -0.7737  1.7011
    2SAPS   H2Y  170   2.229   1.650   6.996 -0.1026  0.3708 -1.3381
    2SAPS   C23  171   2.767   1.601   6.892  0.3611 -0.0986 -0.2104
    2SAPS   H3R  172   2.699   1.689   6.891 -1.1132 -1.0834 -4.0268
    2SAPS   H3S  173   2.775   1.568   6.787  0.6059  0.8544 -0.5029
    2SAPS   C24  174   2.898   1.629   6.963  0.6330  0.5390  0.0588
    2SAPS   H4R  175   2.886   1.677   7.062 -1.7674  2.3301 -0.9957
    2SAPS   H4S  176   2.939   1.716   6.906 -0.9703  1.0202 -0.4318
    2SAPS   C25  177   2.996   1.518   6.957  0.0687  0.2518 -0.4488
    2SAPS   H5R  178   3.051   1.503   7.052  2.1400 -0.5665 -1.7024
    2SAPS   C26  179   3.050   1.445   6.862 -0.2638 -0.9197 -0.5263
    2SAPS   H6R  180   3.127   1.374   6.896 -0.1944 -0.9782 -0.8001
    2SAPS   C27  181   3.007   1.452   6.715 -0.3196  0.6212  0.6046
    2SAPS   H7R  182   2.956   1.547   6.687 -1.4907  0.0036  0.5570
    2SAPS   H7S  183   2.924   1.380   6.697  0.9216 -0.5327 -0.6879
    2SAPS   C28  184   3.122   1.442   6.615 -0.5470  0.0616 -0.2791
    2SAPS   H8R  185   3.219   1.424   6.663 -0.8475  1.1125  0.7599
    2SAPS   C29  186   3.117   1.456   6.482 -0.3362  0.6766  0.0608
    2SAPS   H9R  187   3.213   1.439   6.430 -1.1368  0.8327 -1.5126
    2SAPS  C210  188   2.996   1.486   6.398  0.5621  0.4652  0.2749
    2SAPS  H10R  189   2.972   1.593   6.420 -0.4235  0.1227  0.9114
    2SAPS  H10S  190   2.914   1.422   6.437  0.1773  0.5467 -0.3773
    2SAPS  C211  191   3.010   1.477   6.245  0.6265  0.1100  0.6735
    2SAPS  H11R  192   2.958   1.390   6.202 -1.5248  1.1061  1.1441
    2SAPS  C212  193   3.071   1.554   6.156  0.2195 -0.0138 -0.3292
    2SAPS  H12R  194   3.075   1.531   6.048 -1.0108 -0.5403 -0.2791
    2SAPS  C213  195   3.143   1.680   6.195 -0.3707  0.2713  0.0630
    2SAPS  H13R  196   3.235   1.694   6.135  0.9623 -1.7294  1.5166
    2SAPS  H13S  197   3.177   1.676   6.301 -1.2040  1.7376  0.4117
    2SAPS  C214  198   3.055   1.794   6.206  0.1577 -0.1739 -0.0019
    2SAPS  H14R  199   2.978   1.785   6.284  0.5922  0.7596  0.5572
    2SAPS  C215  200   3.071   1.908   6.139 -0.1832  0.0329 -0.6620
    2SAPS  H15R  201   3.013   1.998   6.165  0.9599  1.0241 -1.3935
    2SAPS  C216  202   3.182   1.946   6.039  0.6584  0.5213  0.0587
    2SAPS  H16R  203   3.275   1.966   6.096  0.8722  0.9721 -0.4375
    2SAPS  H16S  204   3.155   2.050   6.010  1.1223  0.6602  0.1165
    2SAPS  C217  205   3.200   1.863   5.911  0.2023  0.7585 -0.2716
    2SAPS  H17R  206   3.262   1.771   5.922 -2.0755 -0.7422  0.9155
    2SAPS  H17S  207   3.251   1.932   5.841  1.0015  1.0362  0.5697
    2SAPS  C218  208   3.072   1.827   5.827 -0.2806  0.0699 -0.6012
    2SAPS  H18R  209   2.986   1.888   5.863  0.1286  0.0326  0.4823
    2SAPS  H18S  210   3.074   1.719   5.852  2.8799  0.1952  0.1173
    2SAPS  C219  211   3.096   1.852   5.674  0.4669  0.1899  0.6535
    2SAPS  H19R  212   3.180   1.784   5.646  0.8321 -0.5089  3.1563
    2SAPS  H19S  213   3.133   1.957   5.672 -1.4718  1.3002  6.1062
    2SAPS  C220  214   2.973   1.817   5.586  0.4698 -0.0828 -0.3560
    2SAPS  H20R  215   2.887   1.852   5.646  0.8522 -3.4251  2.4194
    2SAPS  H20S  216   2.977   1.707   5.577  2.5478 -0.0186 -0.7147
    2SAPS  H20T  217   2.959   1.866   5.487 -1.4852  0.4095  0.1204
    2SAPS   C33  218   2.306   1.742   6.809  0.0464  0.7712 -0.8130
    2SAPS   H3X  219   2.405   1.692   6.812 -1.0860 -1.6050  0.3176
    2SAPS   H3Y  220   2.296   1.844   6.766 -1.7609  0.9191 -0.1510
    2SAPS   C34  221   2.210   1.653   6.731 -0.6554 -0.7900  0.4995
    2SAPS   H4X  222   2.109   1.698   6.728 -0.4365 -0.0121  2.8149
    2SAPS   H4Y  223   2.193   1.556   6.782 -1.1556 -1.2431 -0.4958
    2SAPS   C35  224   2.260   1.625   6.585  0.6311 -1.2258  0.2700
    2SAPS   H5X  225   2.183   1.566   6.531  0.2751  0.3932 -1.0750
    2SAPS   H5Y  226   2.344   1.552   6.595 -1.9344 -4.4505 -0.0654
    2SAPS   C36  227   2.302   1.749   6.499 -0.0005 -0.9268 -0.5129
    2SAPS   H6X  228   2.326   1.713   6.397 -3.4847 -0.4802 -1.6375
    2SAPS   H6Y  229   2.392   1.785   6.554 -0.3537 -0.6433 -0.1071
    2SAPS   C37  230   2.185   1.851   6.490  1.0468  0.3147  0.2078
    2SAPS   H7X  231   2.229   1.942   6.444 -0.5066  0.4335 -1.1513
    2SAPS   H7Y  232   2.141   1.853   6.592 -0.0407 -2.4282 -0.1374
    2SAPS   C38  233   2.072   1.821   6.391 -0.0610  0.5869 -0.2456
    2SAPS   H8X  234   1.970   1.837   6.433  0.2085  1.5021  0.0712
    2SAPS   H8Y  235   2.086   1.713   6.366 -0.1540  0.7799 -1.1549
    2SAPS   C39  236   2.075   1.896   6.263  0.5197 -0.1380 -0.2741
    2SAPS   H9X  237   2.090   2.003   6.289  1.4782 -0.5062  0.7371
    2SAPS   H9Y  238   1.979   1.893   6.206  0.1787  0.2818  0.2709
    2SAPS  C310  239   2.180   1.866   6.160  0.0263 -0.0251  0.2540
    2SAPS  H10X  240   2.281   1.892   6.200  0.9792  1.9059 -2.9765
    2SAPS  H10Y  241   2.172   1.928   6.068  0.2255 -0.3346  0.0290
    2SAPS  C311  242   2.154   1.720   6.110 -0.0516 -0.3685  0.1233
    2SAPS  H11X  243   2.052   1.697   6.147 -0.5784  0.5836 -0.6788
    2SAPS  H11Y  244   2.227   1.648   6.154  0.1391 -0.4983 -0.3969
    2SAPS  C312  245   2.160   1.695   5.957  0.0960 -0.0940 -0.1842
    2SAPS  H12X  246   2.118   1.593   5.945 -0.9966 -0.1612  3.3373
    2SAPS  H12Y  247   2.264   1.712   5.924 -1.2146  2.8250 -3.4808
    2SAPS  C313  248   2.075   1.782   5.863  0.3699 -0.5185 -0.0440
    2SAPS  H13X  249   2.120   1.883   5.874  1.3668 -1.0976  1.7202
    2SAPS  H13Y  250   1.970   1.796   5.898  0.5094  1.3946 -0.3053
    2SAPS  C314  251   2.089   1.737   5.725  0.1192 -0.0912 -0.3337
    2SAPS  H14X  252   2.041   1.639   5.705  0.8360 -1.1401  2.4971
    2SAPS  H14Y  253   2.195   1.726   5.694  0.6073 -1.3333  1.6166
    2SAPS  C315  254   2.020   1.831   5.621 -0.3049  0.5910 -0.3693
    2SAPS  H15X  255   2.093   1.894   5.567  0.0500  0.4663 -0.0390
    2SAPS  H15Y  256   1.949   1.902   5.669  1.6863  1.7445  0.9833
    2SAPS  C316  257   1.931   1.758   5.526 -0.2228 -0.0897 -0.1133
    2SAPS  H16X  258   1.863   1.822   5.465 -1.3882  1.2450  2.4398
    2SAPS  H16Y  259   1.870   1.682   5.580  0.1936 -0.3721 -0.0333
    2SAPS  C317  260   2.023   1.669   5.436  0.6249 -0.3689 -0.2127
    2SAPS  H17X  261   2.083   1.595   5.492  0.0841 -0.2063  0.6009
    2SAPS  H17Y  262   2.095   1.741   5.390 -1.0221  1.2736 -0.3124
    2SAPS  C318  263   1.951   1.605   5.322 -0.1297 -0.2252  0.4148
    2SAPS  H18X  264   2.011   1.532   5.264  0.5858  2.2232 -2.1114
    2SAPS  H18Y  265   1.918   1.687   5.255 -0.0491 -0.9317 -0.5148
    2SAPS  H18Z  266   1.857   1.558   5.358  0.0289 -1.3831 -0.5986
    3SAPS     N  267   2.546   2.408   7.753 -0.0268  0.5666 -0.4475
    3SAPS   HN1  268   2.614   2.463   7.810  0.2873 -1.2363  1.0007
    3SAPS   HN2  269   2.448   2.439   7.768 -0.5881 -2.4998  3.9860
    3SAPS   HN3  270   2.556   2.312   7.790  0.4358  0.5236 -0.6665
    3SAPS   C12  271   2.580   2.417   7.606 -0.1022 -0.7838 -0.1220
    3SAPS  H12A  272   2.557   2.522   7.589  0.1485 -0.4197  1.6196
    3SAPS   C13  273   2.727   2.388   7.566  0.2572 -0.0119 -0.3410
    3SAPS  O13A  274   2.806   2.337   7.654 -0.7295 -0.5739 -0.2479
    3SAPS  O13B  275   2.768   2.399   7.448  0.1234  0.5298  0.7777
    3SAPS   C11  276   2.479   2.338   7.516 -0.1902 -0.1993  0.6136
    3SAPS  H11A  277   2.490   2.230   7.538  2.0698 -0.0605  0.4218
    3SAPS  H11B  278   2.516   2.353   7.412 -1.3320 -2.7254 -0.2328
    3SAPS     P  279   2.224   2.330   7.449  0.3300  0.0139 -0.1422
    3SAPS   O13  280   2.218   2.185   7.455  0.0429 -0.0311 -0.3605
    3SAPS   O14  281   2.100   2.403   7.477  0.2482  0.1520  0.3242
    3SAPS   O12  282   2.343   2.381   7.539 -0.2053 -0.1414 -0.3715
    3SAPS   O11  283   2.278   2.367   7.307 -0.3376  0.2242  0.4989
    3SAPS    C1  284   2.281   2.506   7.261 -0.0915  0.1462 -0.2027
    3SAPS    HA  285   2.282   2.577   7.346 -1.6831  1.2624 -1.0574
    3SAPS    HB  286   2.369   2.521   7.195  1.4439 -0.9777  1.4826
    3SAPS    C2  287   2.151   2.521   7.165 -0.2684  0.2297 -0.1350
    3SAPS    HS  288   2.068   2.525   7.238 -0.1408 -3.5635  0.3967
    3SAPS   O21  289   2.139   2.405   7.076  0.5788  0.0683 -0.5092
    3SAPS   C21  290   2.012   2.372   7.054 -0.0236 -0.7307 -0.0434
    3SAPS   O22  291   1.917   2.444   7.081  0.3492 -0.3274 -0.2919
    3SAPS   C22  292   2.000   2.244   6.976 -0.3712  0.4218 -0.0798
    3SAPS   H2R  293   2.083   2.220   6.906 -2.4894 -0.1935 -2.5167
    3SAPS   H2S  294   2.012   2.173   7.060 -1.4151 -0.7361 -0.8871
    3SAPS    C3  295   2.158   2.664   7.092  0.5979 -0.3229  0.0849
    3SAPS    HX  296   2.248   2.670   7.027  0.5924  1.6887  0.1983
    3SAPS    HY  297   2.181   2.740   7.170 -0.4118 -0.9954  1.0690
    3SAPS   O31  298   2.038   2.687   7.021  0.6795 -0.4021  0.0082
    3SAPS   C31  299   2.039   2.666   6.895  0.1943  0.0473 -0.5058
    3SAPS   O32  300   2.130   2.631   6.828  0.1738  0.5272  0.3785
    3SAPS   C32  301   1.903   2.695   6.844  0.6755 -0.4345  0.2824
    3SAPS   H2X  302   1.895   2.805   6.854 -2.4419 -0.7698  2.8340
    3SAPS   H2Y  303   1.832   2.655   6.918 -0.3807  0.4999 -0.2023
    3SAPS   C23  304   1.862   2.223   6.907 -0.3498 -0.0466 -0.5211
    3SAPS   H3R  305   1.848   2.292   6.821  2.0908  1.6253  0.2851
    3SAPS   H3S  306   1.788   2.233   6.990  1.8493 -1.4796  1.7741
    3SAPS   C24  307   1.838   2.085   6.861  0.5424  0.5441 -0.0708
    3SAPS   H4R  308   1.728   2.083   6.841  0.3887  2.3402  0.4347
    3SAPS   H4S  309   1.872   2.002   6.927  3.4874 -0.0099 -2.1213
    3SAPS   C25  310   1.902   2.049   6.725 -0.2108 -0.1007  0.6341
    3SAPS   H5R  311   2.006   2.014   6.740 -0.0390  0.9172  2.1056
    3SAPS   C26  312   1.856   2.070   6.598 -0.5359  0.0348 -0.0770
    3SAPS   H6R  313   1.930   2.069   6.517 -1.4161  0.6455 -0.9168
    3SAPS   C27  314   1.713   2.127   6.575  0.6889 -0.4544 -0.3534
    3SAPS   H7R  315   1.662   2.162   6.667 -0.1738  0.5602 -1.1904
    3SAPS   H7S  316   1.647   2.040   6.555 -1.0780  0.6451  0.4483
    3SAPS   C28  317   1.695   2.227   6.459  0.9551 -0.1333 -0.3243
    3SAPS   H8R  318   1.676   2.331   6.491  0.7030  0.2239 -1.5990
    3SAPS   C29  319   1.712   2.207   6.326 -0.1733  0.5620 -0.3625
    3SAPS   H9R  320   1.703   2.296   6.262 -1.1821 -0.2361 -1.3583
    3SAPS  C210  321   1.763   2.078   6.253 -0.2651 -0.0045  0.2993
    3SAPS  H10R  322   1.849   2.036   6.310 -0.4384  0.3415  0.8252
    3SAPS  H10S  323   1.793   2.119   6.155 -1.2704  0.2620  0.0897
    3SAPS  C211  324   1.664   1.963   6.229 -0.3340 -0.4702  0.4275
    3SAPS  H11R  325   1.642   1.908   6.322 -0.3849 -0.0981  0.6380
    3SAPS  C212  326   1.604   1.921   6.112  0.2233 -0.0151 -0.9901
    3SAPS  H12R  327   1.526   1.844   6.120 -1.1085  1.3255 -0.7575
    3SAPS  C213  328   1.606   1.981   5.976 -0.1281 -0.0017 -0.1682
    3SAPS  H13R  329   1.676   2.067   5.971 -2.7091  2.2412 -0.0647
    3SAPS  H13S  330   1.512   2.032   5.947  1.1163  2.1069 -0.7516
    3SAPS  C214  331   1.660   1.891   5.865 -0.1028 -0.4372  0.1855
    3SAPS  H14R  332   1.749   1.837   5.903  0.9911  0.2724 -1.2773
    3SAPS  C215  333   1.621   1.878   5.736 -0.4074 -0.1836  0.3168
    3SAPS  H15R  334   1.676   1.802   5.678 -1.3763 -0.9179  0.3350
    3SAPS  C216  335   1.507   1.955   5.670  0.6837  0.4191  0.4612
    3SAPS  H16R  336   1.429   1.996   5.738  0.3933 -2.9120  2.4131
    3SAPS  H16S  337   1.463   1.881   5.600  2.6889 -1.4507  1.0347
    3SAPS  C217  338   1.552   2.079   5.597 -0.2158 -0.8770  0.2967
    3SAPS  H17R  339   1.626   2.057   5.517 -0.1879 -0.7694  0.2933
    3SAPS  H17S  340   1.607   2.145   5.668  1.9353 -1.3316 -0.8531
    3SAPS  C218  341   1.437   2.165   5.539  0.2540  0.0366  0.3898
    3SAPS  H18R  342   1.462   2.273   5.534  2.2209 -0.3388  1.1557
    3SAPS  H18S  343   1.349   2.150   5.605 -0.7086 -0.8336 -1.0028
    3SAPS  C219  344   1.405   2.129   5.392 -1.2693  0.1573 -0.1591
    3SAPS  H19R  345   1.494   2.155   5.331 -0.5606 -0.5462  0.5499
    3SAPS  H19S  346   1.383   2.020   5.391  1.9023 -0.5865  0.2027
    3SAPS  C220  347   1.283   2.202   5.335  1.0374 -0.4406 -0.2600
    3SAPS  H20R  348   1.273   2.186   5.225  1.6475  1.0238 -0.5566
    3SAPS  H20S  349   1.277   2.309   5.366 -1.2471 -0.9747  1.3905
    3SAPS  H20T  350   1.195   2.159   5.387  1.2157  1.1363  1.4862
    3SAPS   C33  351   1.874   2.653   6.694  0.4247  0.5362  0.3930
    3SAPS   H3X  352   1.875   2.543   6.678 -0.6351  0.1961  2.2952
    3SAPS   H3Y  353   1.948   2.709   6.634  0.0426 -0.1214 -0.7169
    3SAPS   C34  354   1.739   2.720   6.654  0.5059  0.2203 -0.7258
    3SAPS   H4X  355   1.740   2.828   6.680  0.4048 -0.1759  1.0784
    3SAPS   H4Y  356   1.660   2.678   6.720  0.1934  0.3378 -1.0238
    3SAPS   C35  357   1.701   2.691   6.505 -0.1568 -0.2133  0.7324
    3SAPS   H5X  358   1.723   2.584   6.485  2.4679 -0.2419  3.0846
    3SAPS   H5Y  359   1.593   2.703   6.484 -0.4898 -2.2717  1.0980
    3SAPS   C36  360   1.785   2.780   6.403  0.6333 -0.4222 -0.3320
    3SAPS   H6X  361   1.893   2.760   6.417  0.9832  0.9684 -0.8539
    3SAPS   H6Y  362   1.765   2.887   6.426 -1.2344 -0.7597 -0.2397
    3SAPS   C37  363   1.741   2.746   6.268 -0.0986 -0.1543  0.0599
    3SAPS   H7X  364   1.634   2.776   6.273 -0.1776 -0.5313  0.8514
    3SAPS   H7Y  365   1.751   2.640   6.237 -0.5685 -0.1659 -0.0572
    3SAPS   C38  366   1.796   2.829   6.149  0.4251  0.1782 -0.4152
    3SAPS   H8X  367   1.896   2.783   6.130 -0.2186 -0.6318 -2.0764
    3SAPS   H8Y  368   1.816   2.932   6.183  0.1106  1.1874 -3.0577
    3SAPS   C39  369   1.697   2.837   6.035 -0.0727  0.4353 -0.5089
    3SAPS   H9X  370   1.665   2.934   5.991  0.3891  1.4656  1.3272
    3SAPS   H9Y  371   1.598   2.803   6.071  1.0401 -1.3990  0.9789
    3SAPS  C310  372   1.743   2.733   5.925  0.3929  0.2127 -0.1592
    3SAPS  H10X  373   1.750   2.637   5.981 -0.7990  0.0276 -0.3033
    3SAPS  H10Y  374   1.848   2.753   5.897  0.7228 -1.4103 -0.1704
    3SAPS  C311  375   1.662   2.727   5.794  0.4780  0.1235 -1.0790
    3SAPS  H11X  376   1.696   2.818   5.740  0.0906  2.9332  2.9714
    3SAPS  H11Y  377   1.556   2.737   5.822  1.0371  2.5306  0.4120
    3SAPS  C312  378   1.689   2.603   5.710  0.1456  0.3376  0.2051
    3SAPS  H12X  379   1.641   2.514   5.757  0.2463 -0.3946 -1.0225
    3SAPS  H12Y  380   1.796   2.574   5.709 -0.2507 -1.2474 -0.6266
    3SAPS  C313  381   1.638   2.613   5.565 -0.4547 -0.4553 -1.1418
    3SAPS  H13X  382   1.675   2.712   5.530 -1.1003 -0.3355 -1.4879
    3SAPS  H13Y  383   1.527   2.614   5.561 -0.6131 -2.6212  0.8981
    3SAPS  C314  384   1.693   2.498   5.480  0.1404  0.0130  0.0827
    3SAPS  H14X  385   1.697   2.397   5.527 -0.0830  0.6233  1.4734
    3SAPS  H14Y  386   1.797   2.529   5.456 -0.3283  1.3188 -0.2987
    3SAPS  C315  387   1.624   2.488   5.339 -0.3092 -0.5723 -1.1717
    3SAPS  H15X  388   1.613   2.587   5.290 -1.3080 -0.8344 -1.4962
    3SAPS  H15Y  389   1.519   2.454   5.351 -0.7224  0.7661 -0.8325
    3SAPS  C316  390   1.697   2.378   5.251  0.5130 -0.0198 -0.1493
    3SAPS  H16X  391   1.613   2.338   5.191 -0.6114  1.7606  0.1421
    3SAPS  H16Y  392   1.727   2.297   5.320  0.7482 -0.6632 -0.9948
    3SAPS  C317  393   1.787   2.431   5.140  0.7203  0.3562  0.2457
    3SAPS  H17X  394   1.877   2.477   5.186  1.6625 -0.2187 -0.9541
    3SAPS  H17Y  395   1.728   2.519   5.106 -1.1255 -0.2356  1.7511
    3SAPS  C318  396   1.823   2.337   5.027 -0.1943 -0.8594  0.3760
    3SAPS  H18X  397   1.740   2.310   4.958 -0.5534  1.7245 -0.3092
    3SAPS  H18Y  398   1.851   2.238   5.070 -1.6157 -1.8302 -0.8525
    3SAPS  H18Z  399   1.906   2.373   4.962  0.4872  0.5052  1.9394
    4SAPS     N  400   5.914   3.372   7.415  0.5309 -0.2283 -0.1819
    4SAPS   HN1  401   5.957   3.424   7.494  1.8022 -0.1390 -0.9174
    4SAPS   HN2  402   5.988   3.348   7.347 -1.2941 -0.6361 -2.1420
    4SAPS   HN3  403   5.848   3.447   7.386 -0.7747 -1.2640  0.0250
    4SAPS   C12  404   5.835   3.250   7.462 -0.9886 -0.3018  0.2554
    4SAPS  H12A  405   5.867   3.218   7.560 -0.6479  2.8565  1.3037
    4SAPS   C13  406   5.686   3.273   7.495 -0.4151 -0.6085  0.2582
    4SAPS  O13A  407   5.633   3.382   7.481 -0.3275 -0.0928 -0.3695
    4SAPS  O13B  408   5.625   3.168   7.535 -0.0541 -0.0089  0.2390
    4SAPS   C11  409   5.846   3.134   7.360 -0.2897 -0.4551  0.8103
    4SAPS  H11A  410   5.797   3.164   7.265 -1.0812  0.1020  1.3854
    4SAPS  H11B  411   5.793   3.048   7.406  0.2911 -1.8404 -0.9637
    4SAPS     P  412   6.072   3.002   7.397 -0.1862 -0.0387  0.0015
    4SAPS   O13  413   6.207   3.060   7.404 -0.5554  0.4670 -0.0184
    4SAPS   O14  414   6.015   2.963   7.529 -0.0507  0.3230 -0.2744
    4SAPS   O12  415   5.981   3.110   7.325 -0.2241 -0.1431  0.2440
    4SAPS   O11  416   6.066   2.877   7.293 -0.1978  0.3413  0.3424
    4SAPS    C1  417   6.054   2.908   7.150 -0.4750  0.0095  0.1474
    4SAPS    HA  418   6.023   3.009   7.116  2.8788  0.3968 -2.2787
    4SAPS    HB  419   6.148   2.884   7.096 -1.3202 -0.8506 -1.0045
    4SAPS    C2  420   5.964   2.804   7.071  0.0543 -0.1993 -0.7048
    4SAPS    HS  421   5.866   2.815   7.122  1.1079  3.7887  0.8834
    4SAPS   O21  422   6.030   2.674   7.094 -0.9907  0.4523  0.2300
    4SAPS   C21  423   5.983   2.569   7.029  0.2490 -0.7390 -0.3208
    4SAPS   O22  424   5.870   2.561   6.982  0.1447 -0.5866  0.2202
    4SAPS   C22  425   6.092   2.467   7.013 -0.1993 -0.6861  0.2254
    4SAPS   H2R  426   6.145   2.465   7.111  0.8945 -2.7706 -0.3714
    4SAPS   H2S  427   6.051   2.366   6.993  1.0463 -1.1286 -0.1776
    4SAPS    C3  428   5.943   2.842   6.930  0.0386  0.4776  0.2400
    4SAPS    HX  429   5.898   2.943   6.920 -4.2308 -1.1579  0.8101
    4SAPS    HY  430   5.863   2.786   6.878  0.3752  1.0996 -0.9754
    4SAPS   O31  431   6.068   2.817   6.857 -0.1704  0.2883  0.3655
    4SAPS   C31  432   6.112   2.920   6.788 -0.2087 -0.0217  0.4436
    4SAPS   O32  433   6.078   3.036   6.795  0.3429  0.3703  0.1154
    4SAPS   C32  434   6.233   2.866   6.705 -0.4724  0.4499 -0.2118
    4SAPS   H2X  435   6.184   2.782   6.651 -0.7213  1.5084 -1.6996
    4SAPS   H2Y  436   6.313   2.814   6.762  0.8125  1.4161 -1.1063
    4SAPS   C23  437   6.188   2.519   6.900  0.3679  0.0307 -0.4447
    4SAPS   H3R  438   6.262   2.592   6.940 -1.7180  2.3187 -0.4821
    4SAPS   H3S  439   6.139   2.563   6.811 -0.6742 -3.2606 -1.6246
    4SAPS   C24  440   6.265   2.402   6.844  0.0851  0.2737  0.0792
    4SAPS   H4R  441   6.178   2.337   6.823  0.3503  0.0282 -0.2553
    4SAPS   H4S  442   6.328   2.354   6.922  0.5371  0.2316 -0.3095
    4SAPS   C25  443   6.363   2.429   6.728 -0.0056 -0.2464  0.5192
    4SAPS   H5R  444   6.460   2.460   6.768 -0.0550 -0.3923  0.7550
    4SAPS   C26  445   6.337   2.435   6.593  0.3165  0.0366 -0.6323
    4SAPS   H6R  446   6.403   2.461   6.509  2.5978 -0.8833  0.7957
    4SAPS   C27  447   6.201   2.403   6.525  0.2249  0.0155  0.0008
    4SAPS   H7R  448   6.183   2.490   6.459  1.5125  0.3232  0.0308
    4SAPS   H7S  449   6.123   2.418   6.602 -0.6809 -0.1228 -0.8636
    4SAPS   C28  450   6.195   2.266   6.458 -0.4085 -0.0391  0.5033
    4SAPS   H8R  451   6.215   2.184   6.529 -3.5932 -1.2208  0.2161
    4SAPS   C29  452   6.158   2.233   6.329  0.2270  0.3944 -0.1537
    4SAPS   H9R  453   6.163   2.126   6.306  2.0967  0.1367  1.1963
    4SAPS  C210  454   6.107   2.328   6.231 -0.2350  0.2525 -0.8784
    4SAPS  H10R  455   6.151   2.300   6.133  2.3447  0.0290  0.2496
    4SAPS  H10S  456   6.153   2.426   6.255  3.2102 -1.6355  1.0401
    4SAPS  C211  457   5.958   2.356   6.225 -0.0653 -0.3874  0.8547
    4SAPS  H11R  458   5.936   2.444   6.287  0.5446 -0.0106  0.5422
    4SAPS  C212  459   5.866   2.294   6.152 -0.3449  0.9554  0.3304
    4SAPS  H12R  460   5.761   2.329   6.154 -1.3267 -1.6107 -1.4958
    4SAPS  C213  461   5.885   2.186   6.044 -0.0248 -0.1813 -0.0823
    4SAPS  H13R  462   5.789   2.148   6.002 -1.3082  1.1932  1.4494
    4SAPS  H13S  463   5.937   2.097   6.085 -0.5338  1.2951  4.3748
    4SAPS  C214  464   5.965   2.246   5.934 -0.3214 -0.2511  0.2903
    4SAPS  H14R  465   6.029   2.333   5.959  0.3252 -1.0490  1.4968
    4SAPS  C215  466   5.987   2.188   5.809  0.3863 -0.2743 -0.5184
    4SAPS  H15R  467   6.059   2.241   5.745  0.9675  0.8990  1.0314
    4SAPS  C216  468   5.925   2.058   5.751 -0.1095  0.2813 -0.1182
    4SAPS  H16R  469   5.834   2.025   5.806 -0.4985  1.1248 -0.2503
    4SAPS  H16S  470   6.005   1.982   5.764  1.7720  1.5810 -3.0558
    4SAPS  C217  471   5.880   2.069   5.603  0.3030 -0.1037 -0.4157
    4SAPS  H17R  472   5.953   2.105   5.528  0.7561  1.9332  0.9229
    4SAPS  H17S  473   5.793   2.138   5.608  0.1885 -0.3280  1.2307
    4SAPS  C218  474   5.822   1.936   5.559 -0.0992 -0.6200 -0.0976
    4SAPS  H18R  475   5.744   1.894   5.626  1.1734 -0.7884  1.3273
    4SAPS  H18S  476   5.905   1.862   5.558 -1.5938 -2.3834 -0.5089
    4SAPS  C219  477   5.752   1.952   5.423  0.3366  0.0179  0.3471
    4SAPS  H19R  478   5.816   2.000   5.346  0.2606 -1.2405 -0.5286
    4SAPS  H19S  479   5.667   2.021   5.437 -0.3429 -0.6326 -0.4665
    4SAPS  C220  480   5.713   1.822   5.358  0.2479  1.0248  0.1642
    4SAPS  H20R  481   5.666   1.840   5.259  1.2444  0.5610 -0.4072
    4SAPS  H20S  482   5.653   1.759   5.428  1.5396  0.2879  0.6504
    4SAPS  H20T  483   5.807   1.763   5.349 -0.2804  0.4339 -2.1409
    4SAPS   C33  484   6.288   2.974   6.607 -0.0604  0.3099  0.9386
    4SAPS   H3X  485   6.341   3.058   6.658  0.9337  0.4576 -0.3010
    4SAPS   H3Y  486   6.200   3.013   6.552 -0.8739 -1.4369  0.9284
    4SAPS   C34  487   6.396   2.916   6.511 -0.6723 -0.2766  0.0027
    4SAPS   H4X  488   6.487   2.879   6.563  0.8627  3.2231  0.0491
    4SAPS   H4Y  489   6.434   3.007   6.460  0.7804 -1.0262 -0.3184
    4SAPS   C35  490   6.357   2.819   6.399 -0.1400 -0.4140 -0.3123
    4SAPS   H5X  491   6.258   2.773   6.419  0.4138 -1.1312  0.9275
    4SAPS   H5Y  492   6.430   2.736   6.390 -0.1646 -0.4394 -0.2812
    4SAPS   C36  493   6.347   2.901   6.272 -0.0829 -0.0908  0.0416
    4SAPS   H6X  494   6.448   2.932   6.240 -0.3936  1.4938  0.5356
    4SAPS   H6Y  495   6.289   2.993   6.295  0.5337  0.1016  0.8658
    4SAPS   C37  496   6.300   2.812   6.155  0.8713 -0.8150  0.5092
    4SAPS   H7X  497   6.216   2.749   6.189 -1.2056  1.7019  0.3619
    4SAPS   H7Y  498   6.384   2.742   6.136  1.6884  0.0878  0.6705
    4SAPS   C38  499   6.272   2.895   6.030  0.0781  0.7508 -0.4532
    4SAPS   H8X  500   6.357   2.963   6.010  1.0784 -0.0950  0.7572
    4SAPS   H8Y  501   6.180   2.958   6.028 -0.1706  0.3763 -1.9567
    4SAPS   C39  502   6.258   2.801   5.914  0.3029  0.1659 -0.3540
    4SAPS   H9X  503   6.341   2.727   5.921 -0.0627 -0.0913  2.6573
    4SAPS   H9Y  504   6.274   2.858   5.820 -0.3750  1.9363  0.5610
    4SAPS  C310  505   6.120   2.741   5.911  0.6999  0.3872  0.6469
    4SAPS  H10X  506   6.044   2.821   5.917 -0.9692 -0.9984 -0.9263
    4SAPS  H10Y  507   6.103   2.690   6.008  0.5468  3.2129  2.2153
    4SAPS  C311  508   6.094   2.661   5.776  0.6233 -0.5344 -0.2630
    4SAPS  H11X  509   6.168   2.580   5.761  2.4832  1.0497 -0.0108
    4SAPS  H11Y  510   6.124   2.728   5.693 -0.8102  1.0185  0.4169
    4SAPS  C312  511   5.956   2.609   5.754  0.7898 -0.1844  0.2618
    4SAPS  H12X  512   5.900   2.705   5.750  0.3311 -0.4191  0.7796
    4SAPS  H12Y  513   5.919   2.546   5.838  1.0631  1.5414  1.7355
    4SAPS  C313  514   5.937   2.535   5.617  0.8444  0.4916 -0.0686
    4SAPS  H13X  515   6.013   2.454   5.613  0.6042  0.2922 -0.8238
    4SAPS  H13Y  516   5.954   2.608   5.536  0.1029  0.2103 -0.4888
    4SAPS  C314  517   5.795   2.468   5.602  0.1173 -0.5256  0.0985
    4SAPS  H14X  518   5.716   2.520   5.661 -0.1101 -2.1887  1.3379
    4SAPS  H14Y  519   5.795   2.366   5.646 -1.8291 -1.6230 -2.2700
    4SAPS  C315  520   5.752   2.450   5.454 -0.5251  0.4806  0.2534
    4SAPS  H15X  521   5.819   2.373   5.410 -0.7041  0.8083 -0.6111
    4SAPS  H15Y  522   5.760   2.542   5.392 -1.9198 -1.1157 -2.4863
    4SAPS  C316  523   5.609   2.401   5.447 -0.4627  0.7355  0.2230
    4SAPS  H16X  524   5.609   2.309   5.509 -0.3958 -0.0363 -0.8950
    4SAPS  H16Y  525   5.578   2.375   5.343  0.9167 -0.0393 -0.0171
    4SAPS  C317  526   5.508   2.514   5.496 -0.3467  0.5363  1.3758
    4SAPS  H17X  527   5.524   2.604   5.432  1.3587 -0.2458  0.6430
    4SAPS  H17Y  528   5.524   2.534   5.604  0.2633 -2.4824  1.9134
    4SAPS  C318  529   5.368   2.464   5.463  0.0583  0.7781 -0.1600
    4SAPS  H18X  530   5.363   2.425   5.359  0.8271  0.9643 -0.2730
    4SAPS  H18Y  531   5.284   2.534   5.485 -0.8810 -0.3485 -0.0601
    4SAPS  H18Z  532   5.345   2.383   5.535  0.1407  0.5391 -0.4016
    5SAPS     N  533   3.089   2.705   7.219 -0.0791  0.1253 -1.1116
    5SAPS   HN1  534   2.996   2.672   7.250  0.1764 -0.1692 -0.6586
    5SAPS   HN2  535   3.068   2.761   7.133 -0.8920 -0.3638 -1.2440
    5SAPS   HN3  536   3.148   2.624   7.191  0.5830  0.1576  0.1440
    5SAPS   C12  537   3.137   2.788   7.332  0.5572  0.2938  0.0142
    5SAPS  H12A  538   3.057   2.855   7.357 -1.0198 -0.0483 -3.5318
    5SAPS   C13  539   3.175   2.710   7.460 -0.7132 -0.4167 -0.0668
    5SAPS  O13A  540   3.167   2.585   7.458  0.2537 -0.2507 -0.5076
    5SAPS  O13B  541   3.194   2.777   7.563  0.3677  0.0093  0.0647
    5SAPS   C11  542   3.261   2.870   7.288  0.5905  0.5540 -0.1676
    5SAPS  H11A  543   3.341   2.793   7.277  0.3587  0.5390 -2.0105
    5SAPS  H11B  544   3.299   2.935   7.370  0.3111  1.7474 -0.9605
    5SAPS     P  545   3.161   3.073   7.184 -0.2960 -0.1434  0.1790
    5SAPS   O13  546   3.025   3.041   7.132  0.6506  0.4154  0.0593
    5SAPS   O14  547   3.179   3.131   7.319 -0.1148 -0.5331  0.4128
    5SAPS   O12  548   3.250   2.944   7.172  0.2990  0.4212  0.7686
    5SAPS   O11  549   3.229   3.176   7.083 -0.8502 -0.2403  0.2646
    5SAPS    C1  550   3.324   3.139   6.977  0.1961 -0.8304 -0.5362
    5SAPS    HA  551   3.403   3.217   6.973  2.2671 -2.8498 -0.9898
    5SAPS    HB  552   3.381   3.048   7.005  1.1451 -0.1063 -0.0462
    5SAPS    C2  553   3.261   3.146   6.837 -0.0425  0.4141  0.3080
    5SAPS    HS  554   3.331   3.109   6.760 -0.7310 -2.0475  0.7760
    5SAPS   O21  555   3.210   3.277   6.798 -0.2158  0.3587 -0.0380
    5SAPS   C21  556   3.298   3.370   6.773  0.3588 -0.0511 -0.6505
    5SAPS   O22  557   3.420   3.353   6.780  0.0189  0.7058 -1.0442
    5SAPS   C22  558   3.223   3.502   6.751 -0.0738  0.1149 -0.6780
    5SAPS   H2R  559   3.134   3.499   6.684  1.0398  2.5341 -2.4110
    5SAPS   H2S  560   3.193   3.533   6.853  0.8657  0.0586 -0.3780
    5SAPS    C3  561   3.141   3.038   6.829 -0.0388 -0.9103 -0.0031
    5SAPS    HX  562   3.068   3.097   6.887 -0.6985 -1.7162  0.0130
    5SAPS    HY  563   3.180   2.944   6.874 -1.3350 -1.4580  0.0175
    5SAPS   O31  564   3.102   3.009   6.689 -0.0883  0.3587  0.2321
    5SAPS   C31  565   3.003   3.091   6.638  0.3830 -0.3570 -0.0911
    5SAPS   O32  566   2.944   3.174   6.700 -1.1768 -0.1132 -0.5096
    5SAPS   C32  567   2.975   3.066   6.494 -0.1543 -0.3693  0.3776
    5SAPS   H2X  568   2.872   3.026   6.485  0.1007 -1.1171  0.6767
    5SAPS   H2Y  569   3.023   2.975   6.452 -1.7432 -1.9794  1.8388
    5SAPS   C23  570   3.309   3.613   6.697 -1.1930 -0.0902  0.0485
    5SAPS   H3R  571   3.402   3.619   6.757 -0.2437 -1.6075 -1.2010
    5SAPS   H3S  572   3.264   3.714   6.711 -0.2309  0.3033  0.3651
    5SAPS   C24  573   3.361   3.602   6.552 -0.1454 -0.8806 -0.2907
    5SAPS   H4R  574   3.410   3.503   6.544  0.8076 -0.2968 -2.2846
    5SAPS   H4S  575   3.430   3.687   6.532  1.3431 -1.4496  1.9732
    5SAPS   C25  576   3.245   3.598   6.461  0.4647  0.0620 -0.3884
    5SAPS   H5R  577   3.155   3.645   6.503 -2.3386 -3.5712 -1.8379
    5SAPS   C26  578   3.225   3.527   6.352 -0.0265 -1.0119  0.6467
    5SAPS   H6R  579   3.124   3.532   6.308  0.4176  0.7875 -0.2598
    5SAPS   C27  580   3.315   3.440   6.266 -0.2222  0.9642 -0.3148
    5SAPS   H7R  581   3.251   3.353   6.239 -0.6138  0.7185  1.2727
    5SAPS   H7S  582   3.393   3.405   6.337 -1.6358 -0.2940  0.6797
    5SAPS   C28  583   3.368   3.512   6.144  0.5912 -0.7015  0.1182
    5SAPS   H8R  584   3.378   3.620   6.156 -0.2376 -0.5270 -0.6305
    5SAPS   C29  585   3.415   3.451   6.031 -0.2832 -0.0196  1.2645
    5SAPS   H9R  586   3.440   3.508   5.940 -0.1769 -1.0282  0.6402
    5SAPS  C210  587   3.394   3.302   6.018 -0.9422 -0.3813  0.3686
    5SAPS  H10R  588   3.289   3.273   6.040 -0.9129 -0.7491  0.0341
    5SAPS  H10S  589   3.454   3.251   6.096 -0.3571  0.5710  0.5594
    5SAPS  C211  590   3.434   3.259   5.880 -0.7945 -0.5033 -0.3144
    5SAPS  H11R  591   3.357   3.276   5.803 -0.1980 -3.4330 -1.7179
    5SAPS  C212  592   3.550   3.191   5.851  0.5042 -0.0087 -0.3727
    5SAPS  H12R  593   3.575   3.182   5.744 -1.9669 -1.1523 -0.9346
    5SAPS  C213  594   3.648   3.131   5.944  0.8875  0.1732  0.1018
    5SAPS  H13R  595   3.720   3.072   5.885 -0.0930  1.0932 -2.1328
    5SAPS  H13S  596   3.606   3.056   6.015  0.8485 -1.9183 -2.0066
    5SAPS  C214  597   3.729   3.231   6.018 -0.5575  0.2420 -0.0866
    5SAPS  H14R  598   3.709   3.337   5.998 -0.1050  0.9071  2.5884
    5SAPS  C215  599   3.832   3.209   6.103  0.9676 -0.5188  0.1618
    5SAPS  H15R  600   3.881   3.292   6.156  0.7442 -0.0735 -0.3307
    5SAPS  C216  601   3.886   3.072   6.128 -0.6340  0.4256 -0.5502
    5SAPS  H16R  602   3.991   3.059   6.093  0.0169  0.7533  1.2068
    5SAPS  H16S  603   3.814   3.001   6.080 -2.2560  2.3395 -1.0726
    5SAPS  C217  604   3.898   3.042   6.279 -0.1290  0.7297 -0.2895
    5SAPS  H17R  605   3.803   3.062   6.334 -0.9097 -0.7064 -1.0635
    5SAPS  H17S  606   3.965   3.114   6.331 -2.5400  2.0430  1.1695
    5SAPS  C218  607   3.943   2.890   6.309 -0.5416 -0.0759  0.2961
    5SAPS  H18R  608   4.012   2.856   6.229 -0.5259 -1.0312  0.6961
    5SAPS  H18S  609   3.856   2.824   6.284  0.8696 -0.8727 -3.0843
    5SAPS  C219  610   4.018   2.874   6.442 -0.4182  0.3296 -1.0829
    5SAPS  H19R  611   4.094   2.952   6.464  1.9566 -1.9629 -0.6898
    5SAPS  H19S  612   4.076   2.780   6.452  1.6813  1.7604  1.3121
    5SAPS  C220  613   3.914   2.881   6.557  0.1650 -0.3200 -0.6794
    5SAPS  H20R  614   3.825   2.815   6.542 -1.6273  1.6815  0.5316
    5SAPS  H20S  615   3.869   2.981   6.573  0.3304  0.1135 -2.6721
    5SAPS  H20T  616   3.966   2.850   6.650  1.9556  0.5499 -1.3458
    5SAPS   C33  617   2.983   3.192   6.402  0.0057 -0.0336 -0.1284
    5SAPS   H3X  618   3.087   3.230   6.400 -0.1808  0.5076  0.1149
    5SAPS   H3Y  619   2.927   3.276   6.450 -1.4446 -0.5757 -0.8310
    5SAPS   C34  620   2.940   3.176   6.255  0.0179  0.5548  0.2465
    5SAPS   H4X  621   2.847   3.115   6.256  0.7424 -0.6035  1.7824
    5SAPS   H4Y  622   3.013   3.113   6.200 -0.3165 -1.6254  2.1083
    5SAPS   C35  623   2.928   3.309   6.174  0.2305  0.1312 -0.1750
    5SAPS   H5X  624   3.022   3.368   6.165  0.0737  0.5482  0.8412
    5SAPS   H5Y  625   2.857   3.379   6.221  1.3548  0.8219  0.5522
    5SAPS   C36  626   2.871   3.296   6.037  0.3082 -0.3728  0.1999
    5SAPS   H6X  627   2.831   3.393   6.000 -0.6853 -0.9630 -0.3248
    5SAPS   H6Y  628   2.791   3.220   6.028  0.4493 -0.6405  1.1092
    5SAPS   C37  629   2.976   3.262   5.929  0.3609  0.4697 -0.7871
    5SAPS   H7X  630   3.034   3.173   5.962  0.2896  0.2242 -1.3227
    5SAPS   H7Y  631   3.034   3.356   5.917 -0.5560  1.2167  0.3284
    5SAPS   C38  632   2.905   3.226   5.797  0.1015  0.0842 -0.2310
    5SAPS   H8X  633   2.837   3.312   5.785  1.4834  1.2845  0.3027
    5SAPS   H8Y  634   2.847   3.134   5.819 -0.8606  0.7757  0.1563
    5SAPS   C39  635   3.004   3.196   5.685 -0.5635  0.3833  0.2700
    5SAPS   H9X  636   3.054   3.097   5.691  1.0873  1.0259 -1.8654
    5SAPS   H9Y  637   3.077   3.278   5.701  0.3569 -0.2336 -0.7049
    5SAPS  C310  638   2.933   3.213   5.551 -0.4005  0.6122  0.1666
    5SAPS  H10X  639   2.916   3.322   5.539 -0.3818  0.4972 -1.0870
    5SAPS  H10Y  640   2.844   3.146   5.563  1.0764 -0.9964  3.2630
    5SAPS  C311  641   3.011   3.172   5.427 -0.2656  0.4519  0.0135
    5SAPS  H11X  642   3.064   3.078   5.453  0.7611  1.8247  3.4111
    5SAPS  H11Y  643   3.089   3.246   5.401  0.4201 -0.3472 -0.2371
    5SAPS  C312  644   2.922   3.148   5.304 -0.0678 -0.5340 -0.0353
    5SAPS  H12X  645   2.872   3.237   5.261 -0.3286 -0.2607  0.8271
    5SAPS  H12Y  646   2.846   3.075   5.337 -1.8708  1.4330  0.3693
    5SAPS  C313  647   3.004   3.086   5.194  0.2912 -0.0405  0.4223
    5SAPS  H13X  648   3.038   2.988   5.232  0.1007 -0.2932 -0.0539
    5SAPS  H13Y  649   3.094   3.151   5.181  0.8748 -0.7616  0.7923
    5SAPS  C314  650   2.925   3.061   5.064  0.0152  0.9997 -0.0670
    5SAPS  H14X  651   2.895   3.154   5.012  1.1870  0.0811 -2.5224
    5SAPS  H14Y  652   2.826   3.012   5.081  0.4430  0.2880  0.4405
    5SAPS  C315  653   3.010   2.976   4.972 -0.9508 -0.4769 -0.2414
    5SAPS  H15X  654   3.056   2.891   5.029  2.1613  2.3951  1.9774
    5SAPS  H15Y  655   3.097   3.036   4.938 -1.2558 -0.2436 -0.6043
    5SAPS  C316  656   2.942   2.913   4.850  0.0367  0.4353  0.5810
    5SAPS  H16X  657   2.881   2.823   4.876  0.8327  0.1893  1.6676
    5SAPS  H16Y  658   3.029   2.871   4.794 -0.2517  1.0656 -0.3636
    5SAPS  C317  659   2.878   3.023   4.758 -0.1775  0.2794 -0.6794
    5SAPS  H17X  660   2.955   3.098   4.727 -0.8034  1.3774  0.3269
    5SAPS  H17Y  661   2.800   3.068   4.822 -0.6631 -1.6181  0.1148
    5SAPS  C318  662   2.807   2.960   4.638  0.1154 -0.0915 -0.0493
    5SAPS  H18X  663   2.742   3.036   4.589  0.6802  1.0706  0.9731
    5SAPS  H18Y  664   2.745   2.872   4.664  0.7394 -0.6208 -0.3398
    5SAPS  H18Z  665   2.884   2.930   4.563  0.6847 -0.2460  0.5909
    6SAPS     N  666   6.631   4.167   7.223 -0.1186 -0.1374  0.0512
    6SAPS   HN1  667   6.544   4.207   7.263  0.5043  0.4223  0.8731
    6SAPS   HN2  668   6.710   4.235   7.226 -0.3600  0.1411  0.1862
    6SAPS   HN3  669   6.616   4.147   7.122  1.7832 -2.2591  0.1104
    6SAPS   C12  670   6.656   4.038   7.302 -0.2260  0.3418  0.4536
    6SAPS  H12A  671   6.736   3.990   7.247 -0.1737 -0.0489  0.8627
    6SAPS   C13  672   6.703   4.044   7.449  0.2440 -0.0270 -0.2228
    6SAPS  O13A  673   6.723   4.158   7.505  0.0148 -0.0806 -0.1675
    6SAPS  O13B  674   6.749   3.939   7.506  0.1622  0.0829 -0.3794
    6SAPS   C11  675   6.519   3.963   7.278 -0.2698 -0.3934  0.0131
    6SAPS  H11A  676   6.450   4.027   7.337  2.4643  0.3605  2.6315
    6SAPS  H11B  677   6.524   3.870   7.338 -0.0596  0.1757  0.9054
    6SAPS     P  678   6.483   3.794   7.083 -0.1322  0.2138 -0.3778
    6SAPS   O13  679   6.602   3.790   6.996 -0.0359 -0.0114  0.1663
    6SAPS   O14  680   6.482   3.689   7.189  0.2136  0.9349  0.9060
    6SAPS   O12  681   6.479   3.942   7.143  0.0324  0.8881 -0.0969
    6SAPS   O11  682   6.346   3.775   7.001 -0.1525  0.3151  0.0306
    6SAPS    C1  683   6.226   3.832   7.057 -0.1167 -0.1949 -0.9402
    6SAPS    HA  684   6.185   3.769   7.139  2.5336  1.1941  1.6425
    6SAPS    HB  685   6.247   3.936   7.090  2.0766 -1.0232  0.4946
    6SAPS    C2  686   6.113   3.845   6.947  0.8159 -0.4921 -0.7526
    6SAPS    HS  687   6.020   3.894   6.985 -0.2441 -1.2402 -2.2640
    6SAPS   O21  688   6.076   3.715   6.908 -0.3392 -0.3625 -0.0923
    6SAPS   C21  689   5.991   3.654   6.994  0.0562 -0.0745 -0.5054
    6SAPS   O22  690   5.938   3.705   7.095  0.3908  0.4288 -0.0589
    6SAPS   C22  691   5.938   3.522   6.927 -0.6168 -0.6252  0.4424
    6SAPS   H2R  692   5.878   3.557   6.840  3.7698  1.1842 -2.1478
    6SAPS   H2S  693   6.028   3.478   6.880  1.0136  2.7502  0.1526
    6SAPS    C3  694   6.169   3.924   6.827  0.4828  0.1975 -0.5638
    6SAPS    HX  695   6.268   3.884   6.798 -0.2500 -0.7222 -1.9483
    6SAPS    HY  696   6.181   4.032   6.852  1.4073 -0.2106  0.8556
    6SAPS   O31  697   6.084   3.903   6.712 -0.4712  0.3128  0.1474
    6SAPS   C31  698   6.007   4.017   6.678 -0.0829  0.1691  0.3519
    6SAPS   O32  699   6.015   4.123   6.736  0.7290  0.4783  0.0035
    6SAPS   C32  700   5.905   3.979   6.567 -0.0115  0.3919  0.5309
    6SAPS   H2X  701   5.801   3.991   6.606 -0.1796 -0.4777  0.3701
    6SAPS   H2Y  702   5.918   3.876   6.529 -0.8424 -0.5925  2.7490
    6SAPS   C23  703   5.859   3.430   7.021  0.3667 -0.3164 -0.5244
    6SAPS   H3R  704   5.807   3.483   7.103  1.6021 -0.4479  0.3744
    6SAPS   H3S  705   5.941   3.380   7.077 -0.0436 -1.8097 -1.2151
    6SAPS   C24  706   5.775   3.315   6.961 -0.0477 -0.1353  0.1219
    6SAPS   H4R  707   5.708   3.278   7.041  0.0347 -2.1079 -0.6477
    6SAPS   H4S  708   5.853   3.238   6.941  0.8617  0.9879 -0.8011
    6SAPS   C25  709   5.698   3.353   6.841 -0.3271 -1.0093  0.0247
    6SAPS   H5R  710   5.612   3.419   6.860  1.3131  0.6576  2.2908
    6SAPS   C26  711   5.727   3.325   6.709  0.0200 -0.8658 -0.4628
    6SAPS   H6R  712   5.659   3.372   6.636  1.3346  2.1296  0.0926
    6SAPS   C27  713   5.839   3.239   6.660 -0.7155 -0.1099  0.2789
    6SAPS   H7R  714   5.904   3.209   6.745 -3.0444 -0.2922  2.0992
    6SAPS   H7S  715   5.904   3.298   6.592  0.0714  0.5155  1.5383
    6SAPS   C28  716   5.780   3.113   6.604  0.5988  0.5671  0.2960
    6SAPS   H8R  717   5.707   3.072   6.676  1.8321  0.1388  1.3357
    6SAPS   C29  718   5.817   3.047   6.493 -0.1949  0.0675  0.1618
    6SAPS   H9R  719   5.754   2.966   6.453  0.7892  0.6308 -2.7518
    6SAPS  C210  720   5.931   3.084   6.398  0.2412 -0.3246 -0.3343
    6SAPS  H10R  721   6.010   3.136   6.456  1.0509  0.2729 -1.9042
    6SAPS  H10S  722   5.890   3.165   6.332 -1.2800 -2.1717 -1.7673
    6SAPS  C211  723   5.968   2.970   6.308 -0.7179 -0.4339 -0.6236
    6SAPS  H11R  724   6.046   2.907   6.353 -0.3688  0.0957 -0.4872
    6SAPS  C212  725   5.941   2.954   6.179  0.1666 -0.3133  0.8754
    6SAPS  H12R  726   5.968   2.858   6.133 -3.1580 -1.4276  0.9818
    6SAPS  C213  727   5.852   3.033   6.084  0.1510 -0.4931 -1.1072
    6SAPS  H13R  728   5.781   3.100   6.137  0.9108 -0.3489 -0.2341
    6SAPS  H13S  729   5.785   2.969   6.023 -0.4112 -0.1403 -0.8774
    6SAPS  C214  730   5.961   3.102   6.000  0.5850 -1.0110  0.0054
    6SAPS  H14R  731   6.028   3.171   6.055  0.3168 -0.4866 -0.3235
    6SAPS  C215  732   5.973   3.086   5.867 -0.1131  0.4032  0.2925
    6SAPS  H15R  733   6.032   3.161   5.813 -0.7569  0.5161 -0.2758
    6SAPS  C216  734   5.898   2.990   5.781  0.8295  0.1881  0.1921
    6SAPS  H16R  735   5.838   2.911   5.830 -0.8392  0.2446 -1.5882
    6SAPS  H16S  736   5.959   2.930   5.710 -0.4958 -1.1682  0.1606
    6SAPS  C217  737   5.808   3.067   5.684 -0.4061  0.3864  0.1035
    6SAPS  H17R  738   5.864   3.136   5.616  1.7043 -0.7761  0.5950
    6SAPS  H17S  739   5.736   3.128   5.743 -1.1912  0.2102 -0.6450
    6SAPS  C218  740   5.731   2.974   5.589 -0.1666 -0.1157 -0.0284
    6SAPS  H18R  741   5.680   2.895   5.649 -3.5742  1.2089 -0.9523
    6SAPS  H18S  742   5.806   2.929   5.520 -0.2951  1.0295 -0.9318
    6SAPS  C219  743   5.626   3.039   5.500  0.8246  0.0205  0.2341
    6SAPS  H19R  744   5.659   3.140   5.466 -1.8676  0.7211 -0.5295
    6SAPS  H19S  745   5.536   3.072   5.555  1.4696  2.1968  0.1005
    6SAPS  C220  746   5.585   2.953   5.378 -0.0034  0.2851  0.7799
    6SAPS  H20R  747   5.528   3.018   5.307 -1.5391  1.0428  2.6061
    6SAPS  H20S  748   5.523   2.862   5.394 -0.4071 -0.2977 -3.0129
    6SAPS  H20T  749   5.678   2.910   5.336 -0.3879  1.0474 -0.9543
    6SAPS   C33  750   5.923   4.078   6.449 -0.0923 -0.5273 -0.2647
    6SAPS   H3X  751   6.034   4.083   6.436 -0.1135  2.3829  0.1693
    6SAPS   H3Y  752   5.898   4.181   6.480  1.6862  0.3264 -1.5002
    6SAPS   C34  753   5.864   4.039   6.317 -0.1440 -0.5480  0.5461
    6SAPS   H4X  754   5.757   4.014   6.332 -0.7056 -0.1543 -2.1817
    6SAPS   H4Y  755   5.919   3.952   6.274 -1.4027 -1.9062  1.5579
    6SAPS   C35  756   5.859   4.151   6.211 -0.4861 -0.9050 -0.2540
    6SAPS   H5X  757   5.963   4.181   6.185 -0.8754 -0.8068 -1.8190
    6SAPS   H5Y  758   5.813   4.244   6.248  2.7229  1.9313 -2.7528
    6SAPS   C36  759   5.779   4.122   6.079  0.3524 -0.1357  0.1089
    6SAPS   H6X  760   5.777   4.212   6.013  0.3704 -1.8797 -2.3808
    6SAPS   H6Y  761   5.674   4.106   6.112  0.1878 -0.4151 -0.5375
    6SAPS   C37  762   5.838   4.005   6.003  0.3494  0.0291  0.4408
    6SAPS   H7X  763   5.839   3.909   6.059 -2.3580 -0.3865 -0.0723
    6SAPS   H7Y  764   5.939   4.035   5.968 -0.5652  0.5725 -1.9677
    6SAPS   C38  765   5.761   3.972   5.872  0.6605  0.2724 -0.7746
    6SAPS   H8X  766   5.816   3.888   5.825  0.9983 -0.1131  0.2798
    6SAPS   H8Y  767   5.763   4.059   5.804  3.3255  1.3674  0.5683
    6SAPS   C39  768   5.615   3.925   5.890  0.3714 -0.2654 -0.1630
    6SAPS   H9X  769   5.553   3.997   5.949  0.7492  0.0444 -0.1386
    6SAPS   H9Y  770   5.620   3.833   5.952  0.8414  1.2254  2.1547
    6SAPS  C310  771   5.538   3.903   5.756 -0.5359 -0.1575 -0.4138
    6SAPS  H10X  772   5.476   3.813   5.779 -0.7730  0.5433  2.0517
    6SAPS  H10Y  773   5.607   3.893   5.670  0.9097  1.5135  0.4771
    6SAPS  C311  774   5.444   4.018   5.708 -0.2639  0.4930 -0.9770
    6SAPS  H11X  775   5.387   4.041   5.800  2.0662  1.4063  0.3157
    6SAPS  H11Y  776   5.376   3.991   5.624  0.8719 -1.0462 -1.4455
    6SAPS  C312  777   5.514   4.146   5.668  0.2067 -0.2820 -0.3056
    6SAPS  H12X  778   5.589   4.171   5.745  0.6216  1.5219 -1.2241
    6SAPS  H12Y  779   5.439   4.228   5.668  0.0655 -0.4119  0.0367
    6SAPS  C313  780   5.579   4.137   5.529 -0.2837  0.0643  0.2271
    6SAPS  H13X  781   5.496   4.137   5.454 -1.8897 -0.8127  1.9334
    6SAPS  H13Y  782   5.638   4.043   5.523  0.3221  0.4613 -0.1835
    6SAPS  C314  783   5.667   4.263   5.514 -0.0478 -0.1139 -0.1830
    6SAPS  H14X  784   5.743   4.279   5.593 -0.7599 -0.9583  0.7040
    6SAPS  H14Y  785   5.616   4.359   5.539  1.0930  0.0850  1.5720
    6SAPS  C315  786   5.718   4.279   5.376 -0.4264 -0.5745  0.7881
    6SAPS  H15X  787   5.633   4.285   5.305  0.4584  1.7662 -0.1706
    6SAPS  H15Y  788   5.778   4.191   5.347  2.8376  1.5041  0.7431
    6SAPS  C316  789   5.820   4.398   5.374 -0.2044 -0.2553 -0.0426
    6SAPS  H16X  790   5.883   4.382   5.464 -1.7603  2.5245  1.6789
    6SAPS  H16Y  791   5.757   4.485   5.401  2.1830  1.2581  0.9266
    6SAPS  C317  792   5.884   4.421   5.233 -0.2570  0.5146 -0.0632
    6SAPS  H17X  793   5.929   4.522   5.233 -1.0886  0.8981 -1.2929
    6SAPS  H17Y  794   5.816   4.393   5.150  0.1419 -3.1595  0.6486
    6SAPS  C318  795   6.001   4.326   5.212 -0.5365  0.9974  0.1246
    6SAPS  H18X  796   5.974   4.219   5.217  0.1525  0.7802 -0.5284
    6SAPS  H18Y  797   6.063   4.349   5.302  1.3447  0.4622 -0.9716
    6SAPS  H18Z  798   6.053   4.346   5.116  4.1352 -0.9075  1.9702
    7SAPS     N  799   4.521   2.091   7.589  0.2475 -0.6957  0.4960
    7SAPS   HN1  800   4.457   2.012   7.568 -1.1860  0.3651  0.7071
    7SAPS   HN2  801   4.477   2.180   7.558  2.6316  0.1186 -0.8070
    7SAPS   HN3  802   4.613   2.075   7.543  1.8181 -1.2540  3.5402
    7SAPS   C12  803   4.538   2.104   7.734  0.5765  0.0016 -0.4910
    7SAPS  H12A  804   4.600   2.023   7.771  0.6390  0.6056  0.7868
    7SAPS   C13  805   4.623   2.226   7.758  0.5157 -0.3662 -0.1519
    7SAPS  O13A  806   4.703   2.265   7.671  0.3163 -0.1192  0.8284
    7SAPS  O13B  807   4.637   2.263   7.879  0.3820 -0.2303 -0.3554
    7SAPS   C11  808   4.398   2.120   7.797  0.8006 -0.1375  0.3126
    7SAPS  H11A  809   4.340   2.197   7.743 -1.1491 -0.2677  2.0828
    7SAPS  H11B  810   4.409   2.166   7.898 -1.2732  1.5586 -0.1886
    7SAPS     P  811   4.186   1.986   7.715 -0.2998  0.3328 -0.1115
    7SAPS   O13  812   4.119   1.862   7.768 -0.3143  0.4830  0.6135
    7SAPS   O14  813   4.105   2.109   7.719 -0.1085 -0.1047  0.0544
    7SAPS   O12  814   4.314   2.003   7.805  0.0571  0.3798  0.1106
    7SAPS   O11  815   4.247   1.966   7.575  0.5452 -0.1934 -0.3552
    7SAPS    C1  816   4.167   1.910   7.464 -0.2261  0.6632 -0.2026
    7SAPS    HA  817   4.059   1.908   7.490 -0.8847  2.8237 -2.4255
    7SAPS    HB  818   4.176   1.958   7.365 -1.2850 -3.3950 -2.4739
    7SAPS    C2  819   4.209   1.761   7.432 -0.8044 -0.0824 -0.0485
    7SAPS    HS  820   4.264   1.735   7.525 -0.3753  2.5578  0.5167
    7SAPS   O21  821   4.305   1.762   7.320  0.3128 -0.4292 -0.4650
    7SAPS   C21  822   4.431   1.799   7.350 -0.3061 -0.0178 -0.2328
    7SAPS   O22  823   4.466   1.849   7.458  0.2032  0.3963  0.4418
    7SAPS   C22  824   4.525   1.772   7.232 -0.5754 -0.6548  0.4167
    7SAPS   H2R  825   4.560   1.668   7.247  2.3637  0.0686 -0.6636
    7SAPS   H2S  826   4.480   1.788   7.132  2.3614  1.6761 -0.7160
    7SAPS    C3  827   4.087   1.663   7.408  0.4248 -0.4121  0.2803
    7SAPS    HX  828   4.003   1.685   7.478 -0.6135  1.2139 -1.3660
    7SAPS    HY  829   4.119   1.558   7.425  1.2350 -0.1850  0.1973
    7SAPS   O31  830   4.018   1.697   7.287 -0.1252  0.2064  0.4833
    7SAPS   C31  831   4.049   1.622   7.181 -0.5050  0.7354 -0.6306
    7SAPS   O32  832   4.116   1.522   7.179 -0.3241 -0.3774  0.5082
    7SAPS   C32  833   3.982   1.694   7.066 -0.4843 -0.7204  0.4223
    7SAPS   H2X  834   4.034   1.790   7.043 -0.4289 -1.0663 -0.9634
    7SAPS   H2Y  835   3.877   1.715   7.096 -0.2360 -0.6174  1.2528
    7SAPS   C23  836   4.649   1.858   7.227 -0.9612  0.1133 -0.5184
    7SAPS   H3R  837   4.737   1.805   7.184  1.1437  3.5578 -0.8155
    7SAPS   H3S  838   4.678   1.869   7.334  1.3945 -0.5027 -1.0234
    7SAPS   C24  839   4.617   1.984   7.151  0.6759 -0.3687 -0.0433
    7SAPS   H4R  840   4.671   2.072   7.193  0.8149 -0.1261 -0.7178
    7SAPS   H4S  841   4.514   2.024   7.164  0.2404 -1.1012 -1.1030
    7SAPS   C25  842   4.631   1.980   7.001  0.2510 -0.9939 -0.0588
    7SAPS   H5R  843   4.739   1.981   6.977  0.3196  2.3069 -0.0217
    7SAPS   C26  844   4.542   1.995   6.898  0.1422  0.2463 -1.1596
    7SAPS   H6R  845   4.585   1.997   6.797 -1.3595  1.1157 -1.8185
    7SAPS   C27  846   4.390   1.999   6.899  0.8360 -0.8453  0.4781
    7SAPS   H7R  847   4.362   2.076   6.824 -2.5665 -0.1389  2.2268
    7SAPS   H7S  848   4.357   2.045   6.995 -0.6371  0.0797 -0.4215
    7SAPS   C28  849   4.304   1.872   6.871  0.1605 -0.4721 -0.2448
    7SAPS   H8R  850   4.294   1.803   6.956 -1.2011 -0.7879 -0.6396
    7SAPS   C29  851   4.257   1.824   6.756  0.2189 -0.2185 -0.4171
    7SAPS   H9R  852   4.202   1.728   6.756  2.0707 -1.3868 -2.2348
    7SAPS  C210  853   4.250   1.892   6.620 -0.1750  0.0416  0.1912
    7SAPS  H10R  854   4.301   1.837   6.538  1.7319  1.5266  0.3016
    7SAPS  H10S  855   4.312   1.984   6.611  1.0531 -0.9728 -3.1033
    7SAPS  C211  856   4.110   1.942   6.595 -0.0863 -0.1174 -0.0349
    7SAPS  H11R  857   4.069   1.998   6.681  0.5273  2.7288 -1.4574
    7SAPS  C212  858   4.030   1.919   6.489  0.0195  0.1882  0.0152
    7SAPS  H12R  859   3.932   1.968   6.482  0.1542  0.2741 -1.7890
    7SAPS  C213  860   4.078   1.839   6.368 -0.3619  0.5413 -0.1256
    7SAPS  H13R  861   4.050   1.732   6.377 -3.0049  1.3176  2.3186
    7SAPS  H13S  862   4.189   1.838   6.381 -0.4086 -4.9058  2.4754
    7SAPS  C214  863   4.034   1.901   6.239  0.1931  0.4942  0.8708
    7SAPS  H14R  864   4.061   2.007   6.235  2.3545 -0.0490 -1.3545
    7SAPS  C215  865   3.960   1.850   6.140  0.5250  0.0945  0.2703
    7SAPS  H15R  866   3.929   1.915   6.057 -1.6879 -1.9786 -0.6349
    7SAPS  C216  867   3.915   1.711   6.116 -0.4585  0.6071  0.4855
    7SAPS  H16R  868   3.804   1.702   6.115 -0.6246  2.2772  0.7191
    7SAPS  H16S  869   3.947   1.650   6.203 -1.8516  0.5061  0.9617
    7SAPS  C217  870   3.964   1.645   5.978  0.2791 -0.1152  0.3639
    7SAPS  H17R  871   3.941   1.538   5.994 -3.7145  0.7471  1.5970
    7SAPS  H17S  872   4.073   1.650   5.959  0.3073 -0.4927  0.4216
    7SAPS  C218  873   3.881   1.698   5.857  0.3175 -0.8028  0.0182
    7SAPS  H18R  874   3.941   1.785   5.823  0.5073 -0.3224  1.4899
    7SAPS  H18S  875   3.783   1.731   5.898 -0.1452 -2.7993  0.6224
    7SAPS  C219  876   3.881   1.595   5.748 -0.4831  0.5399  0.0720
    7SAPS  H19R  877   3.822   1.507   5.781 -1.2832 -1.1505 -4.9855
    7SAPS  H19S  878   3.990   1.576   5.733 -0.1667  0.5920  2.0498
    7SAPS  C220  879   3.833   1.648   5.611 -0.2295  0.1115  0.2325
    7SAPS  H20R  880   3.811   1.571   5.534 -0.9310  1.8615 -1.4119
    7SAPS  H20S  881   3.910   1.723   5.580  0.9088 -0.5000  1.4587
    7SAPS  H20T  882   3.733   1.696   5.621 -0.7593 -1.0646  0.7548
    7SAPS   C33  883   3.980   1.612   6.939  0.3512  0.0268  0.6193
    7SAPS   H3X  884   3.937   1.513   6.968  0.9618 -0.2974  0.4382
    7SAPS   H3Y  885   4.080   1.607   6.890 -1.0709 -0.5752 -2.5143
    7SAPS   C34  886   3.871   1.669   6.845 -0.2090 -0.4536  0.2576
    7SAPS   H4X  887   3.903   1.774   6.829  1.4999 -1.0324 -0.3241
    7SAPS   H4Y  888   3.766   1.668   6.882 -0.1626 -1.6186  0.3934
    7SAPS   C35  889   3.862   1.602   6.705  0.0400  0.2818  0.2200
    7SAPS   H5X  890   3.802   1.515   6.738  0.0209  0.9589  2.1275
    7SAPS   H5Y  891   3.964   1.576   6.669 -0.4274  0.6607 -1.4149
    7SAPS   C36  892   3.781   1.671   6.603 -0.1542  0.1612 -0.0219
    7SAPS   H6X  893   3.836   1.763   6.573  2.1914  0.2522  3.7752
    7SAPS   H6Y  894   3.687   1.699   6.654 -1.8529 -2.1020 -1.7169
    7SAPS   C37  895   3.748   1.573   6.486 -0.2606 -0.1455 -0.3606
    7SAPS   H7X  896   3.701   1.481   6.526  0.3263 -1.7463 -3.1162
    7SAPS   H7Y  897   3.844   1.531   6.449 -1.1217 -1.9973 -0.6204
    7SAPS   C38  898   3.667   1.640   6.378 -0.4231  0.3549 -0.1716
    7SAPS   H8X  899   3.729   1.725   6.343 -0.0444  0.7764  1.4440
    7SAPS   H8Y  900   3.565   1.671   6.410 -0.8732 -0.6021 -0.6283
    7SAPS   C39  901   3.642   1.537   6.265  0.2952 -0.3235 -0.2735
    7SAPS   H9X  902   3.594   1.445   6.305 -0.3336 -0.0973 -0.4976
    7SAPS   H9Y  903   3.739   1.504   6.222  1.1820  0.0963  1.3436
    7SAPS  C310  904   3.537   1.580   6.151 -0.4223 -0.7820 -0.4938
    7SAPS  H10X  905   3.566   1.680   6.110 -0.7250 -0.7910 -0.7362
    7SAPS  H10Y  906   3.433   1.585   6.189 -0.3357 -2.4010  0.0204
    7SAPS  C311  907   3.531   1.483   6.033  0.0396  0.6958  0.0096
    7SAPS  H11X  908   3.512   1.385   6.083  0.3763 -0.3041 -1.7297
    7SAPS  H11Y  909   3.634   1.471   5.993  0.4468  1.1957  0.8858
    7SAPS  C312  910   3.421   1.524   5.934  0.5364  0.2446 -0.0137
    7SAPS  H12X  911   3.445   1.625   5.896 -0.3677  0.3442 -0.3315
    7SAPS  H12Y  912   3.319   1.519   5.977 -0.7208  0.1809 -2.7911
    7SAPS  C313  913   3.410   1.437   5.809 -0.0907  0.0345 -0.0701
    7SAPS  H13X  914   3.379   1.334   5.836 -1.3509  0.5079  0.3417
    7SAPS  H13Y  915   3.504   1.430   5.751  0.2497  0.6676  0.3884
    7SAPS  C314  916   3.318   1.500   5.698 -0.4789  0.4820 -0.0141
    7SAPS  H14X  917   3.359   1.601   5.676 -1.1117  0.3660 -1.9843
    7SAPS  H14Y  918   3.217   1.523   5.738  0.1183  2.3325  0.5155
    7SAPS  C315  919   3.316   1.407   5.576  0.7590 -0.6083  0.2996
    7SAPS  H15X  920   3.271   1.312   5.613 -0.5455 -0.5623 -1.1118
    7SAPS  H15Y  921   3.417   1.381   5.539 -0.5563 -3.2126 -1.7679
    7SAPS  C316  922   3.234   1.476   5.462 -0.1574  0.3220 -0.0467
    7SAPS  H16X  923   3.303   1.530   5.394  0.0152 -0.0580 -0.1735
    7SAPS  H16Y  924   3.172   1.555   5.510 -0.3621 -0.0954  0.3789
    7SAPS  C317  925   3.150   1.365   5.397 -0.6170 -0.4666 -0.2416
    7SAPS  H17X  926   3.085   1.393   5.311 -1.3890 -0.2234  0.4106
    7SAPS  H17Y  927   3.072   1.318   5.461 -0.2468 -0.7443  0.0128
    7SAPS  C318  928   3.238   1.251   5.349 -0.2890 -0.2146 -0.1837
    7SAPS  H18X  929   3.185   1.187   5.274  0.6512 -0.6964 -0.4439
    7SAPS  H18Y  930   3.261   1.190   5.439  0.5296  2.2493  1.3563
    7SAPS  H18Z  931   3.331   1.292   5.306  0.3212 -0.9727  0.3858
    8SAPS     N  932   5.230   2.161   7.635  0.3189 -0.0391 -0.2466
    8SAPS   HN1  933   5.139   2.211   7.631  1.5379  2.3177 -0.4550
    8SAPS   HN2  934   5.300   2.238   7.639 -2.2023  2.2998  1.7303
    8SAPS   HN3  935   5.251   2.106   7.549  0.2221  0.8409 -0.8501
    8SAPS   C12  936   5.254   2.075   7.750  0.6358 -0.0680  0.1311
    8SAPS  H12A  937   5.361   2.060   7.753  0.3947 -1.8193  1.3534
    8SAPS   C13  938   5.222   2.141   7.885  0.4342  0.4027 -0.0150
    8SAPS  O13A  939   5.162   2.249   7.891 -0.2386 -0.4677  0.3040
    8SAPS  O13B  940   5.223   2.063   7.984  0.5569 -0.1473 -0.6548
    8SAPS   C11  941   5.183   1.945   7.720 -0.0951  0.3267 -0.3681
    8SAPS  H11A  942   5.072   1.951   7.707 -0.0486  0.6743 -0.6171
    8SAPS  H11B  943   5.202   1.881   7.808  0.6181 -2.4779 -2.4079
    8SAPS     P  944   5.351   1.783   7.595 -0.3227 -0.0180  0.1554
    8SAPS   O13  945   5.471   1.839   7.662 -0.1227 -0.0682  0.0311
    8SAPS   O14  946   5.293   1.657   7.642 -0.0046  0.0619 -0.5189
    8SAPS   O12  947   5.241   1.892   7.607  0.3230 -0.0847 -0.2399
    8SAPS   O11  948   5.385   1.771   7.439  0.3446  0.3210  0.0910
    8SAPS    C1  949   5.442   1.661   7.377 -0.2757  0.1843 -0.0351
    8SAPS    HA  950   5.536   1.697   7.330 -2.1441  1.7523 -2.9456
    8SAPS    HB  951   5.469   1.584   7.452 -0.2267  2.3483  2.2773
    8SAPS    C2  952   5.357   1.609   7.260  0.5698 -0.3865  0.3025
    8SAPS    HS  953   5.397   1.510   7.228  0.1742 -0.2341 -0.6883
    8SAPS   O21  954   5.345   1.702   7.159 -0.5177  0.1465 -0.2494
    8SAPS   C21  955   5.453   1.741   7.094 -0.6714  0.3472  0.5088
    8SAPS   O22  956   5.565   1.692   7.094  0.3008 -0.0156 -0.2161
    8SAPS   C22  957   5.418   1.863   7.004 -0.3796 -0.0504  0.3536
    8SAPS   H2R  958   5.370   1.928   7.080 -0.5284 -0.4591  0.6176
    8SAPS   H2S  959   5.513   1.911   6.973 -0.8921  1.9694  1.7497
    8SAPS    C3  960   5.210   1.566   7.300 -0.3801 -0.0070 -0.7038
    8SAPS    HX  961   5.168   1.645   7.366  3.0467  0.6009  0.9565
    8SAPS    HY  962   5.231   1.477   7.364  1.1712  0.4886 -0.5095
    8SAPS   O31  963   5.123   1.526   7.191  0.3604  0.4181  0.5567
    8SAPS   C31  964   5.041   1.619   7.143  0.4822  0.6708 -0.1298
    8SAPS   O32  965   5.033   1.735   7.180  0.3235 -0.2156 -0.6411
    8SAPS   C32  966   4.944   1.564   7.039 -0.0220  0.0876  0.5783
    8SAPS   H2X  967   4.859   1.522   7.098  1.8176  0.3445  3.6433
    8SAPS   H2Y  968   4.991   1.481   6.982  0.3555  1.7756 -1.7109
    8SAPS   C23  969   5.317   1.820   6.893  0.0660 -0.5423 -0.3918
    8SAPS   H3R  970   5.243   1.902   6.877 -1.3295 -2.0455 -2.0567
    8SAPS   H3S  971   5.250   1.737   6.924 -0.3389 -1.6699 -3.9129
    8SAPS   C24  972   5.384   1.790   6.751 -0.2771 -0.0776 -0.2039
    8SAPS   H4R  973   5.465   1.865   6.748  0.0890 -0.3283  1.8983
    8SAPS   H4S  974   5.308   1.815   6.674  1.0727  1.6278 -1.0408
    8SAPS   C25  975   5.435   1.642   6.748  0.7094  0.0585 -0.5190
    8SAPS   H5R  976   5.529   1.623   6.801  1.1321 -0.6325 -1.4842
    8SAPS   C26  977   5.378   1.545   6.673 -0.3683 -0.0013 -0.5143
    8SAPS   H6R  978   5.422   1.445   6.683 -0.7907 -0.1564 -0.1894
    8SAPS   C27  979   5.259   1.560   6.582  0.8159 -0.4398 -0.7871
    8SAPS   H7R  980   5.185   1.623   6.636  1.6107 -1.3987  1.5494
    8SAPS   H7S  981   5.198   1.468   6.570 -0.9264  0.5636  0.0840
    8SAPS   C28  982   5.295   1.623   6.453  0.2540 -0.0727 -0.2283
    8SAPS   H8R  983   5.386   1.686   6.455 -0.3360  0.8236  2.6928
    8SAPS   C29  984   5.231   1.622   6.333 -0.4525 -0.4931 -0.0696
    8SAPS   H9R  985   5.285   1.669   6.249  0.4118  1.6047  1.5537
    8SAPS  C210  986   5.109   1.541   6.315 -0.3999  0.7558 -0.0818
    8SAPS  H10R  987   5.041   1.547   6.402  0.9077 -0.5182  1.0966
    8SAPS  H10S  988   5.150   1.437   6.317 -0.4674  0.7360  1.6872
    8SAPS  C211  989   5.034   1.573   6.184 -0.0915 -0.0635  0.3685
    8SAPS  H11R  990   5.037   1.484   6.118  1.2181  1.0312 -1.1492
    8SAPS  C212  991   4.977   1.683   6.137  0.8333 -0.2426 -0.5494
    8SAPS  H12R  992   4.932   1.671   6.037  1.9020 -2.7325 -0.8263
    8SAPS  C213  993   4.965   1.814   6.209  0.3528 -0.2950  0.0028
    8SAPS  H13R  994   4.956   1.795   6.318  1.2082  1.3735  0.4054
    8SAPS  H13S  995   4.872   1.872   6.188  1.2802  1.5267  0.6848
    8SAPS  C214  996   5.089   1.902   6.185  0.1760 -0.2538 -0.6447
    8SAPS  H14R  997   5.188   1.867   6.217 -0.1478  0.0577  0.7674
    8SAPS  C215  998   5.087   2.019   6.121  0.3860 -0.4814 -1.1802
    8SAPS  H15R  999   5.185   2.062   6.098  0.6867  0.0455  0.9268
    8SAPS  C216 1000   4.972   2.102   6.068  0.4365  0.3178  0.8328
    8SAPS  H16R 1001   4.979   2.212   6.085 -1.5924  1.3611 -3.6564
    8SAPS  H16S 1002   4.882   2.076   6.128 -1.6328  0.5107 -2.0040
    8SAPS  C217 1003   4.945   2.087   5.910 -0.0347  0.0805 -0.0792
    8SAPS  H17R 1004   4.959   1.978   5.892 -0.3487  0.2441 -1.3855
    8SAPS  H17S 1005   5.021   2.146   5.855  1.2843  1.2848  2.8184
    8SAPS  C218 1006   4.803   2.141   5.871 -0.5091  0.0584 -0.1637
    8SAPS  H18R 1007   4.798   2.241   5.920  4.1593  2.1436 -3.1797
    8SAPS  H18S 1008   4.724   2.079   5.918  1.1057 -1.3417  0.8390
    8SAPS  C219 1009   4.790   2.135   5.715  0.2755  0.4399 -1.0749
    8SAPS  H19R 1010   4.788   2.028   5.685  1.8011 -0.5645  2.0108
    8SAPS  H19S 1011   4.878   2.189   5.674  1.5859 -0.0179  0.9733
    8SAPS  C220 1012   4.665   2.208   5.667 -0.4600 -0.0444  1.4797
    8SAPS  H20R 1013   4.661   2.232   5.559 -1.1502 -0.0136  1.5107
    8SAPS  H20S 1014   4.652   2.301   5.727 -1.0526 -0.0363  1.3432
    8SAPS  H20T 1015   4.572   2.149   5.676 -1.1236  0.4272 -1.3429
    8SAPS   C33 1016   4.886   1.685   6.949  0.0095 -0.2040  0.0773
    8SAPS   H3X 1017   4.841   1.757   7.021  1.3049  0.3882  0.3144
    8SAPS   H3Y 1018   4.812   1.630   6.887  1.2949 -1.6344 -0.2266
    8SAPS   C34 1019   4.987   1.733   6.840  0.1444 -0.5756  0.0796
    8SAPS   H4X 1020   5.062   1.651   6.835  0.0277 -0.8518  2.0596
    8SAPS   H4Y 1021   5.033   1.832   6.861 -1.0070 -0.1818  0.8652
    8SAPS   C35 1022   4.936   1.753   6.698 -0.8590  0.3855  0.0422
    8SAPS   H5X 1023   4.872   1.680   6.645  0.3780 -3.5502  3.4447
    8SAPS   H5Y 1024   5.022   1.758   6.628  0.2593 -0.8216  1.2613
    8SAPS   C36 1025   4.876   1.901   6.679 -0.3055  0.6328  0.6898
    8SAPS   H6X 1026   4.947   1.979   6.712  1.7920 -1.2115  0.7697
    8SAPS   H6Y 1027   4.784   1.904   6.741  1.4556  1.5278  3.4653
    8SAPS   C37 1028   4.840   1.934   6.531  0.1704  0.0926  0.3841
    8SAPS   H7X 1029   4.761   1.866   6.494 -2.3611  2.6669  0.6877
    8SAPS   H7Y 1030   4.926   1.931   6.461 -0.4577  1.2914 -0.4766
    8SAPS   C38 1031   4.778   2.075   6.513 -0.5740 -0.6041 -0.3118
    8SAPS   H8X 1032   4.678   2.078   6.561 -0.1082 -0.3777  0.6739
    8SAPS   H8Y 1033   4.745   2.072   6.407  1.0160  0.4367 -0.8652
    8SAPS   C39 1034   4.865   2.189   6.570 -0.4394  0.6365 -0.3656
    8SAPS   H9X 1035   4.971   2.158   6.558 -0.9109 -1.6744  0.8389
    8SAPS   H9Y 1036   4.854   2.192   6.680  1.5839  1.1356 -0.1224
    8SAPS  C310 1037   4.857   2.328   6.497 -0.2200 -0.6563 -0.3956
    8SAPS  H10X 1038   4.921   2.406   6.544 -0.6895  0.8179 -2.0802
    8SAPS  H10Y 1039   4.749   2.353   6.495 -0.7221 -2.6511 -0.1500
    8SAPS  C311 1040   4.910   2.340   6.355  0.0165 -0.1993  0.6029
    8SAPS  H11X 1041   4.894   2.248   6.294 -1.6117  0.3069  0.2057
    8SAPS  H11Y 1042   5.019   2.360   6.347  0.2024 -1.3815 -0.1649
    8SAPS  C312 1043   4.855   2.458   6.273  0.0802  0.1284  0.0144
    8SAPS  H12X 1044   4.921   2.476   6.186 -4.0812 -0.0768 -3.5210
    8SAPS  H12Y 1045   4.835   2.544   6.341 -1.2730 -0.3442  0.2413
    8SAPS  C313 1046   4.726   2.411   6.204 -0.2009  0.5608 -0.2478
    8SAPS  H13X 1047   4.651   2.375   6.278 -1.3359  2.5973 -0.3273
    8SAPS  H13Y 1048   4.745   2.315   6.152 -0.7025  0.6592 -0.6271
    8SAPS  C314 1049   4.666   2.512   6.111  0.2758 -0.5404 -1.2450
    8SAPS  H14X 1050   4.755   2.541   6.052  0.8372  0.2740 -0.0606
    8SAPS  H14Y 1051   4.631   2.602   6.168  1.7209 -0.6282 -0.1483
    8SAPS  C315 1052   4.557   2.465   6.013  0.2686  0.5088 -0.3219
    8SAPS  H15X 1053   4.468   2.459   6.080  1.1346  0.5959  0.8805
    8SAPS  H15Y 1054   4.580   2.362   5.978 -1.2100  0.9062 -2.6863
    8SAPS  C316 1055   4.525   2.558   5.893  0.1529  0.6143  0.9101
    8SAPS  H16X 1056   4.620   2.588   5.845 -0.7067 -1.1509 -2.1323
    8SAPS  H16Y 1057   4.471   2.649   5.928 -1.3208  1.1778 -2.4675
    8SAPS  C317 1058   4.424   2.495   5.787  0.1538 -0.5296  0.0733
    8SAPS  H17X 1059   4.339   2.450   5.844  0.0294 -2.2912 -1.4122
    8SAPS  H17Y 1060   4.473   2.406   5.742 -0.5758 -0.7652 -0.2735
    8SAPS  C318 1061   4.381   2.585   5.673 -0.6221  0.4201  0.1119
    8SAPS  H18X 1062   4.467   2.646   5.638 -0.2627 -0.6878 -0.9945
    8SAPS  H18Y 1063   4.291   2.642   5.703 -0.4428 -0.3411  2.3419
    8SAPS  H18Z 1064   4.363   2.520   5.585  0.3999 -0.2449  0.3719
    9SAPS     N 1065   2.392   0.930   7.734 -0.4879 -0.0397 -0.0623
    9SAPS   HN1 1066   2.385   1.029   7.767 -0.4737  0.6651 -2.0439
    9SAPS   HN2 1067   2.494   0.906   7.736 -0.9614 -2.2853 -0.2623
    9SAPS   HN3 1068   2.353   0.932   7.638  2.8555 -1.1031 -1.5973
    9SAPS   C12 1069   2.303   0.840   7.812 -0.4632 -0.3426 -0.0656
    9SAPS  H12A 1070   2.317   0.743   7.768 -0.3663 -0.6971  0.7409
    9SAPS   C13 1071   2.325   0.837   7.961  0.0885 -0.4883  0.1875
    9SAPS  O13A 1072   2.417   0.909   8.006  0.0181 -0.1155  0.0309
    9SAPS  O13B 1073   2.287   0.736   8.024 -0.6071 -0.0290  0.5152
    9SAPS   C11 1074   2.152   0.875   7.785 -0.5786 -0.2732  0.1556
    9SAPS  H11A 1075   2.115   0.963   7.842 -1.4405  1.2271 -2.5029
    9SAPS  H11B 1076   2.103   0.782   7.820  0.6609 -2.1640 -2.7846
    9SAPS     P 1077   2.086   1.027   7.589  0.5777  0.2845  0.5436
    9SAPS   O13 1078   1.985   1.100   7.670 -0.5177 -0.1008 -0.0075
    9SAPS   O14 1079   2.214   1.092   7.563  0.2314  0.1115 -0.5348
    9SAPS   O12 1080   2.109   0.884   7.649 -0.4939  0.3974 -0.8208
    9SAPS   O11 1081   2.013   1.002   7.454  0.0763  0.0297  0.0855
    9SAPS    C1 1082   1.872   0.962   7.452  0.0408 -0.0771 -0.3166
    9SAPS    HA 1083   1.865   0.860   7.496  0.2013  0.6101  1.3571
    9SAPS    HB 1084   1.808   1.030   7.513 -0.7869 -0.7588 -0.4046
    9SAPS    C2 1085   1.817   0.954   7.306  0.5125  0.4686  0.3478
    9SAPS    HS 1086   1.851   0.860   7.256  0.0423  0.1233  0.6695
    9SAPS   O21 1087   1.860   1.067   7.226  0.4872  0.9758  0.0470
    9SAPS   C21 1088   1.964   1.044   7.141  0.5871 -0.3927  0.0029
    9SAPS   O22 1089   2.034   0.945   7.141  0.1462  0.3759 -0.1811
    9SAPS   C22 1090   1.964   1.142   7.023 -0.3730  0.9272 -0.2842
    9SAPS   H2R 1091   1.865   1.126   6.977 -1.0711 -0.4077  1.5935
    9SAPS   H2S 1092   1.971   1.242   7.071 -0.2310  0.0685  1.5623
    9SAPS    C3 1093   1.659   0.941   7.307  0.0931  0.1049 -0.1240
    9SAPS    HX 1094   1.611   1.032   7.348 -2.2372 -0.9889 -0.2786
    9SAPS    HY 1095   1.637   0.859   7.378 -0.4906  0.5526  0.2192
    9SAPS   O31 1096   1.613   0.917   7.173 -0.3755  0.4736 -0.3021
    9SAPS   C31 1097   1.489   0.883   7.166  0.6601 -0.4619  1.1637
    9SAPS   O32 1098   1.413   0.877   7.259 -0.2615 -0.4627  0.2262
    9SAPS   C32 1099   1.455   0.845   7.026 -0.5420 -0.7851 -0.0323
    9SAPS   H2X 1100   1.350   0.809   7.021  0.0941 -2.5580 -1.2940
    9SAPS   H2Y 1101   1.523   0.763   6.997  0.8888 -0.1144  1.2385
    9SAPS   C23 1102   2.086   1.122   6.939 -0.7918  0.2440  0.4701
    9SAPS   H3R 1103   2.076   1.025   6.885 -2.8507  0.7895 -0.2208
    9SAPS   H3S 1104   2.180   1.133   6.997 -1.1071  1.1377  0.8196
    9SAPS   C24 1105   2.097   1.231   6.825 -0.0176  0.7307  0.8411
    9SAPS   H4R 1106   2.138   1.322   6.874 -0.4775  1.0748  0.5892
    9SAPS   H4S 1107   1.996   1.264   6.793 -0.8264 -1.2617  1.1915
    9SAPS   C25 1108   2.174   1.188   6.698  0.2474  0.3893  0.3504
    9SAPS   H5R 1109   2.278   1.156   6.714 -0.0148 -1.2179 -0.9047
    9SAPS   C26 1110   2.129   1.181   6.572 -0.4628 -0.1457 -0.6767
    9SAPS   H6R 1111   2.205   1.154   6.497  0.6262  1.1383 -0.0718
    9SAPS   C27 1112   1.994   1.235   6.530  0.3603 -0.5686  0.0779
    9SAPS   H7R 1113   2.011   1.342   6.505 -2.2251  0.5641  2.4802
    9SAPS   H7S 1114   1.916   1.236   6.610  1.3232  1.3423  1.0610
    9SAPS   C28 1115   1.923   1.184   6.406  0.2281 -0.2582 -0.2558
    9SAPS   H8R 1116   1.814   1.175   6.421  0.3237  1.2584  1.8285
    9SAPS   C29 1117   1.964   1.175   6.276 -0.3132 -0.0097 -0.1627
    9SAPS   H9R 1118   1.898   1.137   6.196 -0.4784 -2.1397  0.9361
    9SAPS  C210 1119   2.104   1.222   6.229  0.1693  0.7690  0.1145
    9SAPS  H10R 1120   2.181   1.209   6.308  2.1340  0.7835 -1.7081
    9SAPS  H10S 1121   2.092   1.330   6.205  1.4189  1.1643  1.1950
    9SAPS  C211 1122   2.160   1.126   6.122  0.3951 -0.3015  0.3564
    9SAPS  H11R 1123   2.157   1.021   6.151 -0.3567 -0.5064 -0.4145
    9SAPS  C212 1124   2.204   1.154   6.001  0.1236  1.1478  0.3363
    9SAPS  H12R 1125   2.229   1.071   5.934 -1.2122  0.1314  1.0349
    9SAPS  C213 1126   2.201   1.288   5.926  0.2537 -0.5609  0.0450
    9SAPS  H13R 1127   2.132   1.358   5.978  2.1171  0.4078  1.3248
    9SAPS  H13S 1128   2.160   1.258   5.827  1.0220  0.0202 -0.4571
    9SAPS  C214 1129   2.335   1.355   5.918  0.0676 -0.3424 -0.0217
    9SAPS  H14R 1130   2.399   1.338   6.006  1.0705  2.4754 -0.1010
    9SAPS  C215 1131   2.385   1.427   5.821  0.0891  0.1551  0.1404
    9SAPS  H15R 1132   2.486   1.470   5.827 -0.2260  0.8367  0.6775
    9SAPS  C216 1133   2.314   1.458   5.689 -0.9630  0.7745  0.5896
    9SAPS  H16R 1134   2.339   1.562   5.659 -0.1310  1.3467  3.0078
    9SAPS  H16S 1135   2.205   1.454   5.707 -1.1362 -0.5412 -0.6006
    9SAPS  C217 1136   2.357   1.362   5.585  0.1909  0.2974  0.1886
    9SAPS  H17R 1137   2.338   1.255   5.609  0.2071 -0.1178 -1.5414
    9SAPS  H17S 1138   2.467   1.378   5.583  0.0318  1.4700  0.1470
    9SAPS  C218 1139   2.304   1.407   5.439 -0.1555  0.5200 -0.0665
    9SAPS  H18R 1140   2.307   1.517   5.425  0.8301  0.3286 -1.5331
    9SAPS  H18S 1141   2.196   1.380   5.443  0.4085 -1.9033  0.4341
    9SAPS  C219 1142   2.383   1.338   5.324  0.3520  0.3558  0.0118
    9SAPS  H19R 1143   2.353   1.232   5.337  1.0729 -0.1026 -1.8610
    9SAPS  H19S 1144   2.489   1.337   5.355  0.0884  2.6516  1.2305
    9SAPS  C220 1145   2.349   1.383   5.180 -0.1856 -0.0381  0.0560
    9SAPS  H20R 1146   2.239   1.371   5.170 -0.4444  1.7917  0.2220
    9SAPS  H20S 1147   2.391   1.320   5.099  2.9917 -1.6763  2.7447
    9SAPS  H20T 1148   2.364   1.490   5.153 -1.2152  0.4804  1.4391
    9SAPS   C33 1149   1.466   0.962   6.924  0.5339 -0.0751 -0.1598
    9SAPS   H3X 1150   1.431   1.059   6.964  0.2669 -0.3731  0.3325
    9SAPS   H3Y 1151   1.407   0.926   6.837 -2.0322  2.5924  0.3299
    9SAPS   C34 1152   1.604   0.990   6.864 -0.9004 -0.3760 -0.0222
    9SAPS   H4X 1153   1.653   0.899   6.822  0.5791  0.7297 -0.7767
    9SAPS   H4Y 1154   1.678   1.017   6.942 -0.4096 -0.0811 -0.5831
    9SAPS   C35 1155   1.610   1.103   6.759 -0.0922 -0.3653 -0.2998
    9SAPS   H5X 1156   1.704   1.161   6.747 -1.9384  2.3616 -3.1809
    9SAPS   H5Y 1157   1.541   1.179   6.801  1.5577  0.6266  0.7350
    9SAPS   C36 1158   1.561   1.062   6.616 -0.3802 -0.2860 -0.8277
    9SAPS   H6X 1159   1.475   0.993   6.622  0.5122 -1.5813 -2.3117
    9SAPS   H6Y 1160   1.650   1.011   6.573 -0.9173 -2.4908  0.5432
    9SAPS   C37 1161   1.524   1.193   6.544 -0.0351 -0.2075  0.1604
    9SAPS   H7X 1162   1.621   1.246   6.554 -1.1961  1.8193  1.3467
    9SAPS   H7Y 1163   1.443   1.251   6.594  0.0794  2.7906 -2.7630
    9SAPS   C38 1164   1.508   1.173   6.392  0.2761 -0.5313  0.1997
    9SAPS   H8X 1165   1.609   1.164   6.346  1.2868  1.4545  1.8833
    9SAPS   H8Y 1166   1.478   1.273   6.354 -0.1129 -0.4014  0.8453
    9SAPS   C39 1167   1.405   1.064   6.357  1.2461 -0.5634  0.1123
    9SAPS   H9X 1168   1.315   1.090   6.417  0.5821 -1.8101 -0.3178
    9SAPS   H9Y 1169   1.425   0.959   6.388  0.4268 -0.9377 -0.5839
    9SAPS  C310 1170   1.358   1.067   6.214  0.5428 -0.1401  0.2009
    9SAPS  H10X 1171   1.340   1.173   6.185  0.1265 -0.4214 -0.6044
    9SAPS  H10Y 1172   1.264   1.018   6.181  0.4964  0.4580 -0.5785
    9SAPS  C311 1173   1.467   1.020   6.118  0.3796  0.5203  0.6435
    9SAPS  H11X 1174   1.494   0.915   6.140 -3.4571 -0.5035  1.1528
    9SAPS  H11Y 1175   1.555   1.083   6.143  0.8459 -1.2570  3.8902
    9SAPS  C312 1176   1.442   1.045   5.964 -0.0528  0.0263 -1.5446
    9SAPS  H12X 1177   1.444   1.154   5.945  0.3803  0.8034  2.1741
    9SAPS  H12Y 1178   1.340   1.006   5.948  0.1603 -0.7722 -1.0014
    9SAPS  C313 1179   1.536   0.967   5.880 -0.5900 -0.0337 -0.6437
    9SAPS  H13X 1180   1.518   0.858   5.889 -0.2518  0.0086  0.6999
    9SAPS  H13Y 1181   1.642   0.995   5.901 -1.4244  2.4130  0.6757
    9SAPS  C314 1182   1.523   0.975   5.730  0.8308 -0.1314 -0.6380
    9SAPS  H14X 1183   1.564   1.073   5.698  2.6545 -0.3309  0.9089
    9SAPS  H14Y 1184   1.417   0.973   5.695  0.9542  1.6179 -1.2059
    9SAPS  C315 1185   1.619   0.875   5.652  0.0757 -0.7782  0.1352
    9SAPS  H15X 1186   1.584   0.770   5.664 -1.1081 -0.3035  1.0433
    9SAPS  H15Y 1187   1.727   0.883   5.675  0.7688  0.8688 -3.0568
    9SAPS  C316 1188   1.603   0.898   5.508 -0.1421 -0.2404  0.0346
    9SAPS  H16X 1189   1.627   1.007   5.505 -0.2107 -0.1866  1.0299
    9SAPS  H16Y 1190   1.497   0.883   5.477  0.0346  1.3472 -1.4478
    9SAPS  C317 1191   1.697   0.822   5.418 -0.0562  0.5439 -0.4573
    9SAPS  H17X 1192   1.677   0.713   5.428  2.7206  0.0275  0.2909
    9SAPS  H17Y 1193   1.801   0.838   5.453 -1.1789 -0.6006  4.0623
    9SAPS  C318 1194   1.697   0.870   5.272  0.0250 -0.5735 -0.2627
    9SAPS  H18X 1195   1.723   0.978   5.266  1.9206 -0.8717  1.5898
    9SAPS  H18Y 1196   1.596   0.848   5.231  0.0882 -0.2921 -0.5683
    9SAPS  H18Z 1197   1.766   0.797   5.224  2.2967  1.2079  0.1169
   10SAPS     N 1198   2.314   0.487   7.926  0.3253 -0.4212  0.0985
   10SAPS   HN1 1199   2.311   0.582   7.968  3.0119  0.1364 -0.7900
   10SAPS   HN2 1200   2.306   0.495   7.822 -0.9450  0.0582  0.2133
   10SAPS   HN3 1201   2.234   0.424   7.950  0.5566 -1.2135 -1.1060
   10SAPS   C12 1202   2.449   0.432   7.955 -0.3985 -1.0005  0.1660
   10SAPS  H12A 1203   2.492   0.481   8.041  1.2710 -0.6651 -0.7939
   10SAPS   C13 1204   2.457   0.284   7.976  0.6134 -0.1407  0.2111
   10SAPS  O13A 1205   2.352   0.211   7.959 -0.0308  0.2624  0.2669
   10SAPS  O13B 1206   2.562   0.240   8.029  1.0501  0.4652 -0.4512
   10SAPS   C11 1207   2.537   0.464   7.834  0.4770 -0.9681 -0.5558
   10SAPS  H11A 1208   2.497   0.409   7.746  2.0067 -0.8882 -1.3338
   10SAPS  H11B 1209   2.637   0.421   7.856  0.5423 -0.8958 -0.7061
   10SAPS     P 1210   2.673   0.682   7.786 -0.9210  0.1765 -0.3562
   10SAPS   O13 1211   2.648   0.820   7.740  0.5046  0.3393  0.1938
   10SAPS   O14 1212   2.751   0.675   7.910  0.2387 -0.3979 -0.0875
   10SAPS   O12 1213   2.540   0.602   7.810  0.1812 -0.1856  0.1388
   10SAPS   O11 1214   2.747   0.591   7.678 -0.3128 -0.6461 -0.7165
   10SAPS    C1 1215   2.821   0.656   7.570  0.1358  0.0998 -0.3175
   10SAPS    HA 1216   2.882   0.742   7.607  0.7368 -0.6970  0.6083
   10SAPS    HB 1217   2.899   0.587   7.532  0.8053 -0.2277  1.5029
   10SAPS    C2 1218   2.734   0.688   7.453  1.4488 -0.1567 -0.2613
   10SAPS    HS 1219   2.662   0.765   7.488  3.4076  2.3189 -1.3186
   10SAPS   O21 1220   2.677   0.568   7.396 -0.3142  0.2826  0.0486
   10SAPS   C21 1221   2.546   0.538   7.429  0.2692 -0.4763  0.7205
   10SAPS   O22 1222   2.472   0.611   7.488 -0.1315 -0.4288  0.1825
   10SAPS   C22 1223   2.512   0.401   7.366  0.2964 -0.7037  0.6145
   10SAPS   H2R 1224   2.602   0.336   7.369  0.3530 -0.6223  0.7236
   10SAPS   H2S 1225   2.436   0.365   7.439  0.4087  2.5303  2.5558
   10SAPS    C3 1226   2.814   0.752   7.343 -0.0458 -0.4457  0.4120
   10SAPS    HX 1227   2.879   0.675   7.297  0.5206  1.0223 -1.3292
   10SAPS    HY 1228   2.889   0.826   7.377  1.4604 -2.0448  0.6952
   10SAPS   O31 1229   2.723   0.801   7.239  0.3191  0.1971  0.0015
   10SAPS   C31 1230   2.695   0.928   7.246 -0.0014  1.0487 -0.0403
   10SAPS   O32 1231   2.755   1.004   7.322  0.1238  0.0578  0.6823
   10SAPS   C32 1232   2.592   0.962   7.133  0.4021  0.1412 -0.6441
   10SAPS   H2X 1233   2.514   1.027   7.179  0.2757 -0.8946  0.6814
   10SAPS   H2Y 1234   2.544   0.872   7.088 -0.6808  0.9227 -1.0948
   10SAPS   C23 1235   2.447   0.413   7.223 -0.1986 -0.1834  0.5693
   10SAPS   H3R 1236   2.384   0.503   7.212  0.9083  0.5348 -0.0826
   10SAPS   H3S 1237   2.374   0.331   7.207  0.2175 -0.4242 -0.1325
   10SAPS   C24 1238   2.554   0.403   7.108 -0.1431 -0.1557  0.0415
   10SAPS   H4R 1239   2.507   0.372   7.012  0.9838  1.2885 -1.0190
   10SAPS   H4S 1240   2.612   0.309   7.122 -0.5456 -0.0876  2.5835
   10SAPS   C25 1241   2.633   0.527   7.080 -0.6430 -0.5949 -0.4514
   10SAPS   H5R 1242   2.716   0.543   7.151 -0.4259  2.8712 -1.2975
   10SAPS   C26 1243   2.608   0.616   6.983  0.2575 -0.2078 -0.4939
   10SAPS   H6R 1244   2.681   0.695   6.958  0.0285  0.4618  0.8623
   10SAPS   C27 1245   2.492   0.615   6.887  0.2602  0.6297 -0.5831
   10SAPS   H7R 1246   2.444   0.715   6.879 -0.7193  0.1994 -0.1924
   10SAPS   H7S 1247   2.417   0.541   6.923 -0.7601  1.2203 -1.4127
   10SAPS   C28 1248   2.518   0.569   6.743 -0.0837 -0.1930 -0.3287
   10SAPS   H8R 1249   2.551   0.464   6.741 -0.7781 -0.4512  0.8110
   10SAPS   C29 1250   2.520   0.642   6.633  0.2141  0.0933  0.1650
   10SAPS   H9R 1251   2.532   0.599   6.533  1.0982  1.1556 -0.2096
   10SAPS  C210 1252   2.488   0.790   6.627  0.0967  0.0527  0.2951
   10SAPS  H10R 1253   2.572   0.835   6.571 -0.6657  1.5413  0.3085
   10SAPS  H10S 1254   2.491   0.847   6.722 -4.6001  1.7799 -0.2956
   10SAPS  C211 1255   2.358   0.816   6.553 -0.3139 -0.2063  0.6389
   10SAPS  H11R 1256   2.264   0.787   6.602  0.3812  0.0270  2.1753
   10SAPS  C212 1257   2.346   0.871   6.429  0.3605  0.4365  0.8013
   10SAPS  H12R 1258   2.246   0.885   6.386  0.9324  3.1979  0.1637
   10SAPS  C213 1259   2.455   0.907   6.331  0.6977  0.3176  0.3258
   10SAPS  H13R 1260   2.541   0.934   6.397  0.4477 -0.4999  0.9984
   10SAPS  H13S 1261   2.434   0.996   6.269 -0.1623 -1.9756 -2.9147
   10SAPS  C214 1262   2.484   0.791   6.247  0.1135  1.1784 -0.3484
   10SAPS  H14R 1263   2.495   0.698   6.306  0.7212  1.6572  0.3142
   10SAPS  C215 1264   2.543   0.791   6.123  0.1302 -0.5009 -0.2012
   10SAPS  H15R 1265   2.563   0.703   6.060  0.7286  0.9826 -2.2070
   10SAPS  C216 1266   2.561   0.918   6.039  0.3669 -0.0195  0.5015
   10SAPS  H16R 1267   2.668   0.947   6.043  0.0815  0.9172  2.5759
   10SAPS  H16S 1268   2.508   1.008   6.075 -3.5950 -0.8222 -2.6099
   10SAPS  C217 1269   2.495   0.892   5.899 -0.4135  0.3471 -0.4249
   10SAPS  H17R 1270   2.392   0.852   5.912 -0.2851  0.6159  1.7694
   10SAPS  H17S 1271   2.553   0.810   5.852  0.4095  1.1829 -0.9014
   10SAPS  C218 1272   2.521   1.005   5.801 -0.2061  0.4693  0.2444
   10SAPS  H18R 1273   2.631   1.006   5.784 -0.0733 -0.5046  0.9813
   10SAPS  H18S 1274   2.489   1.104   5.838 -3.9064  0.4173 -2.2645
   10SAPS  C219 1275   2.459   0.994   5.659 -0.2483 -0.6210 -0.1346
   10SAPS  H19R 1276   2.486   1.088   5.608  1.3927  0.2959  2.2799
   10SAPS  H19S 1277   2.348   0.986   5.672 -0.2584  2.0339  2.2558
   10SAPS  C220 1278   2.498   0.875   5.571 -0.1554  0.1401 -0.6932
   10SAPS  H20R 1279   2.475   0.781   5.625 -2.0087  0.5289 -0.7484
   10SAPS  H20S 1280   2.605   0.874   5.540 -0.2913 -1.1256 -1.1561
   10SAPS  H20T 1281   2.432   0.870   5.481  1.4625  1.4023 -2.0171
   10SAPS   C33 1282   2.667   1.040   7.036 -0.1140  0.1235  0.0546
   10SAPS   H3X 1283   2.739   0.969   6.990  2.0711  0.7763  2.2423
   10SAPS   H3Y 1284   2.739   1.110   7.085  1.6983 -1.3357 -0.4025
   10SAPS   C34 1285   2.579   1.115   6.937  0.3444  0.3058  0.2885
   10SAPS   H4X 1286   2.520   1.203   6.969 -1.4121  0.4874 -2.9581
   10SAPS   H4Y 1287   2.504   1.037   6.910 -1.7367  1.8843  1.2384
   10SAPS   C35 1288   2.654   1.150   6.809 -0.0287 -0.2017  0.0458
   10SAPS   H5X 1289   2.695   1.056   6.767 -0.1762 -0.0297 -0.4930
   10SAPS   H5Y 1290   2.743   1.213   6.831 -0.6399 -0.0326  2.2727
   10SAPS   C36 1291   2.572   1.227   6.706 -0.1324 -0.4325  0.2508
   10SAPS   H6X 1292   2.512   1.312   6.744 -1.5770 -0.1708 -2.4193
   10SAPS   H6Y 1293   2.495   1.162   6.659 -1.4386  0.8940  0.4845
   10SAPS   C37 1294   2.660   1.273   6.584  0.3358  0.7685 -0.0051
   10SAPS   H7X 1295   2.669   1.185   6.518 -0.8098  0.1100  0.6780
   10SAPS   H7Y 1296   2.754   1.302   6.635 -0.3134  0.3158  1.5115
   10SAPS   C38 1297   2.602   1.394   6.506  0.4690  0.6402 -0.5830
   10SAPS   H8X 1298   2.677   1.453   6.447  0.7991  0.6395 -0.1659
   10SAPS   H8Y 1299   2.556   1.471   6.571  0.2625  1.2985 -1.4834
   10SAPS   C39 1300   2.487   1.341   6.404 -0.1132 -0.1394  0.0304
   10SAPS   H9X 1301   2.440   1.433   6.364  1.4583  0.9426  0.5795
   10SAPS   H9Y 1302   2.412   1.284   6.463 -0.9306 -0.6400 -1.4396
   10SAPS  C310 1303   2.532   1.256   6.289  0.3526 -0.5468  0.3258
   10SAPS  H10X 1304   2.446   1.218   6.230 -0.1073  0.5178  0.2883
   10SAPS  H10Y 1305   2.587   1.164   6.321 -1.9852 -2.2773 -0.3663
   10SAPS  C311 1306   2.632   1.337   6.196  0.2817 -0.1786 -0.3700
   10SAPS  H11X 1307   2.694   1.400   6.264 -1.1539  0.5731  0.2937
   10SAPS  H11Y 1308   2.578   1.418   6.142  0.4569  1.5977  1.9152
   10SAPS  C312 1309   2.716   1.263   6.095  0.5099 -0.1275 -0.4994
   10SAPS  H12X 1310   2.645   1.192   6.047 -1.4337  0.5097  1.3150
   10SAPS  H12Y 1311   2.801   1.204   6.136  0.3953 -0.0904 -0.2099
   10SAPS  C313 1312   2.778   1.352   5.991  0.3833 -0.0089  0.2081
   10SAPS  H13X 1313   2.841   1.424   6.047 -0.8024  0.5657  0.8344
   10SAPS  H13Y 1314   2.703   1.404   5.927  0.7445 -0.0138 -0.2300
   10SAPS  C314 1315   2.871   1.267   5.903 -0.4456 -0.6805  0.8476
   10SAPS  H14X 1316   2.813   1.200   5.836  0.4508 -0.9773  0.3541
   10SAPS  H14Y 1317   2.932   1.210   5.975 -1.8255 -4.1408 -0.5214
   10SAPS  C315 1318   2.967   1.357   5.819 -0.4163  0.0204  0.7904
   10SAPS  H15X 1319   3.021   1.284   5.756  0.7280  1.0345  0.5812
   10SAPS  H15Y 1320   3.034   1.404   5.894  0.0806  0.4549  0.0900
   10SAPS  C316 1321   2.890   1.460   5.733  0.0914 -1.0704  0.1751
   10SAPS  H16X 1322   2.967   1.524   5.684 -2.0839  0.9645 -0.7968
   10SAPS  H16Y 1323   2.813   1.520   5.788  1.3229  0.9462 -0.1898
   10SAPS  C317 1324   2.810   1.392   5.613 -0.9284  0.2272 -0.2569
   10SAPS  H17X 1325   2.741   1.312   5.645 -2.5010  1.2635 -0.8879
   10SAPS  H17Y 1326   2.887   1.346   5.547 -1.9447  0.7539 -1.8847
   10SAPS  C318 1327   2.734   1.495   5.525 -0.1732 -0.5426  0.6999
   10SAPS  H18X 1328   2.682   1.433   5.450 -0.1744 -3.1177  2.6953
   10SAPS  H18Y 1329   2.815   1.555   5.479  2.1923 -2.0049  2.6984
   10SAPS  H18Z 1330   2.662   1.554   5.585  0.5114  0.2204  0.7961
   11SAPS     N 1331   5.332   5.779   3.101  0.8297 -0.5006 -0.5742
   11SAPS   HN1 1332   5.247   5.724   3.076 -0.2511  1.4629 -1.4318
   11SAPS   HN2 1333   5.371   5.770   3.196  0.0345  1.5104 -0.0174
   11SAPS   HN3 1334   5.307   5.878   3.083  2.4647 -0.3015 -1.9784
   11SAPS   C12 1335   5.444   5.744   3.007 -0.4669  0.5861  0.4515
   11SAPS  H12A 1336   5.409   5.761   2.907  0.3281  1.7125  0.3517
   11SAPS   C13 1337   5.578   5.822   3.026  0.4925  0.1991  0.0221
   11SAPS  O13A 1338   5.594   5.885   3.132 -0.6607  0.3625 -0.7301
   11SAPS  O13B 1339   5.664   5.812   2.941 -0.2037 -0.5311  0.2826
   11SAPS   C11 1340   5.470   5.591   3.028  0.8814  0.2197  0.8564
   11SAPS  H11A 1341   5.503   5.587   3.134 -2.9917  0.7981  2.2261
   11SAPS  H11B 1342   5.548   5.567   2.953  1.9721  2.7999  1.0333
   11SAPS     P 1343   5.358   5.359   3.039  0.0627  0.1569  0.4206
   11SAPS   O13 1344   5.233   5.294   2.995 -0.0780 -0.5822  0.2006
   11SAPS   O14 1345   5.474   5.308   2.965 -0.1230 -0.2149 -0.1460
   11SAPS   O12 1346   5.346   5.514   3.017 -0.0533 -0.0280  0.1432
   11SAPS   O11 1347   5.386   5.340   3.194 -0.2522 -0.1328 -0.0311
   11SAPS    C1 1348   5.271   5.361   3.281 -0.1282  0.4332  0.1337
   11SAPS    HA 1349   5.262   5.469   3.306  1.0588  0.4473  0.5492
   11SAPS    HB 1350   5.175   5.328   3.236 -0.5727  0.1469  1.2588
   11SAPS    C2 1351   5.289   5.282   3.419 -0.0626  0.1320  0.1535
   11SAPS    HS 1352   5.247   5.346   3.500  0.4763  1.4956 -0.6205
   11SAPS   O21 1353   5.430   5.254   3.446 -0.1624 -0.4857  0.0587
   11SAPS   C21 1354   5.502   5.361   3.468 -0.1871  0.4075 -0.0466
   11SAPS   O22 1355   5.462   5.478   3.467 -0.4756 -0.5783  0.0404
   11SAPS   C22 1356   5.643   5.318   3.497 -0.0389  0.0603 -0.2958
   11SAPS   H2R 1357   5.668   5.239   3.422 -3.0570  0.2746 -1.6632
   11SAPS   H2S 1358   5.714   5.403   3.503  2.0712 -1.6889  1.6077
   11SAPS    C3 1359   5.212   5.147   3.422  0.2652  0.5603 -0.0363
   11SAPS    HX 1360   5.258   5.081   3.345 -2.0384 -1.1595 -0.0517
   11SAPS    HY 1361   5.108   5.166   3.389 -0.5057 -3.1279 -0.1509
   11SAPS   O31 1362   5.204   5.081   3.550 -0.4059 -0.2685  0.5496
   11SAPS   C31 1363   5.283   4.971   3.572 -0.2372  1.2445 -0.3647
   11SAPS   O32 1364   5.362   4.934   3.492 -0.1813 -0.6581  0.5569
   11SAPS   C32 1365   5.262   4.920   3.712  0.7629  0.5557 -0.4550
   11SAPS   H2X 1366   5.230   4.814   3.700  1.0720  0.6201 -2.1409
   11SAPS   H2Y 1367   5.177   4.977   3.756 -0.1624 -0.8270 -0.3875
   11SAPS   C23 1368   5.642   5.266   3.641 -0.2447  0.0055  0.3146
   11SAPS   H3R 1369   5.731   5.202   3.653 -0.5554 -0.4468  0.2170
   11SAPS   H3S 1370   5.551   5.203   3.647 -1.5893  1.9625  2.6435
   11SAPS   C24 1371   5.661   5.365   3.756  0.8750 -0.1468 -0.5275
   11SAPS   H4R 1372   5.609   5.462   3.738  2.3639  0.9469  0.8258
   11SAPS   H4S 1373   5.767   5.393   3.774  0.5483  0.9036 -0.1586
   11SAPS   C25 1374   5.603   5.298   3.880 -0.7151 -0.2456 -0.1497
   11SAPS   H5R 1375   5.681   5.280   3.956 -0.9999  0.7655  0.4083
   11SAPS   C26 1376   5.477   5.294   3.929 -0.7647 -0.6090 -0.0605
   11SAPS   H6R 1377   5.466   5.248   4.029 -0.4880  0.6405  0.5687
   11SAPS   C27 1378   5.345   5.330   3.855 -0.7160 -0.1953 -0.6706
   11SAPS   H7R 1379   5.275   5.323   3.941  0.4801  1.7911  0.5170
   11SAPS   H7S 1380   5.312   5.243   3.793 -2.8219  0.1061 -0.0429
   11SAPS   C28 1381   5.317   5.465   3.786  0.3134  0.8457  0.4889
   11SAPS   H8R 1382   5.273   5.453   3.686  0.6111 -2.2003  0.6368
   11SAPS   C29 1383   5.327   5.582   3.848  0.5512 -0.4970 -0.1195
   11SAPS   H9R 1384   5.275   5.666   3.799 -0.9611 -1.0139  0.5442
   11SAPS  C210 1385   5.387   5.603   3.987 -0.0784 -0.3410  0.1785
   11SAPS  H10R 1386   5.457   5.525   4.023 -0.1246 -0.8502 -0.7944
   11SAPS  H10S 1387   5.302   5.594   4.057  0.0648  1.3124  0.6091
   11SAPS  C211 1388   5.436   5.744   4.010 -0.0442  0.1493 -0.1016
   11SAPS  H11R 1389   5.368   5.813   4.061  0.3206  1.1030 -0.8867
   11SAPS  C212 1390   5.563   5.792   3.991 -0.1912 -0.8500  0.2395
   11SAPS  H12R 1391   5.571   5.898   4.017  0.0693 -1.0354  0.9427
   11SAPS  C213 1392   5.684   5.712   3.952  0.9012 -0.4185 -0.2550
   11SAPS  H13R 1393   5.648   5.609   3.934 -1.0105  0.3636 -1.2465
   11SAPS  H13S 1394   5.758   5.698   4.034  1.1723  2.5153  0.1060
   11SAPS  C214 1395   5.747   5.749   3.822  0.5294  0.1942  0.6047
   11SAPS  H14R 1396   5.682   5.734   3.735  1.7478 -0.8496 -0.1530
   11SAPS  C215 1397   5.865   5.794   3.807  0.4615  0.3158  0.1997
   11SAPS  H15R 1398   5.897   5.828   3.708 -0.2410  1.6290  0.4014
   11SAPS  C216 1399   5.964   5.819   3.914 -0.7083  0.9423 -0.0311
   11SAPS  H16R 1400   5.973   5.727   3.976 -3.3528  2.1106  2.3359
   11SAPS  H16S 1401   5.940   5.917   3.962  1.1191  1.2517  0.3496
   11SAPS  C217 1402   6.106   5.842   3.849 -0.3561 -0.0576 -0.3596
   11SAPS  H17R 1403   6.099   5.922   3.773  0.6036  1.0289  0.6509
   11SAPS  H17S 1404   6.127   5.748   3.795 -1.5946  0.5623 -2.0016
   11SAPS  C218 1405   6.216   5.891   3.937  0.6775 -0.0656 -0.0964
   11SAPS  H18R 1406   6.191   5.991   3.978  1.0880 -0.2421  0.5913
   11SAPS  H18S 1407   6.312   5.894   3.881  1.7637  0.1014  1.7230
   11SAPS  C219 1408   6.246   5.797   4.053  0.7210 -1.1407  0.1692
   11SAPS  H19R 1409   6.240   5.696   4.007  1.1058 -2.2886  2.4982
   11SAPS  H19S 1410   6.154   5.803   4.115 -0.6595  0.3185 -1.9020
   11SAPS  C220 1411   6.370   5.823   4.131  0.2568 -0.0628  0.5970
   11SAPS  H20R 1412   6.380   5.919   4.186  0.3119 -0.3875  1.1593
   11SAPS  H20S 1413   6.461   5.830   4.067  0.0813 -0.3071  0.3177
   11SAPS  H20T 1414   6.401   5.731   4.186  0.1994 -1.7911 -2.0729
   11SAPS   C33 1415   5.392   4.923   3.792 -0.5222  0.1730  0.2908
   11SAPS   H3X 1416   5.438   5.023   3.773  1.5495 -1.1365 -2.1749
   11SAPS   H3Y 1417   5.455   4.847   3.742  0.9215 -0.8310  3.3434
   11SAPS   C34 1418   5.380   4.899   3.943  0.0936  0.3938 -0.3193
   11SAPS   H4X 1419   5.331   4.801   3.962 -1.9493  1.5359  0.6405
   11SAPS   H4Y 1420   5.298   4.966   3.978  1.0084  0.5193  1.7264
   11SAPS   C35 1421   5.507   4.906   4.029 -0.4628 -0.6493  0.3766
   11SAPS   H5X 1422   5.572   4.987   3.988  1.2672 -1.9596  0.3959
   11SAPS   H5Y 1423   5.579   4.822   4.013  1.6555  1.3138 -1.1926
   11SAPS   C36 1424   5.473   4.911   4.180  0.2561  0.2973 -0.2529
   11SAPS   H6X 1425   5.404   4.827   4.206  1.5309 -1.0847 -1.1295
   11SAPS   H6Y 1426   5.416   5.002   4.206  0.8416  0.3714  0.8265
   11SAPS   C37 1427   5.595   4.892   4.269 -0.2320 -0.6478  0.1592
   11SAPS   H7X 1428   5.673   4.970   4.256  0.4794 -1.4441 -0.4614
   11SAPS   H7Y 1429   5.642   4.800   4.228  0.8867  0.6038 -1.5416
   11SAPS   C38 1430   5.561   4.880   4.418  0.1795 -0.1716 -0.3323
   11SAPS   H8X 1431   5.654   4.858   4.473 -0.9359 -0.1580  1.6414
   11SAPS   H8Y 1432   5.495   4.793   4.438 -1.6259  0.3177 -3.4143
   11SAPS   C39 1433   5.512   5.006   4.496 -0.1099 -0.3625 -0.3348
   11SAPS   H9X 1434   5.407   5.006   4.462  0.4388 -2.3662 -2.3078
   11SAPS   H9Y 1435   5.567   5.098   4.465 -0.4958  0.6827  1.9175
   11SAPS  C310 1436   5.508   4.973   4.651 -0.3753  0.1193 -0.3267
   11SAPS  H10X 1437   5.617   4.951   4.665  0.2661  1.1748 -3.0139
   11SAPS  H10Y 1438   5.435   4.890   4.659 -0.1270 -0.3130 -2.0321
   11SAPS  C311 1439   5.469   5.094   4.730  0.6016 -0.2472  0.3554
   11SAPS  H11X 1440   5.534   5.183   4.718 -2.5407  2.3315  0.7209
   11SAPS  H11Y 1441   5.468   5.067   4.838 -0.3457 -0.2574  0.3556
   11SAPS  C312 1442   5.323   5.140   4.712  0.9441 -0.8220  0.8155
   11SAPS  H12X 1443   5.248   5.072   4.756 -2.9152  1.6751 -1.3955
   11SAPS  H12Y 1444   5.307   5.154   4.603  1.5940  1.3275  0.9467
   11SAPS  C313 1445   5.292   5.284   4.770 -0.3406  0.1275 -0.1283
   11SAPS  H13X 1446   5.354   5.358   4.714 -0.2954  0.9852  0.9975
   11SAPS  H13Y 1447   5.321   5.283   4.878 -1.6574 -1.2093  0.2438
   11SAPS  C314 1448   5.149   5.339   4.767 -0.3180 -0.4743  0.1648
   11SAPS  H14X 1449   5.082   5.258   4.801  0.6939 -0.7308  1.6344
   11SAPS  H14Y 1450   5.127   5.366   4.661 -2.2328 -0.8236  0.4279
   11SAPS  C315 1451   5.127   5.461   4.855  0.0981  0.3283  0.2272
   11SAPS  H15X 1452   5.133   5.426   4.961  0.5537 -0.1909  0.0377
   11SAPS  H15Y 1453   5.023   5.496   4.841 -0.1071 -0.8119 -1.3718
   11SAPS  C316 1454   5.221   5.579   4.821 -0.0748  0.1075 -0.3068
   11SAPS  H16X 1455   5.212   5.611   4.714  0.2332  0.0937 -0.3365
   11SAPS  H16Y 1456   5.322   5.537   4.833 -0.1235  0.6793  3.1239
   11SAPS  C317 1457   5.181   5.702   4.897 -0.5789 -0.7861 -0.0164
   11SAPS  H17X 1458   5.081   5.731   4.856  0.0503  0.1017 -0.9891
   11SAPS  H17Y 1459   5.246   5.790   4.880 -2.6186  0.4600 -2.0499
   11SAPS  C318 1460   5.167   5.697   5.047 -0.8220  0.3741 -0.5111
   11SAPS  H18X 1461   5.141   5.794   5.094 -0.5309 -0.0955  0.6585
   11SAPS  H18Y 1462   5.259   5.660   5.097 -2.1963  0.3489  2.1826
   11SAPS  H18Z 1463   5.090   5.623   5.077 -0.7437  0.9548  1.2880
   12SAPS     N 1464   6.977   4.215   2.856  0.3404 -0.7410  0.2713
   12SAPS   HN1 1465   7.069   4.240   2.813 -0.9197  3.2402 -0.5721
   12SAPS   HN2 1466   6.940   4.301   2.901 -0.7307 -0.6316 -0.7700
   12SAPS   HN3 1467   7.000   4.147   2.930  2.3042  0.0769  0.4801
   12SAPS   C12 1468   6.891   4.150   2.749  0.8347  0.3625 -0.2826
   12SAPS  H12A 1469   6.879   4.220   2.667 -0.9393 -1.3289 -1.5532
   12SAPS   C13 1470   6.937   4.004   2.702  0.4062 -0.9656 -0.2042
   12SAPS  O13A 1471   7.028   3.938   2.755 -0.2236  0.4429 -0.0471
   12SAPS  O13B 1472   6.876   3.954   2.605 -0.2153  0.2461  0.1797
   12SAPS   C11 1473   6.749   4.136   2.822 -0.3874  0.3478 -1.1022
   12SAPS  H11A 1474   6.754   4.063   2.906 -1.8936  1.9169  0.4285
   12SAPS  H11B 1475   6.681   4.108   2.739 -1.7562  1.0116 -0.2473
   12SAPS     P 1476   6.568   4.305   2.915  0.5325 -0.2557 -0.3816
   12SAPS   O13 1477   6.555   4.448   2.922  0.3026  0.1121  0.9554
   12SAPS   O14 1478   6.475   4.226   2.833  0.6372 -0.4216 -0.4210
   12SAPS   O12 1479   6.710   4.264   2.877 -0.9885  0.7215  0.2460
   12SAPS   O11 1480   6.566   4.249   3.066  0.0898  0.2388 -0.1113
   12SAPS    C1 1481   6.653   4.301   3.165 -0.0862 -0.8309 -0.3696
   12SAPS    HA 1482   6.752   4.331   3.122  0.6172 -0.2563  1.5276
   12SAPS    HB 1483   6.613   4.389   3.220  2.0550 -0.9619  1.5588
   12SAPS    C2 1484   6.687   4.188   3.265  0.1267 -0.2305 -0.4023
   12SAPS    HS 1485   6.712   4.097   3.206  1.5581 -0.0410 -0.1150
   12SAPS   O21 1486   6.574   4.177   3.349 -1.0717  0.0840 -0.2000
   12SAPS   C21 1487   6.504   4.065   3.342  0.5235 -0.1007  0.6496
   12SAPS   O22 1488   6.530   3.964   3.278  0.2099  0.7658 -0.1255
   12SAPS   C22 1489   6.383   4.087   3.424  0.5869 -0.0316  0.0334
   12SAPS   H2R 1490   6.377   4.187   3.473 -2.4455  0.0826 -0.3930
   12SAPS   H2S 1491   6.294   4.087   3.358 -0.2508  1.7554  1.0821
   12SAPS    C3 1492   6.815   4.223   3.350 -0.1554  0.4211  0.3725
   12SAPS    HX 1493   6.901   4.245   3.283 -0.0252  1.4821  0.8659
   12SAPS    HY 1494   6.828   4.128   3.407  1.6536  0.3418 -0.1152
   12SAPS   O31 1495   6.787   4.330   3.442  0.3134  0.4440 -0.0344
   12SAPS   C31 1496   6.904   4.381   3.498  0.4575 -0.3081  0.2128
   12SAPS   O32 1497   7.010   4.328   3.480 -0.1686 -0.5581 -0.3120
   12SAPS   C32 1498   6.872   4.502   3.574  0.2447  0.1203  0.2224
   12SAPS   H2X 1499   6.765   4.518   3.598  1.2281  2.7800  3.4197
   12SAPS   H2Y 1500   6.913   4.591   3.522  0.2095 -0.3578 -0.6514
   12SAPS   C23 1501   6.365   3.974   3.522 -0.2043  0.0519 -0.6363
   12SAPS   H3R 1502   6.352   3.877   3.468  3.9483  0.3334 -2.5354
   12SAPS   H3S 1503   6.281   3.998   3.590  1.8674  3.8461  0.8264
   12SAPS   C24 1504   6.484   3.959   3.616  0.1947  0.2111 -0.9028
   12SAPS   H4R 1505   6.564   3.905   3.562  0.3933 -1.5808  1.0351
   12SAPS   H4S 1506   6.457   3.886   3.696  1.1357 -1.3176 -1.9284
   12SAPS   C25 1507   6.555   4.072   3.679 -0.1318 -0.7772 -0.5050
   12SAPS   H5R 1508   6.606   4.141   3.609 -0.4854  1.0329  0.9340
   12SAPS   C26 1509   6.581   4.099   3.815 -0.3072 -0.1382 -0.2762
   12SAPS   H6R 1510   6.638   4.187   3.846  0.6321 -1.0319  0.5872
   12SAPS   C27 1511   6.541   4.016   3.935  0.4707  0.0041  0.4388
   12SAPS   H7R 1512   6.512   3.915   3.898  0.3885 -0.5142  1.8674
   12SAPS   H7S 1513   6.457   4.068   3.985  0.0505 -1.3223  1.1431
   12SAPS   C28 1514   6.650   4.000   4.040 -0.5499  0.9990 -0.5922
   12SAPS   H8R 1515   6.745   3.979   3.989 -1.9481 -0.3885 -2.7852
   12SAPS   C29 1516   6.642   3.994   4.179 -0.3473  0.1300  0.2660
   12SAPS   H9R 1517   6.728   3.958   4.238  0.6142  2.0468  0.1265
   12SAPS  C210 1518   6.520   4.025   4.265  0.0092 -0.1480 -0.8333
   12SAPS  H10R 1519   6.441   4.066   4.198 -0.2530 -1.3356 -1.2775
   12SAPS  H10S 1520   6.561   4.104   4.330  0.2841  0.3677 -1.6133
   12SAPS  C211 1521   6.461   3.899   4.325 -0.6214  0.4935 -0.2300
   12SAPS  H11R 1522   6.401   3.831   4.264 -0.0263 -0.3477  0.1092
   12SAPS  C212 1523   6.466   3.879   4.455 -0.2515 -0.4674  0.0991
   12SAPS  H12R 1524   6.425   3.785   4.496 -0.0838  0.1432  1.7294
   12SAPS  C213 1525   6.538   3.974   4.546 -0.6481 -0.8292 -0.1109
   12SAPS  H13R 1526   6.506   3.942   4.647  1.2639 -2.0366  0.1649
   12SAPS  H13S 1527   6.505   4.080   4.542 -0.9320 -0.9238 -3.1805
   12SAPS  C214 1528   6.696   3.961   4.545  0.2806  0.2744  0.0494
   12SAPS  H14R 1529   6.747   4.029   4.476 -0.1447  0.5770  0.0248
   12SAPS  C215 1530   6.773   3.858   4.599  0.7775 -0.3556 -0.2946
   12SAPS  H15R 1531   6.881   3.877   4.593  1.0848 -1.7619  0.2187
   12SAPS  C216 1532   6.725   3.752   4.696 -0.5149 -0.0533 -0.6878
   12SAPS  H16R 1533   6.757   3.651   4.663  1.1049  0.3737 -0.5030
   12SAPS  H16S 1534   6.614   3.755   4.702 -0.5743  1.4397 -1.7616
   12SAPS  C217 1535   6.779   3.782   4.839  0.4503  0.5248 -0.8750
   12SAPS  H17R 1536   6.728   3.872   4.882  0.4164 -0.1387  0.5161
   12SAPS  H17S 1537   6.885   3.812   4.847  0.6771 -0.2931 -0.7335
   12SAPS  C218 1538   6.740   3.670   4.941  0.1405 -0.4777 -0.7214
   12SAPS  H18R 1539   6.819   3.597   4.968  2.1267  1.7096 -0.2453
   12SAPS  H18S 1540   6.663   3.601   4.900  1.0426 -1.4100 -0.8821
   12SAPS  C219 1541   6.682   3.738   5.076 -0.3744  0.2767 -1.0295
   12SAPS  H19R 1542   6.632   3.833   5.046 -1.0134  0.2916  0.0335
   12SAPS  H19S 1543   6.762   3.765   5.148 -1.8151 -1.4542  1.4003
   12SAPS  C220 1544   6.588   3.650   5.158  0.7698  0.2674 -1.0372
   12SAPS  H20R 1545   6.488   3.640   5.110 -0.2778 -1.0859  1.2646
   12SAPS  H20S 1546   6.569   3.690   5.260 -2.4174  1.3206 -1.9164
   12SAPS  H20T 1547   6.628   3.546   5.160 -0.2864 -0.1785 -1.9990
   12SAPS   C33 1548   6.949   4.501   3.710 -0.2048  0.2558 -0.0723
   12SAPS   H3X 1549   6.951   4.606   3.746  1.7014  0.7850 -1.5674
   12SAPS   H3Y 1550   7.055   4.480   3.686  0.2441 -2.6739  3.5636
   12SAPS   C34 1551   6.894   4.399   3.809  0.2691 -0.1010 -0.4235
   12SAPS   H4X 1552   6.876   4.304   3.754 -0.5483  1.0808 -2.3002
   12SAPS   H4Y 1553   6.800   4.440   3.850  0.9021  0.1560  0.8119
   12SAPS   C35 1554   6.991   4.370   3.931 -0.1121  0.6687 -0.2516
   12SAPS   H5X 1555   7.038   4.467   3.959  2.0025  0.1129 -1.6239
   12SAPS   H5Y 1556   7.061   4.297   3.886 -2.6653 -0.7178 -2.2721
   12SAPS   C36 1557   6.909   4.302   4.051 -0.3708  0.1489  0.0990
   12SAPS   H6X 1558   6.893   4.195   4.028 -0.6462 -0.3902  2.5779
   12SAPS   H6Y 1559   6.811   4.354   4.058 -0.0142  0.5985  2.4143
   12SAPS   C37 1560   6.982   4.312   4.181 -0.4441  0.4998  0.2711
   12SAPS   H7X 1561   7.024   4.414   4.194  0.8041  0.3606 -2.1393
   12SAPS   H7Y 1562   7.056   4.230   4.169 -1.3662 -0.2603 -0.3690
   12SAPS   C38 1563   6.892   4.275   4.297 -0.6008  0.0567 -0.4780
   12SAPS   H8X 1564   6.867   4.167   4.311 -0.8882 -0.4267 -3.9204
   12SAPS   H8Y 1565   6.804   4.340   4.277 -0.7001 -0.0029 -0.2451
   12SAPS   C39 1566   6.938   4.332   4.436  0.4455 -0.1320  0.5023
   12SAPS   H9X 1567   6.904   4.438   4.436 -0.1136 -0.3055 -0.0575
   12SAPS   H9Y 1568   7.049   4.325   4.445  0.5216  0.0466 -0.1978
   12SAPS  C310 1569   6.891   4.246   4.551 -0.3446  0.0573 -0.8268
   12SAPS  H10X 1570   6.905   4.140   4.522 -0.4113 -0.6723  1.5907
   12SAPS  H10Y 1571   6.781   4.249   4.568 -0.1891 -4.1210  2.3922
   12SAPS  C311 1572   6.947   4.279   4.693  0.3995  0.0537 -0.4536
   12SAPS  H11X 1573   6.916   4.380   4.727  1.5855 -0.3293  1.9664
   12SAPS  H11Y 1574   7.058   4.274   4.689  0.6137 -0.9269  3.0776
   12SAPS  C312 1575   6.901   4.183   4.800 -0.6560 -0.6778  0.9703
   12SAPS  H12X 1576   6.910   4.080   4.760 -0.0593 -0.4711  0.5597
   12SAPS  H12Y 1577   6.790   4.191   4.802 -0.5414  1.1867  1.7547
   12SAPS  C313 1578   6.953   4.210   4.946 -0.8958  0.3544 -0.3100
   12SAPS  H13X 1579   6.867   4.262   4.994  0.5783  2.5492  0.1425
   12SAPS  H13Y 1580   7.041   4.273   4.921 -0.6345  0.2406  0.3027
   12SAPS  C314 1581   6.987   4.078   5.014 -0.4855  0.1017 -1.1553
   12SAPS  H14X 1582   7.036   4.003   4.949  0.3585  0.2112 -0.6555
   12SAPS  H14Y 1583   6.889   4.030   5.035 -0.9812  1.1226 -1.0614
   12SAPS  C315 1584   7.074   4.090   5.144 -0.3047 -0.3577 -0.0122
   12SAPS  H15X 1585   7.181   4.086   5.114 -0.8657 -0.9464 -2.0431
   12SAPS  H15Y 1586   7.059   4.002   5.210 -0.5299 -0.9430 -0.8372
   12SAPS  C316 1587   7.034   4.216   5.218  0.0510 -0.4678 -0.5975
   12SAPS  H16X 1588   6.932   4.211   5.262  0.0856  1.9841 -0.0975
   12SAPS  H16Y 1589   7.039   4.314   5.166  1.1259  1.2918  2.5795
   12SAPS  C317 1590   7.136   4.238   5.332 -0.0610 -0.2651 -0.6076
   12SAPS  H17X 1591   7.218   4.304   5.298 -0.7839  0.2438 -1.4136
   12SAPS  H17Y 1592   7.188   4.144   5.360  1.5664  0.2487 -1.7706
   12SAPS  C318 1593   7.087   4.311   5.454  0.6236  0.4756 -0.8851
   12SAPS  H18X 1594   7.056   4.415   5.430 -1.3589 -0.0387 -0.7007
   12SAPS  H18Y 1595   7.165   4.305   5.533  0.1604 -0.9972 -0.5002
   12SAPS  H18Z 1596   6.996   4.260   5.492  0.7360  0.0184 -1.2270
   13SAPS     N 1597   0.909   1.600   2.907 -0.5039 -1.1451 -0.2621
   13SAPS   HN1 1598   0.888   1.500   2.887 -2.1682 -0.7945 -0.3966
   13SAPS   HN2 1599   0.892   1.623   3.007 -0.2838  0.0245 -0.4747
   13SAPS   HN3 1600   0.838   1.645   2.845 -0.2683  0.8725  0.8281
   13SAPS   C12 1601   1.045   1.633   2.860 -0.0333 -1.0156  0.0860
   13SAPS  H12A 1602   1.061   1.570   2.774  0.4275 -1.1392  0.2617
   13SAPS   C13 1603   1.059   1.773   2.793  0.8620 -0.4180  0.1983
   13SAPS  O13A 1604   0.971   1.866   2.800  0.3928 -0.1270 -0.3149
   13SAPS  O13B 1605   1.168   1.800   2.739 -0.7005 -0.1924  0.2929
   13SAPS   C11 1606   1.142   1.605   2.974 -0.0876 -0.3420 -0.3579
   13SAPS  H11A 1607   1.130   1.670   3.063 -0.6571  1.9403 -2.0194
   13SAPS  H11B 1608   1.243   1.626   2.933  0.5009  1.8681  2.0096
   13SAPS     P 1609   1.207   1.358   2.929 -0.5974 -0.0414 -0.4930
   13SAPS   O13 1610   1.112   1.255   2.891 -0.1779 -0.2127  0.2956
   13SAPS   O14 1611   1.284   1.416   2.815 -0.0419  0.7720  0.1109
   13SAPS   O12 1612   1.134   1.467   3.016 -0.2539  0.1752 -0.0182
   13SAPS   O11 1613   1.303   1.294   3.037 -0.2896 -0.0881 -0.2478
   13SAPS    C1 1614   1.335   1.362   3.162  0.2637 -0.0013 -0.4950
   13SAPS    HA 1615   1.407   1.443   3.139  0.8097 -0.8190 -1.8168
   13SAPS    HB 1616   1.246   1.410   3.207  1.4974  0.9967  0.9334
   13SAPS    C2 1617   1.401   1.268   3.264 -0.0548 -0.3620 -0.5464
   13SAPS    HS 1618   1.354   1.167   3.261  0.8532 -0.7693 -1.9525
   13SAPS   O21 1619   1.400   1.339   3.388  0.6190  0.2050  0.0834
   13SAPS   C21 1620   1.306   1.301   3.467 -0.0288  0.6936 -0.0615
   13SAPS   O22 1621   1.219   1.212   3.447  0.3770 -0.0811  0.0089
   13SAPS   C22 1622   1.327   1.379   3.596  0.4409 -0.5190 -1.3155
   13SAPS   H2R 1623   1.397   1.326   3.663 -0.6474 -1.6357 -1.0294
   13SAPS   H2S 1624   1.371   1.479   3.573  4.6040 -1.9143 -0.2933
   13SAPS    C3 1625   1.556   1.249   3.235 -0.2709 -0.2858  0.9746
   13SAPS    HX 1626   1.605   1.346   3.259  0.2849 -0.1304 -0.6851
   13SAPS    HY 1627   1.575   1.218   3.130 -3.4603  0.9705 -0.1079
   13SAPS   O31 1628   1.613   1.151   3.321 -0.2083 -0.4823 -0.2683
   13SAPS   C31 1629   1.597   1.024   3.280 -0.0434  0.8191 -0.7305
   13SAPS   O32 1630   1.543   0.981   3.180 -0.0832  0.2116  0.0574
   13SAPS   C32 1631   1.672   0.918   3.378  0.1395 -0.5348 -0.1464
   13SAPS   H2X 1632   1.776   0.951   3.361 -0.4203  0.8105 -1.1575
   13SAPS   H2Y 1633   1.651   0.816   3.338 -2.2974 -0.3338  0.4432
   13SAPS   C23 1634   1.188   1.391   3.669  0.2552 -0.3741 -0.0015
   13SAPS   H3R 1635   1.220   1.423   3.770  0.7596 -0.4000 -0.1501
   13SAPS   H3S 1636   1.133   1.294   3.671 -1.4769  0.5731  0.0905
   13SAPS   C24 1637   1.093   1.497   3.611 -0.3197 -0.7383  0.7996
   13SAPS   H4R 1638   1.072   1.467   3.506 -1.0326  1.6839  0.1587
   13SAPS   H4S 1639   1.149   1.593   3.600 -1.0041 -0.0685  2.7904
   13SAPS   C25 1640   0.967   1.519   3.684 -0.0665 -0.5155  0.5154
   13SAPS   H5R 1641   0.951   1.617   3.732 -0.9953 -0.5496  0.2844
   13SAPS   C26 1642   0.860   1.442   3.699 -0.9423  0.4703 -0.6791
   13SAPS   H6R 1643   0.787   1.487   3.767 -0.8659 -0.4179  0.0101
   13SAPS   C27 1644   0.839   1.298   3.660 -0.0932  0.0320 -0.1541
   13SAPS   H7R 1645   0.922   1.238   3.704 -0.0649  0.5294  0.4768
   13SAPS   H7S 1646   0.837   1.302   3.549 -3.6118  2.5277 -0.1488
   13SAPS   C28 1647   0.718   1.231   3.714  0.3252  0.5179  0.8773
   13SAPS   H8R 1648   0.647   1.203   3.636  0.8622  3.3574 -0.7708
   13SAPS   C29 1649   0.692   1.204   3.846  0.1807 -0.2805 -0.0430
   13SAPS   H9R 1650   0.595   1.158   3.868  0.7344 -1.2210  0.4655
   13SAPS  C210 1651   0.784   1.233   3.961 -0.2068  0.0163 -0.5813
   13SAPS  H10R 1652   0.849   1.322   3.942 -0.5138  0.4613  0.4126
   13SAPS  H10S 1653   0.854   1.148   3.977 -0.4093 -0.3652 -1.6058
   13SAPS  C211 1654   0.719   1.256   4.091  0.1098  0.3698  0.1025
   13SAPS  H11R 1655   0.613   1.227   4.099  0.2323 -0.3322 -0.6966
   13SAPS  C212 1656   0.787   1.283   4.209  0.2646 -0.5942 -0.0893
   13SAPS  H12R 1657   0.735   1.279   4.306  1.5841  0.1587  0.6781
   13SAPS  C213 1658   0.933   1.304   4.218 -0.5734 -0.4266 -0.5246
   13SAPS  H13R 1659   0.958   1.367   4.129 -3.1588  1.3639 -0.0866
   13SAPS  H13S 1660   0.981   1.203   4.215 -1.1611 -0.7009 -0.7104
   13SAPS  C214 1661   0.988   1.387   4.332  0.2962 -0.3707 -0.5210
   13SAPS  H14R 1662   1.052   1.472   4.305 -0.7310  1.3054  1.9292
   13SAPS  C215 1663   0.964   1.378   4.466  0.0636 -0.0926  0.5914
   13SAPS  H15R 1664   1.009   1.453   4.533  2.1411 -1.9193  1.3578
   13SAPS  C216 1665   0.871   1.280   4.538 -0.2208 -0.6523  0.1052
   13SAPS  H16R 1666   0.869   1.183   4.484 -1.3970  0.7539 -2.5258
   13SAPS  H16S 1667   0.761   1.295   4.540  0.0074  1.1285  1.0226
   13SAPS  C217 1668   0.922   1.261   4.686 -0.0663  0.3999  0.5077
   13SAPS  H17R 1669   1.032   1.249   4.677  0.0898  1.9438 -0.0509
   13SAPS  H17S 1670   0.884   1.163   4.724 -2.5090  0.7785 -0.7221
   13SAPS  C218 1671   0.894   1.384   4.767 -0.1478  0.2209  0.0541
   13SAPS  H18R 1672   0.966   1.461   4.731  0.8809 -2.2717 -3.9315
   13SAPS  H18S 1673   0.902   1.360   4.875 -0.3677 -3.0200 -0.5524
   13SAPS  C219 1674   0.759   1.449   4.748 -0.0495  0.0348  0.2733
   13SAPS  H19R 1675   0.682   1.369   4.755 -0.2503  0.2679  0.8243
   13SAPS  H19S 1676   0.749   1.493   4.647  0.2521 -2.5370 -0.9631
   13SAPS  C220 1677   0.726   1.554   4.854  0.3955 -0.0042 -0.5342
   13SAPS  H20R 1678   0.790   1.645   4.842 -0.9865  1.5234  2.4788
   13SAPS  H20S 1679   0.758   1.515   4.953  0.2999  1.9528  0.3118
   13SAPS  H20T 1680   0.621   1.588   4.852  0.5004  0.7259  1.9979
   13SAPS   C33 1681   1.627   0.948   3.518  0.6726  0.1700  0.3973
   13SAPS   H3X 1682   1.664   1.049   3.547  0.7657  0.2385  0.0423
   13SAPS   H3Y 1683   1.666   0.880   3.596  0.3267 -0.1385  0.3081
   13SAPS   C34 1684   1.482   0.951   3.544  0.9562 -0.2280 -0.0357
   13SAPS   H4X 1685   1.433   1.032   3.486 -0.8368 -0.8584  0.5158
   13SAPS   H4Y 1686   1.474   0.968   3.654  1.9403  0.4747 -0.0501
   13SAPS   C35 1687   1.414   0.821   3.510 -0.3607  0.6151  0.6801
   13SAPS   H5X 1688   1.456   0.747   3.582  0.3118  0.9745  0.6620
   13SAPS   H5Y 1689   1.445   0.792   3.407 -1.0043 -0.6446  0.8139
   13SAPS   C36 1690   1.262   0.827   3.522  0.2190  0.3724 -0.2450
   13SAPS   H6X 1691   1.226   0.727   3.488 -2.1273  1.7785 -2.2061
   13SAPS   H6Y 1692   1.229   0.905   3.450 -1.7113  2.1363  2.3713
   13SAPS   C37 1693   1.215   0.862   3.660  0.4254 -0.2924  0.2550
   13SAPS   H7X 1694   1.235   0.967   3.689 -1.7347  0.0493  0.7160
   13SAPS   H7Y 1695   1.254   0.797   3.741 -0.5950  0.3031  1.2558
   13SAPS   C38 1696   1.062   0.845   3.664 -1.3285  0.1216  0.6021
   13SAPS   H8X 1697   1.037   0.745   3.623 -0.1047  0.1603 -0.2884
   13SAPS   H8Y 1698   1.017   0.925   3.601  1.1577  0.9196 -0.2871
   13SAPS   C39 1699   1.007   0.877   3.806 -0.5231  0.2361 -0.3510
   13SAPS   H9X 1700   0.966   0.981   3.806  0.3806  0.6052 -0.9202
   13SAPS   H9Y 1701   1.094   0.876   3.875  0.3473 -1.9658 -1.4020
   13SAPS  C310 1702   0.899   0.783   3.844  0.2746  0.0759 -1.0669
   13SAPS  H10X 1703   0.935   0.679   3.861 -1.9748 -0.7023 -0.5925
   13SAPS  H10Y 1704   0.819   0.772   3.767 -0.0130 -1.6530 -0.5711
   13SAPS  C311 1705   0.834   0.828   3.984  0.4040  0.8641 -0.8137
   13SAPS  H11X 1706   0.771   0.740   4.012  1.0191 -0.0221 -2.1146
   13SAPS  H11Y 1707   0.770   0.915   3.962  0.9031  1.0895 -1.4081
   13SAPS  C312 1708   0.942   0.843   4.093  0.8803  0.2162  0.9531
   13SAPS  H12X 1709   0.998   0.937   4.076  0.4697  0.5593  1.4844
   13SAPS  H12Y 1710   1.015   0.759   4.097  1.3652  0.5331 -0.4789
   13SAPS  C313 1711   0.875   0.866   4.229 -0.4164  0.3202  0.4191
   13SAPS  H13X 1712   0.803   0.788   4.262  0.2773 -1.4731 -1.9748
   13SAPS  H13Y 1713   0.832   0.967   4.216  0.6674  0.6354 -0.8612
   13SAPS  C314 1714   0.976   0.878   4.350 -0.6891  0.1867 -0.1989
   13SAPS  H14X 1715   1.025   0.978   4.354 -0.4299  0.0327  0.5475
   13SAPS  H14Y 1716   1.050   0.796   4.341 -0.2186  0.1512  2.9605
   13SAPS  C315 1717   0.900   0.868   4.482  0.4234  0.1338 -0.8485
   13SAPS  H15X 1718   0.834   0.778   4.477 -1.5913  1.5793 -1.3471
   13SAPS  H15Y 1719   0.838   0.960   4.488  2.9727  2.2141 -3.4982
   13SAPS  C316 1720   0.993   0.863   4.611  0.0805 -0.5248  0.1782
   13SAPS  H16X 1721   1.037   0.964   4.622  1.1035 -0.7324 -1.6316
   13SAPS  H16Y 1722   1.075   0.787   4.604 -0.4514 -0.9749 -2.2985
   13SAPS  C317 1723   0.909   0.831   4.736  0.0086 -0.2080  0.4083
   13SAPS  H17X 1724   0.891   0.721   4.731  0.2385 -0.2219 -0.1744
   13SAPS  H17Y 1725   0.807   0.872   4.721 -0.1702  0.4775  3.0726
   13SAPS  C318 1726   0.964   0.865   4.869 -0.3902 -0.4768 -0.2800
   13SAPS  H18X 1727   0.973   0.976   4.873  0.0014 -0.2752 -3.4540
   13SAPS  H18Y 1728   1.063   0.817   4.883 -0.9010 -1.3245  0.5047
   13SAPS  H18Z 1729   0.901   0.832   4.954 -0.2588  0.5964  0.2449
   14SAPS     N 1730   3.021   2.636   3.197 -0.1035 -0.5463  0.3439
   14SAPS   HN1 1731   3.017   2.533   3.183  2.8877 -0.4807 -2.2203
   14SAPS   HN2 1732   3.041   2.658   3.297 -0.9973 -0.6595  0.5559
   14SAPS   HN3 1733   2.924   2.668   3.179 -0.2975 -1.3260 -0.0377
   14SAPS   C12 1734   3.125   2.713   3.119 -0.1078 -0.0005 -0.4341
   14SAPS  H12A 1735   3.216   2.674   3.161 -1.5099 -0.1338  2.7779
   14SAPS   C13 1736   3.140   2.703   2.965  0.5529  0.1548  0.3209
   14SAPS  O13A 1737   3.059   2.628   2.905  0.4178  0.1227  0.2597
   14SAPS  O13B 1738   3.218   2.777   2.906 -0.4825  0.3172 -0.3709
   14SAPS   C11 1739   3.125   2.866   3.171  0.5328  0.2130 -0.2077
   14SAPS  H11A 1740   3.229   2.895   3.141  1.5086 -1.7412  1.0913
   14SAPS  H11B 1741   3.121   2.871   3.282 -1.8121  2.7322 -0.2904
   14SAPS     P 1742   3.026   3.106   3.127 -0.0412 -0.2770 -0.1752
   14SAPS   O13 1743   3.155   3.154   3.076  0.2497 -0.8354  0.3074
   14SAPS   O14 1744   2.903   3.154   3.056 -0.2271  0.1580 -0.3666
   14SAPS   O12 1745   3.019   2.949   3.123  0.3060 -0.0518  0.0526
   14SAPS   O11 1746   3.016   3.134   3.279 -0.2589 -0.3865  0.4282
   14SAPS    C1 1747   2.891   3.120   3.351 -0.2715 -0.4735 -0.3602
   14SAPS    HA 1748   2.834   3.033   3.311 -0.4259 -0.4730 -0.1434
   14SAPS    HB 1749   2.913   3.096   3.457 -0.4200  2.5684  0.4569
   14SAPS    C2 1750   2.803   3.247   3.372 -0.0616  0.2292 -0.4125
   14SAPS    HS 1751   2.775   3.273   3.267  1.4395  2.1163 -0.3893
   14SAPS   O21 1752   2.879   3.360   3.427  0.6070 -0.1230 -0.5349
   14SAPS   C21 1753   2.938   3.434   3.339 -0.4388 -0.3098  0.7070
   14SAPS   O22 1754   2.916   3.435   3.220  0.2641 -0.0548 -0.8800
   14SAPS   C22 1755   3.050   3.511   3.409 -0.1321 -0.5843 -0.2027
   14SAPS   H2R 1756   3.122   3.434   3.444 -0.3811 -0.9150 -0.4128
   14SAPS   H2S 1757   3.096   3.584   3.339 -0.8930 -1.8297 -2.0915
   14SAPS    C3 1758   2.672   3.217   3.449 -0.1787 -0.4634 -0.1152
   14SAPS    HX 1759   2.632   3.121   3.408 -1.5626  0.5884 -1.3124
   14SAPS    HY 1760   2.604   3.303   3.431  0.4037  0.1304  0.4465
   14SAPS   O31 1761   2.706   3.200   3.589 -0.5030  0.3459  0.2171
   14SAPS   C31 1762   2.699   3.306   3.663 -0.1078  0.0332  0.1186
   14SAPS   O32 1763   2.653   3.412   3.629  0.0016 -0.5141  0.1252
   14SAPS   C32 1764   2.744   3.278   3.807 -0.0536 -0.3722 -0.2609
   14SAPS   H2X 1765   2.840   3.224   3.791  0.4501  0.8707 -1.6359
   14SAPS   H2Y 1766   2.675   3.209   3.859  0.7043 -0.9597 -0.0189
   14SAPS   C23 1767   3.001   3.583   3.541  1.2003  0.1476 -0.0909
   14SAPS   H3R 1768   2.949   3.507   3.604  1.0515 -0.9455 -1.4789
   14SAPS   H3S 1769   2.916   3.653   3.527 -2.1260 -3.1333  1.7668
   14SAPS   C24 1770   3.105   3.630   3.638  0.8519 -0.2679  0.0781
   14SAPS   H4R 1771   3.172   3.542   3.647  0.8807 -0.1152  1.6326
   14SAPS   H4S 1772   3.061   3.645   3.739  0.3916  1.7804 -0.3695
   14SAPS   C25 1773   3.172   3.763   3.602  0.0940  0.6952  0.3066
   14SAPS   H5R 1774   3.117   3.810   3.519 -2.5288 -0.8856  1.0320
   14SAPS   C26 1775   3.290   3.805   3.646  0.3279 -0.4348  0.3506
   14SAPS   H6R 1776   3.322   3.904   3.612 -1.8928  0.1509 -0.2161
   14SAPS   C27 1777   3.371   3.744   3.760 -0.8028 -0.4513 -0.2400
   14SAPS   H7R 1778   3.338   3.641   3.782  1.0376 -0.8444  0.8311
   14SAPS   H7S 1779   3.343   3.805   3.848  0.7346  0.9776 -0.6837
   14SAPS   C28 1780   3.519   3.753   3.725 -0.5696 -0.3154 -0.6802
   14SAPS   H8R 1781   3.546   3.726   3.623  0.3303 -0.7533 -0.3316
   14SAPS   C29 1782   3.616   3.762   3.822 -0.0955  0.4267  0.0570
   14SAPS   H9R 1783   3.722   3.764   3.792 -0.0630  2.9834  0.1575
   14SAPS  C210 1784   3.596   3.795   3.964  0.2426  0.2319 -0.1762
   14SAPS  H10R 1785   3.493   3.769   3.997 -1.1948  0.9352 -3.6415
   14SAPS  H10S 1786   3.608   3.904   3.980 -1.4646  0.3863  0.1945
   14SAPS  C211 1787   3.690   3.707   4.038 -0.3307 -0.3266 -0.0577
   14SAPS  H11R 1788   3.708   3.604   4.005  0.3363  0.0963 -1.0341
   14SAPS  C212 1789   3.743   3.738   4.160  0.1178  0.2790  0.1003
   14SAPS  H12R 1790   3.809   3.662   4.205 -0.4907 -1.2288 -1.4325
   14SAPS  C213 1791   3.718   3.870   4.240  0.0922  1.1321 -0.4168
   14SAPS  H13R 1792   3.678   3.846   4.341 -0.2955  0.2739 -0.7662
   14SAPS  H13S 1793   3.650   3.944   4.194  0.2443  0.8147 -1.1541
   14SAPS  C214 1794   3.846   3.942   4.254 -0.4717 -0.2800  0.8586
   14SAPS  H14R 1795   3.917   3.931   4.170  0.2397 -0.5528  1.4870
   14SAPS  C215 1796   3.893   4.012   4.355  0.1128 -1.0395 -0.0013
   14SAPS  H15R 1797   3.991   4.060   4.342  0.5125 -1.4274  1.3766
   14SAPS  C216 1798   3.815   4.041   4.484 -0.2060 -0.1930  0.4652
   14SAPS  H16R 1799   3.848   3.951   4.541 -0.0197  0.5369  1.5261
   14SAPS  H16S 1800   3.706   4.026   4.466  0.0139  1.4949 -3.4006
   14SAPS  C217 1801   3.855   4.165   4.556  0.6040 -0.6121  0.2981
   14SAPS  H17R 1802   3.835   4.262   4.506 -0.3984 -0.5257  0.8463
   14SAPS  H17S 1803   3.961   4.169   4.587 -0.0328  0.5714  2.5643
   14SAPS  C218 1804   3.769   4.179   4.683  0.2755  0.4635  0.2867
   14SAPS  H18R 1805   3.785   4.091   4.749 -0.2141  1.4034  1.6924
   14SAPS  H18S 1806   3.666   4.180   4.643  1.1196  0.1949 -2.0621
   14SAPS  C219 1807   3.795   4.310   4.762 -0.1311 -0.8438  0.2488
   14SAPS  H19R 1808   3.771   4.392   4.691 -1.5334 -0.8313  0.7093
   14SAPS  H19S 1809   3.903   4.324   4.785 -0.5683 -0.9694  2.6552
   14SAPS  C220 1810   3.704   4.328   4.879 -0.8618  0.0783 -0.0917
   14SAPS  H20R 1811   3.604   4.337   4.833 -0.2821  0.5422 -1.3050
   14SAPS  H20S 1812   3.731   4.418   4.938  2.2854 -0.9962  0.3349
   14SAPS  H20T 1813   3.704   4.240   4.947 -0.1676 -0.0521 -0.2515
   14SAPS   C33 1814   2.754   3.402   3.897  0.6225  0.5050  0.0935
   14SAPS   H3X 1815   2.664   3.465   3.879 -0.0554 -0.3360  0.4544
   14SAPS   H3Y 1816   2.838   3.471   3.874  0.5301  1.0661  1.3546
   14SAPS   C34 1817   2.763   3.365   4.045 -0.3442  0.0433 -0.1582
   14SAPS   H4X 1818   2.840   3.286   4.059 -1.7855 -1.1909  1.3426
   14SAPS   H4Y 1819   2.662   3.332   4.077 -1.3467  1.2265 -1.9818
   14SAPS   C35 1820   2.794   3.487   4.128 -0.0131 -0.4266 -0.0427
   14SAPS   H5X 1821   2.771   3.460   4.233 -2.3847 -2.1382 -0.8998
   14SAPS   H5Y 1822   2.733   3.572   4.092  1.4704  0.3541 -0.7955
   14SAPS   C36 1823   2.942   3.525   4.102  0.5218  0.3994  0.1135
   14SAPS   H6X 1824   2.965   3.559   3.998 -1.3632 -0.8308 -0.7611
   14SAPS   H6Y 1825   3.007   3.438   4.126  0.3074 -0.1210 -1.0794
   14SAPS   C37 1826   2.984   3.634   4.203 -0.0461 -1.1017 -0.2838
   14SAPS   H7X 1827   2.966   3.616   4.311 -0.5279  2.0894  0.2491
   14SAPS   H7Y 1828   2.907   3.712   4.189  0.7664  0.1670  1.8650
   14SAPS   C38 1829   3.133   3.681   4.188 -0.0255  0.6651 -0.5455
   14SAPS   H8X 1830   3.148   3.711   4.083 -1.5866  4.9438  0.2421
   14SAPS   H8Y 1831   3.184   3.589   4.224  1.6057  3.2871  5.0667
   14SAPS   C39 1832   3.167   3.797   4.285  0.1033 -0.5130 -0.2100
   14SAPS   H9X 1833   3.136   3.776   4.390  1.6499  1.2126  0.6618
   14SAPS   H9Y 1834   3.123   3.893   4.251 -1.3627 -0.3903  1.8597
   14SAPS  C310 1835   3.316   3.815   4.278  0.3289 -0.7026  0.0838
   14SAPS  H10X 1836   3.349   3.844   4.176  0.2521 -1.0826 -0.0501
   14SAPS  H10Y 1837   3.366   3.719   4.302  0.6329 -0.6283 -0.2346
   14SAPS  C311 1838   3.369   3.915   4.381  0.5816  0.4041  0.0425
   14SAPS  H11X 1839   3.320   4.015   4.377  1.8821  1.0111 -2.2991
   14SAPS  H11Y 1840   3.473   3.937   4.350  0.4351 -0.5735 -1.2137
   14SAPS  C312 1841   3.385   3.865   4.526 -0.1061  0.3319  0.1955
   14SAPS  H12X 1842   3.470   3.792   4.529 -0.0543  0.3058 -1.3056
   14SAPS  H12Y 1843   3.289   3.814   4.548 -0.1967  0.6684  0.5913
   14SAPS  C313 1844   3.408   3.973   4.626  0.4583 -0.2802 -0.1158
   14SAPS  H13X 1845   3.324   4.045   4.628  0.3117 -0.4467 -0.2475
   14SAPS  H13Y 1846   3.495   4.035   4.593  0.7654 -0.7072 -0.1097
   14SAPS  C314 1847   3.437   3.928   4.772 -0.9754 -0.2730  0.1096
   14SAPS  H14X 1848   3.538   3.884   4.785 -0.1660  1.4027 -0.2545
   14SAPS  H14Y 1849   3.376   3.838   4.794 -0.8400 -0.5313 -0.5439
   14SAPS  C315 1850   3.413   4.044   4.870 -0.7060  0.1945  0.3775
   14SAPS  H15X 1851   3.307   4.065   4.892  0.0654 -0.3219  6.0686
   14SAPS  H15Y 1852   3.469   4.134   4.834  1.4923 -0.8458  0.9866
   14SAPS  C316 1853   3.463   4.019   5.014 -0.7396  0.3225 -0.0334
   14SAPS  H16X 1854   3.568   3.984   5.011 -0.3879  1.3809 -3.1103
   14SAPS  H16Y 1855   3.408   3.936   5.064  0.7428 -0.9413 -0.4235
   14SAPS  C317 1856   3.461   4.146   5.099 -0.0016  0.3772  0.0433
   14SAPS  H17X 1857   3.359   4.162   5.140 -2.1994 -0.4087 -4.3999
   14SAPS  H17Y 1858   3.477   4.230   5.028  1.0072 -0.7446 -1.1193
   14SAPS  C318 1859   3.570   4.152   5.207  0.6819  0.1626 -0.2733
   14SAPS  H18X 1860   3.672   4.152   5.164  0.8576  3.8098 -0.1489
   14SAPS  H18Y 1861   3.564   4.063   5.273  2.4200 -1.5139 -2.2186
   14SAPS  H18Z 1862   3.565   4.241   5.272  0.6960 -1.2940  1.8306
   15SAPS     N 1863   1.712   6.856   2.634  0.2885  0.7712  0.1152
   15SAPS   HN1 1864   1.769   6.814   2.558  1.2103 -1.1871  1.7955
   15SAPS   HN2 1865   1.724   6.800   2.721 -1.1151 -1.7150 -1.1888
   15SAPS   HN3 1866   1.610   6.851   2.613  0.0059  1.3915  1.2682
   15SAPS   C12 1867   1.749   6.993   2.666 -0.1537 -0.1059  0.8517
   15SAPS  H12A 1868   1.854   6.987   2.690 -0.3586 -2.5946  1.3812
   15SAPS   C13 1869   1.722   7.102   2.555 -0.3194 -0.4989 -0.5339
   15SAPS  O13A 1870   1.672   7.060   2.444 -0.2872 -0.3077  0.1031
   15SAPS  O13B 1871   1.770   7.216   2.572 -0.4450 -0.4769  0.6061
   15SAPS   C11 1872   1.671   7.041   2.797 -0.9143  0.7822  0.1282
   15SAPS  H11A 1873   1.562   7.031   2.779 -0.5206 -2.3673 -1.0599
   15SAPS  H11B 1874   1.692   7.149   2.814 -0.1570  0.7281 -0.4396
   15SAPS     P 1875   1.821   6.997   3.012 -0.6715 -0.0400  0.1974
   15SAPS   O13 1876   1.836   6.882   3.110  0.2736  0.5142 -0.0733
   15SAPS   O14 1877   1.948   7.039   2.945  0.1940  0.3298  0.1143
   15SAPS   O12 1878   1.708   6.960   2.910 -0.3689  0.4695  0.9285
   15SAPS   O11 1879   1.758   7.130   3.079 -0.1675 -0.4001  0.1177
   15SAPS    C1 1880   1.664   7.117   3.183  0.3840 -0.4566  0.1059
   15SAPS    HA 1881   1.574   7.175   3.153  0.2542 -0.4588  0.4780
   15SAPS    HB 1882   1.636   7.009   3.188 -0.7417 -0.1632  0.4032
   15SAPS    C2 1883   1.701   7.173   3.317 -0.3869 -0.1867 -0.1582
   15SAPS    HS 1884   1.622   7.131   3.384 -1.0940 -1.5470 -1.7781
   15SAPS   O21 1885   1.677   7.310   3.318  0.6332 -0.7708  0.0102
   15SAPS   C21 1886   1.757   7.403   3.275  0.0707 -0.2249 -0.7660
   15SAPS   O22 1887   1.856   7.385   3.203 -0.0792  0.1156 -0.7253
   15SAPS   C22 1888   1.700   7.534   3.321  0.6090  0.6666  0.0544
   15SAPS   H2R 1889   1.749   7.616   3.265  0.6078 -0.0575 -1.0361
   15SAPS   H2S 1890   1.591   7.533   3.299  0.4276  1.3081  0.8781
   15SAPS    C3 1891   1.839   7.133   3.369  0.0038  0.6660  0.0646
   15SAPS    HX 1892   1.917   7.164   3.296  0.4190  0.2170  0.3108
   15SAPS    HY 1893   1.833   7.022   3.380  4.2772 -0.0183 -2.0680
   15SAPS   O31 1894   1.843   7.190   3.501  0.7825  0.2334  0.0772
   15SAPS   C31 1895   1.953   7.170   3.570 -0.2288 -0.3429  0.1208
   15SAPS   O32 1896   2.060   7.119   3.532 -0.6939 -0.4994 -0.2653
   15SAPS   C32 1897   1.932   7.221   3.713  0.0051  0.3054 -0.4429
   15SAPS   H2X 1898   1.849   7.166   3.763 -1.3260  0.7039 -2.1295
   15SAPS   H2Y 1899   1.882   7.320   3.711 -0.3426  0.1432  0.1214
   15SAPS   C23 1900   1.706   7.546   3.474  0.5418  0.0795 -0.1879
   15SAPS   H3R 1901   1.670   7.451   3.519  2.2475 -2.0822 -2.9915
   15SAPS   H3S 1902   1.638   7.622   3.516 -0.5277 -0.5579 -0.7196
   15SAPS   C24 1903   1.848   7.570   3.541 -0.4123  0.4536  0.0939
   15SAPS   H4R 1904   1.922   7.493   3.510 -1.1655  1.1350 -3.9997
   15SAPS   H4S 1905   1.836   7.534   3.646 -1.0883 -0.9286 -0.4334
   15SAPS   C25 1906   1.910   7.710   3.523  0.0866  0.0724  0.0026
   15SAPS   H5R 1907   1.921   7.746   3.419  2.2740 -0.4612 -0.0106
   15SAPS   C26 1908   1.951   7.797   3.616 -1.0887 -0.6736  0.0748
   15SAPS   H6R 1909   2.014   7.883   3.586 -0.1394 -0.4247  2.5987
   15SAPS   C27 1910   1.946   7.781   3.766  0.2871  0.1028  0.4010
   15SAPS   H7R 1911   2.048   7.801   3.806 -0.3396  2.1124  1.1250
   15SAPS   H7S 1912   1.935   7.672   3.785  1.9018 -0.2746 -0.6891
   15SAPS   C28 1913   1.846   7.869   3.844 -0.9077 -1.1684  0.5636
   15SAPS   H8R 1914   1.788   7.936   3.780  1.9899 -1.3994 -2.5818
   15SAPS   C29 1915   1.823   7.862   3.975 -0.3392 -0.0041 -0.5636
   15SAPS   H9R 1916   1.759   7.935   4.028  1.1990 -1.0004  3.0017
   15SAPS  C210 1917   1.891   7.762   4.065  0.0871  0.0148 -0.6488
   15SAPS  H10R 1918   1.980   7.806   4.116 -1.0894  0.0914  1.4199
   15SAPS  H10S 1919   1.912   7.665   4.016 -2.2378 -0.7956 -0.1379
   15SAPS  C211 1920   1.804   7.710   4.183 -0.1391  0.0683  0.7199
   15SAPS  H11R 1921   1.702   7.747   4.167  0.3247  0.6349 -1.2515
   15SAPS  C212 1922   1.846   7.642   4.290 -0.6568  0.0219 -0.2434
   15SAPS  H12R 1923   1.769   7.599   4.356 -1.5924  0.9173 -0.7119
   15SAPS  C213 1924   1.994   7.615   4.312 -0.1151 -0.2237  0.2922
   15SAPS  H13R 1925   2.056   7.681   4.248  0.4083  0.9310  1.9007
   15SAPS  H13S 1926   1.999   7.514   4.266  0.1182  0.3486 -0.9813
   15SAPS  C214 1927   2.030   7.634   4.461 -0.2693  0.3188  0.5354
   15SAPS  H14R 1928   2.073   7.732   4.489 -1.2833  0.2598  2.4325
   15SAPS  C215 1929   2.016   7.535   4.554  0.1296 -0.4452 -0.4950
   15SAPS  H15R 1930   2.063   7.557   4.651  0.1348  2.0883 -0.9984
   15SAPS  C216 1931   1.956   7.399   4.535 -0.5598 -0.0966  0.4961
   15SAPS  H16R 1932   2.031   7.338   4.479 -0.6752  0.5922 -0.4445
   15SAPS  H16S 1933   1.873   7.408   4.462 -0.4082 -0.1615  0.3119
   15SAPS  C217 1934   1.916   7.336   4.667  0.7192 -0.1953 -0.1427
   15SAPS  H17R 1935   1.991   7.360   4.746  0.7818  1.2533 -0.6052
   15SAPS  H17S 1936   1.901   7.227   4.657 -0.7165 -0.2006  1.4412
   15SAPS  C218 1937   1.775   7.387   4.718 -0.1136  0.1126 -0.0574
   15SAPS  H18R 1938   1.693   7.339   4.661  1.9562 -0.9486 -2.3127
   15SAPS  H18S 1939   1.772   7.495   4.692  1.9750  0.5226  1.1852
   15SAPS  C219 1940   1.739   7.363   4.868 -0.2097  0.2245 -0.7873
   15SAPS  H19R 1941   1.803   7.429   4.931 -1.4641  1.2544 -0.5524
   15SAPS  H19S 1942   1.759   7.256   4.887 -2.6441 -0.2351 -0.4462
   15SAPS  C220 1943   1.592   7.400   4.897 -0.0253  0.3529  0.2697
   15SAPS  H20R 1944   1.516   7.343   4.840 -1.1065  2.2247 -0.2738
   15SAPS  H20S 1945   1.583   7.501   4.852 -0.2525 -0.0536 -0.6230
   15SAPS  H20T 1946   1.564   7.399   5.005  1.2938  0.5184  0.6293
   15SAPS   C33 1947   2.061   7.220   3.805  0.7172 -0.0386  0.3471
   15SAPS   H3X 1948   2.148   7.253   3.745 -0.5437  2.1196 -0.3835
   15SAPS   H3Y 1949   2.083   7.112   3.824 -0.9279 -0.3542  0.5757
   15SAPS   C34 1950   2.053   7.288   3.943  0.3213  0.1355  0.2120
   15SAPS   H4X 1951   2.028   7.395   3.925 -2.7181 -0.4383  0.5424
   15SAPS   H4Y 1952   2.151   7.278   3.995  0.0576 -2.4300  0.3303
   15SAPS   C35 1953   1.946   7.233   4.046 -0.5064  1.1241  0.2199
   15SAPS   H5X 1954   1.986   7.257   4.147 -2.3388  1.2215  0.9643
   15SAPS   H5Y 1955   1.946   7.122   4.039  0.5650  1.1062  0.4649
   15SAPS   C36 1956   1.801   7.279   4.046  0.1776 -0.9388 -0.1183
   15SAPS   H6X 1957   1.765   7.272   3.941  3.2896  0.7555 -1.4183
   15SAPS   H6Y 1958   1.814   7.385   4.074  1.3684 -0.9351 -0.6389
   15SAPS   C37 1959   1.694   7.209   4.132 -0.8252  0.1337  0.0337
   15SAPS   H7X 1960   1.733   7.206   4.236 -0.3187  0.1155 -0.1551
   15SAPS   H7Y 1961   1.682   7.102   4.107  0.8160  0.1657 -1.0805
   15SAPS   C38 1962   1.554   7.281   4.121  0.0955 -0.3239 -0.8855
   15SAPS   H8X 1963   1.505   7.264   4.022 -2.4688  1.7929 -0.1053
   15SAPS   H8Y 1964   1.566   7.392   4.127 -3.1999  0.2143 -2.2758
   15SAPS   C39 1965   1.467   7.246   4.234  0.3369 -0.3542  0.5655
   15SAPS   H9X 1966   1.377   7.308   4.254  0.5458 -0.4901  2.0724
   15SAPS   H9Y 1967   1.520   7.259   4.331 -0.4161  3.0312  0.6742
   15SAPS  C310 1968   1.426   7.094   4.230  0.5970  0.3941  0.0681
   15SAPS  H10X 1969   1.521   7.037   4.241  0.9727  1.2922  1.6030
   15SAPS  H10Y 1970   1.389   7.068   4.128  1.4128 -1.4381  0.1954
   15SAPS  C311 1971   1.331   7.063   4.350 -0.1930 -0.1544 -0.5080
   15SAPS  H11X 1972   1.260   6.981   4.325  0.6969 -1.9090  2.2650
   15SAPS  H11Y 1973   1.271   7.152   4.374  0.9796  0.7036 -0.6615
   15SAPS  C312 1974   1.402   7.031   4.482  0.7298  0.3626 -0.7048
   15SAPS  H12X 1975   1.463   7.116   4.520  1.4115 -0.3079 -0.2658
   15SAPS  H12Y 1976   1.470   6.944   4.463  3.2013  1.2755  2.7815
   15SAPS  C313 1977   1.296   6.998   4.590 -0.6736 -0.6180  0.5729
   15SAPS  H13X 1978   1.217   6.925   4.561 -0.2774 -1.0957  0.6890
   15SAPS  H13Y 1979   1.240   7.091   4.615  1.3139  0.2790  1.9286
   15SAPS  C314 1980   1.367   6.964   4.719  0.1140  0.0752 -0.1401
   15SAPS  H14X 1981   1.423   6.870   4.700  1.7723  1.5841 -3.5971
   15SAPS  H14Y 1982   1.278   6.936   4.780 -0.5160 -1.8228 -1.8018
   15SAPS  C315 1983   1.467   7.056   4.772  0.1640 -0.5400 -0.4768
   15SAPS  H15X 1984   1.440   7.162   4.755  0.8126 -0.1994  0.5163
   15SAPS  H15Y 1985   1.560   7.035   4.716  0.1767  0.0170 -0.6714
   15SAPS  C316 1986   1.489   7.036   4.915  0.3474 -0.2827 -0.8065
   15SAPS  H16X 1987   1.568   7.107   4.949  0.1158  0.0520 -0.9612
   15SAPS  H16Y 1988   1.509   6.929   4.934 -1.4917 -0.5249  0.0299
   15SAPS  C317 1989   1.368   7.074   5.014 -0.0014 -0.2866  0.3336
   15SAPS  H17X 1990   1.284   7.000   5.012  1.9100 -2.5570 -1.5053
   15SAPS  H17Y 1991   1.332   7.169   4.970  0.7241 -0.5083 -0.7703
   15SAPS  C318 1992   1.411   7.094   5.151 -0.3989 -1.0769  0.0524
   15SAPS  H18X 1993   1.334   7.140   5.216  0.0359 -1.2362  0.6884
   15SAPS  H18Y 1994   1.501   7.158   5.150 -2.4670  2.0325 -0.8314
   15SAPS  H18Z 1995   1.439   7.000   5.203  1.8846 -1.6930 -2.1035
   16SAPS     N 1996   0.401   1.343   3.248 -0.1366 -0.2345 -0.2711
   16SAPS   HN1 1997   0.350   1.253   3.236  0.6253 -1.3517  3.3948
   16SAPS   HN2 1998   0.449   1.335   3.340 -1.6314  0.5977  0.6437
   16SAPS   HN3 1999   0.335   1.424   3.253 -0.3913 -0.5078  1.7503
   16SAPS   C12 2000   0.489   1.362   3.132 -0.1355  0.3388  0.4260
   16SAPS  H12A 2001   0.563   1.286   3.154 -0.8636 -0.3102  0.6848
   16SAPS   C13 2002   0.431   1.339   2.988 -0.0140  0.4671 -0.1147
   16SAPS  O13A 2003   0.312   1.305   2.966 -0.1274 -0.6479  0.4012
   16SAPS  O13B 2004   0.518   1.353   2.893 -0.0333  0.2220 -0.1699
   16SAPS   C11 2005   0.575   1.492   3.150  0.2383 -0.4664  0.0161
   16SAPS  H11A 2006   0.497   1.570   3.164  0.9169  0.2949 -0.3127
   16SAPS  H11B 2007   0.625   1.517   3.053 -2.6568  1.4005 -1.1396
   16SAPS     P 2008   0.793   1.583   3.260 -0.1008 -0.2374 -0.3386
   16SAPS   O13 2009   0.914   1.508   3.293 -0.3475 -0.3514  0.3075
   16SAPS   O14 2010   0.802   1.657   3.133  0.2508 -0.0561  0.2532
   16SAPS   O12 2011   0.664   1.494   3.261 -0.0428  0.3598 -0.2861
   16SAPS   O11 2012   0.769   1.687   3.377  0.0326  0.2160  0.2840
   16SAPS    C1 2013   0.654   1.772   3.387  1.0070  0.3680  0.0544
   16SAPS    HA 2014   0.690   1.875   3.401 -1.3541  1.7798 -2.9702
   16SAPS    HB 2015   0.599   1.775   3.290  2.9597  1.1353 -1.0848
   16SAPS    C2 2016   0.563   1.725   3.502 -0.7213  0.5703  0.9884
   16SAPS    HS 2017   0.480   1.799   3.503  0.2034  1.6314  2.1367
   16SAPS   O21 2018   0.629   1.734   3.628 -0.0900 -0.1514 -0.0979
   16SAPS   C21 2019   0.637   1.858   3.680  0.1522  0.1738  0.5057
   16SAPS   O22 2020   0.595   1.962   3.629 -0.1355  0.3329  0.1982
   16SAPS   C22 2021   0.716   1.851   3.809 -1.1188 -0.2987  0.5333
   16SAPS   H2R 2022   0.752   1.748   3.834  1.4531  0.2332 -0.5790
   16SAPS   H2S 2023   0.811   1.904   3.785 -0.5323 -2.3652 -2.2349
   16SAPS    C3 2024   0.512   1.578   3.489  0.0430 -0.2959 -0.1202
   16SAPS    HX 2025   0.606   1.519   3.495  1.8795  2.4773  0.9596
   16SAPS    HY 2026   0.460   1.571   3.391 -0.3208 -0.8344  0.1094
   16SAPS   O31 2027   0.431   1.548   3.602 -0.0001  0.3103 -0.2168
   16SAPS   C31 2028   0.399   1.423   3.614  0.2002 -0.4236  0.0408
   16SAPS   O32 2029   0.443   1.336   3.545  0.5707  0.0004 -0.2719
   16SAPS   C32 2030   0.312   1.404   3.740 -0.1931  0.0833 -0.8829
   16SAPS   H2X 2031   0.296   1.296   3.761  1.1255  0.2155  1.0092
   16SAPS   H2Y 2032   0.211   1.439   3.707 -0.6864  0.0514  0.5295
   16SAPS   C23 2033   0.659   1.929   3.931 -0.4324  0.1083 -0.7569
   16SAPS   H3R 2034   0.605   2.018   3.895 -2.2976 -0.9038 -0.5861
   16SAPS   H3S 2035   0.745   1.950   3.999 -1.2539  1.0729  0.0083
   16SAPS   C24 2036   0.548   1.844   3.998  0.4105 -0.2518  0.2528
   16SAPS   H4R 2037   0.472   1.819   3.921  2.2227 -0.6170 -1.4823
   16SAPS   H4S 2038   0.495   1.905   4.075  0.0691 -1.1607  0.7484
   16SAPS   C25 2039   0.607   1.710   4.047  0.6547  0.0882  0.4227
   16SAPS   H5R 2040   0.625   1.644   3.961  1.1762  2.0180 -1.0176
   16SAPS   C26 2041   0.637   1.665   4.171  0.1042  0.3818 -0.0661
   16SAPS   H6R 2042   0.667   1.562   4.194 -4.6982 -2.0304 -3.0042
   16SAPS   C27 2043   0.619   1.750   4.290 -0.0899 -0.4862  0.2860
   16SAPS   H7R 2044   0.515   1.735   4.326 -0.6145 -1.0847 -1.3664
   16SAPS   H7S 2045   0.635   1.859   4.276  0.9600 -0.4040  1.7996
   16SAPS   C28 2046   0.716   1.706   4.397 -0.2810  0.5322  0.3298
   16SAPS   H8R 2047   0.778   1.620   4.367 -0.7446  0.2408  0.1920
   16SAPS   C29 2048   0.748   1.754   4.516 -0.6272  0.3340  0.4945
   16SAPS   H9R 2049   0.826   1.703   4.575  0.5467  0.0247 -1.2524
   16SAPS  C210 2050   0.690   1.886   4.577  0.1748  0.1752 -0.0231
   16SAPS  H10R 2051   0.669   1.955   4.493  0.5422  0.9638  0.5231
   16SAPS  H10S 2052   0.769   1.924   4.645  1.1261  0.4648 -1.2432
   16SAPS  C211 2053   0.573   1.853   4.667 -0.1292 -0.1660  0.6168
   16SAPS  H11R 2054   0.521   1.762   4.634 -2.1373  1.5507 -1.2484
   16SAPS  C212 2055   0.533   1.909   4.780  0.0558 -0.2886 -0.0897
   16SAPS  H12R 2056   0.438   1.876   4.825 -1.0063 -2.2278 -3.4586
   16SAPS  C213 2057   0.589   2.036   4.829 -0.2956  0.8776  0.3911
   16SAPS  H13R 2058   0.507   2.108   4.853 -0.6212  0.3818  0.7914
   16SAPS  H13S 2059   0.660   2.074   4.752 -0.2266 -0.3109 -0.1550
   16SAPS  C214 2060   0.667   2.010   4.959 -0.0276  0.7989 -0.1530
   16SAPS  H14R 2061   0.632   1.922   5.015 -3.7698  0.9845 -1.9024
   16SAPS  C215 2062   0.752   2.103   5.011  0.1367  0.0995  0.7494
   16SAPS  H15R 2063   0.809   2.093   5.104  2.0213  1.0612 -0.2555
   16SAPS  C216 2064   0.774   2.238   4.949 -0.2837 -0.1373 -0.0371
   16SAPS  H16R 2065   0.736   2.233   4.844 -1.4800  0.8507  0.3245
   16SAPS  H16S 2066   0.884   2.251   4.949 -0.2639 -0.2803  0.9007
   16SAPS  C217 2067   0.695   2.349   5.030  0.0047 -0.2243  0.2197
   16SAPS  H17R 2068   0.723   2.342   5.137 -2.4280  1.7581  1.0647
   16SAPS  H17S 2069   0.587   2.345   5.007  0.5161 -0.5571 -2.4376
   16SAPS  C218 2070   0.727   2.488   4.976 -0.7751  0.7909  0.1678
   16SAPS  H18R 2071   0.684   2.501   4.874  0.4418 -0.3430 -0.5152
   16SAPS  H18S 2072   0.837   2.501   4.964 -0.8094  0.3845 -0.7079
   16SAPS  C219 2073   0.671   2.612   5.046  0.6917 -0.7039  0.4208
   16SAPS  H19R 2074   0.697   2.618   5.154  0.3382  2.6697  0.4296
   16SAPS  H19S 2075   0.560   2.610   5.034  0.3852  4.5994  0.0796
   16SAPS  C220 2076   0.716   2.748   4.989  0.1798  0.1710  0.1763
   16SAPS  H20R 2077   0.825   2.759   5.004  0.8856 -0.0539 -3.6351
   16SAPS  H20S 2078   0.677   2.843   5.031  0.5796  0.9377 -1.1210
   16SAPS  H20T 2079   0.691   2.764   4.882 -0.1370  0.3994  0.2849
   16SAPS   C33 2080   0.370   1.465   3.869  0.3482  0.0659  0.0520
   16SAPS   H3X 2081   0.378   1.573   3.846 -0.5350 -0.3275 -2.3616
   16SAPS   H3Y 2082   0.476   1.439   3.888  0.4376  0.0117 -0.5228
   16SAPS   C34 2083   0.280   1.421   3.988  0.5770 -0.0236  0.1190
   16SAPS   H4X 2084   0.301   1.314   4.006  1.4951 -0.0209 -0.8329
   16SAPS   H4Y 2085   0.175   1.437   3.957  0.3512  1.1478  1.3940
   16SAPS   C35 2086   0.316   1.492   4.123  0.4269  0.1046 -0.8315
   16SAPS   H5X 2087   0.316   1.600   4.100 -0.1736 -0.0970 -1.9037
   16SAPS   H5Y 2088   0.421   1.469   4.152 -0.3032 -2.2726  0.2040
   16SAPS   C36 2089   0.224   1.455   4.234  0.4568 -0.5713 -0.4025
   16SAPS   H6X 2090   0.217   1.345   4.241 -0.3530 -0.4435  1.4642
   16SAPS   H6Y 2091   0.127   1.506   4.214  0.8829  0.4889  0.1212
   16SAPS   C37 2092   0.272   1.521   4.366 -0.5380 -0.3608  0.3042
   16SAPS   H7X 2093   0.274   1.630   4.345  2.3957 -0.0482  1.6051
   16SAPS   H7Y 2094   0.374   1.489   4.399 -1.3254 -3.4271  0.0155
   16SAPS   C38 2095   0.186   1.499   4.487 -0.3271 -1.1819  0.2830
   16SAPS   H8X 2096   0.169   1.390   4.493  3.5792 -1.9429  0.2273
   16SAPS   H8Y 2097   0.089   1.552   4.478  0.7699  1.2511  1.6774
   16SAPS   C39 2098   0.251   1.545   4.622 -0.4839  0.3073  0.2382
   16SAPS   H9X 2099   0.274   1.653   4.625 -2.6452  0.8723 -0.8825
   16SAPS   H9Y 2100   0.341   1.486   4.651 -1.9512 -1.4987  1.4156
   16SAPS  C310 2101   0.150   1.516   4.739 -0.3646  0.4083 -0.0501
   16SAPS  H10X 2102   0.113   1.412   4.726 -0.4078  0.4747 -0.4742
   16SAPS  H10Y 2103   0.063   1.586   4.742 -0.0071  0.9118 -0.9404
   16SAPS  C311 2104   0.212   1.507   4.884  0.1737  0.5226  0.9860
   16SAPS  H11X 2105   0.305   1.447   4.883  1.8744  2.9526 -1.4371
   16SAPS  H11Y 2106   0.143   1.454   4.953  0.9732 -2.3135 -0.2379
   16SAPS  C312 2107   0.249   1.644   4.937  0.4321  0.7941 -0.0807
   16SAPS  H12X 2108   0.166   1.717   4.948  0.0721  0.4692 -0.6528
   16SAPS  H12Y 2109   0.315   1.687   4.858  0.4938 -3.6149 -2.7474
   16SAPS  C313 2110   0.315   1.629   5.081 -0.0128 -0.9165  0.7507
   16SAPS  H13X 2111   0.413   1.577   5.074 -0.0455 -0.8554 -0.3384
   16SAPS  H13Y 2112   0.251   1.567   5.147 -0.9045  0.1250  0.8946
   16SAPS  C314 2113   0.319   1.769   5.150 -0.0026  0.1086  0.4845
   16SAPS  H14X 2114   0.231   1.826   5.112  0.0693 -1.0548 -1.5769
   16SAPS  H14Y 2115   0.405   1.822   5.104  0.7940 -2.2438 -0.9330
   16SAPS  C315 2116   0.345   1.750   5.300  0.2728 -0.3730  0.2064
   16SAPS  H15X 2117   0.248   1.739   5.353 -0.0328  0.3367 -0.1959
   16SAPS  H15Y 2118   0.391   1.845   5.334  1.3378 -0.4542 -0.9580
   16SAPS  C316 2119   0.452   1.644   5.323 -0.1796  0.2556 -0.4466
   16SAPS  H16X 2120   0.546   1.670   5.271  0.1297  1.2082  0.5502
   16SAPS  H16Y 2121   0.416   1.543   5.293 -2.1293  1.2108 -1.4639
   16SAPS  C317 2122   0.488   1.640   5.472 -1.1511  0.2343  0.3357
   16SAPS  H17X 2123   0.532   1.736   5.506 -0.2366 -0.1884  0.3811
   16SAPS  H17Y 2124   0.563   1.560   5.488 -0.7832  0.2954 -1.0044
   16SAPS  C318 2125   0.366   1.609   5.564  0.0342  0.4121 -0.3288
   16SAPS  H18X 2126   0.306   1.519   5.538  1.4061 -1.2889  1.9618
   16SAPS  H18Y 2127   0.294   1.694   5.565  0.1495  0.5293 -1.1776
   16SAPS  H18Z 2128   0.397   1.602   5.671 -1.0827  1.3166  0.0814
   17SAPS     N 2129   4.010   2.044   2.940  0.9912  0.0530  0.5034
   17SAPS   HN1 2130   3.918   2.060   2.894  1.5082 -0.0047 -0.6045
   17SAPS   HN2 2131   4.020   2.123   3.007 -1.5242  0.6253  0.3209
   17SAPS   HN3 2132   4.089   2.041   2.872 -0.4636  0.5134 -1.2854
   17SAPS   C12 2133   4.008   1.920   3.020  0.3313 -0.0386 -0.2409
   17SAPS  H12A 2134   3.943   1.929   3.106 -0.1785  0.1502 -0.6410
   17SAPS   C13 2135   3.964   1.797   2.942 -0.1700 -0.7283 -0.0767
   17SAPS  O13A 2136   3.918   1.820   2.824  0.0068  0.1860  0.1906
   17SAPS  O13B 2137   3.940   1.690   3.003  0.3938 -0.5395 -0.3866
   17SAPS   C11 2138   4.161   1.884   3.066  1.0303  0.3978 -0.9300
   17SAPS  H11A 2139   4.166   1.788   3.121  0.6151 -0.2602 -1.9949
   17SAPS  H11B 2140   4.207   1.960   3.133  3.9197 -0.9152 -1.2952
   17SAPS     P 2141   4.342   1.957   2.906  0.1902 -0.2801  0.0952
   17SAPS   O13 2142   4.423   1.899   2.798 -0.5237 -0.2032 -0.2087
   17SAPS   O14 2143   4.262   2.076   2.872  0.3870  0.5017 -0.0758
   17SAPS   O12 2144   4.247   1.856   2.959 -0.2477 -0.6130 -0.2148
   17SAPS   O11 2145   4.428   1.982   3.037 -0.1002  0.5866 -0.0235
   17SAPS    C1 2146   4.511   1.867   3.076  0.5963 -0.5975 -0.2152
   17SAPS    HA 2147   4.449   1.775   3.084 -0.7426  0.3764  1.1488
   17SAPS    HB 2148   4.596   1.859   3.005  0.1872  1.2085 -0.9590
   17SAPS    C2 2149   4.563   1.868   3.225  0.3414 -0.3440  0.5929
   17SAPS    HS 2150   4.600   1.764   3.240  0.2815 -0.9467 -2.6146
   17SAPS   O21 2151   4.464   1.921   3.312 -0.1797 -0.6652 -0.3367
   17SAPS   C21 2152   4.371   1.838   3.354 -0.4270  0.3494 -0.1905
   17SAPS   O22 2153   4.356   1.720   3.319 -0.2454  0.3406  0.2994
   17SAPS   C22 2154   4.280   1.910   3.457  0.7198 -0.4534 -0.4203
   17SAPS   H2R 2155   4.256   2.008   3.411  0.3353 -0.4355 -0.1837
   17SAPS   H2S 2156   4.180   1.862   3.458 -0.4050  1.7170 -1.6541
   17SAPS    C3 2157   4.694   1.953   3.230 -0.0478 -0.4494 -0.0630
   17SAPS    HX 2158   4.676   2.061   3.206  1.5619 -0.5389 -1.9468
   17SAPS    HY 2159   4.754   1.912   3.146 -1.2263 -0.1431 -1.0818
   17SAPS   O31 2160   4.758   1.936   3.354 -0.3573 -0.0974 -0.2429
   17SAPS   C31 2161   4.761   2.033   3.440 -0.0870  0.9746  0.1089
   17SAPS   O32 2162   4.700   2.136   3.441  0.2354  0.5893  0.0296
   17SAPS   C32 2163   4.863   1.993   3.550  0.0723 -0.1590  0.1861
   17SAPS   H2X 2164   4.964   2.038   3.548  1.0084 -2.1472 -2.3908
   17SAPS   H2Y 2165   4.888   1.887   3.532  0.9297  0.2148 -0.9053
   17SAPS   C23 2166   4.346   1.931   3.595 -0.2112 -0.2052  0.5488
   17SAPS   H3R 2167   4.457   1.943   3.592 -0.3538  1.0891 -1.1163
   17SAPS   H3S 2168   4.332   1.831   3.641 -1.7713 -0.0647  0.4087
   17SAPS   C24 2169   4.280   2.042   3.676 -0.3479 -0.0200 -0.3791
   17SAPS   H4R 2170   4.171   2.020   3.686 -0.8818  1.5365 -2.1446
   17SAPS   H4S 2171   4.295   2.140   3.626 -0.7923  0.8825  1.1755
   17SAPS   C25 2172   4.354   2.067   3.808  0.3587  0.3947  1.0516
   17SAPS   H5R 2173   4.418   2.157   3.810 -0.0813  0.7440  0.1738
   17SAPS   C26 2174   4.344   1.988   3.916  0.1411 -0.3171 -0.6070
   17SAPS   H6R 2175   4.404   2.023   4.001 -1.1384  3.0138 -0.9234
   17SAPS   C27 2176   4.263   1.860   3.941  0.4400 -0.1323 -0.1136
   17SAPS   H7R 2177   4.318   1.793   4.010 -0.2433 -1.0539 -0.4516
   17SAPS   H7S 2178   4.259   1.810   3.842 -0.0752  0.6757 -0.5240
   17SAPS   C28 2179   4.131   1.886   4.007  0.2903  0.2960 -0.3158
   17SAPS   H8R 2180   4.085   1.978   3.967  1.2514 -0.2105 -2.8122
   17SAPS   C29 2181   4.080   1.816   4.110 -0.2582  0.1204 -0.1656
   17SAPS   H9R 2182   3.985   1.847   4.156  0.6328  1.4168  0.8714
   17SAPS  C210 2183   4.132   1.691   4.183  0.1530  0.2758 -0.1455
   17SAPS  H10R 2184   4.116   1.596   4.128 -0.8484  0.8457 -0.8644
   17SAPS  H10S 2185   4.072   1.678   4.275 -0.0781  1.7894 -0.0537
   17SAPS  C211 2186   4.272   1.698   4.238  0.6219  0.0762  0.5210
   17SAPS  H11R 2187   4.339   1.782   4.214 -0.9410  1.2709  0.1960
   17SAPS  C212 2188   4.329   1.590   4.297  0.4959 -0.1957 -0.2015
   17SAPS  H12R 2189   4.431   1.600   4.337  0.7012  0.5344 -0.8727
   17SAPS  C213 2190   4.261   1.461   4.325 -0.3466  0.7511  0.2925
   17SAPS  H13R 2191   4.310   1.393   4.252 -1.4165 -0.4438  0.6439
   17SAPS  H13S 2192   4.152   1.456   4.306  0.1134 -2.9063 -2.6034
   17SAPS  C214 2193   4.283   1.403   4.463 -0.2038 -0.3039  0.2317
   17SAPS  H14R 2194   4.352   1.318   4.471  2.5377  1.8588  1.7169
   17SAPS  C215 2195   4.217   1.442   4.571 -0.1651 -0.5056  0.4605
   17SAPS  H15R 2196   4.241   1.406   4.672 -0.7581  0.2620  0.8843
   17SAPS  C216 2197   4.115   1.548   4.579  0.4159 -0.0583 -0.1874
   17SAPS  H16R 2198   4.130   1.629   4.505 -2.9993 -0.2430 -1.2690
   17SAPS  H16S 2199   4.127   1.597   4.678  0.4667 -2.2814  0.9487
   17SAPS  C217 2200   3.971   1.504   4.559 -0.1622  0.2585  0.5331
   17SAPS  H17R 2201   3.945   1.432   4.639 -0.5029 -1.5646 -1.1265
   17SAPS  H17S 2202   3.963   1.453   4.460  0.8575  0.6670  0.2295
   17SAPS  C218 2203   3.875   1.623   4.564  0.6066 -0.9155  0.2675
   17SAPS  H18R 2204   3.898   1.693   4.480 -0.5565  0.3630  0.9628
   17SAPS  H18S 2205   3.895   1.687   4.653 -1.6731  2.0895 -1.1975
   17SAPS  C219 2206   3.733   1.574   4.566 -0.2729  0.1023  0.1450
   17SAPS  H19R 2207   3.704   1.510   4.480 -2.3344 -1.5664  1.9894
   17SAPS  H19S 2208   3.677   1.670   4.565  0.7434  0.7159 -1.0138
   17SAPS  C220 2209   3.682   1.505   4.690  0.3841  0.5047  0.1715
   17SAPS  H20R 2210   3.725   1.406   4.715 -0.4516 -0.1562 -0.9533
   17SAPS  H20S 2211   3.576   1.479   4.674  0.9070 -0.9111 -1.2448
   17SAPS  H20T 2212   3.678   1.570   4.780  0.6858 -0.7714  1.1462
   17SAPS   C33 2213   4.810   1.997   3.691 -0.1492  0.6204  0.2619
   17SAPS   H3X 2214   4.725   1.927   3.705  0.3336  0.0041  0.1780
   17SAPS   H3Y 2215   4.781   2.102   3.712  0.9704  0.9527  0.2392
   17SAPS   C34 2216   4.919   1.957   3.795  0.3644 -0.7133  1.0149
   17SAPS   H4X 2217   4.990   2.042   3.800  0.7843 -1.1105  1.8750
   17SAPS   H4Y 2218   4.979   1.875   3.750  0.9806  0.1427  0.2233
   17SAPS   C35 2219   4.864   1.936   3.941 -0.4642  0.4501  0.3551
   17SAPS   H5X 2220   4.944   1.898   4.007 -0.4786  1.1383  0.7774
   17SAPS   H5Y 2221   4.791   1.852   3.935  0.5661 -0.4052 -0.8780
   17SAPS   C36 2222   4.807   2.063   4.000  0.5096 -0.3513 -0.6346
   17SAPS   H6X 2223   4.710   2.076   3.949  0.4916  0.5482 -0.3891
   17SAPS   H6Y 2224   4.871   2.153   3.985 -1.8189  1.3425 -0.8828
   17SAPS   C37 2225   4.783   2.043   4.154  0.6320  0.1245  0.2759
   17SAPS   H7X 2226   4.738   2.137   4.192 -1.3993  0.4221 -2.6054
   17SAPS   H7Y 2227   4.887   2.042   4.195  0.7289  1.1593  0.0882
   17SAPS   C38 2228   4.699   1.911   4.189  0.5409 -0.8451  0.3851
   17SAPS   H8X 2229   4.763   1.827   4.156 -1.6804 -1.9583 -1.3229
   17SAPS   H8Y 2230   4.605   1.904   4.130  0.3361 -1.8136  0.8093
   17SAPS   C39 2231   4.659   1.906   4.339 -0.3823  0.3258 -0.3734
   17SAPS   H9X 2232   4.608   1.810   4.358 -0.4625  0.5698  0.7731
   17SAPS   H9Y 2233   4.577   1.979   4.355  0.0339  0.8462 -0.5760
   17SAPS  C310 2234   4.777   1.925   4.432  0.3171 -0.7617  0.4928
   17SAPS  H10X 2235   4.813   2.030   4.436 -0.4120 -0.1935 -3.5584
   17SAPS  H10Y 2236   4.857   1.858   4.395 -0.3679 -1.8683  0.9635
   17SAPS  C311 2237   4.733   1.873   4.569 -0.1415  0.4208  0.8362
   17SAPS  H11X 2238   4.708   1.766   4.552  2.2415 -0.0782  0.0973
   17SAPS  H11Y 2239   4.645   1.929   4.609  0.2239 -0.5712  3.1823
   17SAPS  C312 2240   4.849   1.887   4.665  0.9089  0.0329  0.1072
   17SAPS  H12X 2241   4.880   1.993   4.674  0.0534  0.3378 -0.4631
   17SAPS  H12Y 2242   4.943   1.846   4.621  1.5218  0.0256  1.3636
   17SAPS  C313 2243   4.812   1.837   4.798  0.0205 -0.9014 -0.5697
   17SAPS  H13X 2244   4.761   1.739   4.784  0.7421 -1.2269 -0.9787
   17SAPS  H13Y 2245   4.737   1.900   4.849 -1.2063 -1.9193 -1.0726
   17SAPS  C314 2246   4.934   1.819   4.874 -0.3309  0.5697  0.5880
   17SAPS  H14X 2247   4.968   1.924   4.886  1.1943  0.1859 -0.2477
   17SAPS  H14Y 2248   5.008   1.768   4.810 -2.4137  0.0312 -1.5109
   17SAPS  C315 2249   4.923   1.749   5.011  0.3219 -0.1010 -0.1052
   17SAPS  H15X 2250   5.025   1.756   5.054 -0.0108  0.2060  0.6659
   17SAPS  H15Y 2251   4.905   1.640   5.000  0.0995  0.1515 -2.7370
   17SAPS  C316 2252   4.806   1.788   5.107  0.0514 -0.9116 -0.3245
   17SAPS  H16X 2253   4.784   1.719   5.191  0.6846 -1.2239 -0.4150
   17SAPS  H16Y 2254   4.711   1.779   5.049 -1.4342  3.6944  0.9416
   17SAPS  C317 2255   4.813   1.941   5.148 -0.2027  0.4001 -0.3817
   17SAPS  H17X 2256   4.848   2.000   5.060  2.2947  0.2784  0.4806
   17SAPS  H17Y 2257   4.890   1.962   5.225  1.0730  0.6830 -1.6926
   17SAPS  C318 2258   4.683   1.987   5.211  0.6013  0.8783  0.2319
   17SAPS  H18X 2259   4.656   1.922   5.297 -0.4835  1.3355  0.2519
   17SAPS  H18Y 2260   4.596   1.970   5.143  1.2765 -0.9715 -0.2463
   17SAPS  H18Z 2261   4.688   2.096   5.232  0.7793  0.9978 -0.4096
   18SAPS     N 2262   1.109   6.416   2.784 -1.1322 -0.1138 -0.2510
   18SAPS   HN1 2263   1.137   6.451   2.691 -1.3823 -0.6961 -0.5512
   18SAPS   HN2 2264   1.095   6.313   2.775  0.8800 -0.5025  0.4963
   18SAPS   HN3 2265   1.025   6.469   2.816  0.2539  1.2797  1.3037
   18SAPS   C12 2266   1.220   6.458   2.877  0.1819 -0.0121 -0.1317
   18SAPS  H12A 2267   1.204   6.401   2.967  1.0714 -0.9448 -0.5442
   18SAPS   C13 2268   1.361   6.423   2.824 -0.2814 -0.3609  0.5975
   18SAPS  O13A 2269   1.376   6.377   2.711 -0.1358  0.4082  0.2853
   18SAPS  O13B 2270   1.462   6.461   2.888 -0.1336 -0.4904 -0.1815
   18SAPS   C11 2271   1.205   6.612   2.904  0.1488 -0.2585 -0.6547
   18SAPS  H11A 2272   1.225   6.670   2.812  0.7040 -1.0168 -1.0272
   18SAPS  H11B 2273   1.295   6.631   2.966  1.5572 -0.3992 -2.5525
   18SAPS     P 2274   1.072   6.702   3.118 -0.0460  0.0764 -0.2497
   18SAPS   O13 2275   1.140   6.833   3.127  0.2968 -0.4370 -0.5437
   18SAPS   O14 2276   0.931   6.686   3.160  0.1449 -0.3028 -0.2398
   18SAPS   O12 2277   1.080   6.656   2.965 -0.0848  0.2440  0.1370
   18SAPS   O11 2278   1.168   6.592   3.190 -0.1374  0.1080 -0.1614
   18SAPS    C1 2279   1.277   6.638   3.274 -0.0487  0.0441 -0.1730
   18SAPS    HA 2280   1.365   6.667   3.213  1.3940  0.4368  1.9870
   18SAPS    HB 2281   1.242   6.721   3.339  1.8775  0.6645  0.1317
   18SAPS    C2 2282   1.341   6.535   3.363  0.3663  0.4664 -0.2764
   18SAPS    HS 2283   1.367   6.455   3.291 -0.0137 -0.9973  1.1515
   18SAPS   O21 2284   1.233   6.490   3.439  0.4150 -0.0600  0.1981
   18SAPS   C21 2285   1.252   6.377   3.516  0.0356  0.1762  0.3608
   18SAPS   O22 2286   1.360   6.322   3.527 -0.0674 -0.4577 -0.0996
   18SAPS   C22 2287   1.122   6.341   3.578  0.7261 -0.0948 -0.0111
   18SAPS   H2R 2288   1.094   6.424   3.646  0.5205 -0.1870  0.0193
   18SAPS   H2S 2289   1.039   6.338   3.504  1.1385  0.5045 -0.5059
   18SAPS    C3 2290   1.457   6.583   3.449 -0.1027  0.1454  0.1118
   18SAPS    HX 2291   1.541   6.607   3.380  1.7632 -0.3885  2.0983
   18SAPS    HY 2292   1.496   6.502   3.513 -0.3742 -0.3244 -0.3058
   18SAPS   O31 2293   1.420   6.696   3.535  0.5065 -0.4656  0.0757
   18SAPS   C31 2294   1.426   6.818   3.488  0.9349 -0.4264  0.0013
   18SAPS   O32 2295   1.465   6.859   3.381 -0.3453  0.2228  0.3846
   18SAPS   C32 2296   1.365   6.916   3.597 -0.0858  0.4849  0.0049
   18SAPS   H2X 2297   1.356   6.848   3.684  0.2724 -0.2105 -0.4866
   18SAPS   H2Y 2298   1.264   6.948   3.564 -0.2224  1.0690  0.9630
   18SAPS   C23 2299   1.129   6.211   3.659 -0.5307 -0.5528 -0.6157
   18SAPS   H3R 2300   1.204   6.141   3.615  0.4024  0.2766 -0.4043
   18SAPS   H3S 2301   1.030   6.162   3.665  0.0611 -1.6315  1.0671
   18SAPS   C24 2302   1.171   6.230   3.809 -0.4460  0.1233 -0.2600
   18SAPS   H4R 2303   1.272   6.276   3.817  0.3346 -1.5038 -0.2718
   18SAPS   H4S 2304   1.202   6.134   3.856  2.5194  1.2930  0.4306
   18SAPS   C25 2305   1.067   6.304   3.890 -0.4236  0.2862 -0.2591
   18SAPS   H5R 2306   0.990   6.232   3.920  0.6827 -0.4223  0.9510
   18SAPS   C26 2307   1.069   6.430   3.930  0.1324 -0.5178  0.1507
   18SAPS   H6R 2308   0.992   6.462   4.002 -0.4251 -0.6214 -0.4001
   18SAPS   C27 2309   1.177   6.529   3.903 -0.3097  0.2685  0.4540
   18SAPS   H7R 2310   1.138   6.633   3.903 -0.0100  0.3939  1.3200
   18SAPS   H7S 2311   1.234   6.502   3.811  0.8372 -2.3358  1.8329
   18SAPS   C28 2312   1.283   6.525   4.018 -0.0045  0.2233  0.3919
   18SAPS   H8R 2313   1.241   6.496   4.116 -3.1009 -0.5062 -1.0531
   18SAPS   C29 2314   1.415   6.511   4.009  0.0302  0.0349 -0.0205
   18SAPS   H9R 2315   1.467   6.493   4.104 -2.5399 -4.3268  0.8467
   18SAPS  C210 2316   1.502   6.522   3.892 -0.4854  0.8491 -0.1720
   18SAPS  H10R 2317   1.585   6.591   3.917  0.4064  0.2711 -1.4051
   18SAPS  H10S 2318   1.446   6.573   3.811  0.5264  1.1007 -0.7330
   18SAPS  C211 2319   1.559   6.392   3.823 -0.3497  0.5791  0.4171
   18SAPS  H11R 2320   1.521   6.388   3.719  1.8638 -0.1355 -0.4268
   18SAPS  C212 2321   1.619   6.279   3.868 -0.0886  0.1709  0.2008
   18SAPS  H12R 2322   1.660   6.200   3.804  2.1345  0.1766  1.4834
   18SAPS  C213 2323   1.653   6.250   4.012 -0.1046 -0.6437  0.0489
   18SAPS  H13R 2324   1.614   6.148   4.035 -0.0269 -0.6449  0.1767
   18SAPS  H13S 2325   1.600   6.319   4.081  1.2184 -0.2695  0.7144
   18SAPS  C214 2326   1.795   6.258   4.048 -0.0484  0.2254 -0.0471
   18SAPS  H14R 2327   1.852   6.333   3.992  1.4116 -0.8410 -0.0590
   18SAPS  C215 2328   1.852   6.203   4.149  0.6443 -0.1411 -0.5382
   18SAPS  H15R 2329   1.958   6.223   4.168  0.3870  0.5576  0.2496
   18SAPS  C216 2330   1.784   6.121   4.254 -0.2932 -0.1552 -0.1860
   18SAPS  H16R 2331   1.798   6.012   4.238  0.8765 -0.0122 -0.2436
   18SAPS  H16S 2332   1.679   6.152   4.269  0.4988  2.1017  1.3576
   18SAPS  C217 2333   1.869   6.154   4.383  0.0194 -0.6085 -0.0493
   18SAPS  H17R 2334   1.876   6.264   4.398 -1.8126 -0.6287  1.2459
   18SAPS  H17S 2335   1.968   6.106   4.370  0.3981 -1.0948  3.6449
   18SAPS  C218 2336   1.806   6.099   4.508  0.0338 -0.6479 -0.0550
   18SAPS  H18R 2337   1.815   5.989   4.498 -0.3615 -0.6340 -0.6061
   18SAPS  H18S 2338   1.701   6.133   4.523  0.1277 -0.4951  0.2626
   18SAPS  C219 2339   1.883   6.144   4.636  0.1710  0.2475  0.0451
   18SAPS  H19R 2340   1.867   6.253   4.651 -0.7355  0.1048  0.1906
   18SAPS  H19S 2341   1.989   6.113   4.622 -0.0428 -1.9138  2.5189
   18SAPS  C220 2342   1.819   6.072   4.763 -0.0698  0.2607  0.0975
   18SAPS  H20R 2343   1.800   5.966   4.738  0.6232 -0.0402  0.8211
   18SAPS  H20S 2344   1.724   6.126   4.784 -0.1196  0.6057 -0.9267
   18SAPS  H20T 2345   1.889   6.082   4.849 -1.1262  0.9337  0.8983
   18SAPS   C33 2346   1.459   7.029   3.622  0.7234 -0.2887 -0.4865
   18SAPS   H3X 2347   1.495   7.086   3.533 -1.2959  1.2594 -0.4020
   18SAPS   H3Y 2348   1.553   7.000   3.674  1.6650  3.9911  0.6291
   18SAPS   C34 2349   1.387   7.129   3.718 -0.7434 -0.1329  0.0704
   18SAPS   H4X 2350   1.355   7.069   3.805 -1.0702 -1.4081 -0.8880
   18SAPS   H4Y 2351   1.289   7.159   3.675 -1.0164  0.9461  1.3914
   18SAPS   C35 2352   1.452   7.264   3.744 -0.3111 -0.2304  0.4663
   18SAPS   H5X 2353   1.479   7.301   3.643 -0.0234  0.1066  0.6653
   18SAPS   H5Y 2354   1.552   7.263   3.792 -0.4512 -2.0566  0.7919
   18SAPS   C36 2355   1.366   7.365   3.820 -0.8241 -0.0791 -0.8887
   18SAPS   H6X 2356   1.349   7.323   3.921  0.8084 -2.6378 -1.5768
   18SAPS   H6Y 2357   1.270   7.376   3.765  0.6960 -0.7787 -3.9360
   18SAPS   C37 2358   1.420   7.503   3.824  0.1466 -0.1944 -1.0867
   18SAPS   H7X 2359   1.418   7.560   3.728 -1.0605  0.6161 -0.6017
   18SAPS   H7Y 2360   1.522   7.487   3.865 -1.0486  0.1856  2.3624
   18SAPS   C38 2361   1.342   7.604   3.915  0.0930  0.0129 -0.5310
   18SAPS   H8X 2362   1.234   7.605   3.889  0.1506  0.9404 -0.7827
   18SAPS   H8Y 2363   1.377   7.702   3.876  1.1667  0.0597  0.4883
   18SAPS   C39 2364   1.394   7.607   4.063  0.7831  0.8897  0.0237
   18SAPS   H9X 2365   1.504   7.598   4.064  0.7580  0.4354 -0.6944
   18SAPS   H9Y 2366   1.348   7.516   4.108  0.1652  2.1976  2.2114
   18SAPS  C310 2367   1.347   7.726   4.140  0.2183 -0.0603 -0.0644
   18SAPS  H10X 2368   1.238   7.737   4.158  0.3329  1.2066 -0.0670
   18SAPS  H10Y 2369   1.374   7.814   4.078  1.5720 -1.9951 -2.3728
   18SAPS  C311 2370   1.409   7.737   4.282 -0.2277 -0.3581 -0.3626
   18SAPS  H11X 2371   1.518   7.717   4.276  0.1007  1.5936 -2.3234
   18SAPS  H11Y 2372   1.363   7.660   4.348 -1.2757 -0.6441 -1.3965
   18SAPS  C312 2373   1.383   7.867   4.351  1.1255  0.3432  0.3387
   18SAPS  H12X 2374   1.275   7.884   4.372  0.9776 -0.4043  0.2100
   18SAPS  H12Y 2375   1.407   7.955   4.287  0.3601  1.2515  1.2686
   18SAPS  C313 2376   1.465   7.883   4.472 -0.1008 -0.3070  0.0614
   18SAPS  H13X 2377   1.457   7.988   4.509  0.6537 -0.2424  0.0467
   18SAPS  H13Y 2378   1.569   7.858   4.443  0.4929 -0.4955  2.1984
   18SAPS  C314 2379   1.422   7.800   4.591 -0.3566  0.2593  0.2390
   18SAPS  H14X 2380   1.445   7.692   4.578  2.3653  0.8486 -0.4609
   18SAPS  H14Y 2381   1.314   7.824   4.606 -1.3052 -0.5973 -3.9538
   18SAPS  C315 2382   1.496   7.822   4.719  0.2279 -0.1506 -0.4881
   18SAPS  H15X 2383   1.509   7.928   4.749 -1.3685 -0.2064  0.4903
   18SAPS  H15Y 2384   1.599   7.779   4.719 -0.5752 -2.2083 -0.2778
   18SAPS  C316 2385   1.419   7.742   4.833 -0.6251 -0.3659  0.1997
   18SAPS  H16X 2386   1.417   7.638   4.796  2.9817 -0.7638  0.6888
   18SAPS  H16Y 2387   1.316   7.781   4.848 -1.0828 -0.4721 -2.1790
   18SAPS  C317 2388   1.481   7.745   4.979  0.4173  1.4080 -0.0805
   18SAPS  H17X 2389   1.499   7.849   5.013  0.4626  2.4086 -2.9454
   18SAPS  H17Y 2390   1.579   7.692   4.981  0.0896  0.7094  3.2102
   18SAPS  C318 2391   1.395   7.675   5.077  0.4795  0.5549  0.1013
   18SAPS  H18X 2392   1.445   7.659   5.174  2.2560 -0.8659 -0.9908
   18SAPS  H18Y 2393   1.373   7.570   5.047  1.6751  0.0962  0.7472
   18SAPS  H18Z 2394   1.304   7.738   5.087 -0.6399 -0.8986 -0.5660
   19SAPS     N 2395   5.601   6.769   3.298  0.1533 -0.2943  0.1979
   19SAPS   HN1 2396   5.557   6.690   3.247 -2.0874 -0.3946  2.1399
   19SAPS   HN2 2397   5.533   6.791   3.374 -0.5619  1.9962 -1.0134
   19SAPS   HN3 2398   5.600   6.850   3.233 -1.1943  0.2560  0.8509
   19SAPS   C12 2399   5.744   6.743   3.335  1.0834  0.1424  0.2162
   19SAPS  H12A 2400   5.791   6.706   3.245 -0.0276 -0.2053 -0.2411
   19SAPS   C13 2401   5.825   6.868   3.387  0.4444 -0.3751  0.1144
   19SAPS  O13A 2402   5.755   6.975   3.401 -0.3044  0.6132  0.2108
   19SAPS  O13B 2403   5.949   6.868   3.373 -0.1325  0.3927  0.2590
   19SAPS   C11 2404   5.754   6.639   3.453  0.0065  0.0806  0.3214
   19SAPS  H11A 2405   5.696   6.683   3.537 -1.7707  0.7232 -1.1637
   19SAPS  H11B 2406   5.860   6.626   3.485 -0.2299 -1.3874  0.5853
   19SAPS     P 2407   5.780   6.401   3.358 -0.2755 -0.1184 -0.2869
   19SAPS   O13 2408   5.695   6.280   3.341  0.0537 -0.4861 -0.0324
   19SAPS   O14 2409   5.861   6.441   3.240  0.5764  0.4430  0.7358
   19SAPS   O12 2410   5.695   6.518   3.411  0.0789  0.3758 -0.0726
   19SAPS   O11 2411   5.889   6.371   3.476  0.3476  0.5130 -0.1157
   19SAPS    C1 2412   5.839   6.382   3.610 -0.0540 -0.4004  0.2843
   19SAPS    HA 2413   5.830   6.485   3.651  0.2877 -0.0839 -0.4116
   19SAPS    HB 2414   5.740   6.333   3.620 -0.8209  1.4839  3.2018
   19SAPS    C2 2415   5.934   6.308   3.711 -0.9500  0.1694 -0.7866
   19SAPS    HS 2416   5.957   6.204   3.679 -0.1867 -0.3771  1.3709
   19SAPS   O21 2417   5.884   6.304   3.843 -0.1191  0.8059  0.1284
   19SAPS   C21 2418   5.790   6.213   3.878 -0.0335 -0.6036  0.0477
   19SAPS   O22 2419   5.739   6.134   3.800  0.6306 -0.1084 -0.4397
   19SAPS   C22 2420   5.786   6.207   4.031  0.7972 -0.3356 -0.1104
   19SAPS   H2R 2421   5.704   6.270   4.071  0.4940 -0.5099 -0.4534
   19SAPS   H2S 2422   5.780   6.097   4.050  0.2101  0.0035  1.7760
   19SAPS    C3 2423   6.064   6.391   3.708  0.2621 -0.3869 -0.2458
   19SAPS    HX 2424   6.044   6.499   3.723  0.6218 -0.1655 -1.2699
   19SAPS    HY 2425   6.111   6.381   3.608  0.1714  1.4382 -0.5175
   19SAPS   O31 2426   6.149   6.343   3.814  0.2068  0.3186  0.1349
   19SAPS   C31 2427   6.270   6.404   3.814  0.5833 -0.2137 -0.7575
   19SAPS   O32 2428   6.291   6.516   3.767 -0.8841 -0.2191  0.1349
   19SAPS   C32 2429   6.372   6.327   3.896 -0.2732 -0.1996  0.7603
   19SAPS   H2X 2430   6.461   6.392   3.909 -0.6667  0.3173  0.8854
   19SAPS   H2Y 2431   6.407   6.238   3.838  1.6075  0.8037  0.2719
   19SAPS   C23 2432   5.920   6.252   4.097 -0.0735  0.2202 -0.6291
   19SAPS   H3R 2433   5.915   6.363   4.088 -1.5909  0.1771 -0.5003
   19SAPS   H3S 2434   6.011   6.212   4.046  0.5123 -0.4025  0.8381
   19SAPS   C24 2435   5.943   6.199   4.245 -0.3003 -0.6556 -0.4923
   19SAPS   H4R 2436   5.857   6.236   4.305  0.5558 -0.2710  0.5156
   19SAPS   H4S 2437   6.026   6.255   4.293  0.1382 -1.7870  0.1042
   19SAPS   C25 2438   5.966   6.053   4.256 -0.1685  0.3004  0.2718
   19SAPS   H5R 2439   6.064   6.011   4.228 -1.5702 -0.9072 -3.3634
   19SAPS   C26 2440   5.876   5.970   4.318 -0.7600  0.1858  0.3971
   19SAPS   H6R 2441   5.900   5.862   4.321  2.3527  0.7418 -0.4869
   19SAPS   C27 2442   5.740   6.015   4.367 -0.2779 -0.3672 -0.1437
   19SAPS   H7R 2443   5.697   6.088   4.295 -1.6470  0.8440  1.8441
   19SAPS   H7S 2444   5.769   6.076   4.455 -1.8690  1.7786 -1.0287
   19SAPS   C28 2445   5.630   5.912   4.389 -0.5017 -0.4999  0.1319
   19SAPS   H8R 2446   5.617   5.846   4.302  1.4421 -1.8456  0.7823
   19SAPS   C29 2447   5.573   5.877   4.504 -0.1413  0.4454 -0.1180
   19SAPS   H9R 2448   5.490   5.805   4.509  0.8153 -0.5969  1.3982
   19SAPS  C210 2449   5.598   5.948   4.633  0.8626  0.2652 -0.3918
   19SAPS  H10R 2450   5.515   5.934   4.706  1.6944 -1.1017  0.3415
   19SAPS  H10S 2451   5.586   6.058   4.625  0.4789  0.1584 -1.3881
   19SAPS  C211 2452   5.727   5.914   4.705 -0.1196 -0.5003  0.3187
   19SAPS  H11R 2453   5.817   5.952   4.653 -0.5380  0.4976  0.3028
   19SAPS  C212 2454   5.749   5.848   4.819  0.3702  0.1171  0.2697
   19SAPS  H12R 2455   5.849   5.818   4.854  0.3097 -2.0708 -1.2568
   19SAPS  C213 2456   5.640   5.797   4.911  0.3890  0.2867 -0.7317
   19SAPS  H13R 2457   5.543   5.781   4.858  0.0934  0.2818 -0.1923
   19SAPS  H13S 2458   5.607   5.867   4.990 -0.3545 -0.9512  0.0877
   19SAPS  C214 2459   5.671   5.662   4.981 -0.6341 -0.1034  0.0664
   19SAPS  H14R 2460   5.676   5.662   5.091 -3.6558 -3.4651  0.4112
   19SAPS  C215 2461   5.704   5.544   4.923  0.2628  0.6569 -0.2991
   19SAPS  H15R 2462   5.737   5.464   4.991  0.5713 -0.3011 -1.5522
   19SAPS  C216 2463   5.711   5.518   4.780 -0.2353  0.8692  0.6906
   19SAPS  H16R 2464   5.680   5.603   4.716  2.2566  1.5008  0.2337
   19SAPS  H16S 2465   5.649   5.431   4.748  0.2810  0.4660  0.7736
   19SAPS  C217 2466   5.855   5.498   4.729  0.1838  0.3200  0.3273
   19SAPS  H17R 2467   5.925   5.577   4.765 -1.9978  2.2266  0.5699
   19SAPS  H17S 2468   5.842   5.521   4.621 -0.8407 -0.2321  0.3172
   19SAPS  C218 2469   5.907   5.359   4.763 -0.0343 -0.0109 -0.3608
   19SAPS  H18R 2470   5.850   5.292   4.695 -4.5450  2.5856  0.4693
   19SAPS  H18S 2471   5.879   5.335   4.868  0.8494  0.8762  0.0917
   19SAPS  C219 2472   6.052   5.343   4.726 -0.1162  0.3832 -0.8552
   19SAPS  H19R 2473   6.074   5.356   4.618  0.8700  0.1211 -0.6977
   19SAPS  H19S 2474   6.082   5.240   4.755  3.2152  0.9809 -1.7277
   19SAPS  C220 2475   6.149   5.427   4.808  0.0551 -0.2280  0.3247
   19SAPS  H20R 2476   6.155   5.532   4.770 -0.0767 -0.1735  0.4571
   19SAPS  H20S 2477   6.250   5.380   4.805  0.4698  0.6538 -0.0941
   19SAPS  H20T 2478   6.126   5.429   4.916 -1.9335  0.6523 -0.0677
   19SAPS   C33 2479   6.335   6.270   4.031  0.1989 -0.2316 -0.0580
   19SAPS   H3X 2480   6.421   6.205   4.059  1.5282  1.6702  0.5226
   19SAPS   H3Y 2481   6.238   6.218   4.025  0.3513 -0.5902  0.5000
   19SAPS   C34 2482   6.325   6.371   4.143 -0.1988  0.8318  0.0318
   19SAPS   H4X 2483   6.225   6.416   4.127 -1.5382 -2.4012 -1.5123
   19SAPS   H4Y 2484   6.407   6.446   4.139 -0.6075  1.2458 -1.1790
   19SAPS   C35 2485   6.322   6.306   4.280 -0.6662 -0.7460 -0.2606
   19SAPS   H5X 2486   6.423   6.274   4.312  0.0856  0.2802 -1.5272
   19SAPS   H5Y 2487   6.261   6.213   4.284 -0.6660 -0.7266  0.2038
   19SAPS   C36 2488   6.266   6.401   4.389 -0.6233  0.4365  0.1276
   19SAPS   H6X 2489   6.157   6.424   4.387 -1.1017 -1.1606  2.8621
   19SAPS   H6Y 2490   6.328   6.492   4.379 -0.8911  0.7670  1.2515
   19SAPS   C37 2491   6.291   6.368   4.536 -0.4011  0.6675 -0.0926
   19SAPS   H7X 2492   6.265   6.454   4.601 -0.8207 -0.6093  1.4806
   19SAPS   H7Y 2493   6.401   6.352   4.539 -0.2285  0.9627 -2.6595
   19SAPS   C38 2494   6.198   6.256   4.591 -0.9397 -0.8251  0.7842
   19SAPS   H8X 2495   6.209   6.160   4.536 -2.0738 -0.6914  0.2964
   19SAPS   H8Y 2496   6.100   6.294   4.556  0.6655  0.2134 -3.1660
   19SAPS   C39 2497   6.202   6.240   4.745 -0.1446 -1.1493 -0.1934
   19SAPS   H9X 2498   6.145   6.154   4.786  1.0892 -2.0574 -0.3451
   19SAPS   H9Y 2499   6.156   6.330   4.792  2.7331 -1.1128  2.9409
   19SAPS  C310 2500   6.351   6.224   4.799  0.4731  0.4216  0.3886
   19SAPS  H10X 2501   6.411   6.317   4.792  0.2569  0.5465  0.2013
   19SAPS  H10Y 2502   6.392   6.138   4.742  0.1697 -0.4284  1.4195
   19SAPS  C311 2503   6.349   6.194   4.948 -0.0323 -0.1341  0.0760
   19SAPS  H11X 2504   6.448   6.154   4.981 -0.5130 -1.2728  0.1895
   19SAPS  H11Y 2505   6.272   6.116   4.965 -3.8457  3.8756  3.4855
   19SAPS  C312 2506   6.309   6.314   5.034  0.4419 -0.2309 -0.1583
   19SAPS  H12X 2507   6.208   6.346   5.003  1.1435  0.5072 -1.8093
   19SAPS  H12Y 2508   6.387   6.391   5.013  1.3449 -0.6596  1.4268
   19SAPS  C313 2509   6.315   6.295   5.185  0.6217 -0.1130  0.2110
   19SAPS  H13X 2510   6.318   6.395   5.233  0.7007 -0.0266  0.0267
   19SAPS  H13Y 2511   6.407   6.241   5.216  0.1525 -1.0083  0.0721
   19SAPS  C314 2512   6.196   6.223   5.231 -0.4952 -0.6055  0.5878
   19SAPS  H14X 2513   6.181   6.120   5.194 -0.0228 -0.9903  1.4280
   19SAPS  H14Y 2514   6.106   6.278   5.195 -1.7957 -2.6116  0.5977
   19SAPS  C315 2515   6.197   6.200   5.380  0.5243 -0.2722  0.1036
   19SAPS  H15X 2516   6.225   6.293   5.434 -2.6486  0.0801  1.3561
   19SAPS  H15Y 2517   6.270   6.122   5.409 -1.5219 -2.1811  0.4631
   19SAPS  C316 2518   6.061   6.164   5.448 -0.7782 -0.4510  0.4811
   19SAPS  H16X 2519   5.979   6.206   5.386 -0.3854 -0.1193  0.1851
   19SAPS  H16Y 2520   6.056   6.201   5.553  0.2057  1.9833 -0.2698
   19SAPS  C317 2521   6.021   6.016   5.437  0.1847 -0.1480 -0.5858
   19SAPS  H17X 2522   6.091   5.959   5.502  1.3988  0.8624 -0.9644
   19SAPS  H17Y 2523   6.044   5.996   5.330 -3.7468 -1.5490 -1.3106
   19SAPS  C318 2524   5.872   5.982   5.463  0.5918  0.6145  0.8735
   19SAPS  H18X 2525   5.793   6.017   5.393 -1.3498  1.1204  3.1754
   19SAPS  H18Y 2526   5.847   6.022   5.564  0.5625 -0.7683  1.4333
   19SAPS  H18Z 2527   5.861   5.873   5.480  0.3096  0.6840  1.1412
   20SAPS     N 2528   5.514   6.120   3.222 -0.2241 -0.5824 -0.0780
   20SAPS   HN1 2529   5.579   6.186   3.270 -0.5202 -0.8166  0.6513
   20SAPS   HN2 2530   5.433   6.100   3.284 -2.6397  0.7232 -2.5696
   20SAPS   HN3 2531   5.561   6.032   3.194  1.3459 -0.5928  2.3763
   20SAPS   C12 2532   5.471   6.196   3.100 -0.1400  0.6928  0.6734
   20SAPS  H12A 2533   5.550   6.178   3.029  0.6839 -1.4756  2.0162
   20SAPS   C13 2534   5.347   6.151   3.026 -0.7123  0.0288 -0.1046
   20SAPS  O13A 2535   5.279   6.054   3.079  0.2920 -1.0449 -0.0074
   20SAPS  O13B 2536   5.326   6.185   2.909 -0.5292  0.2083 -0.6288
   20SAPS   C11 2537   5.467   6.351   3.122 -0.5601  0.0325 -0.6820
   20SAPS  H11A 2538   5.446   6.401   3.025 -2.1413 -1.4037 -1.1211
   20SAPS  H11B 2539   5.566   6.392   3.153  0.7346 -2.6851 -0.9937
   20SAPS     P 2540   5.316   6.528   3.237 -0.0434  0.3487 -0.2447
   20SAPS   O13 2541   5.413   6.621   3.179  0.1596 -0.1303  0.1300
   20SAPS   O14 2542   5.174   6.546   3.203  0.4944 -0.2054 -0.4296
   20SAPS   O12 2543   5.365   6.388   3.213 -0.0600 -0.8347 -0.2479
   20SAPS   O11 2544   5.337   6.556   3.397 -0.4085  0.1099  0.2777
   20SAPS    C1 2545   5.266   6.468   3.490  0.2840 -0.5895 -0.3882
   20SAPS    HA 2546   5.233   6.523   3.580  1.3863  1.3778 -1.0981
   20SAPS    HB 2547   5.172   6.424   3.450 -0.1202 -1.6778  1.6396
   20SAPS    C2 2548   5.352   6.357   3.543  0.2887 -0.1700  0.5438
   20SAPS    HS 2549   5.410   6.320   3.456 -0.9571 -1.3453  0.1732
   20SAPS   O21 2550   5.256   6.255   3.591  0.4169  0.2093 -1.0505
   20SAPS   C21 2551   5.276   6.132   3.554  0.0318 -0.5829 -0.3982
   20SAPS   O22 2552   5.356   6.099   3.468  0.0232  0.1401 -0.5742
   20SAPS   C22 2553   5.203   6.034   3.647  0.2130 -0.4061  0.1742
   20SAPS   H2R 2554   5.101   6.075   3.657 -0.6866 -2.4914  0.1034
   20SAPS   H2S 2555   5.200   5.935   3.597 -0.2175  0.1556 -0.9515
   20SAPS    C3 2556   5.455   6.403   3.651  0.3583  0.1677  0.4580
   20SAPS    HX 2557   5.525   6.471   3.597  0.0657 -0.1381 -0.3308
   20SAPS    HY 2558   5.515   6.310   3.661  0.2475  0.0730  0.2567
   20SAPS   O31 2559   5.403   6.456   3.782  0.0795 -0.0687  0.4431
   20SAPS   C31 2560   5.487   6.509   3.870  0.3529 -0.0407  0.0624
   20SAPS   O32 2561   5.605   6.521   3.864 -0.0350  0.2315 -0.2720
   20SAPS   C32 2562   5.396   6.550   3.993 -0.5533 -0.2035 -0.8240
   20SAPS   H2X 2563   5.305   6.486   3.985 -0.2336 -0.4811 -2.5673
   20SAPS   H2Y 2564   5.372   6.658   3.982 -0.2872  0.0888  1.0947
   20SAPS   C23 2565   5.270   6.001   3.783 -0.2553 -0.5073 -0.6656
   20SAPS   H3R 2566   5.372   5.958   3.773  0.2632  0.4629  0.2265
   20SAPS   H3S 2567   5.213   5.916   3.826  0.1422 -0.1077  0.7093
   20SAPS   C24 2568   5.286   6.108   3.893 -0.1001 -0.2201 -0.1244
   20SAPS   H4R 2569   5.336   6.203   3.862  0.2382 -0.3784 -0.0734
   20SAPS   H4S 2570   5.332   6.054   3.979 -2.0157 -0.1659  0.9961
   20SAPS   C25 2571   5.150   6.149   3.942 -0.0334 -0.1848  0.0218
   20SAPS   H5R 2572   5.081   6.193   3.869 -0.7609 -1.1115  0.1250
   20SAPS   C26 2573   5.108   6.155   4.069 -1.2396 -0.1039 -0.0391
   20SAPS   H6R 2574   5.004   6.183   4.088 -1.2789  0.7107 -1.3751
   20SAPS   C27 2575   5.182   6.108   4.188 -0.6796  0.4499 -0.7751
   20SAPS   H7R 2576   5.230   6.197   4.234  1.3258 -0.6097 -0.6517
   20SAPS   H7S 2577   5.264   6.037   4.164  1.0380  1.9869  0.2765
   20SAPS   C28 2578   5.097   6.038   4.288 -0.1626 -0.7803  0.3055
   20SAPS   H8R 2579   4.994   6.021   4.254  0.1572 -1.8154 -0.1959
   20SAPS   C29 2580   5.122   6.021   4.413 -0.3403 -0.0801  0.2444
   20SAPS   H9R 2581   5.041   5.967   4.463 -3.0841  2.7779 -0.7405
   20SAPS  C210 2582   5.249   6.057   4.490  0.1164 -0.3875  0.1013
   20SAPS  H10R 2583   5.333   6.067   4.418 -0.0178  1.8642  0.1841
   20SAPS  H10S 2584   5.286   5.971   4.550 -1.4215 -0.3688  1.1223
   20SAPS  C211 2585   5.232   6.194   4.567 -0.1107  0.3158  0.7136
   20SAPS  H11R 2586   5.249   6.281   4.503 -0.1341  0.4563  0.8997
   20SAPS  C212 2587   5.187   6.194   4.696  0.0394 -0.9726  0.2129
   20SAPS  H12R 2588   5.175   6.296   4.736  1.2124 -0.7639  0.0691
   20SAPS  C213 2589   5.183   6.069   4.784  0.2393 -0.0814 -0.5266
   20SAPS  H13R 2590   5.276   6.013   4.766 -0.2983 -1.4947  0.8890
   20SAPS  H13S 2591   5.103   6.010   4.734 -1.0488  1.4991 -0.4508
   20SAPS  C214 2592   5.156   6.086   4.929 -0.4641 -0.3888 -0.1679
   20SAPS  H14R 2593   5.050   6.092   4.956  0.2355  0.7624  2.6460
   20SAPS  C215 2594   5.250   6.102   5.030  0.5375 -0.3798 -0.2304
   20SAPS  H15R 2595   5.218   6.128   5.132  0.5123 -2.1288  0.2441
   20SAPS  C216 2596   5.398   6.105   5.009 -0.4429  0.0183  0.7645
   20SAPS  H16R 2597   5.431   6.087   4.904 -1.1985  2.3524  0.0664
   20SAPS  H16S 2598   5.438   6.027   5.077  1.3757  1.6921  1.7430
   20SAPS  C217 2599   5.460   6.240   5.053  1.0988  0.3831 -0.2591
   20SAPS  H17R 2600   5.448   6.254   5.162 -0.9135  2.1996 -0.6499
   20SAPS  H17S 2601   5.410   6.316   4.989  2.0558  0.8764 -0.4311
   20SAPS  C218 2602   5.613   6.247   5.019  0.2287  0.4414 -0.2355
   20SAPS  H18R 2603   5.642   6.354   5.031 -0.5983  0.8407 -1.5589
   20SAPS  H18S 2604   5.629   6.218   4.913 -0.6968  0.2658 -0.3414
   20SAPS  C219 2605   5.696   6.157   5.119 -0.7336  0.1583  0.3172
   20SAPS  H19R 2606   5.653   6.055   5.117  2.0002 -1.1808  2.5780
   20SAPS  H19S 2607   5.680   6.204   5.219  0.0755  2.3181 -0.5144
   20SAPS  C220 2608   5.845   6.153   5.085  0.2963  0.1035 -0.3014
   20SAPS  H20R 2609   5.873   6.109   4.986 -0.5583 -2.6236  0.5879
   20SAPS  H20S 2610   5.893   6.089   5.162 -0.1984  1.8929  1.5674
   20SAPS  H20T 2611   5.892   6.252   5.104  0.5393  0.3183 -1.8713
   20SAPS   C33 2612   5.471   6.528   4.132 -0.1383  0.0357  0.7285
   20SAPS   H3X 2613   5.443   6.597   4.215  1.1758  0.4926  0.8174
   20SAPS   H3Y 2614   5.579   6.554   4.125 -0.6823  2.6350  0.9250
   20SAPS   C34 2615   5.449   6.386   4.186 -0.1221  0.3600  0.6023
   20SAPS   H4X 2616   5.474   6.314   4.105 -1.9045  2.8391 -2.3173
   20SAPS   H4Y 2617   5.343   6.387   4.218 -0.6445  0.4970 -1.0652
   20SAPS   C35 2618   5.515   6.357   4.324  0.0114 -0.2635 -0.8067
   20SAPS   H5X 2619   5.625   6.349   4.307  0.4876  0.7984  1.4374
   20SAPS   H5Y 2620   5.468   6.258   4.343  2.4999 -1.4583 -0.5306
   20SAPS   C36 2621   5.483   6.469   4.427 -1.0229  0.0235 -1.0309
   20SAPS   H6X 2622   5.378   6.505   4.427 -1.0782  0.2148  2.6036
   20SAPS   H6Y 2623   5.548   6.555   4.405  1.9045 -2.0979 -1.2711
   20SAPS   C37 2624   5.533   6.422   4.568  0.2826 -0.5615 -0.0232
   20SAPS   H7X 2625   5.643   6.419   4.584  0.1520 -1.2501  0.8074
   20SAPS   H7Y 2626   5.485   6.331   4.608 -2.1461  0.9846  0.7964
   20SAPS   C38 2627   5.489   6.528   4.678 -0.3319  0.0556  0.2816
   20SAPS   H8X 2628   5.486   6.621   4.617  3.6888 -0.0304 -0.3049
   20SAPS   H8Y 2629   5.570   6.539   4.753  0.2370 -0.5547 -0.2313
   20SAPS   C39 2630   5.355   6.497   4.748  0.0400 -0.1126  0.2452
   20SAPS   H9X 2631   5.369   6.397   4.795  1.7063 -0.0790 -0.1051
   20SAPS   H9Y 2632   5.264   6.497   4.684 -0.1498 -0.2128  0.5110
   20SAPS  C310 2633   5.348   6.595   4.869  0.2249 -0.5533  0.0638
   20SAPS  H10X 2634   5.345   6.701   4.838  3.3911 -0.2376  0.4236
   20SAPS  H10Y 2635   5.440   6.575   4.928  2.4176  1.5733 -2.3885
   20SAPS  C311 2636   5.229   6.562   4.969 -0.0341  0.1639 -0.4511
   20SAPS  H11X 2637   5.237   6.456   5.001 -1.1057  0.1142 -0.3276
   20SAPS  H11Y 2638   5.133   6.565   4.915 -0.1090 -1.2872 -0.4424
   20SAPS  C312 2639   5.238   6.642   5.098  0.5202  0.1584  0.4454
   20SAPS  H12X 2640   5.287   6.735   5.063  0.1995 -0.5155 -1.9800
   20SAPS  H12Y 2641   5.302   6.573   5.158 -0.0971 -2.0210 -1.2506
   20SAPS  C313 2642   5.107   6.654   5.177 -0.8171  0.0770 -0.0632
   20SAPS  H13X 2643   5.123   6.703   5.276  0.6296  1.3430 -0.8928
   20SAPS  H13Y 2644   5.073   6.551   5.201 -0.8026  0.0323 -0.2414
   20SAPS  C314 2645   4.991   6.720   5.111 -0.6506  0.3006 -0.5888
   20SAPS  H14X 2646   4.896   6.702   5.167  0.0211 -0.4970  0.3399
   20SAPS  H14Y 2647   4.969   6.668   5.015  1.5456 -1.1920 -0.3684
   20SAPS  C315 2648   5.008   6.876   5.092 -0.3338  1.0799  0.7479
   20SAPS  H15X 2649   4.930   6.907   5.020  1.7359 -0.4379 -2.3840
   20SAPS  H15Y 2650   5.100   6.896   5.032 -1.5405  0.0731 -1.5673
   20SAPS  C316 2651   5.004   6.960   5.224  0.1146 -0.1327  0.1787
   20SAPS  H16X 2652   5.103   7.000   5.256 -0.1828  2.0949 -1.4808
   20SAPS  H16Y 2653   4.960   6.895   5.302 -1.6930 -0.7042 -1.2470
   20SAPS  C317 2654   4.897   7.068   5.200 -1.1740 -0.2777  0.2171
   20SAPS  H17X 2655   4.820   7.017   5.138 -1.7775 -0.5434  1.1724
   20SAPS  H17Y 2656   4.947   7.144   5.136 -1.1054  0.2128  0.8435
   20SAPS  C318 2657   4.860   7.146   5.324  0.0297 -0.3590 -0.4467
   20SAPS  H18X 2658   4.837   7.078   5.408  0.6507 -0.1353 -0.0800
   20SAPS  H18Y 2659   4.769   7.207   5.307 -0.8814 -1.7619 -0.7596
   20SAPS  H18Z 2660   4.935   7.219   5.361  1.1919 -0.7243 -1.9548
   21CHL1    C3 2661   2.706   6.714   7.096  0.4194 -0.1485  0.2150
   21CHL1    H3 2662   2.792   6.778   7.066 -1.0699  0.7888 -2.4022
   21CHL1    O3 2663   2.693   6.714   7.237  0.0861 -0.0925 -0.3807
   21CHL1   H3' 2664   2.610   6.666   7.244 -0.5224  0.9368 -0.3801
   21CHL1    C4 2665   2.584   6.795   7.030 -0.1256 -0.2038  0.2368
   21CHL1   H4A 2666   2.483   6.774   7.071  0.0619  0.1272  0.8851
   21CHL1   H4B 2667   2.607   6.900   7.058  2.0474 -0.5857  0.0978
   21CHL1    C5 2668   2.574   6.777   6.880 -0.5570 -0.6534 -0.6823
   21CHL1    C6 2669   2.579   6.894   6.805  0.2212  0.6104 -0.7146
   21CHL1    H6 2670   2.584   6.992   6.855 -1.8021  1.2059 -1.5909
   21CHL1    C7 2671   2.569   6.896   6.656 -0.6668 -0.0218 -0.6994
   21CHL1   H7A 2672   2.517   6.985   6.616  0.6122  0.0659 -2.2595
   21CHL1   H7B 2673   2.666   6.915   6.605 -0.4029  2.4561  0.5385
   21CHL1    C8 2674   2.516   6.759   6.612  0.0090 -0.9778  0.2558
   21CHL1    H8 2675   2.408   6.758   6.636 -0.2252  2.5969 -0.1587
   21CHL1   C14 2676   2.519   6.754   6.459 -0.0996 -0.1255 -0.8188
   21CHL1   H14 2677   2.627   6.770   6.441 -0.5099  3.4683 -0.6924
   21CHL1   C15 2678   2.454   6.868   6.377  0.2223  0.9827 -0.0883
   21CHL1  H15A 2679   2.358   6.899   6.424  0.7936 -0.5776  2.2755
   21CHL1  H15B 2680   2.521   6.957   6.371 -0.6125  1.7813  1.7323
   21CHL1   C16 2681   2.437   6.803   6.235 -0.1623  0.3879  0.0369
   21CHL1  H16A 2682   2.331   6.816   6.205 -0.4533  0.3184  1.0066
   21CHL1  H16B 2683   2.497   6.843   6.150 -2.1112 -1.1178 -2.1624
   21CHL1   C17 2684   2.481   6.658   6.240 -0.3163 -0.3048 -0.0132
   21CHL1   H17 2685   2.589   6.658   6.218 -0.2130 -0.2700  0.4781
   21CHL1   C13 2686   2.485   6.620   6.392  0.2484 -0.2675 -0.5174
   21CHL1   C18 2687   2.337   6.586   6.428  0.0801  0.4819 -0.3336
   21CHL1  H18A 2688   2.324   6.581   6.538  1.1588 -0.9042 -0.2415
   21CHL1  H18B 2689   2.277   6.668   6.383 -2.0175 -2.2555 -2.9729
   21CHL1  H18C 2690   2.290   6.496   6.384 -2.2042  1.1444  0.5949
   21CHL1   C12 2691   2.581   6.516   6.446  0.0522  0.2229 -0.9192
   21CHL1  H12A 2692   2.550   6.418   6.405 -0.3070 -0.3681  0.7162
   21CHL1  H12B 2693   2.685   6.534   6.410  0.8926 -0.8278  0.8858
   21CHL1   C11 2694   2.573   6.504   6.599  0.4422 -0.0838  0.6568
   21CHL1  H11A 2695   2.475   6.462   6.630 -0.5801  1.4200 -0.3995
   21CHL1  H11B 2696   2.654   6.439   6.638  0.8176 -0.7982 -1.1982
   21CHL1    C9 2697   2.591   6.636   6.674 -0.0069  0.1759 -0.0579
   21CHL1    H9 2698   2.698   6.661   6.663 -0.0993  0.5944 -0.0265
   21CHL1   C10 2699   2.577   6.632   6.829 -0.0205 -0.6054  0.3017
   21CHL1   C19 2700   2.441   6.577   6.863 -0.5050 -0.0708 -0.1256
   21CHL1  H19A 2701   2.397   6.594   6.963  0.3389 -0.7566  0.3695
   21CHL1  H19B 2702   2.358   6.613   6.797 -0.6074 -2.4718 -1.3995
   21CHL1  H19C 2703   2.435   6.467   6.852  1.1476 -0.3304  1.2857
   21CHL1    C1 2704   2.699   6.557   6.892 -0.3153 -0.4374 -0.1756
   21CHL1   H1A 2705   2.726   6.457   6.853  2.3827 -0.1948  0.8435
   21CHL1   H1B 2706   2.786   6.619   6.862  1.1301 -1.1610  2.2222
   21CHL1    C2 2707   2.708   6.563   7.045 -0.5525  1.1447  0.4698
   21CHL1   H2A 2708   2.797   6.504   7.075 -0.8342 -0.1009 -1.0337
   21CHL1   H2B 2709   2.616   6.514   7.083  0.4952 -3.3999 -2.1752
   21CHL1   C20 2710   2.410   6.570   6.138 -0.0604  0.7135  0.1029
   21CHL1   H20 2711   2.303   6.561   6.167  0.2733 -0.2364  1.1032
   21CHL1   C21 2712   2.480   6.434   6.139 -0.8092  0.4917  0.3739
   21CHL1  H21A 2713   2.587   6.441   6.113 -0.8942 -0.3862 -0.2710
   21CHL1  H21B 2714   2.436   6.356   6.073  2.4409 -0.6996 -0.5446
   21CHL1  H21C 2715   2.481   6.384   6.239  1.7359  4.0829  2.3553
   21CHL1   C22 2716   2.403   6.633   5.993  0.4343 -0.5037 -0.0528
   21CHL1  H22A 2717   2.348   6.730   6.000  1.8906  0.4151 -0.8448
   21CHL1  H22B 2718   2.508   6.660   5.972  0.9205 -1.9800  0.4124
   21CHL1   C23 2719   2.351   6.551   5.875  0.1287 -0.9325  0.0525
   21CHL1  H23A 2720   2.407   6.454   5.879  0.0129 -0.9799  0.5732
   21CHL1  H23B 2721   2.241   6.544   5.888 -0.0912  2.1513  0.3914
   21CHL1   C24 2722   2.375   6.632   5.744 -0.5057 -0.1203 -0.0479
   21CHL1  H24A 2723   2.325   6.730   5.761  0.9638  0.9233 -1.4267
   21CHL1  H24B 2724   2.481   6.661   5.726 -0.3864 -1.1370 -1.1169
   21CHL1   C25 2725   2.307   6.588   5.608  0.4118 -0.3026 -0.3626
   21CHL1   H25 2726   2.347   6.492   5.569  1.7036 -0.5347  1.4148
   21CHL1   C26 2727   2.158   6.565   5.625  0.1035 -0.3682 -0.2013
   21CHL1  H26A 2728   2.139   6.479   5.693  1.1909 -1.7602 -1.5739
   21CHL1  H26B 2729   2.111   6.660   5.658  0.2880 -1.2923  3.0656
   21CHL1  H26C 2730   2.120   6.549   5.521 -0.1962  1.7432 -0.4579
   21CHL1   C27 2731   2.345   6.699   5.506  1.0634  0.2931 -0.0297
   21CHL1  H27A 2732   2.453   6.684   5.487  1.3638 -0.9673  2.3473
   21CHL1  H27B 2733   2.289   6.679   5.412  1.6501  3.2571 -1.1320
   21CHL1  H27C 2734   2.315   6.801   5.540 -1.7019 -1.1791  2.3432
   22CHL1    C3 2735   1.311   0.334   7.026 -0.6757  0.2177 -0.3309
   22CHL1    H3 2736   1.362   0.254   6.967  0.8847  1.3603 -0.5659
   22CHL1    O3 2737   1.322   0.294   7.164  0.0850  0.0671 -0.1324
   22CHL1   H3' 2738   1.304   0.374   7.215  0.6856 -0.4224  0.8771
   22CHL1    C4 2739   1.384   0.466   6.998  0.3940  0.4626  0.0795
   22CHL1   H4A 2740   1.320   0.541   7.050 -1.4507 -1.7846  1.2617
   22CHL1   H4B 2741   1.483   0.460   7.048  0.3052  0.8820  0.3168
   22CHL1    C5 2742   1.381   0.497   6.850  0.0798  0.0549 -0.1522
   22CHL1    C6 2743   1.491   0.508   6.777 -0.4640 -0.1477 -0.0563
   22CHL1    H6 2744   1.587   0.500   6.829 -1.1673 -2.0579  1.0348
   22CHL1    C7 2745   1.503   0.509   6.630  0.5402 -0.2302 -0.1390
   22CHL1   H7A 2746   1.594   0.559   6.593  0.8247  0.2095  1.1003
   22CHL1   H7B 2747   1.523   0.406   6.594  2.2300 -0.4250  1.2290
   22CHL1    C8 2748   1.372   0.565   6.569 -0.5829  1.2046  0.2736
   22CHL1    H8 2749   1.364   0.674   6.584 -0.8900  1.5256 -1.9591
   22CHL1   C14 2750   1.372   0.542   6.420  0.0897  0.4914  0.4245
   22CHL1   H14 2751   1.392   0.433   6.410 -2.7246 -0.0943  0.4994
   22CHL1   C15 2752   1.483   0.599   6.330  0.5180  0.2524 -0.1190
   22CHL1  H15A 2753   1.500   0.709   6.342 -1.0465  0.5263 -0.1894
   22CHL1  H15B 2754   1.582   0.556   6.357 -0.7266 -3.6381 -1.1495
   22CHL1   C16 2755   1.439   0.582   6.183 -0.5175  0.5506 -0.0798
   22CHL1  H16A 2756   1.457   0.687   6.151 -1.2318  1.4557  2.2628
   22CHL1  H16B 2757   1.500   0.522   6.112  0.5221  0.8279  0.5616
   22CHL1   C17 2758   1.285   0.539   6.186 -0.7058 -0.0586 -1.0928
   22CHL1   H17 2759   1.277   0.431   6.163  1.5069 -0.5093 -0.0311
   22CHL1   C13 2760   1.245   0.573   6.336 -0.4694  0.3911  0.2698
   22CHL1   C18 2761   1.215   0.721   6.356  1.4349  0.0387  0.1125
   22CHL1  H18A 2762   1.109   0.744   6.332  2.1255  0.6065 -2.7830
   22CHL1  H18B 2763   1.225   0.752   6.462 -0.4636 -1.2151  0.7217
   22CHL1  H18C 2764   1.282   0.789   6.299  1.8688  0.4747  1.1322
   22CHL1   C12 2765   1.137   0.487   6.398  0.9273  0.2983  1.0061
   22CHL1  H12A 2766   1.033   0.477   6.360  0.7032  0.4726  1.5504
   22CHL1  H12B 2767   1.178   0.385   6.385 -1.3487 -0.3340 -2.7807
   22CHL1   C11 2768   1.125   0.516   6.544 -0.0149  0.3413  0.2834
   22CHL1  H11A 2769   1.107   0.624   6.564 -2.8932 -0.4488  2.7847
   22CHL1  H11B 2770   1.041   0.460   6.590  0.2681 -0.5964 -0.3220
   22CHL1    C9 2771   1.255   0.489   6.629  0.0496 -0.6218  0.7146
   22CHL1    H9 2772   1.274   0.383   6.602 -0.6581 -0.6841  0.4402
   22CHL1   C10 2773   1.239   0.491   6.784  0.1903  0.5260  0.3256
   22CHL1   C19 2774   1.157   0.612   6.827 -0.0724  0.1609 -0.1213
   22CHL1  H19A 2775   1.170   0.640   6.934 -1.0987 -0.9740  0.3125
   22CHL1  H19B 2776   1.180   0.705   6.770 -1.2593  1.6664  1.7584
   22CHL1  H19C 2777   1.049   0.589   6.815 -0.2405 -0.1191  1.6606
   22CHL1    C1 2778   1.160   0.363   6.825 -0.3250 -0.6029 -0.4198
   22CHL1   H1A 2779   1.057   0.347   6.785 -0.7970  1.6968 -0.2402
   22CHL1   H1B 2780   1.202   0.269   6.782  0.8594 -0.0223 -0.5639
   22CHL1    C2 2781   1.163   0.338   6.981 -0.3959  0.0168 -0.5018
   22CHL1   H2A 2782   1.119   0.239   7.008 -0.1541  0.0357 -0.0338
   22CHL1   H2B 2783   1.106   0.424   7.020  0.3658  0.9311 -1.3468
   22CHL1   C20 2784   1.209   0.619   6.068  0.3578 -0.3263 -0.7454
   22CHL1   H20 2785   1.221   0.726   6.097  1.4385 -0.8869  1.0685
   22CHL1   C21 2786   1.054   0.590   6.082 -0.3074  0.7170 -0.1392
   22CHL1  H21A 2787   1.025   0.625   6.184 -0.3816 -0.2077  0.1674
   22CHL1  H21B 2788   1.041   0.480   6.068  0.1182  0.8853 -2.1503
   22CHL1  H21C 2789   0.993   0.639   6.003 -3.2144  0.5894  1.8519
   22CHL1   C22 2790   1.253   0.576   5.929 -0.2969  0.1704  0.0775
   22CHL1  H22A 2791   1.361   0.602   5.919  0.1643 -1.8247 -0.5567
   22CHL1  H22B 2792   1.243   0.467   5.910 -0.4248  0.6922 -3.8610
   22CHL1   C23 2793   1.178   0.649   5.809 -0.7574  0.0474  0.1080
   22CHL1  H23A 2794   1.077   0.602   5.804 -0.7972 -0.1668  2.1450
   22CHL1  H23B 2795   1.160   0.754   5.838 -0.8066 -0.0463  0.4162
   22CHL1   C24 2796   1.252   0.642   5.677  0.1286 -0.1326 -0.6138
   22CHL1  H24A 2797   1.336   0.715   5.676  1.6298 -1.6822  1.8659
   22CHL1  H24B 2798   1.301   0.542   5.670  0.5720  0.1957 -2.9920
   22CHL1   C25 2799   1.167   0.659   5.549  0.2193  0.2017  0.0482
   22CHL1   H25 2800   1.085   0.584   5.550  0.3748  0.0344  0.6251
   22CHL1   C26 2801   1.110   0.800   5.543  0.1235  0.0647 -0.3867
   22CHL1  H26A 2802   1.202   0.863   5.541  1.5841 -1.9540 -1.2374
   22CHL1  H26B 2803   1.046   0.811   5.452  0.5598  0.9023 -0.6060
   22CHL1  H26C 2804   1.052   0.818   5.635  1.4787  0.8857  0.3417
   22CHL1   C27 2805   1.239   0.617   5.423  0.4187 -0.2040  0.9930
   22CHL1  H27A 2806   1.178   0.649   5.336 -0.2166  0.3387  1.6279
   22CHL1  H27B 2807   1.341   0.655   5.404 -0.0092  0.2570 -0.4689
   22CHL1  H27C 2808   1.254   0.508   5.440 -0.5433 -0.4795  0.1889
   23CHL1    C3 2809   3.779   6.045   7.010  0.5779  0.6968  0.4084
   23CHL1    H3 2810   3.668   6.050   6.999  0.7437  1.7597 -1.0928
   23CHL1    O3 2811   3.814   6.046   7.149 -0.0513 -0.0013  0.2962
   23CHL1   H3' 2812   3.801   6.137   7.177 -2.5537  0.1990 -1.2273
   23CHL1    C4 2813   3.841   5.918   6.953 -0.0805  0.7558 -0.2736
   23CHL1   H4A 2814   3.949   5.914   6.979 -0.7357 -0.7870  2.6641
   23CHL1   H4B 2815   3.792   5.836   7.009 -1.9957  0.2291 -2.5363
   23CHL1    C5 2816   3.804   5.898   6.809 -0.0928 -0.3365  0.0120
   23CHL1    C6 2817   3.715   5.803   6.766  0.3818 -0.1338 -0.6364
   23CHL1    H6 2818   3.679   5.734   6.844  1.4651 -0.4685 -0.4155
   23CHL1    C7 2819   3.673   5.782   6.627 -0.2370 -0.1452 -0.4919
   23CHL1   H7A 2820   3.694   5.675   6.603  1.6089  0.1454 -0.3176
   23CHL1   H7B 2821   3.563   5.798   6.636  0.0699  2.1472 -0.2542
   23CHL1    C8 2822   3.757   5.878   6.533  0.6730  0.7468  0.1626
   23CHL1    H8 2823   3.857   5.831   6.518 -0.5756 -1.7419 -1.1109
   23CHL1   C14 2824   3.693   5.879   6.395 -0.5494  0.6661  0.3376
   23CHL1   H14 2825   3.594   5.929   6.403 -0.9335 -0.4041  3.3970
   23CHL1   C15 2826   3.665   5.734   6.334 -0.4680  0.4984 -0.2856
   23CHL1  H15A 2827   3.751   5.667   6.359 -0.4340  0.4514 -0.5287
   23CHL1  H15B 2828   3.580   5.681   6.381  0.5505 -0.4404  0.5703
   23CHL1   C16 2829   3.650   5.766   6.185  0.5588 -0.5489  0.4661
   23CHL1  H16A 2830   3.710   5.698   6.122 -2.4436 -0.2448 -3.0166
   23CHL1  H16B 2831   3.542   5.750   6.165  0.7291  0.8686 -1.9681
   23CHL1   C17 2832   3.684   5.922   6.165 -0.3577  0.1192  0.1573
   23CHL1   H17 2833   3.582   5.966   6.169 -1.2982 -2.0003  0.8936
   23CHL1   C13 2834   3.768   5.961   6.292 -0.0012 -0.6917  0.8897
   23CHL1   C18 2835   3.914   5.909   6.271 -0.0410  0.1488 -0.5778
   23CHL1  H18A 2836   3.966   5.965   6.190  0.6378 -0.7334 -0.7666
   23CHL1  H18B 2837   3.982   5.923   6.359  0.6051  1.3820 -1.2466
   23CHL1  H18C 2838   3.899   5.801   6.251 -0.1675 -0.3942  2.0917
   23CHL1   C12 2839   3.766   6.110   6.331  0.2934  0.0964 -0.0321
   23CHL1  H12A 2840   3.810   6.178   6.255  2.0867 -1.9024 -0.8956
   23CHL1  H12B 2841   3.660   6.137   6.315  0.4762 -0.8527 -4.1059
   23CHL1   C11 2842   3.825   6.132   6.474 -0.3589 -0.2695  0.7235
   23CHL1  H11A 2843   3.935   6.118   6.467 -0.2450  0.8837  0.0203
   23CHL1  H11B 2844   3.806   6.238   6.501  0.3772 -0.7678  3.5259
   23CHL1    C9 2845   3.777   6.023   6.581  0.4176  0.1258 -0.0481
   23CHL1    H9 2846   3.673   6.053   6.605 -0.0577 -0.6259 -1.0879
   23CHL1   C10 2847   3.848   6.017   6.715  0.0835 -0.0992  0.0363
   23CHL1   C19 2848   3.998   5.989   6.699 -0.0597 -0.2904  0.1562
   23CHL1  H19A 2849   4.017   5.886   6.661  0.0002 -0.7495  1.3985
   23CHL1  H19B 2850   4.063   6.067   6.654 -0.1441 -0.3963 -0.1563
   23CHL1  H19C 2851   4.041   5.979   6.801  0.6692 -0.0813 -0.1193
   23CHL1    C1 2852   3.819   6.152   6.788  0.0698  0.0147  0.3423
   23CHL1   H1A 2853   3.874   6.230   6.731 -0.8668  1.1333  0.9341
   23CHL1   H1B 2854   3.711   6.174   6.786 -0.6194 -2.9070  0.7766
   23CHL1    C2 2855   3.849   6.158   6.934  0.2213  0.1130  0.1229
   23CHL1   H2A 2856   3.818   6.258   6.972 -3.6187  0.6080 -3.6433
   23CHL1   H2B 2857   3.959   6.153   6.950  0.2915  2.9686  1.0836
   23CHL1   C20 2858   3.740   5.950   6.018 -0.2641 -0.0179 -0.0529
   23CHL1   H20 2859   3.834   5.895   5.998  0.2900  1.8111 -3.4032
   23CHL1   C21 2860   3.770   6.102   6.003  0.2986 -0.3728  0.5745
   23CHL1  H21A 2861   3.858   6.144   6.056  0.2272  1.6344 -0.7937
   23CHL1  H21B 2862   3.671   6.150   6.019 -0.2097  0.7690 -4.4221
   23CHL1  H21C 2863   3.792   6.122   5.896  0.3251  0.3089  0.7081
   23CHL1   C22 2864   3.644   5.905   5.901 -0.1096 -0.5314  0.6315
   23CHL1  H22A 2865   3.609   5.800   5.914 -2.1189  0.2151  1.5801
   23CHL1  H22B 2866   3.557   5.974   5.910  0.5811  0.1961  2.1197
   23CHL1   C23 2867   3.707   5.903   5.763 -0.0621 -0.0791  0.4376
   23CHL1  H23A 2868   3.770   5.994   5.759 -0.9188  0.6512  2.2259
   23CHL1  H23B 2869   3.777   5.818   5.756  1.1776  1.0288 -1.5600
   23CHL1   C24 2870   3.600   5.901   5.645 -0.6135  1.0057  0.2969
   23CHL1  H24A 2871   3.522   5.831   5.680  0.2604  0.0446  0.3715
   23CHL1  H24B 2872   3.548   5.999   5.655  0.4397  1.4072  2.2195
   23CHL1   C25 2873   3.659   5.886   5.508  0.6603 -0.3122  1.1457
   23CHL1   H25 2874   3.696   5.783   5.492  0.0506 -0.2188 -1.1638
   23CHL1   C26 2875   3.539   5.910   5.408 -0.5919  0.0364  0.5596
   23CHL1  H26A 2876   3.501   6.014   5.420  0.4328  0.5484 -0.4332
   23CHL1  H26B 2877   3.574   5.910   5.302 -2.5804 -2.9801 -0.2207
   23CHL1  H26C 2878   3.452   5.842   5.413 -0.7960  0.1621 -0.8520
   23CHL1   C27 2879   3.763   5.983   5.469 -0.7612  0.4843 -0.3625
   23CHL1  H27A 2880   3.741   6.083   5.513 -0.8715 -0.3180  1.4887
   23CHL1  H27B 2881   3.869   5.955   5.486 -1.1366 -1.3182 -0.8073
   23CHL1  H27C 2882   3.765   6.014   5.362 -0.7004 -1.2984 -0.9022
   24CHL1    C3 2883   4.979   4.690   6.431 -0.3817 -0.2331 -0.1119
   24CHL1    H3 2884   5.088   4.710   6.427 -0.6110  0.9181 -1.1640
   24CHL1    O3 2885   4.947   4.681   6.566 -0.2446 -0.2443 -0.0436
   24CHL1   H3' 2886   4.856   4.649   6.567 -0.3013 -0.0949 -0.4322
   24CHL1    C4 2887   4.893   4.806   6.364 -1.0870 -0.0584 -0.2766
   24CHL1   H4A 2888   4.790   4.811   6.406 -2.0764 -0.8648 -2.4166
   24CHL1   H4B 2889   4.940   4.901   6.395 -0.6814 -0.7896  1.4432
   24CHL1    C5 2890   4.893   4.804   6.211  0.4031  0.3444  0.4439
   24CHL1    C6 2891   4.925   4.908   6.134  0.2942 -0.0233 -0.5941
   24CHL1    H6 2892   4.946   5.004   6.183 -2.2337  1.0263 -1.4006
   24CHL1    C7 2893   4.933   4.913   5.983 -0.1894  0.5877  0.4387
   24CHL1   H7A 2894   4.891   5.008   5.944 -1.9033  0.3127  1.5252
   24CHL1   H7B 2895   5.040   4.902   5.954 -0.4107 -3.0218  0.5549
   24CHL1    C8 2896   4.854   4.802   5.922  0.1353  0.3673 -0.4196
   24CHL1    H8 2897   4.746   4.822   5.938 -0.0796 -0.3023 -0.9605
   24CHL1   C14 2898   4.872   4.794   5.768  0.4665 -0.1604 -0.4210
   24CHL1   H14 2899   4.981   4.779   5.752  0.1281 -1.8708 -1.2479
   24CHL1   C15 2900   4.826   4.917   5.689  0.0402  0.7396 -0.2646
   24CHL1  H15A 2901   4.721   4.939   5.720  0.1870  1.2846 -0.1449
   24CHL1  H15B 2902   4.883   5.012   5.689 -0.0584  0.8809  2.7490
   24CHL1   C16 2903   4.828   4.855   5.548  0.1609  0.0155 -0.0222
   24CHL1  H16A 2904   4.729   4.875   5.501  0.5269 -1.0959 -1.3055
   24CHL1  H16B 2905   4.908   4.904   5.489  0.2229  0.4854  0.4422
   24CHL1   C17 2906   4.841   4.698   5.550  0.0490  0.3987 -0.2601
   24CHL1   H17 2907   4.951   4.685   5.541  0.3572  1.0349  1.9615
   24CHL1   C13 2908   4.813   4.671   5.698  0.1270  0.1854  0.2529
   24CHL1   C18 2909   4.652   4.669   5.714 -0.1303 -0.5331  0.1011
   24CHL1  H18A 2910   4.601   4.749   5.657 -1.1619 -0.3392  1.2508
   24CHL1  H18B 2911   4.623   4.566   5.682  2.2657 -0.8424 -1.3133
   24CHL1  H18C 2912   4.627   4.692   5.820 -0.7899  1.7449 -0.5032
   24CHL1   C12 2913   4.881   4.546   5.760  0.0762 -0.4580 -0.4029
   24CHL1  H12A 2914   4.849   4.451   5.713  2.7509 -1.5862 -0.1462
   24CHL1  H12B 2915   4.992   4.550   5.749  0.2434 -2.2362  0.2309
   24CHL1   C11 2916   4.845   4.540   5.911  0.0807 -0.4220  0.1760
   24CHL1  H11A 2917   4.737   4.520   5.928 -0.3176 -0.5723 -2.1471
   24CHL1  H11B 2918   4.896   4.448   5.947  1.8364 -0.0280 -1.1515
   24CHL1    C9 2919   4.895   4.668   5.989 -0.0813 -0.0769 -0.2442
   24CHL1    H9 2920   5.005   4.662   5.975 -0.0975 -2.8960  0.1394
   24CHL1   C10 2921   4.866   4.666   6.137  0.1454  0.2730 -0.1095
   24CHL1   C19 2922   4.710   4.629   6.163  0.3983 -0.5553  0.2762
   24CHL1  H19A 2923   4.676   4.528   6.130 -0.6231 -0.0039 -0.4260
   24CHL1  H19B 2924   4.680   4.633   6.269 -2.5474 -0.8248 -0.4503
   24CHL1  H19C 2925   4.652   4.709   6.113  1.3140 -0.5384 -0.8023
   24CHL1    C1 2926   4.956   4.566   6.214  0.5898  0.8999 -0.1956
   24CHL1   H1A 2927   4.932   4.469   6.166 -0.8274  0.8445  0.5792
   24CHL1   H1B 2928   5.062   4.595   6.198  0.2774  1.2624 -1.6573
   24CHL1    C2 2929   4.948   4.558   6.365 -0.4944  0.0602 -0.1112
   24CHL1   H2A 2930   5.022   4.480   6.391  1.0783  0.7275 -2.2761
   24CHL1   H2B 2931   4.854   4.505   6.389 -0.0939 -1.4356 -1.6477
   24CHL1   C20 2932   4.771   4.629   5.433  0.1539  0.0738 -0.6340
   24CHL1   H20 2933   4.663   4.640   5.455  0.5540  1.4632  0.8521
   24CHL1   C21 2934   4.821   4.482   5.431 -0.6283 -0.3990  0.2746
   24CHL1  H21A 2935   4.931   4.476   5.443 -0.5657 -1.5279 -0.6819
   24CHL1  H21B 2936   4.800   4.430   5.335  0.1847 -1.4994  0.6755
   24CHL1  H21C 2937   4.766   4.414   5.499  0.4892 -1.9297 -0.2950
   24CHL1   C22 2938   4.803   4.691   5.297  0.7035 -0.2978  1.2190
   24CHL1  H22A 2939   4.751   4.633   5.218 -0.6228  2.8436 -0.4044
   24CHL1  H22B 2940   4.752   4.787   5.276 -2.1543 -1.5076  2.0846
   24CHL1   C23 2941   4.955   4.693   5.268  0.4577 -0.1427  0.0751
   24CHL1  H23A 2942   5.001   4.754   5.349  1.1739 -0.1379 -0.3285
   24CHL1  H23B 2943   4.993   4.588   5.274  0.7875  0.0304  1.2987
   24CHL1   C24 2944   5.001   4.745   5.125 -0.0772 -0.0910 -0.2482
   24CHL1  H24A 2945   4.987   4.656   5.061 -0.5128 -0.0940 -0.1541
   24CHL1  H24B 2946   4.940   4.834   5.099 -0.6900 -0.5205 -0.2997
   24CHL1   C25 2947   5.154   4.775   5.123  0.0602  0.1937  0.2160
   24CHL1   H25 2948   5.171   4.833   5.216 -0.2920  0.6208  0.0188
   24CHL1   C26 2949   5.245   4.641   5.124 -0.9144 -0.2750 -0.7614
   24CHL1  H26A 2950   5.250   4.594   5.024 -0.9922 -2.1453  0.0732
   24CHL1  H26B 2951   5.347   4.681   5.145 -1.2036 -0.0322  0.2631
   24CHL1  H26C 2952   5.225   4.571   5.208 -0.2015  0.0725 -0.2831
   24CHL1   C27 2953   5.200   4.872   5.010  0.1890  1.0887 -0.0874
   24CHL1  H27A 2954   5.154   4.973   5.013 -0.6735  0.7356 -1.0389
   24CHL1  H27B 2955   5.311   4.880   5.015  0.1517  1.0245  1.0984
   24CHL1  H27C 2956   5.169   4.834   4.910  0.8442 -0.3148  0.2183
   25CHL1    C3 2957   2.310   2.403   6.651 -0.6021 -0.1950  0.1077
   25CHL1    H3 2958   2.374   2.313   6.638  0.2020  0.5195 -1.0255
   25CHL1    O3 2959   2.334   2.443   6.786 -0.4081 -0.2535 -0.2669
   25CHL1   H3' 2960   2.255   2.494   6.807  0.3651  1.6276 -1.5944
   25CHL1    C4 2961   2.353   2.510   6.554 -0.5490 -0.9663 -0.5222
   25CHL1   H4A 2962   2.310   2.607   6.585  1.3906 -0.8088  2.0179
   25CHL1   H4B 2963   2.463   2.525   6.562 -0.7313  0.3497 -0.3043
   25CHL1    C5 2964   2.327   2.467   6.409 -0.3113  0.4019  0.0838
   25CHL1    C6 2965   2.423   2.459   6.316 -0.5907  0.0520 -0.2284
   25CHL1    H6 2966   2.523   2.486   6.354 -0.0426 -1.2530 -0.7017
   25CHL1    C7 2967   2.402   2.430   6.174  0.2618 -0.1278  0.2706
   25CHL1   H7A 2968   2.468   2.497   6.116 -1.0093  0.3277 -0.6948
   25CHL1   H7B 2969   2.445   2.329   6.153 -1.4546 -1.4173  2.4907
   25CHL1    C8 2970   2.251   2.436   6.133 -0.2369  0.3297  0.0543
   25CHL1    H8 2971   2.224   2.544   6.135 -1.7550  0.0376 -1.7301
   25CHL1   C14 2972   2.240   2.373   5.992 -0.2661 -0.3166 -0.9520
   25CHL1   H14 2973   2.257   2.265   6.008  3.2744  0.2345 -0.0478
   25CHL1   C15 2974   2.335   2.433   5.887 -0.1137  0.2806 -0.0791
   25CHL1  H15A 2975   2.340   2.544   5.884 -0.3827  0.3028  0.2837
   25CHL1  H15B 2976   2.440   2.401   5.903  0.9004  1.6645 -3.1196
   25CHL1   C16 2977   2.263   2.398   5.752 -0.3065 -0.2616  0.2408
   25CHL1  H16A 2978   2.236   2.492   5.699  0.3336  0.5106  1.2459
   25CHL1  H16B 2979   2.326   2.332   5.688 -1.6702 -1.4783  0.1078
   25CHL1   C17 2980   2.135   2.328   5.790 -0.0985  0.3221  0.0312
   25CHL1   H17 2981   2.161   2.220   5.793 -1.6339 -0.0591  1.0431
   25CHL1   C13 2982   2.101   2.378   5.936 -0.2768 -0.5723  0.1923
   25CHL1   C18 2983   2.048   2.523   5.919 -0.7865  0.1971 -0.0646
   25CHL1  H18A 2984   1.938   2.512   5.930 -0.6538 -0.0543  1.2059
   25CHL1  H18B 2985   2.082   2.602   5.989 -0.0251  0.5998 -0.8754
   25CHL1  H18C 2986   2.078   2.572   5.824 -2.0197  1.0440 -0.0402
   25CHL1   C12 2987   2.014   2.296   6.036 -0.4716  0.1827 -0.6200
   25CHL1  H12A 2988   1.911   2.271   6.001  0.0730 -0.3942 -1.8547
   25CHL1  H12B 2989   2.048   2.191   6.044 -0.4680  0.2107 -0.2870
   25CHL1   C11 2990   2.014   2.354   6.179  0.0259 -0.2990 -0.3230
   25CHL1  H11A 2991   1.966   2.454   6.171  0.4087 -0.1396 -0.6864
   25CHL1  H11B 2992   1.946   2.292   6.240  0.3942  0.8667  1.3458
   25CHL1    C9 2993   2.161   2.368   6.231 -0.5403 -0.2601  0.4292
   25CHL1    H9 2994   2.198   2.264   6.247  1.4153  0.8694  4.7600
   25CHL1   C10 2995   2.178   2.431   6.379 -0.5565 -0.0597  0.0885
   25CHL1   C19 2996   2.100   2.566   6.386  0.5947 -0.4153  0.7778
   25CHL1  H19A 2997   2.121   2.611   6.485  1.0226 -0.3568  0.6605
   25CHL1  H19B 2998   2.119   2.634   6.300 -1.2919 -1.6944 -0.7345
   25CHL1  H19C 2999   1.992   2.542   6.396  0.1835 -0.1852 -2.2616
   25CHL1    C1 3000   2.120   2.329   6.486 -0.6457  0.0990  0.7215
   25CHL1   H1A 3001   2.011   2.314   6.476 -0.5685 -0.0399  0.0020
   25CHL1   H1B 3002   2.170   2.231   6.472 -1.3011 -0.1346 -0.0311
   25CHL1    C2 3003   2.153   2.369   6.632 -0.1612 -0.0706 -0.5612
   25CHL1   H2A 3004   2.126   2.279   6.690  3.3099 -1.1956 -0.4316
   25CHL1   H2B 3005   2.092   2.457   6.661 -0.2120 -0.4309  0.4714
   25CHL1   C20 3006   2.032   2.328   5.678  0.1189 -0.3401 -0.3549
   25CHL1   H20 3007   1.974   2.420   5.702 -0.2617 -0.6069 -0.2402
   25CHL1   C21 3008   1.925   2.218   5.709  0.9005  0.2713  0.1298
   25CHL1  H21A 3009   1.842   2.231   5.637  1.4425  0.3893 -0.4922
   25CHL1  H21B 3010   1.875   2.241   5.805  0.8934  1.0620 -0.0594
   25CHL1  H21C 3011   1.969   2.116   5.718 -2.0238 -1.1133 -0.2425
   25CHL1   C22 3012   2.085   2.323   5.530  0.4271  0.0783  0.9002
   25CHL1  H22A 3013   1.990   2.317   5.472  0.5194  0.7813  0.6639
   25CHL1  H22B 3014   2.137   2.419   5.508  1.7836 -0.5387  1.3180
   25CHL1   C23 3015   2.168   2.191   5.507 -0.2754  0.0362 -0.7491
   25CHL1  H23A 3016   2.264   2.200   5.561 -1.3882 -2.1484  1.8126
   25CHL1  H23B 3017   2.121   2.097   5.543  0.8445 -1.5152 -3.0183
   25CHL1   C24 3018   2.200   2.170   5.356 -0.3109 -0.2156  0.1639
   25CHL1  H24A 3019   2.253   2.264   5.330 -0.3217 -0.5563 -1.1234
   25CHL1  H24B 3020   2.269   2.083   5.350  1.1663  0.9691 -0.4344
   25CHL1   C25 3021   2.082   2.147   5.256 -1.0667 -0.0999  0.0309
   25CHL1   H25 3022   2.006   2.227   5.272 -1.5613 -0.7823  1.2706
   25CHL1   C26 3023   2.139   2.148   5.111  0.6012 -0.5173  0.1520
   25CHL1  H26A 3024   2.063   2.161   5.031  0.5843  1.4939  0.4468
   25CHL1  H26B 3025   2.210   2.232   5.101 -0.8118  0.8803  1.2424
   25CHL1  H26C 3026   2.192   2.051   5.105 -0.8973 -1.4391  1.0657
   25CHL1   C27 3027   2.012   2.012   5.295 -0.9585  0.0704  0.4888
   25CHL1  H27A 3028   2.088   1.934   5.276 -0.8197  0.6123 -1.4367
   25CHL1  H27B 3029   1.998   2.024   5.404  0.8135  1.7948  0.5842
   25CHL1  H27C 3030   1.919   1.999   5.235 -0.0389  0.7576 -1.1757
   26CHL1    C3 3031   0.817   1.983   6.871 -0.3877  0.8500 -0.4989
   26CHL1    H3 3032   0.881   2.072   6.850  0.1381  0.1320 -2.0828
   26CHL1    O3 3033   0.833   1.933   7.001  0.0334  0.2288 -0.9642
   26CHL1   H3' 3034   0.926   1.951   7.017 -0.0867 -0.3492  0.5075
   26CHL1    C4 3035   0.669   2.022   6.833  0.5718 -0.3524 -0.5765
   26CHL1   H4A 3036   0.610   1.929   6.851 -0.6857  0.8377  2.0471
   26CHL1   H4B 3037   0.633   2.094   6.909  0.9239 -1.4746  0.7066
   26CHL1    C5 3038   0.638   2.059   6.692  0.0294 -0.2429  0.9387
   26CHL1    C6 3039   0.588   2.178   6.664  1.3009  0.7988 -0.1188
   26CHL1    H6 3040   0.568   2.251   6.744 -0.0332 -1.1973  1.4796
   26CHL1    C7 3041   0.542   2.218   6.527 -0.2467 -0.2457  0.2208
   26CHL1   H7A 3042   0.433   2.239   6.533 -0.1726 -0.2001  2.3160
   26CHL1   H7B 3043   0.602   2.307   6.498  3.2207 -2.9829 -1.7285
   26CHL1    C8 3044   0.556   2.100   6.423  0.0590  0.3122 -0.4289
   26CHL1    H8 3045   0.469   2.033   6.435 -0.1943  0.9770  1.9708
   26CHL1   C14 3046   0.571   2.159   6.281 -0.0642 -0.1565 -0.6963
   26CHL1   H14 3047   0.662   2.223   6.286 -0.2797  0.0479  1.1892
   26CHL1   C15 3048   0.467   2.258   6.232 -0.3396  0.0006  0.3287
   26CHL1  H15A 3049   0.361   2.236   6.257 -0.4506  1.2295  0.9812
   26CHL1  H15B 3050   0.499   2.352   6.281  0.2580  0.4268 -0.8436
   26CHL1   C16 3051   0.487   2.266   6.076 -0.1733  0.0077  0.0290
   26CHL1  H16A 3052   0.386   2.265   6.030 -1.7347  1.9240  3.0717
   26CHL1  H16B 3053   0.537   2.360   6.045 -0.0842  0.0097  0.1768
   26CHL1   C17 3054   0.596   2.153   6.041  0.1399 -0.0919  0.2882
   26CHL1   H17 3055   0.698   2.195   6.052  0.4026 -1.2292  2.8713
   26CHL1   C13 3056   0.588   2.058   6.167 -0.1199  0.0525  0.1899
   26CHL1   C18 3057   0.461   1.971   6.160 -0.0462  0.0914 -0.0844
   26CHL1  H18A 3058   0.478   1.905   6.072  0.0728 -0.1490  0.1170
   26CHL1  H18B 3059   0.439   1.906   6.247 -0.3586  2.0794  1.3866
   26CHL1  H18C 3060   0.367   2.026   6.137 -2.5112 -3.6648  0.2409
   26CHL1   C12 3061   0.720   1.983   6.194 -0.7292  0.0520  0.6106
   26CHL1  H12A 3062   0.743   1.910   6.114  0.4101 -0.4712  1.3970
   26CHL1  H12B 3063   0.798   2.062   6.186  0.3941 -1.2188 -2.3440
   26CHL1   C11 3064   0.721   1.921   6.336 -0.0230 -0.1266  0.6022
   26CHL1  H11A 3065   0.649   1.837   6.342 -1.8470  1.0510 -2.3149
   26CHL1  H11B 3066   0.824   1.886   6.358  1.4602  1.8757 -2.3791
   26CHL1    C9 3067   0.685   2.018   6.447 -0.3048 -0.2361  0.4496
   26CHL1    H9 3068   0.770   2.089   6.445  0.2469 -0.8060  1.8719
   26CHL1   C10 3069   0.690   1.955   6.589 -0.1084  0.3828 -0.5096
   26CHL1   C19 3070   0.605   1.827   6.596  1.0271 -0.1328 -0.0877
   26CHL1  H19A 3071   0.501   1.857   6.570  0.8583 -0.5260  0.1264
   26CHL1  H19B 3072   0.628   1.748   6.522 -0.2741 -0.1756 -0.4783
   26CHL1  H19C 3073   0.608   1.790   6.701  1.8014 -0.2291 -0.1418
   26CHL1    C1 3074   0.829   1.916   6.628  0.8768 -0.6399  0.4651
   26CHL1   H1A 3075   0.854   1.827   6.567 -1.3306 -0.9736 -0.0314
   26CHL1   H1B 3076   0.902   1.998   6.616  1.2316 -0.7189  1.8621
   26CHL1    C2 3077   0.847   1.870   6.777  0.7074 -0.0654  1.2232
   26CHL1   H2A 3078   0.951   1.835   6.795  0.6663 -1.7097 -1.2819
   26CHL1   H2B 3079   0.778   1.785   6.797 -1.5456  1.2469 -0.4823
   26CHL1   C20 3080   0.570   2.097   5.899  0.3742  0.5584  1.5393
   26CHL1   H20 3081   0.471   2.046   5.900 -0.0234  1.2466  0.1270
   26CHL1   C21 3082   0.669   1.985   5.868  0.3727 -0.6605  0.4154
   26CHL1  H21A 3083   0.629   1.946   5.772 -2.9178  0.9974  0.9849
   26CHL1  H21B 3084   0.672   1.899   5.938  1.1299 -0.8198  0.1997
   26CHL1  H21C 3085   0.766   2.032   5.842  0.0331 -0.8535 -1.3072
   26CHL1   C22 3086   0.567   2.212   5.789 -0.2414  0.4759  0.1595
   26CHL1  H22A 3087   0.485   2.280   5.822 -0.1840  0.6227 -0.0014
   26CHL1  H22B 3088   0.658   2.275   5.789 -0.3130  0.6506  2.2253
   26CHL1   C23 3089   0.538   2.161   5.639  0.6352 -0.1467  0.0911
   26CHL1  H23A 3090   0.611   2.083   5.610  0.2443 -0.8651  0.9804
   26CHL1  H23B 3091   0.445   2.099   5.640 -0.2355  1.0029  3.1867
   26CHL1   C24 3092   0.522   2.279   5.542 -0.8038 -0.2880 -0.8825
   26CHL1  H24A 3093   0.456   2.363   5.575  3.2306  2.6011  0.6233
   26CHL1  H24B 3094   0.615   2.339   5.547 -1.3396  0.5964 -1.1183
   26CHL1   C25 3095   0.483   2.251   5.401 -0.2951 -0.0158  0.4915
   26CHL1   H25 3096   0.556   2.181   5.354 -2.8001  0.0210 -4.1038
   26CHL1   C26 3097   0.347   2.173   5.393 -0.0171  0.2290  0.2841
   26CHL1  H26A 3098   0.273   2.220   5.462 -1.5116 -0.5925 -0.6946
   26CHL1  H26B 3099   0.312   2.173   5.287  1.5087 -2.1302 -0.2942
   26CHL1  H26C 3100   0.360   2.069   5.429 -0.4143 -0.8715 -2.4682
   26CHL1   C27 3101   0.485   2.378   5.320 -0.0348  0.0735 -0.2601
   26CHL1  H27A 3102   0.588   2.418   5.328 -0.2451  0.9192 -1.5579
   26CHL1  H27B 3103   0.464   2.367   5.212  2.9782 -1.5363 -0.7848
   26CHL1  H27C 3104   0.425   2.456   5.372 -2.4057 -2.0992  0.5038
   27CHL1    C3 3105   5.299   1.207   6.885  0.5378  0.1431 -0.2788
   27CHL1    H3 3106   5.299   1.318   6.874  0.2118  0.0020 -1.9518
   27CHL1    O3 3107   5.340   1.173   7.014 -0.1367  0.9190  0.3739
   27CHL1   H3' 3108   5.410   1.237   7.029  0.5498  0.5215 -0.9561
   27CHL1    C4 3109   5.153   1.154   6.883  0.8122  0.7376 -0.1592
   27CHL1   H4A 3110   5.150   1.049   6.919  0.8238  1.8757  3.5453
   27CHL1   H4B 3111   5.099   1.209   6.963 -1.4684 -1.8528  0.2395
   27CHL1    C5 3112   5.091   1.162   6.742  0.6425 -0.5999 -0.6493
   27CHL1    C6 3113   4.983   1.243   6.726 -0.2686 -0.0350 -0.1541
   27CHL1    H6 3114   4.945   1.299   6.812 -1.0060 -0.5682 -0.1253
   27CHL1    C7 3115   4.906   1.257   6.594 -0.2389  0.0889  0.2952
   27CHL1   H7A 3116   4.796   1.240   6.602 -0.5229  1.6298 -0.1014
   27CHL1   H7B 3117   4.898   1.361   6.558 -4.4334 -0.4845 -1.0712
   27CHL1    C8 3118   4.953   1.162   6.487 -1.2301  0.5321 -0.7286
   27CHL1    H8 3119   4.910   1.061   6.500 -1.4141  0.6056 -0.7534
   27CHL1   C14 3120   4.905   1.208   6.345  0.1988 -0.7436  0.0088
   27CHL1   H14 3121   4.949   1.309   6.337 -1.3754  0.0953  1.4165
   27CHL1   C15 3122   4.756   1.226   6.327 -0.0299  0.2828  0.0516
   27CHL1  H15A 3123   4.693   1.138   6.354  0.3285 -0.4764 -1.5066
   27CHL1  H15B 3124   4.702   1.312   6.372  0.0481  1.0728 -1.3157
   27CHL1   C16 3125   4.739   1.229   6.177  0.2679 -0.2468 -0.1993
   27CHL1  H16A 3126   4.665   1.151   6.149 -0.5504 -0.6084  2.6453
   27CHL1  H16B 3127   4.693   1.323   6.141  0.4583  0.7048  1.8864
   27CHL1   C17 3128   4.879   1.194   6.116 -0.3759 -0.3699  0.4893
   27CHL1   H17 3129   4.926   1.294   6.097  1.3234 -1.4401 -1.3860
   27CHL1   C13 3130   4.949   1.122   6.226 -0.6720  0.0020 -0.3840
   27CHL1   C18 3131   4.890   0.975   6.242  0.3246 -0.4822 -0.0655
   27CHL1  H18A 3132   4.925   0.932   6.338  0.3403  0.6892  0.4804
   27CHL1  H18B 3133   4.779   0.985   6.246  0.3541 -0.6304  1.8830
   27CHL1  H18C 3134   4.911   0.911   6.154 -0.8901  0.1911 -0.8829
   27CHL1   C12 3135   5.103   1.119   6.232  0.0955  0.2289  0.0319
   27CHL1  H12A 3136   5.165   1.069   6.154  2.9664 -0.1680  2.3712
   27CHL1  H12B 3137   5.141   1.223   6.226  3.0445 -0.4808  3.1433
   27CHL1   C11 3138   5.158   1.070   6.373  0.6512 -0.0478 -0.0896
   27CHL1  H11A 3139   5.122   0.965   6.374 -2.1539  0.8224 -0.5916
   27CHL1  H11B 3140   5.268   1.088   6.381  0.5679  0.3510  0.1662
   27CHL1    C9 3141   5.103   1.151   6.490 -0.4973 -0.6463 -0.4587
   27CHL1    H9 3142   5.143   1.254   6.476 -1.6431 -0.1553 -0.2361
   27CHL1   C10 3143   5.160   1.097   6.626  0.0100 -0.7350  0.8227
   27CHL1   C19 3144   5.168   0.940   6.635  0.8220 -0.1097  0.3701
   27CHL1  H19A 3145   5.238   0.888   6.566  1.7137 -1.7191  2.3760
   27CHL1  H19B 3146   5.209   0.910   6.734  0.8523 -0.0301  0.3820
   27CHL1  H19C 3147   5.066   0.901   6.616 -0.1321  1.4021  2.0854
   27CHL1    C1 3148   5.310   1.150   6.640  0.4403 -0.5084 -0.4225
   27CHL1   H1A 3149   5.372   1.100   6.563 -1.0168 -0.1543 -1.8848
   27CHL1   H1B 3150   5.322   1.258   6.614 -0.3554  0.0657  1.3706
   27CHL1    C2 3151   5.384   1.147   6.772  0.0736 -0.3980  0.5831
   27CHL1   H2A 3152   5.486   1.190   6.766 -0.2796  0.2613 -3.0139
   27CHL1   H2B 3153   5.405   1.040   6.796  1.4981 -0.4579 -0.7679
   27CHL1   C20 3154   4.869   1.133   5.977  0.5932 -0.0164  0.1092
   27CHL1   H20 3155   4.801   1.045   5.979  0.4092  0.1333  0.5378
   27CHL1   C21 3156   5.005   1.079   5.931  0.5805 -0.6261  0.2508
   27CHL1  H21A 3157   5.073   1.167   5.926 -1.0670  0.6475 -0.8233
   27CHL1  H21B 3158   5.002   1.043   5.826 -0.8335  3.9513 -1.5480
   27CHL1  H21C 3159   5.048   1.005   6.001 -1.4564 -2.6145 -0.5143
   27CHL1   C22 3160   4.802   1.234   5.880  0.1053  0.6889  0.3586
   27CHL1  H22A 3161   4.701   1.263   5.916 -0.1269  0.3135  0.0306
   27CHL1  H22B 3162   4.863   1.326   5.873  0.2378  0.5763 -0.0324
   27CHL1   C23 3163   4.779   1.173   5.735 -0.4896  0.0755 -0.3702
   27CHL1  H23A 3164   4.866   1.160   5.666 -0.9907 -0.6366 -0.8854
   27CHL1  H23B 3165   4.749   1.068   5.756  0.8296  0.3044  3.3806
   27CHL1   C24 3166   4.679   1.260   5.649 -0.9098  0.4762  0.6801
   27CHL1  H24A 3167   4.588   1.268   5.712 -0.2074  0.7524  1.6818
   27CHL1  H24B 3168   4.733   1.357   5.640 -0.3106  0.0509 -0.5614
   27CHL1   C25 3169   4.659   1.198   5.512  0.9186  0.1249  0.7643
   27CHL1   H25 3170   4.749   1.166   5.455 -0.5646  0.3960 -1.9394
   27CHL1   C26 3171   4.567   1.071   5.530 -0.3084  0.3731 -0.3179
   27CHL1  H26A 3172   4.625   0.989   5.577 -0.3694  0.8988  0.7065
   27CHL1  H26B 3173   4.490   1.091   5.608  1.2313 -0.2294  1.4309
   27CHL1  H26C 3174   4.518   1.037   5.436  0.6579 -2.6717  0.1686
   27CHL1   C27 3175   4.572   1.302   5.427  0.3041 -0.4369  0.4679
   27CHL1  H27A 3176   4.643   1.387   5.417  0.6584 -0.5903  1.4963
   27CHL1  H27B 3177   4.487   1.338   5.489  0.2237  0.7116 -0.2841
   27CHL1  H27C 3178   4.534   1.258   5.333 -0.7695  1.4431 -0.0274
   28CHL1    C3 3179   3.665   0.059   7.194 -0.8328 -0.2551 -0.2552
   28CHL1    H3 3180   3.754   0.115   7.157 -0.7466 -0.3363 -0.1708
   28CHL1    O3 3181   3.674   0.033   7.331  0.2910  0.0074  0.4166
   28CHL1   H3' 3182   3.593  -0.009   7.360  0.0998  0.7969  1.0726
   28CHL1    C4 3183   3.547   0.153   7.167 -0.0365  0.9775 -0.0970
   28CHL1   H4A 3184   3.460   0.096   7.206  0.3815 -0.0501 -0.6182
   28CHL1   H4B 3185   3.564   0.242   7.231 -0.0478  0.4056  0.7116
   28CHL1    C5 3186   3.523   0.187   7.021 -0.1748  0.1843  0.6991
   28CHL1    C6 3187   3.513   0.318   6.977 -0.6766  0.1498 -0.0838
   28CHL1    H6 3188   3.505   0.394   7.055 -0.4744  0.9736 -0.8549
   28CHL1    C7 3189   3.479   0.355   6.829  0.2883  0.2261  0.2994
   28CHL1   H7A 3190   3.415   0.444   6.811  0.2664 -0.2208 -2.0856
   28CHL1   H7B 3191   3.575   0.391   6.784  0.3107 -1.0422 -0.7260
   28CHL1    C8 3192   3.434   0.236   6.743 -0.0027 -0.5594  0.4683
   28CHL1    H8 3193   3.327   0.220   6.768 -0.8333  1.1466 -1.6178
   28CHL1   C14 3194   3.446   0.261   6.592 -0.2264  0.0141  0.1444
   28CHL1   H14 3195   3.550   0.283   6.561 -0.7726  3.6509  0.4455
   28CHL1   C15 3196   3.379   0.383   6.544  0.0734 -0.2564  0.2637
   28CHL1  H15A 3197   3.285   0.402   6.600 -0.2074 -2.5780  0.6740
   28CHL1  H15B 3198   3.438   0.476   6.558 -1.4267  0.7337  0.3329
   28CHL1   C16 3199   3.347   0.363   6.397  0.2827 -0.0999 -0.0589
   28CHL1  H16A 3200   3.238   0.367   6.377  0.4754  1.2447 -0.9640
   28CHL1  H16B 3201   3.404   0.422   6.322  1.2068 -1.7262 -0.7080
   28CHL1   C17 3202   3.388   0.210   6.366  0.5217 -0.0691 -0.2242
   28CHL1   H17 3203   3.493   0.221   6.331  1.3994 -2.2001  1.4633
   28CHL1   C13 3204   3.388   0.144   6.510  0.6720 -0.1533 -0.0337
   28CHL1   C18 3205   3.231   0.117   6.542 -0.4143  0.2099 -0.4248
   28CHL1  H18A 3206   3.225   0.092   6.650  0.4508  1.2805 -0.1156
   28CHL1  H18B 3207   3.173   0.208   6.518 -1.3664  0.2742  1.8993
   28CHL1  H18C 3208   3.190   0.027   6.491 -0.6548 -0.4711  0.9269
   28CHL1   C12 3209   3.478   0.022   6.537  0.9611  0.1048  0.2232
   28CHL1  H12A 3210   3.450  -0.071   6.485  2.6219  0.2753 -1.0491
   28CHL1  H12B 3211   3.579   0.055   6.504  0.0664  0.3330 -2.4689
   28CHL1   C11 3212   3.475  -0.016   6.683 -0.6304 -0.0751  0.3532
   28CHL1  H11A 3213   3.376  -0.061   6.705  0.2837 -1.6872  1.3028
   28CHL1  H11B 3214   3.548  -0.099   6.681 -1.4753 -0.8185 -0.4484
   28CHL1    C9 3215   3.511   0.101   6.776  0.2224  0.0362  0.3280
   28CHL1    H9 3216   3.616   0.124   6.750  0.2400 -1.5152 -1.2245
   28CHL1   C10 3217   3.515   0.061   6.929 -0.3837 -0.1727 -0.7156
   28CHL1   C19 3218   3.381  -0.013   6.972  0.5788 -0.3066 -0.3999
   28CHL1  H19A 3219   3.360  -0.022   7.081  0.3019 -3.2795 -0.6217
   28CHL1  H19B 3220   3.302   0.052   6.927 -0.1231  0.1599  1.4195
   28CHL1  H19C 3221   3.376  -0.119   6.938  0.0006 -0.4996  0.2640
   28CHL1    C1 3222   3.636  -0.038   6.966 -0.0388 -0.8215  0.3219
   28CHL1   H1A 3223   3.638  -0.127   6.900 -0.8093  0.1772 -1.0942
   28CHL1   H1B 3224   3.728   0.021   6.946 -1.3404  1.1546 -0.1079
   28CHL1    C2 3225   3.652  -0.073   7.114 -0.3709 -0.6523 -0.4656
   28CHL1   H2A 3226   3.748  -0.129   7.126  1.0411  2.0625  2.7350
   28CHL1   H2B 3227   3.566  -0.133   7.150  0.3775 -1.7839 -0.4947
   28CHL1   C20 3228   3.297   0.158   6.259  0.0993 -0.2502  0.1749
   28CHL1   H20 3229   3.189   0.157   6.283 -0.1378  1.0478 -0.7411
   28CHL1   C21 3230   3.332   0.010   6.237 -0.1114  0.6874 -0.1091
   28CHL1  H21A 3231   3.300  -0.046   6.326 -1.1107  0.8033 -0.3872
   28CHL1  H21B 3232   3.442  -0.002   6.227 -0.4004 -1.3140 -1.4944
   28CHL1  H21C 3233   3.281  -0.037   6.150  0.5586  0.6674 -0.5018
   28CHL1   C22 3234   3.302   0.241   6.125  0.0782 -0.9686  0.4817
   28CHL1  H22A 3235   3.268   0.344   6.151  0.3464 -0.2406 -1.8671
   28CHL1  H22B 3236   3.408   0.255   6.096  0.4775 -3.0513  0.8278
   28CHL1   C23 3237   3.209   0.195   6.011  0.2754  0.3327  0.0374
   28CHL1  H23A 3238   3.257   0.102   5.972  0.7192  0.3258  0.5787
   28CHL1  H23B 3239   3.104   0.180   6.046  0.9928 -0.5905  1.9368
   28CHL1   C24 3240   3.193   0.295   5.893 -0.2131 -0.2389 -0.9403
   28CHL1  H24A 3241   3.141   0.389   5.924  0.8037  0.0074  0.0838
   28CHL1  H24B 3242   3.293   0.333   5.865  0.0452 -0.2311 -0.0473
   28CHL1   C25 3243   3.122   0.232   5.773  0.4512 -0.0440  0.1059
   28CHL1   H25 3244   3.154   0.126   5.776  0.7076  0.0040 -0.6997
   28CHL1   C26 3245   2.969   0.247   5.780  0.1263  0.7893  0.4001
   28CHL1  H26A 3246   2.943   0.354   5.790  3.6235  1.7100  0.9599
   28CHL1  H26B 3247   2.916   0.208   5.691  0.1038  0.1968  0.6702
   28CHL1  H26C 3248   2.946   0.188   5.872  1.4847  1.9127  1.5097
   28CHL1   C27 3249   3.164   0.293   5.640  0.4301  0.3134  0.5194
   28CHL1  H27A 3250   3.164   0.223   5.553 -2.8553  0.4938  0.2311
   28CHL1  H27B 3251   3.106   0.383   5.611 -0.2628 -0.6379 -1.2097
   28CHL1  H27C 3252   3.268   0.329   5.653  0.1359  0.6933  2.0600
   29CHL1    C3 3253   6.635   2.067   7.073 -0.9126  0.5996  0.6882
   29CHL1    H3 3254   6.549   1.997   7.073  0.3339 -0.9874  0.9099
   29CHL1    O3 3255   6.666   2.096   7.204 -0.4128 -0.3639 -0.4405
   29CHL1   H3' 3256   6.759   2.070   7.206  0.3165  2.0244 -0.0415
   29CHL1    C4 3257   6.764   2.003   7.007 -0.1997 -0.4016  0.2475
   29CHL1   H4A 3258   6.838   2.085   7.016 -0.0982 -0.4097 -0.4367
   29CHL1   H4B 3259   6.806   1.920   7.068  1.9898  1.1294  0.9483
   29CHL1    C5 3260   6.739   1.971   6.855 -0.3913 -0.2250 -0.2348
   29CHL1    C6 3261   6.762   1.849   6.805 -0.1976  0.6212 -0.6842
   29CHL1    H6 3262   6.798   1.767   6.869 -2.1296  0.5856  0.4218
   29CHL1    C7 3263   6.736   1.808   6.659  0.4475 -0.2101  0.2486
   29CHL1   H7A 3264   6.814   1.739   6.620  0.5956 -0.1502  0.4312
   29CHL1   H7B 3265   6.647   1.744   6.640  0.4489  0.1872 -1.1246
   29CHL1    C8 3266   6.713   1.928   6.571 -0.3653 -0.6088 -0.3123
   29CHL1    H8 3267   6.810   1.977   6.548  0.7353 -2.6138 -0.1366
   29CHL1   C14 3268   6.650   1.869   6.437  1.1157 -0.8245  0.0432
   29CHL1   H14 3269   6.553   1.829   6.473  0.5370  1.8481  1.7156
   29CHL1   C15 3270   6.720   1.754   6.359  0.2743 -0.1556  0.1584
   29CHL1  H15A 3271   6.824   1.793   6.351  0.0134  0.2482 -1.6185
   29CHL1  H15B 3272   6.709   1.653   6.405 -2.8960 -0.1927 -0.4611
   29CHL1   C16 3273   6.663   1.765   6.220  0.1503 -0.9638 -0.0804
   29CHL1  H16A 3274   6.743   1.776   6.144 -0.9873  0.7943 -1.0920
   29CHL1  H16B 3275   6.608   1.671   6.196  0.9850 -1.1875 -1.2077
   29CHL1   C17 3276   6.566   1.883   6.224 -0.7963  0.2022 -0.2013
   29CHL1   H17 3277   6.467   1.842   6.253 -2.4346  0.7215 -4.2983
   29CHL1   C13 3278   6.619   1.979   6.338  0.0469 -0.1053 -0.5485
   29CHL1   C18 3279   6.751   2.053   6.295  0.5186 -0.2952 -0.2674
   29CHL1  H18A 3280   6.816   1.980   6.243 -1.5575 -1.6581 -1.1156
   29CHL1  H18B 3281   6.727   2.124   6.214  0.6187  1.1269  0.9095
   29CHL1  H18C 3282   6.800   2.110   6.376  0.9707 -0.6613 -0.2806
   29CHL1   C12 3283   6.516   2.078   6.397 -0.4133 -0.1689  0.9557
   29CHL1  H12A 3284   6.502   2.162   6.325  0.3664 -2.1105 -1.6163
   29CHL1  H12B 3285   6.419   2.024   6.394 -0.0635 -0.7657 -1.9236
   29CHL1   C11 3286   6.564   2.144   6.530 -0.4650 -0.1862  0.0826
   29CHL1  H11A 3287   6.652   2.201   6.493  0.7236 -2.6537 -1.1173
   29CHL1  H11B 3288   6.481   2.200   6.577  0.7243  0.5458  1.3835
   29CHL1    C9 3289   6.618   2.033   6.633 -0.4751  0.8438  0.2544
   29CHL1    H9 3290   6.523   1.979   6.655 -0.2660  0.7020  0.8338
   29CHL1   C10 3291   6.680   2.088   6.766  0.3218 -0.0017  0.0231
   29CHL1   C19 3292   6.787   2.202   6.737  0.7535  0.0281  0.2731
   29CHL1  H19A 3293   6.871   2.161   6.676 -0.7128  0.3349 -2.0765
   29CHL1  H19B 3294   6.735   2.281   6.678  0.1659  0.2373  1.0553
   29CHL1  H19C 3295   6.822   2.253   6.829  0.4155  0.2269  0.2906
   29CHL1    C1 3296   6.568   2.152   6.852 -0.2602  0.2310 -0.9780
   29CHL1   H1A 3297   6.512   2.230   6.796  0.8997  0.5970 -1.6561
   29CHL1   H1B 3298   6.494   2.071   6.870  2.3916 -1.5776  3.1111
   29CHL1    C2 3299   6.596   2.191   6.999 -0.4702  0.5758  0.2461
   29CHL1   H2A 3300   6.508   2.245   7.041  0.5802  2.7596 -0.2126
   29CHL1   H2B 3301   6.679   2.264   7.006  1.6714 -1.7415  0.2882
   29CHL1   C20 3302   6.543   1.936   6.083 -0.3525  0.0863 -0.2037
   29CHL1   H20 3303   6.612   2.020   6.059 -0.5181 -0.6892 -3.9780
   29CHL1   C21 3304   6.397   1.982   6.080 -0.1807  0.3003  0.1647
   29CHL1  H21A 3305   6.328   1.896   6.091 -0.7096  0.2768 -2.5985
   29CHL1  H21B 3306   6.367   2.042   5.992  0.3193  0.1173 -0.1350
   29CHL1  H21C 3307   6.384   2.053   6.164  0.8288  2.3758 -1.3542
   29CHL1   C22 3308   6.566   1.836   5.970 -0.1213  0.1819  0.3497
   29CHL1  H22A 3309   6.671   1.808   5.944  0.1727  0.4040  1.2415
   29CHL1  H22B 3310   6.516   1.741   5.998  2.5939 -0.9796  1.6585
   29CHL1   C23 3311   6.518   1.872   5.822 -0.8647 -0.0630  0.7640
   29CHL1  H23A 3312   6.411   1.900   5.832 -0.9670 -0.6988  1.5052
   29CHL1  H23B 3313   6.580   1.960   5.793  1.5430 -1.2632  1.9422
   29CHL1   C24 3314   6.529   1.763   5.721  0.2380  0.3843  0.5765
   29CHL1  H24A 3315   6.636   1.736   5.713 -0.2329 -1.1620 -1.4228
   29CHL1  H24B 3316   6.468   1.676   5.754 -0.2514 -0.0460 -1.3286
   29CHL1   C25 3317   6.480   1.811   5.585  0.0638 -0.3786 -0.4756
   29CHL1   H25 3318   6.378   1.849   5.604 -0.7496 -1.1861 -2.8929
   29CHL1   C26 3319   6.569   1.918   5.521 -0.1814  0.1597  0.6595
   29CHL1  H26A 3320   6.526   1.944   5.422 -0.3776  0.1083  0.7301
   29CHL1  H26B 3321   6.573   2.017   5.571 -1.4187  1.3843 -1.4919
   29CHL1  H26C 3322   6.671   1.877   5.506 -0.0848  0.9080 -0.9116
   29CHL1   C27 3323   6.470   1.699   5.481  0.5403  0.6894  0.2970
   29CHL1  H27A 3324   6.566   1.647   5.463  0.7427  2.1043 -3.7412
   29CHL1  H27B 3325   6.390   1.626   5.505 -1.3507  2.2924 -0.8618
   29CHL1  H27C 3326   6.423   1.739   5.389 -1.5998 -2.1342  0.0340
   30CHL1    C3 3327   1.188   2.777   6.912  0.7513  0.3348  0.5673
   30CHL1    H3 3328   1.247   2.690   6.875 -0.5398 -1.0212  1.5704
   30CHL1    O3 3329   1.175   2.762   7.050  0.5356 -0.8172 -0.3403
   30CHL1   H3' 3330   1.264   2.768   7.085  0.2512  1.4258  0.1425
   30CHL1    C4 3331   1.250   2.911   6.878 -0.2488 -0.3478  0.1673
   30CHL1   H4A 3332   1.185   2.989   6.924  0.3034  0.0247  0.3215
   30CHL1   H4B 3333   1.346   2.946   6.920 -0.1481 -0.6259  0.1659
   30CHL1    C5 3334   1.255   2.932   6.728  0.8461 -0.1103  0.4911
   30CHL1    C6 3335   1.371   2.947   6.662  0.3859  0.3208 -0.2761
   30CHL1    H6 3336   1.468   2.961   6.714  0.7138 -1.5237 -0.3178
   30CHL1    C7 3337   1.374   2.957   6.508 -1.0383 -0.1730 -0.0459
   30CHL1   H7A 3338   1.449   3.031   6.473 -0.9918  0.4410  1.2675
   30CHL1   H7B 3339   1.404   2.860   6.463 -0.5994  1.0660 -2.5646
   30CHL1    C8 3340   1.244   2.995   6.438 -0.8038 -0.1187  0.1183
   30CHL1    H8 3341   1.224   3.101   6.461  1.1406 -0.3843  3.7738
   30CHL1   C14 3342   1.252   2.957   6.295  0.4700 -0.1814 -0.1895
   30CHL1   H14 3343   1.254   2.846   6.292  0.9556 -0.1642 -0.6249
   30CHL1   C15 3344   1.367   3.001   6.198 -0.0154  0.1660 -1.0618
   30CHL1  H15A 3345   1.380   3.111   6.202 -2.8705  0.5863 -1.0076
   30CHL1  H15B 3346   1.457   2.943   6.228  1.0526  0.7836 -2.9410
   30CHL1   C16 3347   1.309   2.974   6.055 -0.3591 -0.3884  0.2944
   30CHL1  H16A 3348   1.322   3.064   5.991  0.7238 -1.3312 -0.8702
   30CHL1  H16B 3349   1.375   2.895   6.013 -1.1424 -0.9752  0.1362
   30CHL1   C17 3350   1.158   2.936   6.078  0.0787  0.5622 -0.4214
   30CHL1   H17 3351   1.153   2.825   6.082 -0.9647  0.6227  0.8151
   30CHL1   C13 3352   1.117   2.989   6.218 -0.1757  0.4306  0.0797
   30CHL1   C18 3353   1.087   3.141   6.224 -0.2615 -0.1253  0.5389
   30CHL1  H18A 3354   0.989   3.156   6.174  0.4568 -1.0683 -1.2793
   30CHL1  H18B 3355   1.078   3.179   6.328 -0.0200 -0.6806  0.7682
   30CHL1  H18C 3356   1.164   3.204   6.174  0.4031 -1.7680 -0.6174
   30CHL1   C12 3357   1.002   2.915   6.281 -0.9077  0.2913  0.7136
   30CHL1  H12A 3358   0.901   2.944   6.246 -0.7815  3.1946  2.4300
   30CHL1  H12B 3359   1.034   2.810   6.267 -0.1840  0.6907 -0.9435
   30CHL1   C11 3360   0.992   2.933   6.433  0.2813 -0.4199  0.2399
   30CHL1  H11A 3361   0.942   3.031   6.445  1.3433  0.2047 -0.2118
   30CHL1  H11B 3362   0.918   2.869   6.484  1.6572 -0.3680  2.4109
   30CHL1    C9 3363   1.129   2.913   6.502 -0.9258  0.4605 -0.2737
   30CHL1    H9 3364   1.173   2.813   6.483  1.0976  1.2948 -0.2141
   30CHL1   C10 3365   1.116   2.925   6.658  0.2420  0.7069  0.4289
   30CHL1   C19 3366   1.041   3.059   6.696  0.4445  0.1262  0.2165
   30CHL1  H19A 3367   1.083   3.147   6.643 -1.5649  0.3982 -1.0692
   30CHL1  H19B 3368   0.937   3.069   6.656 -0.3828  0.3363  2.3071
   30CHL1  H19C 3369   1.034   3.090   6.802  2.3581 -0.1620  0.4561
   30CHL1    C1 3370   1.044   2.806   6.702 -0.1342  0.3415 -0.0958
   30CHL1   H1A 3371   0.936   2.807   6.675 -0.1594  0.9426  0.0198
   30CHL1   H1B 3372   1.084   2.720   6.644  0.6575 -0.3965  1.4774
   30CHL1    C2 3373   1.049   2.764   6.849 -0.2892  0.4525 -0.6821
   30CHL1   H2A 3374   1.014   2.661   6.871 -0.7671  0.8661  0.5609
   30CHL1   H2B 3375   0.976   2.836   6.892 -2.6231 -1.1636 -1.6852
   30CHL1   C20 3376   1.060   2.959   5.952  0.2317  0.3014 -0.2538
   30CHL1   H20 3377   1.014   3.060   5.961  2.5635  1.2629  3.0527
   30CHL1   C21 3378   0.937   2.866   5.970 -0.4067 -0.0145  0.7178
   30CHL1  H21A 3379   0.961   2.764   6.006  1.2634  0.1635  0.2106
   30CHL1  H21B 3380   0.894   2.858   5.867  0.3707  0.1842  0.3716
   30CHL1  H21C 3381   0.864   2.920   6.034 -0.1904  0.8282  0.2812
   30CHL1   C22 3382   1.134   2.937   5.813 -0.3169  0.1436 -0.0239
   30CHL1  H22A 3383   1.226   2.998   5.811 -1.3027  1.6719 -1.1451
   30CHL1  H22B 3384   1.157   2.828   5.813 -0.5952  0.0293  2.4990
   30CHL1   C23 3385   1.061   2.989   5.688 -0.1357 -0.2923 -0.0078
   30CHL1  H23A 3386   0.955   2.957   5.688 -0.0434 -0.6208  0.5745
   30CHL1  H23B 3387   1.083   3.097   5.704  3.0322 -0.8680  0.3101
   30CHL1   C24 3388   1.136   2.957   5.559 -0.2299  0.1443 -0.0651
   30CHL1  H24A 3389   1.236   2.996   5.588 -0.6642  1.0517  0.2222
   30CHL1  H24B 3390   1.131   2.849   5.532 -0.1313  0.2709 -0.6077
   30CHL1   C25 3391   1.089   3.024   5.433  0.3183 -0.2196  0.0788
   30CHL1   H25 3392   1.095   3.134   5.449  0.4665 -0.2752  0.4023
   30CHL1   C26 3393   1.172   2.971   5.317  0.2517 -0.4567 -0.0307
   30CHL1  H26A 3394   1.276   3.010   5.319  0.1120 -0.0909  0.1175
   30CHL1  H26B 3395   1.176   2.861   5.335 -0.2925 -0.3275  0.9881
   30CHL1  H26C 3396   1.135   2.995   5.215  1.7921  0.5041 -0.3873
   30CHL1   C27 3397   0.941   2.991   5.396 -0.2044  0.1535  0.0971
   30CHL1  H27A 3398   0.882   3.005   5.489  0.0012  1.2737  0.0690
   30CHL1  H27B 3399   0.896   3.047   5.312 -1.8208  0.0861  0.8736
   30CHL1  H27C 3400   0.935   2.882   5.372  1.4045 -0.1476  0.9010
   31CHL1    C3 3401   6.554   1.606   7.015 -0.4278  0.1843  0.2276
   31CHL1    H3 3402   6.624   1.682   6.974  3.0337 -1.6940  2.2261
   31CHL1    O3 3403   6.594   1.584   7.145 -0.0758  0.1145 -0.3785
   31CHL1   H3' 3404   6.523   1.534   7.186  1.1923 -0.2433  1.4784
   31CHL1    C4 3405   6.409   1.665   7.008 -0.8110  0.9013  0.5813
   31CHL1   H4A 3406   6.339   1.598   7.062 -0.3290 -0.1865 -0.1117
   31CHL1   H4B 3407   6.422   1.762   7.062  0.5183  0.6797  0.7045
   31CHL1    C5 3408   6.367   1.692   6.863  0.2875 -0.3078  0.7869
   31CHL1    C6 3409   6.323   1.812   6.814 -1.2561  0.1807 -0.3088
   31CHL1    H6 3410   6.322   1.903   6.877 -1.7918  1.5714 -2.2185
   31CHL1    C7 3411   6.265   1.826   6.673 -0.1075  0.1441 -0.0660
   31CHL1   H7A 3412   6.177   1.894   6.678  0.5236  0.9099  0.9601
   31CHL1   H7B 3413   6.336   1.880   6.606 -0.3149 -0.4413 -0.7650
   31CHL1    C8 3414   6.225   1.699   6.605  0.0483  0.7999  0.6715
   31CHL1    H8 3415   6.127   1.655   6.635 -0.2069  0.3810 -0.6969
   31CHL1   C14 3416   6.220   1.728   6.456  0.2123  0.2925 -0.0466
   31CHL1   H14 3417   6.317   1.771   6.421  0.1513 -1.0343 -2.0291
   31CHL1   C15 3418   6.108   1.816   6.411  0.0468 -0.0110  0.6592
   31CHL1  H15A 3419   6.009   1.780   6.447 -1.5827  3.2383 -0.1659
   31CHL1  H15B 3420   6.124   1.919   6.451  1.3080  0.8727 -1.9037
   31CHL1   C16 3421   6.114   1.816   6.258  0.2334  1.0526 -0.4759
   31CHL1  H16A 3422   6.012   1.819   6.215 -0.1543 -2.1408 -0.0377
   31CHL1  H16B 3423   6.172   1.906   6.229 -2.3070  3.6988  1.9432
   31CHL1   C17 3424   6.190   1.679   6.223  0.1882  0.1993 -0.4978
   31CHL1   H17 3425   6.290   1.717   6.196 -0.0900  0.5319 -1.0679
   31CHL1   C13 3426   6.209   1.606   6.359 -0.0751 -1.1807  0.1519
   31CHL1   C18 3427   6.076   1.542   6.394  0.3210 -0.2505 -0.1136
   31CHL1  H18A 3428   5.983   1.591   6.358  0.4510  0.3245  0.3200
   31CHL1  H18B 3429   6.064   1.437   6.360 -1.7502 -0.4843  1.1933
   31CHL1  H18C 3430   6.070   1.532   6.505  0.8154  1.0389  0.0534
   31CHL1   C12 3431   6.329   1.516   6.375  0.9673  0.7145 -0.5592
   31CHL1  H12A 3432   6.320   1.419   6.321  1.8429 -0.0415  0.5790
   31CHL1  H12B 3433   6.418   1.574   6.341  1.4364  0.8377  0.8200
   31CHL1   C11 3434   6.348   1.481   6.526  0.2563 -0.1979 -0.5101
   31CHL1  H11A 3435   6.273   1.403   6.551  2.4457 -1.9236  1.0735
   31CHL1  H11B 3436   6.440   1.425   6.554 -0.1454 -0.2468  0.7884
   31CHL1    C9 3437   6.343   1.599   6.625 -0.1133 -0.5028  0.0799
   31CHL1    H9 3438   6.433   1.659   6.599  0.2235  0.5769  3.2526
   31CHL1   C10 3439   6.369   1.562   6.775  0.1816 -0.3554  0.0441
   31CHL1   C19 3440   6.249   1.472   6.828 -0.6213 -0.3601 -0.0755
   31CHL1  H19A 3441   6.287   1.435   6.926  0.2214  1.8147  0.4732
   31CHL1  H19B 3442   6.155   1.531   6.839 -0.0549  0.4652  0.4715
   31CHL1  H19C 3443   6.233   1.388   6.757  0.5412 -1.7054  1.1918
   31CHL1    C1 3444   6.505   1.496   6.798  0.0279 -0.7744 -0.1503
   31CHL1   H1A 3445   6.506   1.400   6.742 -0.3796  0.0064 -1.5387
   31CHL1   H1B 3446   6.587   1.550   6.746  0.3897 -0.9431  0.2334
   31CHL1    C2 3447   6.559   1.477   6.940  0.2872  0.2677  0.3927
   31CHL1   H2A 3448   6.664   1.441   6.934  0.1964 -0.1437  1.1442
   31CHL1   H2B 3449   6.503   1.395   6.990 -0.3549 -0.2648 -1.1339
   31CHL1   C20 3450   6.124   1.596   6.107 -0.2084 -0.0789 -0.1284
   31CHL1   H20 3451   6.052   1.524   6.152  0.3022  0.1352  1.0480
   31CHL1   C21 3452   6.236   1.515   6.033 -0.2328  0.2108 -0.3218
   31CHL1  H21A 3453   6.192   1.451   5.953 -0.4265 -1.5909  1.1561
   31CHL1  H21B 3454   6.280   1.436   6.098  0.6637  0.7709 -0.2219
   31CHL1  H21C 3455   6.315   1.580   5.990 -1.4620  2.6840  1.0025
   31CHL1   C22 3456   6.052   1.683   5.999  0.5939 -0.1958 -0.5173
   31CHL1  H22A 3457   5.973   1.746   6.045  0.2356 -1.4647  0.6691
   31CHL1  H22B 3458   6.122   1.741   5.935  0.3087 -2.5346 -3.1391
   31CHL1   C23 3459   5.971   1.586   5.908 -0.1190 -0.4044 -0.2270
   31CHL1  H23A 3460   6.032   1.511   5.853  0.1680  0.2870 -0.8727
   31CHL1  H23B 3461   5.908   1.524   5.975  1.0623 -1.5312 -0.1283
   31CHL1   C24 3462   5.876   1.668   5.812 -0.3386  0.1897 -0.0136
   31CHL1  H24A 3463   5.804   1.721   5.879 -0.8692 -0.8570  0.2635
   31CHL1  H24B 3464   5.936   1.744   5.756  1.5340 -1.5405 -0.4794
   31CHL1   C25 3465   5.793   1.585   5.706  0.8682 -0.1817  0.2576
   31CHL1   H25 3466   5.734   1.653   5.642  0.4527 -0.3079  0.5025
   31CHL1   C26 3467   5.879   1.503   5.613  0.2896 -0.0597  0.2272
   31CHL1  H26A 3468   5.951   1.578   5.574  1.3397  0.6462  3.2374
   31CHL1  H26B 3469   5.927   1.423   5.673  0.5205  0.3040  0.5370
   31CHL1  H26C 3470   5.814   1.467   5.531 -1.2930  0.1563  1.3519
   31CHL1   C27 3471   5.696   1.482   5.777  0.3009 -0.3540  0.6862
   31CHL1  H27A 3472   5.630   1.435   5.701 -0.1346  0.7084  0.3879
   31CHL1  H27B 3473   5.760   1.402   5.819  0.8679  0.9552  2.4760
   31CHL1  H27C 3474   5.628   1.512   5.859  0.8472  0.2854  0.9173
   32CHL1    C3 3475   6.449   0.965   6.879  0.2205  0.2572 -0.6604
   32CHL1    H3 3476   6.351   0.998   6.919  0.1778  1.8692 -1.9812
   32CHL1    O3 3477   6.537   0.932   6.990 -0.0113  0.3683  0.1544
   32CHL1   H3' 3478   6.491   0.860   7.035 -1.4551  1.5005  0.5424
   32CHL1    C4 3479   6.441   0.841   6.793  0.4548  0.2873 -0.1047
   32CHL1   H4A 3480   6.537   0.817   6.743 -0.3200  0.1991 -1.5946
   32CHL1   H4B 3481   6.413   0.748   6.846 -1.1290  0.4507 -0.6081
   32CHL1    C5 3482   6.343   0.865   6.678  0.3447  0.5795 -0.4067
   32CHL1    C6 3483   6.228   0.787   6.668  0.4207 -1.2322  0.9383
   32CHL1    H6 3484   6.220   0.706   6.742  0.7318  1.0657  3.6626
   32CHL1    C7 3485   6.142   0.801   6.543 -0.0744  0.1726 -0.8000
   32CHL1   H7A 3486   6.119   0.697   6.512 -1.2420 -0.5436  2.1217
   32CHL1   H7B 3487   6.053   0.862   6.571  0.9504  1.2130  0.3505
   32CHL1    C8 3488   6.203   0.883   6.428  0.2082  0.3548 -0.2463
   32CHL1    H8 3489   6.280   0.827   6.371  0.3390 -0.0273  0.2889
   32CHL1   C14 3490   6.096   0.919   6.335  0.3245 -0.2175  0.1450
   32CHL1   H14 3491   6.014   0.966   6.393  0.8600  1.2009 -0.2082
   32CHL1   C15 3492   6.016   0.802   6.264 -0.1208  0.1490  1.2643
   32CHL1  H15A 3493   6.094   0.729   6.232 -2.5150 -1.3902 -1.4832
   32CHL1  H15B 3494   5.943   0.738   6.318 -1.5398  2.0988  1.7712
   32CHL1   C16 3495   5.941   0.864   6.145 -0.3091 -0.0710  0.1989
   32CHL1  H16A 3496   5.967   0.821   6.046 -0.3678 -0.0558  0.1766
   32CHL1  H16B 3497   5.831   0.861   6.160 -0.3480 -2.3339 -0.2159
   32CHL1   C17 3498   5.984   1.015   6.145 -0.6018  0.4190 -0.1142
   32CHL1   H17 3499   5.909   1.069   6.206 -2.1424 -1.0039 -0.6704
   32CHL1   C13 3500   6.119   1.016   6.220  0.9853 -0.7233  0.4054
   32CHL1   C18 3501   6.236   0.960   6.132  0.1634 -0.0927  0.4927
   32CHL1  H18A 3502   6.214   0.852   6.117 -0.0179 -0.1360  1.0647
   32CHL1  H18B 3503   6.242   1.003   6.030 -1.9530 -1.4953 -0.2803
   32CHL1  H18C 3504   6.334   0.955   6.185  0.7353 -2.1808 -0.6389
   32CHL1   C12 3505   6.168   1.149   6.279  0.7274 -0.0318  0.6025
   32CHL1  H12A 3506   6.209   1.228   6.212 -1.3546  2.3620  1.9306
   32CHL1  H12B 3507   6.084   1.198   6.333  1.1619 -0.0772  1.3301
   32CHL1   C11 3508   6.277   1.126   6.380  0.2134  0.4639 -0.5408
   32CHL1  H11A 3509   6.369   1.098   6.325  1.5621 -0.1305  1.8548
   32CHL1  H11B 3510   6.299   1.223   6.430  0.1641 -0.2687  0.9708
   32CHL1    C9 3511   6.261   1.012   6.486  0.1190 -0.8435 -0.1345
   32CHL1    H9 3512   6.180   1.044   6.556  0.6637 -1.4096  0.7843
   32CHL1   C10 3513   6.378   0.979   6.582 -0.5560  0.2194 -0.1057
   32CHL1   C19 3514   6.496   0.936   6.495 -0.6395 -0.1823  0.8688
   32CHL1  H19A 3515   6.542   1.014   6.430  0.0673 -0.6548  0.7888
   32CHL1  H19B 3516   6.579   0.911   6.566  0.9027  0.4725 -0.6296
   32CHL1  H19C 3517   6.484   0.844   6.435  3.3115  1.1180 -2.3869
   32CHL1    C1 3518   6.405   1.104   6.675  0.3352  0.2053 -0.0692
   32CHL1   H1A 3519   6.442   1.187   6.611  3.2169 -0.5430  0.4878
   32CHL1   H1B 3520   6.312   1.143   6.721 -0.0524  0.6822 -1.2188
   32CHL1    C2 3521   6.504   1.077   6.790 -0.3853 -0.1813 -1.0143
   32CHL1   H2A 3522   6.523   1.169   6.850 -0.1813 -0.8401 -0.0506
   32CHL1   H2B 3523   6.604   1.043   6.756 -0.4420 -1.2427 -0.1820
   32CHL1   C20 3524   5.968   1.075   6.006  0.3574 -0.4129 -0.0080
   32CHL1   H20 3525   6.045   1.034   5.937 -0.4994 -0.1551 -1.1389
   32CHL1   C21 3526   5.993   1.230   6.016  0.6593  0.2094 -1.1164
   32CHL1  H21A 3527   6.102   1.240   6.036  0.1380  0.7075  2.0233
   32CHL1  H21B 3528   5.947   1.281   6.104  1.1939 -1.2006  0.0162
   32CHL1  H21C 3529   5.955   1.286   5.928  0.0712 -0.4532 -1.2901
   32CHL1   C22 3530   5.824   1.052   5.943 -0.6593  0.9153  1.0698
   32CHL1  H22A 3531   5.800   0.944   5.956  0.8972  0.7360  2.9347
   32CHL1  H22B 3532   5.748   1.123   5.982 -1.7356  0.3521  0.0422
   32CHL1   C23 3533   5.826   1.076   5.794  0.0460 -0.1014  0.5684
   32CHL1  H23A 3534   5.849   1.181   5.762  1.1245  0.2983  2.5034
   32CHL1  H23B 3535   5.912   1.016   5.756 -0.8163 -0.4685 -0.8759
   32CHL1   C24 3536   5.701   1.019   5.724 -0.5028 -0.1247 -0.1170
   32CHL1  H24A 3537   5.669   0.919   5.757  1.1883 -0.3083  1.1052
   32CHL1  H24B 3538   5.617   1.091   5.733 -0.4630 -0.1263  0.2660
   32CHL1   C25 3539   5.724   1.001   5.574  0.1212  0.0702  0.5885
   32CHL1   H25 3540   5.823   0.953   5.563  0.0370  0.2109 -1.2174
   32CHL1   C26 3541   5.618   0.921   5.502  0.8531  0.0633  1.2108
   32CHL1  H26A 3542   5.608   0.823   5.555  0.7869 -0.2225  0.6778
   32CHL1  H26B 3543   5.512   0.955   5.504  0.5257 -0.3251 -2.3870
   32CHL1  H26C 3544   5.643   0.914   5.394  2.1980  1.0269  1.4342
   32CHL1   C27 3545   5.741   1.132   5.500  0.0564  0.2059  0.1894
   32CHL1  H27A 3546   5.769   1.111   5.394  1.0848  2.5714 -0.0693
   32CHL1  H27B 3547   5.656   1.203   5.507 -0.7720 -0.8649  1.5242
   32CHL1  H27C 3548   5.829   1.188   5.539  0.7688  0.4719 -1.7128
   33CHL1    C3 3549   4.776   0.492   7.040  0.2008  0.2919 -0.2008
   33CHL1    H3 3550   4.738   0.596   7.034 -1.1128 -0.1164  0.4349
   33CHL1    O3 3551   4.853   0.475   7.159  0.4007 -0.2715 -0.0489
   33CHL1   H3' 3552   4.871   0.381   7.160 -2.8414 -0.9932  0.3162
   33CHL1    C4 3553   4.654   0.399   7.022 -0.2197 -0.3472 -0.8642
   33CHL1   H4A 3554   4.681   0.296   7.052 -1.3471 -0.1401  1.0362
   33CHL1   H4B 3555   4.578   0.424   7.099  0.5549 -1.1032  0.1757
   33CHL1    C5 3556   4.590   0.395   6.887 -0.2980 -1.0117  0.6802
   33CHL1    C6 3557   4.460   0.425   6.872 -0.0197  0.3110 -0.2104
   33CHL1    H6 3558   4.410   0.452   6.966 -2.3312 -1.5031 -0.8144
   33CHL1    C7 3559   4.392   0.433   6.732  0.4213  0.3308  0.4960
   33CHL1   H7A 3560   4.296   0.378   6.729  1.2292 -1.0873 -0.7970
   33CHL1   H7B 3561   4.367   0.536   6.699 -1.2606 -0.6349 -1.3548
   33CHL1    C8 3562   4.475   0.366   6.625  0.6282 -0.0218 -0.1811
   33CHL1    H8 3563   4.486   0.255   6.633  0.5934 -0.2905 -2.9926
   33CHL1   C14 3564   4.421   0.391   6.482  0.0030 -0.1043  0.2056
   33CHL1   H14 3565   4.420   0.501   6.465 -0.1675  0.1215  1.5933
   33CHL1   C15 3566   4.271   0.349   6.463  0.6406 -0.6274  0.0877
   33CHL1  H15A 3567   4.281   0.245   6.501  2.3431 -1.4567 -2.3837
   33CHL1  H15B 3568   4.195   0.408   6.519  2.0886  0.8709  0.5542
   33CHL1   C16 3569   4.251   0.363   6.312  0.3070  0.3399 -0.1184
   33CHL1  H16A 3570   4.187   0.280   6.277 -0.1493  1.7193 -2.8104
   33CHL1  H16B 3571   4.197   0.460   6.300 -3.3053 -1.6711 -1.6079
   33CHL1   C17 3572   4.395   0.358   6.249  0.2306 -0.2665 -0.3759
   33CHL1   H17 3573   4.413   0.463   6.217 -1.7054  0.3114  0.2667
   33CHL1   C13 3574   4.493   0.322   6.368 -0.4905 -0.2296  0.0483
   33CHL1   C18 3575   4.500   0.166   6.368  0.2962 -0.2692 -0.1891
   33CHL1  H18A 3576   4.542   0.130   6.465  0.5566 -0.1373 -0.2531
   33CHL1  H18B 3577   4.394   0.138   6.354 -0.7617  1.6067  3.0291
   33CHL1  H18C 3578   4.575   0.137   6.291  1.2655  0.2633  0.5203
   33CHL1   C12 3579   4.635   0.385   6.368  0.2685 -0.0382 -0.8528
   33CHL1  H12A 3580   4.695   0.346   6.283  0.4878 -2.4775  0.3587
   33CHL1  H12B 3581   4.621   0.495   6.360 -2.4223 -0.1886  0.6581
   33CHL1   C11 3582   4.702   0.354   6.503  0.3695 -0.6047 -0.1449
   33CHL1  H11A 3583   4.706   0.245   6.522 -0.0319 -0.4623  0.8497
   33CHL1  H11B 3584   4.807   0.388   6.486  0.3007 -0.2737  0.0799
   33CHL1    C9 3585   4.629   0.407   6.627 -0.3501  0.5809  0.6181
   33CHL1    H9 3586   4.619   0.516   6.606  0.5503  0.5303 -0.1431
   33CHL1   C10 3587   4.692   0.378   6.767  0.1196 -0.3052  0.3981
   33CHL1   C19 3588   4.734   0.231   6.773 -0.2740 -0.2469  0.3465
   33CHL1  H19A 3589   4.811   0.205   6.697 -0.5527 -2.6617  0.8215
   33CHL1  H19B 3590   4.788   0.210   6.868  2.2911  1.1248 -0.7313
   33CHL1  H19C 3591   4.642   0.168   6.768 -0.7298  0.0890  2.8409
   33CHL1    C1 3592   4.816   0.472   6.796  0.5676  0.8752  0.4463
   33CHL1   H1A 3593   4.882   0.459   6.708 -4.0260 -2.2912 -3.0055
   33CHL1   H1B 3594   4.763   0.569   6.784  0.3248  0.8801  1.4205
   33CHL1    C2 3595   4.881   0.461   6.930  0.3022 -0.4680  0.2241
   33CHL1   H2A 3596   4.962   0.538   6.927 -2.5255  2.7949  0.6707
   33CHL1   H2B 3597   4.930   0.362   6.940 -1.8817 -1.5975  0.4452
   33CHL1   C20 3598   4.402   0.280   6.116 -0.4603 -0.4317  0.1392
   33CHL1   H20 3599   4.402   0.173   6.148 -1.7822  0.1814  2.4391
   33CHL1   C21 3600   4.520   0.323   6.024  0.5073 -0.3991 -0.0674
   33CHL1  H21A 3601   4.610   0.338   6.087  0.4345  2.4850 -0.5143
   33CHL1  H21B 3602   4.500   0.419   5.973  2.8835  0.6719  0.8613
   33CHL1  H21C 3603   4.542   0.241   5.952 -1.3440 -1.1432  0.1611
   33CHL1   C22 3604   4.270   0.289   6.030 -0.9297  0.5934  0.0613
   33CHL1  H22A 3605   4.183   0.245   6.083 -0.1911 -1.2758 -0.2125
   33CHL1  H22B 3606   4.243   0.396   6.016 -1.8248  0.2422 -1.0461
   33CHL1   C23 3607   4.274   0.216   5.896  0.2909 -0.5701 -0.0946
   33CHL1  H23A 3608   4.352   0.258   5.828 -3.0806  1.0953 -3.3008
   33CHL1  H23B 3609   4.298   0.109   5.912 -1.3421 -0.7896  1.1119
   33CHL1   C24 3610   4.146   0.221   5.816 -0.4405 -0.2043 -0.2418
   33CHL1  H24A 3611   4.061   0.194   5.883  1.1554  0.1620  2.0536
   33CHL1  H24B 3612   4.121   0.322   5.779 -1.4589 -0.5188 -0.4457
   33CHL1   C25 3613   4.158   0.137   5.694  0.4499 -0.4504  0.1880
   33CHL1   H25 3614   4.194   0.037   5.725  0.9542 -0.0746  0.8188
   33CHL1   C26 3615   4.019   0.108   5.634 -0.0448 -0.4963  0.3172
   33CHL1  H26A 3616   3.969   0.047   5.712  1.5989  0.0698  1.8682
   33CHL1  H26B 3617   3.966   0.201   5.603 -2.4233 -1.9861 -0.3583
   33CHL1  H26C 3618   4.029   0.055   5.537  0.6823  1.3240 -0.6575
   33CHL1   C27 3619   4.256   0.200   5.589 -0.7198 -0.1426  0.1656
   33CHL1  H27A 3620   4.357   0.204   5.634 -0.4981  1.3781 -0.4279
   33CHL1  H27B 3621   4.264   0.127   5.505  0.0296 -4.2776  3.4499
   33CHL1  H27C 3622   4.226   0.302   5.559  1.5627 -0.0226 -2.0132
   34CHL1    C3 3623   6.365   3.536   6.746 -0.6078 -0.0841  0.1864
   34CHL1    H3 3624   6.452   3.605   6.742 -0.4211 -0.3334 -0.0987
   34CHL1    O3 3625   6.301   3.544   6.872  0.2685 -0.1126 -0.6431
   34CHL1   H3' 3626   6.281   3.636   6.890 -0.7098 -0.5116  0.4222
   34CHL1    C4 3627   6.263   3.585   6.638  0.1693  0.2713  0.4431
   34CHL1   H4A 3628   6.176   3.516   6.645  0.8466 -1.1988 -3.3049
   34CHL1   H4B 3629   6.218   3.685   6.654  0.3477  0.4514 -0.1773
   34CHL1    C5 3630   6.317   3.578   6.500 -0.3144  0.3247  0.1713
   34CHL1    C6 3631   6.324   3.686   6.410  0.1502  0.2638 -0.5439
   34CHL1    H6 3632   6.282   3.783   6.443 -1.6177 -0.2193 -1.2328
   34CHL1    C7 3633   6.367   3.676   6.269 -0.0589 -0.4977  0.2160
   34CHL1   H7A 3634   6.293   3.721   6.200  1.2139 -1.4313 -1.8409
   34CHL1   H7B 3635   6.462   3.734   6.261 -1.4600  1.8011 -0.6920
   34CHL1    C8 3636   6.364   3.527   6.228  0.1564  0.5094 -0.0942
   34CHL1    H8 3637   6.259   3.492   6.217  0.4665  0.0376 -1.8563
   34CHL1   C14 3638   6.416   3.526   6.083  0.4335 -0.2106 -0.3233
   34CHL1   H14 3639   6.515   3.575   6.090  0.3323 -0.2256  2.5283
   34CHL1   C15 3640   6.342   3.612   5.979  0.5785 -0.0677 -0.5157
   34CHL1  H15A 3641   6.237   3.582   5.997  1.1848 -0.8155  2.4448
   34CHL1  H15B 3642   6.362   3.719   6.004 -0.3158 -0.3074  1.3918
   34CHL1   C16 3643   6.413   3.571   5.848  0.4982  0.6820 -0.1590
   34CHL1  H16A 3644   6.337   3.555   5.768  3.1422 -1.8543 -2.4579
   34CHL1  H16B 3645   6.485   3.651   5.821 -0.3933  0.7351 -2.6536
   34CHL1   C17 3646   6.495   3.429   5.890 -0.1324  0.0629  0.4894
   34CHL1   H17 3647   6.602   3.455   5.896  0.3912 -1.9464  0.6363
   34CHL1   C13 3648   6.443   3.392   6.028 -0.4563  0.6044  0.4274
   34CHL1   C18 3649   6.306   3.304   6.009  0.7095  0.2778 -1.0602
   34CHL1  H18A 3650   6.232   3.286   6.090  1.0104 -1.9783 -1.2298
   34CHL1  H18B 3651   6.251   3.351   5.924 -0.8616 -1.3949 -1.0257
   34CHL1  H18C 3652   6.332   3.198   5.987 -2.6464 -0.9888  0.4840
   34CHL1   C12 3653   6.542   3.321   6.111 -0.1388 -0.1182 -0.5930
   34CHL1  H12A 3654   6.571   3.224   6.065  0.0658 -0.2971 -0.0903
   34CHL1  H12B 3655   6.643   3.367   6.112 -0.8389  1.4849 -0.2397
   34CHL1   C11 3656   6.490   3.301   6.257  0.6370  0.2738 -0.7507
   34CHL1  H11A 3657   6.399   3.237   6.247  0.2854  0.7078 -0.3884
   34CHL1  H11B 3658   6.571   3.259   6.320  0.8377 -0.5262 -1.5263
   34CHL1    C9 3659   6.450   3.437   6.319  0.1809 -0.4100 -0.0029
   34CHL1    H9 3660   6.540   3.498   6.342  0.3481 -0.3361 -0.8038
   34CHL1   C10 3661   6.370   3.433   6.459 -0.6757  0.2936  0.1979
   34CHL1   C19 3662   6.251   3.332   6.446  0.6010 -0.1423 -0.3135
   34CHL1  H19A 3663   6.284   3.235   6.404  2.6462  0.4825 -0.2465
   34CHL1  H19B 3664   6.205   3.316   6.546  1.9941  2.0531  0.7712
   34CHL1  H19C 3665   6.169   3.377   6.386  1.5010 -0.7600 -2.0625
   34CHL1    C1 3666   6.467   3.388   6.576 -0.0122  0.9142 -0.9159
   34CHL1   H1A 3667   6.514   3.289   6.558  1.9162  2.0189 -2.2818
   34CHL1   H1B 3668   6.547   3.464   6.571 -0.8162  1.9305  0.9058
   34CHL1    C2 3669   6.417   3.400   6.718  0.2503  0.4243 -0.6011
   34CHL1   H2A 3670   6.494   3.361   6.787 -0.2392 -1.9057 -1.2632
   34CHL1   H2B 3671   6.330   3.330   6.722  1.0135 -0.4779  1.5981
   34CHL1   C20 3672   6.485   3.329   5.767  0.0782 -0.3831 -0.2568
   34CHL1   H20 3673   6.377   3.307   5.754 -0.7858  2.0756  1.8730
   34CHL1   C21 3674   6.558   3.198   5.813  0.2175 -0.2975  0.3327
   34CHL1  H21A 3675   6.501   3.143   5.891 -1.1690  1.8307  0.8874
   34CHL1  H21B 3676   6.652   3.221   5.868  0.0043  1.0819  0.1606
   34CHL1  H21C 3677   6.575   3.135   5.723  0.0337  1.1949 -0.7929
   34CHL1   C22 3678   6.549   3.377   5.637  0.0972 -0.2400  0.1561
   34CHL1  H22A 3679   6.525   3.298   5.563  1.2915 -1.2781  0.8419
   34CHL1  H22B 3680   6.486   3.463   5.605  0.8370 -0.5088 -2.2909
   34CHL1   C23 3681   6.694   3.425   5.628  0.0670 -0.8124 -0.0282
   34CHL1  H23A 3682   6.703   3.509   5.700 -3.4919 -1.2671  1.1401
   34CHL1  H23B 3683   6.765   3.350   5.667 -2.8132 -2.6861  2.0015
   34CHL1   C24 3684   6.729   3.474   5.480 -0.4841  0.1274  0.4322
   34CHL1  H24A 3685   6.706   3.387   5.414 -0.8467  0.4319  0.1547
   34CHL1  H24B 3686   6.652   3.549   5.454  2.4013  2.8812 -0.9423
   34CHL1   C25 3687   6.873   3.525   5.462 -0.1235 -0.1893  0.3425
   34CHL1   H25 3688   6.934   3.465   5.532  1.4566  1.8233  0.7766
   34CHL1   C26 3689   6.940   3.497   5.324 -0.2773 -0.3206 -0.1257
   34CHL1  H26A 3690   6.947   3.387   5.310  1.4078 -0.3475  0.6771
   34CHL1  H26B 3691   6.875   3.530   5.240  0.7975 -1.9050 -1.6546
   34CHL1  H26C 3692   7.039   3.547   5.323 -1.1549  1.5477  1.1402
   34CHL1   C27 3693   6.888   3.674   5.503 -0.0928 -0.4594 -0.3674
   34CHL1  H27A 3694   6.847   3.746   5.429  4.2307  0.6720 -1.9326
   34CHL1  H27B 3695   6.848   3.684   5.607  2.6231  2.6337  0.5271
   34CHL1  H27C 3696   6.997   3.690   5.508 -0.0730 -0.8073  0.8988
   35CHL1    C3 3697   6.986   4.888   6.457 -0.5790  0.7816 -0.5968
   35CHL1    H3 3698   6.950   4.791   6.417 -1.3279 -0.6648  3.1622
   35CHL1    O3 3699   7.013   4.879   6.594  0.1902  0.0663  0.3144
   35CHL1   H3' 3700   6.959   4.941   6.642 -0.1280  2.2002 -2.5070
   35CHL1    C4 3701   7.099   4.946   6.382 -0.6263  0.2180 -0.6262
   35CHL1   H4A 3702   7.124   5.044   6.429 -1.0984 -1.1656  2.8182
   35CHL1   H4B 3703   7.188   4.881   6.394 -0.0914  1.3068  1.9082
   35CHL1    C5 3704   7.049   4.973   6.241 -0.4693 -0.5141  0.1686
   35CHL1    C6 3705   7.124   4.925   6.138 -0.5050 -0.0028 -0.3332
   35CHL1    H6 3706   7.216   4.873   6.164 -0.5166  0.2450  0.2169
   35CHL1    C7 3707   7.099   4.963   5.994 -0.4986 -0.3634 -0.3664
   35CHL1   H7A 3708   7.192   5.013   5.959 -0.1950 -1.0197 -0.5176
   35CHL1   H7B 3709   7.078   4.864   5.948  0.4457 -1.9980  2.4408
   35CHL1    C8 3710   6.992   5.070   5.978 -0.0199 -0.2805 -0.9136
   35CHL1    H8 3711   7.038   5.169   5.999  0.1588 -0.3201 -1.1172
   35CHL1   C14 3712   6.942   5.074   5.833 -0.0158  0.0163 -0.0111
   35CHL1   H14 3713   6.895   4.976   5.810 -0.3394  0.5627 -1.7949
   35CHL1   C15 3714   7.041   5.094   5.720 -0.4910  0.7652 -0.1962
   35CHL1  H15A 3715   7.118   5.167   5.753 -2.2794  1.2114  3.4489
   35CHL1  H15B 3716   7.080   4.993   5.698  0.6795  0.5618  2.4129
   35CHL1   C16 3717   6.959   5.152   5.592  0.7344 -0.0681 -0.0471
   35CHL1  H16A 3718   7.007   5.246   5.557  1.0817  0.6939  2.3119
   35CHL1  H16B 3719   6.948   5.077   5.511  1.6316  1.4064 -1.5919
   35CHL1   C17 3720   6.817   5.168   5.643 -0.3384  0.1631 -0.9292
   35CHL1   H17 3721   6.775   5.067   5.625  2.4524 -1.1943 -0.3303
   35CHL1   C13 3722   6.832   5.178   5.803  0.2974 -0.7425 -0.5830
   35CHL1   C18 3723   6.876   5.323   5.831 -0.2052 -0.4345  0.3546
   35CHL1  H18A 3724   6.895   5.333   5.940  0.3417 -1.8802  0.4100
   35CHL1  H18B 3725   6.970   5.349   5.779  0.3800 -2.3927  0.3483
   35CHL1  H18C 3726   6.799   5.401   5.811 -0.0060  0.3627  2.4203
   35CHL1   C12 3727   6.705   5.135   5.892  0.1207 -0.6785 -0.7592
   35CHL1  H12A 3728   6.614   5.198   5.884  1.6654  1.6648 -0.9363
   35CHL1  H12B 3729   6.681   5.032   5.858  1.3440 -1.7679  1.4371
   35CHL1   C11 3730   6.744   5.127   6.038 -0.0445 -0.3847  0.6068
   35CHL1  H11A 3731   6.755   5.229   6.081  3.3656 -0.9282  1.3177
   35CHL1  H11B 3732   6.664   5.076   6.095  0.8552 -0.9841  1.3617
   35CHL1    C9 3733   6.872   5.046   6.072  0.3610 -0.1707  0.2289
   35CHL1    H9 3734   6.850   4.938   6.067  1.4815 -0.5571  2.2707
   35CHL1   C10 3735   6.922   5.055   6.218  1.0637 -0.7527 -0.1728
   35CHL1   C19 3736   6.967   5.198   6.246 -0.2610 -0.4750 -0.2502
   35CHL1  H19A 3737   6.886   5.274   6.256  0.3024 -0.0482  1.4753
   35CHL1  H19B 3738   7.018   5.202   6.345 -1.2282  1.6847  0.2372
   35CHL1  H19C 3739   7.048   5.243   6.185 -0.3507 -1.6526 -1.2554
   35CHL1    C1 3740   6.817   4.992   6.311  0.1456  0.3630 -0.8051
   35CHL1   H1A 3741   6.721   5.048   6.313 -1.3668 -2.0380  2.3585
   35CHL1   H1B 3742   6.797   4.887   6.282  3.8831 -1.3110  1.9225
   35CHL1    C2 3743   6.857   4.972   6.455  0.5167  0.0357 -1.1910
   35CHL1   H2A 3744   6.782   4.927   6.523  2.6594 -1.0630  0.5926
   35CHL1   H2B 3745   6.870   5.069   6.508  1.9153 -0.9838  0.4836
   35CHL1   C20 3746   6.729   5.264   5.562  0.4640 -0.5280  0.3569
   35CHL1   H20 3747   6.737   5.367   5.603  0.4816 -0.1262 -0.6385
   35CHL1   C21 3748   6.575   5.228   5.586 -0.1347  0.1045  0.6672
   35CHL1  H21A 3749   6.545   5.242   5.692  0.6246 -1.1936  1.0748
   35CHL1  H21B 3750   6.568   5.127   5.541 -0.1786 -0.0157  0.9431
   35CHL1  H21C 3751   6.509   5.296   5.528  0.0935 -1.3444 -1.3954
   35CHL1   C22 3752   6.763   5.275   5.410 -0.6794  0.2839  0.0817
   35CHL1  H22A 3753   6.865   5.319   5.400  0.5065 -2.1969  0.4946
   35CHL1  H22B 3754   6.772   5.171   5.371 -1.5018  0.4040 -0.4453
   35CHL1   C23 3755   6.679   5.366   5.335  0.8213  1.1223  0.2865
   35CHL1  H23A 3756   6.572   5.335   5.335  1.3972 -1.0306 -0.1197
   35CHL1  H23B 3757   6.693   5.467   5.379  3.3446  0.3688  1.4099
   35CHL1   C24 3758   6.726   5.394   5.193 -0.2598  0.1176 -0.0256
   35CHL1  H24A 3759   6.830   5.431   5.206 -1.4454  3.4815  1.1332
   35CHL1  H24B 3760   6.732   5.300   5.134  0.1947  1.2072 -1.8072
   35CHL1   C25 3761   6.649   5.499   5.107  1.2344  0.7868  0.3198
   35CHL1   H25 3762   6.664   5.605   5.138 -0.8840  0.7726  1.6446
   35CHL1   C26 3763   6.700   5.490   4.961 -0.3719 -0.0244 -0.5983
   35CHL1  H26A 3764   6.688   5.396   4.903 -0.2663  1.2156 -2.7669
   35CHL1  H26B 3765   6.648   5.567   4.899 -2.6198 -0.4016  0.7225
   35CHL1  H26C 3766   6.808   5.507   4.982 -1.0098  1.0136  2.1905
   35CHL1   C27 3767   6.491   5.471   5.113 -0.8700  0.1749  0.7796
   35CHL1  H27A 3768   6.444   5.548   5.049  0.5677  1.2690  0.9905
   35CHL1  H27B 3769   6.466   5.368   5.080 -3.7927  0.8796  0.5517
   35CHL1  H27C 3770   6.456   5.492   5.217  0.8273  3.3212  0.8262
   36CHL1    C3 3771   3.222   0.880   7.206  0.2551  0.5933  0.3427
   36CHL1    H3 3772   3.314   0.941   7.186  0.7020 -0.1122  0.2244
   36CHL1    O3 3773   3.215   0.873   7.346 -0.2788  0.4366 -0.1906
   36CHL1   H3' 3774   3.187   0.784   7.368 -3.6100  0.7839 -2.2875
   36CHL1    C4 3775   3.097   0.945   7.156  0.4158  0.7262  0.3328
   36CHL1   H4A 3776   3.011   0.892   7.203  0.4295  1.4206  1.1545
   36CHL1   H4B 3777   3.097   1.050   7.192  2.0263  1.4339 -1.5469
   36CHL1    C5 3778   3.078   0.944   7.004 -0.8191 -0.0022 -0.3015
   36CHL1    C6 3779   3.058   1.058   6.937 -0.5360  0.2119 -0.0984
   36CHL1    H6 3780   3.056   1.157   6.985  0.1485  0.7905 -1.2252
   36CHL1    C7 3781   3.050   1.068   6.790 -0.0545  0.3479 -0.0000
   36CHL1   H7A 3782   2.963   1.133   6.768 -2.0564 -1.1629  2.8037
   36CHL1   H7B 3783   3.141   1.113   6.745  0.2380  1.0101  1.2166
   36CHL1    C8 3784   3.021   0.925   6.723 -0.4716 -0.1456  0.3275
   36CHL1    H8 3785   2.915   0.903   6.749 -0.7069 -0.5595 -0.9491
   36CHL1   C14 3786   3.044   0.916   6.573 -0.1207 -0.0971 -0.2069
   36CHL1   H14 3787   3.153   0.930   6.555  0.1698  1.3709  2.2113
   36CHL1   C15 3788   2.985   1.027   6.481  0.0988 -0.0921  0.5453
   36CHL1  H15A 3789   2.881   1.049   6.512 -1.2723 -1.6818 -2.4572
   36CHL1  H15B 3790   3.050   1.117   6.476 -1.6922  1.1847 -1.6179
   36CHL1   C16 3791   2.966   0.968   6.343  0.4582  0.0827  1.0084
   36CHL1  H16A 3792   2.858   0.957   6.320  0.2543 -0.3393  2.0580
   36CHL1  H16B 3793   3.018   1.026   6.264 -2.4878  1.4725 -0.0256
   36CHL1   C17 3794   3.015   0.819   6.353  0.6484  0.3652  0.1567
   36CHL1   H17 3795   3.118   0.826   6.311  0.4949  1.4078 -0.0727
   36CHL1   C13 3796   3.012   0.782   6.503  0.2223 -0.6051  0.2663
   36CHL1   C18 3797   2.864   0.733   6.535 -0.7689 -0.3389  0.4673
   36CHL1  H18A 3798   2.851   0.702   6.641 -3.9889 -1.4510 -0.1264
   36CHL1  H18B 3799   2.794   0.816   6.513  1.1909  0.5311 -3.4831
   36CHL1  H18C 3800   2.828   0.649   6.471  0.9566 -0.1949 -0.7742
   36CHL1   C12 3801   3.119   0.681   6.564 -0.6089  0.2456  0.5734
   36CHL1  H12A 3802   3.102   0.579   6.522  0.3533  0.8905 -1.5478
   36CHL1  H12B 3803   3.220   0.713   6.531 -0.1092 -1.1960  0.6351
   36CHL1   C11 3804   3.117   0.674   6.713 -0.9029  0.0045  0.0035
   36CHL1  H11A 3805   3.037   0.607   6.752 -0.4028 -1.3657 -1.2326
   36CHL1  H11B 3806   3.213   0.633   6.750 -0.9289 -1.2967 -1.2944
   36CHL1    C9 3807   3.113   0.816   6.783 -0.3423  0.1859 -0.2177
   36CHL1    H9 3808   3.219   0.849   6.773 -0.3645 -0.3824 -2.9777
   36CHL1   C10 3809   3.098   0.807   6.937  0.2598 -0.8168  0.5096
   36CHL1   C19 3810   2.965   0.729   6.969 -0.3770 -0.2165 -0.9852
   36CHL1  H19A 3811   2.961   0.738   7.080 -0.4243  2.6092 -1.1441
   36CHL1  H19B 3812   2.885   0.789   6.921 -0.4330 -0.5447 -1.3042
   36CHL1  H19C 3813   2.976   0.622   6.940  0.1239 -0.3222 -0.4408
   36CHL1    C1 3814   3.225   0.730   7.001 -0.1590  0.6949  0.4317
   36CHL1   H1A 3815   3.209   0.622   6.979  0.6426  0.4063  1.2466
   36CHL1   H1B 3816   3.325   0.756   6.960  0.5264 -1.8859  0.3112
   36CHL1    C2 3817   3.222   0.738   7.156 -0.9995  0.1227 -0.1479
   36CHL1   H2A 3818   3.313   0.682   7.185 -0.2904  0.3383 -1.8499
   36CHL1   H2B 3819   3.136   0.675   7.189  0.0264 -1.0151  0.4357
   36CHL1   C20 3820   2.948   0.719   6.253 -0.4690  1.2049 -0.0585
   36CHL1   H20 3821   2.844   0.717   6.290 -0.6645  4.3444 -0.1997
   36CHL1   C21 3822   3.018   0.582   6.268 -0.5584  0.0490  0.6602
   36CHL1  H21A 3823   2.953   0.539   6.347 -2.8271  1.8016 -0.1488
   36CHL1  H21B 3824   3.125   0.588   6.298  0.0176 -2.2260 -0.7430
   36CHL1  H21C 3825   3.004   0.517   6.179  0.5087  1.3985 -0.5483
   36CHL1   C22 3826   2.945   0.777   6.117  0.2583 -0.6811 -0.3812
   36CHL1  H22A 3827   2.887   0.872   6.115  1.0437 -0.1878 -0.0071
   36CHL1  H22B 3828   3.048   0.802   6.087 -0.3434  2.0819 -0.3972
   36CHL1   C23 3829   2.883   0.681   6.017 -0.0784 -0.4330 -0.3767
   36CHL1  H23A 3830   2.948   0.592   6.000 -0.0167 -0.1944 -1.4499
   36CHL1  H23B 3831   2.790   0.643   6.064 -0.8300 -0.0927 -1.5339
   36CHL1   C24 3832   2.847   0.745   5.880 -0.2484  0.6433  0.1442
   36CHL1  H24A 3833   2.767   0.822   5.886 -0.9649 -0.2103  2.0294
   36CHL1  H24B 3834   2.937   0.810   5.872  0.9429 -0.6205  2.3529
   36CHL1   C25 3835   2.827   0.653   5.761  0.3799  0.7128  0.3996
   36CHL1   H25 3836   2.758   0.707   5.692 -0.2746  0.7250  1.0519
   36CHL1   C26 3837   2.958   0.623   5.681  0.4909  0.1794 -0.0590
   36CHL1  H26A 3838   3.039   0.582   5.745  0.4537  1.3178  0.7360
   36CHL1  H26B 3839   2.945   0.545   5.602  1.8970 -0.0933 -0.0469
   36CHL1  H26C 3840   3.003   0.707   5.625 -2.2862  0.8824 -1.4180
   36CHL1   C27 3841   2.753   0.525   5.805 -0.5866 -0.1209  0.3043
   36CHL1  H27A 3842   2.804   0.466   5.884 -2.2455 -2.0332  0.0282
   36CHL1  H27B 3843   2.653   0.546   5.850 -0.4579  1.2165  0.0169
   36CHL1  H27C 3844   2.742   0.478   5.705  1.9752  0.7279 -0.4330
   37CHL1    C3 3845   4.601   1.387   6.946  0.4133 -0.6179 -0.5055
   37CHL1    H3 3846   4.702   1.396   6.901  1.4620  0.4496  1.8510
   37CHL1    O3 3847   4.629   1.385   7.087 -0.0492 -0.8193 -0.1621
   37CHL1   H3' 3848   4.544   1.419   7.115  0.6668  0.6056  0.3710
   37CHL1    C4 3849   4.517   1.506   6.911  0.0956 -0.8093  0.0199
   37CHL1   H4A 3850   4.427   1.516   6.976 -0.9050 -1.5704 -1.1949
   37CHL1   H4B 3851   4.581   1.592   6.940 -0.0772 -0.4865 -0.5380
   37CHL1    C5 3852   4.488   1.496   6.762 -0.6398  0.0280  0.6245
   37CHL1    C6 3853   4.532   1.591   6.677 -0.5879  0.7071 -0.0342
   37CHL1    H6 3854   4.566   1.686   6.719  1.6311  0.2784 -0.7238
   37CHL1    C7 3855   4.501   1.592   6.532  0.0982  1.0799 -0.2689
   37CHL1   H7A 3856   4.465   1.691   6.498  0.9239  1.9553  1.3367
   37CHL1   H7B 3857   4.591   1.566   6.472  1.5126  1.0161  1.7779
   37CHL1    C8 3858   4.388   1.490   6.488 -0.2640 -0.5017  0.4227
   37CHL1    H8 3859   4.288   1.530   6.516  0.0124 -0.3319  1.1765
   37CHL1   C14 3860   4.407   1.460   6.336  0.5792  0.2041 -0.0909
   37CHL1   H14 3861   4.498   1.399   6.318  0.5187  0.2301 -0.4790
   37CHL1   C15 3862   4.403   1.575   6.232  0.0000  0.7526  0.5468
   37CHL1  H15A 3863   4.371   1.675   6.268  0.7364  0.7638  1.1833
   37CHL1  H15B 3864   4.511   1.584   6.207 -0.1982 -0.8395 -1.1973
   37CHL1   C16 3865   4.333   1.520   6.106 -0.4262 -0.5420  0.2329
   37CHL1  H16A 3866   4.240   1.575   6.085  0.4282  0.6741 -0.4786
   37CHL1  H16B 3867   4.398   1.536   6.018  0.7938  0.7840  1.3284
   37CHL1   C17 3868   4.316   1.366   6.125 -0.1874  0.0734 -0.6653
   37CHL1   H17 3869   4.408   1.312   6.093 -0.3940 -0.7185  0.0489
   37CHL1   C13 3870   4.300   1.354   6.283  0.3687  0.7690 -0.3614
   37CHL1   C18 3871   4.154   1.409   6.320  0.6806 -0.5143  0.0679
   37CHL1  H18A 3872   4.075   1.363   6.257  1.1877  0.2001 -1.1072
   37CHL1  H18B 3873   4.132   1.417   6.429  0.5160  2.9485 -0.1080
   37CHL1  H18C 3874   4.155   1.517   6.294 -2.2026 -0.6068 -0.7657
   37CHL1   C12 3875   4.319   1.220   6.352 -0.0744 -0.9019 -0.4606
   37CHL1  H12A 3876   4.248   1.138   6.327  0.5458 -1.2218 -1.2089
   37CHL1  H12B 3877   4.413   1.169   6.322  0.6003  0.0792 -0.0640
   37CHL1   C11 3878   4.319   1.236   6.506  0.4371 -0.2823  1.3004
   37CHL1  H11A 3879   4.218   1.261   6.545  0.7054  0.6229  1.4315
   37CHL1  H11B 3880   4.346   1.139   6.554  3.5872 -0.6940 -1.0235
   37CHL1    C9 3881   4.416   1.351   6.560  0.4610 -0.0526  0.2999
   37CHL1    H9 3882   4.520   1.326   6.530  1.1757  1.8904  1.0099
   37CHL1   C10 3883   4.420   1.368   6.720 -0.2237  0.2301 -1.0717
   37CHL1   C19 3884   4.280   1.377   6.792 -0.3910  0.3061  0.5649
   37CHL1  H19A 3885   4.227   1.471   6.765  1.3088  1.1025 -0.1546
   37CHL1  H19B 3886   4.216   1.296   6.750  0.4902  0.1910 -0.6120
   37CHL1  H19C 3887   4.280   1.368   6.902  1.3493  2.3882  0.7889
   37CHL1    C1 3888   4.496   1.244   6.775 -1.0873  0.2213  0.6041
   37CHL1   H1A 3889   4.447   1.145   6.761  0.5703 -0.7232  1.2814
   37CHL1   H1B 3890   4.594   1.235   6.724 -0.4883 -0.4194  1.8235
   37CHL1    C2 3891   4.536   1.257   6.917 -0.3086  0.0251  0.1360
   37CHL1   H2A 3892   4.601   1.169   6.936  2.3549  1.8095 -0.2296
   37CHL1   H2B 3893   4.447   1.254   6.984 -0.1653 -0.5273  0.3114
   37CHL1   C20 3894   4.208   1.301   6.025 -0.0634  0.2065  0.3662
   37CHL1   H20 3895   4.109   1.348   6.045 -0.2892 -0.4995  0.9614
   37CHL1   C21 3896   4.192   1.148   6.059  0.7529  0.0821 -0.4569
   37CHL1  H21A 3897   4.146   1.127   6.158 -1.6584 -0.2805 -1.5792
   37CHL1  H21B 3898   4.287   1.090   6.054  1.6818  1.6221 -1.2158
   37CHL1  H21C 3899   4.126   1.106   5.980 -0.3741  0.7636  0.0862
   37CHL1   C22 3900   4.253   1.329   5.885  0.0592  0.1980  0.0617
   37CHL1  H22A 3901   4.263   1.439   5.873  2.5757  0.6003  4.0365
   37CHL1  H22B 3902   4.348   1.277   5.860  0.0355 -0.0891  0.5645
   37CHL1   C23 3903   4.155   1.267   5.779 -0.2474 -0.0698 -0.0736
   37CHL1  H23A 3904   4.167   1.157   5.773 -0.7940 -0.2330  1.3520
   37CHL1  H23B 3905   4.050   1.292   5.806  0.2384  0.8847  1.0253
   37CHL1   C24 3906   4.178   1.317   5.644 -0.0758 -0.1886  0.2866
   37CHL1  H24A 3907   4.139   1.421   5.633  1.6993  0.6162  1.1854
   37CHL1  H24B 3908   4.287   1.321   5.623  0.0231  1.8735  0.9453
   37CHL1   C25 3909   4.110   1.228   5.531 -0.6576 -0.1028 -0.9041
   37CHL1   H25 3910   3.999   1.228   5.528 -0.6537  0.9250 -1.6746
   37CHL1   C26 3911   4.151   1.292   5.392 -0.5725 -0.7774 -0.5133
   37CHL1  H26A 3912   4.119   1.398   5.386  2.4654  0.1851 -1.5683
   37CHL1  H26B 3913   4.261   1.282   5.378 -0.3931 -0.9532  0.8898
   37CHL1  H26C 3914   4.105   1.230   5.313  2.2927 -0.8036 -2.3071
   37CHL1   C27 3915   4.145   1.081   5.532  0.0421  0.2170 -0.2335
   37CHL1  H27A 3916   4.256   1.078   5.540  0.2896  2.8557 -1.6047
   37CHL1  H27B 3917   4.091   1.031   5.615 -1.5713  1.2133 -0.6541
   37CHL1  H27C 3918   4.116   1.042   5.433  0.6172  2.1529 -1.2233
   38CHL1    C3 3919   6.647   4.118   6.832  0.0249  0.3811  0.3684
   38CHL1    H3 3920   6.691   4.220   6.835  1.3921 -0.1782  0.2964
   38CHL1    O3 3921   6.685   4.058   6.953  0.0371  0.4133 -0.5594
   38CHL1   H3' 3922   6.661   3.965   6.947 -0.9652  0.5302  1.0625
   38CHL1    C4 3923   6.498   4.119   6.803  0.2496 -0.0717 -0.5486
   38CHL1   H4A 3924   6.456   4.018   6.819 -1.6022  1.0509  2.7533
   38CHL1   H4B 3925   6.458   4.191   6.878  1.4594 -1.7903  1.8301
   38CHL1    C5 3926   6.465   4.171   6.668  0.3586 -0.3289  0.4977
   38CHL1    C6 3927   6.376   4.270   6.643 -0.3531  0.5736 -0.4700
   38CHL1    H6 3928   6.329   4.314   6.732 -0.6749 -0.1095 -0.2959
   38CHL1    C7 3929   6.328   4.305   6.507 -0.3751 -0.0423 -0.1619
   38CHL1   H7A 3930   6.221   4.329   6.526 -0.0818 -0.6294  2.7776
   38CHL1   H7B 3931   6.370   4.404   6.482 -0.9213 -0.3326 -2.4536
   38CHL1    C8 3932   6.365   4.206   6.391  0.0733  0.1028 -0.1792
   38CHL1    H8 3933   6.292   4.122   6.400  0.8833 -0.8936 -2.2176
   38CHL1   C14 3934   6.358   4.271   6.258  0.7061  0.2302  0.2291
   38CHL1   H14 3935   6.435   4.351   6.256  1.4731 -0.5148 -1.2524
   38CHL1   C15 3936   6.231   4.359   6.221  0.2511 -0.7088 -0.0117
   38CHL1  H15A 3937   6.143   4.294   6.239 -0.1823 -0.4767 -1.2230
   38CHL1  H15B 3938   6.225   4.454   6.278 -0.2473 -1.4506  1.2015
   38CHL1   C16 3939   6.241   4.379   6.068  0.6433 -0.2478  0.4774
   38CHL1  H16A 3940   6.145   4.338   6.031  1.5492 -1.6172 -0.4309
   38CHL1  H16B 3941   6.245   4.483   6.028  1.1136  0.7753  2.9778
   38CHL1   C17 3942   6.364   4.295   6.031 -0.3859 -0.1160 -0.1632
   38CHL1   H17 3943   6.458   4.354   6.032 -0.2590 -0.3128 -0.3738
   38CHL1   C13 3944   6.388   4.192   6.138  0.0778  0.4102 -0.5605
   38CHL1   C18 3945   6.295   4.074   6.129  0.3882  1.0548  0.5167
   38CHL1  H18A 3946   6.307   4.017   6.034 -0.0237 -0.0783  1.1174
   38CHL1  H18B 3947   6.300   3.998   6.210 -0.4521 -0.1316 -0.4870
   38CHL1  H18C 3948   6.190   4.109   6.137  0.7562  2.1285  0.7645
   38CHL1   C12 3949   6.528   4.144   6.148 -0.2963 -0.4825 -0.4139
   38CHL1  H12A 3950   6.552   4.078   6.062  0.0058 -0.6221 -0.2259
   38CHL1  H12B 3951   6.604   4.225   6.138 -0.8014 -0.1880 -2.0348
   38CHL1   C11 3952   6.560   4.073   6.285  0.1321 -0.1640 -0.1952
   38CHL1  H11A 3953   6.514   3.973   6.270 -0.1320 -0.7750  3.5193
   38CHL1  H11B 3954   6.670   4.059   6.289  0.0837 -0.4836  0.0800
   38CHL1    C9 3955   6.511   4.148   6.411 -0.7012  0.6077  0.4469
   38CHL1    H9 3956   6.580   4.233   6.423 -0.3638  0.2222  1.2618
   38CHL1   C10 3957   6.534   4.089   6.550 -0.2753  0.1256 -0.1721
   38CHL1   C19 3958   6.476   3.943   6.557  0.1713 -0.5667  0.1165
   38CHL1  H19A 3959   6.491   3.892   6.654 -0.7878  1.7451  1.5670
   38CHL1  H19B 3960   6.367   3.944   6.535  0.3869  1.1244 -1.1811
   38CHL1  H19C 3961   6.523   3.874   6.484 -0.0973 -1.7071  1.0100
   38CHL1    C1 3962   6.690   4.085   6.590 -0.0775 -0.4139  0.5606
   38CHL1   H1A 3963   6.758   4.040   6.514  1.0505 -1.7628  2.2776
   38CHL1   H1B 3964   6.732   4.187   6.605 -0.5480 -0.1720  0.2690
   38CHL1    C2 3965   6.716   4.034   6.731  0.6540  0.4752  0.1894
   38CHL1   H2A 3966   6.826   4.045   6.742  1.1593  0.5072 -3.5649
   38CHL1   H2B 3967   6.690   3.927   6.741 -3.0482  0.8066 -3.2871
   38CHL1   C20 3968   6.369   4.236   5.893  0.2098  0.4234  0.1269
   38CHL1   H20 3969   6.436   4.147   5.903  1.0403  0.9202 -0.7126
   38CHL1   C21 3970   6.448   4.331   5.790  0.2277  0.1599 -0.6018
   38CHL1  H21A 3971   6.550   4.355   5.828  0.6026 -2.1619 -0.0264
   38CHL1  H21B 3972   6.398   4.428   5.769  0.6594  1.3612  3.2394
   38CHL1  H21C 3973   6.456   4.271   5.697 -0.3420 -2.3888  0.9291
   38CHL1   C22 3974   6.238   4.192   5.825  0.6227 -0.0362 -0.0352
   38CHL1  H22A 3975   6.170   4.159   5.906 -2.1541  0.3829 -2.0337
   38CHL1  H22B 3976   6.190   4.285   5.786 -1.6067 -0.7918  0.7452
   38CHL1   C23 3977   6.246   4.090   5.708 -0.5464  0.3232 -0.3315
   38CHL1  H23A 3978   6.335   4.113   5.647  0.0052 -0.6329  0.0841
   38CHL1  H23B 3979   6.269   3.996   5.763  1.0849  0.9592  0.1020
   38CHL1   C24 3980   6.127   4.090   5.629  0.9329  0.7375  0.4130
   38CHL1  H24A 3981   6.034   4.089   5.690 -0.7421  4.7716 -1.6613
   38CHL1  H24B 3982   6.111   4.184   5.573  0.9753  0.0872 -0.7125
   38CHL1   C25 3983   6.110   3.975   5.526  0.1544  0.7757  0.3113
   38CHL1   H25 3984   6.126   3.877   5.576 -0.2669  1.1668  1.2170
   38CHL1   C26 3985   5.964   3.962   5.469 -1.0102 -0.0612 -0.3688
   38CHL1  H26A 3986   5.883   3.946   5.544 -0.6466 -0.6761 -0.1020
   38CHL1  H26B 3987   5.940   4.045   5.400 -1.9531  0.8672  0.9988
   38CHL1  H26C 3988   5.964   3.867   5.411  2.0124  0.5267 -1.5119
   38CHL1   C27 3989   6.213   3.981   5.408 -0.5676 -0.0842  0.3653
   38CHL1  H27A 3990   6.182   4.062   5.339 -1.4644 -0.0009  0.8508
   38CHL1  H27B 3991   6.314   4.002   5.450 -0.3581  1.8832 -0.9818
   38CHL1  H27C 3992   6.199   3.885   5.355 -0.3789 -0.5595  1.1560
   39CHL1    C3 3993   6.074   4.578   6.819 -0.1814 -0.4463  0.1846
   39CHL1    H3 3994   6.174   4.593   6.773  0.3388 -0.2844  1.3320
   39CHL1    O3 3995   6.105   4.560   6.958 -0.2180 -0.2274 -0.2178
   39CHL1   H3' 3996   6.027   4.524   7.001  1.0793 -1.0936  1.4690
   39CHL1    C4 3997   5.984   4.698   6.788  0.2748  0.2051 -0.3377
   39CHL1   H4A 3998   5.892   4.696   6.849 -0.4921 -1.0542 -1.4624
   39CHL1   H4B 3999   6.044   4.783   6.828 -0.9399 -0.0059  2.0933
   39CHL1    C5 4000   5.961   4.725   6.640  0.1277 -0.1235 -0.0462
   39CHL1    C6 4001   5.986   4.848   6.585 -0.7330 -0.0933 -0.6670
   39CHL1    H6 4002   6.028   4.931   6.644  2.3226 -0.6921 -1.8170
   39CHL1    C7 4003   5.973   4.879   6.437 -0.4338  0.5945 -0.5256
   39CHL1   H7A 4004   5.911   4.971   6.429 -2.3041 -0.5511  0.1297
   39CHL1   H7B 4005   6.073   4.884   6.389 -0.5078 -1.1332 -0.9208
   39CHL1    C8 4006   5.900   4.764   6.359  0.4971 -0.7508  0.3276
   39CHL1    H8 4007   5.794   4.790   6.380  1.1559  0.7571  1.9742
   39CHL1   C14 4008   5.931   4.774   6.204  0.9961 -0.2531 -0.4641
   39CHL1   H14 4009   6.038   4.746   6.201  0.7886 -1.5418  1.7154
   39CHL1   C15 4010   5.930   4.921   6.151  0.7928  0.5216 -0.5217
   39CHL1  H15A 4011   5.851   4.983   6.198 -1.4115 -1.5355 -1.2898
   39CHL1  H15B 4012   6.032   4.962   6.166  1.7824 -1.8421 -0.3992
   39CHL1   C16 4013   5.911   4.885   5.999 -0.4232 -0.4380 -0.0119
   39CHL1  H16A 4014   5.810   4.917   5.968  0.4687  0.0688 -2.6098
   39CHL1  H16B 4015   5.993   4.929   5.938 -0.7101 -0.5841 -0.4995
   39CHL1   C17 4016   5.914   4.730   5.979 -0.6393  0.7220 -0.3415
   39CHL1   H17 4017   6.022   4.704   5.977 -0.3624  1.8759 -1.4146
   39CHL1   C13 4018   5.859   4.672   6.112  0.2672  0.4122 -0.8472
   39CHL1   C18 4019   5.707   4.691   6.115  0.2879 -0.8512 -0.1863
   39CHL1  H18A 4020   5.651   4.608   6.067 -0.0145  0.3625 -2.0189
   39CHL1  H18B 4021   5.678   4.712   6.220 -0.2991  0.4107 -0.5786
   39CHL1  H18C 4022   5.679   4.789   6.071  1.1061 -0.2222  0.6578
   39CHL1   C12 4023   5.890   4.533   6.154 -0.2932  0.7446  0.0196
   39CHL1  H12A 4024   5.813   4.468   6.108  1.0359 -1.5577  0.8638
   39CHL1  H12B 4025   5.990   4.501   6.117 -1.5012 -1.0515 -1.9430
   39CHL1   C11 4026   5.873   4.512   6.308 -0.5999  0.2030 -0.1124
   39CHL1  H11A 4027   5.770   4.504   6.349 -0.1953  3.0786  1.7708
   39CHL1  H11B 4028   5.923   4.420   6.348 -0.0742  0.1564 -0.8537
   39CHL1    C9 4029   5.934   4.628   6.407 -0.0223 -0.1357 -0.3768
   39CHL1    H9 4030   6.043   4.628   6.388  0.1255 -0.7099  0.4408
   39CHL1   C10 4031   5.916   4.602   6.556  0.2748 -0.6741  0.1646
   39CHL1   C19 4032   5.765   4.583   6.580 -1.0908  0.2580 -0.8511
   39CHL1  H19A 4033   5.701   4.657   6.528 -1.9528 -0.1553 -0.3912
   39CHL1  H19B 4034   5.727   4.486   6.542 -1.8895 -0.5778  1.8826
   39CHL1  H19C 4035   5.752   4.573   6.690  0.9840 -0.4008 -0.6178
   39CHL1    C1 4036   6.008   4.486   6.607 -0.2874  0.1841  0.7475
   39CHL1   H1A 4037   5.965   4.393   6.565 -2.2526  1.5936 -0.5621
   39CHL1   H1B 4038   6.107   4.517   6.567 -1.9018  2.3476 -1.9370
   39CHL1    C2 4039   6.015   4.453   6.761 -0.4430 -0.1286 -0.2448
   39CHL1   H2A 4040   6.079   4.363   6.771  0.6324  0.7784  1.5947
   39CHL1   H2B 4041   5.913   4.442   6.805  0.2941  2.2823  2.3620
   39CHL1   C20 4042   5.854   4.673   5.848 -0.4550  0.1881  0.1622
   39CHL1   H20 4043   5.746   4.651   5.859 -0.6303  1.1108  0.3976
   39CHL1   C21 4044   5.908   4.527   5.819  0.4695 -0.3077  0.0467
   39CHL1  H21A 4045   5.868   4.497   5.720 -0.0233 -0.1406  0.1910
   39CHL1  H21B 4046   5.857   4.462   5.893 -0.6471 -1.4595 -1.6586
   39CHL1  H21C 4047   6.017   4.506   5.823  0.3687 -0.7856  0.4021
   39CHL1   C22 4048   5.874   4.765   5.728  0.5625 -0.4409  0.4390
   39CHL1  H22A 4049   5.824   4.862   5.752 -0.8048 -0.4727 -1.9955
   39CHL1  H22B 4050   5.981   4.792   5.720  0.7491 -0.5397  2.2463
   39CHL1   C23 4051   5.810   4.716   5.596 -0.0592 -0.9561  0.2654
   39CHL1  H23A 4052   5.871   4.626   5.570  2.1594 -0.2185  2.5071
   39CHL1  H23B 4053   5.704   4.698   5.624 -0.4162  0.4691 -0.0911
   39CHL1   C24 4054   5.805   4.829   5.488  0.2370 -0.3391  0.2974
   39CHL1  H24A 4055   5.720   4.899   5.506  0.0551 -1.1081  2.6964
   39CHL1  H24B 4056   5.892   4.888   5.522 -0.8226  1.3713  0.1859
   39CHL1   C25 4057   5.807   4.780   5.344  0.0884 -0.2172 -0.2436
   39CHL1   H25 4058   5.882   4.698   5.341 -0.2082 -0.6738  2.6299
   39CHL1   C26 4059   5.672   4.715   5.303 -0.6592 -0.2911  0.2527
   39CHL1  H26A 4060   5.691   4.642   5.221  0.1894  0.5173 -0.2994
   39CHL1  H26B 4061   5.629   4.663   5.390  1.3471 -1.4976  0.6013
   39CHL1  H26C 4062   5.605   4.795   5.265  1.4486 -0.0617 -3.6077
   39CHL1   C27 4063   5.850   4.886   5.238 -0.3365 -1.5334  0.5391
   39CHL1  H27A 4064   5.782   4.973   5.238  1.4830 -0.0359 -0.6992
   39CHL1  H27B 4065   5.954   4.916   5.262  0.2696 -2.1432 -1.1836
   39CHL1  H27C 4066   5.847   4.844   5.135  0.1185 -1.0317  0.3149
   40CHL1    C3 4067   1.116   4.933   6.818  0.2025 -0.0536  0.1029
   40CHL1    H3 4068   1.048   4.847   6.802 -1.3407  1.0185  0.6642
   40CHL1    O3 4069   1.143   4.946   6.963  0.3469 -0.1535  0.3408
   40CHL1   H3' 4070   1.232   4.983   6.966  0.4799 -0.2863 -1.2171
   40CHL1    C4 4071   1.253   4.912   6.737  0.7285  0.5779 -0.2797
   40CHL1   H4A 4072   1.323   4.996   6.755  0.2186  0.9028  0.2007
   40CHL1   H4B 4073   1.293   4.821   6.789  1.4266  0.4916 -0.9542
   40CHL1    C5 4074   1.217   4.893   6.591  0.1594  0.2544  0.4013
   40CHL1    C6 4075   1.254   4.776   6.526  0.8250  0.6766 -0.0068
   40CHL1    H6 4076   1.291   4.688   6.580 -0.4194  1.4490  2.2415
   40CHL1    C7 4077   1.240   4.753   6.379  0.5423  0.3927 -0.2283
   40CHL1   H7A 4078   1.330   4.708   6.332  0.9444  1.2101 -0.2439
   40CHL1   H7B 4079   1.157   4.679   6.370  1.0359 -0.3449  0.9267
   40CHL1    C8 4080   1.196   4.884   6.298  0.0285  0.4993 -0.4240
   40CHL1    H8 4081   1.283   4.952   6.290 -1.9383  3.0327 -1.7942
   40CHL1   C14 4082   1.139   4.849   6.165  0.1717  0.0073 -0.6469
   40CHL1   H14 4083   1.047   4.789   6.182  1.3396 -1.7321 -0.2177
   40CHL1   C15 4084   1.230   4.759   6.083  0.0736  0.0516 -0.5333
   40CHL1  H15A 4085   1.328   4.809   6.097 -0.4328  0.5991  1.3413
   40CHL1  H15B 4086   1.226   4.652   6.114  0.4231 -0.5773 -2.5094
   40CHL1   C16 4087   1.167   4.780   5.943  0.2089  0.1942 -0.2288
   40CHL1  H16A 4088   1.244   4.810   5.869  1.0281  0.1905  0.6052
   40CHL1  H16B 4089   1.127   4.685   5.901 -0.9530 -0.5234  2.2909
   40CHL1   C17 4090   1.058   4.887   5.954  0.0709 -0.7375 -0.9223
   40CHL1   H17 4091   0.961   4.837   5.973 -0.0021 -0.7923 -1.4249
   40CHL1   C13 4092   1.095   4.968   6.083 -0.0536 -0.2572  0.7363
   40CHL1   C18 4093   1.213   5.064   6.057 -0.7221 -0.1101  0.1388
   40CHL1  H18A 4094   1.260   5.089   6.154 -0.9619 -0.6970  0.4161
   40CHL1  H18B 4095   1.285   5.018   5.986 -0.3756  3.3441 -1.9576
   40CHL1  H18C 4096   1.176   5.149   5.996  0.9977  0.3148 -0.3421
   40CHL1   C12 4097   0.973   5.020   6.165  0.2340 -1.5462  0.3571
   40CHL1  H12A 4098   0.934   5.111   6.115  1.1826 -1.4525 -0.2330
   40CHL1  H12B 4099   0.893   4.943   6.171  0.1813 -1.4713  0.6743
   40CHL1   C11 4100   1.016   5.072   6.297 -0.2950 -0.2341 -0.3347
   40CHL1  H11A 4101   1.074   5.166   6.293 -2.3922  1.3387  2.5482
   40CHL1  H11B 4102   0.925   5.101   6.354 -0.1096  0.6422 -0.4830
   40CHL1    C9 4103   1.090   4.962   6.380  0.4282  1.0583 -0.6764
   40CHL1    H9 4104   1.008   4.887   6.391  1.2735  0.0192 -1.2527
   40CHL1   C10 4105   1.140   5.010   6.517 -0.7063 -0.1056  0.3717
   40CHL1   C19 4106   1.240   5.133   6.506 -0.1356 -0.1800  0.5270
   40CHL1  H19A 4107   1.188   5.213   6.449  0.3109  0.2203  0.6760
   40CHL1  H19B 4108   1.271   5.184   6.600 -1.1830 -1.0479  1.3739
   40CHL1  H19C 4109   1.337   5.106   6.460  0.5840  0.0003  1.8780
   40CHL1    C1 4110   1.010   5.041   6.610  0.1037  0.7731 -0.8970
   40CHL1   H1A 4111   0.958   5.128   6.564 -1.1853  0.3186 -0.3453
   40CHL1   H1B 4112   0.943   4.953   6.610  1.6167 -0.4198 -0.5437
   40CHL1    C2 4113   1.040   5.056   6.762 -0.4467  0.4608  0.0329
   40CHL1   H2A 4114   0.944   5.060   6.818  0.6985  1.5977  2.0134
   40CHL1   H2B 4115   1.100   5.148   6.782  1.3668 -1.0063  1.7377
   40CHL1   C20 4116   1.052   4.953   5.816 -0.0172  0.3318  0.4730
   40CHL1   H20 4117   1.146   4.999   5.781 -0.9816  2.6311  0.7449
   40CHL1   C21 4118   0.966   5.078   5.823 -0.0841 -1.3528  0.0465
   40CHL1  H21A 4119   1.014   5.161   5.879 -2.0804  1.9778 -2.7424
   40CHL1  H21B 4120   0.868   5.069   5.876 -1.0198  2.4910 -0.6950
   40CHL1  H21C 4121   0.951   5.128   5.725  1.6096  2.0632  1.3403
   40CHL1   C22 4122   0.992   4.848   5.710 -0.0027 -0.2666 -0.6650
   40CHL1  H22A 4123   1.039   4.749   5.730 -0.4988  0.0459  2.5960
   40CHL1  H22B 4124   0.885   4.850   5.739  0.2180  1.5103  0.2349
   40CHL1   C23 4125   1.023   4.893   5.560  0.3654 -0.8624 -0.1111
   40CHL1  H23A 4126   0.957   4.837   5.491  1.1370 -2.5922  0.4876
   40CHL1  H23B 4127   1.008   5.001   5.542  1.0687 -0.9192 -1.0733
   40CHL1   C24 4128   1.168   4.854   5.524 -0.2096 -0.1356 -0.5111
   40CHL1  H24A 4129   1.238   4.901   5.596  1.3480 -1.0104 -1.4085
   40CHL1  H24B 4130   1.173   4.745   5.546 -0.1868  0.4981  3.1873
   40CHL1   C25 4131   1.208   4.879   5.378 -0.4140  0.1855  0.9592
   40CHL1   H25 4132   1.131   4.830   5.315  0.3212 -1.3941  1.2311
   40CHL1   C26 4133   1.207   5.029   5.340  0.8556 -0.1460 -0.4037
   40CHL1  H26A 4134   1.102   5.063   5.351  0.6391 -1.0543  0.4797
   40CHL1  H26B 4135   1.276   5.084   5.408  2.4685 -1.9912 -0.4551
   40CHL1  H26C 4136   1.250   5.042   5.239  0.7488 -1.7507 -0.6818
   40CHL1   C27 4137   1.343   4.827   5.352 -0.1637  0.1333  1.1855
   40CHL1  H27A 4138   1.367   4.723   5.383  0.7211 -0.0600 -0.0663
   40CHL1  H27B 4139   1.355   4.844   5.243 -1.1841 -0.1859  1.0203
   40CHL1  H27C 4140   1.421   4.891   5.399  1.8587 -0.2961 -1.3151
   41CHL1    C3 4141   2.700   2.082   6.812 -0.1967 -0.5446  0.0940
   41CHL1    H3 4142   2.597   2.042   6.825 -1.9577  2.7874 -2.1482
   41CHL1    O3 4143   2.766   2.119   6.933 -0.0982 -0.0144 -0.0178
   41CHL1   H3' 4144   2.842   2.162   6.893 -1.1787  1.2755 -0.7800
   41CHL1    C4 4145   2.792   1.985   6.734 -1.0524 -0.5177 -0.5318
   41CHL1   H4A 4146   2.892   2.030   6.719 -0.4495 -1.2633  1.0266
   41CHL1   H4B 4147   2.816   1.890   6.788  0.6169 -1.2316 -2.4225
   41CHL1    C5 4148   2.741   1.940   6.601 -0.1727  0.3650 -0.4593
   41CHL1    C6 4149   2.725   1.811   6.557  0.8120 -0.0239 -0.4251
   41CHL1    H6 4150   2.748   1.731   6.627  0.5033 -0.8252 -1.2189
   41CHL1    C7 4151   2.683   1.763   6.419  0.5456 -0.1377 -0.4439
   41CHL1   H7A 4152   2.754   1.685   6.385  2.8060  0.4171  2.6110
   41CHL1   H7B 4153   2.575   1.738   6.414  0.9006 -1.9714  0.3430
   41CHL1    C8 4154   2.699   1.883   6.319 -0.4486 -0.2631 -0.2647
   41CHL1    H8 4155   2.807   1.894   6.299 -0.3039  1.0460  1.0363
   41CHL1   C14 4156   2.624   1.860   6.189  0.2498 -0.3067 -0.5816
   41CHL1   H14 4157   2.521   1.860   6.231  0.5199  2.3063  0.2774
   41CHL1   C15 4158   2.653   1.733   6.107  0.2372 -0.8240 -0.3795
   41CHL1  H15A 4159   2.761   1.707   6.098  0.7036  0.4920  0.9969
   41CHL1  H15B 4160   2.603   1.642   6.146 -1.9989  0.7842  0.7086
   41CHL1   C16 4161   2.580   1.758   5.975 -0.1121 -0.2012  0.0470
   41CHL1  H16A 4162   2.655   1.740   5.895  1.3830 -0.7567  1.5095
   41CHL1  H16B 4163   2.498   1.686   5.957 -0.4154 -0.7536  3.1452
   41CHL1   C17 4164   2.523   1.904   5.976  0.3982 -0.0314  0.5345
   41CHL1   H17 4165   2.418   1.897   6.010  0.3899  1.8522  1.0553
   41CHL1   C13 4166   2.611   1.968   6.087  0.6197 -1.0068 -0.5162
   41CHL1   C18 4167   2.751   2.019   6.039 -0.6643  0.6606  0.1343
   41CHL1  H18A 4168   2.777   1.938   5.968 -0.6232  2.2871 -1.8092
   41CHL1  H18B 4169   2.742   2.119   5.992 -3.4059  0.2512 -0.3964
   41CHL1  H18C 4170   2.823   2.037   6.122 -1.1734  1.8563  0.3384
   41CHL1   C12 4171   2.538   2.083   6.161 -0.3471 -0.4099 -0.7022
   41CHL1  H12A 4172   2.536   2.168   6.090 -0.6893 -1.3273 -1.8218
   41CHL1  H12B 4173   2.432   2.063   6.189 -1.3684  1.8930 -2.6381
   41CHL1   C11 4174   2.620   2.129   6.283  0.6688 -0.3183  0.0676
   41CHL1  H11A 4175   2.711   2.176   6.240  2.4073 -1.0626  2.7371
   41CHL1  H11B 4176   2.559   2.213   6.325 -2.6654 -2.9422  0.9042
   41CHL1    C9 4177   2.640   2.015   6.383 -0.2585 -0.0454  0.5789
   41CHL1    H9 4178   2.537   1.990   6.416  0.2158  0.2463  2.3879
   41CHL1   C10 4179   2.712   2.060   6.513 -0.4212  0.6820  0.0068
   41CHL1   C19 4180   2.845   2.117   6.462 -0.2636  0.0382  0.6637
   41CHL1  H19A 4181   2.908   2.048   6.402 -1.5954  0.2455 -1.0506
   41CHL1  H19B 4182   2.831   2.214   6.409 -2.3034 -1.2864 -1.3939
   41CHL1  H19C 4183   2.911   2.135   6.549  0.3014  0.3003  0.1941
   41CHL1    C1 4184   2.627   2.161   6.593 -0.0221  0.2769  0.0151
   41CHL1   H1A 4185   2.607   2.252   6.532 -1.0097  0.6079  0.7951
   41CHL1   H1B 4186   2.524   2.121   6.604 -0.3978  0.9792 -0.8102
   41CHL1    C2 4187   2.672   2.213   6.729 -0.2186  0.9172  1.3724
   41CHL1   H2A 4188   2.597   2.274   6.783 -0.6027  1.4449  0.2636
   41CHL1   H2B 4189   2.767   2.270   6.715 -0.0294  0.2369 -0.2438
   41CHL1   C20 4190   2.529   1.962   5.834  1.0364  0.2468  0.0878
   41CHL1   H20 4191   2.622   2.005   5.792  0.9167  1.0320  0.6010
   41CHL1   C21 4192   2.429   2.082   5.836  0.0050  0.4962 -0.3176
   41CHL1  H21A 4193   2.328   2.059   5.878 -0.1925  2.4692  0.3627
   41CHL1  H21B 4194   2.425   2.113   5.729 -1.6000 -1.4840 -0.9175
   41CHL1  H21C 4195   2.457   2.174   5.890  1.2259 -0.8299  1.4313
   41CHL1   C22 4196   2.482   1.859   5.730  0.5207  0.2862  0.3045
   41CHL1  H22A 4197   2.547   1.769   5.728  0.3319  0.1326  0.8267
   41CHL1  H22B 4198   2.381   1.823   5.757  1.3050 -1.3024  1.2873
   41CHL1   C23 4199   2.482   1.915   5.588  0.3650 -0.3647 -0.4240
   41CHL1  H23A 4200   2.403   1.991   5.574  2.0834  1.5230 -0.2675
   41CHL1  H23B 4201   2.578   1.968   5.571  0.0820 -0.0583 -1.0900
   41CHL1   C24 4202   2.480   1.796   5.490 -0.0117 -0.5923 -0.4697
   41CHL1  H24A 4203   2.566   1.728   5.505  1.9126  1.8938  0.4439
   41CHL1  H24B 4204   2.385   1.741   5.507 -0.4313 -1.3396 -4.3561
   41CHL1   C25 4205   2.489   1.842   5.337  0.3126  0.5047  0.0676
   41CHL1   H25 4206   2.388   1.883   5.317 -1.1294 -1.9503  1.7041
   41CHL1   C26 4207   2.582   1.959   5.305  0.0916  0.1445  0.4868
   41CHL1  H26A 4208   2.538   2.050   5.352  1.0952  0.5342  0.6921
   41CHL1  H26B 4209   2.677   1.932   5.355  0.0716 -1.7100 -0.4002
   41CHL1  H26C 4210   2.608   1.965   5.197  0.3702 -1.3058  0.4610
   41CHL1   C27 4211   2.510   1.729   5.242 -0.5048  0.3819  0.0728
   41CHL1  H27A 4212   2.421   1.702   5.180  0.8853 -1.6909 -1.1527
   41CHL1  H27B 4213   2.581   1.757   5.162 -0.0991 -0.4893  0.1184
   41CHL1  H27C 4214   2.550   1.644   5.300 -0.1546 -1.0361 -2.1135
   42CHL1    C3 4215   2.493   4.579   7.196 -0.2668  0.5830 -0.5874
   42CHL1    H3 4216   2.409   4.651   7.183  0.8506  2.1448  0.4199
   42CHL1    O3 4217   2.511   4.560   7.336  0.5831 -0.1699  0.0928
   42CHL1   H3' 4218   2.549   4.643   7.366 -0.1046  0.9285 -1.9446
   42CHL1    C4 4219   2.463   4.442   7.123  0.8369 -0.4761 -0.6720
   42CHL1   H4A 4220   2.537   4.362   7.141  0.6778 -0.4622  0.0438
   42CHL1   H4B 4221   2.370   4.403   7.169  0.0713  0.6641 -1.1981
   42CHL1    C5 4222   2.447   4.473   6.977 -0.0806 -0.7381  0.1795
   42CHL1    C6 4223   2.338   4.440   6.915 -0.2991 -0.3040  0.3364
   42CHL1    H6 4224   2.262   4.392   6.979 -0.7553  0.9843  0.8062
   42CHL1    C7 4225   2.327   4.437   6.768 -0.2250  0.2279  0.5807
   42CHL1   H7A 4226   2.312   4.337   6.721  1.7018  0.1029  0.1476
   42CHL1   H7B 4227   2.250   4.511   6.740  0.8889  0.8371 -1.0353
   42CHL1    C8 4228   2.458   4.474   6.694  0.0727  0.0022  1.4496
   42CHL1    H8 4229   2.519   4.383   6.685  0.4912  0.4814 -1.8879
   42CHL1   C14 4230   2.430   4.506   6.545  0.7525  0.1255 -0.1027
   42CHL1   H14 4231   2.377   4.604   6.541 -0.1914 -0.4105 -1.2946
   42CHL1   C15 4232   2.352   4.402   6.463 -1.0751 -0.5643  0.2257
   42CHL1  H15A 4233   2.379   4.302   6.502 -1.0253 -0.0177  1.6518
   42CHL1  H15B 4234   2.246   4.427   6.481 -0.6358  0.6469  1.2998
   42CHL1   C16 4235   2.396   4.427   6.319 -0.2820 -0.9075 -0.3191
   42CHL1  H16A 4236   2.455   4.339   6.287  0.1598 -0.1347 -1.7701
   42CHL1  H16B 4237   2.314   4.453   6.248  0.4237  1.8743 -0.2652
   42CHL1   C17 4238   2.491   4.551   6.329 -1.0923 -0.9045  0.9961
   42CHL1   H17 4239   2.429   4.643   6.319 -0.7639 -0.6761  1.0518
   42CHL1   C13 4240   2.549   4.549   6.471 -0.7609  0.0869  0.2510
   42CHL1   C18 4241   2.658   4.434   6.474 -0.2215  0.7683  0.2913
   42CHL1  H18A 4242   2.746   4.471   6.417 -0.7072  0.4483 -0.6990
   42CHL1  H18B 4243   2.701   4.408   6.573  1.1674 -0.4280 -0.5934
   42CHL1  H18C 4244   2.628   4.338   6.426 -2.2453 -0.0227  2.8878
   42CHL1   C12 4245   2.602   4.679   6.537 -0.0306 -0.3080 -0.0068
   42CHL1  H12A 4246   2.700   4.715   6.499  0.5325  2.0972  3.2368
   42CHL1  H12B 4247   2.524   4.758   6.539  0.2408  0.0643 -2.0601
   42CHL1   C11 4248   2.652   4.649   6.682 -0.2122  0.3326  0.0848
   42CHL1  H11A 4249   2.734   4.576   6.667 -0.8966 -0.1892 -1.3324
   42CHL1  H11B 4250   2.698   4.743   6.721 -1.2277  0.3201  1.3635
   42CHL1    C9 4251   2.539   4.581   6.766  0.4918 -0.0908 -0.2335
   42CHL1    H9 4252   2.466   4.665   6.767 -0.2114 -0.5174 -3.4001
   42CHL1   C10 4253   2.578   4.536   6.910  0.5138 -0.0693  0.2921
   42CHL1   C19 4254   2.697   4.441   6.908 -0.5232  0.6451 -0.9019
   42CHL1  H19A 4255   2.715   4.382   7.000  1.2754 -0.4401 -1.8906
   42CHL1  H19B 4256   2.681   4.370   6.824  2.0603 -0.6142 -0.3944
   42CHL1  H19C 4257   2.793   4.496   6.898 -0.8620  1.0897 -1.8702
   42CHL1    C1 4258   2.601   4.673   6.984  1.2618 -0.1777 -0.1577
   42CHL1   H1A 4259   2.703   4.704   6.955  0.4387  1.3140 -1.6894
   42CHL1   H1B 4260   2.527   4.752   6.958  0.6310 -0.9207 -0.6985
   42CHL1    C2 4261   2.624   4.642   7.139  0.1673 -0.0396  0.0348
   42CHL1   H2A 4262   2.655   4.727   7.203  0.5104  0.6061 -0.9546
   42CHL1   H2B 4263   2.700   4.561   7.138  0.4444  0.2034  0.8580
   42CHL1   C20 4264   2.591   4.551   6.209 -0.6633 -0.8269 -0.0942
   42CHL1   H20 4265   2.658   4.463   6.210  0.2170 -0.2329 -1.8187
   42CHL1   C21 4266   2.673   4.684   6.206 -0.7089 -0.0012 -0.4635
   42CHL1  H21A 4267   2.730   4.698   6.112 -1.2614  1.5631 -0.5952
   42CHL1  H21B 4268   2.752   4.687   6.285  1.9619 -0.4139 -2.9692
   42CHL1  H21C 4269   2.612   4.776   6.214  0.0817  0.5637 -0.8208
   42CHL1   C22 4270   2.517   4.540   6.076  0.6492  0.2205  0.3624
   42CHL1  H22A 4271   2.460   4.445   6.078  2.6795 -1.0224  1.5496
   42CHL1  H22B 4272   2.449   4.626   6.058 -1.8553 -1.4824  1.1464
   42CHL1   C23 4273   2.611   4.530   5.954 -0.2914 -0.5535 -0.0522
   42CHL1  H23A 4274   2.655   4.632   5.943 -2.5715  0.6113  0.9224
   42CHL1  H23B 4275   2.695   4.460   5.975  1.1697  0.8614 -0.8720
   42CHL1   C24 4276   2.535   4.494   5.827 -0.0330 -0.5734  0.4100
   42CHL1  H24A 4277   2.455   4.419   5.842  0.3634 -1.3043 -0.9791
   42CHL1  H24B 4278   2.475   4.578   5.786 -0.2441 -0.0067  1.8239
   42CHL1   C25 4279   2.627   4.448   5.713  0.4496 -0.3811  0.6282
   42CHL1   H25 4280   2.709   4.522   5.712  0.1388 -0.0101  1.6731
   42CHL1   C26 4281   2.689   4.303   5.742  0.5441 -0.0322 -0.0101
   42CHL1  H26A 4282   2.750   4.272   5.654  0.3703 -1.6516  0.3934
   42CHL1  H26B 4283   2.757   4.318   5.828 -0.8952  0.4611  1.0819
   42CHL1  H26C 4284   2.608   4.233   5.774 -0.4042  1.0611  0.0556
   42CHL1   C27 4285   2.557   4.461   5.575  0.0017 -0.2179 -0.6440
   42CHL1  H27A 4286   2.484   4.378   5.561  1.4486 -1.4328 -1.2553
   42CHL1  H27B 4287   2.504   4.558   5.562 -1.4095 -0.8220  0.3744
   42CHL1  H27C 4288   2.638   4.461   5.499  0.6549 -0.6530  0.0417
   43CHL1    C3 4289   2.915   6.093   7.047  0.1462 -0.2879  0.3358
   43CHL1    H3 4290   3.026   6.104   7.042  0.1516 -0.1351  0.7475
   43CHL1    O3 4291   2.889   6.100   7.184  0.3982  0.2813  0.3097
   43CHL1   H3' 4292   2.959   6.059   7.236  1.6034  0.4865 -1.0592
   43CHL1    C4 4293   2.848   6.211   6.977 -0.1136 -0.5188  0.3529
   43CHL1   H4A 4294   2.740   6.213   7.003  0.1389 -2.3847  1.7301
   43CHL1   H4B 4295   2.894   6.308   7.006 -0.4689  0.1365 -1.1459
   43CHL1    C5 4296   2.867   6.199   6.825 -0.5059  0.1987 -0.3572
   43CHL1    C6 4297   2.937   6.287   6.750 -0.1589  0.3062  0.1032
   43CHL1    H6 4298   3.000   6.364   6.798 -0.7306  0.4879  0.5686
   43CHL1    C7 4299   2.958   6.284   6.600 -0.7696  0.2657 -0.2784
   43CHL1   H7A 4300   2.947   6.385   6.555  1.0713  0.5598 -0.1427
   43CHL1   H7B 4301   3.062   6.255   6.573 -0.9734 -0.3941 -0.3765
   43CHL1    C8 4302   2.859   6.175   6.538 -0.2563  0.2003 -0.5748
   43CHL1    H8 4303   2.758   6.222   6.545 -1.4814 -2.4552  1.2206
   43CHL1   C14 4304   2.885   6.159   6.385  0.3363  0.1939  0.4576
   43CHL1   H14 4305   2.993   6.131   6.378  0.0722 -0.5615 -1.2257
   43CHL1   C15 4306   2.885   6.284   6.296 -1.0389  0.3961 -0.2739
   43CHL1  H15A 4307   2.806   6.360   6.311 -2.1989  0.1001 -3.9310
   43CHL1  H15B 4308   2.970   6.355   6.308  0.3487 -1.3530  0.6918
   43CHL1   C16 4309   2.861   6.235   6.158 -0.1193 -0.6165 -0.7280
   43CHL1  H16A 4310   2.773   6.274   6.103  0.6124  1.2660 -0.6290
   43CHL1  H16B 4311   2.949   6.253   6.092  0.8424 -1.4351  0.2637
   43CHL1   C17 4312   2.849   6.078   6.172 -0.4790 -0.6469 -0.5579
   43CHL1   H17 4313   2.953   6.040   6.177 -0.6372 -1.4537 -2.4410
   43CHL1   C13 4314   2.797   6.062   6.320  0.2039 -0.4489 -0.4474
   43CHL1   C18 4315   2.644   6.109   6.326 -0.3303 -0.0173 -0.0490
   43CHL1  H18A 4316   2.619   6.129   6.432 -1.2910 -1.2818 -0.0179
   43CHL1  H18B 4317   2.632   6.207   6.275  0.2912 -1.1886 -2.5803
   43CHL1  H18C 4318   2.571   6.038   6.281  0.0611 -0.9384  0.7356
   43CHL1   C12 4319   2.813   5.923   6.392 -0.2550 -0.4495  0.2192
   43CHL1  H12A 4320   2.744   5.846   6.352  2.2917 -3.0844  0.6005
   43CHL1  H12B 4321   2.916   5.888   6.369 -0.3451 -0.4369 -0.2153
   43CHL1   C11 4322   2.790   5.933   6.542 -0.2406  0.5271  0.5056
   43CHL1  H11A 4323   2.682   5.946   6.564 -0.6289 -1.3134 -0.1723
   43CHL1  H11B 4324   2.826   5.841   6.593 -0.4349  0.0491 -0.2011
   43CHL1    C9 4325   2.853   6.050   6.615 -0.2419 -1.1470  0.4057
   43CHL1    H9 4326   2.957   6.017   6.634 -0.2954  0.0126  3.1183
   43CHL1   C10 4327   2.803   6.069   6.766 -0.2580 -0.0332 -0.1128
   43CHL1   C19 4328   2.651   6.074   6.779 -0.2834  0.3596  0.9728
   43CHL1  H19A 4329   2.617   6.099   6.881 -0.1390 -0.9152  1.3522
   43CHL1  H19B 4330   2.600   6.139   6.705  1.6050 -0.8478 -1.5497
   43CHL1  H19C 4331   2.614   5.969   6.771 -0.1671  0.3687  0.1870
   43CHL1    C1 4332   2.857   5.949   6.844 -0.7963  1.0300  0.3591
   43CHL1   H1A 4333   2.803   5.861   6.804  1.6720 -1.5413  2.2538
   43CHL1   H1B 4334   2.961   5.921   6.816 -1.0056 -0.9627  1.3521
   43CHL1    C2 4335   2.856   5.966   6.994  0.5304 -0.0426  0.1953
   43CHL1   H2A 4336   2.903   5.875   7.039  0.8739  0.7248  1.4470
   43CHL1   H2B 4337   2.748   5.961   7.019  0.6306  0.1640  0.6838
   43CHL1   C20 4338   2.784   6.008   6.054 -0.0319  0.3908  0.2369
   43CHL1   H20 4339   2.678   6.040   6.044 -0.3141  0.1964  2.1951
   43CHL1   C21 4340   2.786   5.857   6.080  0.4197 -0.1687  0.6102
   43CHL1  H21A 4341   2.712   5.819   6.153 -1.6191 -0.8041 -1.6603
   43CHL1  H21B 4342   2.888   5.844   6.122  1.5466  0.5588 -1.7376
   43CHL1  H21C 4343   2.775   5.800   5.986 -0.3965 -0.0295  0.6186
   43CHL1   C22 4344   2.858   6.040   5.919 -0.0848 -0.5423  0.3718
   43CHL1  H22A 4345   2.872   6.149   5.902 -0.9725 -0.4364  0.2714
   43CHL1  H22B 4346   2.958   5.993   5.925 -0.4579 -1.4061 -0.0214
   43CHL1   C23 4347   2.779   5.972   5.803 -0.0135 -0.0414  0.3486
   43CHL1  H23A 4348   2.834   5.884   5.764 -0.8746 -0.4798  0.1093
   43CHL1  H23B 4349   2.689   5.921   5.843 -1.3295  0.8618 -1.3573
   43CHL1   C24 4350   2.717   6.068   5.700  0.0497  0.2765 -0.3459
   43CHL1  H24A 4351   2.798   6.122   5.646  2.9636 -0.4643  2.9354
   43CHL1  H24B 4352   2.658   6.003   5.632 -1.3486  1.7637 -0.6140
   43CHL1   C25 4353   2.604   6.158   5.763 -0.5124 -0.2564 -0.3946
   43CHL1   H25 4354   2.650   6.226   5.838 -1.7943  1.6226 -1.2388
   43CHL1   C26 4355   2.565   6.255   5.650  0.2909 -0.4935 -0.0528
   43CHL1  H26A 4356   2.518   6.205   5.562 -0.7056  0.3128  0.0102
   43CHL1  H26B 4357   2.498   6.324   5.704  1.4080  0.0196  0.7210
   43CHL1  H26C 4358   2.653   6.312   5.613 -0.3520  0.8866  0.5058
   43CHL1   C27 4359   2.488   6.087   5.833  0.6385  0.5083  0.2460
   43CHL1  H27A 4360   2.523   6.019   5.914  0.6949 -0.5492 -0.6482
   43CHL1  H27B 4361   2.423   6.160   5.885  1.8634  1.8946 -0.0845
   43CHL1  H27C 4362   2.425   6.043   5.754 -1.3799  3.1083  0.2734
   44CHL1    C3 4363   1.384   6.335   6.856  0.4131 -0.1932  0.4839
   44CHL1    H3 4364   1.370   6.225   6.862 -1.1152 -0.1378 -1.2449
   44CHL1    O3 4365   1.389   6.390   6.983  0.4817 -0.3848 -0.1966
   44CHL1   H3' 4366   1.297   6.414   6.995  1.1776  2.0886  0.6989
   44CHL1    C4 4367   1.522   6.370   6.796 -0.2262  0.8017  0.4386
   44CHL1   H4A 4368   1.530   6.481   6.798 -0.9844  0.8673 -0.0021
   44CHL1   H4B 4369   1.596   6.323   6.865 -1.3769 -2.5822 -0.4481
   44CHL1    C5 4370   1.545   6.305   6.659  0.4295 -0.0439  0.1848
   44CHL1    C6 4371   1.651   6.234   6.630 -0.1668  0.2731  0.1994
   44CHL1    H6 4372   1.727   6.225   6.710  0.5399  0.4882 -0.4343
   44CHL1    C7 4373   1.683   6.184   6.492  0.1490 -0.4176  0.3413
   44CHL1   H7A 4374   1.782   6.210   6.449  0.1895 -0.7674  0.2178
   44CHL1   H7B 4375   1.668   6.074   6.493  0.8481 -0.5200  0.2832
   44CHL1    C8 4376   1.585   6.247   6.384 -0.0623  0.6654 -0.3912
   44CHL1    H8 4377   1.636   6.344   6.363 -0.4552  0.7692 -0.8663
   44CHL1   C14 4378   1.598   6.167   6.257  0.1204  0.0707 -0.3765
   44CHL1   H14 4379   1.553   6.067   6.276  0.7270  0.0208  0.8888
   44CHL1   C15 4380   1.743   6.131   6.203  0.0599 -0.1136  0.0180
   44CHL1  H15A 4381   1.798   6.225   6.223 -1.0947  0.3405  1.2438
   44CHL1  H15B 4382   1.789   6.052   6.266 -1.5221 -1.8709 -0.8948
   44CHL1   C16 4383   1.719   6.120   6.052 -0.1169  0.2769  0.2242
   44CHL1  H16A 4384   1.771   6.199   5.994  0.1721 -1.2555 -1.6899
   44CHL1  H16B 4385   1.752   6.025   6.005  1.8290  2.4565 -3.2332
   44CHL1   C17 4386   1.566   6.120   6.032 -0.0292 -0.1882  1.4105
   44CHL1   H17 4387   1.521   6.019   6.047  0.2194 -0.4425  0.4841
   44CHL1   C13 4388   1.510   6.208   6.142  0.3141 -0.4913 -0.2100
   44CHL1   C18 4389   1.534   6.351   6.096 -0.3312  0.2493 -0.0941
   44CHL1  H18A 4390   1.463   6.374   6.014  0.5987 -0.8241 -1.2435
   44CHL1  H18B 4391   1.516   6.426   6.175 -0.6298  0.0564  0.0207
   44CHL1  H18C 4392   1.641   6.362   6.070 -0.9449  2.7621 -1.9070
   44CHL1   C12 4393   1.361   6.201   6.186 -0.0615 -0.5926  0.3464
   44CHL1  H12A 4394   1.287   6.250   6.119  1.0461  0.9321  0.1914
   44CHL1  H12B 4395   1.328   6.096   6.200 -1.3160 -0.2111  0.4092
   44CHL1   C11 4396   1.341   6.287   6.312  0.6420 -0.0544  0.4018
   44CHL1  H11A 4397   1.339   6.395   6.286  2.8408 -0.4201 -1.6468
   44CHL1  H11B 4398   1.241   6.270   6.356  0.0815 -0.6136 -1.0053
   44CHL1    C9 4399   1.438   6.258   6.427 -0.8465  0.1258  0.6221
   44CHL1    H9 4400   1.405   6.158   6.463 -1.2017  0.0766  0.1786
   44CHL1   C10 4401   1.431   6.343   6.553 -1.2325 -0.2172 -0.7093
   44CHL1   C19 4402   1.445   6.489   6.511  0.2772 -0.4979 -0.0217
   44CHL1  H19A 4403   1.455   6.566   6.590 -1.8152  0.2808 -0.4448
   44CHL1  H19B 4404   1.534   6.507   6.447  0.9433 -0.0495  1.0213
   44CHL1  H19C 4405   1.352   6.519   6.458  0.0228  0.9905  1.2078
   44CHL1    C1 4406   1.290   6.324   6.624 -0.0066 -0.2860  0.6019
   44CHL1   H1A 4407   1.211   6.379   6.570  0.4723  1.4822  1.6139
   44CHL1   H1B 4408   1.277   6.214   6.631  0.5766 -0.4235 -0.3165
   44CHL1    C2 4409   1.273   6.389   6.766 -0.1904  0.1560 -0.6819
   44CHL1   H2A 4410   1.173   6.369   6.810  0.3724  0.2100  0.6614
   44CHL1   H2B 4411   1.286   6.499   6.758  0.4644  0.4241  2.6324
   44CHL1   C20 4412   1.528   6.148   5.881  0.4262 -0.5508  0.6269
   44CHL1   H20 4413   1.553   6.255   5.866 -3.0509  0.2137 -0.6849
   44CHL1   C21 4414   1.374   6.143   5.859 -0.9810  0.3363  0.1778
   44CHL1  H21A 4415   1.317   6.214   5.923  1.8050  2.7714  0.1414
   44CHL1  H21B 4416   1.341   6.038   5.877  1.0270 -0.3106  0.2935
   44CHL1  H21C 4417   1.340   6.168   5.756  0.9191  0.1907 -0.5134
   44CHL1   C22 4418   1.597   6.074   5.768 -0.4085 -0.5023  0.5504
   44CHL1  H22A 4419   1.706   6.093   5.767 -0.0825 -1.9608  2.3928
   44CHL1  H22B 4420   1.588   5.963   5.773 -1.2139 -0.4915 -0.3019
   44CHL1   C23 4421   1.545   6.106   5.618 -0.7349  0.0679 -0.2782
   44CHL1  H23A 4422   1.443   6.063   5.609 -0.6189 -0.0036 -1.3348
   44CHL1  H23B 4423   1.543   6.217   5.611 -3.9869  0.4969  3.5898
   44CHL1   C24 4424   1.644   6.052   5.512  0.0563 -0.1525 -0.0960
   44CHL1  H24A 4425   1.746   6.096   5.512 -0.8877  2.2281 -1.9040
   44CHL1  H24B 4426   1.644   5.941   5.516 -1.8591 -0.1908 -0.0933
   44CHL1   C25 4427   1.595   6.090   5.362  0.0754  0.3256  0.4876
   44CHL1   H25 4428   1.590   6.200   5.355 -2.5492  0.1444 -2.3690
   44CHL1   C26 4429   1.692   6.037   5.243  0.5814  0.5022 -0.0980
   44CHL1  H26A 4430   1.793   6.083   5.248  0.9365 -0.3716  1.6519
   44CHL1  H26B 4431   1.707   5.927   5.248  0.0179  0.2741 -2.2492
   44CHL1  H26C 4432   1.637   6.056   5.148 -0.1927 -2.1792 -0.2602
   44CHL1   C27 4433   1.449   6.033   5.330 -0.6836  0.0538  0.1044
   44CHL1  H27A 4434   1.424   6.046   5.222 -0.3457 -0.3210 -0.0200
   44CHL1  H27B 4435   1.435   5.926   5.359 -1.7795 -0.2582 -1.4379
   44CHL1  H27C 4436   1.368   6.086   5.384 -1.0365 -0.4312  0.0686
   45CHL1    C3 4437   1.977   6.560   6.935 -0.0306 -0.3853 -0.1261
   45CHL1    H3 4438   2.084   6.553   6.909  0.6910 -0.2343  2.5133
   45CHL1    O3 4439   1.957   6.523   7.071 -0.4841  0.1281 -0.6499
   45CHL1   H3' 4440   1.868   6.487   7.074 -0.2575 -0.4055  0.9029
   45CHL1    C4 4441   1.940   6.704   6.907  0.2432 -0.0843 -0.8854
   45CHL1   H4A 4442   1.834   6.724   6.933  0.8575  3.4080 -0.5669
   45CHL1   H4B 4443   1.981   6.775   6.982 -3.4144  0.9699  0.3611
   45CHL1    C5 4444   1.951   6.745   6.765 -0.6372 -0.3697 -0.7863
   45CHL1    C6 4445   2.024   6.857   6.739  0.5872  0.5259 -0.4184
   45CHL1    H6 4446   2.054   6.923   6.822  2.6362  2.5032 -2.5706
   45CHL1    C7 4447   2.049   6.903   6.599  0.5122 -0.4891 -0.6072
   45CHL1   H7A 4448   2.018   7.010   6.595  0.8205 -0.3230  0.9760
   45CHL1   H7B 4449   2.157   6.892   6.576  0.2789  0.5092 -2.3381
   45CHL1    C8 4450   1.967   6.827   6.487 -0.1931 -0.2505  0.0327
   45CHL1    H8 4451   1.863   6.864   6.491 -0.5059 -1.0353 -0.7199
   45CHL1   C14 4452   2.026   6.850   6.352  0.5919 -0.3007 -0.3850
   45CHL1   H14 4453   2.128   6.808   6.361  0.6619 -0.5431 -1.9390
   45CHL1   C15 4454   2.047   6.993   6.312 -0.1370  0.0917  0.2261
   45CHL1  H15A 4455   1.964   7.060   6.343  1.8163  2.0374  1.5623
   45CHL1  H15B 4456   2.132   7.032   6.372  0.2113 -0.9942  0.4549
   45CHL1   C16 4457   2.066   6.992   6.162 -0.9088  0.5412  0.2195
   45CHL1  H16A 4458   1.994   7.066   6.120 -3.5127 -1.3881  1.0580
   45CHL1  H16B 4459   2.174   7.002   6.138 -0.0225  0.6259  3.7049
   45CHL1   C17 4460   2.022   6.846   6.116  0.3269  0.4073 -0.3527
   45CHL1   H17 4461   2.119   6.791   6.114 -0.2429 -0.5967 -1.4640
   45CHL1   C13 4462   1.942   6.778   6.234 -0.1388  0.5382 -0.3060
   45CHL1   C18 4463   1.796   6.826   6.231 -0.3036 -0.3052  0.7597
   45CHL1  H18A 4464   1.783   6.936   6.222  0.2926 -0.3048 -0.2840
   45CHL1  H18B 4465   1.748   6.773   6.145  0.1680 -0.0548  0.3339
   45CHL1  H18C 4466   1.736   6.792   6.317  0.3972 -2.0388  0.6039
   45CHL1   C12 4467   1.958   6.629   6.266 -0.3270 -0.1789  0.2981
   45CHL1  H12A 4468   1.910   6.554   6.200 -0.4478  0.0111  0.1694
   45CHL1  H12B 4469   2.064   6.597   6.273 -0.0800  0.4559 -0.3795
   45CHL1   C11 4470   1.899   6.589   6.404  0.1553  0.4696  0.0237
   45CHL1  H11A 4471   1.790   6.610   6.393 -0.0354 -0.7314 -0.5844
   45CHL1  H11B 4472   1.908   6.480   6.425 -1.9081  0.3334  0.4745
   45CHL1    C9 4473   1.954   6.675   6.523 -0.2793 -0.1331 -0.1437
   45CHL1    H9 4474   2.059   6.638   6.529  0.5230  1.7636 -1.6306
   45CHL1   C10 4475   1.901   6.643   6.664 -0.8178 -0.3289  0.3266
   45CHL1   C19 4476   1.752   6.661   6.650 -0.0990  0.8950  0.0214
   45CHL1  H19A 4477   1.714   6.755   6.605 -0.9234 -0.1981 -1.6539
   45CHL1  H19B 4478   1.712   6.582   6.584 -1.4026  1.7089 -0.2008
   45CHL1  H19C 4479   1.703   6.653   6.749  1.6498 -2.9030  0.7540
   45CHL1    C1 4480   1.935   6.492   6.694  0.4731  0.0495  0.3613
   45CHL1   H1A 4481   1.877   6.426   6.625 -0.4225 -0.6363  1.7221
   45CHL1   H1B 4482   2.044   6.482   6.676  0.6029 -1.7117  1.8578
   45CHL1    C2 4483   1.905   6.457   6.843  1.3158  0.0566  0.2441
   45CHL1   H2A 4484   1.956   6.360   6.863 -0.6028 -0.9841  0.3423
   45CHL1   H2B 4485   1.795   6.456   6.855  0.9822 -2.4272 -2.2829
   45CHL1   C20 4486   1.950   6.833   5.978  0.2130  0.8320 -0.5015
   45CHL1   H20 4487   1.864   6.903   5.981  0.8834  1.7952 -2.4269
   45CHL1   C21 4488   1.905   6.678   5.952  0.7674  0.0272 -0.1268
   45CHL1  H21A 4489   1.815   6.639   6.003 -1.7219  2.2432 -2.4852
   45CHL1  H21B 4490   1.995   6.613   5.961 -0.6990 -2.5919 -2.6289
   45CHL1  H21C 4491   1.862   6.673   5.849  0.7542  1.9291 -0.2604
   45CHL1   C22 4492   2.045   6.865   5.862  0.1655  0.1956 -0.6954
   45CHL1  H22A 4493   2.121   6.938   5.896  0.6114 -0.4055 -0.3782
   45CHL1  H22B 4494   2.104   6.776   5.831 -1.6547 -0.9019 -1.1697
   45CHL1   C23 4495   1.961   6.910   5.744 -0.1702 -0.0613 -0.2667
   45CHL1  H23A 4496   1.900   6.833   5.691 -1.7029  1.3140 -0.6022
   45CHL1  H23B 4497   1.888   6.991   5.764 -0.8230 -0.3425 -1.3779
   45CHL1   C24 4498   2.066   6.971   5.635 -0.4466  0.0118 -0.2439
   45CHL1  H24A 4499   2.117   7.051   5.692 -2.2341 -1.6744  4.1426
   45CHL1  H24B 4500   2.133   6.892   5.594 -0.4272  0.3010 -0.7836
   45CHL1   C25 4501   1.995   7.041   5.518  0.3484 -0.0985 -0.0836
   45CHL1   H25 4502   1.906   7.099   5.549 -0.1459 -1.4640  1.1554
   45CHL1   C26 4503   2.087   7.120   5.430 -0.2026  0.4851 -0.1024
   45CHL1  H26A 4504   2.039   7.182   5.352 -0.9460 -0.3045 -0.2923
   45CHL1  H26B 4505   2.152   7.180   5.497  1.0398 -1.7336  0.8226
   45CHL1  H26C 4506   2.162   7.056   5.379  0.4531 -0.4899  1.9496
   45CHL1   C27 4507   1.938   6.926   5.428  0.0165 -0.2935 -1.0473
   45CHL1  H27A 4508   1.854   6.878   5.483  0.2952  1.3164  0.9043
   45CHL1  H27B 4509   1.894   6.970   5.335 -0.5430 -1.5656 -1.4029
   45CHL1  H27C 4510   2.008   6.844   5.405 -0.0571 -0.0658 -2.1718
   46CHL1    C3 4511   5.608   4.863   6.726  0.4306 -0.1219  0.0065
   46CHL1    H3 4512   5.695   4.832   6.664 -0.4904 -0.6364 -1.0694
   46CHL1    O3 4513   5.638   4.816   6.861 -0.5567  0.1617 -0.5549
   46CHL1   H3' 4514   5.563   4.849   6.911  1.4800  0.4737  2.6000
   46CHL1    C4 4515   5.595   5.016   6.720  0.1277  0.0433  0.2803
   46CHL1   H4A 4516   5.517   5.050   6.791 -0.1090  1.1397 -0.4687
   46CHL1   H4B 4517   5.689   5.061   6.760 -0.2667 -1.4266  3.1027
   46CHL1    C5 4518   5.568   5.058   6.571 -0.0198  0.2084 -0.1912
   46CHL1    C6 4519   5.645   5.147   6.519  0.3827 -0.8448  0.0604
   46CHL1    H6 4520   5.730   5.183   6.578 -0.1377 -2.3811  1.8336
   46CHL1    C7 4521   5.628   5.210   6.384  0.2921  0.1670 -0.0839
   46CHL1   H7A 4522   5.643   5.320   6.391  0.0176  0.1478  0.9238
   46CHL1   H7B 4523   5.714   5.181   6.319 -0.1674  2.6926 -1.9700
   46CHL1    C8 4524   5.495   5.171   6.310  0.0248  0.1815 -0.5837
   46CHL1    H8 4525   5.426   5.243   6.360  1.2831  0.1539  1.2767
   46CHL1   C14 4526   5.509   5.177   6.157  0.5065 -0.1842 -0.9114
   46CHL1   H14 4527   5.583   5.094   6.145  0.2871 -0.8696  1.7381
   46CHL1   C15 4528   5.585   5.298   6.100  0.4804  0.4690 -0.0442
   46CHL1  H15A 4529   5.533   5.389   6.136 -3.0226 -1.0154 -0.9529
   46CHL1  H15B 4530   5.693   5.282   6.120 -0.0240 -2.9385  0.4954
   46CHL1   C16 4531   5.540   5.286   5.954 -0.2832 -0.1162  0.3696
   46CHL1  H16A 4532   5.501   5.385   5.922  1.0329  0.2690 -0.1268
   46CHL1  H16B 4533   5.626   5.262   5.888 -2.0940 -4.1313 -0.8380
   46CHL1   C17 4534   5.441   5.172   5.941  0.2783  0.2344 -0.6299
   46CHL1   H17 4535   5.509   5.088   5.912 -0.1853  0.0025 -1.0529
   46CHL1   C13 4536   5.388   5.148   6.080 -0.1648  0.0748 -0.0547
   46CHL1   C18 4537   5.281   5.258   6.104  0.0508  0.5569 -0.2176
   46CHL1  H18A 4538   5.305   5.352   6.049  0.3463 -0.4008 -1.7918
   46CHL1  H18B 4539   5.182   5.219   6.075  0.5013  0.0421 -1.1013
   46CHL1  H18C 4540   5.271   5.294   6.209 -2.0927  2.2985 -0.9295
   46CHL1   C12 4541   5.338   5.006   6.116  0.1441 -0.0887  0.7214
   46CHL1  H12A 4542   5.245   4.976   6.063  1.2923 -0.7434 -1.0243
   46CHL1  H12B 4543   5.409   4.927   6.082  0.3159  0.1058  0.6248
   46CHL1   C11 4544   5.318   4.989   6.270 -0.0379 -0.6998  0.5825
   46CHL1  H11A 4545   5.240   5.057   6.310  0.2991  1.0582 -1.5351
   46CHL1  H11B 4546   5.275   4.890   6.294 -2.9629  0.1107 -0.8712
   46CHL1    C9 4547   5.453   5.027   6.343 -0.8102  0.0984  0.2499
   46CHL1    H9 4548   5.539   4.966   6.308  0.6664  0.8934  2.2846
   46CHL1   C10 4549   5.451   4.996   6.500  0.0346  1.1944  1.2325
   46CHL1   C19 4550   5.311   5.037   6.561 -0.2674 -0.3012 -0.1286
   46CHL1  H19A 4551   5.278   5.134   6.519  1.3787  0.1093 -0.5517
   46CHL1  H19B 4552   5.230   4.962   6.545  0.0865 -0.2912 -2.1703
   46CHL1  H19C 4553   5.313   5.053   6.671 -1.9404 -0.8917  0.0086
   46CHL1    C1 4554   5.462   4.843   6.522  0.1230  0.0581 -0.6723
   46CHL1   H1A 4555   5.371   4.792   6.485 -0.6984 -1.0735  2.6251
   46CHL1   H1B 4556   5.543   4.787   6.469 -1.7009 -2.1086 -1.3388
   46CHL1    C2 4557   5.477   4.802   6.671  0.0395  0.1009  0.0501
   46CHL1   H2A 4558   5.471   4.693   6.691  0.1143 -0.1604 -1.2254
   46CHL1   H2B 4559   5.402   4.846   6.740  0.4302  0.4899  0.2315
   46CHL1   C20 4560   5.340   5.200   5.831  0.0152  0.0794  0.4104
   46CHL1   H20 4561   5.264   5.279   5.852 -1.3829 -0.7972 -1.0999
   46CHL1   C21 4562   5.245   5.076   5.811  0.2687 -0.2056 -0.0774
   46CHL1  H21A 4563   5.183   5.088   5.720 -2.4165 -0.9371  1.5118
   46CHL1  H21B 4564   5.168   5.070   5.891 -0.8829 -3.0912 -1.2646
   46CHL1  H21C 4565   5.301   4.980   5.814 -0.7781 -0.8736 -1.1615
   46CHL1   C22 4566   5.409   5.231   5.701 -0.4767  0.1476 -0.7703
   46CHL1  H22A 4567   5.327   5.267   5.636  0.1641  0.9758 -1.1362
   46CHL1  H22B 4568   5.479   5.317   5.710 -1.6989  1.2120 -1.1699
   46CHL1   C23 4569   5.503   5.122   5.642  0.3539  0.3825  0.9761
   46CHL1  H23A 4570   5.591   5.117   5.709  0.2769  2.5109  1.3128
   46CHL1  H23B 4571   5.444   5.028   5.638  0.6562  0.2022  0.7339
   46CHL1   C24 4572   5.552   5.167   5.497  0.4449  0.6590 -0.1032
   46CHL1  H24A 4573   5.623   5.252   5.505  1.0213  0.1047  0.9863
   46CHL1  H24B 4574   5.609   5.080   5.457 -1.4704 -1.5622  1.6758
   46CHL1   C25 4575   5.450   5.211   5.391  0.5687  0.1364  0.0949
   46CHL1   H25 4576   5.385   5.286   5.440  1.2311 -0.6091  2.1891
   46CHL1   C26 4577   5.522   5.275   5.271 -0.2073  0.6382  0.5598
   46CHL1  H26A 4578   5.567   5.374   5.295 -0.4061  0.8241  0.1730
   46CHL1  H26B 4579   5.609   5.216   5.237 -2.1929 -2.7287  0.8993
   46CHL1  H26C 4580   5.446   5.289   5.191  0.6120  2.3763  0.0205
   46CHL1   C27 4581   5.353   5.097   5.349 -0.2667  0.2728 -0.0570
   46CHL1  H27A 4582   5.291   5.060   5.432 -0.5631  1.8968  0.4822
   46CHL1  H27B 4583   5.287   5.135   5.268  0.8219  0.6722 -0.7975
   46CHL1  H27C 4584   5.418   5.016   5.309 -1.5692 -2.0735  2.3216
   47CHL1    C3 4585   6.860   3.645   6.873 -0.1524  0.0538 -0.4001
   47CHL1    H3 4586   6.882   3.749   6.839 -2.6632  0.4793 -0.9052
   47CHL1    O3 4587   6.811   3.646   7.000  0.0554  0.2856 -0.1594
   47CHL1   H3' 4588   6.729   3.696   7.002 -0.4695 -0.5667  0.9922
   47CHL1    C4 4589   6.748   3.610   6.774  0.2492  0.1714  0.0379
   47CHL1   H4A 4590   6.719   3.504   6.794  0.1876  0.0921 -0.4556
   47CHL1   H4B 4591   6.660   3.676   6.790  1.7092  2.1387  0.2968
   47CHL1    C5 4592   6.793   3.614   6.629 -0.5868  0.9088  0.4336
   47CHL1    C6 4593   6.745   3.696   6.537 -0.2303 -0.8758 -0.4825
   47CHL1    H6 4594   6.673   3.771   6.573  0.4111 -1.0161  1.1847
   47CHL1    C7 4595   6.785   3.696   6.393 -0.3470  0.3377 -0.6456
   47CHL1   H7A 4596   6.694   3.690   6.329  0.0934  1.4443 -1.4197
   47CHL1   H7B 4597   6.828   3.798   6.376 -1.2417  1.0453  1.1365
   47CHL1    C8 4598   6.872   3.578   6.354 -0.3103 -0.6216  0.3168
   47CHL1    H8 4599   6.815   3.485   6.332 -1.8152  0.3694 -0.0552
   47CHL1   C14 4600   6.945   3.621   6.229 -0.1900 -0.0650 -0.2888
   47CHL1   H14 4601   7.015   3.701   6.263  0.6691 -1.0379  0.2634
   47CHL1   C15 4602   6.860   3.683   6.120  0.3656  0.4760 -0.7651
   47CHL1  H15A 4603   6.767   3.623   6.112 -1.1235  2.1961  1.9610
   47CHL1  H15B 4604   6.830   3.789   6.134  0.1544  0.6393 -2.3611
   47CHL1   C16 4605   6.955   3.674   6.000 -0.1104  0.9673 -0.1884
   47CHL1  H16A 4606   6.900   3.620   5.920 -1.6552  0.5180  1.1161
   47CHL1  H16B 4607   6.980   3.777   5.965  2.2230 -0.4381 -3.0627
   47CHL1   C17 4608   7.068   3.580   6.036 -1.1202 -0.0520 -0.4591
   47CHL1   H17 4609   7.145   3.650   6.075 -0.1221 -0.1918 -2.0725
   47CHL1   C13 4610   7.017   3.507   6.158  0.2315 -0.0950  0.7119
   47CHL1   C18 4611   6.921   3.398   6.100  0.0319  0.2869 -0.2331
   47CHL1  H18A 4612   6.872   3.340   6.182 -0.0472  1.7206  0.7585
   47CHL1  H18B 4613   6.847   3.435   6.026  0.2560  0.4876 -0.3583
   47CHL1  H18C 4614   6.983   3.321   6.050  0.0224  0.8618 -1.1608
   47CHL1   C12 4615   7.115   3.445   6.261 -0.0815 -0.4350  0.7382
   47CHL1  H12A 4616   7.177   3.362   6.221 -1.9086 -1.0743 -0.8739
   47CHL1  H12B 4617   7.189   3.527   6.279 -1.2903  1.4062 -1.9946
   47CHL1   C11 4618   7.052   3.420   6.401 -0.1096  0.0696 -0.4821
   47CHL1  H11A 4619   6.988   3.329   6.401  1.4455 -1.1178 -2.1588
   47CHL1  H11B 4620   7.142   3.403   6.464  0.0279 -2.8621 -1.3187
   47CHL1    C9 4621   6.972   3.536   6.457 -0.1188  0.0336 -0.3230
   47CHL1    H9 4622   7.043   3.622   6.462 -0.3958  0.3758 -1.8349
   47CHL1   C10 4623   6.905   3.513   6.598  0.2062  0.2760  0.0124
   47CHL1   C19 4624   6.840   3.374   6.601  0.4240 -0.5939  0.0268
   47CHL1  H19A 4625   6.901   3.283   6.580  1.7849  0.0582  1.0074
   47CHL1  H19B 4626   6.785   3.355   6.695  1.9728  1.1346  1.3582
   47CHL1  H19C 4627   6.757   3.377   6.527 -0.4277  0.9536  1.0052
   47CHL1    C1 4628   7.016   3.532   6.706  0.1488 -0.7490 -0.1779
   47CHL1   H1A 4629   7.097   3.456   6.700  0.3575 -0.4212 -1.9487
   47CHL1   H1B 4630   7.069   3.625   6.678  0.9149 -1.0769  0.1275
   47CHL1    C2 4631   6.972   3.550   6.860  0.1151  1.4703 -0.5074
   47CHL1   H2A 4632   7.068   3.587   6.902  1.8689 -1.7212 -1.2956
   47CHL1   H2B 4633   6.947   3.448   6.898 -2.4196  3.4465  3.7785
   47CHL1   C20 4634   7.114   3.496   5.911  0.1147  0.1373 -0.6917
   47CHL1   H20 4635   7.030   3.432   5.876 -0.3760 -1.1627  2.4943
   47CHL1   C21 4636   7.234   3.398   5.936  0.5605 -0.3742 -0.0878
   47CHL1  H21A 4637   7.273   3.353   5.842 -1.8896 -0.2132 -1.2644
   47CHL1  H21B 4638   7.188   3.318   5.998 -0.8228 -0.2124 -0.8680
   47CHL1  H21C 4639   7.315   3.448   5.995  0.9400  0.4737 -1.2876
   47CHL1   C22 4640   7.145   3.585   5.788 -1.3148  0.1240 -0.3896
   47CHL1  H22A 4641   7.158   3.512   5.705 -0.8605 -1.9203  1.3697
   47CHL1  H22B 4642   7.060   3.653   5.766  0.4479  3.0289  1.2535
   47CHL1   C23 4643   7.265   3.689   5.797  0.2082  0.9225  0.0148
   47CHL1  H23A 4644   7.228   3.751   5.881  1.8525  1.7272  0.1749
   47CHL1  H23B 4645   7.361   3.642   5.826  0.0280  2.0485  2.7324
   47CHL1   C24 4646   7.274   3.767   5.669  0.3665 -0.2377  0.3995
   47CHL1  H24A 4647   7.316   3.698   5.592 -1.1584 -1.4634  0.6089
   47CHL1  H24B 4648   7.170   3.784   5.634  0.2616  1.5714  1.4790
   47CHL1   C25 4649   7.355   3.897   5.656  0.0065  0.0400 -0.4704
   47CHL1   H25 4650   7.297   3.979   5.704 -5.9134 -2.4207 -2.4649
   47CHL1   C26 4651   7.499   3.891   5.708 -0.4203  0.2991  0.1476
   47CHL1  H26A 4652   7.549   3.991   5.707  3.1417 -1.2424  2.7440
   47CHL1  H26B 4653   7.505   3.853   5.812 -2.8853 -0.8413 -0.0605
   47CHL1  H26C 4654   7.549   3.819   5.639 -1.1610  0.2364 -0.3393
   47CHL1   C27 4655   7.347   3.949   5.517  0.2288  0.1605  0.0446
   47CHL1  H27A 4656   7.378   3.872   5.443  0.5440  0.1449  0.1911
   47CHL1  H27B 4657   7.248   3.995   5.495 -0.5058 -1.5113 -0.2630
   47CHL1  H27C 4658   7.431   4.021   5.502  0.9971 -0.8571 -0.7113
   48CHL1    C3 4659   2.983   2.477   6.542  0.2294 -0.0324 -0.6644
   48CHL1    H3 4660   2.941   2.375   6.543 -1.7921  0.7377  0.7403
   48CHL1    O3 4661   3.020   2.526   6.671  0.6655 -0.5546 -0.2134
   48CHL1   H3' 4662   3.078   2.602   6.658  0.0741 -0.2666 -1.2339
   48CHL1    C4 4663   3.109   2.489   6.455  0.0556  0.0277  0.3616
   48CHL1   H4A 4664   3.162   2.587   6.457  3.0921 -1.4974  2.2935
   48CHL1   H4B 4665   3.183   2.426   6.508  0.0465  0.8183  1.3378
   48CHL1    C5 4666   3.078   2.454   6.310 -0.4462  0.2523 -0.2927
   48CHL1    C6 4667   3.159   2.368   6.254 -0.3533  0.5279 -0.3272
   48CHL1    H6 4668   3.235   2.325   6.320 -0.6608  2.1460  1.1440
   48CHL1    C7 4669   3.142   2.311   6.115 -0.2512 -0.9134  0.9223
   48CHL1   H7A 4670   3.229   2.282   6.053 -0.8788  1.2452 -1.1320
   48CHL1   H7B 4671   3.093   2.213   6.132 -2.1697 -0.2318 -0.3826
   48CHL1    C8 4672   3.046   2.408   6.033  0.1990 -0.8646  0.4395
   48CHL1    H8 4673   3.102   2.501   6.013 -2.3487  0.7495  0.2732
   48CHL1   C14 4674   3.003   2.342   5.903  0.7648 -0.7072  0.0018
   48CHL1   H14 4675   2.953   2.248   5.934 -1.2911 -0.0524 -1.1138
   48CHL1   C15 4676   3.112   2.310   5.806  0.1519  0.0028  0.5802
   48CHL1  H15A 4677   3.190   2.389   5.807  2.6306 -2.2471 -1.4606
   48CHL1  H15B 4678   3.173   2.223   5.838  2.2874  1.2846  0.1824
   48CHL1   C16 4679   3.036   2.279   5.675  0.0034 -0.1886 -0.2178
   48CHL1  H16A 4680   3.091   2.340   5.599  0.7087 -1.1549 -0.4972
   48CHL1  H16B 4681   3.043   2.170   5.655 -0.9975 -0.2359 -0.3592
   48CHL1   C17 4682   2.888   2.328   5.692  0.8316 -0.6136 -0.1266
   48CHL1   H17 4683   2.823   2.241   5.713 -1.6785  1.1253 -0.2755
   48CHL1   C13 4684   2.892   2.419   5.818 -0.2036  0.3403 -0.3875
   48CHL1   C18 4685   2.950   2.556   5.783  0.6043  0.6196  0.5761
   48CHL1  H18A 4686   2.877   2.618   5.727  0.8128 -1.2046 -1.8777
   48CHL1  H18B 4687   2.984   2.608   5.875  0.6187  0.3221  0.7405
   48CHL1  H18C 4688   3.036   2.556   5.713 -0.6917 -1.6676 -1.1440
   48CHL1   C12 4689   2.766   2.428   5.906 -0.2496 -0.0586  0.6125
   48CHL1  H12A 4690   2.687   2.478   5.847  2.2078  1.7211 -1.3614
   48CHL1  H12B 4691   2.730   2.326   5.929  0.7862 -0.9276 -1.3837
   48CHL1   C11 4692   2.802   2.494   6.046  0.1336 -0.4285 -0.6153
   48CHL1  H11A 4693   2.812   2.605   6.045  1.5991 -0.5462 -0.3392
   48CHL1  H11B 4694   2.707   2.469   6.098 -0.7854  1.4168 -1.3079
   48CHL1    C9 4695   2.923   2.440   6.116  0.3420 -0.4509 -0.0546
   48CHL1    H9 4696   2.881   2.343   6.149 -1.6605 -0.1980 -1.6678
   48CHL1   C10 4697   2.960   2.521   6.244  0.7222 -0.0156  0.1837
   48CHL1   C19 4698   3.003   2.668   6.202 -0.0902 -0.4599  0.2871
   48CHL1  H19A 4699   3.072   2.684   6.116 -1.3506  1.1567 -0.5064
   48CHL1  H19B 4700   2.908   2.721   6.177  0.8093  1.0344 -0.1508
   48CHL1  H19C 4701   3.036   2.725   6.291 -1.6403  2.1420 -0.6734
   48CHL1    C1 4702   2.839   2.518   6.345  0.0255  0.7749  0.8510
   48CHL1   H1A 4703   2.749   2.569   6.303  0.9837  1.4123 -0.4724
   48CHL1   H1B 4704   2.807   2.412   6.357 -0.4173  0.9421  1.1995
   48CHL1    C2 4705   2.875   2.564   6.482 -0.7332  0.0997 -0.3574
   48CHL1   H2A 4706   2.789   2.542   6.548  0.8576  1.0364  2.2055
   48CHL1   H2B 4707   2.899   2.673   6.484 -3.6049  0.8119  1.5794
   48CHL1   C20 4708   2.827   2.380   5.558 -0.6803 -0.2306  0.0439
   48CHL1   H20 4709   2.874   2.475   5.522 -2.5785  0.7723  0.0860
   48CHL1   C21 4710   2.683   2.423   5.589  0.1494  0.3473  0.2244
   48CHL1  H21A 4711   2.677   2.511   5.656 -1.4074  0.6807 -0.3213
   48CHL1  H21B 4712   2.634   2.463   5.498  0.3043  1.4657  0.6285
   48CHL1  H21C 4713   2.619   2.342   5.632  3.0636 -1.5664  1.2953
   48CHL1   C22 4714   2.844   2.280   5.445  0.0787  0.0054 -0.7181
   48CHL1  H22A 4715   2.950   2.258   5.420  0.7470  1.6488  0.4716
   48CHL1  H22B 4716   2.797   2.187   5.482  0.7108  0.7910  2.2571
   48CHL1   C23 4717   2.769   2.311   5.313  0.0078 -0.1121 -0.7726
   48CHL1  H23A 4718   2.790   2.229   5.241 -0.1695 -0.4664 -0.4294
   48CHL1  H23B 4719   2.660   2.308   5.332  0.3595 -1.7513  1.4447
   48CHL1   C24 4720   2.812   2.440   5.245 -0.4825 -0.4986  0.0744
   48CHL1  H24A 4721   2.795   2.533   5.304  1.5645 -0.0322 -0.0100
   48CHL1  H24B 4722   2.920   2.438   5.220 -0.2409  0.5635  0.9436
   48CHL1   C25 4723   2.745   2.459   5.105 -0.2277 -0.8069  0.4552
   48CHL1   H25 4724   2.774   2.373   5.041 -1.3958  0.0863 -1.3596
   48CHL1   C26 4725   2.589   2.457   5.098 -0.4208 -0.6219  0.0627
   48CHL1  H26A 4726   2.549   2.473   4.996 -0.6135  0.8729  0.3482
   48CHL1  H26B 4727   2.563   2.352   5.122  2.0022 -1.0248  1.2582
   48CHL1  H26C 4728   2.544   2.522   5.176 -0.5530 -1.1075  0.3919
   48CHL1   C27 4729   2.803   2.591   5.043 -0.9513 -0.1464 -0.2029
   48CHL1  H27A 4730   2.913   2.590   5.056 -0.9440  1.4322 -0.0101
   48CHL1  H27B 4731   2.781   2.592   4.934  0.2489 -1.8080 -0.5062
   48CHL1  H27C 4732   2.763   2.679   5.098 -1.5708 -0.3379 -0.3396
   49CHL1    C3 4733   1.703   3.427   3.904  0.2181 -0.3839 -1.2846
   49CHL1    H3 4734   1.608   3.391   3.948  1.5475  0.9391  3.2292
   49CHL1    O3 4735   1.683   3.442   3.766  0.3507  0.0772  0.1834
   49CHL1   H3' 4736   1.627   3.519   3.758 -1.6264 -1.3511 -0.6527
   49CHL1    C4 4737   1.746   3.563   3.958 -0.0570 -0.5025 -0.2510
   49CHL1   H4A 4738   1.841   3.599   3.913 -0.3687  3.0520  1.5109
   49CHL1   H4B 4739   1.663   3.632   3.931  2.4131  3.5789  1.5208
   49CHL1    C5 4740   1.767   3.551   4.111  0.2334 -0.3056 -0.2951
   49CHL1    C6 4741   1.693   3.624   4.196 -0.0818  1.1805 -0.1264
   49CHL1    H6 4742   1.621   3.694   4.152 -0.7529  0.2787 -0.5061
   49CHL1    C7 4743   1.711   3.618   4.340  0.7947  0.3450 -0.6404
   49CHL1   H7A 4744   1.715   3.722   4.380  1.3479 -0.5072  1.6642
   49CHL1   H7B 4745   1.622   3.584   4.396 -0.1352 -0.5953 -2.6144
   49CHL1    C8 4746   1.832   3.527   4.400 -0.2314 -0.8149  0.1502
   49CHL1    H8 4747   1.926   3.587   4.399  0.5987 -2.0177 -2.1381
   49CHL1   C14 4748   1.805   3.488   4.540  0.2681  0.6882  0.4526
   49CHL1   H14 4749   1.719   3.420   4.528  0.5389 -0.1079  2.5501
   49CHL1   C15 4750   1.753   3.588   4.645  0.1867  0.5047 -0.4168
   49CHL1  H15A 4751   1.804   3.687   4.645  0.3865  0.4557  1.5473
   49CHL1  H15B 4752   1.647   3.607   4.618 -0.0228 -0.3451 -0.2075
   49CHL1   C16 4753   1.769   3.522   4.781 -0.6475 -0.2033 -0.0176
   49CHL1  H16A 4754   1.819   3.588   4.855 -1.3060  1.6496 -1.1683
   49CHL1  H16B 4755   1.669   3.491   4.819 -0.0829 -0.8707  0.9654
   49CHL1   C17 4756   1.848   3.392   4.750  0.4820 -1.6803  0.3530
   49CHL1   H17 4757   1.761   3.324   4.733  0.0275 -0.7883 -0.9971
   49CHL1   C13 4758   1.915   3.410   4.611 -0.2251 -0.5428 -0.0530
   49CHL1   C18 4759   2.041   3.484   4.637  0.2327 -0.6609  0.8065
   49CHL1  H18A 4760   2.100   3.515   4.548  1.0798 -3.3534  0.3542
   49CHL1  H18B 4761   2.027   3.566   4.711  0.2827 -0.5972  0.7449
   49CHL1  H18C 4762   2.117   3.418   4.683  1.4838 -0.6623 -1.1512
   49CHL1   C12 4763   1.930   3.285   4.525 -0.4490 -0.1026  0.3462
   49CHL1  H12A 4764   2.013   3.224   4.568  0.0044  0.0485 -0.3007
   49CHL1  H12B 4765   1.840   3.220   4.533  0.5762 -1.3743  3.4146
   49CHL1   C11 4766   1.958   3.313   4.378  0.6184  0.0535  0.7649
   49CHL1  H11A 4767   2.062   3.348   4.368  1.1955 -1.5237  0.8958
   49CHL1  H11B 4768   1.940   3.215   4.328 -0.1160  0.9102 -0.7320
   49CHL1    C9 4769   1.853   3.409   4.310 -0.3972  0.4448  0.2251
   49CHL1    H9 4770   1.758   3.352   4.314 -0.6235  0.5978 -1.8366
   49CHL1   C10 4771   1.871   3.452   4.156 -0.4425  0.7162 -0.0625
   49CHL1   C19 4772   2.002   3.526   4.128  0.4108 -0.2063  0.5085
   49CHL1  H19A 4773   2.098   3.477   4.156  2.4191  2.3179 -1.4757
   49CHL1  H19B 4774   2.013   3.556   4.022  0.0342  1.0056  0.7965
   49CHL1  H19C 4775   2.011   3.620   4.187  3.0121  0.3200 -0.6211
   49CHL1    C1 4776   1.853   3.315   4.077 -0.9810  0.0370 -0.0744
   49CHL1   H1A 4777   1.947   3.256   4.070  0.3486  1.9344  0.8967
   49CHL1   H1B 4778   1.767   3.262   4.124 -3.6712  2.1814 -2.2042
   49CHL1    C2 4779   1.814   3.327   3.931 -0.5179 -0.6252  1.1252
   49CHL1   H2A 4780   1.787   3.223   3.904 -0.5106 -0.2315 -0.5200
   49CHL1   H2B 4781   1.900   3.373   3.878 -1.9028  0.3355 -0.3965
   49CHL1   C20 4782   1.921   3.339   4.873  0.2954 -0.5076 -0.1017
   49CHL1   H20 4783   2.014   3.396   4.894 -1.8504  1.9017  4.2210
   49CHL1   C21 4784   1.967   3.190   4.846  0.5793  0.0631  0.7033
   49CHL1  H21A 4785   1.878   3.135   4.806 -0.1067  1.4576  0.2645
   49CHL1  H21B 4786   2.008   3.139   4.936  2.5341 -0.1176 -0.2438
   49CHL1  H21C 4787   2.046   3.194   4.768  1.7688  4.4980  1.8904
   49CHL1   C22 4788   1.836   3.345   5.006 -0.2524 -0.1834  0.1929
   49CHL1  H22A 4789   1.906   3.295   5.076 -0.7407  0.1619  0.9434
   49CHL1  H22B 4790   1.823   3.451   5.038  1.2359  0.5991 -1.6116
   49CHL1   C23 4791   1.710   3.256   5.009 -0.1372 -0.0761 -1.0957
   49CHL1  H23A 4792   1.636   3.280   4.929 -3.4150 -1.8009  1.1867
   49CHL1  H23B 4793   1.743   3.150   4.996  0.3687 -0.0309 -0.2333
   49CHL1   C24 4794   1.626   3.281   5.138 -0.0660 -0.8851 -0.5276
   49CHL1  H24A 4795   1.560   3.194   5.160  0.4238 -1.1437 -0.0639
   49CHL1  H24B 4796   1.701   3.282   5.220 -0.6588  1.7618  0.0841
   49CHL1   C25 4797   1.552   3.422   5.144 -0.5362  0.1185  0.0381
   49CHL1   H25 4798   1.624   3.506   5.135  0.3646 -0.5953  0.4100
   49CHL1   C26 4799   1.451   3.441   5.035  1.1698  0.8144  0.4679
   49CHL1  H26A 4800   1.384   3.354   5.019 -0.0841  1.8205  0.0033
   49CHL1  H26B 4801   1.372   3.517   5.055 -1.2600 -1.5820  0.5274
   49CHL1  H26C 4802   1.495   3.457   4.934 -0.9550 -0.9281 -0.8332
   49CHL1   C27 4803   1.488   3.438   5.284 -0.3091  0.5264 -0.4512
   49CHL1  H27A 4804   1.450   3.541   5.299 -0.3076  0.0892  3.8234
   49CHL1  H27B 4805   1.404   3.369   5.310  0.9426 -1.6568 -1.9021
   49CHL1  H27C 4806   1.564   3.426   5.364 -2.9668 -1.2510  2.0233
   50CHL1    C3 4807   0.100   3.144   3.633 -0.2174 -0.1062  0.1971
   50CHL1    H3 4808   0.030   3.065   3.668 -0.5643 -1.0503 -2.3987
   50CHL1    O3 4809   0.049   3.180   3.505 -0.0446 -0.0205 -0.1736
   50CHL1   H3' 4810   0.110   3.241   3.464 -2.0724  1.2071 -1.5542
   50CHL1    C4 4811   0.094   3.273   3.718 -0.1353 -0.6086 -0.6201
   50CHL1   H4A 4812   0.161   3.351   3.676  0.4150 -0.8098 -0.1314
   50CHL1   H4B 4813  -0.013   3.300   3.721 -0.3478 -1.4802  0.6538
   50CHL1    C5 4814   0.154   3.260   3.856 -0.7080  0.0571 -0.3473
   50CHL1    C6 4815   0.088   3.283   3.973 -0.0675 -0.0798 -0.6008
   50CHL1    H6 4816  -0.015   3.323   3.972  0.5026  1.6507  1.5016
   50CHL1    C7 4817   0.139   3.257   4.111  0.4539 -0.2199 -0.3157
   50CHL1   H7A 4818   0.111   3.332   4.189  2.5041 -0.0242  0.3009
   50CHL1   H7B 4819   0.103   3.161   4.154  0.5904  0.2992  1.0106
   50CHL1    C8 4820   0.295   3.243   4.106  0.5237  0.3362 -0.5900
   50CHL1    H8 4821   0.340   3.343   4.089  0.9276  0.0955 -0.9830
   50CHL1   C14 4822   0.333   3.177   4.243 -0.3666 -0.3269  0.1452
   50CHL1   H14 4823   0.304   3.070   4.244  1.3477 -0.8202  1.8582
   50CHL1   C15 4824   0.268   3.223   4.372 -0.0846 -0.4761  0.0940
   50CHL1  H15A 4825   0.262   3.334   4.378 -0.7111 -0.4592 -0.6833
   50CHL1  H15B 4826   0.166   3.184   4.390 -0.6529  1.3094  0.9458
   50CHL1   C16 4827   0.358   3.183   4.489 -0.1579  0.1314 -0.8723
   50CHL1  H16A 4828   0.398   3.275   4.536 -0.9228  0.9765 -1.8279
   50CHL1  H16B 4829   0.301   3.119   4.560 -2.0976  3.6165  0.9348
   50CHL1   C17 4830   0.476   3.111   4.416 -0.2439 -0.5513 -0.1393
   50CHL1   H17 4831   0.437   3.007   4.407 -0.3141 -0.5760  0.4235
   50CHL1   C13 4832   0.485   3.173   4.273  0.1552  0.8037 -0.2062
   50CHL1   C18 4833   0.524   3.315   4.285 -0.3135 -0.3197  0.2128
   50CHL1  H18A 4834   0.632   3.306   4.308 -0.5415 -2.8532  0.5726
   50CHL1  H18B 4835   0.520   3.361   4.184  2.6138  0.3194  0.2931
   50CHL1  H18C 4836   0.490   3.382   4.367  1.0280 -0.1001  0.6114
   50CHL1   C12 4837   0.547   3.083   4.158  0.5382 -0.4056  0.2824
   50CHL1  H12A 4838   0.658   3.083   4.164  0.6273 -4.0972  1.5450
   50CHL1  H12B 4839   0.512   2.977   4.164 -2.5818  0.4347 -0.9302
   50CHL1   C11 4840   0.498   3.127   4.016 -0.5658 -0.2920  0.9146
   50CHL1  H11A 4841   0.551   3.222   3.990  0.1273 -0.5759  1.2677
   50CHL1  H11B 4842   0.538   3.053   3.944 -2.5257 -1.0959  0.5971
   50CHL1    C9 4843   0.345   3.153   4.001 -0.7647  0.6045  0.2904
   50CHL1    H9 4844   0.299   3.053   4.016 -0.2583  0.4513  0.8601
   50CHL1   C10 4845   0.298   3.199   3.858  0.7153 -0.5000  0.3389
   50CHL1   C19 4846   0.406   3.300   3.801  0.0911 -0.1580 -0.2321
   50CHL1  H19A 4847   0.421   3.377   3.880 -3.6815  0.5764 -0.0039
   50CHL1  H19B 4848   0.502   3.251   3.775  0.5708 -0.6870  2.2838
   50CHL1  H19C 4849   0.374   3.359   3.712 -0.6520  0.0758  0.1772
   50CHL1    C1 4850   0.293   3.078   3.767 -0.0546 -0.2990 -0.3131
   50CHL1   H1A 4851   0.398   3.044   3.762 -0.6173 -2.9685  2.6558
   50CHL1   H1B 4852   0.240   2.988   3.806  1.7525 -0.3956  2.2030
   50CHL1    C2 4853   0.245   3.101   3.627 -0.5069 -0.3133  0.0022
   50CHL1   H2A 4854   0.254   3.015   3.557 -1.8543 -0.7230  0.2975
   50CHL1   H2B 4855   0.296   3.189   3.585 -0.7462  0.5299  1.4113
   50CHL1   C20 4856   0.599   3.109   4.506  0.2833  0.5320 -0.6631
   50CHL1   H20 4857   0.637   3.212   4.524  1.2888  0.1948 -0.7654
   50CHL1   C21 4858   0.722   3.029   4.456  0.1136  0.4001  0.1276
   50CHL1  H21A 4859   0.690   2.926   4.426  1.1607 -0.2683  1.2402
   50CHL1  H21B 4860   0.801   3.012   4.531  0.4973 -2.4268 -0.7866
   50CHL1  H21C 4861   0.778   3.083   4.376  0.1478 -1.1551 -0.9520
   50CHL1   C22 4862   0.568   3.055   4.649 -0.8010  0.4685 -1.2680
   50CHL1  H22A 4863   0.475   3.099   4.691  0.2242  1.4203  0.1124
   50CHL1  H22B 4864   0.562   2.946   4.634  0.7168  0.1607  0.1354
   50CHL1   C23 4865   0.672   3.106   4.754  0.8267 -1.0514 -0.1992
   50CHL1  H23A 4866   0.675   3.031   4.836  1.9742  0.4123  1.1509
   50CHL1  H23B 4867   0.772   3.120   4.706  1.4365  0.7488  1.4683
   50CHL1   C24 4868   0.627   3.244   4.819  0.0228  0.3883 -0.3807
   50CHL1  H24A 4869   0.657   3.323   4.747 -0.1813  2.7672  1.9936
   50CHL1  H24B 4870   0.518   3.263   4.811 -0.1313 -0.6104 -0.7938
   50CHL1   C25 4871   0.684   3.269   4.958 -0.0574  0.6968 -0.0897
   50CHL1   H25 4872   0.785   3.225   4.965 -0.3748 -0.0433 -0.0414
   50CHL1   C26 4873   0.700   3.413   5.006  0.2538  1.7434  0.1629
   50CHL1  H26A 4874   0.747   3.481   4.932 -0.4526  1.2045 -0.8080
   50CHL1  H26B 4875   0.600   3.457   5.022 -0.4378 -0.0343  1.0637
   50CHL1  H26C 4876   0.775   3.406   5.087  0.7526 -0.3519 -0.4011
   50CHL1   C27 4877   0.595   3.203   5.069 -0.2222  1.3717 -0.3824
   50CHL1  H27A 4878   0.573   3.095   5.053  0.4684  1.5460 -2.8360
   50CHL1  H27B 4879   0.643   3.221   5.168 -0.2332 -2.3513  0.4610
   50CHL1  H27C 4880   0.495   3.249   5.087 -1.1394 -0.8908  0.7604
   51CHL1    C3 4881   6.372   0.404   3.777  0.4659  0.0122 -0.1669
   51CHL1    H3 4882   6.345   0.501   3.824  1.2847 -0.2936  0.9816
   51CHL1    O3 4883   6.352   0.405   3.636 -0.1478  0.5269  0.6229
   51CHL1   H3' 4884   6.436   0.414   3.590 -1.3410 -0.7276 -2.0324
   51CHL1    C4 4885   6.520   0.376   3.812  0.0090  0.3559 -0.0087
   51CHL1   H4A 4886   6.551   0.293   3.745 -1.4221 -0.0690 -0.1730
   51CHL1   H4B 4887   6.581   0.460   3.773 -0.9731  0.9984 -0.1815
   51CHL1    C5 4888   6.546   0.362   3.964 -0.0361 -0.2376  0.0764
   51CHL1    C6 4889   6.640   0.436   4.030 -0.8958 -0.1229 -0.0108
   51CHL1    H6 4890   6.709   0.499   3.971 -0.1215 -0.1817  0.8212
   51CHL1    C7 4891   6.664   0.436   4.185 -0.4819  0.7299  0.2626
   51CHL1   H7A 4892   6.771   0.424   4.213 -0.3528 -0.4399 -0.6464
   51CHL1   H7B 4893   6.630   0.536   4.219 -0.2928  1.1505 -0.7497
   51CHL1    C8 4894   6.590   0.317   4.246 -0.1359 -0.4788 -0.3187
   51CHL1    H8 4895   6.649   0.226   4.222 -0.7826 -0.9400 -0.1685
   51CHL1   C14 4896   6.578   0.340   4.398 -0.0724 -0.3754  0.4359
   51CHL1   H14 4897   6.506   0.423   4.414 -0.4115 -0.4265 -0.7681
   51CHL1   C15 4898   6.709   0.382   4.479 -0.1645 -0.3828 -0.7701
   51CHL1  H15A 4899   6.792   0.323   4.435  0.9273 -1.2340  2.2223
   51CHL1  H15B 4900   6.724   0.492   4.465  0.0988 -0.3508 -0.2577
   51CHL1   C16 4901   6.675   0.348   4.628 -0.2043 -0.0196 -0.2665
   51CHL1  H16A 4902   6.754   0.278   4.662 -1.5882 -1.7610 -0.4839
   51CHL1  H16B 4903   6.681   0.433   4.698  1.3152  0.3119 -0.7651
   51CHL1   C17 4904   6.541   0.282   4.625  0.4703  0.5206 -0.6367
   51CHL1   H17 4905   6.467   0.362   4.647 -0.1259 -0.3377  0.5724
   51CHL1   C13 4906   6.521   0.225   4.484  0.4515  0.1132 -0.4266
   51CHL1   C18 4907   6.608   0.101   4.465  0.4453  0.3149  0.0399
   51CHL1  H18A 4908   6.561   0.014   4.516 -1.1653  0.2238 -1.4707
   51CHL1  H18B 4909   6.619   0.085   4.355  3.4914  0.1781  0.2814
   51CHL1  H18C 4910   6.714   0.105   4.496  0.8922 -0.5697 -1.2738
   51CHL1   C12 4911   6.379   0.205   4.426  0.2803  0.0896  0.3602
   51CHL1  H12A 4912   6.332   0.112   4.464  2.9221 -1.7064 -0.5018
   51CHL1  H12B 4913   6.303   0.285   4.444 -3.1567 -2.1920 -2.6002
   51CHL1   C11 4914   6.386   0.185   4.274 -0.5333  0.0732  0.4101
   51CHL1  H11A 4915   6.434   0.088   4.249 -2.7265 -0.6678 -1.1520
   51CHL1  H11B 4916   6.283   0.163   4.241 -1.0328  0.8486  1.3824
   51CHL1    C9 4917   6.448   0.301   4.192 -0.0608 -0.2333  0.7824
   51CHL1    H9 4918   6.396   0.397   4.212  0.1874  0.5633 -1.9610
   51CHL1   C10 4919   6.450   0.271   4.040 -0.4966  0.2859 -0.0565
   51CHL1   C19 4920   6.503   0.128   4.017 -0.7310  0.4154 -0.7696
   51CHL1  H19A 4921   6.422   0.060   4.051 -0.1977  1.1589  2.2138
   51CHL1  H19B 4922   6.519   0.104   3.909 -0.1795 -1.5352 -0.2878
   51CHL1  H19C 4923   6.598   0.098   4.066 -0.0791  0.1722 -2.1187
   51CHL1    C1 4924   6.303   0.283   3.985  0.4343  0.7146  0.0142
   51CHL1   H1A 4925   6.232   0.208   4.027  1.0699  0.3787  0.5050
   51CHL1   H1B 4926   6.268   0.384   4.014 -4.1859  0.0050 -2.1244
   51CHL1    C2 4927   6.289   0.285   3.829 -0.6995  0.2320 -0.2869
   51CHL1   H2A 4928   6.183   0.293   3.796 -0.1351  2.1377 -1.7621
   51CHL1   H2B 4929   6.335   0.195   3.782  0.1595 -0.7138  2.1570
   51CHL1   C20 4930   6.516   0.180   4.752 -0.0607 -0.6015  0.8051
   51CHL1   H20 4931   6.589   0.096   4.749  1.3946  0.5343  2.5213
   51CHL1   C21 4932   6.376   0.116   4.738 -0.0341 -0.1538  0.3272
   51CHL1  H21A 4933   6.383   0.047   4.651 -0.6821 -0.5846  0.6115
   51CHL1  H21B 4934   6.303   0.197   4.715 -0.9864 -0.6600  1.4770
   51CHL1  H21C 4935   6.347   0.069   4.834  1.7022 -1.0147  0.4688
   51CHL1   C22 4936   6.533   0.255   4.882  0.0024 -0.3982  0.3030
   51CHL1  H22A 4937   6.616   0.328   4.888 -0.4189  0.2797 -1.5064
   51CHL1  H22B 4938   6.431   0.293   4.907  0.5172 -0.3816  2.5667
   51CHL1   C23 4939   6.576   0.164   4.997  0.0904  0.2494 -0.1467
   51CHL1  H23A 4940   6.537   0.189   5.098 -1.1882 -0.5348 -0.4238
   51CHL1  H23B 4941   6.521   0.071   4.969 -1.4458  1.3135 -0.8261
   51CHL1   C24 4942   6.730   0.134   4.999  0.6397  0.1269  0.5051
   51CHL1  H24A 4943   6.763   0.097   4.900 -0.2385  0.9223 -0.1040
   51CHL1  H24B 4944   6.779   0.232   5.016 -2.1830  2.0616 -1.5496
   51CHL1   C25 4945   6.760   0.025   5.107  0.6230 -0.2084  0.2269
   51CHL1   H25 4946   6.705   0.055   5.199  2.1379  3.9767 -0.0384
   51CHL1   C26 4947   6.721  -0.117   5.062 -0.3516  0.1465 -0.0272
   51CHL1  H26A 4948   6.610  -0.130   5.058 -0.1969 -1.4805  0.3571
   51CHL1  H26B 4949   6.772  -0.140   4.966  1.8827 -1.0754  1.3653
   51CHL1  H26C 4950   6.766  -0.190   5.133 -1.0356 -1.6640 -1.3708
   51CHL1   C27 4951   6.910   0.031   5.126 -0.0405  0.1059 -0.0943
   51CHL1  H27A 4952   6.948  -0.028   5.212 -1.9829  0.6550  1.2388
   51CHL1  H27B 4953   6.966  -0.003   5.037  2.1111 -2.0631  1.9297
   51CHL1  H27C 4954   6.956   0.131   5.144  1.7151 -0.5510 -0.7249
   52CHL1    C3 4955   5.691   2.283   3.720 -0.0430  0.0887 -0.2903
   52CHL1    H3 4956   5.762   2.368   3.704 -1.8990  1.5490 -1.2511
   52CHL1    O3 4957   5.622   2.263   3.601 -0.0708 -0.1370 -0.2288
   52CHL1   H3' 4958   5.680   2.214   3.541 -0.1370  0.8346 -1.1093
   52CHL1    C4 4959   5.772   2.163   3.778  0.3348 -0.3791  0.8139
   52CHL1   H4A 4960   5.714   2.069   3.770  1.0996 -0.7050 -3.3362
   52CHL1   H4B 4961   5.847   2.150   3.696 -1.3899  2.6668 -1.4908
   52CHL1    C5 4962   5.828   2.182   3.915 -0.4327  0.0258 -0.6838
   52CHL1    C6 4963   5.962   2.168   3.936 -0.4258 -0.8742 -0.8816
   52CHL1    H6 4964   6.033   2.136   3.858  0.7949 -1.5247  0.4486
   52CHL1    C7 4965   6.026   2.177   4.071 -0.2597 -0.0902  0.9413
   52CHL1   H7A 4966   6.096   2.091   4.075 -2.4713 -2.1197 -0.7189
   52CHL1   H7B 4967   6.084   2.272   4.063  0.3413 -0.5979 -1.7650
   52CHL1    C8 4968   5.929   2.187   4.188  0.0787  0.3583  0.3850
   52CHL1    H8 4969   5.897   2.083   4.208  0.2992  0.0875 -0.6267
   52CHL1   C14 4970   6.001   2.252   4.298  0.3481 -0.3773  0.6574
   52CHL1   H14 4971   6.017   2.359   4.272  0.6739  0.2561  3.1874
   52CHL1   C15 4972   6.138   2.196   4.339  0.3263  0.1402 -0.1803
   52CHL1  H15A 4973   6.138   2.085   4.332  0.3267  0.0320  1.2756
   52CHL1  H15B 4974   6.210   2.250   4.273  2.5962 -1.2864  1.0188
   52CHL1   C16 4975   6.152   2.229   4.488 -0.8148 -0.0305  1.0068
   52CHL1  H16A 4976   6.176   2.139   4.548  3.6620  0.5112  0.3954
   52CHL1  H16B 4977   6.241   2.295   4.488 -1.8904  1.4897  0.4846
   52CHL1   C17 4978   6.027   2.309   4.530 -0.6233  0.3321 -0.6047
   52CHL1   H17 4979   6.037   2.417   4.508  2.8020 -0.1779 -2.2852
   52CHL1   C13 4980   5.920   2.256   4.426  0.1038  0.3099  0.0091
   52CHL1   C18 4981   5.882   2.117   4.470  0.6118 -0.8980 -0.6186
   52CHL1  H18A 4982   5.808   2.115   4.552 -0.9702 -0.3045 -1.9635
   52CHL1  H18B 4983   5.829   2.062   4.389 -1.8258 -1.2704  1.1035
   52CHL1  H18C 4984   5.965   2.046   4.487 -0.9747 -2.7844 -0.3608
   52CHL1   C12 4985   5.791   2.344   4.407  0.0333 -0.3547 -0.3543
   52CHL1  H12A 4986   5.721   2.325   4.491  0.8413 -1.6695  0.0577
   52CHL1  H12B 4987   5.814   2.453   4.401  2.0732 -0.7631 -0.7764
   52CHL1   C11 4988   5.714   2.310   4.282  0.2076  0.0374  0.4493
   52CHL1  H11A 4989   5.661   2.214   4.298 -0.4717 -0.0420 -1.9122
   52CHL1  H11B 4990   5.628   2.376   4.257  0.6241  1.0460  1.5700
   52CHL1    C9 4991   5.803   2.272   4.153  0.3113  0.0202 -0.1768
   52CHL1    H9 4992   5.847   2.370   4.124 -0.0871 -0.0869 -1.1689
   52CHL1   C10 4993   5.727   2.237   4.023 -0.2049 -0.0542 -0.3950
   52CHL1   C19 4994   5.626   2.120   4.053  0.2729 -0.1493  0.1664
   52CHL1  H19A 4995   5.541   2.158   4.113  0.5981  1.2323 -0.2088
   52CHL1  H19B 4996   5.580   2.087   3.957  0.9857  2.4367 -1.1637
   52CHL1  H19C 4997   5.675   2.029   4.093  0.2286 -1.9960 -3.5084
   52CHL1    C1 4998   5.659   2.358   3.964  0.1300 -0.2631  0.2315
   52CHL1   H1A 4999   5.579   2.396   4.032  0.3523  1.0278 -0.2041
   52CHL1   H1B 5000   5.725   2.447   3.957  0.8099 -0.8768 -1.5487
   52CHL1    C2 5001   5.590   2.334   3.826  0.5993  0.5698  0.3514
   52CHL1   H2A 5002   5.561   2.433   3.784  0.2624  0.7675  1.0327
   52CHL1   H2B 5003   5.508   2.260   3.818  2.4657 -1.3844 -2.0070
   52CHL1   C20 5004   6.003   2.300   4.681 -0.8623  1.0461 -0.5219
   52CHL1   H20 5005   5.974   2.193   4.697  1.5843  0.5815  1.5024
   52CHL1   C21 5006   5.890   2.394   4.725  0.0800  0.1237 -0.2708
   52CHL1  H21A 5007   5.918   2.501   4.729  0.0172  0.1702 -1.0272
   52CHL1  H21B 5008   5.848   2.358   4.821  0.1624 -1.5990 -0.8428
   52CHL1  H21C 5009   5.797   2.385   4.664  0.4423  1.8096 -1.1169
   52CHL1   C22 5010   6.127   2.325   4.767 -0.1299  0.2395 -0.2606
   52CHL1  H22A 5011   6.216   2.278   4.720 -1.6927 -1.5489 -1.5728
   52CHL1  H22B 5012   6.153   2.433   4.765  2.1338 -0.2391  0.1737
   52CHL1   C23 5013   6.111   2.288   4.913 -0.5315 -0.2522  0.2898
   52CHL1  H23A 5014   6.028   2.357   4.940 -1.5742 -1.5572  0.4843
   52CHL1  H23B 5015   6.084   2.181   4.923  0.9338 -0.3904  4.3069
   52CHL1   C24 5016   6.241   2.323   4.992  0.7853  0.1561 -0.1328
   52CHL1  H24A 5017   6.326   2.267   4.947  1.0969  1.2130 -0.8833
   52CHL1  H24B 5018   6.266   2.431   4.984 -1.7925  0.8311  0.0655
   52CHL1   C25 5019   6.237   2.290   5.143 -0.4614  0.7242 -0.0656
   52CHL1   H25 5020   6.340   2.315   5.177  0.6977 -0.3400 -2.6038
   52CHL1   C26 5021   6.122   2.359   5.219  0.0103 -1.1076 -0.5968
   52CHL1  H26A 5022   6.133   2.470   5.221 -0.7395 -1.0363 -0.1512
   52CHL1  H26B 5023   6.020   2.336   5.182 -1.0070  0.7840  0.8506
   52CHL1  H26C 5024   6.107   2.336   5.326 -0.0062 -0.2327 -0.4021
   52CHL1   C27 5025   6.210   2.133   5.155  0.4973 -0.2549 -0.4085
   52CHL1  H27A 5026   6.100   2.126   5.151  0.4361 -0.3077  0.9736
   52CHL1  H27B 5027   6.265   2.071   5.081  0.2380 -1.2480  0.2086
   52CHL1  H27C 5028   6.245   2.087   5.250 -0.4508  1.7604  0.9816
   53CHL1    C3 5029   5.325   0.081   3.859  0.3061 -0.0715  0.2411
   53CHL1    H3 5030   5.393   0.167   3.876  0.0026 -0.0268  1.2817
   53CHL1    O3 5031   5.302   0.064   3.720 -0.0575 -0.1444 -0.3216
   53CHL1   H3' 5032   5.256  -0.020   3.711 -1.5146  0.6262 -0.3830
   53CHL1    C4 5033   5.398  -0.034   3.920  0.4922  0.1789 -0.3807
   53CHL1   H4A 5034   5.337  -0.126   3.908  1.7789 -0.9235  1.0600
   53CHL1   H4B 5035   5.493  -0.058   3.868  1.0121  0.7200  0.2886
   53CHL1    C5 5036   5.430  -0.010   4.067  0.2740  0.3435  0.3635
   53CHL1    C6 5037   5.561  -0.017   4.113 -0.2910 -0.1155  0.6634
   53CHL1    H6 5038   5.634  -0.047   4.036  0.5301  1.0506  0.9832
   53CHL1    C7 5039   5.596  -0.014   4.256  0.4228  0.9005  0.6285
   53CHL1   H7A 5040   5.662  -0.102   4.272  1.8943  1.5606 -1.3847
   53CHL1   H7B 5041   5.666   0.069   4.279  2.2433 -0.0345 -1.1524
   53CHL1    C8 5042   5.473  -0.024   4.356 -0.1192 -0.1925 -0.3761
   53CHL1    H8 5043   5.442  -0.130   4.371  0.2465 -0.2517 -0.0425
   53CHL1   C14 5044   5.514   0.047   4.489  0.2903  0.5432  0.3554
   53CHL1   H14 5045   5.533   0.154   4.467 -1.2383  1.1170  1.6201
   53CHL1   C15 5046   5.644   0.007   4.567 -0.1948  0.1569 -0.7526
   53CHL1  H15A 5047   5.646  -0.103   4.578  1.4910  0.3024  0.7598
   53CHL1  H15B 5048   5.740   0.053   4.534  1.3003 -0.8896  1.8604
   53CHL1   C16 5049   5.623   0.054   4.705 -0.4003 -0.0248 -0.0172
   53CHL1  H16A 5050   5.638  -0.036   4.769  3.4704 -0.2632 -1.0317
   53CHL1  H16B 5051   5.694   0.130   4.744 -1.2618  0.3373  0.8956
   53CHL1   C17 5052   5.484   0.114   4.718  0.1554  0.8968 -0.2655
   53CHL1   H17 5053   5.495   0.220   4.686  2.2534  0.7684 -0.1172
   53CHL1   C13 5054   5.406   0.049   4.600  0.1034 -0.1991 -0.2788
   53CHL1   C18 5055   5.366  -0.095   4.639 -0.2374 -0.0655 -0.2424
   53CHL1  H18A 5056   5.293  -0.111   4.720 -1.4353 -1.5490 -1.5465
   53CHL1  H18B 5057   5.305  -0.150   4.564 -0.7948  0.7044 -0.3694
   53CHL1  H18C 5058   5.447  -0.165   4.668 -0.1444  0.0738 -0.1620
   53CHL1   C12 5059   5.288   0.128   4.545 -0.2313 -0.4513 -0.2148
   53CHL1  H12A 5060   5.201   0.123   4.613 -0.9117  0.4638 -0.9840
   53CHL1  H12B 5061   5.314   0.236   4.548 -1.8387 -0.0674  0.4760
   53CHL1   C11 5062   5.248   0.073   4.411 -0.4490  0.7139 -0.2415
   53CHL1  H11A 5063   5.205  -0.028   4.427 -2.3817  1.6653  1.0459
   53CHL1  H11B 5064   5.158   0.130   4.380 -0.4070 -0.4902 -2.8524
   53CHL1    C9 5065   5.365   0.070   4.302  0.3107  0.3768  0.3795
   53CHL1    H9 5066   5.398   0.175   4.289 -0.1357  0.4615 -0.0938
   53CHL1   C10 5067   5.313   0.018   4.162 -0.2867 -0.1998 -0.0908
   53CHL1   C19 5068   5.228  -0.113   4.175 -0.1714  0.2297 -0.7996
   53CHL1  H19A 5069   5.144  -0.113   4.247 -0.8249 -2.9241 -1.3956
   53CHL1  H19B 5070   5.200  -0.159   4.078  1.6170 -0.7917 -0.8854
   53CHL1  H19C 5071   5.300  -0.186   4.219 -0.0566 -1.9116 -4.1615
   53CHL1    C1 5072   5.231   0.133   4.093 -0.0016 -0.2594  0.3643
   53CHL1   H1A 5073   5.135   0.146   4.148  0.7770 -0.2774  1.7490
   53CHL1   H1B 5074   5.286   0.228   4.106  0.1059 -0.2640 -0.0317
   53CHL1    C2 5075   5.192   0.106   3.946 -0.2138  0.3421  0.4249
   53CHL1   H2A 5076   5.141   0.190   3.894 -0.2715 -0.8161 -1.4754
   53CHL1   H2B 5077   5.126   0.018   3.931  0.1520  0.4796 -2.4192
   53CHL1   C20 5078   5.421   0.119   4.862  0.5282 -0.0646  0.1451
   53CHL1   H20 5079   5.407   0.010   4.881  1.5099 -0.3038 -0.4092
   53CHL1   C21 5080   5.274   0.179   4.859 -0.6635 -0.1734  0.4475
   53CHL1  H21A 5081   5.204   0.119   4.798 -0.5574  0.8260 -0.6779
   53CHL1  H21B 5082   5.265   0.286   4.832 -2.7443 -0.5873 -0.7093
   53CHL1  H21C 5083   5.249   0.172   4.968  2.3484  2.4605  1.4472
   53CHL1   C22 5084   5.514   0.185   4.967 -0.2908  0.3263  0.9812
   53CHL1  H22A 5085   5.621   0.162   4.944 -0.6218  0.3536 -0.6939
   53CHL1  H22B 5086   5.506   0.295   4.954  1.5425  0.3804 -0.2046
   53CHL1   C23 5087   5.486   0.151   5.116  0.1973  0.0761 -0.5305
   53CHL1  H23A 5088   5.557   0.203   5.184 -0.8985 -0.5593  1.1722
   53CHL1  H23B 5089   5.385   0.190   5.139 -1.3062 -3.4618 -0.5373
   53CHL1   C24 5090   5.490  -0.003   5.143 -0.7649 -0.6069 -0.3998
   53CHL1  H24A 5091   5.482  -0.018   5.253  0.2814 -1.9039 -0.4803
   53CHL1  H24B 5092   5.397  -0.049   5.105 -1.3406  1.7391 -2.0346
   53CHL1   C25 5093   5.616  -0.073   5.095  0.5999 -0.1144 -0.2690
   53CHL1   H25 5094   5.643  -0.050   4.989 -0.0328  2.0448 -0.0027
   53CHL1   C26 5095   5.738  -0.042   5.170 -0.3055 -0.6605 -1.1229
   53CHL1  H26A 5096   5.828  -0.104   5.151 -0.4173 -2.1008  2.3893
   53CHL1  H26B 5097   5.769   0.065   5.162  3.4751 -1.6438 -1.5501
   53CHL1  H26C 5098   5.717  -0.047   5.279  0.6294  2.4866 -0.6754
   53CHL1   C27 5099   5.589  -0.221   5.103  0.0037  0.8819  0.1499
   53CHL1  H27A 5100   5.513  -0.244   5.181 -0.7239  1.2702 -0.4325
   53CHL1  H27B 5101   5.529  -0.246   5.013 -0.2220  2.4058 -0.1544
   53CHL1  H27C 5102   5.674  -0.293   5.104 -0.3402  0.4581 -0.3217
   54CHL1    C3 5103   6.686   2.683   3.465  0.6839  0.2625  0.1047
   54CHL1    H3 5104   6.686   2.577   3.497 -0.8486  0.4451  0.7897
   54CHL1    O3 5105   6.673   2.684   3.324 -0.2357 -0.1875 -0.0184
   54CHL1   H3' 5106   6.671   2.774   3.288 -0.8341 -0.3750 -0.4794
   54CHL1    C4 5107   6.569   2.763   3.527  0.6780  0.3552  0.2231
   54CHL1   H4A 5108   6.562   2.864   3.481 -2.3263 -0.6170 -1.7003
   54CHL1   H4B 5109   6.477   2.711   3.494  0.3517  2.5811 -2.8171
   54CHL1    C5 5110   6.587   2.777   3.673 -0.3551 -0.2201 -0.9584
   54CHL1    C6 5111   6.494   2.737   3.756  1.1332  0.3303 -0.3559
   54CHL1    H6 5112   6.406   2.689   3.712  1.6505 -0.5748 -0.4214
   54CHL1    C7 5113   6.506   2.757   3.903 -0.3029  0.0332 -0.3312
   54CHL1   H7A 5114   6.407   2.787   3.942  0.4350  1.3786  0.6189
   54CHL1   H7B 5115   6.527   2.661   3.956  0.0067  1.4022  2.1776
   54CHL1    C8 5116   6.620   2.857   3.945  0.0012  0.2616 -0.3039
   54CHL1    H8 5117   6.594   2.964   3.934 -0.7336  0.0678 -0.5435
   54CHL1   C14 5118   6.651   2.830   4.092  0.5874 -0.5588 -0.2790
   54CHL1   H14 5119   6.695   2.728   4.098 -0.7713 -1.1680 -0.3135
   54CHL1   C15 5120   6.533   2.830   4.196 -0.6868  0.1918 -0.2134
   54CHL1  H15A 5121   6.470   2.918   4.172  1.9356  1.5617 -2.6144
   54CHL1  H15B 5122   6.475   2.737   4.178  2.3569 -1.5508 -2.0399
   54CHL1   C16 5123   6.601   2.851   4.331  0.3877 -0.3828  1.2475
   54CHL1  H16A 5124   6.576   2.954   4.362  0.6248 -0.4096  1.5346
   54CHL1  H16B 5125   6.561   2.776   4.402 -1.2879  0.1081  0.8529
   54CHL1   C17 5126   6.757   2.864   4.297  0.1476  0.1345 -0.2956
   54CHL1   H17 5127   6.798   2.761   4.296  0.4218  0.1988 -3.3562
   54CHL1   C13 5128   6.757   2.920   4.149 -0.2854 -0.1441  0.5210
   54CHL1   C18 5129   6.726   3.074   4.140 -0.0238  0.8254 -0.2926
   54CHL1  H18A 5130   6.630   3.098   4.192  0.0681  0.1332  0.2083
   54CHL1  H18B 5131   6.798   3.133   4.201 -0.2059 -0.2233  0.9776
   54CHL1  H18C 5132   6.713   3.108   4.035 -2.1475 -1.3415 -0.8306
   54CHL1   C12 5133   6.884   2.882   4.074 -0.0333 -0.1674 -0.1211
   54CHL1  H12A 5134   6.964   2.948   4.116 -2.6430  2.8325  0.5128
   54CHL1  H12B 5135   6.897   2.773   4.091 -2.3087 -0.9537 -2.7043
   54CHL1   C11 5136   6.868   2.902   3.919 -0.4086  0.1136 -0.4665
   54CHL1  H11A 5137   6.838   3.008   3.915 -1.0934 -0.0485  0.2301
   54CHL1  H11B 5138   6.960   2.875   3.862  0.1815  0.8521  0.1067
   54CHL1    C9 5139   6.745   2.822   3.862 -0.0269 -0.1556 -0.4945
   54CHL1    H9 5140   6.758   2.715   3.891 -1.4199  0.1143  1.2942
   54CHL1   C10 5141   6.720   2.840   3.712 -0.7050 -0.6854  0.4967
   54CHL1   C19 5142   6.715   2.987   3.669 -0.1282 -0.4907  0.7017
   54CHL1  H19A 5143   6.681   2.989   3.563 -2.4778  0.0711  1.3868
   54CHL1  H19B 5144   6.648   3.048   3.734  1.7507  2.4853  0.0436
   54CHL1  H19C 5145   6.816   3.033   3.672 -0.5436  0.4013  1.7395
   54CHL1    C1 5146   6.834   2.767   3.637 -0.2399  0.0248 -0.0819
   54CHL1   H1A 5147   6.933   2.815   3.656  0.3215 -0.6833 -1.0763
   54CHL1   H1B 5148   6.841   2.666   3.684 -1.1778 -0.5488 -1.1331
   54CHL1    C2 5149   6.821   2.738   3.487 -0.0854 -0.1519 -0.0605
   54CHL1   H2A 5150   6.906   2.672   3.459  1.7277  1.4827  1.3023
   54CHL1   H2B 5151   6.825   2.836   3.436 -1.4676  0.5174  1.0532
   54CHL1   C20 5152   6.832   2.947   4.409 -0.1631 -0.0210  0.2377
   54CHL1   H20 5153   6.817   3.053   4.377 -0.3326  0.2427  1.1771
   54CHL1   C21 5154   6.986   2.925   4.398  0.3166 -0.0425 -0.0611
   54CHL1  H21A 5155   7.031   2.955   4.495 -1.7071 -1.3534  1.3695
   54CHL1  H21B 5156   7.038   2.987   4.323  0.8860  1.0309  1.1812
   54CHL1  H21C 5157   7.012   2.818   4.384 -0.9471 -1.2320  4.7246
   54CHL1   C22 5158   6.777   2.925   4.545 -0.6690 -0.8158  0.1624
   54CHL1  H22A 5159   6.830   3.002   4.606 -0.5977 -0.0859 -0.7955
   54CHL1  H22B 5160   6.669   2.951   4.547 -0.1242  1.7317  0.2825
   54CHL1   C23 5161   6.794   2.785   4.609  0.1236 -0.0291  0.4718
   54CHL1  H23A 5162   6.723   2.719   4.554 -1.5115 -1.0361  3.5834
   54CHL1  H23B 5163   6.898   2.746   4.600 -0.7235 -2.2910 -0.1474
   54CHL1   C24 5164   6.760   2.792   4.757 -0.4695 -0.5119  0.0943
   54CHL1  H24A 5165   6.856   2.815   4.808 -0.9255  1.2490  0.2007
   54CHL1  H24B 5166   6.694   2.877   4.785  1.8287  1.7107 -0.8160
   54CHL1   C25 5167   6.705   2.664   4.821 -0.0509 -0.6738  0.3909
   54CHL1   H25 5168   6.613   2.641   4.762 -1.4093  1.3584  1.5859
   54CHL1   C26 5169   6.801   2.551   4.825  0.4117 -0.1062  0.3797
   54CHL1  H26A 5170   6.860   2.531   4.734 -1.3259 -1.5882 -0.4935
   54CHL1  H26B 5171   6.870   2.557   4.912  0.4065 -2.7242  0.6281
   54CHL1  H26C 5172   6.753   2.453   4.849  0.0863 -0.2525 -0.8094
   54CHL1   C27 5173   6.655   2.694   4.962  0.2583  0.6966  0.1609
   54CHL1  H27A 5174   6.597   2.789   4.957 -0.9637 -0.0560 -0.1212
   54CHL1  H27B 5175   6.590   2.611   4.993 -1.5422  0.7530 -3.0429
   54CHL1  H27C 5176   6.739   2.709   5.034 -0.1646 -0.7659  0.9966
   55CHL1    C3 5177   0.152   6.975   3.764  0.0738 -0.3177 -0.1836
   55CHL1    H3 5178   0.247   7.031   3.760  1.3464 -2.3883 -0.6661
   55CHL1    O3 5179   0.116   6.928   3.635  0.1359 -0.2788  1.0203
   55CHL1   H3' 5180   0.070   7.000   3.591 -0.9507 -2.0473 -0.9940
   55CHL1    C4 5181   0.182   6.851   3.859 -0.4036  0.1645  0.0839
   55CHL1   H4A 5182   0.095   6.783   3.859 -0.2768  0.0015  0.2563
   55CHL1   H4B 5183   0.266   6.794   3.814 -0.2702 -0.1699  0.7459
   55CHL1    C5 5184   0.223   6.895   3.995 -0.0872 -0.3888 -0.3601
   55CHL1    C6 5185   0.346   6.861   4.047 -0.3128 -0.2255 -0.7080
   55CHL1    H6 5186   0.411   6.790   3.994  0.0604 -1.2348  1.0288
   55CHL1    C7 5187   0.386   6.887   4.189 -0.5636 -0.8393 -0.4840
   55CHL1   H7A 5188   0.439   6.803   4.240  0.1468 -0.1544 -0.0709
   55CHL1   H7B 5189   0.465   6.964   4.198 -0.2830 -1.2958  1.4240
   55CHL1    C8 5190   0.267   6.935   4.272  0.4019 -0.0149 -0.2032
   55CHL1    H8 5191   0.203   6.846   4.290  0.7358 -0.5259 -1.4345
   55CHL1   C14 5192   0.314   7.002   4.404  0.0642  0.3300  0.5913
   55CHL1   H14 5193   0.377   7.088   4.375  1.8677 -0.8496  0.8211
   55CHL1   C15 5194   0.415   6.913   4.490  0.2904 -0.0930 -0.3224
   55CHL1  H15A 5195   0.368   6.814   4.508  0.2994  0.2604  1.9460
   55CHL1  H15B 5196   0.512   6.899   4.438  1.4618  0.4501  1.6278
   55CHL1   C16 5197   0.419   6.990   4.620  0.3086  0.6002  0.2411
   55CHL1  H16A 5198   0.403   6.920   4.705 -3.3716  0.6422 -0.2616
   55CHL1  H16B 5199   0.510   7.048   4.646 -0.3423  0.4614  3.3258
   55CHL1   C17 5200   0.300   7.092   4.622  0.8699 -0.1204  0.4730
   55CHL1   H17 5201   0.345   7.192   4.602 -2.5369  1.9408  2.1573
   55CHL1   C13 5202   0.210   7.053   4.498 -0.4591 -0.8796  0.3718
   55CHL1   C18 5203   0.112   6.940   4.556  0.1668  0.6202 -0.5321
   55CHL1  H18A 5204   0.056   6.888   4.476 -0.4010  1.1325 -0.4738
   55CHL1  H18B 5205   0.170   6.867   4.617 -0.7053  0.8250  0.5707
   55CHL1  H18C 5206   0.033   6.987   4.619 -1.1202 -1.2693 -0.6400
   55CHL1   C12 5207   0.132   7.167   4.432 -0.2734 -0.3939 -0.8100
   55CHL1  H12A 5208   0.059   7.218   4.499 -1.0241 -0.6038 -1.4588
   55CHL1  H12B 5209   0.203   7.247   4.400  0.3266 -1.0477 -1.1339
   55CHL1   C11 5210   0.067   7.110   4.300 -0.4361  1.1154  0.9808
   55CHL1  H11A 5211  -0.001   7.027   4.331  1.7235 -1.2168 -0.1740
   55CHL1  H11B 5212   0.011   7.190   4.248 -1.2229  0.9224  1.4982
   55CHL1    C9 5213   0.169   7.039   4.203 -0.0090 -0.1726  0.2600
   55CHL1    H9 5214   0.236   7.121   4.168  0.3025  0.2313  1.7191
   55CHL1   C10 5215   0.122   6.990   4.065 -0.5375 -0.0523 -0.7180
   55CHL1   C19 5216  -0.002   6.904   4.087  0.2803 -0.2151  0.3838
   55CHL1  H19A 5217  -0.089   6.956   4.132 -0.2251  0.2000 -1.0230
   55CHL1  H19B 5218  -0.047   6.862   3.995 -1.7634 -0.0267  1.2554
   55CHL1  H19C 5219   0.023   6.816   4.151  0.8132 -0.5168 -0.2261
   55CHL1    C1 5220   0.089   7.107   3.973  0.2324 -0.0239 -0.1585
   55CHL1   H1A 5221   0.004   7.166   4.015 -0.5761  0.5425 -2.4524
   55CHL1   H1B 5222   0.172   7.179   3.968  0.1005  0.0600 -2.2764
   55CHL1    C2 5223   0.056   7.076   3.830 -0.4408  0.3055  0.8359
   55CHL1   H2A 5224   0.049   7.169   3.769 -0.6265  1.0363  1.9539
   55CHL1   H2B 5225  -0.047   7.036   3.820 -0.0974 -0.0010 -2.9181
   55CHL1   C20 5226   0.240   7.106   4.763  0.9787  0.8680  0.0807
   55CHL1   H20 5227   0.179   7.014   4.778  1.7102 -0.0712 -2.3090
   55CHL1   C21 5228   0.139   7.226   4.763  0.3907  0.6571  0.2522
   55CHL1  H21A 5229   0.047   7.200   4.707 -0.2366  1.3092  0.9603
   55CHL1  H21B 5230   0.178   7.321   4.721 -0.0252  0.7417  0.0461
   55CHL1  H21C 5231   0.090   7.233   4.862 -3.3315 -1.5435 -1.2314
   55CHL1   C22 5232   0.343   7.120   4.879  0.1669 -0.2304  0.2635
   55CHL1  H22A 5233   0.400   7.025   4.876 -0.1184 -0.3944 -0.0651
   55CHL1  H22B 5234   0.410   7.208   4.864  3.2433 -2.3829  0.5428
   55CHL1   C23 5235   0.271   7.129   5.018  0.0690 -0.1809 -0.3685
   55CHL1  H23A 5236   0.249   7.238   5.017  1.0705  0.0581  0.4482
   55CHL1  H23B 5237   0.179   7.068   5.011 -1.1909  1.4831  0.9360
   55CHL1   C24 5238   0.351   7.088   5.134 -0.7474  0.7183  0.4301
   55CHL1  H24A 5239   0.393   6.988   5.108  0.0335  0.6169  1.9498
   55CHL1  H24B 5240   0.446   7.144   5.147  1.0230 -1.7467 -0.8926
   55CHL1   C25 5241   0.274   7.105   5.272 -0.0069  0.3550  0.2683
   55CHL1   H25 5242   0.173   7.059   5.262 -0.3238  0.9216  0.8149
   55CHL1   C26 5243   0.351   7.047   5.389 -0.2936 -0.9486  0.0017
   55CHL1  H26A 5244   0.459   7.072   5.403 -0.5324  0.7342 -0.8838
   55CHL1  H26B 5245   0.291   7.077   5.478  1.4263  0.1733  0.8521
   55CHL1  H26C 5246   0.340   6.937   5.387 -1.5390 -0.8939  1.8341
   55CHL1   C27 5247   0.256   7.254   5.292  0.0364 -0.2353  0.3821
   55CHL1  H27A 5248   0.212   7.278   5.391  1.7924  1.2244  0.8822
   55CHL1  H27B 5249   0.357   7.301   5.279 -0.4682  0.7811 -0.0149
   55CHL1  H27C 5250   0.188   7.309   5.223 -0.0706 -0.3585  0.3902
   56CHL1    C3 5251   3.712   6.463   3.741  0.6585  0.9376 -0.9760
   56CHL1    H3 5252   3.808   6.515   3.721  1.1037  0.5605  0.0798
   56CHL1    O3 5253   3.641   6.451   3.622 -0.8125 -0.3260  0.3331
   56CHL1   H3' 5254   3.554   6.423   3.652 -0.6142 -1.0241  0.2727
   56CHL1    C4 5255   3.739   6.319   3.793 -0.5204  0.1153  0.9795
   56CHL1   H4A 5256   3.642   6.263   3.795 -1.0154  0.9676  1.1212
   56CHL1   H4B 5257   3.789   6.263   3.711 -0.9097  0.4804  0.4835
   56CHL1    C5 5258   3.793   6.314   3.932 -0.7771  0.1301 -0.5101
   56CHL1    C6 5259   3.903   6.236   3.952 -0.7556 -0.5517 -0.5028
   56CHL1    H6 5260   3.951   6.178   3.871  0.0044 -1.0128  0.2599
   56CHL1    C7 5261   3.960   6.225   4.089 -0.4871  0.0503  0.2624
   56CHL1   H7A 5262   3.978   6.119   4.117 -1.2370  0.2790  1.6995
   56CHL1   H7B 5263   4.051   6.289   4.093  1.0366 -2.0264  0.5585
   56CHL1    C8 5264   3.869   6.281   4.210 -0.6229  0.1398  0.0081
   56CHL1    H8 5265   3.794   6.204   4.240  0.8551 -1.0474  0.7705
   56CHL1   C14 5266   3.957   6.302   4.337 -0.0181  0.1896  0.0796
   56CHL1   H14 5267   4.030   6.381   4.308  1.3204 -0.6960  0.9014
   56CHL1   C15 5268   4.038   6.185   4.391 -0.2582  0.3615 -0.1053
   56CHL1  H15A 5269   3.977   6.092   4.395 -0.2504  0.3549 -0.1416
   56CHL1  H15B 5270   4.122   6.156   4.324  0.2771 -0.3729  0.8452
   56CHL1   C16 5271   4.077   6.228   4.534  0.5279  0.0401  0.2107
   56CHL1  H16A 5272   4.054   6.145   4.605  1.4721 -1.3110 -1.0147
   56CHL1  H16B 5273   4.187   6.240   4.536  0.5122  0.3816  2.8751
   56CHL1   C17 5274   4.006   6.367   4.562  0.1776  0.2897 -0.6830
   56CHL1   H17 5275   4.077   6.447   4.532 -0.6469  0.7188 -1.5052
   56CHL1   C13 5276   3.885   6.358   4.464 -0.5172  0.8569  0.3539
   56CHL1   C18 5277   3.781   6.256   4.510  1.0221  0.2986 -0.0586
   56CHL1  H18A 5278   3.703   6.251   4.431  2.0089  1.0625 -1.0991
   56CHL1  H18B 5279   3.818   6.154   4.535  0.6744  0.3451  0.6760
   56CHL1  H18C 5280   3.741   6.286   4.610 -2.3097 -3.4358  0.0149
   56CHL1   C12 5281   3.819   6.489   4.417 -0.1318 -0.1398  0.1515
   56CHL1  H12A 5282   3.754   6.545   4.488 -1.8637  0.6432 -1.9565
   56CHL1  H12B 5283   3.910   6.548   4.391  0.3133  0.1441  2.1505
   56CHL1   C11 5284   3.733   6.476   4.290  0.4335  0.1648 -0.7387
   56CHL1  H11A 5285   3.633   6.433   4.315 -1.2189  2.6325 -2.6045
   56CHL1  H11B 5286   3.724   6.583   4.264  0.5246  0.0128 -1.4091
   56CHL1    C9 5287   3.805   6.413   4.166 -0.8714  0.4965 -0.0421
   56CHL1    H9 5288   3.894   6.477   4.151 -0.2761 -0.0909  0.8329
   56CHL1   C10 5289   3.718   6.398   4.036 -0.0707  0.4047  0.4164
   56CHL1   C19 5290   3.591   6.325   4.068  0.1480 -0.3788 -0.3862
   56CHL1  H19A 5291   3.595   6.222   4.110  1.3091 -0.1828  0.0072
   56CHL1  H19B 5292   3.535   6.369   4.154  0.6398  0.1189 -0.3122
   56CHL1  H19C 5293   3.522   6.316   3.981  0.5056 -2.1236 -0.5210
   56CHL1    C1 5294   3.697   6.540   3.981 -0.1516 -0.7819  0.2927
   56CHL1   H1A 5295   3.642   6.591   4.062  0.3298 -0.4607  0.4193
   56CHL1   H1B 5296   3.796   6.589   3.971 -1.0151  1.1058  0.6466
   56CHL1    C2 5297   3.631   6.553   3.842  0.2606  0.5759 -0.0524
   56CHL1   H2A 5298   3.640   6.658   3.805  4.2857 -0.4629 -2.7019
   56CHL1   H2B 5299   3.530   6.509   3.832  1.4137 -1.8406 -2.4565
   56CHL1   C20 5300   3.972   6.385   4.714 -0.0831  0.5928  0.1484
   56CHL1   H20 5301   3.898   6.316   4.759 -1.5344  0.7457 -1.8296
   56CHL1   C21 5302   3.898   6.523   4.745 -0.9901  0.6076  0.8124
   56CHL1  H21A 5303   3.810   6.528   4.678 -0.9668  0.1600  0.7439
   56CHL1  H21B 5304   3.968   6.597   4.699 -0.0812 -0.7076  0.0209
   56CHL1  H21C 5305   3.866   6.539   4.850 -2.0194 -1.1864  0.8073
   56CHL1   C22 5306   4.109   6.388   4.787  0.5488 -0.3115  0.2880
   56CHL1  H22A 5307   4.172   6.302   4.756  1.7446  0.7355 -0.2782
   56CHL1  H22B 5308   4.165   6.477   4.751 -1.0594  1.5720  2.1543
   56CHL1   C23 5309   4.084   6.403   4.940 -0.0277 -0.0285  0.2244
   56CHL1  H23A 5310   4.038   6.503   4.959  0.7639  0.3925 -0.0211
   56CHL1  H23B 5311   4.023   6.320   4.980  0.5498 -0.9670 -0.7795
   56CHL1   C24 5312   4.219   6.413   5.005  0.1464  0.3250  0.4508
   56CHL1  H24A 5313   4.212   6.394   5.114  0.7228 -3.1485 -0.0144
   56CHL1  H24B 5314   4.282   6.328   4.971 -0.9295  0.1857 -1.3090
   56CHL1   C25 5315   4.294   6.551   4.989 -0.0283  0.2914 -0.6043
   56CHL1   H25 5316   4.313   6.573   4.882  0.6357  1.8411 -0.1886
   56CHL1   C26 5317   4.207   6.656   5.057  0.0640  0.2438  0.1841
   56CHL1  H26A 5318   4.170   6.628   5.158 -0.8743 -0.0862 -0.2411
   56CHL1  H26B 5319   4.260   6.754   5.061 -0.8511  0.9771 -2.8326
   56CHL1  H26C 5320   4.121   6.683   4.992  0.8850 -0.4693 -1.2430
   56CHL1   C27 5321   4.424   6.545   5.070  0.1681  0.6949 -0.2618
   56CHL1  H27A 5322   4.402   6.530   5.178  0.1292 -2.5656 -0.6399
   56CHL1  H27B 5323   4.476   6.451   5.045 -1.0854  0.0012 -0.3591
   56CHL1  H27C 5324   4.488   6.635   5.056  2.2825 -0.1738  2.7669
   57CHL1    C3 5325   1.291   5.357   3.798  0.0415 -0.4917 -0.4448
   57CHL1    H3 5326   1.399   5.380   3.815 -0.4200 -0.4274  3.0188
   57CHL1    O3 5327   1.261   5.326   3.661 -0.0983 -0.3598  0.2420
   57CHL1   H3' 5328   1.178   5.368   3.638 -0.4836 -1.5732 -0.7089
   57CHL1    C4 5329   1.266   5.228   3.868  0.1161  0.3756 -0.0295
   57CHL1   H4A 5330   1.164   5.193   3.844 -1.1590  2.2608  2.2323
   57CHL1   H4B 5331   1.328   5.150   3.819 -1.5606  0.3626 -2.2861
   57CHL1    C5 5332   1.275   5.241   4.016  0.6624 -0.5122  0.0184
   57CHL1    C6 5333   1.362   5.175   4.093 -0.6364 -0.2811  1.0028
   57CHL1    H6 5334   1.421   5.093   4.051 -1.8304 -0.1667 -1.0267
   57CHL1    C7 5335   1.370   5.183   4.242 -0.8150 -0.2437 -0.1476
   57CHL1   H7A 5336   1.363   5.081   4.286  1.2242 -0.0109  0.8676
   57CHL1   H7B 5337   1.466   5.231   4.273 -0.2714 -0.4420 -1.4651
   57CHL1    C8 5338   1.253   5.268   4.309 -0.8430  0.0005  0.1286
   57CHL1    H8 5339   1.165   5.201   4.319 -0.6826 -0.1632  0.4578
   57CHL1   C14 5340   1.282   5.304   4.454 -0.0359  0.2257  0.1720
   57CHL1   H14 5341   1.373   5.368   4.451 -0.8779  1.4642  0.6135
   57CHL1   C15 5342   1.322   5.188   4.546  0.3817 -0.3610 -0.2211
   57CHL1  H15A 5343   1.244   5.109   4.540 -0.5683  0.5783 -0.5025
   57CHL1  H15B 5344   1.424   5.151   4.525  1.8328  2.2330  1.6057
   57CHL1   C16 5345   1.315   5.250   4.687 -0.3122  0.1060  0.2142
   57CHL1  H16A 5346   1.260   5.184   4.758  1.6229  1.0552  2.7692
   57CHL1  H16B 5347   1.416   5.259   4.733 -0.4744  3.4734  0.1334
   57CHL1   C17 5348   1.257   5.392   4.666 -0.3736 -0.2313 -0.0706
   57CHL1   H17 5349   1.345   5.459   4.652 -2.1431  2.5636  1.1164
   57CHL1   C13 5350   1.181   5.385   4.525 -0.6995  0.7971  0.0024
   57CHL1   C18 5351   1.046   5.316   4.542 -0.0940 -0.3732  0.7307
   57CHL1  H18A 5352   1.055   5.226   4.607 -1.1846 -1.1426 -0.1524
   57CHL1  H18B 5353   0.977   5.386   4.595  0.9581  1.6157 -0.4087
   57CHL1  H18C 5354   1.002   5.291   4.444 -0.5083  0.4016  0.7021
   57CHL1   C12 5355   1.170   5.517   4.447 -0.3700 -0.6621  0.0156
   57CHL1  H12A 5356   1.098   5.589   4.492  0.1302  0.1325 -0.4397
   57CHL1  H12B 5357   1.269   5.565   4.435  0.3065 -1.9729  0.2558
   57CHL1   C11 5358   1.126   5.488   4.299  1.0923  0.2270  0.1390
   57CHL1  H11A 5359   1.019   5.458   4.294  1.3723 -0.7712  0.0943
   57CHL1  H11B 5360   1.134   5.591   4.257 -0.7574  1.0163  1.5469
   57CHL1    C9 5361   1.219   5.389   4.224  0.3044  0.1465  0.6544
   57CHL1    H9 5362   1.314   5.446   4.232  0.2330  0.2029  1.1485
   57CHL1   C10 5363   1.178   5.353   4.080 -0.4139  0.3853 -0.0620
   57CHL1   C19 5364   1.029   5.322   4.070  0.4933 -0.6030  0.3005
   57CHL1  H19A 5365   1.004   5.281   3.970  2.8629  1.2879 -1.1853
   57CHL1  H19B 5366   1.011   5.242   4.145  1.3329 -0.6677  0.4432
   57CHL1  H19C 5367   0.965   5.411   4.089  1.4134 -0.0237  0.7831
   57CHL1    C1 5368   1.227   5.476   3.993  0.1335  0.2992 -0.2508
   57CHL1   H1A 5369   1.165   5.562   4.027 -0.9771 -1.4544  2.5811
   57CHL1   H1B 5370   1.334   5.497   4.011  1.2077 -0.9605 -4.2558
   57CHL1    C2 5371   1.197   5.467   3.846 -0.3621  0.2317 -0.4663
   57CHL1   H2A 5372   1.219   5.560   3.790  1.3227 -1.8866 -3.6680
   57CHL1   H2B 5373   1.090   5.442   3.831 -0.3952 -0.3024  0.5862
   57CHL1   C20 5374   1.182   5.445   4.784 -0.8623 -0.1292 -0.9226
   57CHL1   H20 5375   1.100   5.373   4.804 -0.9694 -0.8178 -3.4498
   57CHL1   C21 5376   1.124   5.586   4.759  0.0633 -0.0532 -0.1183
   57CHL1  H21A 5377   1.037   5.581   4.690 -0.6355  2.3155  0.4876
   57CHL1  H21B 5378   1.196   5.656   4.711 -1.2119  0.3611 -1.5215
   57CHL1  H21C 5379   1.089   5.642   4.849 -0.7576 -0.5279 -0.1338
   57CHL1   C22 5380   1.270   5.454   4.914  0.2093  0.5138  0.5119
   57CHL1  H22A 5381   1.209   5.485   5.002 -0.9547 -0.2479  0.0119
   57CHL1  H22B 5382   1.308   5.355   4.946 -1.2034  0.8686  3.7269
   57CHL1   C23 5383   1.392   5.546   4.913 -0.0182 -0.3392 -0.4077
   57CHL1  H23A 5384   1.459   5.510   4.832  0.6975 -0.8217  0.3714
   57CHL1  H23B 5385   1.368   5.646   4.873  2.6932  0.1112 -1.1589
   57CHL1   C24 5386   1.471   5.557   5.047 -0.0205  0.5279  0.4723
   57CHL1  H24A 5387   1.410   5.603   5.128  1.4285  1.5323  1.0318
   57CHL1  H24B 5388   1.480   5.449   5.069  0.1905  0.0250 -1.8694
   57CHL1   C25 5389   1.604   5.621   5.035  0.0533 -0.0983 -0.3472
   57CHL1   H25 5390   1.655   5.551   4.965  1.8803  0.2021  0.6129
   57CHL1   C26 5391   1.597   5.763   4.972  0.1830  0.8688  0.0715
   57CHL1  H26A 5392   1.588   5.750   4.861  1.6481  3.5143 -0.4265
   57CHL1  H26B 5393   1.526   5.837   5.015  0.8114  1.8315 -0.5023
   57CHL1  H26C 5394   1.701   5.801   4.974  0.1066  1.0526  0.8770
   57CHL1   C27 5395   1.675   5.640   5.174  0.7190 -0.3070  0.1992
   57CHL1  H27A 5396   1.640   5.722   5.240 -0.0498 -1.1389  0.8544
   57CHL1  H27B 5397   1.668   5.545   5.232  3.4177  0.2366  1.5912
   57CHL1  H27C 5398   1.784   5.662   5.166  0.5923  0.3350  0.1745
   58CHL1    C3 5399   6.092   6.774   4.029 -0.1002 -0.1094 -1.2149
   58CHL1    H3 5400   6.111   6.665   4.038  2.0598  0.3675  1.4460
   58CHL1    O3 5401   6.081   6.814   3.898 -0.1640 -0.4222 -0.1191
   58CHL1   H3' 5402   5.996   6.783   3.866  0.4470 -0.8324 -1.4218
   58CHL1    C4 5403   5.959   6.801   4.092  0.2416  0.3068  0.2886
   58CHL1   H4A 5404   5.949   6.911   4.082 -0.5389  0.2624  0.4975
   58CHL1   H4B 5405   5.870   6.757   4.042 -0.7709 -1.3478  3.2248
   58CHL1    C5 5406   5.961   6.764   4.239 -0.5493 -0.3875  0.3815
   58CHL1    C6 5407   5.879   6.673   4.284  0.9305 -0.7203 -0.3695
   58CHL1    H6 5408   5.801   6.633   4.217  1.2298 -0.1591 -1.0738
   58CHL1    C7 5409   5.889   6.616   4.429 -0.0400 -0.2325  0.4848
   58CHL1   H7A 5410   5.789   6.586   4.467  0.6607 -4.4953 -0.4557
   58CHL1   H7B 5411   5.953   6.526   4.414 -0.8005 -0.4600 -1.9060
   58CHL1    C8 5412   5.957   6.714   4.521  0.0553  0.0194 -0.7362
   58CHL1    H8 5413   5.893   6.805   4.525  0.6962  0.5855 -2.4859
   58CHL1   C14 5414   5.992   6.648   4.654 -0.2307 -0.2540  0.2752
   58CHL1   H14 5415   6.064   6.567   4.627  0.2643  0.3462 -0.2446
   58CHL1   C15 5416   5.875   6.577   4.722 -0.1848  0.1716  0.1817
   58CHL1  H15A 5417   5.790   6.648   4.713 -1.2779 -1.3045 -3.0719
   58CHL1  H15B 5418   5.840   6.482   4.675  1.3023 -0.2024 -0.2281
   58CHL1   C16 5419   5.923   6.565   4.867  0.4531  0.2718 -0.2749
   58CHL1  H16A 5420   5.846   6.608   4.934 -0.5114 -0.1462 -1.0892
   58CHL1  H16B 5421   5.937   6.458   4.893 -1.1106  0.3531  0.9925
   58CHL1   C17 5422   6.063   6.634   4.878 -0.3048 -0.7268  0.0551
   58CHL1   H17 5423   6.147   6.565   4.858  0.8861  0.3770  1.1226
   58CHL1   C13 5424   6.064   6.734   4.762  0.1024  0.0890  0.6805
   58CHL1   C18 5425   5.971   6.854   4.798 -0.1389  0.7487 -0.4327
   58CHL1  H18A 5426   5.950   6.930   4.720 -1.3005  0.1571 -0.7330
   58CHL1  H18B 5427   5.867   6.826   4.826 -0.2512 -1.0795 -2.3564
   58CHL1  H18C 5428   6.018   6.910   4.881  2.6837 -0.8247 -0.8561
   58CHL1   C12 5429   6.199   6.775   4.708  0.2865 -0.1861 -0.6449
   58CHL1  H12A 5430   6.249   6.844   4.779  2.4897 -3.1724  0.9670
   58CHL1  H12B 5431   6.267   6.687   4.704 -0.2103 -0.5649 -0.9625
   58CHL1   C11 5432   6.186   6.840   4.568 -0.5667  0.4560 -0.8974
   58CHL1  H11A 5433   6.136   6.937   4.587 -0.4695  0.2037  0.8008
   58CHL1  H11B 5434   6.280   6.857   4.512 -0.2798  3.7798  0.4058
   58CHL1    C9 5435   6.093   6.760   4.466 -0.8988 -0.2512 -0.3412
   58CHL1    H9 5436   6.154   6.670   4.446  1.4405  1.7365 -2.8929
   58CHL1   C10 5437   6.076   6.826   4.324 -0.1821  0.0908  0.0006
   58CHL1   C19 5438   6.041   6.976   4.339 -0.9276  0.3064 -0.3661
   58CHL1  H19A 5439   5.963   7.001   4.415 -1.8732 -2.4483 -0.3125
   58CHL1  H19B 5440   6.127   7.036   4.372 -0.3704 -0.3130 -0.6574
   58CHL1  H19C 5441   6.011   7.027   4.245  2.4406  1.8990 -0.6992
   58CHL1    C1 5442   6.212   6.808   4.248  0.9169  0.2603  0.5346
   58CHL1   H1A 5443   6.292   6.871   4.293  1.9527  0.7243 -1.8089
   58CHL1   H1B 5444   6.255   6.706   4.251 -1.7189 -0.9846 -0.4297
   58CHL1    C2 5445   6.205   6.854   4.094 -0.2138 -0.1681  0.2510
   58CHL1   H2A 5446   6.296   6.816   4.043  1.3702  2.8397  0.6214
   58CHL1   H2B 5447   6.191   6.962   4.073  3.5973  0.1606 -1.5736
   58CHL1   C20 5448   6.084   6.689   5.022  0.3045  0.3643  0.3366
   58CHL1   H20 5449   6.004   6.765   5.038 -0.8459 -0.8948  0.7650
   58CHL1   C21 5450   6.221   6.749   5.058  0.3805  0.6142  0.2899
   58CHL1  H21A 5451   6.293   6.665   5.047  1.3840  1.3287  1.2451
   58CHL1  H21B 5452   6.222   6.768   5.167 -0.3587 -3.3779  1.1364
   58CHL1  H21C 5453   6.255   6.827   4.986 -1.1548  0.1126 -1.0421
   58CHL1   C22 5454   6.059   6.573   5.136 -0.0456 -1.0317  0.1353
   58CHL1  H22A 5455   6.023   6.478   5.092  1.1911 -1.0371 -0.9168
   58CHL1  H22B 5456   6.162   6.545   5.166  1.4727  1.8705 -1.8270
   58CHL1   C23 5457   5.972   6.619   5.261 -0.6228  0.1534  0.1593
   58CHL1  H23A 5458   6.046   6.668   5.329 -1.9192  2.4273  0.0410
   58CHL1  H23B 5459   5.897   6.695   5.230 -1.0039  0.0017  0.6879
   58CHL1   C24 5460   5.890   6.511   5.333 -0.7163 -0.1947  0.6591
   58CHL1  H24A 5461   5.797   6.484   5.278 -1.5476  1.7215  1.0523
   58CHL1  H24B 5462   5.952   6.421   5.352 -1.5539 -0.9166  0.0615
   58CHL1   C25 5463   5.843   6.566   5.472  0.1720 -0.1473  0.1399
   58CHL1   H25 5464   5.931   6.578   5.539  0.5412 -0.1018 -0.3515
   58CHL1   C26 5465   5.760   6.695   5.471 -0.3385 -0.0193  0.5301
   58CHL1  H26A 5466   5.664   6.681   5.417  0.2837 -1.1483 -0.3123
   58CHL1  H26B 5467   5.730   6.717   5.576  0.1327 -0.0222  0.6697
   58CHL1  H26C 5468   5.820   6.783   5.439 -2.0546  2.1022  2.7653
   58CHL1   C27 5469   5.777   6.463   5.560 -0.5557  0.9421 -0.8362
   58CHL1  H27A 5470   5.689   6.412   5.515  0.5382 -2.3695  0.4634
   58CHL1  H27B 5471   5.853   6.383   5.574  1.9567  3.3878  0.1662
   58CHL1  H27C 5472   5.758   6.512   5.658  0.8433  0.8011 -0.4807
   59CHL1    C3 5473   0.573   3.763   3.668 -0.0378  0.3132 -1.0892
   59CHL1    H3 5474   0.467   3.779   3.696  0.3180 -0.8552  1.1458
   59CHL1    O3 5475   0.573   3.765   3.525  0.1067  0.6970  0.2137
   59CHL1   H3' 5476   0.661   3.731   3.505  0.0537  1.0316 -0.6567
   59CHL1    C4 5477   0.662   3.876   3.720 -0.5527 -0.0052  0.1321
   59CHL1   H4A 5478   0.770   3.865   3.695 -0.4746 -0.1574  0.5254
   59CHL1   H4B 5479   0.620   3.966   3.672 -0.6559 -0.1560 -0.0584
   59CHL1    C5 5480   0.669   3.882   3.868  0.2057 -0.3065 -0.1161
   59CHL1    C6 5481   0.630   3.987   3.936 -0.0925 -0.6977 -0.7401
   59CHL1    H6 5482   0.597   4.076   3.882  0.2080 -0.2143 -0.1416
   59CHL1    C7 5483   0.638   4.004   4.092  0.7067  0.2262  0.9828
   59CHL1   H7A 5484   0.686   4.097   4.128  0.5198  0.1738  1.3789
   59CHL1   H7B 5485   0.533   4.003   4.129  0.5847  2.7962  0.8650
   59CHL1    C8 5486   0.712   3.887   4.159 -0.2511  0.1341 -0.0605
   59CHL1    H8 5487   0.820   3.911   4.162 -0.4420  0.9705  2.7023
   59CHL1   C14 5488   0.670   3.875   4.305  0.1160 -0.2270  0.4148
   59CHL1   H14 5489   0.563   3.843   4.305 -0.5462  1.7594 -1.0608
   59CHL1   C15 5490   0.650   4.003   4.387  0.2366 -0.5854 -0.7824
   59CHL1  H15A 5491   0.735   4.074   4.380 -0.7662  0.5982 -1.3487
   59CHL1  H15B 5492   0.554   4.048   4.352 -0.3955 -2.2185 -1.2430
   59CHL1   C16 5493   0.645   3.954   4.530 -0.3087  0.5998  0.1958
   59CHL1  H16A 5494   0.719   4.011   4.590 -0.9351  0.5780  0.9983
   59CHL1  H16B 5495   0.549   3.983   4.578 -1.0979  1.7683 -1.9368
   59CHL1   C17 5496   0.672   3.797   4.522 -0.0043  0.4818  0.5930
   59CHL1   H17 5497   0.570   3.752   4.523 -0.4786  1.5205  1.7257
   59CHL1   C13 5498   0.741   3.775   4.386 -0.1612  0.4734 -0.0409
   59CHL1   C18 5499   0.890   3.805   4.397  0.7546 -0.4234  0.0478
   59CHL1  H18A 5500   0.938   3.789   4.298 -0.2797  1.7908 -0.8674
   59CHL1  H18B 5501   0.916   3.902   4.447  0.4931 -0.2791 -0.0966
   59CHL1  H18C 5502   0.934   3.723   4.458  1.7467 -0.7123 -1.0213
   59CHL1   C12 5503   0.712   3.640   4.310  0.1495  0.7926 -0.0779
   59CHL1  H12A 5504   0.752   3.549   4.359  1.4346  0.1610 -2.1625
   59CHL1  H12B 5505   0.602   3.625   4.309 -0.2134  2.8969 -2.1040
   59CHL1   C11 5506   0.760   3.636   4.165  0.0221  0.2029  0.0742
   59CHL1  H11A 5507   0.870   3.644   4.148  0.1902 -2.6962 -0.8120
   59CHL1  H11B 5508   0.732   3.540   4.114 -2.7020  0.5179  0.8410
   59CHL1    C9 5509   0.691   3.750   4.090  0.5596 -0.0947 -0.3803
   59CHL1    H9 5510   0.581   3.736   4.092  0.0006  3.4692  0.2906
   59CHL1   C10 5511   0.723   3.752   3.936  0.4001  0.3894 -0.1084
   59CHL1   C19 5512   0.877   3.749   3.903  0.5640 -0.4101 -0.2750
   59CHL1  H19A 5513   0.929   3.838   3.944 -1.7095  0.4774  0.8528
   59CHL1  H19B 5514   0.926   3.661   3.951 -2.2978 -0.3708  3.1143
   59CHL1  H19C 5515   0.908   3.746   3.796  0.5795  0.0182 -0.2846
   59CHL1    C1 5516   0.643   3.630   3.872  0.5139  0.0331 -0.1588
   59CHL1   H1A 5517   0.689   3.531   3.890  2.6024  1.2158  1.4789
   59CHL1   H1B 5518   0.540   3.633   3.913  0.0752  1.2363 -1.2495
   59CHL1    C2 5519   0.630   3.630   3.718 -0.4399  0.0911  0.1835
   59CHL1   H2A 5520   0.577   3.541   3.678  1.8164 -1.3649  0.2333
   59CHL1   H2B 5521   0.730   3.613   3.673 -0.7838 -0.8756 -0.2375
   59CHL1   C20 5522   0.744   3.744   4.652 -0.0522  0.1215 -0.6162
   59CHL1   H20 5523   0.851   3.775   4.664  0.4058 -1.1997 -1.0836
   59CHL1   C21 5524   0.749   3.591   4.640  0.2062  0.3707  1.0384
   59CHL1  H21A 5525   0.650   3.542   4.625 -0.2314  1.0466  1.6668
   59CHL1  H21B 5526   0.786   3.558   4.740  0.9748 -0.3231  0.5374
   59CHL1  H21C 5527   0.829   3.559   4.570 -1.6971  1.7343 -1.9238
   59CHL1   C22 5528   0.679   3.779   4.781  0.4124 -0.1323  0.1777
   59CHL1  H22A 5529   0.641   3.884   4.785  1.2300  0.1279  2.9595
   59CHL1  H22B 5530   0.592   3.713   4.803  0.4051 -0.0530  0.3872
   59CHL1   C23 5531   0.776   3.776   4.902 -0.1150  0.1818  0.4349
   59CHL1  H23A 5532   0.832   3.680   4.900 -3.7568 -2.1383 -1.5390
   59CHL1  H23B 5533   0.853   3.855   4.890 -0.0310 -0.0554 -0.7934
   59CHL1   C24 5534   0.700   3.795   5.035 -0.5317 -0.5192  0.7729
   59CHL1  H24A 5535   0.673   3.903   5.038  1.1185 -0.1074  2.4551
   59CHL1  H24B 5536   0.608   3.734   5.034 -0.9605  0.0937 -0.6604
   59CHL1   C25 5537   0.781   3.768   5.161  0.0929 -0.1040 -1.4288
   59CHL1   H25 5538   0.822   3.665   5.172  1.6842  0.6884  1.0166
   59CHL1   C26 5539   0.910   3.859   5.167 -0.3287 -0.4654  0.2340
   59CHL1  H26A 5540   0.974   3.828   5.083  1.2317 -0.6532  1.4469
   59CHL1  H26B 5541   0.879   3.965   5.152  1.4752  0.1575  0.6557
   59CHL1  H26C 5542   0.968   3.834   5.258 -0.3084  1.5173  0.8286
   59CHL1   C27 5543   0.694   3.800   5.289  0.3854 -0.2961  0.3679
   59CHL1  H27A 5544   0.751   3.787   5.384 -0.1506  0.9882  0.8836
   59CHL1  H27B 5545   0.665   3.903   5.259  1.2488 -0.8134 -2.6226
   59CHL1  H27C 5546   0.609   3.730   5.300  0.6312 -0.7424 -0.4842
   60CHL1    C3 5547   4.148   1.223   3.833  0.0957  0.1951 -0.1827
   60CHL1    H3 5548   4.169   1.113   3.836  1.5735  0.4415 -0.6819
   60CHL1    O3 5549   4.226   1.286   3.736 -0.1162 -0.2990  0.3110
   60CHL1   H3' 5550   4.199   1.261   3.648 -1.1277 -0.4897  0.6576
   60CHL1    C4 5551   4.004   1.242   3.794  0.2925  0.2906 -0.1988
   60CHL1   H4A 5552   3.977   1.350   3.786 -1.2709  0.0625  1.4956
   60CHL1   H4B 5553   3.996   1.186   3.699 -0.2980 -1.5975  0.9268
   60CHL1    C5 5554   3.916   1.194   3.904  0.5020  0.2038 -0.2835
   60CHL1    C6 5555   3.829   1.099   3.886  0.1501 -0.0238 -0.3790
   60CHL1    H6 5556   3.817   1.062   3.783 -1.1894 -1.4801  0.2612
   60CHL1    C7 5557   3.730   1.043   3.975 -0.2189  0.2054 -0.5154
   60CHL1   H7A 5558   3.631   1.025   3.926 -0.1035  0.5613 -0.8815
   60CHL1   H7B 5559   3.752   0.938   4.006  0.3517  0.2617 -0.7119
   60CHL1    C8 5560   3.710   1.138   4.096  0.4649 -0.4084 -0.4961
   60CHL1    H8 5561   3.643   1.222   4.070 -0.1395 -0.1305  1.7114
   60CHL1   C14 5562   3.637   1.065   4.208  0.1615 -0.3211 -0.3978
   60CHL1   H14 5563   3.702   0.979   4.235 -1.7349 -1.9859 -0.8733
   60CHL1   C15 5564   3.499   1.014   4.180 -0.1104  0.4868  0.5644
   60CHL1  H15A 5565   3.422   1.083   4.139 -0.4209  1.7826  3.1504
   60CHL1  H15B 5566   3.506   0.926   4.113 -2.9389  1.3606 -1.0558
   60CHL1   C16 5567   3.447   0.970   4.321  0.6397  0.3148 -0.0789
   60CHL1  H16A 5568   3.347   1.015   4.341  0.8269 -0.1791  2.2899
   60CHL1  H16B 5569   3.440   0.860   4.321 -3.8780  0.4327 -0.3677
   60CHL1   C17 5570   3.543   1.039   4.424 -0.3077  1.1010 -0.0584
   60CHL1   H17 5571   3.625   0.967   4.444 -0.5799  0.5461 -0.8714
   60CHL1   C13 5572   3.615   1.141   4.336  0.6417 -0.3368 -0.0491
   60CHL1   C18 5573   3.530   1.263   4.318  0.3034 -0.5222 -0.1059
   60CHL1  H18A 5574   3.528   1.316   4.416 -1.6474 -0.1682 -0.3053
   60CHL1  H18B 5575   3.562   1.334   4.239  0.6795 -1.8318 -1.1646
   60CHL1  H18C 5576   3.425   1.234   4.295  0.3604 -0.6556 -0.1949
   60CHL1   C12 5577   3.757   1.170   4.388  0.2386  0.0541 -0.7489
   60CHL1  H12A 5578   3.755   1.231   4.480  4.1512 -0.1470 -0.3728
   60CHL1  H12B 5579   3.815   1.077   4.404  0.8449  0.4466 -0.6517
   60CHL1   C11 5580   3.845   1.245   4.287 -0.1360  0.6530  0.3253
   60CHL1  H11A 5581   3.797   1.345   4.278 -1.1935  0.1500  0.1446
   60CHL1  H11B 5582   3.945   1.254   4.334 -0.4630  2.5437  0.7409
   60CHL1    C9 5583   3.847   1.175   4.149 -0.0648 -0.4125 -0.0347
   60CHL1    H9 5584   3.887   1.073   4.169  1.8844  0.2124 -0.4446
   60CHL1   C10 5585   3.935   1.253   4.048 -0.6282  0.1838  0.2783
   60CHL1   C19 5586   3.888   1.400   4.040  0.0290 -0.3030  0.2352
   60CHL1  H19A 5587   3.779   1.416   4.045 -0.0958 -0.9327 -0.2832
   60CHL1  H19B 5588   3.924   1.449   4.133  0.7377 -0.0517 -0.1609
   60CHL1  H19C 5589   3.936   1.455   3.955  0.7705 -1.8712 -0.3970
   60CHL1    C1 5590   4.087   1.246   4.082 -0.0614 -0.4411  0.0721
   60CHL1   H1A 5591   4.106   1.297   4.179 -2.9023  0.4158  0.2591
   60CHL1   H1B 5592   4.106   1.138   4.098 -0.2421 -0.8413 -2.1196
   60CHL1    C2 5593   4.181   1.298   3.966  1.0831  0.3861  0.1953
   60CHL1   H2A 5594   4.291   1.287   3.979  1.0497  0.1179  0.2505
   60CHL1   H2B 5595   4.168   1.403   3.934  2.3240  0.3528 -0.4564
   60CHL1   C20 5596   3.467   1.081   4.559  0.0116 -0.6596 -0.3292
   60CHL1   H20 5597   3.384   1.148   4.528 -0.2208 -0.0069  1.6176
   60CHL1   C21 5598   3.561   1.149   4.661 -0.3368 -0.2963  0.1457
   60CHL1  H21A 5599   3.516   1.168   4.761 -1.0260  0.2657 -0.2570
   60CHL1  H21B 5600   3.582   1.250   4.619 -2.6881 -0.1411 -0.8579
   60CHL1  H21C 5601   3.655   1.094   4.679 -0.5013 -0.4698  0.4915
   60CHL1   C22 5602   3.396   0.964   4.627  0.6157  0.8250 -0.6971
   60CHL1  H22A 5603   3.366   0.880   4.561 -0.4742  0.1571  0.6011
   60CHL1  H22B 5604   3.472   0.905   4.683 -1.1098  0.2539  1.1318
   60CHL1   C23 5605   3.284   1.004   4.728  0.2999 -0.3034 -0.0347
   60CHL1  H23A 5606   3.317   1.098   4.778  0.9063 -0.5784  0.0855
   60CHL1  H23B 5607   3.197   1.043   4.671  0.5060  0.1838 -0.0265
   60CHL1   C24 5608   3.246   0.892   4.829 -0.5935 -0.1691 -0.0920
   60CHL1  H24A 5609   3.194   0.806   4.783  0.7252 -0.8752 -0.3217
   60CHL1  H24B 5610   3.347   0.851   4.854  0.4578 -0.3967 -3.9896
   60CHL1   C25 5611   3.186   0.957   4.960  0.1109  0.9846  0.4804
   60CHL1   H25 5612   3.249   1.046   4.984 -0.7383  1.5019  0.8281
   60CHL1   C26 5613   3.048   1.031   4.935  0.5399  0.2011  1.2226
   60CHL1  H26A 5614   3.031   1.103   5.017  1.4130  2.5590 -0.5474
   60CHL1  H26B 5615   3.059   1.095   4.845  2.6342 -2.7124 -0.7982
   60CHL1  H26C 5616   2.967   0.959   4.910 -0.6344  1.6467  0.7634
   60CHL1   C27 5617   3.184   0.856   5.078  0.1350  0.5710  0.7368
   60CHL1  H27A 5618   3.284   0.810   5.091  1.0100  1.6103 -1.6262
   60CHL1  H27B 5619   3.165   0.892   5.181  2.9499  0.4893  1.3565
   60CHL1  H27C 5620   3.109   0.777   5.057 -0.1247  0.7671  0.9176
   61CHL1    C3 5621   2.463   0.829   3.667 -0.0048 -0.3314 -0.4591
   61CHL1    H3 5622   2.568   0.860   3.684 -0.1195  0.3858 -1.0033
   61CHL1    O3 5623   2.430   0.896   3.546  0.0140  0.5064  0.0817
   61CHL1   H3' 5624   2.415   0.826   3.482  0.9745  0.9946 -0.7054
   61CHL1    C4 5625   2.440   0.678   3.652 -0.1458  0.1299 -0.2662
   61CHL1   H4A 5626   2.338   0.655   3.616  0.6088  0.0261 -2.5549
   61CHL1   H4B 5627   2.503   0.648   3.565 -0.2937  2.3095 -1.2050
   61CHL1    C5 5628   2.477   0.612   3.781 -0.1239  0.1838  0.2572
   61CHL1    C6 5629   2.577   0.527   3.798 -0.0444  0.1358  0.1627
   61CHL1    H6 5630   2.644   0.489   3.720  1.9154 -4.2865  3.5764
   61CHL1    C7 5631   2.615   0.454   3.921  1.1381 -0.0713  0.6531
   61CHL1   H7A 5632   2.641   0.349   3.896  0.1189 -0.0731 -0.5332
   61CHL1   H7B 5633   2.710   0.498   3.956  0.0528  2.0855  1.1013
   61CHL1    C8 5634   2.512   0.460   4.030  0.2836 -0.2808 -0.0451
   61CHL1    H8 5635   2.430   0.394   3.996  0.0078 -1.1219  2.1178
   61CHL1   C14 5636   2.565   0.410   4.165 -0.7154  0.0227  0.5132
   61CHL1   H14 5637   2.642   0.490   4.180 -1.9998  1.3607  0.2394
   61CHL1   C15 5638   2.651   0.282   4.171 -0.5995 -0.1000  0.0230
   61CHL1  H15A 5639   2.619   0.194   4.111  2.1026 -1.3138  0.2018
   61CHL1  H15B 5640   2.761   0.293   4.164 -0.7949  0.7972 -2.3763
   61CHL1   C16 5641   2.646   0.250   4.324 -0.9582 -0.2706  0.0543
   61CHL1  H16A 5642   2.595   0.152   4.336  1.4451 -1.5650  0.3378
   61CHL1  H16B 5643   2.746   0.238   4.372 -0.4585 -0.0554 -0.9080
   61CHL1   C17 5644   2.564   0.364   4.393 -0.2789  0.1905 -0.1412
   61CHL1   H17 5645   2.640   0.444   4.403  0.1599 -0.0301 -1.4925
   61CHL1   C13 5646   2.469   0.413   4.279 -0.5705  0.4397  0.0131
   61CHL1   C18 5647   2.348   0.318   4.267  0.5440  0.3942 -0.5078
   61CHL1  H18A 5648   2.268   0.357   4.200 -1.9569 -1.6403  1.0721
   61CHL1  H18B 5649   2.383   0.226   4.216  0.5161  1.0407 -1.7409
   61CHL1  H18C 5650   2.302   0.294   4.366 -1.6583 -1.6810 -1.9076
   61CHL1   C12 5651   2.409   0.555   4.290 -0.1040  0.9344  0.0513
   61CHL1  H12A 5652   2.333   0.551   4.371 -0.2373  2.4411  0.0285
   61CHL1  H12B 5653   2.489   0.627   4.315  1.4672 -0.3202 -1.1657
   61CHL1   C11 5654   2.345   0.603   4.157 -0.3100  0.3442  0.7177
   61CHL1  H11A 5655   2.257   0.537   4.140 -0.3205  0.6697 -0.6446
   61CHL1  H11B 5656   2.308   0.708   4.161 -1.3356 -0.0391  2.2725
   61CHL1    C9 5657   2.450   0.594   4.036  0.0456 -0.9229  0.3864
   61CHL1    H9 5658   2.533   0.661   4.066 -1.8570  2.3509 -1.0348
   61CHL1   C10 5659   2.392   0.650   3.907  0.6596  0.3427 -0.2277
   61CHL1   C19 5660   2.250   0.590   3.878  0.5479 -0.1969  0.0641
   61CHL1  H19A 5661   2.172   0.601   3.956  2.3992  0.3026  1.9365
   61CHL1  H19B 5662   2.211   0.628   3.781  1.5795  1.7482  0.3763
   61CHL1  H19C 5663   2.266   0.482   3.858  0.9102 -0.1805  0.2500
   61CHL1    C1 5664   2.391   0.808   3.912  0.1518 -0.7195  0.4553
   61CHL1   H1A 5665   2.331   0.846   3.998 -0.0472 -2.5840  1.2097
   61CHL1   H1B 5666   2.489   0.841   3.952  0.3663 -0.3619 -0.3522
   61CHL1    C2 5667   2.369   0.879   3.780  0.0044  0.2537  0.0928
   61CHL1   H2A 5668   2.382   0.988   3.794 -1.0902  0.1212  2.8345
   61CHL1   H2B 5669   2.262   0.865   3.756 -0.3372  0.7955  1.2257
   61CHL1   C20 5670   2.511   0.332   4.530 -0.2648 -0.1390 -0.1892
   61CHL1   H20 5671   2.422   0.266   4.529 -1.9172  1.9677 -1.6765
   61CHL1   C21 5672   2.464   0.462   4.609 -0.4719  1.1810  0.2063
   61CHL1  H21A 5673   2.394   0.515   4.540 -1.5856 -1.0827 -0.5020
   61CHL1  H21B 5674   2.551   0.529   4.624 -0.5199  1.6684 -1.4399
   61CHL1  H21C 5675   2.411   0.434   4.703 -0.1373 -0.4177 -0.0549
   61CHL1   C22 5676   2.621   0.263   4.616 -0.7692 -0.3245  0.7051
   61CHL1  H22A 5677   2.653   0.174   4.556 -1.3393  0.6568 -1.1406
   61CHL1  H22B 5678   2.705   0.334   4.633 -0.4499 -0.8959  1.5681
   61CHL1   C23 5679   2.568   0.205   4.745 -0.3247  0.4712  0.3437
   61CHL1  H23A 5680   2.529   0.285   4.811 -1.3152 -0.4463  0.8968
   61CHL1  H23B 5681   2.484   0.136   4.723  0.4707  0.2394 -2.3395
   61CHL1   C24 5682   2.685   0.131   4.822 -0.6831  0.3401 -0.1530
   61CHL1  H24A 5683   2.711   0.048   4.753  0.2625 -0.2040  0.8237
   61CHL1  H24B 5684   2.773   0.198   4.817  0.4915 -1.1744 -0.5948
   61CHL1   C25 5685   2.654   0.089   4.964  0.1970  0.2072  0.2218
   61CHL1   H25 5686   2.548   0.056   4.960  0.7918 -1.8979  0.5545
   61CHL1   C26 5687   2.729  -0.043   4.998 -0.2042 -0.1876 -0.2471
   61CHL1  H26A 5688   2.721  -0.118   4.917 -2.4234  0.3586 -0.5879
   61CHL1  H26B 5689   2.836  -0.017   5.016 -0.6761  0.0796  2.7486
   61CHL1  H26C 5690   2.689  -0.092   5.089  2.5843 -3.1332 -0.4263
   61CHL1   C27 5691   2.662   0.205   5.064  0.1544 -0.3490 -0.7657
   61CHL1  H27A 5692   2.580   0.278   5.045 -0.1188 -0.2645  0.6304
   61CHL1  H27B 5693   2.652   0.179   5.171 -0.6017  1.2491 -0.4217
   61CHL1  H27C 5694   2.765   0.244   5.054 -0.1689  0.3529 -1.4726
   62CHL1    C3 5695   5.173   4.193   3.359  1.2680  0.2583 -0.1741
   62CHL1    H3 5696   5.172   4.090   3.403  0.2361  0.8355  1.2245
   62CHL1    O3 5697   5.173   4.163   3.219  0.3810  0.4299  0.2271
   62CHL1   H3' 5698   5.102   4.210   3.174 -2.8188 -1.4123  2.8687
   62CHL1    C4 5699   5.043   4.253   3.403  0.1849  0.0717  0.5419
   62CHL1   H4A 5700   5.031   4.353   3.356  1.3596 -0.0096  0.0345
   62CHL1   H4B 5701   4.959   4.192   3.362 -2.0991  3.0990  0.3847
   62CHL1    C5 5702   5.033   4.271   3.553 -0.7221  0.8310  0.1539
   62CHL1    C6 5703   4.929   4.217   3.621  0.1611 -0.1877 -0.7680
   62CHL1    H6 5704   4.853   4.152   3.576 -0.6824 -0.1642  0.5547
   62CHL1    C7 5705   4.913   4.244   3.771  0.4765 -0.5483  0.5013
   62CHL1   H7A 5706   4.804   4.261   3.786  0.3554 -1.2000  0.3660
   62CHL1   H7B 5707   4.953   4.158   3.827  0.2690  0.2953  1.9984
   62CHL1    C8 5708   4.986   4.376   3.817  0.0400  1.2402  0.1452
   62CHL1    H8 5709   4.935   4.463   3.772 -0.8249  0.1060 -1.1514
   62CHL1   C14 5710   4.985   4.382   3.971 -0.1675 -0.3093  0.1409
   62CHL1   H14 5711   5.037   4.286   3.993  0.8799  0.6262  2.0403
   62CHL1   C15 5712   4.847   4.379   4.044  0.0816 -0.3791 -0.0724
   62CHL1  H15A 5713   4.786   4.463   4.003  1.9803  2.0461  1.7928
   62CHL1  H15B 5714   4.785   4.286   4.046 -1.0207  0.3305  1.6171
   62CHL1   C16 5715   4.889   4.422   4.188  0.3540  0.6557 -0.4438
   62CHL1  H16A 5716   4.826   4.510   4.214  1.9665  1.4392  0.9225
   62CHL1  H16B 5717   4.873   4.340   4.261 -1.3404  1.7605  0.4967
   62CHL1   C17 5718   5.032   4.468   4.178 -0.3397  0.1356  0.4715
   62CHL1   H17 5719   5.097   4.381   4.201  0.3034  0.0022 -1.6358
   62CHL1   C13 5720   5.058   4.503   4.029  0.5585  0.4796  0.5804
   62CHL1   C18 5721   4.994   4.640   4.003  0.0019  0.0011 -0.1157
   62CHL1  H18A 5722   4.996   4.662   3.894  0.8419  0.0560 -0.0987
   62CHL1  H18B 5723   4.892   4.646   4.045 -0.6507 -2.6651 -1.1338
   62CHL1  H18C 5724   5.057   4.719   4.050  1.3882 -0.6034 -0.9011
   62CHL1   C12 5725   5.205   4.502   3.986 -0.4372 -0.3046 -0.0520
   62CHL1  H12A 5726   5.250   4.593   4.031  0.0561  0.4234 -1.9353
   62CHL1  H12B 5727   5.256   4.421   4.043  3.2075 -0.7908 -3.5507
   62CHL1   C11 5728   5.218   4.485   3.834 -0.0024  0.1898 -0.5557
   62CHL1  H11A 5729   5.186   4.586   3.803 -0.9954 -0.1608 -0.7072
   62CHL1  H11B 5730   5.325   4.476   3.806  0.0257 -0.0208 -0.3904
   62CHL1    C9 5731   5.130   4.373   3.775  0.0835  0.4044  0.5212
   62CHL1    H9 5732   5.180   4.283   3.817  0.5864  0.7991  0.7942
   62CHL1   C10 5733   5.142   4.358   3.618  0.4999 -0.2157 -0.4864
   62CHL1   C19 5734   5.126   4.507   3.566 -0.0536  0.4144 -0.3973
   62CHL1  H19A 5735   5.136   4.515   3.456  1.4989 -2.2288 -0.5446
   62CHL1  H19B 5736   5.028   4.545   3.600 -0.5305 -0.1761 -1.0822
   62CHL1  H19C 5737   5.205   4.578   3.597  0.4458 -0.9070  1.5936
   62CHL1    C1 5738   5.275   4.294   3.569  0.7631 -0.1952  0.0394
   62CHL1   H1A 5739   5.355   4.368   3.589  1.1998 -0.1827 -1.5863
   62CHL1   H1B 5740   5.289   4.205   3.633 -1.1982 -0.4096  0.2539
   62CHL1    C2 5741   5.293   4.272   3.414  0.6235  0.5103 -0.3508
   62CHL1   H2A 5742   5.394   4.232   3.390 -0.0816 -0.4338 -1.8922
   62CHL1   H2B 5743   5.273   4.377   3.381 -1.1881  1.2543  2.6982
   62CHL1   C20 5744   5.063   4.576   4.287  0.2599 -0.1627 -0.5072
   62CHL1   H20 5745   5.011   4.669   4.257  0.7825  0.8362  1.5146
   62CHL1   C21 5746   5.209   4.618   4.297  0.0041  0.6087  0.0946
   62CHL1  H21A 5747   5.273   4.527   4.310 -1.1819 -0.3371 -0.5753
   62CHL1  H21B 5748   5.230   4.682   4.386  0.0981  1.5505 -0.5929
   62CHL1  H21C 5749   5.230   4.678   4.206 -0.0941 -2.1834 -1.8991
   62CHL1   C22 5750   5.018   4.539   4.432 -0.4431  0.1460 -0.7180
   62CHL1  H22A 5751   5.045   4.627   4.495 -0.8372  0.5980 -1.1713
   62CHL1  H22B 5752   4.909   4.531   4.451 -0.2053 -3.0120 -0.2028
   62CHL1   C23 5753   5.076   4.420   4.499 -0.4407  0.2377 -0.1462
   62CHL1  H23A 5754   5.039   4.322   4.464 -0.2522 -0.4496  1.4612
   62CHL1  H23B 5755   5.183   4.403   4.474 -0.5656  0.0998 -0.5864
   62CHL1   C24 5756   5.057   4.428   4.651  0.3301  0.8296  0.0528
   62CHL1  H24A 5757   5.124   4.501   4.700  0.0134  0.4062  1.1433
   62CHL1  H24B 5758   4.950   4.437   4.679 -0.2705 -0.4929 -1.6465
   62CHL1   C25 5759   5.108   4.308   4.736  0.0635  0.4095 -0.2750
   62CHL1   H25 5760   5.052   4.217   4.705 -0.2299  0.2633  0.6693
   62CHL1   C26 5761   5.260   4.269   4.711  0.0147 -0.6748  0.4526
   62CHL1  H26A 5762   5.278   4.242   4.605 -2.5068 -0.6601 -0.0366
   62CHL1  H26B 5763   5.310   4.362   4.747 -0.9736 -0.2424  0.7561
   62CHL1  H26C 5764   5.284   4.187   4.781  0.2738 -2.2736 -1.4412
   62CHL1   C27 5765   5.079   4.330   4.879 -0.0749 -0.3774 -0.1440
   62CHL1  H27A 5766   5.100   4.240   4.941 -0.8769 -0.5502 -0.0995
   62CHL1  H27B 5767   5.146   4.411   4.912 -0.3830 -0.3073  0.3245
   62CHL1  H27C 5768   4.973   4.361   4.896  0.7354  1.8725  1.1149
   63CHL1    C3 5769   0.505   4.989   4.090 -0.2893  0.9418 -0.1903
   63CHL1    H3 5770   0.412   4.929   4.095 -0.5365  1.0467 -2.3632
   63CHL1    O3 5771   0.524   5.012   3.955 -0.1078 -0.2851  0.1903
   63CHL1   H3' 5772   0.576   5.092   3.957  0.6794 -0.7083 -1.4659
   63CHL1    C4 5773   0.486   5.117   4.171  0.5581  0.7343  0.0755
   63CHL1   H4A 5774   0.576   5.181   4.154  1.9085 -0.3692  2.5857
   63CHL1   H4B 5775   0.395   5.167   4.132  0.0311 -0.1586  0.1293
   63CHL1    C5 5776   0.479   5.101   4.325  0.6256  0.8262  0.0117
   63CHL1    C6 5777   0.377   5.149   4.394  0.1381 -0.3149 -0.1828
   63CHL1    H6 5778   0.284   5.189   4.351 -0.0193 -1.4522 -0.9335
   63CHL1    C7 5779   0.362   5.137   4.544 -0.2510 -0.6027 -0.4876
   63CHL1   H7A 5780   0.350   5.232   4.601  0.4887 -1.2920  0.8480
   63CHL1   H7B 5781   0.274   5.080   4.580 -0.6047 -0.0943 -0.5311
   63CHL1    C8 5782   0.488   5.070   4.608  0.4327 -0.8830  0.0841
   63CHL1    H8 5783   0.566   5.147   4.626 -1.2755  1.2020 -0.9768
   63CHL1   C14 5784   0.445   5.017   4.746  0.0022  0.2048  0.8564
   63CHL1   H14 5785   0.376   4.930   4.735 -0.7359  0.4060  3.3168
   63CHL1   C15 5786   0.382   5.109   4.858  0.3373 -0.5836  0.4112
   63CHL1  H15A 5787   0.424   5.211   4.866  0.9216 -0.7488 -0.4671
   63CHL1  H15B 5788   0.275   5.130   4.837  1.0596  0.1351 -3.0147
   63CHL1   C16 5789   0.415   5.049   4.988  0.5182 -0.0843 -0.2156
   63CHL1  H16A 5790   0.464   5.121   5.057 -2.1997 -0.9447  2.8418
   63CHL1  H16B 5791   0.320   5.023   5.038  0.7613 -1.1930 -0.3066
   63CHL1   C17 5792   0.493   4.921   4.959  0.3214  0.1447  0.2609
   63CHL1   H17 5793   0.415   4.844   4.939  0.4861  0.6506 -2.6869
   63CHL1   C13 5794   0.560   4.943   4.822 -0.5975 -0.2067  0.4323
   63CHL1   C18 5795   0.674   5.043   4.842 -0.6042 -0.5810 -0.3154
   63CHL1  H18A 5796   0.766   4.987   4.871 -0.2388  0.4427  0.6028
   63CHL1  H18B 5797   0.715   5.091   4.751  0.2886  0.1648  0.4542
   63CHL1  H18C 5798   0.646   5.120   4.918  1.2572  0.2479 -0.4083
   63CHL1   C12 5799   0.600   4.826   4.735  0.5266  0.6287  0.1205
   63CHL1  H12A 5800   0.687   4.768   4.773  1.4239  1.1576 -1.0439
   63CHL1  H12B 5801   0.506   4.771   4.714  0.9866  0.6068 -2.2523
   63CHL1   C11 5802   0.650   4.873   4.595  0.7177 -0.0844  0.0406
   63CHL1  H11A 5803   0.746   4.927   4.611  0.5894 -0.4645  2.5499
   63CHL1  H11B 5804   0.682   4.782   4.539 -2.6457 -0.9225 -0.7412
   63CHL1    C9 5805   0.543   4.957   4.517 -0.5659  0.0565  0.5823
   63CHL1    H9 5806   0.450   4.899   4.500 -1.2080  1.0682  0.5323
   63CHL1   C10 5807   0.588   5.006   4.378 -0.0016  0.2848 -0.0490
   63CHL1   C19 5808   0.720   5.078   4.376  0.2724 -0.3636 -0.4691
   63CHL1  H19A 5809   0.713   5.174   4.431  1.4052 -0.4640 -0.1252
   63CHL1  H19B 5810   0.798   5.018   4.428 -0.0266  0.7636  1.3535
   63CHL1  H19C 5811   0.745   5.105   4.272 -1.0751  1.6997 -0.3135
   63CHL1    C1 5812   0.601   4.872   4.291  0.4390 -0.3575 -0.8257
   63CHL1   H1A 5813   0.689   4.826   4.340 -0.2728 -0.5900  0.2493
   63CHL1   H1B 5814   0.515   4.803   4.306 -0.0046  0.5995  1.3163
   63CHL1    C2 5815   0.618   4.901   4.144 -0.1010 -0.0509  0.0562
   63CHL1   H2A 5816   0.612   4.810   4.081  0.0650 -0.5430  0.7318
   63CHL1   H2B 5817   0.717   4.947   4.127  0.7028 -1.4251  0.8218
   63CHL1   C20 5818   0.588   4.871   5.073 -0.0025  0.6968  0.0638
   63CHL1   H20 5819   0.685   4.925   5.072  0.9136 -0.8164  1.4714
   63CHL1   C21 5820   0.611   4.725   5.060 -1.1128  1.0993  0.5349
   63CHL1  H21A 5821   0.624   4.693   4.955  2.9726 -3.7941  2.1263
   63CHL1  H21B 5822   0.521   4.669   5.095 -1.2344  0.6730 -0.4277
   63CHL1  H21C 5823   0.702   4.700   5.119 -1.3377 -1.8523 -0.2070
   63CHL1   C22 5824   0.524   4.892   5.214 -0.6945 -0.1854  0.4148
   63CHL1  H22A 5825   0.515   5.002   5.213  1.4036  0.0456  1.7783
   63CHL1  H22B 5826   0.431   4.832   5.225 -0.0910 -1.0483  0.9455
   63CHL1   C23 5827   0.623   4.857   5.331  0.3256 -0.1916 -0.0634
   63CHL1  H23A 5828   0.727   4.874   5.296  0.4670  0.6955  0.7572
   63CHL1  H23B 5829   0.603   4.936   5.406  2.3820  0.1380  0.1820
   63CHL1   C24 5830   0.596   4.717   5.399 -0.3614  0.2689 -0.4015
   63CHL1  H24A 5831   0.515   4.731   5.474  0.0792 -0.0067  0.1266
   63CHL1  H24B 5832   0.555   4.651   5.319 -1.3505 -0.4709  0.6941
   63CHL1   C25 5833   0.722   4.655   5.458  1.1186 -0.1844  0.6805
   63CHL1   H25 5834   0.781   4.727   5.519 -1.0464  0.9393  1.5344
   63CHL1   C26 5835   0.698   4.533   5.536  0.8780  0.5756 -0.1617
   63CHL1  H26A 5836   0.792   4.491   5.577  1.4301  1.2297 -0.7135
   63CHL1  H26B 5837   0.623   4.553   5.615 -0.2387 -1.6320 -0.5882
   63CHL1  H26C 5838   0.652   4.454   5.473  0.6390  1.7092 -1.4751
   63CHL1   C27 5839   0.813   4.595   5.344  0.6264  0.2706 -0.3615
   63CHL1  H27A 5840   0.876   4.512   5.383 -1.4016 -0.2338  2.0796
   63CHL1  H27B 5841   0.752   4.555   5.260  3.0368  0.1679 -2.1688
   63CHL1  H27C 5842   0.868   4.680   5.299  0.9213  1.2800  1.8172
   64CHL1    C3 5843   6.268   0.725   3.499 -0.1462  0.0834 -0.6174
   64CHL1    H3 5844   6.298   0.620   3.518 -1.8644 -0.1518  1.0637
   64CHL1    O3 5845   6.243   0.733   3.361  0.7814  0.0518 -0.4752
   64CHL1   H3' 5846   6.203   0.819   3.347  0.9088  0.2864  0.5344
   64CHL1    C4 5847   6.138   0.764   3.572 -0.5195 -0.1151 -0.9346
   64CHL1   H4A 5848   6.118   0.865   3.530  0.9536  0.2502 -0.8129
   64CHL1   H4B 5849   6.062   0.686   3.547 -0.1018 -0.9829  0.3997
   64CHL1    C5 5850   6.160   0.768   3.723 -0.5202  0.8380  0.0669
   64CHL1    C6 5851   6.088   0.697   3.813  0.9149  0.3282 -0.3236
   64CHL1    H6 5852   6.002   0.633   3.787  0.0655  0.7183  1.3611
   64CHL1    C7 5853   6.117   0.694   3.956  0.7698  0.1090 -0.6088
   64CHL1   H7A 5854   6.025   0.734   4.003  0.8920  0.4010 -0.6213
   64CHL1   H7B 5855   6.135   0.588   3.985 -0.3182 -0.8406 -3.0543
   64CHL1    C8 5856   6.219   0.796   4.008  0.2181  0.2849 -0.4711
   64CHL1    H8 5857   6.163   0.892   4.017  0.0607  0.1429  0.1430
   64CHL1   C14 5858   6.264   0.742   4.146  0.0667 -0.3799 -0.2952
   64CHL1   H14 5859   6.309   0.647   4.111 -0.0405 -0.5704  0.0737
   64CHL1   C15 5860   6.164   0.707   4.257 -0.0641 -0.0627  0.0060
   64CHL1  H15A 5861   6.100   0.797   4.261 -1.1156 -0.8418  1.3811
   64CHL1  H15B 5862   6.100   0.619   4.233 -1.1804  0.7626 -0.1231
   64CHL1   C16 5863   6.244   0.693   4.386 -0.1141  0.1492  0.8920
   64CHL1  H16A 5864   6.204   0.762   4.464  0.9399 -0.7907  2.3209
   64CHL1  H16B 5865   6.236   0.589   4.427  0.3658 -0.0023  0.6082
   64CHL1   C17 5866   6.388   0.733   4.342 -0.3637 -0.0273 -0.2609
   64CHL1   H17 5867   6.436   0.640   4.302  0.8236  0.2392  0.4879
   64CHL1   C13 5868   6.375   0.817   4.215 -0.4784 -0.0525  0.2877
   64CHL1   C18 5869   6.324   0.959   4.253 -0.0720  0.5250 -0.3825
   64CHL1  H18A 5870   6.241   0.946   4.326 -1.0150 -2.4242 -1.8527
   64CHL1  H18B 5871   6.410   1.011   4.302 -1.1032  0.8585  1.1532
   64CHL1  H18C 5872   6.290   1.019   4.166 -2.0963  0.2611  0.1749
   64CHL1   C12 5873   6.494   0.824   4.114 -0.7455 -0.3842 -0.1210
   64CHL1  H12A 5874   6.581   0.884   4.147  0.1314 -1.8978  0.3910
   64CHL1  H12B 5875   6.527   0.718   4.109  0.7700  0.0213  0.5694
   64CHL1   C11 5876   6.461   0.877   3.975  0.1089  0.4391 -0.2319
   64CHL1  H11A 5877   6.454   0.987   3.962  0.9155  0.3472 -1.7047
   64CHL1  H11B 5878   6.547   0.860   3.906 -0.6681  2.1971 -1.7236
   64CHL1    C9 5879   6.337   0.805   3.914 -0.0062 -0.0482  0.2163
   64CHL1    H9 5880   6.378   0.701   3.909 -1.5587 -0.6488 -0.8377
   64CHL1   C10 5881   6.291   0.841   3.771  0.0920  0.4838  0.1891
   64CHL1   C19 5882   6.277   0.995   3.752 -0.0725  0.0926 -0.3318
   64CHL1  H19A 5883   6.212   1.058   3.818 -0.2189 -1.7945  1.4318
   64CHL1  H19B 5884   6.380   1.038   3.760 -0.5889  1.4035 -0.4094
   64CHL1  H19C 5885   6.237   1.015   3.651 -0.4820 -1.2971 -0.4652
   64CHL1    C1 5886   6.409   0.800   3.681  0.6197  0.2196  0.0661
   64CHL1   H1A 5887   6.496   0.870   3.684  0.0920  0.9852 -1.4849
   64CHL1   H1B 5888   6.442   0.695   3.696  2.2298  0.7528  0.5770
   64CHL1    C2 5889   6.376   0.815   3.531  0.1713 -0.1734  0.7549
   64CHL1   H2A 5890   6.464   0.796   3.466 -1.3317 -0.7397 -1.2620
   64CHL1   H2B 5891   6.356   0.923   3.515  1.1813 -0.2240 -1.1589
   64CHL1   C20 5892   6.462   0.794   4.463  0.1391 -0.5365  1.2824
   64CHL1   H20 5893   6.404   0.881   4.499 -0.3580  0.4571 -1.6277
   64CHL1   C21 5894   6.608   0.835   4.423  0.4748  0.1013  0.1123
   64CHL1  H21A 5895   6.674   0.868   4.506  1.9012 -0.5106 -0.7331
   64CHL1  H21B 5896   6.613   0.929   4.363  1.1580  0.9996  1.5168
   64CHL1  H21C 5897   6.666   0.754   4.375 -2.9180 -1.5914 -1.4887
   64CHL1   C22 5898   6.474   0.691   4.578 -0.1999 -0.2811  0.1435
   64CHL1  H22A 5899   6.403   0.605   4.577 -0.1620 -0.3201  0.5828
   64CHL1  H22B 5900   6.573   0.640   4.582 -0.1307 -0.0906  1.2263
   64CHL1   C23 5901   6.462   0.766   4.712 -0.3910  0.0837 -0.2272
   64CHL1  H23A 5902   6.551   0.832   4.715 -0.4655  0.1644  0.6352
   64CHL1  H23B 5903   6.373   0.833   4.707 -0.5263  0.0722  1.3986
   64CHL1   C24 5904   6.447   0.680   4.836 -0.5550  0.6903  0.4646
   64CHL1  H24A 5905   6.343   0.641   4.847 -0.2592 -1.3480 -2.6868
   64CHL1  H24B 5906   6.508   0.588   4.827 -1.4439  0.3154 -3.7772
   64CHL1   C25 5907   6.469   0.754   4.968 -0.1733  0.0589  0.1577
   64CHL1   H25 5908   6.575   0.787   4.969 -0.0401 -0.3729  1.4436
   64CHL1   C26 5909   6.374   0.876   4.985 -0.5846 -0.1900  0.3845
   64CHL1  H26A 5910   6.268   0.846   5.000 -0.1196 -2.5158 -0.5601
   64CHL1  H26B 5911   6.405   0.925   5.080 -0.6349 -1.3064  0.9922
   64CHL1  H26C 5912   6.391   0.940   4.896  1.0159  0.3397  1.0418
   64CHL1   C27 5913   6.445   0.661   5.088  0.3425  0.4328  0.2910
   64CHL1  H27A 5914   6.471   0.713   5.183  1.9374  1.5063 -0.6881
   64CHL1  H27B 5915   6.350   0.603   5.080  0.5987  0.0985 -0.4646
   64CHL1  H27C 5916   6.514   0.574   5.087 -0.4201 -0.2008  0.9432
   65CHL1    C3 5917   2.829   5.687   4.142  0.3055  0.1777  0.3402
   65CHL1    H3 5918   2.767   5.595   4.134 -0.0015  0.2427  1.7640
   65CHL1    O3 5919   2.852   5.732   4.006  0.0060  0.3052  0.5747
   65CHL1   H3' 5920   2.914   5.804   4.018 -0.9466  1.2854 -0.2558
   65CHL1    C4 5921   2.749   5.797   4.220  0.3811  0.6821 -0.0001
   65CHL1   H4A 5922   2.808   5.891   4.222  1.1669  0.2468 -1.2940
   65CHL1   H4B 5923   2.654   5.810   4.163  0.3159  0.3305  0.0235
   65CHL1    C5 5924   2.721   5.746   4.360 -0.5327  0.0551 -0.4140
   65CHL1    C6 5925   2.598   5.733   4.402  0.1365 -0.2076  0.2097
   65CHL1    H6 5926   2.524   5.763   4.326 -1.8771  0.2511  2.2667
   65CHL1    C7 5927   2.555   5.679   4.534  0.7359 -0.7675 -1.1884
   65CHL1   H7A 5928   2.479   5.747   4.578  0.1836 -1.1190 -1.5768
   65CHL1   H7B 5929   2.517   5.575   4.527  0.3165 -0.5088 -5.4289
   65CHL1    C8 5930   2.667   5.687   4.635 -0.7955 -0.0726 -0.3807
   65CHL1    H8 5931   2.704   5.790   4.653 -1.9912  1.0943 -3.8370
   65CHL1   C14 5932   2.626   5.616   4.769 -0.9011  0.4835  0.8817
   65CHL1   H14 5933   2.611   5.510   4.741 -2.0380  1.2023 -1.5232
   65CHL1   C15 5934   2.498   5.661   4.841 -0.2119 -0.2331 -0.0115
   65CHL1  H15A 5935   2.494   5.772   4.847  4.3470  0.2848 -2.2091
   65CHL1  H15B 5936   2.412   5.612   4.790 -0.6683 -1.2865  1.6708
   65CHL1   C16 5937   2.514   5.598   4.983  0.6288 -0.7660  0.0061
   65CHL1  H16A 5938   2.504   5.681   5.055  2.8501 -1.5306  1.2785
   65CHL1  H16B 5939   2.439   5.518   4.999  1.7697 -1.3342  3.3236
   65CHL1   C17 5940   2.654   5.539   4.992  0.6898  0.0623 -0.4178
   65CHL1   H17 5941   2.656   5.431   4.968 -0.0549  0.1110 -0.7262
   65CHL1   C13 5942   2.732   5.603   4.871  0.4113  0.2934 -0.5715
   65CHL1   C18 5943   2.765   5.745   4.919 -0.3746 -0.2130 -0.0222
   65CHL1  H18A 5944   2.685   5.786   4.984  1.9568  2.4126  1.4340
   65CHL1  H18B 5945   2.857   5.742   4.982 -0.7773 -0.1570  0.5821
   65CHL1  H18C 5946   2.777   5.819   4.838 -2.1168 -0.2876 -0.3735
   65CHL1   C12 5947   2.847   5.515   4.805 -0.3924 -0.7155 -0.0480
   65CHL1  H12A 5948   2.927   5.510   4.882 -0.7968  0.3358  0.4646
   65CHL1  H12B 5949   2.814   5.410   4.787  1.5266 -1.3175 -0.2442
   65CHL1   C11 5950   2.904   5.584   4.677  0.1423  0.5839  0.8161
   65CHL1  H11A 5951   2.979   5.664   4.697  1.5249  0.0750 -1.8374
   65CHL1  H11B 5952   2.965   5.501   4.635  0.5316  1.2351  0.0713
   65CHL1    C9 5953   2.794   5.632   4.574 -1.0001 -0.2401  0.1737
   65CHL1    H9 5954   2.765   5.532   4.535  0.9085  0.3453 -3.0968
   65CHL1   C10 5955   2.844   5.707   4.445  0.0249 -0.7576  0.0280
   65CHL1   C19 5956   2.924   5.836   4.480 -0.3168 -0.6318 -0.6478
   65CHL1  H19A 5957   3.018   5.814   4.537 -1.1901  2.0509  2.0813
   65CHL1  H19B 5958   2.959   5.891   4.390  0.1669  0.3119  0.0937
   65CHL1  H19C 5959   2.869   5.916   4.533  0.2818  0.9005 -2.2277
   65CHL1    C1 5960   2.928   5.606   4.351  0.3000  0.5239  0.4033
   65CHL1   H1A 5961   3.018   5.561   4.398 -1.0637 -0.7472  1.8915
   65CHL1   H1B 5962   2.863   5.517   4.338  0.2814  0.4896  0.7128
   65CHL1    C2 5963   2.956   5.652   4.214 -0.0222 -0.5053  0.2042
   65CHL1   H2A 5964   3.009   5.582   4.146 -0.3942  1.2299 -1.9742
   65CHL1   H2B 5965   3.021   5.742   4.220 -1.4618  0.4774  2.4322
   65CHL1   C20 5966   2.720   5.554   5.126  0.4389  0.6200  0.3398
   65CHL1   H20 5967   2.700   5.659   5.157  0.9217  0.8662 -0.1732
   65CHL1   C21 5968   2.868   5.524   5.131 -0.1244 -0.2745  0.3033
   65CHL1  H21A 5969   2.936   5.599   5.086  0.1331  0.6393  2.1194
   65CHL1  H21B 5970   2.887   5.426   5.084  0.9736  0.2484 -0.3699
   65CHL1  H21C 5971   2.901   5.511   5.237 -0.4495 -1.3853  0.2813
   65CHL1   C22 5972   2.652   5.462   5.239 -0.3677  0.1567 -0.3738
   65CHL1  H22A 5973   2.688   5.502   5.336 -2.4406 -0.1288  0.5660
   65CHL1  H22B 5974   2.543   5.483   5.235 -0.4060 -0.2148 -1.5189
   65CHL1   C23 5975   2.690   5.316   5.224  0.1424 -0.1481 -0.2651
   65CHL1  H23A 5976   2.717   5.290   5.119  2.0850  1.1243 -0.1473
   65CHL1  H23B 5977   2.779   5.292   5.288  0.0629  0.7210  0.1869
   65CHL1   C24 5978   2.579   5.218   5.271  0.0427 -0.3213  0.9737
   65CHL1  H24A 5979   2.489   5.235   5.208  1.0435 -0.2449 -0.4920
   65CHL1  H24B 5980   2.611   5.112   5.265  0.1778 -0.2533  0.3134
   65CHL1   C25 5981   2.532   5.234   5.414  0.0644  0.7556 -0.3010
   65CHL1   H25 5982   2.503   5.340   5.422 -0.3596  0.6374 -0.2407
   65CHL1   C26 5983   2.419   5.150   5.450  0.3315 -0.7850 -0.1906
   65CHL1  H26A 5984   2.434   5.040   5.450  1.6726 -0.7485  3.3517
   65CHL1  H26B 5985   2.371   5.166   5.549 -0.3686  2.3366 -0.9454
   65CHL1  H26C 5986   2.336   5.175   5.381 -0.3020 -0.2885  0.7267
   65CHL1   C27 5987   2.648   5.219   5.513 -0.2594  0.4969  0.0221
   65CHL1  H27A 5988   2.607   5.248   5.612 -1.7856 -1.2513 -0.0239
   65CHL1  H27B 5989   2.695   5.118   5.516 -0.0723  0.4489 -2.3579
   65CHL1  H27C 5990   2.721   5.299   5.492  1.2899  0.0448  3.0613
   66CHL1    C3 5991   3.548   0.209   3.664 -0.3454  0.3394 -0.3097
   66CHL1    H3 5992   3.523   0.312   3.695 -1.8533 -0.3650  1.0218
   66CHL1    O3 5993   3.547   0.196   3.523 -0.5247 -0.6669  0.3374
   66CHL1   H3' 5994   3.595   0.117   3.496 -2.2877 -2.4592  2.1211
   66CHL1    C4 5995   3.695   0.179   3.715  0.1165  0.0250 -0.3619
   66CHL1   H4A 5996   3.727   0.090   3.657 -0.0635  0.1149 -0.6036
   66CHL1   H4B 5997   3.754   0.266   3.681  1.1439 -0.7729 -0.6491
   66CHL1    C5 5998   3.704   0.162   3.866 -0.2344 -0.1160 -0.2294
   66CHL1    C6 5999   3.787   0.236   3.938  0.6462  0.2359  0.1028
   66CHL1    H6 6000   3.858   0.311   3.899  3.0395 -1.7993  0.2425
   66CHL1    C7 6001   3.792   0.241   4.088  0.0990 -0.4129 -0.2264
   66CHL1   H7A 6002   3.895   0.247   4.129  0.4961  1.1009 -1.3722
   66CHL1   H7B 6003   3.729   0.326   4.122 -1.7617 -2.0626  0.6732
   66CHL1    C8 6004   3.735   0.114   4.142 -0.6128  0.3209 -0.2549
   66CHL1    H8 6005   3.813   0.036   4.127  0.1476  1.1016 -0.4058
   66CHL1   C14 6006   3.722   0.130   4.296  0.8523 -0.4309 -0.7338
   66CHL1   H14 6007   3.651   0.212   4.318  1.4267 -0.0147 -0.4101
   66CHL1   C15 6008   3.843   0.163   4.373  0.5440  0.4768  0.1779
   66CHL1  H15A 6009   3.934   0.109   4.341  0.0181  1.4378 -3.2887
   66CHL1  H15B 6010   3.864   0.272   4.366 -0.2574  0.7016  1.0315
   66CHL1   C16 6011   3.812   0.148   4.519 -0.2388 -0.0085 -0.4750
   66CHL1  H16A 6012   3.894   0.095   4.572 -0.9211 -0.5949  0.0130
   66CHL1  H16B 6013   3.795   0.249   4.561  0.8739  0.6692 -1.5803
   66CHL1   C17 6014   3.677   0.066   4.516  0.4130 -0.3938  0.0591
   66CHL1   H17 6015   3.601   0.147   4.517 -0.8596 -1.5400 -0.9561
   66CHL1   C13 6016   3.665   0.009   4.366  0.9303 -0.5763 -0.6773
   66CHL1   C18 6017   3.761  -0.111   4.350 -0.0399  0.1509  0.2844
   66CHL1  H18A 6018   3.717  -0.189   4.416 -0.2890 -0.1367 -0.2132
   66CHL1  H18B 6019   3.768  -0.143   4.244  1.7036  1.5261 -0.0540
   66CHL1  H18C 6020   3.859  -0.085   4.394 -0.1599  1.3559 -0.1069
   66CHL1   C12 6021   3.520  -0.022   4.313 -0.3191  0.2295 -0.5594
   66CHL1  H12A 6022   3.482  -0.111   4.367 -0.4041 -0.0358 -1.0458
   66CHL1  H12B 6023   3.458   0.068   4.334 -1.2461 -0.1501 -1.5288
   66CHL1   C11 6024   3.517  -0.038   4.167  0.3099 -0.6401  0.4902
   66CHL1  H11A 6025   3.560  -0.138   4.144  0.2544 -0.1035 -2.4030
   66CHL1  H11B 6026   3.409  -0.030   4.141  1.2134  1.4774 -3.3918
   66CHL1    C9 6027   3.595   0.077   4.090 -0.2229 -0.4461 -0.1488
   66CHL1    H9 6028   3.540   0.171   4.114  0.2509 -0.2144  0.0555
   66CHL1   C10 6029   3.605   0.062   3.938 -0.1892 -0.1690  0.1428
   66CHL1   C19 6030   3.640  -0.079   3.891  0.0066  0.4912  0.9019
   66CHL1  H19A 6031   3.573  -0.153   3.940  0.5006 -0.6945 -0.1455
   66CHL1  H19B 6032   3.644  -0.104   3.783 -0.7541 -1.0427  1.1885
   66CHL1  H19C 6033   3.732  -0.113   3.944  0.5342 -1.4231 -1.0996
   66CHL1    C1 6034   3.459   0.090   3.884 -0.6566  0.1082 -0.6397
   66CHL1   H1A 6035   3.384   0.014   3.914 -0.8452  0.5037 -0.0873
   66CHL1   H1B 6036   3.425   0.187   3.927 -2.5519  0.1207 -2.0574
   66CHL1    C2 6037   3.450   0.109   3.729  0.0856  0.6953 -0.3012
   66CHL1   H2A 6038   3.344   0.128   3.705  0.3953  1.6249 -1.0151
   66CHL1   H2B 6039   3.477   0.011   3.684 -2.6578 -1.1908  1.8754
   66CHL1   C20 6040   3.638  -0.031   4.629 -0.5701 -0.5825 -0.4755
   66CHL1   H20 6041   3.672  -0.136   4.619 -0.7683 -0.5839 -1.1334
   66CHL1   C21 6042   3.479  -0.031   4.646  0.2396 -0.8133 -0.0447
   66CHL1  H21A 6043   3.434   0.071   4.649 -0.4558 -1.0560 -1.4706
   66CHL1  H21B 6044   3.446  -0.079   4.741 -0.5806 -0.3112 -0.0590
   66CHL1  H21C 6045   3.440  -0.089   4.560  0.4025 -1.3691  0.2571
   66CHL1   C22 6046   3.702   0.011   4.754  0.4964  0.3454 -0.6098
   66CHL1  H22A 6047   3.811  -0.003   4.742  0.5532  1.0139 -0.8734
   66CHL1  H22B 6048   3.679   0.115   4.784  0.4692  0.7171 -1.8756
   66CHL1   C23 6049   3.663  -0.073   4.879 -0.0836  0.1315  0.9372
   66CHL1  H23A 6050   3.580  -0.146   4.864 -1.1573  1.5806 -0.4931
   66CHL1  H23B 6051   3.745  -0.138   4.916  0.5764  1.3535  1.6793
   66CHL1   C24 6052   3.620   0.018   4.989  0.1334  0.1636 -0.5106
   66CHL1  H24A 6053   3.683   0.110   4.985  0.4186  0.0696  1.1599
   66CHL1  H24B 6054   3.514   0.049   4.974  0.1871  0.9532  0.6312
   66CHL1   C25 6055   3.622  -0.031   5.135 -0.4912  0.5193 -0.3078
   66CHL1   H25 6056   3.593   0.052   5.202 -0.4472 -0.7448  1.3490
   66CHL1   C26 6057   3.525  -0.153   5.158 -0.2202 -0.8411 -0.0784
   66CHL1  H26A 6058   3.423  -0.134   5.118 -0.7121 -0.8062  1.1447
   66CHL1  H26B 6059   3.553  -0.252   5.115  4.7905  0.3949 -0.2704
   66CHL1  H26C 6060   3.502  -0.154   5.267 -0.3245 -0.6876 -0.0983
   66CHL1   C27 6061   3.769  -0.067   5.176 -0.1465  0.2638 -0.3080
   66CHL1  H27A 6062   3.831   0.025   5.168 -1.5673  1.4633  1.6063
   66CHL1  H27B 6063   3.809  -0.150   5.114 -0.4471 -1.1327  1.2928
   66CHL1  H27C 6064   3.780  -0.099   5.282 -3.4532  1.9036  0.6526
   67CHL1    C3 6065   6.834   1.340   3.423 -0.5241  0.6862 -0.2072
   67CHL1    H3 6066   6.911   1.413   3.454 -0.9591  1.7405 -1.5132
   67CHL1    O3 6067   6.823   1.321   3.288 -0.0583 -0.3017 -0.6417
   67CHL1   H3' 6068   6.735   1.289   3.267 -0.8401  1.3323 -0.0266
   67CHL1    C4 6069   6.884   1.209   3.490 -0.0574 -0.3038  0.7908
   67CHL1   H4A 6070   6.816   1.126   3.463  1.3208 -1.2436  0.0937
   67CHL1   H4B 6071   6.983   1.182   3.446  0.0423  0.6023  0.4315
   67CHL1    C5 6072   6.882   1.206   3.640  1.0315  0.5411 -0.5621
   67CHL1    C6 6073   6.982   1.161   3.715  0.1300  0.0158  0.3547
   67CHL1    H6 6074   7.071   1.121   3.664  0.8702  1.1657  0.6810
   67CHL1    C7 6075   6.997   1.155   3.862 -0.2691  0.3283 -0.1667
   67CHL1   H7A 6076   7.038   1.057   3.893  2.1310  1.3649  0.1372
   67CHL1   H7B 6077   7.069   1.231   3.899  0.3704 -0.0108 -0.7134
   67CHL1    C8 6078   6.860   1.184   3.928 -0.0651 -0.3851  0.0087
   67CHL1    H8 6079   6.795   1.094   3.927 -0.3544 -0.1886  0.5296
   67CHL1   C14 6080   6.887   1.228   4.071 -0.0464  0.1514 -1.0669
   67CHL1   H14 6081   6.954   1.316   4.059 -1.6670  1.3908 -1.3808
   67CHL1   C15 6082   6.969   1.125   4.157 -0.1201 -0.0842 -0.7583
   67CHL1  H15A 6083   6.931   1.021   4.141  0.8611 -0.8142  1.2158
   67CHL1  H15B 6084   7.078   1.131   4.139  0.0577  1.8381  0.6453
   67CHL1   C16 6085   6.935   1.174   4.300  0.2736  0.1582  0.3203
   67CHL1  H16A 6086   6.893   1.085   4.352 -1.2296 -0.2440 -1.4792
   67CHL1  H16B 6087   7.018   1.231   4.347  0.9523 -1.9830  1.8499
   67CHL1   C17 6088   6.827   1.288   4.293 -0.0667 -0.0780  0.3121
   67CHL1   H17 6089   6.881   1.385   4.300 -1.6317  0.7783  0.7448
   67CHL1   C13 6090   6.768   1.269   4.153 -0.2915 -0.7837  0.0535
   67CHL1   C18 6091   6.662   1.157   4.155  0.8232 -0.0551  0.7984
   67CHL1  H18A 6092   6.567   1.193   4.198  0.3332  0.9794 -1.0431
   67CHL1  H18B 6093   6.633   1.138   4.050  0.0588  0.0833  0.9816
   67CHL1  H18C 6094   6.697   1.057   4.190  1.7748 -0.4578 -1.1395
   67CHL1   C12 6095   6.717   1.395   4.083  0.0955  0.2130 -0.1441
   67CHL1  H12A 6096   6.632   1.440   4.139  0.2073 -1.0516  1.0833
   67CHL1  H12B 6097   6.803   1.466   4.084 -0.5805  1.0564  0.4092
   67CHL1   C11 6098   6.678   1.369   3.938 -0.1232 -0.6095 -0.4402
   67CHL1  H11A 6099   6.581   1.315   3.936 -0.4847 -0.0678  1.0812
   67CHL1  H11B 6100   6.658   1.469   3.893 -0.0089 -1.0799 -1.5625
   67CHL1    C9 6101   6.790   1.304   3.855  0.3785  0.3167 -0.2164
   67CHL1    H9 6102   6.868   1.382   3.844  2.4406 -1.2651  2.0339
   67CHL1   C10 6103   6.754   1.270   3.709  0.0618 -0.4964  0.0564
   67CHL1   C19 6104   6.637   1.167   3.707  0.1637  0.1427  0.2773
   67CHL1  H19A 6105   6.551   1.198   3.771  0.0156 -0.5572  0.4231
   67CHL1  H19B 6106   6.602   1.140   3.605  1.5572 -0.8158  0.0377
   67CHL1  H19C 6107   6.673   1.072   3.751 -0.4323 -0.3363 -0.2467
   67CHL1    C1 6108   6.718   1.402   3.638 -0.1504 -0.4002 -0.0693
   67CHL1   H1A 6109   6.623   1.445   3.675 -0.5249 -2.0423  0.9995
   67CHL1   H1B 6110   6.796   1.477   3.663  0.5193 -1.0364 -0.2267
   67CHL1    C2 6111   6.706   1.377   3.486 -0.2809 -0.5813  0.1674
   67CHL1   H2A 6112   6.656   1.464   3.438 -2.4116 -0.6048  2.1532
   67CHL1   H2B 6113   6.642   1.289   3.467  0.1410 -0.8480 -0.0348
   67CHL1   C20 6114   6.732   1.286   4.409 -0.4791  0.1931 -0.0859
   67CHL1   H20 6115   6.678   1.189   4.407  0.7872 -0.5382  0.3083
   67CHL1   C21 6116   6.652   1.415   4.418  0.1107 -0.2685 -0.6143
   67CHL1  H21A 6117   6.607   1.424   4.519 -0.6531 -3.4673 -0.5831
   67CHL1  H21B 6118   6.576   1.422   4.337 -0.1208 -0.2584 -0.3981
   67CHL1  H21C 6119   6.712   1.509   4.412  2.3295 -1.5846 -0.1896
   67CHL1   C22 6120   6.803   1.273   4.548  0.0957 -0.2782 -0.1780
   67CHL1  H22A 6121   6.853   1.174   4.546 -0.0255 -0.3413 -0.0665
   67CHL1  H22B 6122   6.877   1.355   4.564  0.4764 -1.0380  2.3324
   67CHL1   C23 6123   6.711   1.261   4.672 -0.1083  1.1963 -0.4233
   67CHL1  H23A 6124   6.655   1.356   4.686 -1.0042  0.4888  1.0682
   67CHL1  H23B 6125   6.645   1.176   4.642  1.8882 -0.5237 -0.1753
   67CHL1   C24 6126   6.793   1.228   4.803 -0.5634 -0.2845 -0.3315
   67CHL1  H24A 6127   6.892   1.279   4.795 -1.3963  1.5365  0.4062
   67CHL1  H24B 6128   6.732   1.264   4.889 -0.4849  1.5266 -0.9851
   67CHL1   C25 6129   6.828   1.081   4.816  0.9671 -0.7446  0.2403
   67CHL1   H25 6130   6.889   1.050   4.729  1.5831  0.0190  0.3881
   67CHL1   C26 6131   6.921   1.085   4.941 -0.0100  0.3806 -0.2224
   67CHL1  H26A 6132   7.015   1.142   4.922  0.7387 -1.0923 -1.1539
   67CHL1  H26B 6133   6.877   1.143   5.025  1.8223  1.7524 -0.1331
   67CHL1  H26C 6134   6.951   0.987   4.983 -0.0688  0.1311 -0.7496
   67CHL1   C27 6135   6.704   0.994   4.831  0.1729 -0.2327  0.0115
   67CHL1  H27A 6136   6.729   0.889   4.855 -1.4813 -0.9541 -1.1995
   67CHL1  H27B 6137   6.639   1.032   4.913  2.1984 -1.1563  2.1436
   67CHL1  H27C 6138   6.640   0.987   4.741  0.8687 -3.3918 -0.3623
   68CHL1    C3 6139   5.706   3.723   3.380 -1.1462 -0.2323 -0.6886
   68CHL1    H3 6140   5.753   3.650   3.449  0.5076  0.0058 -1.5211
   68CHL1    O3 6141   5.741   3.698   3.245  0.0295  0.5934 -0.0222
   68CHL1   H3' 6142   5.726   3.783   3.203 -0.6969 -0.0163 -1.0685
   68CHL1    C4 6143   5.550   3.707   3.385 -0.5566  0.2333 -0.5486
   68CHL1   H4A 6144   5.508   3.766   3.300  0.7253 -0.5659 -1.7878
   68CHL1   H4B 6145   5.536   3.602   3.351  2.2564 -0.5459  0.4435
   68CHL1    C5 6146   5.487   3.735   3.516 -0.1188  0.2142 -0.6490
   68CHL1    C6 6147   5.407   3.648   3.584  0.2163 -0.1307 -0.1994
   68CHL1    H6 6148   5.364   3.561   3.532 -0.1390 -0.5826  0.8310
   68CHL1    C7 6149   5.358   3.659   3.726 -0.3394  0.4491 -0.3714
   68CHL1   H7A 6150   5.261   3.606   3.735 -0.2525 -0.1485 -2.3839
   68CHL1   H7B 6151   5.431   3.598   3.784 -0.3389  0.3806 -0.4430
   68CHL1    C8 6152   5.366   3.800   3.781 -0.4538  0.1130 -0.1930
   68CHL1    H8 6153   5.292   3.863   3.727  0.5031  0.1364 -1.5081
   68CHL1   C14 6154   5.343   3.796   3.931 -0.6909 -0.3251 -0.4734
   68CHL1   H14 6155   5.424   3.740   3.982 -0.3769 -1.3994 -2.0635
   68CHL1   C15 6156   5.215   3.721   3.982 -0.0425 -0.6359 -0.6556
   68CHL1  H15A 6157   5.132   3.753   3.915 -0.0458 -2.9530 -1.8295
   68CHL1  H15B 6158   5.218   3.610   3.983 -1.0695 -0.6726 -0.5397
   68CHL1   C16 6159   5.207   3.778   4.127  0.3395  0.7274 -0.3966
   68CHL1  H16A 6160   5.102   3.815   4.124  0.3371  1.0261  1.8573
   68CHL1  H16B 6161   5.222   3.710   4.214  0.1064  1.5499  0.2975
   68CHL1   C17 6162   5.307   3.896   4.141  0.3031  0.0266 -0.2007
   68CHL1   H17 6163   5.401   3.861   4.189 -0.7464 -1.4740  0.8590
   68CHL1   C13 6164   5.347   3.937   4.006 -0.7900 -0.2057  0.6457
   68CHL1   C18 6165   5.236   4.026   3.945 -0.2272  0.0421 -0.1740
   68CHL1  H18A 6166   5.134   3.987   3.967 -0.4561  1.0036  0.5279
   68CHL1  H18B 6167   5.243   4.129   3.983  2.0280  0.3106 -1.1729
   68CHL1  H18C 6168   5.248   4.042   3.835 -1.3981 -0.1247 -0.3412
   68CHL1   C12 6169   5.484   3.997   3.981  0.1074 -0.0981 -0.6563
   68CHL1  H12A 6170   5.493   4.097   4.028  0.5646 -1.2093  1.8141
   68CHL1  H12B 6171   5.556   3.937   4.041  0.1486  1.2637  0.7165
   68CHL1   C11 6172   5.524   3.997   3.830  0.9990  0.1143  0.1170
   68CHL1  H11A 6173   5.462   4.078   3.786 -1.8653 -1.6242  0.6600
   68CHL1  H11B 6174   5.628   4.034   3.822  1.5639 -1.1961  0.9426
   68CHL1    C9 6175   5.509   3.863   3.752 -0.1499  0.1233 -0.2476
   68CHL1    H9 6176   5.582   3.795   3.799  0.9043 -1.2061 -3.5427
   68CHL1   C10 6177   5.544   3.860   3.599 -0.5726  0.2434 -0.0770
   68CHL1   C19 6178   5.476   3.983   3.541  0.1158  0.1705 -0.0038
   68CHL1  H19A 6179   5.518   4.010   3.442  1.7594 -2.8463 -0.2496
   68CHL1  H19B 6180   5.368   3.961   3.522  0.0625  1.3739 -1.2779
   68CHL1  H19C 6181   5.481   4.078   3.598  0.9941  2.8309 -4.0679
   68CHL1    C1 6182   5.701   3.870   3.581 -0.1652 -0.1385  0.0977
   68CHL1   H1A 6183   5.726   3.970   3.622 -1.0372  0.2257 -0.2226
   68CHL1   H1B 6184   5.747   3.787   3.638 -1.7266 -1.4320 -0.4207
   68CHL1    C2 6185   5.753   3.865   3.435  0.1031 -0.0021  0.3292
   68CHL1   H2A 6186   5.864   3.871   3.434  0.1595 -0.9910 -0.2600
   68CHL1   H2B 6187   5.719   3.955   3.380  1.0667 -0.1399 -0.5346
   68CHL1   C20 6188   5.249   3.999   4.237 -1.3512  0.6643  0.9963
   68CHL1   H20 6189   5.153   4.041   4.202 -1.0437  1.4807  1.1007
   68CHL1   C21 6190   5.356   4.114   4.242 -1.2241  0.2801 -0.6831
   68CHL1  H21A 6191   5.333   4.177   4.330 -0.8130 -0.3025 -0.1487
   68CHL1  H21B 6192   5.364   4.174   4.149 -1.4788 -0.5590 -1.2530
   68CHL1  H21C 6193   5.458   4.075   4.264 -1.1771  1.5349  1.6380
   68CHL1   C22 6194   5.216   3.941   4.377  0.4758  0.2292 -0.5385
   68CHL1  H22A 6195   5.191   4.028   4.442  1.9490 -0.2904  0.7748
   68CHL1  H22B 6196   5.125   3.879   4.361  0.4876  0.2573 -0.7216
   68CHL1   C23 6197   5.329   3.865   4.448 -0.0122 -0.1583  0.7692
   68CHL1  H23A 6198   5.334   3.758   4.419  0.9556  0.6202 -2.3059
   68CHL1  H23B 6199   5.424   3.921   4.430 -0.4978  0.4059 -0.1021
   68CHL1   C24 6200   5.300   3.863   4.607  0.6918 -0.5409 -0.1088
   68CHL1  H24A 6201   5.301   3.973   4.625  3.1050 -0.2216 -1.8072
   68CHL1  H24B 6202   5.203   3.816   4.636 -0.7924  1.7923 -0.9676
   68CHL1   C25 6203   5.404   3.787   4.690 -0.4936  0.2210  0.2477
   68CHL1   H25 6204   5.398   3.684   4.649 -1.7388  0.4100 -0.0828
   68CHL1   C26 6205   5.536   3.849   4.667 -0.6265 -0.3210  0.1413
   68CHL1  H26A 6206   5.606   3.790   4.730 -0.9102  0.2848  1.0598
   68CHL1  H26B 6207   5.583   3.844   4.567 -1.4888  4.8375 -0.8034
   68CHL1  H26C 6208   5.547   3.957   4.694 -1.7331  0.0174 -0.6958
   68CHL1   C27 6209   5.369   3.792   4.840  0.7821  0.0041 -1.3491
   68CHL1  H27A 6210   5.446   3.749   4.908  0.2288  0.5526 -0.3616
   68CHL1  H27B 6211   5.371   3.896   4.877  2.8385 -0.4780  0.1143
   68CHL1  H27C 6212   5.268   3.747   4.845  0.4535  0.4539 -3.3712
   69CHL1    C3 6213   2.355   4.887   3.790 -0.9263 -0.3191 -0.4462
   69CHL1    H3 6214   2.368   4.782   3.757  2.4076 -0.2568  0.3276
   69CHL1    O3 6215   2.294   4.960   3.683  0.5725 -0.2142 -0.1392
   69CHL1   H3' 6216   2.247   4.887   3.643 -0.7018 -0.7643  2.2014
   69CHL1    C4 6217   2.271   4.889   3.921 -0.4648  0.2244 -0.3037
   69CHL1   H4A 6218   2.256   4.998   3.937 -1.1503  0.0100  0.6054
   69CHL1   H4B 6219   2.169   4.848   3.905 -1.1514  0.8543  2.0341
   69CHL1    C5 6220   2.343   4.826   4.038  0.2889  0.3585 -0.4539
   69CHL1    C6 6221   2.281   4.729   4.104 -0.2302  0.3576 -0.2708
   69CHL1    H6 6222   2.177   4.704   4.078 -0.5234  0.6591  0.5758
   69CHL1    C7 6223   2.341   4.657   4.226 -0.7137  0.6015 -0.8291
   69CHL1   H7A 6224   2.264   4.655   4.306  1.0557 -0.8040  0.9339
   69CHL1   H7B 6225   2.362   4.549   4.209 -1.4539  0.4346 -0.6955
   69CHL1    C8 6226   2.456   4.746   4.292 -0.6304  0.2286 -0.2914
   69CHL1    H8 6227   2.413   4.832   4.347 -1.4182 -0.6323  0.4778
   69CHL1   C14 6228   2.532   4.661   4.390  0.1161 -0.4569  0.2772
   69CHL1   H14 6229   2.561   4.571   4.332 -0.6328 -0.8682  0.5334
   69CHL1   C15 6230   2.459   4.598   4.508  0.1035 -0.5266 -0.1782
   69CHL1  H15A 6231   2.396   4.671   4.564  0.3883 -0.4702  0.0658
   69CHL1  H15B 6232   2.400   4.514   4.464 -1.7593  0.5256  0.2122
   69CHL1   C16 6233   2.567   4.550   4.604  0.1151 -0.7727  0.8582
   69CHL1  H16A 6234   2.559   4.589   4.708 -0.0720 -1.6861  1.1946
   69CHL1  H16B 6235   2.570   4.439   4.609  2.2791 -0.9683 -2.1108
   69CHL1   C17 6236   2.708   4.605   4.547  0.2175  0.1118  0.1950
   69CHL1   H17 6237   2.751   4.522   4.486 -0.1221  0.3760 -0.4167
   69CHL1   C13 6238   2.665   4.716   4.445  0.6962 -0.2646  0.1382
   69CHL1   C18 6239   2.639   4.843   4.532  0.4628 -0.1246 -0.7149
   69CHL1  H18A 6240   2.581   4.924   4.483  0.4271  1.3490  1.6490
   69CHL1  H18B 6241   2.584   4.822   4.626  2.0746 -0.6667  0.1558
   69CHL1  H18C 6242   2.735   4.894   4.554 -0.3355  0.7389  0.9551
   69CHL1   C12 6243   2.759   4.754   4.323 -0.2130 -0.3980  0.3360
   69CHL1  H12A 6244   2.856   4.800   4.351  0.5044 -1.8476  0.3412
   69CHL1  H12B 6245   2.786   4.668   4.257  0.8724 -0.6984  1.1452
   69CHL1   C11 6246   2.693   4.841   4.216 -0.0094 -0.5217 -0.4953
   69CHL1  H11A 6247   2.685   4.944   4.256 -1.0499  0.1869 -2.3858
   69CHL1  H11B 6248   2.758   4.839   4.126 -0.9052 -1.3616 -1.1409
   69CHL1    C9 6249   2.552   4.792   4.173  0.9695 -0.2136  0.1006
   69CHL1    H9 6250   2.577   4.698   4.119 -0.7796 -0.4294 -0.3939
   69CHL1   C10 6251   2.485   4.878   4.059 -0.5631 -0.2393  0.3003
   69CHL1   C19 6252   2.484   5.020   4.119 -0.3344  0.1815  0.1929
   69CHL1  H19A 6253   2.577   5.080   4.115 -1.0864  1.3643 -0.1353
   69CHL1  H19B 6254   2.409   5.077   4.059 -1.9841 -0.3669  1.6290
   69CHL1  H19C 6255   2.448   5.021   4.224  0.5779  1.4642  0.5199
   69CHL1    C1 6256   2.566   4.873   3.922 -0.6657 -0.8881 -0.1994
   69CHL1   H1A 6257   2.662   4.929   3.924 -1.3089  0.4432 -2.6308
   69CHL1   H1B 6258   2.568   4.771   3.879 -1.6836 -0.5940 -1.0101
   69CHL1    C2 6259   2.493   4.950   3.812 -0.1216  0.0114  0.3282
   69CHL1   H2A 6260   2.538   4.940   3.711 -2.6160  1.3440 -1.0170
   69CHL1   H2B 6261   2.485   5.061   3.823 -0.7365 -0.1566  1.9019
   69CHL1   C20 6262   2.809   4.624   4.659 -0.0992  0.1636 -0.3164
   69CHL1   H20 6263   2.758   4.699   4.724 -0.5422 -0.3306 -0.0882
   69CHL1   C21 6264   2.943   4.678   4.600  0.0807  0.9439 -0.3345
   69CHL1  H21A 6265   2.983   4.602   4.530 -1.0328  0.7624 -0.8044
   69CHL1  H21B 6266   3.021   4.690   4.678  0.3694  1.2158 -0.6588
   69CHL1  H21C 6267   2.921   4.775   4.549  0.3985  2.4674  2.2320
   69CHL1   C22 6268   2.817   4.500   4.747 -0.2394  0.2974 -0.1751
   69CHL1  H22A 6269   2.717   4.453   4.758 -0.0637 -0.1613 -0.4791
   69CHL1  H22B 6270   2.872   4.421   4.690 -0.6274 -0.4054  0.4011
   69CHL1   C23 6271   2.879   4.513   4.885 -0.6096 -0.1610 -0.2460
   69CHL1  H23A 6272   2.975   4.568   4.880 -0.4798 -0.2933  0.6211
   69CHL1  H23B 6273   2.810   4.575   4.946 -0.9850 -0.4138 -0.4106
   69CHL1   C24 6274   2.900   4.377   4.961  0.2614 -0.6415 -0.2925
   69CHL1  H24A 6275   2.801   4.327   4.967  0.2311 -0.7455 -1.3628
   69CHL1  H24B 6276   2.963   4.309   4.900 -0.5529  0.3000 -2.2937
   69CHL1   C25 6277   2.941   4.394   5.104  0.0863 -0.1046 -0.0919
   69CHL1   H25 6278   2.860   4.458   5.147  2.1034  1.9995  0.8204
   69CHL1   C26 6279   2.948   4.256   5.177  0.0795 -0.1987  0.1367
   69CHL1  H26A 6280   2.956   4.259   5.288 -0.5586  1.7621  0.1625
   69CHL1  H26B 6281   2.857   4.204   5.141  0.4564  0.4872 -1.9074
   69CHL1  H26C 6282   3.040   4.205   5.143 -0.2010  0.8830 -2.4469
   69CHL1   C27 6283   3.070   4.468   5.137  0.0122 -0.2450  0.3232
   69CHL1  H27A 6284   3.154   4.396   5.134 -1.2761 -1.8361  0.9711
   69CHL1  H27B 6285   3.103   4.553   5.074 -1.7320  1.8010  1.9814
   69CHL1  H27C 6286   3.064   4.504   5.243  3.3406  1.0612  0.2093
   70CHL1    C3 6287   0.154   3.903   3.540 -0.3630  0.5202  0.3322
   70CHL1    H3 6288   0.260   3.873   3.524 -0.6261 -0.6436  0.6214
   70CHL1    O3 6289   0.086   3.913   3.414  0.0798  0.0278  0.4027
   70CHL1   H3' 6290  -0.003   3.891   3.442 -0.8257  1.3679 -1.2759
   70CHL1    C4 6291   0.081   3.794   3.621 -0.1733  0.2028 -0.1987
   70CHL1   H4A 6292  -0.029   3.808   3.632 -0.0238  1.8063 -0.5580
   70CHL1   H4B 6293   0.079   3.698   3.564 -2.4024  0.6881 -1.0356
   70CHL1    C5 6294   0.147   3.769   3.756  0.2437  0.2128  0.5699
   70CHL1    C6 6295   0.184   3.655   3.804  0.3518  0.1040  0.2652
   70CHL1    H6 6296   0.172   3.561   3.748 -2.6817 -0.1605  1.1892
   70CHL1    C7 6297   0.220   3.627   3.947 -0.1949 -0.1013  0.1086
   70CHL1   H7A 6298   0.163   3.538   3.982 -0.2295 -0.7963 -1.6256
   70CHL1   H7B 6299   0.328   3.598   3.950  0.0846  0.9141  0.2755
   70CHL1    C8 6300   0.179   3.744   4.039  0.2482 -0.4419  0.2413
   70CHL1    H8 6301   0.069   3.738   4.055  0.3248 -3.6737  0.1729
   70CHL1   C14 6302   0.240   3.734   4.180  0.2335 -0.0059  0.2785
   70CHL1   H14 6303   0.350   3.748   4.167 -0.2638  2.1949 -2.7831
   70CHL1   C15 6304   0.233   3.592   4.250  0.4314  0.3121 -0.4432
   70CHL1  H15A 6305   0.133   3.544   4.239 -0.2022  0.7767  2.5004
   70CHL1  H15B 6306   0.307   3.522   4.206 -1.1940 -0.6982 -1.6685
   70CHL1   C16 6307   0.251   3.625   4.396  0.5715 -0.2359  0.3864
   70CHL1  H16A 6308   0.164   3.597   4.460 -1.3256  2.0676 -0.9843
   70CHL1  H16B 6309   0.340   3.583   4.448  0.4104  0.4971  1.2740
   70CHL1   C17 6310   0.257   3.785   4.404 -0.4530 -0.6547 -0.2649
   70CHL1   H17 6311   0.367   3.805   4.398 -0.8553  1.4214 -1.7710
   70CHL1   C13 6312   0.192   3.836   4.276  0.1362  0.4143 -0.0121
   70CHL1   C18 6313   0.033   3.837   4.297 -0.0387 -0.2645  0.0327
   70CHL1  H18A 6314   0.006   3.736   4.334 -1.9066  0.3350  0.3936
   70CHL1  H18B 6315   0.007   3.922   4.363  0.4874  0.0943 -0.2099
   70CHL1  H18C 6316  -0.023   3.848   4.202 -0.5603 -0.9807  0.2522
   70CHL1   C12 6317   0.239   3.969   4.218 -0.4107  0.6400  0.0554
   70CHL1  H12A 6318   0.224   4.053   4.289 -3.8730  0.1194  0.1023
   70CHL1  H12B 6319   0.349   3.962   4.204 -0.4963 -0.2844 -0.2149
   70CHL1   C11 6320   0.173   3.999   4.090  0.4880  0.4845 -0.1734
   70CHL1  H11A 6321   0.063   4.011   4.101  0.3671 -0.7213  0.0197
   70CHL1  H11B 6322   0.206   4.094   4.042  2.0627 -0.0289 -0.1412
   70CHL1    C9 6323   0.195   3.883   3.978  0.1851  0.2159 -0.1933
   70CHL1    H9 6324   0.304   3.888   3.954  0.3828  0.4980  0.7222
   70CHL1   C10 6325   0.135   3.901   3.838  0.5029  0.7658  0.0029
   70CHL1   C19 6326  -0.014   3.937   3.849  0.4577  0.5255 -0.6572
   70CHL1  H19A 6327  -0.076   3.848   3.876  2.5442 -1.6616 -2.6101
   70CHL1  H19B 6328  -0.039   4.013   3.926 -0.6777 -0.5524  0.1007
   70CHL1  H19C 6329  -0.058   3.983   3.759  0.0905 -1.6674 -1.6716
   70CHL1    C1 6330   0.205   4.022   3.759  0.2765  0.1303 -0.6194
   70CHL1   H1A 6331   0.207   4.114   3.822 -1.3852 -0.4457  0.3138
   70CHL1   H1B 6332   0.308   3.982   3.746 -0.3763 -1.6766 -0.4802
   70CHL1    C2 6333   0.152   4.039   3.610 -0.1353  0.1207  0.0788
   70CHL1   H2A 6334   0.212   4.109   3.549  1.8010 -1.0973  0.5189
   70CHL1   H2B 6335   0.045   4.067   3.599 -0.2820 -0.8923 -1.3581
   70CHL1   C20 6336   0.215   3.842   4.548 -0.5728  0.0759  0.3382
   70CHL1   H20 6337   0.105   3.827   4.546 -0.4292 -1.2098  1.1221
   70CHL1   C21 6338   0.229   3.996   4.551  0.0939  0.1910 -0.0024
   70CHL1  H21A 6339   0.334   4.025   4.572 -0.2006  0.7525  0.7518
   70CHL1  H21B 6340   0.184   4.032   4.646  1.2681 -0.8107  0.9660
   70CHL1  H21C 6341   0.186   4.059   4.471 -1.3136 -1.3980 -0.5555
   70CHL1   C22 6342   0.282   3.767   4.665  0.0167  0.3693 -0.3930
   70CHL1  H22A 6343   0.282   3.657   4.651 -0.1815  0.3898 -0.5613
   70CHL1  H22B 6344   0.381   3.814   4.682 -0.2909  0.7842  0.2911
   70CHL1   C23 6345   0.221   3.790   4.806 -0.3541 -0.2175  0.4499
   70CHL1  H23A 6346   0.209   3.898   4.830  0.2962  0.1743 -0.9116
   70CHL1  H23B 6347   0.115   3.757   4.806  0.1245 -1.8717 -0.2397
   70CHL1   C24 6348   0.297   3.706   4.907 -0.3592  0.3124 -0.4168
   70CHL1  H24A 6349   0.296   3.600   4.876 -0.1279  0.2685 -0.2766
   70CHL1  H24B 6350   0.406   3.730   4.907  0.3608 -2.3968 -2.4707
   70CHL1   C25 6351   0.259   3.715   5.058 -0.3090  0.1991  0.1999
   70CHL1   H25 6352   0.284   3.810   5.110 -1.5431 -0.1161  1.4468
   70CHL1   C26 6353   0.109   3.697   5.081  0.2063  0.2761  0.2283
   70CHL1  H26A 6354   0.076   3.749   5.173 -1.4404 -0.2343 -0.0321
   70CHL1  H26B 6355   0.049   3.739   4.997 -0.1462 -0.6642 -0.0054
   70CHL1  H26C 6356   0.081   3.589   5.080 -1.0066  0.5714  0.4899
   70CHL1   C27 6357   0.337   3.609   5.143  0.1396  0.3488  0.1751
   70CHL1  H27A 6358   0.288   3.601   5.242  2.3657  0.2299  1.3249
   70CHL1  H27B 6359   0.335   3.510   5.093  2.8767  1.3952 -2.2997
   70CHL1  H27C 6360   0.438   3.654   5.157  0.1102  0.5101 -0.1180
   71CHL1    C3 6361   0.835   5.795   3.830 -0.5581 -0.6455  0.5660
   71CHL1    H3 6362   0.738   5.752   3.862 -1.3260 -0.5737 -1.5664
   71CHL1    O3 6363   0.862   5.783   3.695 -0.2121 -0.8279 -0.5246
   71CHL1   H3' 6364   0.950   5.820   3.688 -0.9726  1.1591 -0.1529
   71CHL1    C4 6365   0.822   5.949   3.851 -0.2340  0.3428 -0.0864
   71CHL1   H4A 6366   0.898   6.015   3.804  0.6558 -1.3990 -1.2183
   71CHL1   H4B 6367   0.736   5.993   3.796 -0.6917  1.2625  1.3232
   71CHL1    C5 6368   0.814   5.973   3.999  0.2648  0.2779 -0.0700
   71CHL1    C6 6369   0.699   6.034   4.042 -0.1051 -0.1802  0.2422
   71CHL1    H6 6370   0.629   6.079   3.971  1.7158  3.2942  0.4698
   71CHL1    C7 6371   0.670   6.057   4.185 -0.3021  0.4526  0.0661
   71CHL1   H7A 6372   0.633   6.161   4.199  0.3101  0.6432  0.2921
   71CHL1   H7B 6373   0.596   5.981   4.217  0.1907 -0.4649 -0.8962
   71CHL1    C8 6374   0.799   6.052   4.277  0.1971 -0.1189  0.5912
   71CHL1    H8 6375   0.853   6.148   4.262 -0.5528  0.5216  1.8353
   71CHL1   C14 6376   0.746   6.036   4.428  0.8009  0.2349 -0.1133
   71CHL1   H14 6377   0.680   5.947   4.422 -0.3117  1.1286 -2.5710
   71CHL1   C15 6378   0.671   6.158   4.480 -0.2187 -0.3332 -0.7702
   71CHL1  H15A 6379   0.727   6.251   4.455 -1.3274  1.1002  1.6323
   71CHL1  H15B 6380   0.572   6.178   4.432  0.2897  1.6970 -1.0771
   71CHL1   C16 6381   0.665   6.132   4.632  0.1718 -0.0043  0.2017
   71CHL1  H16A 6382   0.697   6.225   4.684 -3.4467  0.8583  1.1698
   71CHL1  H16B 6383   0.570   6.100   4.679 -0.7285 -0.8654 -2.0432
   71CHL1   C17 6384   0.768   6.016   4.659 -0.7936  0.5281  0.4569
   71CHL1   H17 6385   0.711   5.921   4.662  0.4621 -0.2196  2.3269
   71CHL1   C13 6386   0.856   6.007   4.532  0.4024  0.2320 -0.5703
   71CHL1   C18 6387   0.960   6.117   4.533  0.0744  0.1239 -0.2357
   71CHL1  H18A 6388   1.030   6.086   4.613 -0.1443  0.3335  0.0372
   71CHL1  H18B 6389   1.025   6.128   4.443  1.6340 -0.3449  0.8035
   71CHL1  H18C 6390   0.916   6.214   4.566  1.0425 -0.2073  2.2049
   71CHL1   C12 6391   0.926   5.875   4.489 -1.2075 -0.1928 -0.4223
   71CHL1  H12A 6392   1.013   5.850   4.553 -0.3959  0.0223 -1.4284
   71CHL1  H12B 6393   0.856   5.788   4.496 -0.5793 -0.5722  2.0926
   71CHL1   C11 6394   0.983   5.879   4.343  0.3217  0.0069 -0.3011
   71CHL1  H11A 6395   1.060   5.958   4.334  0.0674  0.2603 -0.2620
   71CHL1  H11B 6396   1.031   5.783   4.316 -1.9155 -1.4117  0.4405
   71CHL1    C9 6397   0.876   5.922   4.236  0.0931 -0.1594  0.5922
   71CHL1    H9 6398   0.795   5.846   4.240 -0.0713 -0.3137 -2.7043
   71CHL1   C10 6399   0.922   5.916   4.088 -0.0898  0.5548  0.0210
   71CHL1   C19 6400   1.049   5.997   4.064  0.4817  0.5449 -0.0640
   71CHL1  H19A 6401   1.128   5.970   4.138 -0.5788 -3.3910 -0.1191
   71CHL1  H19B 6402   1.092   5.982   3.963  1.4556 -1.0451  0.5358
   71CHL1  H19C 6403   1.024   6.105   4.063  0.6123  0.6078  1.2198
   71CHL1    C1 6404   0.942   5.764   4.055  0.6271  0.2865  0.1479
   71CHL1   H1A 6405   1.031   5.722   4.106  0.4667 -0.1335  0.0903
   71CHL1   H1B 6406   0.857   5.702   4.090  1.8574 -0.2474  2.3515
   71CHL1    C2 6407   0.950   5.734   3.904 -0.0459  0.3151 -0.5325
   71CHL1   H2A 6408   0.963   5.624   3.898  3.9005  0.6181 -0.5124
   71CHL1   H2B 6409   1.047   5.769   3.862 -0.9245  0.3625 -2.6383
   71CHL1   C20 6410   0.848   6.026   4.788  0.9940 -0.5674 -0.0870
   71CHL1   H20 6411   0.916   6.114   4.783  0.6434 -0.1666  1.6802
   71CHL1   C21 6412   0.924   5.897   4.830 -0.1491  0.1135  0.3032
   71CHL1  H21A 6413   0.958   5.920   4.933 -0.8749 -1.1451  0.8405
   71CHL1  H21B 6414   1.010   5.879   4.762 -0.3845  1.2043 -0.3096
   71CHL1  H21C 6415   0.863   5.805   4.844 -0.5919  0.0984 -1.4984
   71CHL1   C22 6416   0.753   6.063   4.908  0.1533  0.1289  0.0244
   71CHL1  H22A 6417   0.813   6.079   5.000 -0.4282  1.6422  0.1861
   71CHL1  H22B 6418   0.724   6.169   4.888 -1.0167 -0.1759 -0.0027
   71CHL1   C23 6419   0.632   5.974   4.943  0.1616  0.2324 -0.7032
   71CHL1  H23A 6420   0.564   5.965   4.856 -1.8617  0.8488  0.7365
   71CHL1  H23B 6421   0.659   5.869   4.968  0.5921 -0.7573 -4.6747
   71CHL1   C24 6422   0.546   6.039   5.053 -0.0848 -0.1743  1.1298
   71CHL1  H24A 6423   0.615   6.036   5.141  0.8620 -4.8682  0.5196
   71CHL1  H24B 6424   0.537   6.139   5.006  1.1516  0.8138  2.8805
   71CHL1   C25 6425   0.406   5.968   5.077  0.1640 -0.6496 -0.2190
   71CHL1   H25 6426   0.351   5.955   4.981 -0.2639 -0.2978 -0.0265
   71CHL1   C26 6427   0.410   5.828   5.145 -0.3373  0.8305  0.0843
   71CHL1  H26A 6428   0.306   5.788   5.152 -0.6601  1.0000 -2.8115
   71CHL1  H26B 6429   0.484   5.774   5.083  0.1568  1.6677 -0.0713
   71CHL1  H26C 6430   0.449   5.849   5.247 -0.6041 -0.2124  0.4207
   71CHL1   C27 6431   0.322   6.061   5.162 -0.0932 -0.0530 -0.1018
   71CHL1  H27A 6432   0.374   6.068   5.260  0.5137 -0.4847 -0.3868
   71CHL1  H27B 6433   0.311   6.164   5.122 -1.1829  0.2697  0.9520
   71CHL1  H27C 6434   0.223   6.011   5.157 -0.5232  0.3857  2.5518
   72CHL1    C3 6435   3.014   0.703   3.691  0.2298 -0.1816 -0.3551
   72CHL1    H3 6436   2.945   0.617   3.705  0.4840 -0.2497  0.5539
   72CHL1    O3 6437   3.041   0.737   3.550  0.1277 -0.1245 -0.4439
   72CHL1   H3' 6438   3.052   0.832   3.557 -0.1225 -0.1622  0.6934
   72CHL1    C4 6439   2.964   0.826   3.754 -0.1821  0.5652  0.3641
   72CHL1   H4A 6440   3.044   0.902   3.742 -0.7841  1.2718  0.7512
   72CHL1   H4B 6441   2.867   0.843   3.703  1.3725  1.0845 -2.6110
   72CHL1    C5 6442   2.930   0.796   3.901  0.1431 -0.3907  0.6329
   72CHL1    C6 6443   2.809   0.810   3.953  1.0836 -0.0027 -0.3103
   72CHL1    H6 6444   2.727   0.848   3.890  1.1342  1.8794  0.6767
   72CHL1    C7 6445   2.766   0.795   4.095  0.1025  0.6199 -0.8035
   72CHL1   H7A 6446   2.696   0.875   4.125 -2.5908 -1.2319 -1.8296
   72CHL1   H7B 6447   2.719   0.696   4.114  0.2285  0.7475  0.2101
   72CHL1    C8 6448   2.888   0.784   4.185 -0.1825 -0.4159 -0.1959
   72CHL1    H8 6449   2.934   0.883   4.205  1.4207 -0.7007 -2.1576
   72CHL1   C14 6450   2.852   0.725   4.317 -0.3105  0.1305  0.0692
   72CHL1   H14 6451   2.814   0.625   4.290 -2.6433  1.2812 -1.2401
   72CHL1   C15 6452   2.736   0.806   4.385 -0.2041  0.8854 -0.4775
   72CHL1  H15A 6453   2.762   0.911   4.413  4.0896 -0.5088  1.6156
   72CHL1  H15B 6454   2.640   0.803   4.328  0.4350 -0.4931 -1.5387
   72CHL1   C16 6455   2.728   0.736   4.523  0.5396 -0.2451  0.7436
   72CHL1  H16A 6456   2.706   0.807   4.606 -2.2196 -0.1324  0.0223
   72CHL1  H16B 6457   2.639   0.670   4.526 -1.0364  1.7177 -0.2948
   72CHL1   C17 6458   2.861   0.653   4.534  0.2408 -0.4236 -0.0703
   72CHL1   H17 6459   2.842   0.548   4.502 -0.7097 -0.6256  1.0853
   72CHL1   C13 6460   2.955   0.704   4.428  0.2754 -0.3377 -0.1635
   72CHL1   C18 6461   3.008   0.844   4.469  0.1534  0.3779  0.0726
   72CHL1  H18A 6462   3.054   0.911   4.393  1.7295 -0.4591  0.2316
   72CHL1  H18B 6463   2.924   0.897   4.519  1.2360  1.2697  0.9998
   72CHL1  H18C 6464   3.085   0.830   4.548 -0.7127 -0.4380  0.7955
   72CHL1   C12 6465   3.062   0.613   4.373 -0.1934 -0.1534 -0.1988
   72CHL1  H12A 6466   3.153   0.613   4.436 -0.3300  0.6945  0.0153
   72CHL1  H12B 6467   3.019   0.511   4.359  0.7518 -0.5292 -0.4021
   72CHL1   C11 6468   3.111   0.660   4.228 -0.0279 -0.0846 -0.1937
   72CHL1  H11A 6469   3.166   0.756   4.242  0.5347 -0.7675  3.5574
   72CHL1  H11B 6470   3.163   0.574   4.181  0.1396 -0.9661  1.4945
   72CHL1    C9 6471   2.994   0.693   4.123 -0.0904  0.0339 -0.9511
   72CHL1    H9 6472   2.939   0.599   4.103 -2.1592  1.2282 -1.2210
   72CHL1   C10 6473   3.048   0.750   3.988 -0.6516  0.3900 -0.7480
   72CHL1   C19 6474   3.141   0.866   4.025 -0.6165  0.0956 -0.7990
   72CHL1  H19A 6475   3.234   0.820   4.065 -1.4302  0.1228  1.2673
   72CHL1  H19B 6476   3.176   0.919   3.934  1.1529 -0.1670 -0.3090
   72CHL1  H19C 6477   3.095   0.942   4.092 -0.8663  2.2732 -3.2739
   72CHL1    C1 6478   3.124   0.630   3.913  0.4598  0.2047  0.1386
   72CHL1   H1A 6479   3.212   0.597   3.973 -1.1515  0.4445  2.8329
   72CHL1   H1B 6480   3.046   0.550   3.914 -0.2741  0.8730 -1.5190
   72CHL1    C2 6481   3.149   0.660   3.761 -0.2420 -1.0920 -0.1237
   72CHL1   H2A 6482   3.188   0.573   3.704  0.3810  0.2200 -1.7846
   72CHL1   H2B 6483   3.215   0.748   3.745 -2.4842  1.4257  3.2498
   72CHL1   C20 6484   2.900   0.645   4.687 -0.2429  0.3528 -0.5395
   72CHL1   H20 6485   2.941   0.741   4.725  0.9483 -0.5671  0.6089
   72CHL1   C21 6486   3.025   0.554   4.691  0.6336 -1.2319 -0.2886
   72CHL1  H21A 6487   3.013   0.458   4.635  1.0315 -0.4316 -1.8053
   72CHL1  H21B 6488   3.048   0.534   4.798 -0.9474  0.9967  0.5251
   72CHL1  H21C 6489   3.113   0.606   4.646  1.0041 -0.8652  0.8089
   72CHL1   C22 6490   2.792   0.599   4.791 -0.0036 -0.4775 -0.8698
   72CHL1  H22A 6491   2.697   0.651   4.768  1.9631  2.5000 -3.2254
   72CHL1  H22B 6492   2.785   0.489   4.781 -3.0956 -0.8986  3.3792
   72CHL1   C23 6493   2.833   0.624   4.936 -0.4211  0.3948 -0.1643
   72CHL1  H23A 6494   2.930   0.575   4.960 -1.0758 -0.2634  1.2938
   72CHL1  H23B 6495   2.858   0.732   4.932 -0.2410  0.3789  0.4283
   72CHL1   C24 6496   2.736   0.593   5.050 -0.3289 -0.4053  0.3405
   72CHL1  H24A 6497   2.639   0.640   5.023 -0.3947 -1.0009 -0.5111
   72CHL1  H24B 6498   2.723   0.483   5.040  0.9620 -0.3817 -2.8258
   72CHL1   C25 6499   2.775   0.651   5.180  0.0300 -0.0433  0.3942
   72CHL1   H25 6500   2.764   0.761   5.171 -1.3853 -0.3313 -2.7095
   72CHL1   C26 6501   2.665   0.607   5.274 -0.2102  0.5142 -0.0073
   72CHL1  H26A 6502   2.681   0.630   5.382  2.8184  4.0388 -0.9984
   72CHL1  H26B 6503   2.564   0.636   5.240 -0.1736  1.1005  0.3656
   72CHL1  H26C 6504   2.658   0.496   5.274 -0.7797  0.4376  3.3914
   72CHL1   C27 6505   2.911   0.584   5.229 -0.3519 -0.6720 -0.2558
   72CHL1  H27A 6506   3.005   0.613   5.177 -0.1631 -0.3494  0.2534
   72CHL1  H27B 6507   2.917   0.613   5.336 -2.1344 -3.3522  0.6475
   72CHL1  H27C 6508   2.898   0.474   5.221 -1.6126 -0.7480  2.0446
   73CHL1    C3 6509   3.095   4.904   6.984 -0.1159  0.0047 -0.5849
   73CHL1    H3 6510   3.206   4.905   6.978 -0.1181  0.7560 -0.6030
   73CHL1    O3 6511   3.062   4.892   7.121  0.3489 -0.5145 -0.0203
   73CHL1   H3' 6512   3.060   4.799   7.142  3.3077 -0.4903  0.7893
   73CHL1    C4 6513   3.048   5.040   6.941  0.3563  0.3111 -0.2672
   73CHL1   H4A 6514   2.937   5.040   6.947  0.1754 -0.7084 -2.5518
   73CHL1   H4B 6515   3.079   5.112   7.019 -0.2216  0.9771 -0.6348
   73CHL1    C5 6516   3.090   5.073   6.794  0.7223 -0.4865 -0.6238
   73CHL1    C6 6517   3.159   5.181   6.754  0.0874 -0.3147  0.4750
   73CHL1    H6 6518   3.193   5.259   6.823  1.0234 -0.1535 -0.1488
   73CHL1    C7 6519   3.187   5.212   6.611  0.5730 -0.6677  0.3115
   73CHL1   H7A 6520   3.153   5.316   6.595  0.4845 -0.5470  1.2088
   73CHL1   H7B 6521   3.297   5.202   6.603  0.5608  0.4118 -1.9487
   73CHL1    C8 6522   3.117   5.121   6.510  0.2132  0.7405  0.1767
   73CHL1    H8 6523   3.014   5.162   6.504 -0.2003 -0.4922 -1.9611
   73CHL1   C14 6524   3.190   5.133   6.374  0.6366  0.9483 -0.8361
   73CHL1   H14 6525   3.290   5.096   6.402 -0.1094 -0.0726  0.5694
   73CHL1   C15 6526   3.194   5.275   6.311 -0.8749 -0.1481  0.0996
   73CHL1  H15A 6527   3.099   5.330   6.333 -1.0243  0.4682 -1.8983
   73CHL1  H15B 6528   3.281   5.338   6.340  1.0534 -2.2716 -0.8417
   73CHL1   C16 6529   3.216   5.244   6.160  0.5053  0.1925  0.1002
   73CHL1  H16A 6530   3.142   5.306   6.104 -1.6103 -1.4829  0.8958
   73CHL1  H16B 6531   3.320   5.267   6.129 -0.2116  1.9817 -1.1788
   73CHL1   C17 6532   3.200   5.090   6.148 -0.3201 -0.0370 -0.3017
   73CHL1   H17 6533   3.302   5.051   6.167 -0.5790 -0.3027  0.5814
   73CHL1   C13 6534   3.121   5.045   6.268  0.3530  0.0030  0.2962
   73CHL1   C18 6535   2.971   5.089   6.250 -0.2010  0.3872 -0.3804
   73CHL1  H18A 6536   2.960   5.187   6.199  0.3132 -0.3482 -1.9496
   73CHL1  H18B 6537   2.930   5.011   6.183  2.7042 -1.9735  0.3972
   73CHL1  H18C 6538   2.911   5.094   6.344  2.4312  0.3479  1.4277
   73CHL1   C12 6539   3.129   4.902   6.317 -0.2535 -0.1431  0.3922
   73CHL1  H12A 6540   3.067   4.842   6.247  0.2939 -1.8219  1.2886
   73CHL1  H12B 6541   3.235   4.868   6.318  0.2324  1.2964  0.9222
   73CHL1   C11 6542   3.069   4.888   6.456 -0.1101 -0.2910 -0.1971
   73CHL1  H11A 6543   2.963   4.921   6.447  0.0534  0.3788  0.2146
   73CHL1  H11B 6544   3.067   4.784   6.493  1.7060  0.0684  1.0324
   73CHL1    C9 6545   3.127   4.980   6.564  0.0708  0.4648  0.0043
   73CHL1    H9 6546   3.232   4.945   6.577 -0.6629 -1.4935  1.2481
   73CHL1   C10 6547   3.053   4.963   6.701  0.4001  0.6459  0.6812
   73CHL1   C19 6548   2.896   4.978   6.679 -0.0738  0.1469 -0.1811
   73CHL1  H19A 6549   2.855   4.901   6.610  0.3305  0.0550 -0.3237
   73CHL1  H19B 6550   2.847   4.949   6.774  0.3125 -3.1406 -0.8668
   73CHL1  H19C 6551   2.857   5.078   6.652  2.0125  0.9145 -0.4992
   73CHL1    C1 6552   3.078   4.823   6.759  1.4291 -0.1884 -0.0249
   73CHL1   H1A 6553   3.038   4.744   6.691 -0.3990 -0.6571  1.4915
   73CHL1   H1B 6554   3.188   4.807   6.752  1.0680 -2.3537 -2.3089
   73CHL1    C2 6555   3.033   4.800   6.897 -0.5210  0.4791  0.4302
   73CHL1   H2A 6556   3.063   4.697   6.924  0.2797  0.6140  0.0911
   73CHL1   H2B 6557   2.923   4.798   6.913 -0.6738 -0.4450 -0.5852
   73CHL1   C20 6558   3.155   5.036   6.010  0.1621 -0.5999  0.2288
   73CHL1   H20 6559   3.046   5.047   5.991 -0.1135 -1.5042  1.2181
   73CHL1   C21 6560   3.185   4.883   5.993  0.7721  0.2532 -1.0916
   73CHL1  H21A 6561   3.179   4.853   5.886 -0.0496 -1.7353 -0.5297
   73CHL1  H21B 6562   3.101   4.823   6.033  1.2848  0.7470  0.8104
   73CHL1  H21C 6563   3.281   4.860   6.044 -0.3415 -0.4819  0.7659
   73CHL1   C22 6564   3.227   5.117   5.901  0.6714 -0.7773  0.4750
   73CHL1  H22A 6565   3.193   5.222   5.919  0.1144 -1.0878  1.3031
   73CHL1  H22B 6566   3.338   5.117   5.913  0.5563 -2.6635  2.0455
   73CHL1   C23 6567   3.197   5.080   5.759 -0.3128  1.0235 -0.0357
   73CHL1  H23A 6568   3.235   4.977   5.740  0.0843  0.8508  1.5453
   73CHL1  H23B 6569   3.087   5.064   5.756  0.0934 -2.9217  0.5879
   73CHL1   C24 6570   3.244   5.178   5.656  0.1618 -0.4869 -0.0941
   73CHL1  H24A 6571   3.178   5.266   5.670 -0.0030 -0.6356  0.0670
   73CHL1  H24B 6572   3.352   5.195   5.675 -0.1399 -0.9258  2.3583
   73CHL1   C25 6573   3.227   5.157   5.501  0.1469 -0.4985 -0.2943
   73CHL1   H25 6574   3.252   5.247   5.440  0.4991 -0.3472  0.0662
   73CHL1   C26 6575   3.318   5.039   5.473  0.6958  0.4163 -0.2412
   73CHL1  H26A 6576   3.419   5.083   5.489  0.9277  1.2212 -3.3134
   73CHL1  H26B 6577   3.296   4.948   5.533 -0.1496 -0.1531 -1.3717
   73CHL1  H26C 6578   3.311   5.008   5.367  1.5689 -1.7207  0.2739
   73CHL1   C27 6579   3.081   5.119   5.469  0.0804  0.1653  0.3335
   73CHL1  H27A 6580   3.013   5.205   5.487  1.8536  2.0721 -1.5185
   73CHL1  H27B 6581   3.069   5.096   5.361 -1.7250  0.1678  0.5035
   73CHL1  H27C 6582   3.053   5.024   5.519 -1.7029 -1.3509 -3.1748
   74CHL1    C3 6583   5.086   2.475   3.958  0.9313  0.2803  0.4700
   74CHL1    H3 6584   4.989   2.421   3.962 -0.1486  1.4007 -4.1169
   74CHL1    O3 6585   5.078   2.528   3.824 -0.6878 -0.4237 -0.2095
   74CHL1   H3' 6586   5.159   2.572   3.799 -1.3249  1.6530  1.1591
   74CHL1    C4 6587   5.086   2.585   4.065  0.0372 -0.7168  0.4821
   74CHL1   H4A 6588   5.169   2.658   4.055 -1.8696  1.7372  1.4156
   74CHL1   H4B 6589   4.997   2.651   4.053 -0.1057 -1.1980 -1.2589
   74CHL1    C5 6590   5.094   2.520   4.203 -0.2551  0.2812  0.0779
   74CHL1    C6 6591   4.995   2.525   4.297  0.0589  0.4557 -0.0139
   74CHL1    H6 6592   4.899   2.572   4.273  0.9532  1.7060 -1.3542
   74CHL1    C7 6593   5.006   2.485   4.440  0.0992 -0.0732  0.6887
   74CHL1   H7A 6594   4.959   2.563   4.503 -0.8345 -0.4285  0.4597
   74CHL1   H7B 6595   4.964   2.382   4.451  1.3205 -0.8413 -1.3175
   74CHL1    C8 6596   5.147   2.456   4.478 -0.6052 -0.4724  0.4053
   74CHL1    H8 6597   5.200   2.554   4.477  1.5903 -1.5926 -0.3886
   74CHL1   C14 6598   5.165   2.395   4.614  0.3068 -0.2967 -0.2925
   74CHL1   H14 6599   5.112   2.297   4.606 -0.1367  0.0209 -1.3727
   74CHL1   C15 6600   5.098   2.460   4.741  0.0613  0.5033  0.4328
   74CHL1  H15A 6601   5.128   2.567   4.736 -1.2903  0.8747 -0.3364
   74CHL1  H15B 6602   4.990   2.432   4.741 -0.3272  1.6796 -2.4232
   74CHL1   C16 6603   5.173   2.397   4.864 -1.0452  0.1203 -0.5157
   74CHL1  H16A 6604   5.215   2.478   4.927 -1.9578  0.8659 -0.8472
   74CHL1  H16B 6605   5.100   2.341   4.927  1.0560 -0.5717  1.4371
   74CHL1   C17 6606   5.276   2.301   4.799  0.1710 -1.0732 -0.2684
   74CHL1   H17 6607   5.221   2.207   4.781  1.2103 -1.6623 -0.4359
   74CHL1   C13 6608   5.306   2.351   4.657 -0.0828 -0.8771 -0.1199
   74CHL1   C18 6609   5.394   2.477   4.668 -0.4091 -0.4688  0.4727
   74CHL1  H18A 6610   5.363   2.532   4.760  2.2987  1.3090  0.4487
   74CHL1  H18B 6611   5.501   2.452   4.688  0.2325  0.6428 -1.3101
   74CHL1  H18C 6612   5.397   2.545   4.580  1.4716 -1.9243 -0.6648
   74CHL1   C12 6613   5.357   2.258   4.545  0.2638  0.9995 -0.7781
   74CHL1  H12A 6614   5.463   2.238   4.573 -0.0234 -1.4328 -1.1606
   74CHL1  H12B 6615   5.297   2.165   4.536  0.3465  0.8352  0.2631
   74CHL1   C11 6616   5.363   2.326   4.405  0.2923 -0.0469 -0.2560
   74CHL1  H11A 6617   5.443   2.403   4.417 -1.6802  2.1037 -0.2589
   74CHL1  H11B 6618   5.404   2.249   4.336  0.0707  0.5898 -1.1115
   74CHL1    C9 6619   5.228   2.378   4.365 -0.4508 -0.5273 -0.5777
   74CHL1    H9 6620   5.161   2.289   4.360 -2.4169  0.8328  0.2490
   74CHL1   C10 6621   5.228   2.449   4.223  0.2229 -0.2313  0.6115
   74CHL1   C19 6622   5.361   2.536   4.221 -0.2084  0.1782  0.6387
   74CHL1  H19A 6623   5.377   2.603   4.308  0.9793 -0.9966  1.3610
   74CHL1  H19B 6624   5.456   2.477   4.215 -0.0846  0.4995 -1.0527
   74CHL1  H19C 6625   5.363   2.597   4.128 -0.8320 -2.9159 -1.5627
   74CHL1    C1 6626   5.242   2.340   4.108  0.9693  0.0774 -0.4333
   74CHL1   H1A 6627   5.343   2.294   4.116  0.7013 -1.5473 -4.3342
   74CHL1   H1B 6628   5.166   2.265   4.139  1.3669  0.3171  1.2603
   74CHL1    C2 6629   5.217   2.393   3.967  0.1170 -0.1012  0.3202
   74CHL1   H2A 6630   5.213   2.314   3.889  1.0635 -0.9541  1.1227
   74CHL1   H2B 6631   5.298   2.463   3.939  0.2958 -0.0302  1.0063
   74CHL1   C20 6632   5.389   2.257   4.896 -0.4123  0.0325 -0.1906
   74CHL1   H20 6633   5.456   2.345   4.905  0.8259 -0.8969 -0.0178
   74CHL1   C21 6634   5.469   2.141   4.835 -0.1085 -0.0351 -0.0457
   74CHL1  H21A 6635   5.536   2.097   4.911 -2.0517 -1.3242  0.9813
   74CHL1  H21B 6636   5.529   2.199   4.761  0.4707 -0.2856  0.2216
   74CHL1  H21C 6637   5.403   2.066   4.787 -0.3238 -1.1055  1.8565
   74CHL1   C22 6638   5.342   2.218   5.036  0.2166  0.0413  0.1311
   74CHL1  H22A 6639   5.428   2.180   5.094  0.0461 -1.9739 -0.8487
   74CHL1  H22B 6640   5.298   2.307   5.085 -1.4610  0.5845 -2.1670
   74CHL1   C23 6641   5.235   2.107   5.039 -0.6135  0.0446 -0.1839
   74CHL1  H23A 6642   5.147   2.131   4.975 -0.8669 -1.9222 -0.6303
   74CHL1  H23B 6643   5.285   2.017   4.999 -0.3989 -0.5953  1.4521
   74CHL1   C24 6644   5.191   2.068   5.186  0.6975 -0.9978  0.1622
   74CHL1  H24A 6645   5.115   1.989   5.165  1.4748 -1.8585  0.5645
   74CHL1  H24B 6646   5.273   2.017   5.239 -0.1579 -2.5904  0.0293
   74CHL1   C25 6647   5.132   2.182   5.269  0.0536  0.2722 -0.1385
   74CHL1   H25 6648   5.208   2.261   5.285 -0.7787  0.7567  1.8062
   74CHL1   C26 6649   5.011   2.251   5.210 -0.2463  0.2219  0.5419
   74CHL1  H26A 6650   5.004   2.353   5.254 -2.1880 -0.6502  2.3930
   74CHL1  H26B 6651   5.037   2.262   5.102  0.9546 -2.7099  0.4443
   74CHL1  H26C 6652   4.916   2.194   5.208  0.4216 -0.9136 -0.0537
   74CHL1   C27 6653   5.099   2.126   5.410 -0.6547 -0.2045  0.4343
   74CHL1  H27A 6654   5.179   2.060   5.450 -1.2539 -1.6909 -0.7039
   74CHL1  H27B 6655   5.086   2.208   5.483  0.5203 -2.4320  3.3418
   74CHL1  H27C 6656   5.005   2.067   5.397  0.2811 -1.2956 -2.0212
   75CHL1    C3 6657   6.516   1.809   3.311  0.3941  0.0086  0.8417
   75CHL1    H3 6658   6.442   1.729   3.333 -1.6628  2.1897  2.4069
   75CHL1    O3 6659   6.547   1.832   3.174  0.8215  0.2327  0.4497
   75CHL1   H3' 6660   6.624   1.891   3.172 -0.2716  1.7212 -1.4766
   75CHL1    C4 6661   6.466   1.932   3.377  0.4161  0.4485 -0.1381
   75CHL1   H4A 6662   6.536   2.017   3.361  0.4649  0.4159 -0.0974
   75CHL1   H4B 6663   6.372   1.970   3.332  0.3169 -0.3644 -0.6300
   75CHL1    C5 6664   6.445   1.913   3.529 -0.2567 -0.2594  0.4394
   75CHL1    C6 6665   6.325   1.936   3.577  0.0952  0.4148 -0.2211
   75CHL1    H6 6666   6.251   1.976   3.507  1.2069  2.0287 -0.5287
   75CHL1    C7 6667   6.284   1.920   3.719  0.0814  0.3042  0.3385
   75CHL1   H7A 6668   6.222   1.999   3.766 -0.3351 -0.0035  0.3042
   75CHL1   H7B 6669   6.245   1.816   3.724  2.5608 -0.6950  0.5683
   75CHL1    C8 6670   6.417   1.913   3.808  0.3229  0.1865 -0.6053
   75CHL1    H8 6671   6.447   2.017   3.832 -1.2560  0.0678  2.4347
   75CHL1   C14 6672   6.384   1.847   3.940  0.7205 -0.1263  0.1685
   75CHL1   H14 6673   6.361   1.741   3.919  0.1420  0.4236 -2.3745
   75CHL1   C15 6674   6.256   1.903   4.007 -0.1683 -0.2713  0.0674
   75CHL1  H15A 6675   6.255   2.013   3.993 -0.7271  0.3525  3.9197
   75CHL1  H15B 6676   6.174   1.862   3.944 -0.0379  0.4574 -0.5750
   75CHL1   C16 6677   6.267   1.844   4.146  0.7760 -0.8973 -0.1989
   75CHL1  H16A 6678   6.246   1.930   4.213  0.6499  0.9885 -2.5255
   75CHL1  H16B 6679   6.193   1.767   4.177  0.0293 -0.6699 -1.3438
   75CHL1   C17 6680   6.415   1.793   4.167  0.5460  0.3855  0.2363
   75CHL1   H17 6681   6.399   1.686   4.144  0.0984  0.1790  1.4473
   75CHL1   C13 6682   6.494   1.854   4.045  0.8308  0.1542 -0.3338
   75CHL1   C18 6683   6.541   1.998   4.073  0.2030  0.1038  1.0506
   75CHL1  H18A 6684   6.599   2.039   3.987 -2.6838 -0.1116 -1.1439
   75CHL1  H18B 6685   6.456   2.062   4.104 -0.7492 -0.4205 -0.3445
   75CHL1  H18C 6686   6.621   1.993   4.150  2.9978  0.0630 -1.6559
   75CHL1   C12 6687   6.604   1.759   3.994 -0.3316  0.4542  0.0729
   75CHL1  H12A 6688   6.691   1.770   4.063 -0.8671  0.6888  0.7178
   75CHL1  H12B 6689   6.559   1.657   3.999 -2.1209  1.2170  0.2232
   75CHL1   C11 6690   6.652   1.800   3.853 -0.6826 -0.9706  0.7001
   75CHL1  H11A 6691   6.702   1.898   3.867 -2.8862 -0.0244  2.5102
   75CHL1  H11B 6692   6.720   1.726   3.806  2.2815  1.7623  0.3110
   75CHL1    C9 6693   6.534   1.833   3.755 -0.4699 -0.3681  0.0310
   75CHL1    H9 6694   6.494   1.730   3.746  0.9765 -0.8482 -1.3216
   75CHL1   C10 6695   6.569   1.861   3.608 -0.0627  0.0716 -0.4175
   75CHL1   C19 6696   6.665   1.983   3.621  0.1657  0.3396  0.2155
   75CHL1  H19A 6697   6.636   2.064   3.692  1.3066  0.2803  0.7684
   75CHL1  H19B 6698   6.769   1.947   3.637 -0.6414 -2.5403 -0.4308
   75CHL1  H19C 6699   6.683   2.039   3.527 -0.1249 -0.3387 -0.2518
   75CHL1    C1 6700   6.629   1.740   3.538  0.6194  0.1625 -0.7443
   75CHL1   H1A 6701   6.726   1.730   3.590  0.6017  4.0985  0.3236
   75CHL1   H1B 6702   6.561   1.652   3.548  2.1526 -1.3005 -2.4693
   75CHL1    C2 6703   6.642   1.768   3.385  0.3061 -0.0462  0.6329
   75CHL1   H2A 6704   6.687   1.678   3.338  0.8450  0.9709 -0.9013
   75CHL1   H2B 6705   6.713   1.854   3.381 -0.3993  0.5216 -0.2115
   75CHL1   C20 6706   6.470   1.805   4.302  0.2182  0.3723  0.2296
   75CHL1   H20 6707   6.464   1.912   4.332  0.7537  0.5387 -0.2335
   75CHL1   C21 6708   6.617   1.767   4.313  0.0064  0.2836 -0.0495
   75CHL1  H21A 6709   6.642   1.767   4.421  1.2985  0.1823 -0.3251
   75CHL1  H21B 6710   6.673   1.854   4.273  0.1751  1.0129  1.6703
   75CHL1  H21C 6711   6.641   1.668   4.269  0.6046  0.8026 -0.9312
   75CHL1   C22 6712   6.387   1.727   4.407  0.4504  0.4377 -0.3314
   75CHL1  H22A 6713   6.284   1.701   4.372  0.6428 -0.8627  0.0310
   75CHL1  H22B 6714   6.442   1.632   4.423 -0.3667  0.0182  0.0492
   75CHL1   C23 6715   6.383   1.809   4.537 -0.0787  0.4289 -0.0855
   75CHL1  H23A 6716   6.490   1.835   4.554  0.5149 -1.4968 -0.6804
   75CHL1  H23B 6717   6.319   1.899   4.523 -1.2509 -0.5482 -1.1603
   75CHL1   C24 6718   6.337   1.719   4.654  0.4025 -0.1349  0.0807
   75CHL1  H24A 6719   6.240   1.681   4.616  0.9922 -0.7296 -0.8822
   75CHL1  H24B 6720   6.401   1.628   4.658 -2.0271 -2.0627 -1.6985
   75CHL1   C25 6721   6.344   1.780   4.797  0.3101 -0.0854  0.0643
   75CHL1   H25 6722   6.446   1.822   4.805 -0.8654  2.8316  1.3409
   75CHL1   C26 6723   6.240   1.891   4.821  0.1257  0.8418  0.0353
   75CHL1  H26A 6724   6.257   1.949   4.914  0.9710 -2.3122  1.9913
   75CHL1  H26B 6725   6.239   1.968   4.740  1.1062  2.6793  1.6829
   75CHL1  H26C 6726   6.142   1.841   4.811  0.2562  0.4838  0.5101
   75CHL1   C27 6727   6.320   1.660   4.901  0.3312 -0.3629 -0.5415
   75CHL1  H27A 6728   6.225   1.608   4.880 -0.2892  1.3362 -2.2152
   75CHL1  H27B 6729   6.396   1.580   4.897 -0.3936 -1.4199  3.1596
   75CHL1  H27C 6730   6.312   1.699   5.005  2.5897 -1.2593  0.0322
   76CHL1    C3 6731   5.985   4.877   3.607 -0.0663 -0.3352  0.0755
   76CHL1    H3 6732   5.879   4.847   3.620 -0.5238  1.1139 -0.1231
   76CHL1    O3 6733   6.018   4.896   3.470  0.2039 -0.1916 -0.3225
   76CHL1   H3' 6734   6.064   4.817   3.440 -0.3630  0.3186 -2.7909
   76CHL1    C4 6735   6.009   5.013   3.685  0.5256 -0.1267  0.1103
   76CHL1   H4A 6736   6.106   5.058   3.654  0.1660  1.3810  1.0845
   76CHL1   H4B 6737   5.926   5.072   3.641 -0.1902 -1.8241 -0.9536
   76CHL1    C5 6738   5.994   4.991   3.834 -0.2395 -0.9792  0.3695
   76CHL1    C6 6739   5.906   5.071   3.903  0.0661 -0.4514  0.1043
   76CHL1    H6 6740   5.861   5.155   3.848 -0.0532 -0.8577 -0.4253
   76CHL1    C7 6741   5.884   5.070   4.051  0.1016 -0.1207  0.0235
   76CHL1   H7A 6742   5.873   5.172   4.092  0.4766 -0.2077  0.3374
   76CHL1   H7B 6743   5.783   5.027   4.070  0.4504 -0.1478  2.0460
   76CHL1    C8 6744   6.004   4.998   4.119  0.1897  0.0969  0.0279
   76CHL1    H8 6745   6.092   5.065   4.109 -0.3223  1.3593  3.0232
   76CHL1   C14 6746   5.975   4.962   4.270  0.2157 -0.3861 -0.4677
   76CHL1   H14 6747   5.888   4.895   4.262  0.3480 -0.5275 -0.7285
   76CHL1   C15 6748   5.920   5.076   4.359 -0.2161 -0.2350  0.1323
   76CHL1  H15A 6749   5.996   5.156   4.361 -1.4854  1.0431  2.9104
   76CHL1  H15B 6750   5.820   5.117   4.332 -1.3994  0.3079  4.5328
   76CHL1   C16 6751   5.932   5.012   4.501 -0.0998 -0.0347 -0.0036
   76CHL1  H16A 6752   5.988   5.081   4.567  1.8985 -1.0745 -0.5494
   76CHL1  H16B 6753   5.832   4.995   4.547 -0.2882  0.2268 -0.3067
   76CHL1   C17 6754   6.003   4.878   4.488 -0.4292  0.4250  0.2172
   76CHL1   H17 6755   5.930   4.794   4.484  0.3196 -0.2034 -0.9706
   76CHL1   C13 6756   6.074   4.874   4.350  0.5893  0.1753  0.3384
   76CHL1   C18 6757   6.202   4.955   4.363  1.3120  0.2601 -0.1322
   76CHL1  H18A 6758   6.186   5.041   4.432 -2.9528 -1.5584  1.5162
   76CHL1  H18B 6759   6.275   4.894   4.420 -0.9783 -0.8129  1.8381
   76CHL1  H18C 6760   6.249   4.993   4.271 -0.5394  2.7756 -0.1542
   76CHL1   C12 6761   6.093   4.742   4.269 -0.1518 -0.0372  0.5826
   76CHL1  H12A 6762   6.166   4.677   4.322  0.4979  1.2095  1.2647
   76CHL1  H12B 6763   5.997   4.688   4.256  0.7860 -1.9521  1.2445
   76CHL1   C11 6764   6.133   4.769   4.120 -0.0328 -0.5059 -0.7488
   76CHL1  H11A 6765   6.229   4.821   4.140 -1.9698  2.2422  2.5228
   76CHL1  H11B 6766   6.149   4.674   4.064 -0.2141 -0.9321 -0.0870
   76CHL1    C9 6767   6.034   4.858   4.048 -0.3716 -0.5641  0.2724
   76CHL1    H9 6768   5.938   4.801   4.047 -0.5274 -0.4236  2.2919
   76CHL1   C10 6769   6.076   4.880   3.895  0.7813  0.4877  0.6474
   76CHL1   C19 6770   6.225   4.930   3.888  0.3523  0.0491 -0.7576
   76CHL1  H19A 6771   6.288   4.854   3.939  1.5231  0.2478 -1.8867
   76CHL1  H19B 6772   6.268   4.930   3.786 -0.9069 -1.5788 -1.3211
   76CHL1  H19C 6773   6.229   5.032   3.934  1.1155 -0.1598 -0.3415
   76CHL1    C1 6774   6.065   4.750   3.810  0.2512  0.0894  0.4560
   76CHL1   H1A 6775   6.150   4.680   3.827  1.0145  0.9143  0.1405
   76CHL1   H1B 6776   5.962   4.711   3.826 -1.0959  2.9340 -0.6371
   76CHL1    C2 6777   6.076   4.765   3.655  0.2921 -0.6856 -0.1938
   76CHL1   H2A 6778   6.043   4.672   3.605  2.1797 -1.0646 -0.8165
   76CHL1   H2B 6779   6.184   4.784   3.633  0.5288 -0.8906  0.7284
   76CHL1   C20 6780   6.093   4.845   4.610  0.1593  0.2401 -0.2859
   76CHL1   H20 6781   6.175   4.920   4.603 -1.2371  2.1286  2.0012
   76CHL1   C21 6782   6.143   4.700   4.602 -0.8117 -0.0037  0.3896
   76CHL1  H21A 6783   6.192   4.652   4.690  1.8433  1.2569 -0.2992
   76CHL1  H21B 6784   6.217   4.687   4.521 -1.1789 -0.4559  0.1249
   76CHL1  H21C 6785   6.054   4.640   4.574  0.3985 -1.6114 -0.1198
   76CHL1   C22 6786   6.038   4.868   4.753  0.1399 -0.8523  0.3754
   76CHL1  H22A 6787   5.992   4.968   4.763 -0.9481 -1.4520  1.7349
   76CHL1  H22B 6788   5.954   4.795   4.748  0.3346 -1.0687  0.2236
   76CHL1   C23 6789   6.125   4.835   4.878  0.1206  0.2751  0.6859
   76CHL1  H23A 6790   6.061   4.866   4.963 -2.4335 -2.1866 -0.1627
   76CHL1  H23B 6791   6.134   4.726   4.894 -1.2103  0.3429  2.1778
   76CHL1   C24 6792   6.261   4.893   4.874  0.3173 -0.4593 -0.3087
   76CHL1  H24A 6793   6.337   4.861   4.948 -0.4018 -2.2831 -0.3216
   76CHL1  H24B 6794   6.304   4.880   4.772 -1.1985  0.1995 -1.0592
   76CHL1   C25 6795   6.260   5.048   4.886 -0.2073  0.2158  0.0991
   76CHL1   H25 6796   6.203   5.083   4.798  0.6125 -2.1887 -1.4892
   76CHL1   C26 6797   6.199   5.099   5.019 -0.0937 -0.2025 -0.2849
   76CHL1  H26A 6798   6.199   5.210   5.021 -1.4173 -0.1982  0.0870
   76CHL1  H26B 6799   6.091   5.076   5.029 -0.7094  0.6890 -3.5382
   76CHL1  H26C 6800   6.257   5.066   5.107 -1.7998 -1.9760  0.2630
   76CHL1   C27 6801   6.404   5.110   4.878 -0.4640  0.3340  0.0631
   76CHL1  H27A 6802   6.485   5.064   4.938 -1.5378 -1.4342  0.2287
   76CHL1  H27B 6803   6.439   5.106   4.772 -1.3768  0.1763 -0.2393
   76CHL1  H27C 6804   6.401   5.216   4.911 -0.5563  0.9818 -1.8983
   77SOPE     N 6805   0.182   2.069   7.673  0.1914  0.0633  0.0024
   77SOPE   HN1 6806   0.213   2.149   7.732 -1.0146  0.0401  0.7058
   77SOPE   HN2 6807   0.174   1.986   7.735  3.0103 -0.3485 -0.0478
   77SOPE   HN3 6808   0.268   2.062   7.615  2.0512  0.3094  2.5568
   77SOPE   C12 6809   0.067   2.099   7.575 -0.0066 -0.1139 -0.4258
   77SOPE  H12A 6810  -0.007   2.148   7.641  2.1889  0.3735  1.8384
   77SOPE  H12B 6811   0.028   2.000   7.541  0.0723  0.2349 -1.5807
   77SOPE   C11 6812   0.127   2.197   7.469 -0.1661 -0.1146  0.2846
   77SOPE  H11A 6813   0.061   2.218   7.382  0.7354  0.3672 -0.2994
   77SOPE  H11B 6814   0.210   2.144   7.416 -0.6518 -0.2524 -0.3471
   77SOPE     P 6815   0.087   2.449   7.561  0.3564 -0.2719 -0.1644
   77SOPE   O13 6816   0.158   2.523   7.667 -0.3164 -0.4018 -0.1130
   77SOPE   O14 6817  -0.058   2.421   7.599  0.1809  0.3308  0.4538
   77SOPE   O12 6818   0.173   2.319   7.537  0.0118 -0.1607  0.0641
   77SOPE   O11 6819   0.098   2.535   7.423 -0.7136 -0.3505  0.1723
   77SOPE    C1 6820   0.010   2.530   7.315 -0.0382 -0.1439 -0.2669
   77SOPE    HA 6821  -0.024   2.633   7.290  1.1134  0.2464 -0.2838
   77SOPE    HB 6822  -0.085   2.480   7.344  1.7156 -3.3214  0.4712
   77SOPE    C2 6823   0.070   2.450   7.199 -0.4465 -0.9192 -0.8707
   77SOPE    HS 6824   0.163   2.396   7.227  0.2071  0.5470 -0.0925
   77SOPE   O21 6825   0.100   2.558   7.103  0.2492 -0.2928 -0.5907
   77SOPE   C21 6826   0.224   2.605   7.101 -0.1581 -0.1965 -0.2252
   77SOPE   O22 6827   0.321   2.562   7.164  0.3769  0.3377 -0.4001
   77SOPE   C22 6828   0.229   2.733   7.020 -0.5989  0.1770 -0.0093
   77SOPE   H2R 6829   0.287   2.809   7.077  1.6926 -0.8812 -0.7748
   77SOPE   H2S 6830   0.124   2.765   7.004  0.1343  1.5512 -2.3804
   77SOPE    C3 6831  -0.023   2.345   7.136 -0.0546  0.5055 -0.1226
   77SOPE    HX 6832  -0.119   2.399   7.130  0.3744  1.4687  1.0912
   77SOPE    HY 6833  -0.041   2.260   7.205 -3.6194  1.9444  0.9318
   77SOPE   O31 6834   0.023   2.312   7.006 -0.3072  0.2390 -0.5335
   77SOPE   C31 6835   0.121   2.214   7.011  0.7911  0.3950  0.2324
   77SOPE   O32 6836   0.139   2.148   7.112 -0.1750  0.3789 -0.2572
   77SOPE   C32 6837   0.199   2.211   6.883  0.3128  0.1843 -0.4340
   77SOPE   H2X 6838   0.282   2.284   6.898 -0.3067  1.0190 -0.9829
   77SOPE   H2Y 6839   0.149   2.240   6.788  0.5222 -1.4943 -1.0907
   77SOPE   C23 6840   0.300   2.725   6.889 -0.1263  0.0098 -0.2581
   77SOPE   H3R 6841   0.400   2.679   6.906 -0.6917 -0.8539  0.8203
   77SOPE   H3S 6842   0.324   2.824   6.843  2.7873 -1.2548 -1.7557
   77SOPE   C24 6843   0.225   2.645   6.783 -0.1613  0.4131 -0.4464
   77SOPE   H4R 6844   0.191   2.549   6.827  1.8927  0.7367  2.0486
   77SOPE   H4S 6845   0.131   2.693   6.747 -0.5806  0.4762  0.7050
   77SOPE   C25 6846   0.320   2.615   6.666 -0.4458  0.2693 -0.2884
   77SOPE   H5R 6847   0.352   2.700   6.601  0.5421  0.2849  0.1946
   77SOPE   H5S 6848   0.405   2.565   6.717 -1.4385 -1.4286 -0.2193
   77SOPE   C26 6849   0.269   2.502   6.573 -0.0901 -0.0135 -0.4750
   77SOPE   H6R 6850   0.356   2.454   6.524 -0.7170 -0.3312 -1.3059
   77SOPE   H6S 6851   0.220   2.425   6.637 -1.0661 -1.3570 -2.7091
   77SOPE   C27 6852   0.186   2.546   6.453  0.9188 -1.0794  0.2370
   77SOPE   H7R 6853   0.091   2.582   6.497  2.3502  1.7406  1.2967
   77SOPE   H7S 6854   0.239   2.634   6.409  0.5664 -0.8474  0.2713
   77SOPE   C28 6855   0.163   2.443   6.340  0.1657 -0.2689  0.3021
   77SOPE   H8R 6856   0.268   2.423   6.308  0.8343  1.9809  0.9182
   77SOPE   H8S 6857   0.123   2.353   6.391 -0.2005 -0.9739 -1.1586
   77SOPE   C29 6858   0.082   2.503   6.227 -0.6399  0.7076 -0.3456
   77SOPE   H91 6859   0.083   2.613   6.218  0.8492  0.9458  1.7745
   77SOPE  C210 6860   0.030   2.425   6.124 -0.2119  0.0439 -0.0582
   77SOPE  H101 6861  -0.021   2.486   6.048  0.0358  1.0760  0.5820
   77SOPE  C211 6862   0.030   2.276   6.117 -0.4203  0.3499  0.6966
   77SOPE  H11R 6863  -0.038   2.227   6.190 -2.1973 -0.7091 -1.5272
   77SOPE  H11S 6864   0.129   2.230   6.135 -1.2514 -0.6562  3.0869
   77SOPE  C212 6865  -0.031   2.228   5.985  0.6903  0.2844  0.0469
   77SOPE  H12R 6866  -0.115   2.288   5.946  0.8216 -0.5210 -1.5479
   77SOPE  H12S 6867  -0.085   2.134   6.007 -1.6544  1.1557 -1.6416
   77SOPE  C213 6868   0.072   2.196   5.877  0.1745 -0.1263 -0.3705
   77SOPE  H13R 6869   0.158   2.140   5.919  0.3564  0.8019  0.5300
   77SOPE  H13S 6870   0.114   2.294   5.845  2.7837 -0.8664  0.5398
   77SOPE  C214 6871   0.020   2.111   5.765 -0.2001  0.8051 -0.1939
   77SOPE  H14R 6872  -0.018   2.013   5.801  1.4243  0.3208  0.2715
   77SOPE  H14S 6873   0.112   2.099   5.704  0.6415  1.3417  0.9155
   77SOPE  C215 6874  -0.093   2.170   5.677 -0.7289 -0.5521 -0.1025
   77SOPE  H15R 6875  -0.183   2.174   5.742  1.0349 -0.1678  2.4875
   77SOPE  H15S 6876  -0.120   2.096   5.599 -0.8766 -0.7638  0.1512
   77SOPE  C216 6877  -0.061   2.307   5.629  0.5816 -0.4532  0.1681
   77SOPE  H16R 6878   0.049   2.306   5.617  0.6018 -0.2405  0.3344
   77SOPE  H16S 6879  -0.081   2.393   5.696 -0.1240  0.5954 -1.3393
   77SOPE  C217 6880  -0.115   2.335   5.486  0.7038  0.4800 -0.7731
   77SOPE  H17R 6881  -0.068   2.254   5.427  0.4883 -0.0908 -0.1779
   77SOPE  H17S 6882  -0.077   2.433   5.448  0.4992  0.8134 -0.1343
   77SOPE  C218 6883  -0.271   2.347   5.461  1.0510 -0.2380 -0.2682
   77SOPE  H18R 6884  -0.332   2.260   5.493  1.3129 -0.8423 -1.3774
   77SOPE  H18S 6885  -0.296   2.362   5.354 -0.2321  1.3929  0.2200
   77SOPE  H18T 6886  -0.305   2.427   5.530  1.3109 -1.4212  1.2899
   77SOPE   C33 6887   0.256   2.069   6.848 -0.5249 -0.0124 -0.3338
   77SOPE   H3X 6888   0.314   2.038   6.938 -1.4922  0.8422  0.6113
   77SOPE   H3Y 6889   0.330   2.072   6.765 -0.2033 -1.9401 -0.1704
   77SOPE   C34 6890   0.147   1.962   6.809  0.2781 -0.1894  0.1781
   77SOPE   H4X 6891   0.061   1.972   6.878 -1.5162  2.0898 -2.2141
   77SOPE   H4Y 6892   0.186   1.859   6.826  2.3666  0.6875  0.9470
   77SOPE   C35 6893   0.106   1.973   6.664 -0.5394 -0.5990  0.0112
   77SOPE   H5X 6894   0.113   2.077   6.627  0.9519 -0.3658  0.8486
   77SOPE   H5Y 6895  -0.000   1.940   6.667 -0.7134 -0.0079  0.8592
   77SOPE   C36 6896   0.183   1.886   6.560 -0.2305 -0.2395  0.4638
   77SOPE   H6X 6897   0.281   1.845   6.595 -0.8204 -3.3058 -1.0849
   77SOPE   H6Y 6898   0.195   1.959   6.477 -0.2503  1.2613  1.7248
   77SOPE   C37 6899   0.095   1.762   6.515 -0.6924  0.9177 -0.8578
   77SOPE   H7X 6900   0.018   1.793   6.441  0.8609  2.5741 -1.8689
   77SOPE   H7Y 6901   0.029   1.728   6.597  0.9394 -0.1496  0.0601
   77SOPE   C38 6902   0.177   1.632   6.465  0.5519 -0.2218 -0.3305
   77SOPE   H8X 6903   0.108   1.547   6.485  0.7500 -0.2438  0.2809
   77SOPE   H8Y 6904   0.257   1.610   6.539 -0.3784 -0.8115  0.5293
   77SOPE   C39 6905   0.221   1.638   6.321 -0.2613 -0.0661  0.0943
   77SOPE   H9X 6906   0.278   1.544   6.304 -0.7900 -0.4451  0.3658
   77SOPE   H9Y 6907   0.288   1.725   6.305 -0.4255  0.6444  2.7542
   77SOPE  C310 6908   0.113   1.614   6.216  0.3856 -0.5141  0.2544
   77SOPE  H10X 6909   0.031   1.688   6.224  0.2627 -0.8381  2.6516
   77SOPE  H10Y 6910   0.066   1.514   6.229 -1.1734  0.0731 -0.6506
   77SOPE  C311 6911   0.156   1.616   6.066 -0.1481 -0.6178  0.4638
   77SOPE  H11X 6912   0.230   1.536   6.043 -0.1941 -0.4670 -0.2312
   77SOPE  H11Y 6913   0.194   1.718   6.044 -1.9715  0.1204  0.5687
   77SOPE  C312 6914   0.027   1.589   5.986 -0.2875 -0.0501  0.1616
   77SOPE  H12X 6915  -0.045   1.645   6.049  3.5831  4.8981  0.8442
   77SOPE  H12Y 6916  -0.012   1.485   5.982 -1.1294  0.2224  0.9810
   77SOPE  C313 6917   0.020   1.662   5.844 -0.4435  0.0346 -0.3871
   77SOPE  H13X 6918   0.110   1.628   5.787 -1.9401 -2.8069 -1.2671
   77SOPE  H13Y 6919   0.020   1.772   5.857 -1.0304  0.2783 -2.2306
   77SOPE  C314 6920  -0.103   1.621   5.770  0.2562 -0.6473  0.1744
   77SOPE  H14X 6921  -0.193   1.677   5.802  1.7962  1.0021  1.8372
   77SOPE  H14Y 6922  -0.117   1.513   5.793  0.2449 -0.6062  0.3618
   77SOPE  C315 6923  -0.073   1.628   5.618 -0.0753 -0.0247 -0.0833
   77SOPE  H15X 6924  -0.163   1.598   5.560  1.3115  0.4300 -2.5994
   77SOPE  H15Y 6925   0.010   1.564   5.581 -0.6776 -0.6447 -0.3896
   77SOPE  C316 6926  -0.033   1.771   5.582  0.3460  0.0604 -0.4950
   77SOPE  H16X 6927   0.067   1.793   5.626  0.0876 -1.0083  0.6777
   77SOPE  H16Y 6928  -0.114   1.838   5.616  0.1636 -0.4944  0.1792
   77SOPE  C317 6929  -0.011   1.795   5.435 -0.2313  0.9576 -0.1637
   77SOPE  H17X 6930  -0.102   1.766   5.380 -0.3067 -0.2879  0.5625
   77SOPE  H17Y 6931   0.059   1.712   5.408 -2.0138 -0.6289 -0.1087
   77SOPE  C318 6932   0.040   1.932   5.404  0.4949 -0.4600 -0.4291
   77SOPE  H18X 6933   0.125   1.965   5.467  0.3717  0.7994 -0.8882
   77SOPE  H18Y 6934  -0.041   2.007   5.413  1.4183  0.8819 -2.5056
   77SOPE  H18Z 6935   0.083   1.950   5.303 -0.0458  1.5645 -0.3336
   78SOPE     N 6936   0.711   1.742   7.234  0.4904 -0.2405  0.2286
   78SOPE   HN1 6937   0.759   1.810   7.298 -0.6400  1.1669 -0.3667
   78SOPE   HN2 6938   0.679   1.653   7.279 -0.7538  0.5579  0.9914
   78SOPE   HN3 6939   0.773   1.717   7.154 -1.9024  0.7526 -2.0536
   78SOPE   C12 6940   0.585   1.793   7.164 -0.4344 -0.2354  0.3218
   78SOPE  H12A 6941   0.607   1.896   7.129  1.3092 -1.1881 -1.6352
   78SOPE  H12B 6942   0.520   1.802   7.254  0.9882 -1.7723  1.5845
   78SOPE   C11 6943   0.533   1.715   7.044 -0.3533 -0.2679  0.3059
   78SOPE  H11A 6944   0.617   1.695   6.974  0.3679 -0.5587  1.2232
   78SOPE  H11B 6945   0.472   1.792   6.992  1.9549  3.0777  2.1443
   78SOPE     P 6946   0.311   1.601   7.096 -0.5429 -0.4690  0.3292
   78SOPE   O13 6947   0.272   1.727   7.164  0.3545 -0.2093 -0.2875
   78SOPE   O14 6948   0.258   1.477   7.153 -0.0399  0.4993  0.2170
   78SOPE   O12 6949   0.472   1.596   7.079 -0.6429 -0.1424  0.6935
   78SOPE   O11 6950   0.258   1.609   6.954  0.6754  0.0347  0.4874
   78SOPE    C1 6951   0.288   1.508   6.854 -0.1326  0.6828 -0.4535
   78SOPE    HA 6952   0.378   1.448   6.879 -0.9730 -0.3191  0.2036
   78SOPE    HB 6953   0.300   1.546   6.750  0.1513 -0.4203 -0.8284
   78SOPE    C2 6954   0.165   1.412   6.845 -0.1982  0.5896  0.2718
   78SOPE    HS 6955   0.178   1.338   6.927  1.6252  1.0711  0.4632
   78SOPE   O21 6956   0.161   1.350   6.714  0.3829 -0.7217  0.1735
   78SOPE   C21 6957   0.248   1.261   6.688 -0.9623 -0.2179  0.3271
   78SOPE   O22 6958   0.340   1.225   6.759 -0.1446  0.5288 -0.4044
   78SOPE   C22 6959   0.236   1.209   6.546 -0.4623  0.2583 -0.2029
   78SOPE   H2R 6960   0.160   1.273   6.495 -1.6940 -0.3009  0.8826
   78SOPE   H2S 6961   0.193   1.109   6.563 -1.6125  1.1339  2.4647
   78SOPE    C3 6962   0.032   1.476   6.870  0.8257 -0.2507 -0.1912
   78SOPE    HX 6963   0.023   1.575   6.819 -2.2029 -0.7494 -0.8405
   78SOPE    HY 6964   0.018   1.500   6.977 -2.4739  0.8173 -0.7289
   78SOPE   O31 6965  -0.074   1.384   6.835  0.0869  0.0879  0.1131
   78SOPE   C31 6966  -0.113   1.401   6.706 -0.3757  0.8526  0.2595
   78SOPE   O32 6967  -0.078   1.494   6.640 -0.5386  0.1039 -0.4398
   78SOPE   C32 6968  -0.204   1.287   6.661 -0.0157  0.7788 -0.0680
   78SOPE   H2X 6969  -0.270   1.275   6.749  2.2804 -1.5473  1.4652
   78SOPE   H2Y 6970  -0.139   1.197   6.656 -1.6073 -0.3382 -2.6712
   78SOPE   C23 6971   0.366   1.201   6.463  0.2333 -0.0744 -0.1836
   78SOPE   H3R 6972   0.422   1.107   6.487  0.5994  0.0581 -0.5041
   78SOPE   H3S 6973   0.433   1.285   6.493 -0.4451  0.1767  0.6776
   78SOPE   C24 6974   0.335   1.208   6.318  0.7561 -0.2722 -0.1095
   78SOPE   H4R 6975   0.272   1.295   6.288 -1.0717 -1.4124  0.2288
   78SOPE   H4S 6976   0.436   1.225   6.275  0.8245  0.3444  0.2793
   78SOPE   C25 6977   0.255   1.083   6.268 -0.0451 -0.2579 -0.2452
   78SOPE   H5R 6978   0.306   0.993   6.308  0.0413  0.2674  0.8749
   78SOPE   H5S 6979   0.156   1.072   6.319  1.1102 -1.2792  1.9355
   78SOPE   C26 6980   0.238   1.096   6.120  0.7096  0.1052 -0.0205
   78SOPE   H6R 6981   0.166   1.018   6.089 -0.3975  1.1271 -0.1081
   78SOPE   H6S 6982   0.199   1.196   6.088  0.1018 -0.1109  0.0279
   78SOPE   C27 6983   0.361   1.066   6.035 -0.3503  0.2010 -0.4057
   78SOPE   H7R 6984   0.448   1.125   6.069  1.4972 -0.0084 -4.1916
   78SOPE   H7S 6985   0.387   0.960   6.053  0.4269  0.0905 -1.9595
   78SOPE   C28 6986   0.346   1.105   5.888 -0.0829 -0.0855 -0.1702
   78SOPE   H8R 6987   0.432   1.065   5.830  0.4238 -0.5130  0.8594
   78SOPE   H8S 6988   0.264   1.040   5.850  0.9494 -0.0820 -2.5963
   78SOPE   C29 6989   0.325   1.247   5.859 -0.4043  0.1350 -0.4577
   78SOPE   H91 6990   0.398   1.303   5.919 -0.3413 -1.8599  1.4488
   78SOPE  C210 6991   0.231   1.301   5.777  1.2241 -0.1862  0.3733
   78SOPE  H101 6992   0.222   1.411   5.772 -3.3151 -0.3657  0.6100
   78SOPE  C211 6993   0.117   1.228   5.710 -0.0511  0.3222 -0.2309
   78SOPE  H11R 6994   0.150   1.135   5.659 -1.9427 -0.7968  0.5036
   78SOPE  H11S 6995   0.065   1.296   5.639  2.6159  2.1217 -0.6220
   78SOPE  C212 6996   0.013   1.186   5.814 -0.2251 -0.2731 -0.4845
   78SOPE  H12R 6997   0.010   1.272   5.884  3.9962 -1.9927  2.2317
   78SOPE  H12S 6998   0.041   1.096   5.873  0.3677  1.2818  1.7088
   78SOPE  C213 6999  -0.122   1.161   5.744  0.6377  0.6681  0.8535
   78SOPE  H13R 7000  -0.159   1.246   5.683 -0.1986  0.1532  0.6318
   78SOPE  H13S 7001  -0.196   1.145   5.825  0.1105  0.5868  0.3591
   78SOPE  C214 7002  -0.118   1.040   5.647 -0.4559  0.0546 -0.2889
   78SOPE  H14R 7003  -0.121   0.942   5.700  0.0912 -0.0386 -0.4208
   78SOPE  H14S 7004  -0.026   1.037   5.585  0.0298  0.2688  0.4014
   78SOPE  C215 7005  -0.223   1.039   5.535 -0.3369  0.1584 -0.9517
   78SOPE  H15R 7006  -0.225   1.138   5.483  0.0294 -0.4703 -2.2144
   78SOPE  H15S 7007  -0.321   1.032   5.587 -1.0363  0.8696 -2.1064
   78SOPE  C216 7008  -0.203   0.935   5.421  0.1842  0.1713  0.9609
   78SOPE  H16R 7009  -0.197   0.837   5.473 -0.5176 -0.1238  0.5127
   78SOPE  H16S 7010  -0.111   0.954   5.362 -0.1459 -1.1491 -0.0284
   78SOPE  C217 7011  -0.335   0.921   5.337 -0.8203 -0.4140  0.4813
   78SOPE  H17R 7012  -0.425   0.930   5.400 -1.3455  2.0577 -0.5184
   78SOPE  H17S 7013  -0.335   0.823   5.284  1.5273 -0.1759 -0.0735
   78SOPE  C218 7014  -0.349   1.034   5.227  0.2017 -0.0353 -0.0159
   78SOPE  H18R 7015  -0.453   1.024   5.188  0.0898  0.7272  0.0689
   78SOPE  H18S 7016  -0.278   1.041   5.142 -0.1504 -0.8854 -0.3900
   78SOPE  H18T 7017  -0.339   1.132   5.278 -0.6573  0.2945 -0.4631
   78SOPE   C33 7018  -0.288   1.311   6.537  0.5785  0.7104  0.0553
   78SOPE   H3X 7019  -0.332   1.413   6.544 -0.5007  0.2541 -0.0034
   78SOPE   H3Y 7020  -0.371   1.237   6.535 -0.5547  1.8612  1.7138
   78SOPE   C34 7021  -0.217   1.298   6.400  0.2716 -0.0200  0.3793
   78SOPE   H4X 7022  -0.189   1.191   6.394  1.2902  0.1315  1.9555
   78SOPE   H4Y 7023  -0.119   1.350   6.392  0.3786 -0.4015 -1.3026
   78SOPE   C35 7024  -0.310   1.346   6.287  0.8332 -0.2132  0.5454
   78SOPE   H5X 7025  -0.345   1.450   6.306 -0.9393 -0.7684  0.5573
   78SOPE   H5Y 7026  -0.405   1.288   6.291 -0.0976  1.3171  1.1898
   78SOPE   C36 7027  -0.238   1.349   6.150 -0.2549  0.4510 -0.5562
   78SOPE   H6X 7028  -0.201   1.244   6.148 -2.9118 -0.5911  0.3349
   78SOPE   H6Y 7029  -0.150   1.415   6.164 -1.0162  1.7508 -1.6391
   78SOPE   C37 7030  -0.334   1.370   6.034  0.3575  0.4889 -0.5620
   78SOPE   H7X 7031  -0.281   1.371   5.936  0.9490  0.6642 -0.2427
   78SOPE   H7Y 7032  -0.390   1.465   6.045 -0.7812 -0.1396 -0.7415
   78SOPE   C38 7033  -0.433   1.253   6.007 -0.4531  0.7032 -1.0556
   78SOPE   H8X 7034  -0.490   1.234   6.101 -0.1035  0.7163 -0.8394
   78SOPE   H8Y 7035  -0.377   1.161   5.977  0.3340  0.7340  0.2439
   78SOPE   C39 7036  -0.528   1.277   5.894  0.2073  0.0812  0.5452
   78SOPE   H9X 7037  -0.597   1.363   5.911 -0.6002  0.1359 -2.3976
   78SOPE   H9Y 7038  -0.599   1.197   5.864 -0.5811  1.1804 -0.6964
   78SOPE  C310 7039  -0.464   1.330   5.761  0.3382  0.2320  0.6059
   78SOPE  H10X 7040  -0.388   1.257   5.726  1.2284  0.5791  1.7651
   78SOPE  H10Y 7041  -0.429   1.434   5.776 -2.1609  2.0261 -4.0066
   78SOPE  C311 7042  -0.555   1.354   5.642  0.2647  0.5942 -0.1025
   78SOPE  H11X 7043  -0.499   1.423   5.576 -0.1445 -1.1557 -2.3808
   78SOPE  H11Y 7044  -0.643   1.398   5.694  1.2289  0.7535  1.4551
   78SOPE  C312 7045  -0.589   1.228   5.565  0.9887  1.1543  0.4208
   78SOPE  H12X 7046  -0.662   1.161   5.616  0.1939  2.4433  1.0593
   78SOPE  H12Y 7047  -0.496   1.172   5.542  1.4717  1.7193  0.9565
   78SOPE  C313 7048  -0.659   1.257   5.427 -0.1200  0.1759 -0.0719
   78SOPE  H13X 7049  -0.651   1.169   5.359  2.3680  1.6336 -1.8155
   78SOPE  H13Y 7050  -0.617   1.347   5.376  0.3323 -0.7046 -1.3065
   78SOPE  C314 7051  -0.811   1.295   5.442  0.5212  0.3975 -0.5761
   78SOPE  H14X 7052  -0.837   1.377   5.512  0.9907 -0.4155  0.5837
   78SOPE  H14Y 7053  -0.855   1.197   5.470 -1.1056  1.6587  1.5606
   78SOPE  C315 7054  -0.869   1.326   5.298  0.4268  0.6308  0.0906
   78SOPE  H15X 7055  -0.966   1.272   5.303 -1.0171  3.0362 -0.4238
   78SOPE  H15Y 7056  -0.808   1.287   5.214 -1.5586  0.1521 -1.1788
   78SOPE  C316 7057  -0.907   1.471   5.276 -0.3021 -0.3338  0.4736
   78SOPE  H16X 7058  -0.972   1.519   5.353 -0.3212  2.0261 -0.8995
   78SOPE  H16Y 7059  -0.968   1.472   5.183  0.6115  2.5541 -0.2060
   78SOPE  C317 7060  -0.787   1.568   5.247  0.2089 -0.3125 -0.5058
   78SOPE  H17X 7061  -0.735   1.533   5.156  0.3350  0.7829 -0.8693
   78SOPE  H17Y 7062  -0.716   1.557   5.332 -0.7712  0.1588  0.4054
   78SOPE  C318 7063  -0.826   1.719   5.241  0.2448  0.1830  0.3848
   78SOPE  H18X 7064  -0.729   1.772   5.228  1.4939 -1.4283  2.5263
   78SOPE  H18Y 7065  -0.882   1.743   5.333  1.5411  0.0030  1.2512
   78SOPE  H18Z 7066  -0.893   1.735   5.154 -0.5077 -1.6421  0.5914
   79SOPE     N 7067   6.838   5.480   7.652 -0.2176 -0.5024 -0.0082
   79SOPE   HN1 7068   6.899   5.485   7.736  1.6548  0.6400 -1.3702
   79SOPE   HN2 7069   6.838   5.570   7.599  1.0024 -0.1342  0.6034
   79SOPE   HN3 7070   6.736   5.467   7.670 -0.5765  0.7472 -0.9699
   79SOPE   C12 7071   6.897   5.377   7.561  0.3348  0.7203  0.2043
   79SOPE  H12A 7072   6.894   5.277   7.610  0.3642 -0.4835 -2.1157
   79SOPE  H12B 7073   7.005   5.396   7.541  0.2153 -0.8625 -2.3064
   79SOPE   C11 7074   6.809   5.362   7.422  0.1542 -0.0908  0.1423
   79SOPE  H11A 7075   6.861   5.288   7.357  0.3421  1.2405 -1.2595
   79SOPE  H11B 7076   6.824   5.460   7.373  0.5796 -0.1730  0.0952
   79SOPE     P 7077   6.601   5.184   7.458 -0.1975 -0.2380 -0.1596
   79SOPE   O13 7078   6.462   5.207   7.502 -0.1693 -0.1808 -0.3380
   79SOPE   O14 7079   6.681   5.098   7.550  0.0896  0.2789  0.1974
   79SOPE   O12 7080   6.673   5.326   7.444  0.6903  0.2407 -0.2823
   79SOPE   O11 7081   6.612   5.137   7.308  0.3502 -0.4824  0.7325
   79SOPE    C1 7082   6.548   5.225   7.208  0.9088 -0.5314  0.6732
   79SOPE    HA 7083   6.523   5.329   7.239 -0.8303 -0.7123  0.0183
   79SOPE    HB 7084   6.444   5.189   7.189  0.5258  0.7239  0.2928
   79SOPE    C2 7085   6.617   5.229   7.065 -0.0407  0.1983 -0.2216
   79SOPE    HS 7086   6.550   5.280   6.993  0.2450 -0.9793 -1.3421
   79SOPE   O21 7087   6.643   5.094   7.018  0.0259  0.3596  0.1992
   79SOPE   C21 7088   6.540   5.027   6.973  0.5520  0.1408  0.4830
   79SOPE   O22 7089   6.426   5.069   6.973  0.1070  0.9898  0.1640
   79SOPE   C22 7090   6.583   4.887   6.916 -0.5371 -0.6671 -0.0574
   79SOPE   H2R 7091   6.579   4.804   6.989  0.0952 -0.8077 -0.1823
   79SOPE   H2S 7092   6.679   4.902   6.863 -0.7063  2.7559  0.3210
   79SOPE    C3 7093   6.752   5.303   7.071 -0.1574 -0.2584 -0.0892
   79SOPE    HX 7094   6.819   5.243   7.135 -0.9968 -2.5027 -1.2158
   79SOPE    HY 7095   6.731   5.397   7.127 -2.9106 -0.5034 -0.5410
   79SOPE   O31 7096   6.810   5.328   6.939  0.4806 -0.9361 -0.6356
   79SOPE   C31 7097   6.928   5.385   6.954  0.3402  0.7845  0.3308
   79SOPE   O32 7098   6.984   5.420   7.056 -0.5825  0.1311 -0.1512
   79SOPE   C32 7099   6.996   5.389   6.816  0.0767  0.2097 -0.1367
   79SOPE   H2X 7100   6.924   5.438   6.748 -1.1055 -1.5528 -0.2298
   79SOPE   H2Y 7101   7.018   5.283   6.791  2.1287  0.5444  0.0290
   79SOPE   C23 7102   6.485   4.809   6.820  0.0769 -0.6050  0.3985
   79SOPE   H3R 7103   6.386   4.817   6.871  0.0750 -2.2559  0.7197
   79SOPE   H3S 7104   6.502   4.699   6.818  1.6177 -0.3996  0.7633
   79SOPE   C24 7105   6.505   4.868   6.676 -0.0037 -0.0511  0.2477
   79SOPE   H4R 7106   6.456   4.967   6.660 -0.7388 -0.4896 -0.2662
   79SOPE   H4S 7107   6.613   4.886   6.655 -0.2513  0.7725 -0.3475
   79SOPE   C25 7108   6.455   4.770   6.568 -0.0904 -0.3747 -0.1412
   79SOPE   H5R 7109   6.511   4.676   6.585 -1.1354 -0.6101  2.3426
   79SOPE   H5S 7110   6.346   4.757   6.585 -0.7554  0.8499 -2.8624
   79SOPE   C26 7111   6.460   4.835   6.426 -0.0735 -0.4028  0.1573
   79SOPE   H6R 7112   6.406   4.932   6.427  0.5033 -0.0787  0.2110
   79SOPE   H6S 7113   6.560   4.851   6.380 -0.9994 -1.9763 -2.6594
   79SOPE   C27 7114   6.411   4.747   6.312 -0.0881  0.0828  0.0994
   79SOPE   H7R 7115   6.464   4.649   6.315  1.5281  0.8776 -1.1749
   79SOPE   H7S 7116   6.305   4.721   6.336 -0.5439  1.5458 -0.2630
   79SOPE   C28 7117   6.418   4.815   6.170  0.2534 -0.7293  0.3144
   79SOPE   H8R 7118   6.344   4.896   6.160 -1.5132 -1.7232  3.7542
   79SOPE   H8S 7119   6.518   4.862   6.160 -0.9886  2.1219  0.4835
   79SOPE   C29 7120   6.404   4.713   6.065 -0.4195  1.1161  0.0581
   79SOPE   H91 7121   6.470   4.628   6.087  0.2083  1.2091 -1.3780
   79SOPE  C210 7122   6.348   4.722   5.945 -0.3022 -0.5383  0.8717
   79SOPE  H101 7123   6.356   4.641   5.871 -0.9375  2.4706 -2.8137
   79SOPE  C211 7124   6.275   4.844   5.890  0.4020  1.1447  0.1439
   79SOPE  H11R 7125   6.201   4.882   5.963 -0.5109  0.0091 -0.1611
   79SOPE  H11S 7126   6.214   4.799   5.809  0.9956  0.8941 -0.1706
   79SOPE  C212 7127   6.368   4.956   5.841 -0.2792 -0.2897  0.8875
   79SOPE  H12R 7128   6.445   4.927   5.767  0.6809  0.5997  1.5083
   79SOPE  H12S 7129   6.419   4.991   5.933 -0.7853 -0.8636  1.4007
   79SOPE  C213 7130   6.287   5.061   5.767  0.2703 -0.2581  0.0369
   79SOPE  H13R 7131   6.337   5.157   5.790  0.9216 -1.1673  2.8537
   79SOPE  H13S 7132   6.189   5.074   5.818 -0.0347 -2.2149  0.0477
   79SOPE  C214 7133   6.249   5.025   5.617  0.0411  0.2828 -0.6026
   79SOPE  H14R 7134   6.201   4.925   5.612  3.4213 -1.5453  0.2655
   79SOPE  H14S 7135   6.341   5.012   5.556 -0.7003 -2.5951 -1.2776
   79SOPE  C215 7136   6.167   5.127   5.543 -0.5402  0.3849 -0.1247
   79SOPE  H15R 7137   6.156   5.087   5.440  0.4540  1.3744 -0.6287
   79SOPE  H15S 7138   6.235   5.214   5.532 -0.9561  0.9085  1.2863
   79SOPE  C216 7139   6.035   5.155   5.604 -0.0348 -0.3356  0.7329
   79SOPE  H16R 7140   6.049   5.186   5.710  2.8181  1.2178  0.0009
   79SOPE  H16S 7141   5.979   5.060   5.591  0.4068 -0.4412 -0.5217
   79SOPE  C217 7142   5.944   5.265   5.541 -0.1359 -0.2054 -0.3684
   79SOPE  H17R 7143   6.000   5.360   5.557 -1.4288  0.6048 -0.5490
   79SOPE  H17S 7144   5.856   5.264   5.609  0.5764  1.7978  0.6631
   79SOPE  C218 7145   5.902   5.254   5.398 -0.3149 -0.3458 -0.0357
   79SOPE  H18R 7146   5.840   5.336   5.356 -1.2836 -0.1106  1.7644
   79SOPE  H18S 7147   5.850   5.156   5.384  2.9560 -2.5294  1.7483
   79SOPE  H18T 7148   5.992   5.253   5.333 -0.2466 -1.1310  0.0586
   79SOPE   C33 7149   7.121   5.475   6.827  0.3014  0.2920  0.8660
   79SOPE   H3X 7150   7.175   5.444   6.919 -0.6899 -2.5660  0.5932
   79SOPE   H3Y 7151   7.089   5.581   6.830 -0.9715  0.2141 -3.3526
   79SOPE   C34 7152   7.200   5.454   6.691  0.0338 -0.3325 -0.2476
   79SOPE   H4X 7153   7.246   5.353   6.683  1.3311  0.3667 -3.4696
   79SOPE   H4Y 7154   7.287   5.524   6.685  0.0134 -0.1308  1.3592
   79SOPE   C35 7155   7.130   5.476   6.556 -1.0352  0.0398  0.3201
   79SOPE   H5X 7156   7.052   5.396   6.550 -0.4911 -0.4177 -1.1345
   79SOPE   H5Y 7157   7.204   5.457   6.475  1.3159  4.1058  1.2664
   79SOPE   C36 7158   7.072   5.616   6.534 -0.2955 -0.0342 -0.2753
   79SOPE   H6X 7159   7.161   5.679   6.556 -0.0444 -1.2202  2.6582
   79SOPE   H6Y 7160   6.992   5.642   6.608  1.2437  1.9172  0.7775
   79SOPE   C37 7161   7.035   5.626   6.386  0.1495  0.3158  0.2834
   79SOPE   H7X 7162   7.094   5.555   6.324  1.0061  0.1890  1.1974
   79SOPE   H7Y 7163   7.060   5.732   6.365 -2.2830  0.8437 -0.2673
   79SOPE   C38 7164   6.887   5.599   6.355  0.0952  0.0199 -0.9863
   79SOPE   H8X 7165   6.813   5.664   6.407 -1.6509 -2.2756 -0.4381
   79SOPE   H8Y 7166   6.857   5.498   6.390  0.4210 -0.1120 -1.0862
   79SOPE   C39 7167   6.861   5.618   6.205  0.0685  0.1232 -0.2840
   79SOPE   H9X 7168   6.910   5.537   6.146  0.0701  0.2664 -0.4787
   79SOPE   H9Y 7169   6.901   5.716   6.172 -0.7334  0.4857 -0.2183
   79SOPE  C310 7170   6.709   5.627   6.162  0.4736 -0.5586  0.2029
   79SOPE  H10X 7171   6.649   5.702   6.218 -1.1844 -0.2180 -1.8994
   79SOPE  H10Y 7172   6.662   5.533   6.198 -0.8141  0.2012  0.5976
   79SOPE  C311 7173   6.684   5.642   6.008  0.0052  0.5471  0.3066
   79SOPE  H11X 7174   6.765   5.583   5.961  1.3737  2.8138 -0.2806
   79SOPE  H11Y 7175   6.710   5.744   5.973  2.9879  0.1930  1.2498
   79SOPE  C312 7176   6.547   5.583   5.962 -0.3324  0.1407 -0.8204
   79SOPE  H12X 7177   6.470   5.645   6.013 -0.3060 -2.0992  2.2574
   79SOPE  H12Y 7178   6.527   5.481   6.001 -3.9534  1.0193  0.0140
   79SOPE  C313 7179   6.515   5.594   5.809 -0.9047  0.2469  0.6532
   79SOPE  H13X 7180   6.578   5.526   5.749 -1.5968 -0.6946  0.9582
   79SOPE  H13Y 7181   6.534   5.703   5.799  0.4493  0.2168  2.3227
   79SOPE  C314 7182   6.373   5.558   5.784 -1.0581  0.8931  0.5764
   79SOPE  H14X 7183   6.313   5.593   5.871  0.0358 -1.7662  2.5343
   79SOPE  H14Y 7184   6.353   5.449   5.777 -2.8117  1.2993 -3.5160
   79SOPE  C315 7185   6.318   5.610   5.652 -0.5182  0.7432  0.6838
   79SOPE  H15X 7186   6.255   5.531   5.607  1.4685 -0.2194 -0.5141
   79SOPE  H15Y 7187   6.389   5.640   5.573 -0.6168  0.3979  0.4630
   79SOPE  C316 7188   6.219   5.733   5.665 -0.5727  0.2725 -0.4009
   79SOPE  H16X 7189   6.141   5.704   5.739  0.0416 -0.1391  0.0943
   79SOPE  H16Y 7190   6.172   5.771   5.571  1.6004  1.2553 -1.1520
   79SOPE  C317 7191   6.301   5.856   5.711 -0.1400 -0.0797  0.1845
   79SOPE  H17X 7192   6.379   5.875   5.634 -0.2157 -2.4393 -0.5533
   79SOPE  H17Y 7193   6.356   5.814   5.798 -2.3007 -0.5730  1.3855
   79SOPE  C318 7194   6.231   5.990   5.748  0.4095 -0.1123 -0.5364
   79SOPE  H18X 7195   6.144   5.981   5.817 -0.0095  2.3847 -0.6744
   79SOPE  H18Y 7196   6.216   6.054   5.659  3.4605  2.4716  0.6301
   79SOPE  H18Z 7197   6.308   6.035   5.813  0.5651 -1.0193 -0.0761
   80SOPE     N 7198   4.151   1.301   7.897 -0.2796 -0.1501  0.1175
   80SOPE   HN1 7199   4.058   1.331   7.933 -0.2496  0.3030 -0.1658
   80SOPE   HN2 7200   4.186   1.221   7.952  2.2344 -1.2536 -2.8294
   80SOPE   HN3 7201   4.213   1.384   7.904 -0.6671  0.5217 -2.9061
   80SOPE   C12 7202   4.152   1.235   7.758  0.8049 -0.1907  0.6792
   80SOPE  H12A 7203   4.125   1.306   7.678  1.9346 -1.4609 -0.8793
   80SOPE  H12B 7204   4.078   1.152   7.753  0.1421  0.4774 -1.6253
   80SOPE   C11 7205   4.291   1.180   7.715  0.1428 -0.4522 -0.0611
   80SOPE  H11A 7206   4.292   1.124   7.619 -1.6713 -2.9022  1.2297
   80SOPE  H11B 7207   4.322   1.105   7.791 -1.9265  0.6167  1.9637
   80SOPE     P 7208   4.416   1.363   7.571  0.3828  0.2633  0.0666
   80SOPE   O13 7209   4.463   1.495   7.607  0.1739 -0.1606  0.1941
   80SOPE   O14 7210   4.299   1.356   7.478  0.4067  0.5579  0.4693
   80SOPE   O12 7211   4.393   1.280   7.708 -0.3401 -0.2988  0.3391
   80SOPE   O11 7212   4.543   1.292   7.512 -0.6334  0.3063  0.0364
   80SOPE    C1 7213   4.567   1.149   7.497 -0.0253 -0.1414 -0.7048
   80SOPE    HA 7214   4.502   1.093   7.568  1.1003  2.0953  2.3565
   80SOPE    HB 7215   4.666   1.125   7.541  0.3942 -0.5448 -1.8325
   80SOPE    C2 7216   4.550   1.075   7.359 -0.0243  0.5989 -0.6671
   80SOPE    HS 7217   4.514   0.971   7.370 -0.0056  0.4649 -1.8040
   80SOPE   O21 7218   4.674   1.079   7.288 -0.3681  0.2311  0.5375
   80SOPE   C21 7219   4.707   0.977   7.216 -0.7402  0.1139  0.1211
   80SOPE   O22 7220   4.646   0.874   7.213  0.0369 -0.4443  0.0653
   80SOPE   C22 7221   4.820   1.015   7.125  0.2367 -0.0732 -0.4400
   80SOPE   H2R 7222   4.887   1.076   7.189 -0.2583  0.7513 -0.6853
   80SOPE   H2S 7223   4.785   1.092   7.053  0.4690  1.4731  1.0321
   80SOPE    C3 7224   4.436   1.132   7.267 -0.2618  0.2017  0.5551
   80SOPE    HX 7225   4.471   1.233   7.235 -1.0146  0.8109  1.5775
   80SOPE    HY 7226   4.348   1.162   7.329 -0.0481  1.0107  0.4838
   80SOPE   O31 7227   4.411   1.045   7.156 -0.1803  0.2193  0.1957
   80SOPE   C31 7228   4.320   0.949   7.177  0.0500 -0.0822 -0.0444
   80SOPE   O32 7229   4.266   0.925   7.279  0.4495 -0.2088  0.3667
   80SOPE   C32 7230   4.301   0.865   7.040  0.0973 -0.5004  1.0385
   80SOPE   H2X 7231   4.403   0.830   7.016  0.1098  1.2073 -1.8150
   80SOPE   H2Y 7232   4.281   0.946   6.967 -0.9886  0.0800  1.9381
   80SOPE   C23 7233   4.895   0.894   7.059  0.8876 -0.3442  0.3908
   80SOPE   H3R 7234   4.854   0.798   7.098 -0.7655  0.8045  1.6515
   80SOPE   H3S 7235   5.005   0.906   7.070  0.7524  1.0387  0.3712
   80SOPE   C24 7236   4.868   0.893   6.908  0.9468  0.1262 -0.1738
   80SOPE   H4R 7237   4.908   0.991   6.876  0.2920 -0.2495 -2.3303
   80SOPE   H4S 7238   4.934   0.816   6.862  1.7213 -0.4714  1.8310
   80SOPE   C25 7239   4.726   0.862   6.860  0.9290  0.8125 -0.1337
   80SOPE   H5R 7240   4.692   0.765   6.904  1.9058  0.0355 -1.0501
   80SOPE   H5S 7241   4.648   0.927   6.905 -1.0730 -0.5572 -1.4694
   80SOPE   C26 7242   4.719   0.860   6.706 -1.0334  0.1728  0.1671
   80SOPE   H6R 7243   4.756   0.963   6.688 -0.1731 -0.4213 -1.7781
   80SOPE   H6S 7244   4.796   0.795   6.659  2.5888  0.6545  4.7601
   80SOPE   C27 7245   4.576   0.842   6.645 -0.5953  0.5769 -0.0245
   80SOPE   H7R 7246   4.542   0.739   6.671 -1.3146  1.0855  1.1529
   80SOPE   H7S 7247   4.508   0.918   6.687 -0.7325  0.8530 -0.7401
   80SOPE   C28 7248   4.579   0.876   6.496 -0.3414  0.5848  0.2052
   80SOPE   H8R 7249   4.591   0.986   6.481 -0.2222  0.6109  0.4954
   80SOPE   H8S 7250   4.678   0.841   6.459 -0.3016  0.1108  0.7614
   80SOPE   C29 7251   4.470   0.817   6.416  0.1621  0.2999 -0.5872
   80SOPE   H91 7252   4.375   0.819   6.471  0.0455 -1.0668 -0.7144
   80SOPE  C210 7253   4.479   0.755   6.299 -0.4119 -0.1022 -0.6585
   80SOPE  H101 7254   4.386   0.712   6.257 -1.1660 -1.8329  2.4977
   80SOPE  C211 7255   4.595   0.739   6.198  1.0101 -0.5313  0.6051
   80SOPE  H11R 7256   4.612   0.638   6.156  2.0461 -0.1888  0.1648
   80SOPE  H11S 7257   4.687   0.776   6.249  0.2136  1.2374  0.8602
   80SOPE  C212 7258   4.589   0.845   6.085  0.8090  0.0742  1.5976
   80SOPE  H12R 7259   4.678   0.844   6.019 -0.8155  4.3344 -1.0606
   80SOPE  H12S 7260   4.561   0.951   6.104  0.1022  0.0431  0.7787
   80SOPE  C213 7261   4.482   0.801   5.979  0.0495 -0.1852 -0.3782
   80SOPE  H13R 7262   4.382   0.791   6.027  0.3003 -0.8937 -0.0087
   80SOPE  H13S 7263   4.521   0.706   5.938  0.0626  1.2287 -4.0349
   80SOPE  C214 7264   4.477   0.911   5.860 -1.0394  0.1991 -0.5199
   80SOPE  H14R 7265   4.575   0.916   5.807 -0.2929  1.6286  0.9149
   80SOPE  H14S 7266   4.468   1.012   5.905  1.0914 -0.1805  0.9172
   80SOPE  C215 7267   4.357   0.876   5.771 -0.1805 -0.4858 -1.2998
   80SOPE  H15R 7268   4.330   0.966   5.712  1.1616  0.4404 -0.5532
   80SOPE  H15S 7269   4.272   0.852   5.838  1.0599 -0.3656  0.3719
   80SOPE  C216 7270   4.381   0.749   5.680 -0.1115  0.4600 -0.0505
   80SOPE  H16R 7271   4.357   0.657   5.737  0.7230  0.1799 -0.1412
   80SOPE  H16S 7272   4.490   0.749   5.658  0.1433 -0.0672  1.1255
   80SOPE  C217 7273   4.295   0.757   5.557 -0.5644  0.0532  0.5846
   80SOPE  H17R 7274   4.328   0.853   5.514  0.2953 -0.0155  1.0800
   80SOPE  H17S 7275   4.196   0.766   5.607 -0.0359 -0.4029  1.7359
   80SOPE  C218 7276   4.297   0.644   5.458  0.3890 -0.6723 -0.2976
   80SOPE  H18R 7277   4.306   0.543   5.504 -0.3070  0.5799  2.7865
   80SOPE  H18S 7278   4.392   0.651   5.401  2.1460 -0.7440  2.4495
   80SOPE  H18T 7279   4.215   0.649   5.383 -1.5407  1.2255  1.8109
   80SOPE   C33 7280   4.200   0.746   7.038 -0.4647  0.1220  0.0928
   80SOPE   H3X 7281   4.097   0.771   7.069 -0.7518  0.7424 -1.2913
   80SOPE   H3Y 7282   4.247   0.682   7.117 -1.2207  1.1800  1.4448
   80SOPE   C34 7283   4.202   0.690   6.896  0.4629  0.0714  0.2754
   80SOPE   H4X 7284   4.143   0.595   6.900 -3.3272  2.2046 -0.6328
   80SOPE   H4Y 7285   4.309   0.673   6.871  0.5039 -0.2837  0.6638
   80SOPE   C35 7286   4.142   0.773   6.783  0.2458 -0.1961 -0.3254
   80SOPE   H5X 7287   4.202   0.865   6.766  1.2876 -0.7383  0.3158
   80SOPE   H5Y 7288   4.037   0.808   6.798  0.7333  0.9119  0.7012
   80SOPE   C36 7289   4.144   0.701   6.644  0.1361 -0.2052 -0.3628
   80SOPE   H6X 7290   4.090   0.604   6.656 -1.7909  0.9748  1.1429
   80SOPE   H6Y 7291   4.243   0.667   6.609 -0.2132 -0.4441 -1.1446
   80SOPE   C37 7292   4.072   0.780   6.546  0.2708  0.0993 -0.2986
   80SOPE   H7X 7293   4.121   0.880   6.547 -0.7966  0.6338 -0.5105
   80SOPE   H7Y 7294   3.964   0.793   6.567  0.2534 -0.7543  0.1928
   80SOPE   C38 7295   4.093   0.712   6.410 -0.5456 -0.0333 -0.4477
   80SOPE   H8X 7296   4.028   0.623   6.396  1.3266 -1.1568 -2.5836
   80SOPE   H8Y 7297   4.196   0.674   6.399 -0.6536 -0.1252 -1.1725
   80SOPE   C39 7298   4.052   0.808   6.299 -0.2451  0.1358 -0.4612
   80SOPE   H9X 7299   4.129   0.888   6.300 -1.2220  1.0948  0.6733
   80SOPE   H9Y 7300   3.952   0.855   6.304 -0.0936  0.4185 -0.0842
   80SOPE  C310 7301   4.068   0.742   6.154  0.3541 -0.2585 -0.2485
   80SOPE  H10X 7302   4.001   0.653   6.167 -0.0030  0.2276  1.6614
   80SOPE  H10Y 7303   4.174   0.709   6.152  0.6712  0.4758  1.7470
   80SOPE  C311 7304   4.033   0.825   6.031 -0.2897  0.1914 -0.0871
   80SOPE  H11X 7305   4.113   0.899   6.010 -0.5281  0.1130 -1.3491
   80SOPE  H11Y 7306   3.941   0.883   6.055  0.2390  0.8633  0.3599
   80SOPE  C312 7307   4.012   0.739   5.903  0.0601  0.8153 -0.2555
   80SOPE  H12X 7308   3.948   0.654   5.935  1.6345 -0.5726 -0.6952
   80SOPE  H12Y 7309   4.108   0.698   5.865  0.8297  0.4469  1.9434
   80SOPE  C313 7310   3.934   0.802   5.791  0.6023  0.2482  0.3492
   80SOPE  H13X 7311   3.982   0.890   5.745 -0.7714 -0.5720 -2.9201
   80SOPE  H13Y 7312   3.837   0.841   5.829 -0.7905 -1.1552 -1.5659
   80SOPE  C314 7313   3.898   0.699   5.681 -0.2888 -0.2674  0.6008
   80SOPE  H14X 7314   3.833   0.618   5.720  0.0999 -1.1015 -0.4485
   80SOPE  H14Y 7315   3.993   0.652   5.650 -0.6880 -1.0086  0.4761
   80SOPE  C315 7316   3.826   0.765   5.557 -0.1392  0.0099  0.2070
   80SOPE  H15X 7317   3.898   0.838   5.514 -0.0065  0.3805  1.0469
   80SOPE  H15Y 7318   3.743   0.830   5.594  1.2691  0.6172  2.5170
   80SOPE  C316 7319   3.776   0.663   5.454 -0.7411  0.6567  0.0529
   80SOPE  H16X 7320   3.697   0.709   5.391 -2.3134 -2.3453 -0.3263
   80SOPE  H16Y 7321   3.726   0.584   5.514 -1.1344  0.9267  0.0872
   80SOPE  C317 7322   3.883   0.601   5.367  0.0566  0.0908  0.3312
   80SOPE  H17X 7323   3.973   0.579   5.428  0.1398 -0.1100  0.1364
   80SOPE  H17Y 7324   3.924   0.675   5.294  1.8340 -1.2897 -0.1286
   80SOPE  C318 7325   3.841   0.476   5.293  0.1060  0.0934  0.0779
   80SOPE  H18X 7326   3.813   0.391   5.358  0.6559 -1.9878 -2.2525
   80SOPE  H18Y 7327   3.931   0.440   5.240 -0.3620 -3.0748  1.2100
   80SOPE  H18Z 7328   3.757   0.486   5.221 -0.8407  0.4008  1.1924
   81SOPE     N 7329   1.219   5.640   7.527 -0.6960 -0.1986 -0.1034
   81SOPE   HN1 7330   1.226   5.743   7.526 -0.7745 -0.1875  0.3679
   81SOPE   HN2 7331   1.170   5.599   7.445  0.0159 -1.3946  0.0378
   81SOPE   HN3 7332   1.181   5.614   7.620  2.9068 -1.5142  1.2037
   81SOPE   C12 7333   1.357   5.594   7.507 -0.8036  0.6280  0.5605
   81SOPE  H12A 7334   1.417   5.655   7.578  0.1726  0.4775 -0.1234
   81SOPE  H12B 7335   1.381   5.616   7.401 -3.4458 -0.7121 -0.3930
   81SOPE   C11 7336   1.370   5.437   7.532  0.7006 -0.1159  0.2988
   81SOPE  H11A 7337   1.291   5.378   7.481  0.5487  0.1461  0.2267
   81SOPE  H11B 7338   1.370   5.436   7.643  0.3519  1.6193  0.3461
   81SOPE     P 7339   1.574   5.274   7.551  0.0860 -0.3760  0.4587
   81SOPE   O13 7340   1.499   5.222   7.663  0.5439  0.2243  0.1427
   81SOPE   O14 7341   1.707   5.324   7.574 -0.6117 -0.2977 -0.2625
   81SOPE   O12 7342   1.492   5.386   7.482  0.3476  0.3275 -0.1215
   81SOPE   O11 7343   1.582   5.168   7.433 -0.2167  0.1977  0.0956
   81SOPE    C1 7344   1.455   5.102   7.392  0.5368 -0.9530  0.0033
   81SOPE    HA 7345   1.363   5.136   7.443 -0.9613  1.3188 -3.8257
   81SOPE    HB 7346   1.476   4.994   7.407  2.1867 -0.5025  1.4338
   81SOPE    C2 7347   1.418   5.114   7.241 -0.6015  0.7985  0.3180
   81SOPE    HS 7348   1.326   5.057   7.216 -0.1166  1.0539 -2.4019
   81SOPE   O21 7349   1.533   5.066   7.163  0.3129  0.0608 -0.2028
   81SOPE   C21 7350   1.511   5.007   7.050 -0.5968 -0.2830  0.1004
   81SOPE   O22 7351   1.406   4.975   6.996 -0.1166 -0.0865  0.0777
   81SOPE   C22 7352   1.649   4.954   7.003  0.4148 -0.5221  0.1930
   81SOPE   H2R 7353   1.710   4.931   7.093  0.9293 -1.1722 -0.3115
   81SOPE   H2S 7354   1.691   5.042   6.949 -0.6620 -0.9653 -1.4397
   81SOPE    C3 7355   1.386   5.260   7.203  0.4170  0.0415 -0.6220
   81SOPE    HX 7356   1.473   5.313   7.246 -0.3230 -0.5700  1.7673
   81SOPE    HY 7357   1.293   5.295   7.253  1.0143  0.4850  0.1899
   81SOPE   O31 7358   1.359   5.254   7.066 -0.4446 -0.0611  0.0524
   81SOPE   C31 7359   1.339   5.371   7.011  0.1020 -0.5788 -0.9049
   81SOPE   O32 7360   1.323   5.475   7.076  0.1166  0.1041  0.2345
   81SOPE   C32 7361   1.360   5.358   6.864 -0.1499  0.5705  0.1811
   81SOPE   H2X 7362   1.338   5.455   6.815  1.3593  1.7322  1.7224
   81SOPE   H2Y 7363   1.291   5.279   6.826 -1.2366  2.5971 -2.3733
   81SOPE   C23 7364   1.633   4.825   6.916  0.4930 -0.6706  0.6238
   81SOPE   H3R 7365   1.549   4.760   6.947 -2.1758  2.2654  0.0452
   81SOPE   H3S 7366   1.727   4.765   6.919  2.6521  2.4203  0.2320
   81SOPE   C24 7367   1.604   4.855   6.768 -0.5948  0.0092 -0.3435
   81SOPE   H4R 7368   1.558   4.764   6.723 -1.5247  1.1814 -1.8211
   81SOPE   H4S 7369   1.532   4.937   6.750  0.8061  1.2562 -0.4391
   81SOPE   C25 7370   1.727   4.885   6.682  0.1214 -0.0688 -0.3964
   81SOPE   H5R 7371   1.775   4.980   6.715  1.7503 -1.0305  0.1178
   81SOPE   H5S 7372   1.804   4.805   6.695  0.1161 -0.6338 -3.2017
   81SOPE   C26 7373   1.699   4.891   6.534  0.6299  0.3876  0.5551
   81SOPE   H6R 7374   1.619   4.965   6.514 -1.4494 -1.3862  1.8683
   81SOPE   H6S 7375   1.795   4.929   6.493  1.5432 -1.3872  0.9317
   81SOPE   C27 7376   1.673   4.755   6.472 -0.0628  0.3529  0.0818
   81SOPE   H7R 7377   1.741   4.677   6.513  1.4392  0.8116 -1.4309
   81SOPE   H7S 7378   1.569   4.725   6.497 -0.4167  0.5090 -1.1123
   81SOPE   C28 7379   1.674   4.736   6.317 -0.7071 -0.2194  0.3073
   81SOPE   H8R 7380   1.780   4.723   6.287 -0.6674 -0.3524  0.5040
   81SOPE   H8S 7381   1.616   4.643   6.301 -1.2125 -0.1235  1.4545
   81SOPE   C29 7382   1.596   4.841   6.244  0.3745 -0.2998  0.3699
   81SOPE   H91 7383   1.511   4.868   6.308  0.2343 -1.2995  0.6196
   81SOPE  C210 7384   1.612   4.894   6.120 -0.0542 -0.2401  0.1893
   81SOPE  H101 7385   1.557   4.988   6.103  0.7340  0.1440 -0.2989
   81SOPE  C211 7386   1.723   4.850   6.021  0.1375 -0.3441 -0.1012
   81SOPE  H11R 7387   1.780   4.772   6.076  0.0186  0.4276  1.1582
   81SOPE  H11S 7388   1.793   4.931   5.990  2.5727 -1.9531  0.9385
   81SOPE  C212 7389   1.667   4.803   5.893 -0.5679  0.0246  0.2712
   81SOPE  H12R 7390   1.755   4.799   5.825  1.4964  2.1593  2.6123
   81SOPE  H12S 7391   1.602   4.880   5.846  2.1897  1.1370 -2.0019
   81SOPE  C213 7392   1.592   4.672   5.891 -0.2142  0.4080 -0.0257
   81SOPE  H13R 7393   1.504   4.669   5.958  0.6690 -1.4709  1.1516
   81SOPE  H13S 7394   1.644   4.583   5.932 -3.2853 -1.3371  0.3251
   81SOPE  C214 7395   1.539   4.626   5.748 -0.4608  0.9692 -0.5045
   81SOPE  H14R 7396   1.624   4.608   5.679  0.4098  0.0547  0.7574
   81SOPE  H14S 7397   1.486   4.713   5.705 -2.0767  0.5299  0.4922
   81SOPE  C215 7398   1.450   4.506   5.753 -0.1712 -0.1642  0.2749
   81SOPE  H15R 7399   1.420   4.487   5.647  1.1860 -1.8300  0.1327
   81SOPE  H15S 7400   1.355   4.526   5.805 -0.4950 -2.2821  0.5939
   81SOPE  C216 7401   1.513   4.378   5.797 -0.5163  0.2601 -0.7052
   81SOPE  H16R 7402   1.436   4.301   5.778 -0.9978  0.7074 -0.5809
   81SOPE  H16S 7403   1.538   4.377   5.905  0.4005 -0.3898 -0.9162
   81SOPE  C217 7404   1.641   4.328   5.724  0.1065  0.7793 -0.2433
   81SOPE  H17R 7405   1.727   4.387   5.763 -0.6403  0.6926  1.6020
   81SOPE  H17S 7406   1.645   4.348   5.614  0.6077 -1.9315 -0.7948
   81SOPE  C218 7407   1.669   4.176   5.745  0.0341 -0.3795  0.3447
   81SOPE  H18R 7408   1.578   4.128   5.703 -0.0850  0.5358 -0.4772
   81SOPE  H18S 7409   1.680   4.145   5.851  0.7808 -0.3009  0.2932
   81SOPE  H18T 7410   1.755   4.139   5.684 -0.2312  0.4825 -0.5691
   81SOPE   C33 7411   1.510   5.334   6.829  0.8374  0.0351  0.0451
   81SOPE   H3X 7412   1.552   5.257   6.897  0.5519  0.5093  0.7741
   81SOPE   H3Y 7413   1.576   5.421   6.851 -0.3690  1.4422 -1.6118
   81SOPE   C34 7414   1.533   5.284   6.679 -0.4744 -0.0504  0.2773
   81SOPE   H4X 7415   1.454   5.208   6.663 -1.3150  0.8873 -0.1174
   81SOPE   H4Y 7416   1.635   5.240   6.680  0.8827  2.8474  0.6305
   81SOPE   C35 7417   1.532   5.386   6.561  0.2747  0.1810 -0.3239
   81SOPE   H5X 7418   1.592   5.479   6.572  0.1110  0.2610 -0.0851
   81SOPE   H5Y 7419   1.430   5.428   6.545  0.4983  0.4243 -1.1679
   81SOPE   C36 7420   1.581   5.319   6.440 -1.0606  0.2449  0.3431
   81SOPE   H6X 7421   1.560   5.213   6.464  3.8420 -0.6762  1.7665
   81SOPE   H6Y 7422   1.691   5.330   6.427 -1.0236 -0.9920 -0.5369
   81SOPE   C37 7423   1.523   5.370   6.309  0.3142  0.1732 -0.2050
   81SOPE   H7X 7424   1.596   5.454   6.301  0.6436  0.0890  1.4680
   81SOPE   H7Y 7425   1.419   5.408   6.317  0.5902  0.8701  0.1995
   81SOPE   C38 7426   1.540   5.269   6.194 -0.4775 -0.0072  0.1806
   81SOPE   H8X 7427   1.472   5.182   6.210 -2.1587  1.1426 -0.4341
   81SOPE   H8Y 7428   1.641   5.224   6.210 -1.3080 -1.3081  2.2811
   81SOPE   C39 7429   1.517   5.330   6.055 -0.1895  0.2127  0.7876
   81SOPE   H9X 7430   1.583   5.419   6.051  0.2390 -0.1081  0.6176
   81SOPE   H9Y 7431   1.413   5.368   6.043 -0.7549 -1.2847  0.7484
   81SOPE  C310 7432   1.554   5.246   5.934 -0.0240  0.4253 -0.3681
   81SOPE  H10X 7433   1.512   5.144   5.951 -0.8724  0.2892 -2.7622
   81SOPE  H10Y 7434   1.664   5.236   5.923  0.1191  3.3322 -2.7332
   81SOPE  C311 7435   1.510   5.299   5.796  0.3873 -0.2013 -0.7118
   81SOPE  H11X 7436   1.527   5.409   5.794 -1.6969  0.1899 -0.1739
   81SOPE  H11Y 7437   1.400   5.282   5.793  0.5256 -1.6971  0.8949
   81SOPE  C312 7438   1.587   5.225   5.680  0.6651 -0.0939  0.6761
   81SOPE  H12X 7439   1.562   5.117   5.689 -0.9731  0.2064  0.0824
   81SOPE  H12Y 7440   1.697   5.233   5.692  0.9886 -0.1109 -1.7813
   81SOPE  C313 7441   1.543   5.287   5.546 -0.3456  0.0619 -0.0193
   81SOPE  H13X 7442   1.604   5.377   5.523 -0.1009  0.2340  1.1923
   81SOPE  H13Y 7443   1.435   5.313   5.538 -0.8123 -0.9329  2.2141
   81SOPE  C314 7444   1.584   5.189   5.429 -0.1372  0.0618  0.6551
   81SOPE  H14X 7445   1.528   5.097   5.452 -1.5974  0.9627  0.8339
   81SOPE  H14Y 7446   1.692   5.165   5.441  0.1788  0.3891 -1.2602
   81SOPE  C315 7447   1.554   5.249   5.283  0.1899 -0.4121 -0.2490
   81SOPE  H15X 7448   1.624   5.335   5.293  0.9941 -1.1772  0.9345
   81SOPE  H15Y 7449   1.444   5.264   5.290 -0.1865 -1.8360 -2.1922
   81SOPE  C316 7450   1.584   5.136   5.180  0.5092  0.0455  0.7899
   81SOPE  H16X 7451   1.545   5.038   5.215 -0.2045  0.2267  0.5097
   81SOPE  H16Y 7452   1.695   5.125   5.174  0.4717 -1.0243  1.5577
   81SOPE  C317 7453   1.527   5.159   5.040 -0.5970 -0.1056  0.1219
   81SOPE  H17X 7454   1.564   5.260   5.012 -0.1189 -0.1148  0.7084
   81SOPE  H17Y 7455   1.416   5.157   5.034 -0.6326 -1.2259  0.7665
   81SOPE  C318 7456   1.593   5.050   4.950 -0.0386 -0.3132 -0.3971
   81SOPE  H18X 7457   1.576   4.945   4.982  1.5603 -1.0793 -1.9019
   81SOPE  H18Y 7458   1.702   5.069   4.947 -0.3068  2.3594  2.2595
   81SOPE  H18Z 7459   1.555   5.066   4.847 -2.9857 -2.5965  0.2036
   82SOPE     N 7460   4.526   3.344   7.216 -0.0822 -0.2093 -0.2338
   82SOPE   HN1 7461   4.618   3.392   7.218  0.9749 -2.1353  2.5302
   82SOPE   HN2 7462   4.450   3.414   7.229  0.6279  0.3525  1.0498
   82SOPE   HN3 7463   4.514   3.282   7.298  0.2385 -0.0387 -0.0560
   82SOPE   C12 7464   4.513   3.277   7.084 -0.6001 -0.0377 -0.3270
   82SOPE  H12A 7465   4.549   3.343   7.003 -0.0851  0.2892  0.1634
   82SOPE  H12B 7466   4.405   3.250   7.073 -1.2791  2.4475 -0.2596
   82SOPE   C11 7467   4.598   3.148   7.083  0.2358 -0.2138 -0.2012
   82SOPE  H11A 7468   4.705   3.175   7.071  1.1228 -3.3806 -0.3343
   82SOPE  H11B 7469   4.574   3.094   6.989 -0.6449  0.4539 -0.3738
   82SOPE     P 7470   4.676   2.964   7.236  0.4507  0.0935 -0.1400
   82SOPE   O13 7471   4.609   2.850   7.300  0.1681  0.1471 -0.3078
   82SOPE   O14 7472   4.785   3.031   7.315  0.4694 -0.1427  0.2711
   82SOPE   O12 7473   4.564   3.071   7.198  0.0945 -0.1409  0.4268
   82SOPE   O11 7474   4.726   2.922   7.094 -0.1045  0.1171 -0.1741
   82SOPE    C1 7475   4.770   2.802   7.041  0.3746  0.7131 -0.1468
   82SOPE    HA 7476   4.702   2.767   6.959  0.6715  0.7692 -0.4199
   82SOPE    HB 7477   4.779   2.718   7.113  0.1537 -0.5507 -1.5433
   82SOPE    C2 7478   4.904   2.825   6.967 -0.5278 -0.1256  0.1447
   82SOPE    HS 7479   4.977   2.872   7.037 -1.9209  0.3565  1.3372
   82SOPE   O21 7480   4.874   2.909   6.854  0.4146 -0.4841  0.3628
   82SOPE   C21 7481   4.930   3.035   6.854 -0.3338 -0.3490 -0.0830
   82SOPE   O22 7482   4.996   3.083   6.945  0.6977  0.6483  0.4798
   82SOPE   C22 7483   4.926   3.086   6.709  0.5508  0.1670  0.2483
   82SOPE   H2R 7484   4.830   3.049   6.667  0.5245  0.7076 -0.1765
   82SOPE   H2S 7485   5.014   3.062   6.646  0.0887 -0.9206 -0.0044
   82SOPE    C3 7486   4.967   2.689   6.920  0.1616 -0.1208  0.5542
   82SOPE    HX 7487   4.880   2.634   6.878  1.1259  0.3476 -2.2432
   82SOPE    HY 7488   4.989   2.624   7.007 -0.2118 -0.3530  0.4775
   82SOPE   O31 7489   5.069   2.696   6.824  0.1656 -0.1732  0.2962
   82SOPE   C31 7490   5.178   2.735   6.873 -0.6924  0.4841 -0.4128
   82SOPE   O32 7491   5.204   2.751   6.989  0.1168  0.6686  0.2894
   82SOPE   C32 7492   5.270   2.776   6.764 -0.0710 -0.2044  0.0121
   82SOPE   H2X 7493   5.230   2.875   6.735 -1.1859 -0.9546 -1.1361
   82SOPE   H2Y 7494   5.255   2.704   6.681  0.6166 -2.4100  1.7122
   82SOPE   C23 7495   4.916   3.242   6.706  0.1308  0.9378 -0.6436
   82SOPE   H3R 7496   5.017   3.283   6.727  0.3051  0.1659  0.1004
   82SOPE   H3S 7497   4.852   3.272   6.792 -1.2458 -2.8327 -0.1702
   82SOPE   C24 7498   4.850   3.300   6.586  0.5809  0.4651  0.9958
   82SOPE   H4R 7499   4.751   3.252   6.573  2.2077 -2.6583 -1.4107
   82SOPE   H4S 7500   4.827   3.407   6.603  0.3794  0.3981  1.1382
   82SOPE   C25 7501   4.927   3.267   6.456  0.4918 -0.3618  0.5491
   82SOPE   H5R 7502   5.013   3.335   6.443  0.7168 -0.9507 -1.3601
   82SOPE   H5S 7503   4.973   3.166   6.458  0.8102 -0.5518 -4.3316
   82SOPE   C26 7504   4.842   3.274   6.326 -0.3221  0.5807 -0.3729
   82SOPE   H6R 7505   4.904   3.219   6.253  0.6151  0.3038  0.6079
   82SOPE   H6S 7506   4.748   3.215   6.335  0.2827 -0.8419 -2.5794
   82SOPE   C27 7507   4.821   3.413   6.273 -0.2048 -0.6129  0.2415
   82SOPE   H7R 7508   4.735   3.468   6.317  1.2069  1.2236  0.8330
   82SOPE   H7S 7509   4.904   3.476   6.312 -1.6075  0.9146  0.8567
   82SOPE   C28 7510   4.828   3.423   6.113 -0.5788  0.0111  0.7968
   82SOPE   H8R 7511   4.918   3.366   6.080  0.0130  1.0508  0.5602
   82SOPE   H8S 7512   4.744   3.361   6.075 -0.6170  2.2543 -3.3425
   82SOPE   C29 7513   4.830   3.564   6.053  0.1951  0.6012 -0.4746
   82SOPE   H91 7514   4.921   3.620   6.082  0.8491 -0.4412 -0.4744
   82SOPE  C210 7515   4.729   3.616   5.991  0.1461 -0.3964  0.4376
   82SOPE  H101 7516   4.733   3.717   5.948  0.0160  0.3995  2.2034
   82SOPE  C211 7517   4.602   3.542   5.960  0.1656 -0.0693 -0.1373
   82SOPE  H11R 7518   4.510   3.601   5.984 -1.1048 -1.7450 -0.7445
   82SOPE  H11S 7519   4.584   3.447   6.015  0.7052 -0.4120 -0.5477
   82SOPE  C212 7520   4.600   3.504   5.808 -0.8681 -1.1022 -0.0717
   82SOPE  H12R 7521   4.700   3.465   5.779  0.1704  1.4947 -0.3393
   82SOPE  H12S 7522   4.585   3.598   5.750  2.6239  0.2590  0.9368
   82SOPE  C213 7523   4.481   3.420   5.779 -0.6265  0.6662  0.3049
   82SOPE  H13R 7524   4.389   3.482   5.769 -0.3913  0.7051 -2.3988
   82SOPE  H13S 7525   4.476   3.344   5.859  1.3067  0.0370 -0.0968
   82SOPE  C214 7526   4.479   3.347   5.641 -0.0453 -0.9300 -0.1709
   82SOPE  H14R 7527   4.519   3.244   5.651 -0.0658 -1.1753 -2.2199
   82SOPE  H14S 7528   4.543   3.402   5.568  0.4194  0.8160  1.4626
   82SOPE  C215 7529   4.339   3.330   5.587  0.2427 -0.8909 -0.9002
   82SOPE  H15R 7530   4.337   3.301   5.480  1.3530 -0.2841 -1.0954
   82SOPE  H15S 7531   4.282   3.425   5.596  1.7361 -0.0031 -0.4734
   82SOPE  C216 7532   4.261   3.236   5.679  0.3697 -0.0585  0.5972
   82SOPE  H16R 7533   4.153   3.257   5.671  0.3564 -0.7657 -2.2508
   82SOPE  H16S 7534   4.287   3.253   5.785 -2.6615  2.1470  1.1141
   82SOPE  C217 7535   4.271   3.088   5.637 -0.7986  0.3598 -0.0783
   82SOPE  H17R 7536   4.377   3.060   5.623 -0.8519 -0.3332  0.8682
   82SOPE  H17S 7537   4.223   3.077   5.537 -0.6097 -0.5349 -0.0802
   82SOPE  C218 7538   4.211   3.005   5.744 -0.5188  0.2785 -0.0465
   82SOPE  H18R 7539   4.241   2.900   5.728 -2.2748 -0.2549 -0.0009
   82SOPE  H18S 7540   4.102   3.024   5.748 -0.5756  0.5003 -1.8358
   82SOPE  H18T 7541   4.249   3.035   5.844 -1.1371  0.8695  0.0233
   82SOPE   C33 7542   5.416   2.794   6.811 -0.3488  0.6644  0.1845
   82SOPE   H3X 7543   5.417   2.836   6.914 -3.1063  3.5913 -0.7850
   82SOPE   H3Y 7544   5.460   2.864   6.737 -0.9030 -0.6698 -1.4823
   82SOPE   C34 7545   5.510   2.666   6.801  0.2936  0.3039 -0.0881
   82SOPE   H4X 7546   5.467   2.581   6.857  1.3782 -0.3207 -0.1767
   82SOPE   H4Y 7547   5.612   2.680   6.842 -0.1454 -0.7313  1.3999
   82SOPE   C35 7548   5.537   2.613   6.659  0.1885 -0.1769  0.1965
   82SOPE   H5X 7549   5.439   2.622   6.607  0.2147 -0.6253  0.0650
   82SOPE   H5Y 7550   5.570   2.509   6.681  1.6890  0.4867  1.1855
   82SOPE   C36 7551   5.650   2.683   6.584 -0.4233 -0.1432  0.1747
   82SOPE   H6X 7552   5.738   2.671   6.651 -0.4262 -0.7439  0.0774
   82SOPE   H6Y 7553   5.627   2.792   6.581 -1.8038 -0.3930  1.2533
   82SOPE   C37 7554   5.663   2.628   6.438 -0.1520 -0.1483 -0.1570
   82SOPE   H7X 7555   5.666   2.517   6.448 -2.0984 -0.0944  1.7381
   82SOPE   H7Y 7556   5.755   2.666   6.389 -0.9444  1.6246 -0.3121
   82SOPE   C38 7557   5.548   2.684   6.351  0.5114 -0.3319  0.6546
   82SOPE   H8X 7558   5.529   2.792   6.370 -0.4362 -0.1326 -1.1552
   82SOPE   H8Y 7559   5.450   2.637   6.372 -0.9923  1.6179 -1.4991
   82SOPE   C39 7560   5.569   2.682   6.206 -0.3755  0.5211  0.4365
   82SOPE   H9X 7561   5.575   2.578   6.167  0.6037  1.1325 -1.1468
   82SOPE   H9Y 7562   5.660   2.742   6.185 -0.4366  0.8060  0.9807
   82SOPE  C310 7563   5.456   2.740   6.114 -0.1480 -0.5511  0.1339
   82SOPE  H10X 7564   5.448   2.843   6.155  1.4526  1.3915 -3.9094
   82SOPE  H10Y 7565   5.363   2.683   6.137 -1.3544  1.6725  1.1985
   82SOPE  C311 7566   5.488   2.748   5.963  0.0805  0.0226  0.2154
   82SOPE  H11X 7567   5.514   2.650   5.918  0.4104 -0.1285  0.7293
   82SOPE  H11Y 7568   5.576   2.815   5.949  0.5601 -1.0574 -2.6046
   82SOPE  C312 7569   5.365   2.807   5.893 -0.9796 -0.2136 -0.0491
   82SOPE  H12X 7570   5.333   2.895   5.952  0.5368 -0.5199  1.3227
   82SOPE  H12Y 7571   5.285   2.730   5.886 -1.6166  0.0936  2.8300
   82SOPE  C313 7572   5.402   2.866   5.754  0.3663  0.1121  0.3907
   82SOPE  H13X 7573   5.436   2.777   5.697 -1.0784  0.6864 -1.4696
   82SOPE  H13Y 7574   5.475   2.950   5.758 -1.4264  2.0076 -2.5366
   82SOPE  C314 7575   5.284   2.918   5.668  0.5939 -0.8680  0.6189
   82SOPE  H14X 7576   5.202   2.843   5.663 -2.6515  2.2549  2.1486
   82SOPE  H14Y 7577   5.314   2.951   5.567 -2.9727 -1.0947 -0.6336
   82SOPE  C315 7578   5.215   3.032   5.742  0.4601  0.3188  0.0846
   82SOPE  H15X 7579   5.291   3.106   5.778  0.6115  0.0701  0.2805
   82SOPE  H15Y 7580   5.167   2.982   5.829  2.8201 -1.4989  0.4497
   82SOPE  C316 7581   5.122   3.100   5.644 -0.3556  0.0240  0.1767
   82SOPE  H16X 7582   5.075   3.017   5.586 -1.4253  0.5511  0.2556
   82SOPE  H16Y 7583   5.195   3.147   5.574 -0.2763 -0.5462 -0.1298
   82SOPE  C317 7584   5.031   3.207   5.697 -1.0524 -0.0771 -0.3265
   82SOPE  H17X 7585   4.945   3.164   5.753 -0.1557  0.4668  1.5389
   82SOPE  H17Y 7586   4.994   3.255   5.604 -0.2413  1.4097  0.1012
   82SOPE  C318 7587   5.097   3.309   5.789  0.6613  0.3237  0.2251
   82SOPE  H18X 7588   5.103   3.279   5.896  1.3266 -1.5142 -0.2815
   82SOPE  H18Y 7589   5.033   3.399   5.800  0.9514  0.7782 -1.4454
   82SOPE  H18Z 7590   5.191   3.347   5.743  0.8254  3.1932  2.6158
   83SOPE     N 7591   6.328   2.148   2.996  0.6528  0.1170  0.1072
   83SOPE   HN1 7592   6.364   2.194   2.910 -0.3825 -0.8459 -0.8716
   83SOPE   HN2 7593   6.231   2.175   3.024 -0.0117 -2.7085  0.8070
   83SOPE   HN3 7594   6.387   2.166   3.079 -1.0341 -1.7517  1.8114
   83SOPE   C12 7595   6.315   2.002   2.960 -0.1362  0.3790  0.4523
   83SOPE  H12A 7596   6.414   1.953   2.945 -0.7607 -0.3202 -1.7359
   83SOPE  H12B 7597   6.274   2.007   2.857  1.4033 -0.4611 -0.2366
   83SOPE   C11 7598   6.214   1.919   3.047  0.1677 -0.0882  0.0741
   83SOPE  H11A 7599   6.270   1.873   3.132  0.5720 -2.8587 -1.5680
   83SOPE  H11B 7600   6.185   1.832   2.984 -0.2946  2.0601 -2.8847
   83SOPE     P 7601   5.964   1.950   3.099 -0.0291  0.1300  0.2333
   83SOPE   O13 7602   5.907   1.944   2.963 -0.5220 -0.1355  0.3966
   83SOPE   O14 7603   5.880   2.021   3.199 -0.4596 -0.2942 -0.1905
   83SOPE   O12 7604   6.108   2.012   3.083 -0.2635  0.2521  0.4585
   83SOPE   O11 7605   5.980   1.792   3.144 -0.4137  0.0639  0.0966
   83SOPE    C1 7606   6.035   1.765   3.271  0.6953  0.4311 -0.0822
   83SOPE    HA 7607   6.117   1.834   3.302  2.0656 -1.1161 -0.0847
   83SOPE    HB 7608   6.091   1.669   3.262  1.4531  0.8328  0.2650
   83SOPE    C2 7609   5.914   1.766   3.370  0.3273 -0.2233  0.2850
   83SOPE    HS 7610   5.888   1.874   3.375  0.5716 -0.1557  0.1192
   83SOPE   O21 7611   5.955   1.713   3.493 -0.3310  0.2683  0.6090
   83SOPE   C21 7612   5.907   1.774   3.595  0.0725  0.1808 -0.0228
   83SOPE   O22 7613   5.840   1.875   3.597  0.4392  0.2388 -0.0523
   83SOPE   C22 7614   5.942   1.690   3.720  0.3995 -0.1613 -0.4402
   83SOPE   H2R 7615   6.053   1.697   3.723  0.3773  0.3848 -0.8224
   83SOPE   H2S 7616   5.902   1.587   3.718  0.2846 -0.1842  1.3142
   83SOPE    C3 7617   5.793   1.682   3.313  0.1589  0.5512  0.6087
   83SOPE    HX 7618   5.834   1.588   3.271 -1.4745  0.3886 -0.7041
   83SOPE    HY 7619   5.756   1.745   3.230 -4.2122 -0.6854  1.3625
   83SOPE   O31 7620   5.689   1.654   3.410 -0.0693 -0.0627 -0.0694
   83SOPE   C31 7621   5.584   1.732   3.404 -0.8230  0.5611  0.1980
   83SOPE   O32 7622   5.561   1.817   3.320 -0.1833 -0.2569  0.4087
   83SOPE   C32 7623   5.475   1.697   3.499  0.4886 -0.2831 -0.6358
   83SOPE   H2X 7624   5.506   1.604   3.551  1.4615  0.1635 -0.3889
   83SOPE   H2Y 7625   5.381   1.676   3.444 -0.9081  1.8958  0.7859
   83SOPE   C23 7626   5.889   1.743   3.852 -0.5443 -0.8944 -0.2062
   83SOPE   H3R 7627   5.906   1.852   3.866  2.0838 -1.4467  1.8575
   83SOPE   H3S 7628   5.949   1.701   3.936 -0.0022  0.0431 -0.1093
   83SOPE   C24 7629   5.737   1.711   3.875  0.5750  0.3478  0.3922
   83SOPE   H4R 7630   5.673   1.788   3.827 -0.4868 -0.3561  0.6442
   83SOPE   H4S 7631   5.712   1.611   3.833  0.6636 -0.0460  1.2464
   83SOPE   C25 7632   5.691   1.716   4.021 -0.6959  0.5771 -0.3482
   83SOPE   H5R 7633   5.725   1.810   4.069 -1.4790  0.5265  0.3328
   83SOPE   H5S 7634   5.580   1.719   4.020 -0.8360 -1.8956 -1.1436
   83SOPE   C26 7635   5.731   1.588   4.100 -0.7350  0.3485  0.5689
   83SOPE   H6R 7636   5.701   1.496   4.047 -0.3572  1.0188 -0.8525
   83SOPE   H6S 7637   5.840   1.573   4.085 -0.8562 -2.1478  1.6787
   83SOPE   C27 7638   5.677   1.585   4.254 -0.1155  0.4207  0.5803
   83SOPE   H7R 7639   5.569   1.612   4.255 -0.1891  0.1194  0.6263
   83SOPE   H7S 7640   5.687   1.483   4.295 -1.4161  0.5119  1.1962
   83SOPE   C28 7641   5.749   1.674   4.349  0.7372 -0.7847  0.8899
   83SOPE   H8R 7642   5.711   1.776   4.329  0.0621 -1.1535  0.2433
   83SOPE   H8S 7643   5.713   1.661   4.453  2.1846 -2.0609  1.2766
   83SOPE   C29 7644   5.897   1.672   4.340 -0.0187 -0.7448  0.0764
   83SOPE   H91 7645   5.941   1.735   4.260 -1.0745 -0.9556 -0.6834
   83SOPE  C210 7646   5.973   1.618   4.431  0.6284  0.0453  0.1117
   83SOPE  H101 7647   6.081   1.631   4.411  0.9363 -0.4332  1.3857
   83SOPE  C211 7648   5.934   1.548   4.557 -0.6475  0.9060 -0.4049
   83SOPE  H11R 7649   6.012   1.478   4.595 -1.3018  0.1515 -0.4272
   83SOPE  H11S 7650   5.850   1.486   4.520 -0.3442  1.2801 -1.7552
   83SOPE  C212 7651   5.899   1.642   4.676 -0.0445  0.6104 -0.1999
   83SOPE  H12R 7652   5.865   1.741   4.638  2.1221  1.9649  1.1420
   83SOPE  H12S 7653   5.998   1.662   4.723  1.2529  0.7479 -2.7902
   83SOPE  C213 7654   5.807   1.576   4.777  0.0820  0.4709 -0.3422
   83SOPE  H13R 7655   5.717   1.536   4.726  0.0150  0.8205 -0.5033
   83SOPE  H13S 7656   5.777   1.649   4.855  1.7724 -0.3394  1.1510
   83SOPE  C214 7657   5.876   1.453   4.843 -0.2448  0.0454 -0.2356
   83SOPE  H14R 7658   5.958   1.489   4.909  0.2294  0.2048 -0.8983
   83SOPE  H14S 7659   5.931   1.391   4.769  0.5624 -0.8779  1.1057
   83SOPE  C215 7660   5.775   1.376   4.932 -0.1420  0.3052 -0.0141
   83SOPE  H15R 7661   5.814   1.282   4.977  1.7338  0.2254 -1.6997
   83SOPE  H15S 7662   5.693   1.343   4.864  0.3697 -1.6627  0.2647
   83SOPE  C216 7663   5.723   1.466   5.041  0.3894 -0.3582 -0.7992
   83SOPE  H16R 7664   5.654   1.540   4.995 -0.0537 -0.7859 -0.8297
   83SOPE  H16S 7665   5.816   1.517   5.073  1.3665 -2.3116 -0.4111
   83SOPE  C217 7666   5.666   1.392   5.158 -0.0306  0.2561 -0.2851
   83SOPE  H17R 7667   5.722   1.298   5.180 -0.2262  0.5471  1.6185
   83SOPE  H17S 7668   5.563   1.361   5.131 -0.2118  1.7003 -1.3854
   83SOPE  C218 7669   5.658   1.478   5.290 -0.2795  0.1094  0.0261
   83SOPE  H18R 7670   5.755   1.532   5.299 -0.7199  0.5855  2.3523
   83SOPE  H18S 7671   5.645   1.428   5.388 -3.7550 -0.3202 -0.5394
   83SOPE  H18T 7672   5.580   1.554   5.271 -1.6409 -1.5591 -1.5029
   83SOPE   C33 7673   5.451   1.811   3.596 -0.0179 -0.3384  0.5509
   83SOPE   H3X 7674   5.416   1.904   3.546 -2.0264 -1.4331 -0.1987
   83SOPE   H3Y 7675   5.544   1.834   3.652 -0.2058 -1.4650  1.3503
   83SOPE   C34 7676   5.341   1.768   3.700  0.3993 -0.0779  0.0233
   83SOPE   H4X 7677   5.391   1.683   3.751  3.1295  1.5632  0.2264
   83SOPE   H4Y 7678   5.254   1.732   3.641  0.9858 -0.9506 -0.3301
   83SOPE   C35 7679   5.293   1.881   3.790 -0.2210  0.2103 -0.0264
   83SOPE   H5X 7680   5.205   1.935   3.751 -1.3110 -1.5113 -0.0591
   83SOPE   H5Y 7681   5.377   1.954   3.791 -1.1009  1.3498 -2.4819
   83SOPE   C36 7682   5.252   1.827   3.927 -0.1471 -0.5478  0.2350
   83SOPE   H6X 7683   5.340   1.771   3.964 -0.3724 -1.1249 -0.0958
   83SOPE   H6Y 7684   5.175   1.747   3.925  1.4990 -2.1920  0.0457
   83SOPE   C37 7685   5.226   1.949   4.022  0.1465 -0.2577 -0.1235
   83SOPE   H7X 7686   5.128   1.981   3.979 -1.9029 -3.1760  2.0002
   83SOPE   H7Y 7687   5.308   2.023   4.013  0.5906 -0.7772 -0.4577
   83SOPE   C38 7688   5.208   1.907   4.166  1.2273 -0.2494  0.0030
   83SOPE   H8X 7689   5.124   1.836   4.180 -0.0699  1.2098 -0.1636
   83SOPE   H8Y 7690   5.177   1.997   4.223 -0.8976 -0.4349 -0.7859
   83SOPE   C39 7691   5.332   1.849   4.234  0.7172 -0.0175  0.1855
   83SOPE   H9X 7692   5.419   1.910   4.201  1.9462 -0.1981  2.8455
   83SOPE   H9Y 7693   5.349   1.743   4.208  1.9238  0.1402  0.2964
   83SOPE  C310 7694   5.315   1.870   4.389 -0.1720 -0.9093  0.3548
   83SOPE  H10X 7695   5.217   1.821   4.407 -1.0550  0.9981  0.9509
   83SOPE  H10Y 7696   5.303   1.976   4.420  0.0669 -0.8196  0.1474
   83SOPE  C311 7697   5.419   1.795   4.477 -0.0743 -0.0442  0.2941
   83SOPE  H11X 7698   5.514   1.852   4.468 -0.0716 -0.3710 -2.6668
   83SOPE  H11Y 7699   5.432   1.689   4.449 -0.7012 -0.3120  0.9802
   83SOPE  C312 7700   5.385   1.815   4.620 -0.1090  0.4611  0.8722
   83SOPE  H12X 7701   5.281   1.779   4.637 -0.2791  0.2218 -0.5502
   83SOPE  H12Y 7702   5.376   1.923   4.644  0.2849  0.5382  0.6760
   83SOPE  C313 7703   5.477   1.741   4.717 -0.3963  0.0286 -0.4420
   83SOPE  H13X 7704   5.579   1.784   4.704 -1.3085  2.8583  1.0106
   83SOPE  H13Y 7705   5.467   1.633   4.696  0.1261  0.2257 -1.8375
   83SOPE  C314 7706   5.451   1.749   4.869  0.6964 -0.1570  0.3307
   83SOPE  H14X 7707   5.424   1.853   4.896 -1.0256 -0.5201  0.1518
   83SOPE  H14Y 7708   5.547   1.712   4.910  1.0838  2.0066  1.5165
   83SOPE  C315 7709   5.332   1.663   4.917  0.2350 -0.4458 -0.0246
   83SOPE  H15X 7710   5.352   1.555   4.897  1.0011 -0.3701  0.2995
   83SOPE  H15Y 7711   5.235   1.697   4.875  1.3725  2.5132 -0.4788
   83SOPE  C316 7712   5.321   1.675   5.074  0.1039 -0.3354  0.0008
   83SOPE  H16X 7713   5.319   1.781   5.106  0.1645 -0.0539 -0.9184
   83SOPE  H16Y 7714   5.420   1.642   5.113  0.1654  0.5057  0.5719
   83SOPE  C317 7715   5.224   1.568   5.132  0.5016  0.2769  0.3908
   83SOPE  H17X 7716   5.276   1.472   5.112 -0.3416 -0.0579 -0.2290
   83SOPE  H17Y 7717   5.137   1.558   5.064  1.6736 -0.6041 -1.0591
   83SOPE  C318 7718   5.189   1.588   5.273 -0.0115 -0.2338  0.2797
   83SOPE  H18X 7719   5.141   1.498   5.316  0.2981 -0.7947 -0.5368
   83SOPE  H18Y 7720   5.117   1.673   5.279 -0.7439 -0.9073  1.3310
   83SOPE  H18Z 7721   5.278   1.621   5.330 -0.3687  0.0021  0.7110
   84SOPE     N 7722   4.031   6.794   2.971 -0.2260  0.3183  0.0388
   84SOPE   HN1 7723   4.071   6.884   2.938  0.9060  0.0493  0.6542
   84SOPE   HN2 7724   4.104   6.725   2.996 -1.5114 -1.9339 -2.0107
   84SOPE   HN3 7725   3.970   6.751   2.898 -1.3080 -3.6238  2.8982
   84SOPE   C12 7726   3.940   6.808   3.087  0.3651 -0.0895 -0.1736
   84SOPE  H12A 7727   4.004   6.806   3.179  2.6457 -0.8415 -1.6774
   84SOPE  H12B 7728   3.868   6.724   3.095 -1.2240  1.2145 -0.3466
   84SOPE   C11 7729   3.863   6.939   3.072 -0.6217 -0.3906 -0.6011
   84SOPE  H11A 7730   3.828   6.960   3.175 -0.1389  2.3381 -0.9153
   84SOPE  H11B 7731   3.773   6.928   3.008 -2.1956  2.0764  1.0251
   84SOPE     P 7732   3.912   7.194   3.014  0.2865  0.2813  0.1436
   84SOPE   O13 7733   3.806   7.217   2.909  0.3605  0.4002  0.1520
   84SOPE   O14 7734   4.031   7.275   3.002 -0.4938 -0.0313  0.3194
   84SOPE   O12 7735   3.950   7.044   3.023 -0.6801  0.7628  0.5363
   84SOPE   O11 7736   3.853   7.231   3.153 -0.5910  0.5844 -0.2893
   84SOPE    C1 7737   3.900   7.194   3.284  0.2418 -0.5575  0.3064
   84SOPE    HA 7738   3.943   7.092   3.292 -0.5615 -1.3227 -3.4408
   84SOPE    HB 7739   3.815   7.208   3.355  1.6793  4.3826  1.4497
   84SOPE    C2 7740   4.017   7.280   3.342 -0.3770 -0.7937  0.2829
   84SOPE    HS 7741   4.093   7.269   3.261 -1.9089  1.4808 -1.6179
   84SOPE   O21 7742   4.051   7.220   3.464 -0.3034  0.3507  0.0954
   84SOPE   C21 7743   4.165   7.262   3.517 -0.1045 -0.3771  0.5320
   84SOPE   O22 7744   4.256   7.323   3.462  0.7076 -0.1670 -0.1787
   84SOPE   C22 7745   4.168   7.214   3.664  0.2307  0.1929 -0.1518
   84SOPE   H2R 7746   4.179   7.103   3.660 -0.8720  0.0997 -1.5014
   84SOPE   H2S 7747   4.076   7.238   3.720  0.8347 -0.1442  1.0307
   84SOPE    C3 7748   3.982   7.433   3.343 -0.4032  0.2870  0.4952
   84SOPE    HX 7749   3.969   7.462   3.237 -2.1629  2.5372  1.2410
   84SOPE    HY 7750   4.069   7.487   3.385  1.8665 -2.8274  0.0845
   84SOPE   O31 7751   3.857   7.458   3.408  0.3541  0.0055  0.0738
   84SOPE   C31 7752   3.857   7.518   3.528  0.1111 -0.0767 -0.2373
   84SOPE   O32 7753   3.961   7.545   3.593 -0.2223  0.3528 -0.0795
   84SOPE   C32 7754   3.718   7.548   3.570  0.7650  0.0779 -0.6852
   84SOPE   H2X 7755   3.661   7.459   3.535  1.4343 -0.0316 -1.5340
   84SOPE   H2Y 7756   3.679   7.625   3.500 -0.3850  1.1092  1.0401
   84SOPE   C23 7757   4.299   7.263   3.737 -0.0526 -0.4152  0.7285
   84SOPE   H3R 7758   4.323   7.371   3.732  1.9300 -0.6962  2.6739
   84SOPE   H3S 7759   4.389   7.217   3.691 -0.7606 -0.6160 -0.4944
   84SOPE   C24 7760   4.297   7.228   3.888 -0.3372 -0.3321 -0.3388
   84SOPE   H4R 7761   4.217   7.154   3.908 -0.5188 -0.1701 -0.4588
   84SOPE   H4S 7762   4.398   7.191   3.913 -0.7592 -0.1937  1.7697
   84SOPE   C25 7763   4.268   7.349   3.980 -0.1254  0.4646  0.2869
   84SOPE   H5R 7764   4.272   7.312   4.085 -1.0305  2.7361  1.1706
   84SOPE   H5S 7765   4.351   7.420   3.961  1.1303 -1.3745 -1.4518
   84SOPE   C26 7766   4.131   7.414   3.958  0.1596  0.1759  0.3346
   84SOPE   H6R 7767   4.124   7.467   3.860  0.0998 -0.2297  0.1141
   84SOPE   H6S 7768   4.050   7.338   3.954 -1.1001  1.4891  0.0114
   84SOPE   C27 7769   4.109   7.525   4.057  0.0866  0.1219 -0.2036
   84SOPE   H7R 7770   4.117   7.484   4.160  2.1392 -1.8483 -1.0550
   84SOPE   H7S 7771   4.201   7.586   4.044 -0.5464  0.6694 -2.5190
   84SOPE   C28 7772   3.977   7.600   4.028  0.4825 -0.1597  0.9279
   84SOPE   H8R 7773   3.968   7.633   3.922 -0.5959  2.3850  1.7372
   84SOPE   H8S 7774   3.892   7.530   4.038  0.7934 -0.9153 -1.1452
   84SOPE   C29 7775   3.976   7.722   4.111  0.5829 -0.8372  0.0474
   84SOPE   H91 7776   3.953   7.816   4.059  1.4765 -0.6938 -0.1098
   84SOPE  C210 7777   3.961   7.728   4.244 -0.0272  0.1590 -0.3299
   84SOPE  H101 7778   3.976   7.827   4.290 -0.8774  1.0840 -1.9581
   84SOPE  C211 7779   3.968   7.606   4.338  0.2323 -0.3493  0.2591
   84SOPE  H11R 7780   4.065   7.604   4.392  0.0555  2.7467  0.8542
   84SOPE  H11S 7781   3.949   7.510   4.285 -2.0847  0.6993 -0.9901
   84SOPE  C212 7782   3.852   7.622   4.445  0.3833  0.0350 -0.2234
   84SOPE  H12R 7783   3.852   7.524   4.496 -2.0267 -0.5038 -1.1336
   84SOPE  H12S 7784   3.752   7.630   4.397  0.0143 -2.6118 -0.0286
   84SOPE  C213 7785   3.877   7.734   4.546  1.0865  0.3946  0.1251
   84SOPE  H13R 7786   3.888   7.834   4.499 -2.0140  1.5759  1.5795
   84SOPE  H13S 7787   3.974   7.706   4.592  0.0340 -0.2753  2.0597
   84SOPE  C214 7788   3.774   7.735   4.663  0.4622  0.2853  0.6672
   84SOPE  H14R 7789   3.755   7.630   4.693  0.1592  0.1871  0.1395
   84SOPE  H14S 7790   3.673   7.763   4.626 -1.3782 -1.6836  3.7966
   84SOPE  C215 7791   3.810   7.836   4.775  0.2404 -0.3317  0.2848
   84SOPE  H15R 7792   3.853   7.930   4.734 -2.1908 -0.0524 -1.8625
   84SOPE  H15S 7793   3.898   7.788   4.822  1.8579 -0.1283 -2.3356
   84SOPE  C216 7794   3.703   7.870   4.875 -0.4455  0.0766  0.6981
   84SOPE  H16R 7795   3.627   7.944   4.839  0.5737  1.8217  1.9463
   84SOPE  H16S 7796   3.751   7.919   4.963  3.1919 -0.8880 -0.5979
   84SOPE  C217 7797   3.632   7.742   4.934 -0.4453 -0.0813  0.0814
   84SOPE  H17R 7798   3.595   7.687   4.846  1.0455  1.2581 -1.4669
   84SOPE  H17S 7799   3.538   7.763   4.990 -0.9420 -0.3899 -0.6163
   84SOPE  C218 7800   3.721   7.653   5.024 -0.2174  0.0553  0.2366
   84SOPE  H18R 7801   3.819   7.635   4.976 -0.0335  1.1286  0.1742
   84SOPE  H18S 7802   3.671   7.555   5.040  0.4425 -0.4070 -0.4473
   84SOPE  H18T 7803   3.740   7.697   5.124 -1.4190 -1.4036  1.1631
   84SOPE   C33 7804   3.703   7.582   3.723 -0.2076 -0.1013  0.7079
   84SOPE   H3X 7805   3.763   7.672   3.748  0.0783 -0.2443  0.5520
   84SOPE   H3Y 7806   3.752   7.499   3.779  1.2199  1.7620  2.3756
   84SOPE   C34 7807   3.557   7.611   3.765 -0.7552 -0.1138 -0.1279
   84SOPE   H4X 7808   3.503   7.514   3.769 -0.3918 -0.2658  3.1536
   84SOPE   H4Y 7809   3.508   7.684   3.697  0.1650 -0.8325 -1.6286
   84SOPE   C35 7810   3.547   7.669   3.905  0.0457  0.4115  0.0799
   84SOPE   H5X 7811   3.442   7.700   3.923 -1.0282 -2.0633 -1.4100
   84SOPE   H5Y 7812   3.606   7.764   3.909 -1.9875  1.9303 -2.6725
   84SOPE   C36 7813   3.560   7.566   4.015 -0.2173 -0.1704 -0.3929
   84SOPE   H6X 7814   3.660   7.518   4.016 -0.0797  0.0930 -1.3981
   84SOPE   H6Y 7815   3.491   7.484   3.989  0.1525 -0.1671 -1.4197
   84SOPE   C37 7816   3.531   7.602   4.163  0.2895  0.0990  0.1902
   84SOPE   H7X 7817   3.431   7.651   4.163  0.3203  0.1631 -0.1616
   84SOPE   H7Y 7818   3.613   7.673   4.188  0.2559  0.6889 -1.3249
   84SOPE   C38 7819   3.527   7.472   4.263  0.0430  0.4037 -0.1861
   84SOPE   H8X 7820   3.634   7.455   4.287  0.1707  1.5186  0.0963
   84SOPE   H8Y 7821   3.480   7.388   4.209  0.2143  0.1001  0.1287
   84SOPE   C39 7822   3.450   7.513   4.390  0.4227  0.4686  1.2382
   84SOPE   H9X 7823   3.341   7.524   4.373  0.1516 -2.7115  0.3175
   84SOPE   H9Y 7824   3.497   7.605   4.431  1.3176  0.1174  1.0262
   84SOPE  C310 7825   3.465   7.401   4.498  0.6986 -1.7425  0.2357
   84SOPE  H10X 7826   3.569   7.396   4.536 -0.2149  0.5421  3.4909
   84SOPE  H10Y 7827   3.434   7.303   4.455 -1.1664 -1.0332 -0.1134
   84SOPE  C311 7828   3.376   7.446   4.617 -0.6545 -0.3972  0.0269
   84SOPE  H11X 7829   3.272   7.408   4.608 -0.7087  0.1897 -2.5416
   84SOPE  H11Y 7830   3.363   7.556   4.613 -2.1181 -0.5518 -0.2052
   84SOPE  C312 7831   3.440   7.405   4.748 -0.0397 -0.1671  0.7494
   84SOPE  H12X 7832   3.547   7.433   4.738 -0.4972  0.8397 -2.9309
   84SOPE  H12Y 7833   3.441   7.296   4.768  0.5403 -0.1076  1.0715
   84SOPE  C313 7834   3.381   7.489   4.859  0.6626  0.4255  0.6896
   84SOPE  H13X 7835   3.271   7.479   4.858  0.7665 -2.1226 -2.2636
   84SOPE  H13Y 7836   3.400   7.599   4.863 -0.8349  0.8048 -1.1779
   84SOPE  C314 7837   3.410   7.429   4.998 -0.3697 -0.1229  0.7657
   84SOPE  H14X 7838   3.519   7.408   5.010  0.1811  1.1954 -1.3869
   84SOPE  H14Y 7839   3.358   7.332   5.014 -1.4424  0.0734 -1.2417
   84SOPE  C315 7840   3.369   7.520   5.118  0.3102 -0.2887  0.6414
   84SOPE  H15X 7841   3.258   7.530   5.122  0.1659 -1.4296 -0.0439
   84SOPE  H15Y 7842   3.427   7.614   5.112 -0.9545  0.4523 -1.0595
   84SOPE  C316 7843   3.380   7.448   5.248 -0.1034  0.4948 -0.3543
   84SOPE  H16X 7844   3.485   7.427   5.278 -0.7667  0.8826  2.4224
   84SOPE  H16Y 7845   3.337   7.346   5.241  4.0112 -2.1920  5.3511
   84SOPE  C317 7846   3.317   7.516   5.364 -0.7769 -0.2925 -0.4758
   84SOPE  H17X 7847   3.334   7.450   5.452  1.8515  0.3631 -0.3987
   84SOPE  H17Y 7848   3.207   7.507   5.350 -0.7977 -0.2608 -0.3356
   84SOPE  C318 7849   3.358   7.663   5.399  0.2982 -0.2139  0.4077
   84SOPE  H18X 7850   3.467   7.677   5.388  0.6075 -1.4908  1.5854
   84SOPE  H18Y 7851   3.316   7.684   5.500 -2.2174 -1.5370 -0.2790
   84SOPE  H18Z 7852   3.301   7.727   5.329 -1.6750 -2.0192  0.2366
   85SOPE     N 7853   2.602   4.671   2.912 -0.0889 -0.4012  0.0174
   85SOPE   HN1 7854   2.624   4.666   2.811 -0.2195  2.1119 -0.1869
   85SOPE   HN2 7855   2.550   4.760   2.928 -1.1955 -0.5515 -2.3592
   85SOPE   HN3 7856   2.694   4.676   2.961  0.1559  1.4151 -0.5683
   85SOPE   C12 7857   2.529   4.542   2.942 -0.1523  0.0147 -0.3904
   85SOPE  H12A 7858   2.578   4.474   2.869  0.5692  2.1749 -2.0528
   85SOPE  H12B 7859   2.427   4.557   2.899  1.2234  1.2656 -3.5320
   85SOPE   C11 7860   2.536   4.504   3.092  0.1240 -0.2126  0.6509
   85SOPE  H11A 7861   2.641   4.498   3.127 -0.1051 -0.0510  1.3869
   85SOPE  H11B 7862   2.496   4.401   3.099 -0.4155 -0.0801 -0.3463
   85SOPE     P 7863   2.307   4.593   3.189  0.1810  0.5225 -0.0066
   85SOPE   O13 7864   2.246   4.489   3.106 -1.3055 -0.7560 -0.2600
   85SOPE   O14 7865   2.248   4.723   3.176 -0.5827 -0.4405 -0.0870
   85SOPE   O12 7866   2.465   4.595   3.176 -0.2535  0.5915  0.4368
   85SOPE   O11 7867   2.280   4.551   3.336  0.2422  0.7401  0.1579
   85SOPE    C1 7868   2.298   4.418   3.378 -0.0149 -0.5005 -0.6870
   85SOPE    HA 7869   2.407   4.402   3.363  0.8393  0.7618  3.1544
   85SOPE    HB 7870   2.233   4.346   3.324  0.1148 -0.4742 -0.8832
   85SOPE    C2 7871   2.286   4.413   3.535 -0.5595  0.0342  0.7087
   85SOPE    HS 7872   2.280   4.308   3.572 -0.6021  0.2470  1.3017
   85SOPE   O21 7873   2.176   4.487   3.575  0.3407  0.1230 -0.0362
   85SOPE   C21 7874   2.059   4.436   3.553  0.3642 -0.4482 -0.3591
   85SOPE   O22 7875   2.032   4.325   3.507  0.5053  0.5054 -0.2812
   85SOPE   C22 7876   1.948   4.540   3.579  0.6263  0.1515  0.2701
   85SOPE   H2R 7877   1.870   4.532   3.500 -1.9655  1.2817  2.5216
   85SOPE   H2S 7878   1.992   4.642   3.571  3.4195 -0.7113  2.8133
   85SOPE    C3 7879   2.411   4.483   3.591  0.3813  1.1695  0.5475
   85SOPE    HX 7880   2.395   4.583   3.546 -2.5845  0.0332 -1.1420
   85SOPE    HY 7881   2.510   4.444   3.559  0.2294 -0.5188  1.9668
   85SOPE   O31 7882   2.406   4.505   3.733 -0.1420 -0.4123  0.0488
   85SOPE   C31 7883   2.408   4.396   3.808 -0.5628  0.1532 -0.0370
   85SOPE   O32 7884   2.427   4.283   3.761 -0.3542  0.0795 -0.6947
   85SOPE   C32 7885   2.385   4.423   3.955 -0.3917  0.1613  0.0568
   85SOPE   H2X 7886   2.297   4.489   3.967  0.4132  1.4468 -0.8899
   85SOPE   H2Y 7887   2.466   4.481   4.006 -0.4852 -0.2123  0.6435
   85SOPE   C23 7888   1.884   4.524   3.719 -0.4715 -0.0149  0.2588
   85SOPE   H3R 7889   1.824   4.430   3.718  0.7857 -0.8342 -0.3241
   85SOPE   H3S 7890   1.820   4.615   3.718  0.9563  1.0364 -1.7177
   85SOPE   C24 7891   1.964   4.517   3.837  0.3055  0.8691 -0.5229
   85SOPE   H4R 7892   2.020   4.422   3.831 -0.0590  0.6647 -0.6997
   85SOPE   H4S 7893   2.030   4.606   3.848  0.3345  0.7996 -0.1262
   85SOPE   C25 7894   1.864   4.517   3.963  0.5523  0.2849  0.6981
   85SOPE   H5R 7895   1.842   4.621   3.994  2.3536 -0.1893  4.0071
   85SOPE   H5S 7896   1.770   4.462   3.939  1.6875 -0.2883 -3.2667
   85SOPE   C26 7897   1.937   4.458   4.080  0.1587  0.2810 -0.5362
   85SOPE   H6R 7898   1.952   4.353   4.049 -1.3265  0.0045 -0.4116
   85SOPE   H6S 7899   2.037   4.503   4.096  0.2943  0.1751 -1.0601
   85SOPE   C27 7900   1.854   4.473   4.211  0.6675 -0.2444 -0.1232
   85SOPE   H7R 7901   1.858   4.578   4.247 -0.2875 -0.1015 -0.4112
   85SOPE   H7S 7902   1.747   4.456   4.186  1.1015  0.6252 -2.9454
   85SOPE   C28 7903   1.900   4.376   4.318  0.5623  0.4148  0.0694
   85SOPE   H8R 7904   1.821   4.379   4.395  2.2642  0.5208  1.8784
   85SOPE   H8S 7905   1.893   4.272   4.280 -1.4303  0.3774  0.4681
   85SOPE   C29 7906   2.039   4.403   4.366 -0.5186 -0.3535  0.7060
   85SOPE   H91 7907   2.123   4.389   4.297  0.0486  0.1652  1.2817
   85SOPE  C210 7908   2.056   4.462   4.481  0.4474 -0.3142  0.3456
   85SOPE  H101 7909   2.155   4.490   4.521  0.0856 -0.8617  1.6625
   85SOPE  C211 7910   1.948   4.500   4.579  0.9562  0.2951 -0.5467
   85SOPE  H11R 7911   1.897   4.408   4.616  1.7119  0.9868  2.5011
   85SOPE  H11S 7912   1.869   4.569   4.542 -0.9960 -0.0935  2.5844
   85SOPE  C212 7913   2.009   4.570   4.703 -0.2594 -0.1026  0.1063
   85SOPE  H12R 7914   2.052   4.668   4.672 -1.4441  0.3426 -0.1657
   85SOPE  H12S 7915   2.089   4.508   4.749  0.9331  1.8545  0.8181
   85SOPE  C213 7916   1.892   4.589   4.808  0.0180  0.8080  0.2948
   85SOPE  H13R 7917   1.861   4.484   4.824  1.1790 -0.0398 -2.4056
   85SOPE  H13S 7918   1.810   4.641   4.753 -0.9563 -0.4528  0.5115
   85SOPE  C214 7919   1.928   4.657   4.939  1.2956  0.0120  0.3484
   85SOPE  H14R 7920   1.977   4.755   4.921 -0.2685  0.7495 -0.0892
   85SOPE  H14S 7921   1.993   4.593   5.002  0.8136 -1.6469 -0.7741
   85SOPE  C215 7922   1.799   4.678   5.026  0.4492 -0.1864 -0.8615
   85SOPE  H15R 7923   1.746   4.581   5.011  0.5196 -0.7947  2.2161
   85SOPE  H15S 7924   1.751   4.770   4.986  3.0332  2.9967  2.6824
   85SOPE  C216 7925   1.821   4.719   5.174 -0.1228 -0.1645  0.0643
   85SOPE  H16R 7926   1.862   4.822   5.167 -3.2006  1.1187 -0.9661
   85SOPE  H16S 7927   1.897   4.653   5.222 -0.5358 -0.1319  0.7892
   85SOPE  C217 7928   1.690   4.711   5.253  0.4431 -0.3473 -0.3890
   85SOPE  H17R 7929   1.644   4.610   5.248 -0.2795  0.0064 -1.1426
   85SOPE  H17S 7930   1.613   4.785   5.221  0.6877  0.6106  1.1333
   85SOPE  C218 7931   1.709   4.744   5.402 -0.4403 -0.1141 -0.7337
   85SOPE  H18R 7932   1.786   4.675   5.444 -2.3357 -1.9425 -0.1218
   85SOPE  H18S 7933   1.613   4.721   5.452  0.3243 -0.0546  0.8390
   85SOPE  H18T 7934   1.742   4.850   5.410  0.6342 -0.3609 -1.6855
   85SOPE   C33 7935   2.361   4.300   4.039  0.4163 -0.5427  0.3496
   85SOPE   H3X 7936   2.298   4.228   3.982  0.0780 -0.4588  0.6133
   85SOPE   H3Y 7937   2.315   4.329   4.136  1.3973  2.6309 -0.0412
   85SOPE   C34 7938   2.481   4.222   4.077 -0.4244  0.2844  0.4541
   85SOPE   H4X 7939   2.568   4.291   4.081 -0.2810  0.0599  1.4426
   85SOPE   H4Y 7940   2.511   4.152   3.996 -3.9549 -2.5353  1.3518
   85SOPE   C35 7941   2.458   4.126   4.194  0.2659  0.1891  0.1052
   85SOPE   H5X 7942   2.362   4.072   4.178 -1.2545  2.4241  1.0143
   85SOPE   H5Y 7943   2.425   4.185   4.283  2.4021 -0.0456  1.1078
   85SOPE   C36 7944   2.573   4.033   4.209  0.2781 -0.2505 -0.4195
   85SOPE   H6X 7945   2.663   4.097   4.209  0.7020 -0.8358 -0.0048
   85SOPE   H6Y 7946   2.581   3.965   4.122 -2.5189 -0.3574 -0.6807
   85SOPE   C37 7947   2.565   3.971   4.353 -0.4026  0.2759 -0.7093
   85SOPE   H7X 7948   2.461   3.939   4.375 -0.1769  0.0152 -0.0137
   85SOPE   H7Y 7949   2.609   4.040   4.429  0.2880  0.2996 -1.1169
   85SOPE   C38 7950   2.645   3.835   4.370 -0.3878  0.2221  1.0133
   85SOPE   H8X 7951   2.749   3.844   4.332 -1.3547  0.4712 -1.7570
   85SOPE   H8Y 7952   2.594   3.751   4.318 -0.2978  0.4740  0.5171
   85SOPE   C39 7953   2.672   3.801   4.518  0.0788  1.4140 -0.0598
   85SOPE   H9X 7954   2.695   3.898   4.568  1.1254  0.5601  1.1797
   85SOPE   H9Y 7955   2.744   3.717   4.531 -0.8815  0.3748 -1.1975
   85SOPE  C310 7956   2.552   3.749   4.588  0.2579  0.1024  0.9784
   85SOPE  H10X 7957   2.529   3.656   4.533 -0.8772  0.3507  1.0118
   85SOPE  H10Y 7958   2.456   3.805   4.594 -0.7980 -1.0837 -2.5821
   85SOPE  C311 7959   2.581   3.699   4.733 -0.4050  0.0506  0.6947
   85SOPE  H11X 7960   2.634   3.772   4.798 -0.9579  0.4280  0.7221
   85SOPE  H11Y 7961   2.651   3.613   4.724  0.5466  0.8676  0.1613
   85SOPE  C312 7962   2.462   3.627   4.802 -0.2513 -0.3091  0.5970
   85SOPE  H12X 7963   2.496   3.536   4.856  2.7006 -0.4353 -1.2679
   85SOPE  H12Y 7964   2.406   3.582   4.718  1.5335 -1.2471 -0.1598
   85SOPE  C313 7965   2.396   3.723   4.896  0.8236  0.2564  0.4868
   85SOPE  H13X 7966   2.405   3.829   4.864  3.0530  0.6389  2.1248
   85SOPE  H13Y 7967   2.431   3.720   5.001 -2.7460 -1.0432  1.8109
   85SOPE  C314 7968   2.242   3.691   4.906 -0.9222 -0.7974  0.2712
   85SOPE  H14X 7969   2.231   3.580   4.909  1.9614 -1.2414 -1.5572
   85SOPE  H14Y 7970   2.187   3.727   4.816 -0.6570 -1.2053 -0.0579
   85SOPE  C315 7971   2.182   3.763   5.025 -0.6193  0.1386 -0.5101
   85SOPE  H15X 7972   2.197   3.873   5.018 -1.5649  0.3742  0.9482
   85SOPE  H15Y 7973   2.234   3.738   5.119 -1.1429 -0.4640 -0.3753
   85SOPE  C316 7974   2.033   3.737   5.045 -0.7756 -0.2106  0.7065
   85SOPE  H16X 7975   2.007   3.629   5.048  0.1521 -0.5333 -1.1015
   85SOPE  H16Y 7976   1.982   3.775   4.953  1.5296  1.1620 -0.0854
   85SOPE  C317 7977   1.975   3.803   5.167 -0.2512 -0.7181 -0.3237
   85SOPE  H17X 7978   2.003   3.910   5.177 -0.9646 -0.5228 -0.2972
   85SOPE  H17Y 7979   2.029   3.755   5.251 -0.3733 -1.4477 -0.6508
   85SOPE  C318 7980   1.819   3.795   5.181 -0.3129  0.3534 -0.2821
   85SOPE  H18X 7981   1.777   3.856   5.098  0.2777  0.6513 -0.3703
   85SOPE  H18Y 7982   1.791   3.847   5.275  2.5199  2.0284 -0.2560
   85SOPE  H18Z 7983   1.777   3.693   5.171 -0.5527  0.3958  0.2340
   86SOPE     N 7984   6.273   6.803   3.676  0.0393  0.0881  0.0937
   86SOPE   HN1 7985   6.361   6.768   3.717 -0.2234 -0.3630  0.2739
   86SOPE   HN2 7986   6.219   6.843   3.756  0.4037 -1.8871  1.3809
   86SOPE   HN3 7987   6.228   6.722   3.629  0.1667  1.2729 -2.2130
   86SOPE   C12 7988   6.301   6.907   3.567 -0.9351  0.2766 -0.0713
   86SOPE  H12A 7989   6.317   7.005   3.617 -1.2484  0.4013 -0.2120
   86SOPE  H12B 7990   6.207   6.910   3.508 -0.7483 -0.2741 -0.4137
   86SOPE   C11 7991   6.421   6.886   3.474  0.9058 -0.2112 -0.2922
   86SOPE  H11A 7992   6.419   6.976   3.410 -1.4772  2.0174  2.6270
   86SOPE  H11B 7993   6.398   6.801   3.406  0.0538 -0.1049 -0.1464
   86SOPE     P 7994   6.679   6.872   3.482  0.0277  0.3190  0.2091
   86SOPE   O13 7995   6.709   7.016   3.450  0.1795 -0.1535  0.1336
   86SOPE   O14 7996   6.672   6.781   3.365 -0.0610 -0.2997  0.3651
   86SOPE   O12 7997   6.539   6.865   3.548  0.1087  0.5440 -0.3850
   86SOPE   O11 7998   6.789   6.820   3.583  0.1880  0.1403 -0.0154
   86SOPE    C1 7999   6.748   6.822   3.724  0.0735  0.1664  0.6919
   86SOPE    HA 8000   6.661   6.890   3.739 -1.1673 -0.5076 -2.6323
   86SOPE    HB 8001   6.839   6.854   3.779  1.0371  1.3875 -1.4840
   86SOPE    C2 8002   6.712   6.685   3.781 -0.1923 -0.0283  0.0501
   86SOPE    HS 8003   6.617   6.641   3.744 -1.3326  2.4811 -0.1708
   86SOPE   O21 8004   6.698   6.698   3.925  0.2118  0.3524  0.0412
   86SOPE   C21 8005   6.581   6.743   3.960 -0.4746 -0.0487  0.0169
   86SOPE   O22 8006   6.486   6.755   3.886  0.2211 -0.1260  0.1975
   86SOPE   C22 8007   6.593   6.779   4.106 -0.3651  0.3506 -0.0193
   86SOPE   H2R 8008   6.496   6.812   4.150 -0.1736  2.5671 -1.0927
   86SOPE   H2S 8009   6.659   6.868   4.116  2.0019 -1.2352 -0.7154
   86SOPE    C3 8010   6.819   6.581   3.749 -0.0394 -0.3141 -0.3701
   86SOPE    HX 8011   6.914   6.614   3.796 -0.2900 -0.8531  0.5360
   86SOPE    HY 8012   6.832   6.593   3.639  1.3414  0.0446 -0.1911
   86SOPE   O31 8013   6.809   6.454   3.806 -0.3047 -0.5008 -0.0592
   86SOPE   C31 8014   6.712   6.374   3.770 -0.3716  0.1677 -0.0772
   86SOPE   O32 8015   6.622   6.405   3.695  0.1223  0.0671 -1.1618
   86SOPE   C32 8016   6.730   6.242   3.842  0.5737 -0.4076  0.1166
   86SOPE   H2X 8017   6.819   6.194   3.796  0.3922 -1.9043  1.2397
   86SOPE   H2Y 8018   6.637   6.190   3.813 -0.0471  0.7957 -0.1149
   86SOPE   C23 8019   6.663   6.677   4.198 -0.0653 -0.2460 -0.2128
   86SOPE   H3R 8020   6.770   6.675   4.171  0.5352  3.3760  1.3681
   86SOPE   H3S 8021   6.623   6.574   4.183  1.5596 -0.9826  0.2913
   86SOPE   C24 8022   6.642   6.714   4.341 -0.4382  0.3326  0.1400
   86SOPE   H4R 8023   6.701   6.802   4.373  1.1299 -0.6757  0.1841
   86SOPE   H4S 8024   6.536   6.734   4.367 -0.8003  0.1628 -1.1143
   86SOPE   C25 8025   6.690   6.601   4.436  0.0535 -0.5801  0.6790
   86SOPE   H5R 8026   6.604   6.535   4.462 -0.5999 -0.8200 -1.8196
   86SOPE   H5S 8027   6.762   6.547   4.372  1.0929 -0.8557  2.0431
   86SOPE   C26 8028   6.754   6.651   4.565  0.3264 -0.2465  0.4985
   86SOPE   H6R 8029   6.853   6.700   4.555  0.6880 -0.7225  1.5854
   86SOPE   H6S 8030   6.690   6.730   4.608 -0.7452 -1.6069  1.4760
   86SOPE   C27 8031   6.773   6.535   4.666  0.1009  0.5851  0.7093
   86SOPE   H7R 8032   6.684   6.469   4.676  0.6409 -0.2666  0.0173
   86SOPE   H7S 8033   6.847   6.463   4.626 -0.1696  0.6761  0.0397
   86SOPE   C28 8034   6.831   6.570   4.804 -0.4288  0.4960  0.7898
   86SOPE   H8R 8035   6.901   6.490   4.835  0.4068  1.0930  0.4687
   86SOPE   H8S 8036   6.901   6.656   4.795  1.3857 -0.6734  2.9540
   86SOPE   C29 8037   6.711   6.594   4.893  0.5148 -0.6100  0.6550
   86SOPE   H91 8038   6.653   6.681   4.859  0.8861 -1.4389 -2.4514
   86SOPE  C210 8039   6.670   6.522   4.993 -0.4074 -0.0974  0.3271
   86SOPE  H101 8040   6.585   6.552   5.056 -0.3850  1.2688 -0.2590
   86SOPE  C211 8041   6.737   6.389   5.038  0.1031  0.2449  0.7519
   86SOPE  H11R 8042   6.844   6.378   5.009  0.3809  0.9610  1.4656
   86SOPE  H11S 8043   6.676   6.308   4.992 -0.0454  1.0905 -0.5695
   86SOPE  C212 8044   6.727   6.374   5.193  0.8464 -0.0810  0.1113
   86SOPE  H12R 8045   6.618   6.373   5.215  0.4149 -2.6422 -1.6784
   86SOPE  H12S 8046   6.776   6.458   5.246  1.4427 -1.5617  2.0582
   86SOPE  C213 8047   6.790   6.234   5.240  0.3970 -0.3809  0.5212
   86SOPE  H13R 8048   6.773   6.154   5.165  2.2524 -1.0206  0.7202
   86SOPE  H13S 8049   6.735   6.199   5.331 -1.9778 -1.7394 -1.3138
   86SOPE  C214 8050   6.946   6.237   5.271 -0.4098  0.7307  0.2833
   86SOPE  H14R 8051   7.009   6.288   5.194  1.3348 -2.3481 -0.4821
   86SOPE  H14S 8052   6.984   6.133   5.272  1.4852  1.3883  1.3999
   86SOPE  C215 8053   6.978   6.289   5.410  0.1942 -0.4568 -0.4488
   86SOPE  H15R 8054   6.913   6.236   5.484  1.3273 -0.4058  0.6179
   86SOPE  H15S 8055   6.950   6.396   5.401  1.7190 -0.1076 -1.5255
   86SOPE  C216 8056   7.124   6.284   5.465 -0.9610 -0.7248  1.3041
   86SOPE  H16R 8057   7.188   6.285   5.373 -1.3374  0.5473  1.0360
   86SOPE  H16S 8058   7.147   6.191   5.521 -2.2797 -0.8365  1.6717
   86SOPE  C217 8059   7.151   6.416   5.551 -0.3695  0.4863  0.3329
   86SOPE  H17R 8060   7.100   6.396   5.648  2.2915 -2.3027  1.3078
   86SOPE  H17S 8061   7.109   6.508   5.506 -0.8777 -0.4493 -1.2040
   86SOPE  C218 8062   7.303   6.434   5.579 -0.2423  0.3771  0.4389
   86SOPE  H18R 8063   7.349   6.439   5.477 -2.9894  3.2732 -0.8346
   86SOPE  H18S 8064   7.337   6.344   5.634 -3.0409 -0.4667  0.9445
   86SOPE  H18T 8065   7.329   6.524   5.638  0.7379 -1.3289  2.7518
   86SOPE   C33 8066   6.759   6.263   3.990  0.1782  0.1884 -0.3162
   86SOPE   H3X 8067   6.675   6.306   4.048 -0.6782 -0.8642 -0.7330
   86SOPE   H3Y 8068   6.852   6.316   4.017  0.8208 -1.0129 -0.1055
   86SOPE   C34 8069   6.773   6.121   4.050  0.0984 -0.6881 -0.1372
   86SOPE   H4X 8070   6.853   6.069   3.992  0.9478  1.9527 -1.5038
   86SOPE   H4Y 8071   6.680   6.064   4.029  0.8884 -0.9142 -3.6081
   86SOPE   C35 8072   6.823   6.111   4.200 -0.2863 -0.5636  0.6044
   86SOPE   H5X 8073   6.911   6.177   4.214 -1.2749  0.7565  0.7999
   86SOPE   H5Y 8074   6.869   6.011   4.213  3.1206  0.9379  1.1252
   86SOPE   C36 8075   6.719   6.144   4.306  0.9331  0.3164 -0.1057
   86SOPE   H6X 8076   6.629   6.079   4.302  0.3897  0.9159  1.4706
   86SOPE   H6Y 8077   6.697   6.251   4.290  0.6094  0.3800  0.7178
   86SOPE   C37 8078   6.775   6.123   4.441  0.3937 -0.3207 -0.0235
   86SOPE   H7X 8079   6.878   6.162   4.450  0.6626 -1.4634  3.4532
   86SOPE   H7Y 8080   6.776   6.013   4.459  0.0220 -0.1049  1.5085
   86SOPE   C38 8081   6.687   6.191   4.555 -0.3538 -0.1904 -0.1184
   86SOPE   H8X 8082   6.585   6.146   4.550 -0.3183 -0.2112 -0.6839
   86SOPE   H8Y 8083   6.680   6.299   4.529  1.4374  0.2838  1.1829
   86SOPE   C39 8084   6.746   6.185   4.698 -0.2966 -0.6743  0.2489
   86SOPE   H9X 8085   6.690   6.245   4.772 -3.6270 -3.3924  0.1956
   86SOPE   H9Y 8086   6.846   6.231   4.683 -0.3767 -0.3369  0.7411
   86SOPE  C310 8087   6.739   6.047   4.739 -0.3553 -0.2547 -0.3934
   86SOPE  H10X 8088   6.807   5.982   4.680  0.2387 -1.1721  1.2286
   86SOPE  H10Y 8089   6.636   6.007   4.729 -0.2364 -0.4476 -0.9002
   86SOPE  C311 8090   6.785   6.028   4.894  0.1779 -0.0730  0.7486
   86SOPE  H11X 8091   6.698   6.028   4.963  0.2746  2.2025  0.9428
   86SOPE  H11Y 8092   6.853   6.113   4.919  2.0279 -1.5060  0.7700
   86SOPE  C312 8093   6.862   5.898   4.909 -0.0818  0.0193  0.4230
   86SOPE  H12X 8094   6.947   5.915   4.840  0.0358  1.8002  0.9573
   86SOPE  H12Y 8095   6.789   5.830   4.860  0.9493 -0.4516 -0.5087
   86SOPE  C313 8096   6.888   5.846   5.049 -0.4273  0.2614 -0.1549
   86SOPE  H13X 8097   6.795   5.800   5.089 -0.5570  0.3310 -0.3754
   86SOPE  H13Y 8098   6.907   5.940   5.106 -0.6696  0.3578 -0.2313
   86SOPE  C314 8099   7.003   5.744   5.059  0.1380 -0.3443  0.4108
   86SOPE  H14X 8100   7.097   5.794   5.028  1.7050 -2.3933  1.5370
   86SOPE  H14Y 8101   6.983   5.655   4.996 -0.8995 -0.4859  0.9274
   86SOPE  C315 8102   7.036   5.680   5.196  0.1843 -0.6665  0.6392
   86SOPE  H15X 8103   7.144   5.654   5.189 -0.1693 -1.8678 -0.8132
   86SOPE  H15Y 8104   6.975   5.588   5.206 -2.1336  0.8032  0.7917
   86SOPE  C316 8105   7.030   5.774   5.313 -0.3146 -0.3958  0.7657
   86SOPE  H16X 8106   6.922   5.800   5.325 -0.0819  1.3401 -0.4463
   86SOPE  H16Y 8107   7.084   5.867   5.286 -0.2148 -0.1604  1.7297
   86SOPE  C317 8108   7.075   5.713   5.442  0.4717  0.6028  0.2238
   86SOPE  H17X 8109   7.089   5.786   5.525  0.8195  0.7367  0.0482
   86SOPE  H17Y 8110   7.168   5.654   5.426  1.1412  1.9494 -1.0572
   86SOPE  C318 8111   6.978   5.605   5.496 -0.5250 -0.4346 -0.0476
   86SOPE  H18X 8112   6.937   5.531   5.425  1.1376 -0.2170 -1.3019
   86SOPE  H18Y 8113   6.898   5.666   5.543  2.3545  2.3913  1.6556
   86SOPE  H18Z 8114   7.023   5.546   5.579 -2.9231 -1.6442  0.4672
   87SOPE     N 8115   2.000   4.361   3.116  0.0214 -0.4170 -0.4731
   87SOPE   HN1 8116   1.944   4.362   3.028 -1.6684 -0.3008  0.5631
   87SOPE   HN2 8117   2.096   4.394   3.098 -0.0870  0.5175  0.6008
   87SOPE   HN3 8118   2.002   4.265   3.157 -0.6975 -0.2039  0.0893
   87SOPE   C12 8119   1.939   4.445   3.216 -0.3918 -0.7093 -0.2347
   87SOPE  H12A 8120   2.017   4.486   3.282 -0.7025  1.2432 -1.0097
   87SOPE  H12B 8121   1.872   4.382   3.278 -0.6272  0.0394  0.2851
   87SOPE   C11 8122   1.871   4.562   3.152  0.2054 -0.3687  0.3080
   87SOPE  H11A 8123   1.941   4.628   3.096 -0.9190  0.9446  0.4128
   87SOPE  H11B 8124   1.831   4.628   3.231 -0.0132 -0.5057  0.3115
   87SOPE     P 8125   1.661   4.611   2.998 -0.0358 -0.0336  0.2204
   87SOPE   O13 8126   1.599   4.532   2.894  0.0781  0.0252  1.0767
   87SOPE   O14 8127   1.736   4.731   2.952 -0.2816 -0.1548 -0.0184
   87SOPE   O12 8128   1.763   4.512   3.073 -0.5520  0.0477 -0.2215
   87SOPE   O11 8129   1.548   4.649   3.109 -0.0215  0.5867  0.5762
   87SOPE    C1 8130   1.494   4.552   3.198  0.1933  0.3378 -0.5713
   87SOPE    HA 8131   1.532   4.448   3.187 -0.6869 -0.0566  0.0498
   87SOPE    HB 8132   1.384   4.544   3.182  0.3204 -0.1379 -1.2623
   87SOPE    C2 8133   1.521   4.594   3.344 -0.2607 -0.0303 -0.1157
   87SOPE    HS 8134   1.629   4.569   3.358 -0.6661 -1.1604  1.2830
   87SOPE   O21 8135   1.425   4.529   3.433 -0.0899 -1.1426  0.7835
   87SOPE   C21 8136   1.475   4.462   3.525  0.0522  0.1775  0.1840
   87SOPE   O22 8137   1.593   4.452   3.545  0.4569  1.1013  0.3921
   87SOPE   C22 8138   1.375   4.387   3.604 -0.3903 -0.2340  0.1475
   87SOPE   H2R 8139   1.420   4.286   3.621  0.3616 -0.2464 -1.6357
   87SOPE   H2S 8140   1.279   4.375   3.550 -0.0018 -2.8806 -0.1249
   87SOPE    C3 8141   1.516   4.752   3.365 -0.4356 -0.3158 -0.7297
   87SOPE    HX 8142   1.410   4.776   3.340 -1.1138  0.1891  2.2030
   87SOPE    HY 8143   1.591   4.790   3.293  0.7944 -1.8762 -0.3255
   87SOPE   O31 8144   1.546   4.785   3.503  0.1721 -0.6305 -0.0770
   87SOPE   C31 8145   1.675   4.828   3.523  0.9811  0.3158 -0.3443
   87SOPE   O32 8146   1.769   4.802   3.449 -0.0232  0.6193  0.2185
   87SOPE   C32 8147   1.680   4.885   3.658 -0.2541 -0.8398  0.3667
   87SOPE   H2X 8148   1.654   4.807   3.733  0.0715 -0.0681  1.3139
   87SOPE   H2Y 8149   1.604   4.963   3.681 -0.7268 -1.0776 -0.3679
   87SOPE   C23 8150   1.341   4.473   3.730  0.1256 -0.0824  0.3131
   87SOPE   H3R 8151   1.271   4.406   3.785 -0.4871 -0.2373 -0.6265
   87SOPE   H3S 8152   1.290   4.565   3.695  2.5705  0.4045 -2.3490
   87SOPE   C24 8153   1.459   4.518   3.816 -0.1163 -0.1359 -0.4190
   87SOPE   H4R 8154   1.520   4.433   3.852 -2.1691 -1.2426  0.6046
   87SOPE   H4S 8155   1.537   4.573   3.759 -0.6533  0.9709 -0.1086
   87SOPE   C25 8156   1.419   4.611   3.924  0.1746 -0.1620 -0.3243
   87SOPE   H5R 8157   1.379   4.705   3.882  3.4015  2.3717  1.7341
   87SOPE   H5S 8158   1.342   4.561   3.986  1.0775  1.6115  2.4182
   87SOPE   C26 8159   1.538   4.673   4.009 -0.0933  0.2767  0.2232
   87SOPE   H6R 8160   1.595   4.596   4.065 -0.5399 -1.7662 -1.9559
   87SOPE   H6S 8161   1.604   4.713   3.930  0.7861  0.8082  1.2037
   87SOPE   C27 8162   1.502   4.784   4.106  0.2342 -0.8587  0.0492
   87SOPE   H7R 8163   1.433   4.859   4.060  1.0543 -0.2334 -0.1764
   87SOPE   H7S 8164   1.442   4.735   4.186  0.4592  0.4743  1.0714
   87SOPE   C28 8165   1.619   4.874   4.158  0.0470  0.4012  0.1457
   87SOPE   H8R 8166   1.674   4.916   4.071  0.8032 -0.2284  0.3056
   87SOPE   H8S 8167   1.573   4.961   4.209  2.1639  2.1487 -0.7524
   87SOPE   C29 8168   1.701   4.789   4.249 -0.3071  0.4798 -0.3641
   87SOPE   H91 8169   1.787   4.741   4.201 -0.6837 -1.5729  0.8998
   87SOPE  C210 8170   1.684   4.775   4.377  0.3906  0.6512 -0.0646
   87SOPE  H101 8171   1.739   4.696   4.430  0.8947  0.8225 -0.3340
   87SOPE  C211 8172   1.578   4.827   4.472  0.3972 -1.5067  0.0175
   87SOPE  H11R 8173   1.524   4.751   4.534  1.4094 -0.7807  1.8718
   87SOPE  H11S 8174   1.500   4.885   4.417 -1.1902 -3.5733 -0.0562
   87SOPE  C212 8175   1.642   4.923   4.578  0.3868 -0.6599 -0.1691
   87SOPE  H12R 8176   1.717   4.877   4.645  0.0319 -0.2722  0.5036
   87SOPE  H12S 8177   1.560   4.962   4.642 -1.3300 -1.3359 -1.8479
   87SOPE  C213 8178   1.708   5.049   4.511  0.3668 -0.2807  0.0590
   87SOPE  H13R 8179   1.621   5.101   4.466 -1.1809 -2.7623 -0.0459
   87SOPE  H13S 8180   1.769   5.015   4.425  0.8691 -2.3754  1.1675
   87SOPE  C214 8181   1.770   5.137   4.614 -0.1149  0.3023  0.0803
   87SOPE  H14R 8182   1.859   5.089   4.660  1.2200 -0.3672 -2.9703
   87SOPE  H14S 8183   1.698   5.158   4.696  0.3524  0.4547  0.4560
   87SOPE  C215 8184   1.810   5.276   4.542 -0.1453  0.1022 -0.0003
   87SOPE  H15R 8185   1.852   5.266   4.439 -0.4888  5.6164 -0.9613
   87SOPE  H15S 8186   1.893   5.308   4.609 -1.2654  0.5762  1.1941
   87SOPE  C216 8187   1.710   5.387   4.542  0.0974  0.7256 -0.3221
   87SOPE  H16R 8188   1.613   5.347   4.505 -0.3972  1.9725 -0.4366
   87SOPE  H16S 8189   1.737   5.457   4.460  0.3123  1.0118 -0.0098
   87SOPE  C217 8190   1.693   5.463   4.672 -0.8561 -0.0001  0.4771
   87SOPE  H17R 8191   1.643   5.394   4.743 -1.3285 -0.3632 -0.1950
   87SOPE  H17S 8192   1.619   5.543   4.652 -0.2507 -0.0457 -2.3626
   87SOPE  C218 8193   1.816   5.528   4.727 -0.3959 -0.3548  0.3052
   87SOPE  H18R 8194   1.902   5.464   4.758 -1.2766 -1.7553 -0.0801
   87SOPE  H18S 8195   1.785   5.590   4.814 -1.0805 -1.4612  0.8709
   87SOPE  H18T 8196   1.861   5.596   4.652 -2.0025  1.8021  1.1752
   87SOPE   C33 8197   1.828   4.942   3.694  0.0069  0.0190 -0.0105
   87SOPE   H3X 8198   1.839   5.039   3.641 -1.0009 -0.1479 -0.5460
   87SOPE   H3Y 8199   1.907   4.878   3.648 -1.1509 -0.0117 -2.1183
   87SOPE   C34 8200   1.839   4.961   3.850 -0.1968  0.0763 -0.3580
   87SOPE   H4X 8201   1.878   4.869   3.898 -0.6431  0.2139  0.2879
   87SOPE   H4Y 8202   1.739   4.995   3.887  0.9812  2.1479  1.1066
   87SOPE   C35 8203   1.948   5.063   3.885  0.5260 -0.1328  0.2657
   87SOPE   H5X 8204   1.929   5.149   3.818  0.3190  0.4956  1.1085
   87SOPE   H5Y 8205   2.047   5.023   3.857  0.4631 -0.1688  0.0945
   87SOPE   C36 8206   1.958   5.106   4.032  0.8340  0.3165  0.7311
   87SOPE   H6X 8207   1.868   5.160   4.068  0.4407 -1.0628  1.9804
   87SOPE   H6Y 8208   2.038   5.183   4.038 -0.3752  1.5793  1.0105
   87SOPE   C37 8209   1.987   4.986   4.125 -0.4984  0.5064 -0.2302
   87SOPE   H7X 8210   2.068   4.922   4.083  0.7600  0.5628  1.9564
   87SOPE   H7Y 8211   1.893   4.927   4.122 -0.0544 -0.2485  0.3359
   87SOPE   C38 8212   2.027   5.023   4.268  0.6421  0.1106  0.4549
   87SOPE   H8X 8213   1.932   5.060   4.310 -0.5105 -2.6417  0.4907
   87SOPE   H8Y 8214   2.103   5.104   4.256  1.8628 -0.8378  1.4634
   87SOPE   C39 8215   2.077   4.911   4.357 -0.6293  0.7281  0.6116
   87SOPE   H9X 8216   2.181   4.891   4.324 -0.8189  0.9032 -0.1029
   87SOPE   H9Y 8217   2.031   4.816   4.322  2.7422 -0.8138 -0.0619
   87SOPE  C310 8218   2.072   4.943   4.500 -0.5585  0.2813 -0.2583
   87SOPE  H10X 8219   1.983   4.907   4.557  1.9596 -1.0969  3.1914
   87SOPE  H10Y 8220   2.083   5.054   4.506  1.8726  0.1378 -1.0467
   87SOPE  C311 8221   2.203   4.889   4.574  0.4232 -0.0777 -0.3041
   87SOPE  H11X 8222   2.283   4.954   4.532 -0.9107  0.5284 -2.0397
   87SOPE  H11Y 8223   2.229   4.782   4.555 -0.6627 -0.5272  0.6119
   87SOPE  C312 8224   2.182   4.905   4.729  0.0429 -0.4283 -0.8771
   87SOPE  H12X 8225   2.081   4.874   4.763  0.1246 -1.2101 -1.3179
   87SOPE  H12Y 8226   2.188   5.011   4.761  0.0277 -0.7868  0.3737
   87SOPE  C313 8227   2.282   4.811   4.807  0.1123 -0.0353  0.0886
   87SOPE  H13X 8228   2.385   4.846   4.785  0.3328  0.0628  1.2197
   87SOPE  H13Y 8229   2.264   4.707   4.769  1.1318 -0.4504  0.7137
   87SOPE  C314 8230   2.266   4.826   4.957  0.0160 -0.4795  0.3720
   87SOPE  H14X 8231   2.168   4.790   4.996 -0.0772 -0.6263  0.0031
   87SOPE  H14Y 8232   2.276   4.936   4.970  0.0864 -0.2465 -1.4233
   87SOPE  C315 8233   2.384   4.759   5.032  0.1987 -0.3788  0.2293
   87SOPE  H15X 8234   2.391   4.803   5.134  1.1550 -0.9481  0.4235
   87SOPE  H15Y 8235   2.477   4.787   4.979  1.4370 -0.4239  2.2557
   87SOPE  C316 8236   2.367   4.604   5.031 -0.9919  0.4396 -0.1622
   87SOPE  H16X 8237   2.329   4.557   4.938 -0.5281  1.7590 -1.0386
   87SOPE  H16Y 8238   2.293   4.578   5.110 -1.3956  0.6825 -0.4596
   87SOPE  C317 8239   2.506   4.529   5.062  0.4302 -0.2405 -0.4927
   87SOPE  H17X 8240   2.576   4.560   4.981  1.2885  1.5779  0.8564
   87SOPE  H17Y 8241   2.497   4.419   5.053  0.1645 -0.3267  0.7338
   87SOPE  C318 8242   2.559   4.567   5.195 -0.6552  0.2752  0.4790
   87SOPE  H18X 8243   2.482   4.596   5.269 -0.6662 -0.9509  0.9793
   87SOPE  H18Y 8244   2.614   4.662   5.180  1.2163 -1.0775 -1.9482
   87SOPE  H18Z 8245   2.631   4.494   5.239  0.4800  0.6605 -0.6770
   88SOPE     N 8246   3.730   4.771   2.717 -0.2542  0.5162  0.0123
   88SOPE   HN1 8247   3.825   4.738   2.743 -0.8405 -2.2785 -0.9597
   88SOPE   HN2 8248   3.659   4.702   2.749 -0.7216  1.2746  0.6289
   88SOPE   HN3 8249   3.735   4.779   2.613  0.0846  0.8852  0.0570
   88SOPE   C12 8250   3.696   4.901   2.771  0.7482 -0.8121 -0.0456
   88SOPE  H12A 8251   3.589   4.920   2.746  0.9080  1.8319  1.0726
   88SOPE  H12B 8252   3.768   4.977   2.735 -0.2031  1.1756  2.0032
   88SOPE   C11 8253   3.692   4.893   2.926  0.2891  0.3702 -0.3428
   88SOPE  H11A 8254   3.790   4.868   2.971  0.6426  1.0573 -0.7240
   88SOPE  H11B 8255   3.614   4.817   2.949  0.4222 -0.0619 -1.2678
   88SOPE     P 8256   3.554   5.043   3.088 -0.1405 -0.2656  0.0922
   88SOPE   O13 8257   3.425   5.036   3.026 -0.0246  0.2747  0.0948
   88SOPE   O14 8258   3.592   5.159   3.173  0.2672  0.1247 -0.6464
   88SOPE   O12 8259   3.660   5.021   2.975  0.0761  1.0050 -0.6267
   88SOPE   O11 8260   3.571   4.919   3.181 -0.3864  0.6053  0.2201
   88SOPE    C1 8261   3.693   4.896   3.253  0.7143  0.4530 -0.3053
   88SOPE    HA 8262   3.713   4.977   3.327 -2.8812 -0.3322  1.7548
   88SOPE    HB 8263   3.778   4.882   3.183  0.4898  0.9861 -0.6861
   88SOPE    C2 8264   3.679   4.766   3.342 -0.3688 -0.1438 -0.2305
   88SOPE    HS 8265   3.771   4.742   3.400 -0.2678 -2.7769 -1.3630
   88SOPE   O21 8266   3.643   4.662   3.251  0.0620  0.3590  0.3816
   88SOPE   C21 8267   3.751   4.614   3.178 -0.7962  0.5574  0.3821
   88SOPE   O22 8268   3.868   4.651   3.188 -0.4845  0.0749 -0.6483
   88SOPE   C22 8269   3.698   4.502   3.087 -0.4470 -0.0970  0.9234
   88SOPE   H2R 8270   3.780   4.433   3.058 -2.8630 -3.0710  0.6682
   88SOPE   H2S 8271   3.656   4.542   2.992  0.1363 -1.1636  0.2073
   88SOPE    C3 8272   3.573   4.799   3.445 -0.2891  0.2395 -0.8086
   88SOPE    HX 8273   3.520   4.710   3.486 -1.0899  0.2869 -1.7060
   88SOPE    HY 8274   3.503   4.867   3.391  0.0066  0.1967 -1.2528
   88SOPE   O31 8275   3.633   4.878   3.548 -0.7837  0.0616  0.2811
   88SOPE   C31 8276   3.548   4.904   3.641  0.5773 -0.5328 -0.6861
   88SOPE   O32 8277   3.432   4.871   3.651 -0.2399 -0.4055  0.1408
   88SOPE   C32 8278   3.616   5.005   3.734 -0.6533  0.3896  0.3536
   88SOPE   H2X 8279   3.581   5.106   3.704 -0.7046  0.6431  1.2342
   88SOPE   H2Y 8280   3.726   4.994   3.724 -0.6571  1.3170 -0.8709
   88SOPE   C23 8281   3.600   4.403   3.155  0.1752 -0.3717 -0.1219
   88SOPE   H3R 8282   3.553   4.339   3.078 -0.9131 -1.5718  1.4664
   88SOPE   H3S 8283   3.512   4.451   3.203  0.8651 -0.1718  0.9981
   88SOPE   C24 8284   3.654   4.311   3.255  0.1775  0.6736 -0.0295
   88SOPE   H4R 8285   3.710   4.234   3.198 -0.8350  0.0779 -0.2494
   88SOPE   H4S 8286   3.728   4.353   3.326 -0.7236 -2.7805  3.3318
   88SOPE   C25 8287   3.549   4.235   3.337 -0.1452 -0.1371 -0.4932
   88SOPE   H5R 8288   3.595   4.176   3.419 -0.2905  0.1729 -0.1864
   88SOPE   H5S 8289   3.468   4.288   3.392  0.6569 -0.1840  0.7865
   88SOPE   C26 8290   3.468   4.134   3.250  0.3594 -0.0916 -0.2314
   88SOPE   H6R 8291   3.419   4.204   3.179  1.3009  0.4542 -0.3611
   88SOPE   H6S 8292   3.533   4.067   3.189 -2.2882 -0.9101 -2.3367
   88SOPE   C27 8293   3.369   4.049   3.320 -0.4230 -0.5553 -0.2347
   88SOPE   H7R 8294   3.412   3.967   3.381  2.4989  0.6450 -0.5342
   88SOPE   H7S 8295   3.300   4.106   3.387 -1.3415 -1.8482 -0.0330
   88SOPE   C28 8296   3.290   3.958   3.221  0.3652  0.4444  0.2210
   88SOPE   H8R 8297   3.360   3.930   3.140  0.6891 -1.1598  1.0220
   88SOPE   H8S 8298   3.260   3.863   3.270  0.3900 -0.9436 -2.3135
   88SOPE   C29 8299   3.176   4.038   3.164  0.3762 -0.0453  0.5034
   88SOPE   H91 8300   3.214   4.090   3.075  0.1806 -0.1258  0.3726
   88SOPE  C210 8301   3.045   4.039   3.192 -0.6174  0.4410 -0.4404
   88SOPE  H101 8302   2.979   4.102   3.131  0.0777  1.0308 -0.5922
   88SOPE  C211 8303   2.985   3.972   3.313  0.8120  0.5280 -0.5129
   88SOPE  H11R 8304   3.073   3.952   3.378  0.3734 -1.4014 -0.4364
   88SOPE  H11S 8305   2.937   3.874   3.288  0.9775 -0.1422  1.6034
   88SOPE  C212 8306   2.887   4.068   3.389 -0.5570 -0.0972  0.6086
   88SOPE  H12R 8307   2.834   4.001   3.460 -1.8482 -1.6736 -1.7424
   88SOPE  H12S 8308   2.811   4.105   3.317  0.5878 -1.6696 -1.4773
   88SOPE  C213 8309   2.957   4.175   3.472  0.0038 -0.0335 -0.2156
   88SOPE  H13R 8310   2.889   4.257   3.503 -0.4913 -0.5155 -0.0107
   88SOPE  H13S 8311   3.036   4.221   3.409  0.6991 -0.6349  0.2120
   88SOPE  C214 8312   3.018   4.125   3.607 -0.7167 -0.2080 -1.0118
   88SOPE  H14R 8313   3.074   4.208   3.657  2.1260 -3.0555  0.9926
   88SOPE  H14S 8314   3.104   4.057   3.589 -2.4981 -2.6378 -0.8629
   88SOPE  C215 8315   2.920   4.063   3.696  0.3880 -0.2786  0.0024
   88SOPE  H15R 8316   2.892   3.962   3.659  1.1912  0.0265 -1.5425
   88SOPE  H15S 8317   2.828   4.124   3.710  1.1738  0.6988  1.1031
   88SOPE  C216 8318   2.954   4.044   3.846 -0.1718  0.2065  0.0734
   88SOPE  H16R 8319   2.971   4.144   3.891 -3.1192  0.2386  1.3352
   88SOPE  H16S 8320   3.046   3.985   3.865  0.5378  0.6543 -1.7186
   88SOPE  C217 8321   2.851   3.981   3.940  0.5369  1.3380  0.2380
   88SOPE  H17R 8322   2.749   4.025   3.939 -0.5427 -0.9716 -1.1629
   88SOPE  H17S 8323   2.895   3.987   4.042  1.0013  1.1242  0.0527
   88SOPE  C218 8324   2.835   3.831   3.896  0.6427 -0.4118  0.4199
   88SOPE  H18R 8325   2.937   3.799   3.866  1.3832  0.5730  1.7550
   88SOPE  H18S 8326   2.770   3.818   3.807  0.3529 -0.1758  0.5946
   88SOPE  H18T 8327   2.799   3.773   3.984 -0.6878  0.0653  0.2115
   88SOPE   C33 8328   3.590   4.971   3.885 -0.4417 -0.4588  0.3799
   88SOPE   H3X 8329   3.484   4.965   3.917 -0.3699  0.1066  0.7379
   88SOPE   H3Y 8330   3.647   5.054   3.932  0.0615  0.9433 -2.4681
   88SOPE   C34 8331   3.657   4.842   3.934 -0.9734  0.5696 -0.6750
   88SOPE   H4X 8332   3.746   4.819   3.872 -1.2066 -1.2419 -0.3776
   88SOPE   H4Y 8333   3.592   4.768   3.884  0.1740 -0.8673 -0.0972
   88SOPE   C35 8334   3.660   4.836   4.085 -0.4530  0.5194 -0.1856
   88SOPE   H5X 8335   3.566   4.866   4.137 -1.2727 -2.7688  0.4433
   88SOPE   H5Y 8336   3.747   4.893   4.125  0.2041 -1.7811  1.9227
   88SOPE   C36 8337   3.691   4.690   4.125  0.1996  0.7345  0.6183
   88SOPE   H6X 8338   3.765   4.648   4.053  0.3963  2.2358 -0.0949
   88SOPE   H6Y 8339   3.596   4.634   4.108  0.8655 -0.0504 -0.7362
   88SOPE   C37 8340   3.742   4.670   4.273  0.3621  0.8465 -0.0531
   88SOPE   H7X 8341   3.838   4.723   4.292  0.3397  0.0312  2.7890
   88SOPE   H7Y 8342   3.773   4.567   4.299  1.1220  0.4161 -2.4025
   88SOPE   C38 8343   3.653   4.732   4.372  0.6919 -0.2779  0.2494
   88SOPE   H8X 8344   3.557   4.677   4.363  0.6771 -0.5090  1.5744
   88SOPE   H8Y 8345   3.645   4.842   4.354 -1.7888 -0.3297  0.6740
   88SOPE   C39 8346   3.707   4.713   4.503  0.6358 -0.1330 -0.3881
   88SOPE   H9X 8347   3.808   4.759   4.509  0.7543 -0.2007 -1.6900
   88SOPE   H9Y 8348   3.724   4.607   4.532 -0.9009  0.1768  1.8810
   88SOPE  C310 8349   3.615   4.768   4.616 -0.1547  0.0533  0.0989
   88SOPE  H10X 8350   3.663   4.734   4.710 -0.6148 -0.2436  0.2265
   88SOPE  H10Y 8351   3.514   4.724   4.605 -0.5263  0.9195 -0.0007
   88SOPE  C311 8352   3.591   4.913   4.620  0.1103  0.4607 -0.4377
   88SOPE  H11X 8353   3.506   4.929   4.691 -0.6331 -1.5379 -0.7992
   88SOPE  H11Y 8354   3.546   4.941   4.523  0.1447  0.6803 -0.3912
   88SOPE  C312 8355   3.711   4.998   4.646  0.4342  0.1917 -0.8143
   88SOPE  H12X 8356   3.793   5.000   4.571 -0.2960 -1.0327 -1.6694
   88SOPE  H12Y 8357   3.761   4.963   4.739  0.4683 -0.2901 -1.0122
   88SOPE  C313 8358   3.660   5.139   4.664 -0.5449 -0.0478  0.2388
   88SOPE  H13X 8359   3.587   5.143   4.747  1.4597  0.3091  2.0682
   88SOPE  H13Y 8360   3.606   5.159   4.569 -0.3862 -1.2552 -0.1129
   88SOPE  C314 8361   3.777   5.252   4.691  0.6169 -0.1259 -0.1288
   88SOPE  H14X 8362   3.853   5.238   4.611  2.1254  0.5421  1.1356
   88SOPE  H14Y 8363   3.825   5.238   4.790  1.2794 -1.0944 -0.5690
   88SOPE  C315 8364   3.722   5.403   4.674 -0.1583 -0.0789 -1.2783
   88SOPE  H15X 8365   3.660   5.422   4.765  2.5412  0.1381  0.6174
   88SOPE  H15Y 8366   3.660   5.412   4.583  0.2630  2.2156 -1.3861
   88SOPE  C316 8367   3.839   5.500   4.681 -0.2395 -0.0805  0.0376
   88SOPE  H16X 8368   3.798   5.602   4.670  1.5035  0.9801  2.5188
   88SOPE  H16Y 8369   3.921   5.479   4.610 -0.1614 -0.8037  0.3248
   88SOPE  C317 8370   3.896   5.524   4.823  0.1729  0.2135  1.4662
   88SOPE  H17X 8371   3.940   5.429   4.860 -0.4161 -0.9585 -0.6442
   88SOPE  H17Y 8372   3.815   5.549   4.895 -0.0045  2.1200  0.6715
   88SOPE  C318 8373   4.001   5.638   4.822  0.4685 -0.5443 -0.0131
   88SOPE  H18X 8374   4.050   5.637   4.922  0.8061  5.2478  0.2322
   88SOPE  H18Y 8375   3.943   5.733   4.815 -1.6074 -1.8053 -0.7656
   88SOPE  H18Z 8376   4.074   5.638   4.738 -0.4783 -1.7519 -0.8753
   89SAPC     N 8377   2.152   1.526   7.557 -0.1315  0.1850 -0.2472
   89SAPC   C12 8378   2.123   1.479   7.411  0.0845 -0.7349  0.1226
   89SAPC  H12A 8379   2.210   1.428   7.374  1.0168  1.3677 -0.7702
   89SAPC  H12B 8380   2.115   1.566   7.347  3.1167  0.0307  0.6599
   89SAPC   C13 8381   2.042   1.615   7.607  0.2993 -0.1876  0.0609
   89SAPC  H13A 8382   2.078   1.660   7.699  0.4119  2.1154 -1.0489
   89SAPC  H13B 8383   2.036   1.701   7.542  1.1333  0.7702  1.1952
   89SAPC  H13C 8384   1.951   1.563   7.631 -0.3710  1.0101  0.2119
   89SAPC   C14 8385   2.178   1.413   7.660 -0.0462 -0.5511 -0.6539
   89SAPC  H14A 8386   2.100   1.339   7.651  0.6827 -1.4717  0.2759
   89SAPC  H14B 8387   2.267   1.356   7.638 -0.8913 -2.8516  1.3477
   89SAPC  H14C 8388   2.172   1.452   7.761  0.3237 -1.2072 -0.3664
   89SAPC   C15 8389   2.273   1.619   7.549 -0.7370 -0.4864 -0.1110
   89SAPC  H15A 8390   2.370   1.582   7.518  0.7374  2.4400  0.6000
   89SAPC  H15B 8391   2.247   1.704   7.488 -0.8785  0.7183  1.5629
   89SAPC  H15C 8392   2.291   1.657   7.648 -1.2248 -1.2091  0.2604
   89SAPC   C11 8393   2.011   1.370   7.406  0.1405 -0.1893 -0.1067
   89SAPC  H11A 8394   2.036   1.282   7.470  1.9293  0.5382  0.2666
   89SAPC  H11B 8395   1.997   1.323   7.307 -0.7189  0.1398 -0.1501
   89SAPC     P 8396   1.819   1.539   7.354  0.2112 -0.2515 -0.2017
   89SAPC   O13 8397   1.779   1.655   7.434  0.2744  0.1836 -0.4721
   89SAPC   O14 8398   1.905   1.565   7.237  0.2278 -0.0209 -0.1041
   89SAPC   O12 8399   1.884   1.430   7.450 -0.1000  0.9218 -0.6570
   89SAPC   O11 8400   1.686   1.466   7.300 -0.1077 -0.3432  0.0807
   89SAPC    C1 8401   1.694   1.341   7.233 -0.0286 -0.6092 -0.2107
   89SAPC    HA 8402   1.796   1.298   7.219  1.0887  1.2022  1.6510
   89SAPC    HB 8403   1.639   1.263   7.289 -1.4148  0.2625 -0.3051
   89SAPC    C2 8404   1.628   1.344   7.088 -0.3383  0.2985  0.5124
   89SAPC    HS 8405   1.677   1.267   7.026 -2.5951  1.3256 -2.8225
   89SAPC   O21 8406   1.627   1.479   7.021 -0.9092  0.3363  0.1836
   89SAPC   C21 8407   1.740   1.505   6.950 -0.3657  0.0252  0.1796
   89SAPC   O22 8408   1.841   1.440   6.962  0.0261 -0.2298  0.1862
   89SAPC   C22 8409   1.713   1.618   6.850 -0.2260 -0.0326 -0.8704
   89SAPC   H2R 8410   1.678   1.702   6.914 -0.7408 -1.3103  0.6042
   89SAPC   H2S 8411   1.815   1.639   6.813  0.4391  1.3358  1.5470
   89SAPC    C3 8412   1.478   1.297   7.094 -0.5529 -0.3870 -0.1963
   89SAPC    HX 8413   1.430   1.356   7.175  1.0691  3.3355 -1.7400
   89SAPC    HY 8414   1.478   1.190   7.123  2.0215 -0.0598  1.2744
   89SAPC   O31 8415   1.400   1.321   6.980 -0.1949 -0.2358  0.5349
   89SAPC   C31 8416   1.313   1.416   6.971 -0.0509 -0.1011  0.5720
   89SAPC   O32 8417   1.294   1.508   7.048 -0.2454 -0.4529  0.1134
   89SAPC   C32 8418   1.221   1.382   6.854 -0.2067  0.2792  0.2487
   89SAPC   H2X 8419   1.137   1.311   6.864 -0.4156  0.5288  0.2552
   89SAPC   H2Y 8420   1.292   1.337   6.780  1.3164 -0.2167  1.9291
   89SAPC   C23 8421   1.616   1.591   6.739  0.1584  0.3059  1.3221
   89SAPC   H3R 8422   1.510   1.600   6.772  0.8904  1.5366  3.5056
   89SAPC   H3S 8423   1.628   1.483   6.718  0.1211  0.2622  1.5319
   89SAPC   C24 8424   1.650   1.684   6.617  0.2090 -0.4804 -0.0519
   89SAPC   H4R 8425   1.756   1.673   6.584  0.5225  0.9265  0.3858
   89SAPC   H4S 8426   1.630   1.789   6.648 -1.5447 -0.6685 -0.4444
   89SAPC   C25 8427   1.562   1.659   6.500  0.5685  0.0405 -0.4940
   89SAPC   H5R 8428   1.457   1.691   6.499  0.3691 -0.5682  0.3947
   89SAPC   C26 8429   1.610   1.591   6.391  0.3574  0.1382 -0.5719
   89SAPC   H6R 8430   1.538   1.571   6.311  0.1843 -0.6367 -0.2229
   89SAPC   C27 8431   1.743   1.518   6.374  0.3548  0.8211  0.1279
   89SAPC   H7R 8432   1.719   1.410   6.364 -2.2462  1.3591 -0.2825
   89SAPC   H7S 8433   1.809   1.514   6.463 -0.2315  0.5281  0.5594
   89SAPC   C28 8434   1.827   1.568   6.257 -0.9488  0.0942  0.0757
   89SAPC   H8R 8435   1.894   1.649   6.291 -1.7583  0.2697  1.2905
   89SAPC   C29 8436   1.826   1.525   6.131 -0.1004 -0.5010 -0.2207
   89SAPC   H9R 8437   1.890   1.566   6.052  1.5927 -3.3140 -0.4633
   89SAPC  C210 8438   1.732   1.412   6.090 -0.2430 -0.6779  0.6141
   89SAPC  H10R 8439   1.659   1.386   6.169  0.4582 -1.7665  0.9290
   89SAPC  H10S 8440   1.800   1.326   6.074  0.6595 -0.1215  1.3040
   89SAPC  C211 8441   1.647   1.430   5.962  0.9365 -0.4207 -0.4614
   89SAPC  H11R 8442   1.541   1.454   5.976  0.7990 -1.6722  0.8960
   89SAPC  C212 8443   1.697   1.418   5.843 -0.5225  0.6697  1.2684
   89SAPC  H12R 8444   1.631   1.425   5.756 -0.5698  1.8681  1.3807
   89SAPC  C213 8445   1.838   1.382   5.806  0.2814  0.2554  0.3058
   89SAPC  H13R 8446   1.912   1.403   5.886  1.7078 -2.0812 -0.3206
   89SAPC  H13S 8447   1.874   1.451   5.726  0.1153  0.1418  0.1320
   89SAPC  C214 8448   1.854   1.234   5.776  0.5158  0.1006 -0.5090
   89SAPC  H14R 8449   1.829   1.170   5.862  0.7612 -0.5723 -0.9274
   89SAPC  C215 8450   1.913   1.182   5.667 -0.0796 -0.2912 -0.0947
   89SAPC  H15R 8451   1.920   1.073   5.657  1.6785 -0.1231 -1.2695
   89SAPC  C216 8452   1.975   1.259   5.547  0.0007 -0.4280 -0.1403
   89SAPC  H16R 8453   2.074   1.292   5.584 -0.3777 -0.6573  1.1239
   89SAPC  H16S 8454   1.906   1.345   5.533 -0.4241 -0.4834  1.4048
   89SAPC  C217 8455   1.988   1.159   5.428 -0.1266  0.0065  0.2019
   89SAPC  H17R 8456   2.042   1.211   5.345 -2.5818  1.3735 -0.6565
   89SAPC  H17S 8457   1.891   1.143   5.376 -0.9497  1.4818  1.1894
   89SAPC  C218 8458   2.063   1.034   5.453 -0.3669  0.0575 -0.4382
   89SAPC  H18R 8459   1.999   0.972   5.520 -2.3829  0.7459 -1.6299
   89SAPC  H18S 8460   2.161   1.044   5.503 -0.6836 -0.0534  0.2088
   89SAPC  C219 8461   2.091   0.959   5.318 -0.9446 -0.1658 -0.2495
   89SAPC  H19R 8462   2.163   1.020   5.259 -1.8509  0.8165 -0.3770
   89SAPC  H19S 8463   1.996   0.962   5.261 -1.0886  0.7861  0.0306
   89SAPC  C220 8464   2.143   0.814   5.352 -0.1977 -0.4294 -0.3950
   89SAPC  H20R 8465   2.225   0.821   5.426 -1.8108  0.6914  1.4042
   89SAPC  H20S 8466   2.184   0.760   5.264 -0.6474 -1.7653  0.1880
   89SAPC  H20T 8467   2.062   0.756   5.401  0.1286  0.2820  1.0303
   89SAPC   C33 8468   1.166   1.512   6.786 -0.0400 -0.9795 -0.2807
   89SAPC   H3X 8469   1.247   1.587   6.785 -1.2751  0.3966 -1.6906
   89SAPC   H3Y 8470   1.082   1.541   6.854  1.8842  1.6010  1.1684
   89SAPC   C34 8471   1.118   1.479   6.640  0.5802  0.3911  0.1456
   89SAPC   H4X 8472   1.037   1.548   6.609 -0.8572 -1.0979  0.4432
   89SAPC   H4Y 8473   1.073   1.378   6.634  1.7671 -0.2096  1.0184
   89SAPC   C35 8474   1.228   1.467   6.537 -0.4382  0.0759  0.1933
   89SAPC   H5X 8475   1.294   1.394   6.589 -1.0518 -0.2374  0.5393
   89SAPC   H5Y 8476   1.277   1.566   6.520  0.1610 -0.2947 -0.2785
   89SAPC   C36 8477   1.172   1.432   6.395 -0.3762  0.4311 -0.0753
   89SAPC   H6X 8478   1.105   1.345   6.408  0.2694  0.0554  0.8817
   89SAPC   H6Y 8479   1.260   1.393   6.340 -2.7317 -1.8783 -2.4623
   89SAPC   C37 8480   1.105   1.544   6.318  0.5066  0.1833 -0.5753
   89SAPC   H7X 8481   1.180   1.626   6.326  1.0634 -0.4398  0.9122
   89SAPC   H7Y 8482   1.013   1.577   6.370  2.6325  3.9135  1.2182
   89SAPC   C38 8483   1.095   1.509   6.167 -0.2135 -0.0032 -0.3641
   89SAPC   H8X 8484   1.020   1.585   6.137  1.3420  1.4760 -0.6645
   89SAPC   H8Y 8485   1.062   1.403   6.166  1.0519 -0.4176 -1.6622
   89SAPC   C39 8486   1.228   1.529   6.086 -0.1587  0.3606  0.8263
   89SAPC   H9X 8487   1.305   1.454   6.112  1.9761  1.8363 -0.8950
   89SAPC   H9Y 8488   1.277   1.628   6.099  0.6452  0.0818  0.0219
   89SAPC  C310 8489   1.224   1.503   5.938 -0.1407  0.1270 -0.0757
   89SAPC  H10X 8490   1.331   1.498   5.909 -0.1391 -0.6626  0.0167
   89SAPC  H10Y 8491   1.175   1.589   5.889 -1.2924 -0.8354 -0.6638
   89SAPC  C311 8492   1.181   1.368   5.895 -0.1810  0.3535 -0.0214
   89SAPC  H11X 8493   1.077   1.353   5.931 -0.4244  2.1754  0.1407
   89SAPC  H11Y 8494   1.243   1.302   5.959 -0.2524  1.2343  0.9773
   89SAPC  C312 8495   1.196   1.336   5.747  0.2125 -0.5075  0.3122
   89SAPC  H12X 8496   1.127   1.412   5.705 -1.0986 -1.7541  0.1391
   89SAPC  H12Y 8497   1.154   1.236   5.723  0.5244 -0.4546 -0.4684
   89SAPC  C313 8498   1.329   1.344   5.679 -0.2490 -0.1017  0.0496
   89SAPC  H13X 8499   1.396   1.286   5.746 -2.5939 -1.8372  1.0475
   89SAPC  H13Y 8500   1.365   1.449   5.681  0.8464 -0.4686  2.6802
   89SAPC  C314 8501   1.329   1.279   5.535  0.3582  0.2067 -0.4947
   89SAPC  H14X 8502   1.276   1.338   5.457 -0.9958 -0.5690 -0.1924
   89SAPC  H14Y 8503   1.280   1.179   5.538  0.5063  0.1010 -1.3758
   89SAPC  C315 8504   1.456   1.264   5.459 -0.1161 -0.0184  0.4938
   89SAPC  H15X 8505   1.535   1.196   5.499 -0.7201 -1.0809 -0.0820
   89SAPC  H15Y 8506   1.504   1.363   5.473 -1.4178  0.4175  2.2237
   89SAPC  C316 8507   1.444   1.236   5.308  0.4606  0.0421  0.1467
   89SAPC  H16X 8508   1.545   1.238   5.261 -0.2452 -2.1954 -1.6494
   89SAPC  H16Y 8509   1.391   1.319   5.258  0.6191  0.1119  0.0953
   89SAPC  C317 8510   1.372   1.106   5.279  0.0610  0.7583  0.5603
   89SAPC  H17X 8511   1.270   1.100   5.324 -1.0794  1.4963 -1.7295
   89SAPC  H17Y 8512   1.433   1.019   5.312 -1.1743  0.0835  1.1563
   89SAPC  C318 8513   1.353   1.076   5.131 -0.6816 -0.3364  0.1290
   89SAPC  H18X 8514   1.455   1.071   5.087  0.5015  2.0957  2.3595
   89SAPC  H18Y 8515   1.289   1.163   5.103 -1.2381 -1.0756 -1.0029
   89SAPC  H18Z 8516   1.301   0.979   5.110  0.1610 -0.8597  0.4251
   90SAPC     N 8517   4.614   3.780   7.638 -0.4131  0.7747 -1.0263
   90SAPC   C12 8518   4.745   3.700   7.657 -0.6140 -0.4336  0.2216
   90SAPC  H12A 8519   4.717   3.598   7.682  0.6765 -0.7681  0.3701
   90SAPC  H12B 8520   4.784   3.741   7.748 -3.6047 -1.4176  2.1172
   90SAPC   C13 8521   4.555   3.796   7.779  0.5050 -0.3827 -0.4385
   90SAPC  H13A 8522   4.456   3.837   7.767  1.2084  1.5667  0.0565
   90SAPC  H13B 8523   4.540   3.711   7.844  0.1691  1.5506  2.1647
   90SAPC  H13C 8524   4.612   3.876   7.824 -3.0089  2.2573 -0.2555
   90SAPC   C14 8525   4.644   3.907   7.591 -0.3199  0.0698  0.2733
   90SAPC  H14A 8526   4.654   3.904   7.483  0.8395  2.1102  0.2853
   90SAPC  H14B 8527   4.555   3.968   7.603 -1.0166 -0.6325 -1.0373
   90SAPC  H14C 8528   4.725   3.954   7.644  0.2124 -0.9985  0.4317
   90SAPC   C15 8529   4.515   3.698   7.550 -0.6607 -0.4513  0.2422
   90SAPC  H15A 8530   4.413   3.734   7.551 -1.0148 -0.8388 -3.9947
   90SAPC  H15B 8531   4.543   3.716   7.448 -1.3754  2.5263  0.4578
   90SAPC  H15C 8532   4.530   3.592   7.561  2.1148 -0.3425 -1.5254
   90SAPC   C11 8533   4.846   3.710   7.534  0.2269 -0.2809 -0.0931
   90SAPC  H11A 8534   4.934   3.645   7.554 -1.1575 -2.2009  0.0574
   90SAPC  H11B 8535   4.880   3.816   7.540 -0.0114 -0.2885  3.1220
   90SAPC     P 8536   4.803   3.535   7.344 -0.2948  0.2356 -0.0437
   90SAPC   O13 8537   4.773   3.441   7.453 -0.5381 -0.3042  0.1542
   90SAPC   O14 8538   4.724   3.509   7.223 -0.3378  0.0158 -0.9741
   90SAPC   O12 8539   4.788   3.682   7.403 -0.0971 -0.6941 -0.3943
   90SAPC   O11 8540   4.961   3.525   7.314  0.0878 -0.1614 -0.0202
   90SAPC    C1 8541   5.030   3.635   7.263  0.0218 -0.1939  0.5879
   90SAPC    HA 8542   4.965   3.691   7.192 -0.6391 -1.4334  0.1826
   90SAPC    HB 8543   5.071   3.704   7.339 -0.4406  0.4609  0.2597
   90SAPC    C2 8544   5.154   3.584   7.187 -0.0199  0.5129  0.1994
   90SAPC    HS 8545   5.197   3.516   7.264  0.7937  0.7359 -0.0433
   90SAPC   O21 8546   5.248   3.694   7.155 -0.1893  0.7035  0.0851
   90SAPC   C21 8547   5.379   3.654   7.133  0.2324  0.3640  0.6537
   90SAPC   O22 8548   5.421   3.538   7.148  0.6489 -0.3478  0.5253
   90SAPC   C22 8549   5.456   3.781   7.107 -0.2482  0.1989 -0.2177
   90SAPC   H2R 8550   5.398   3.861   7.055 -0.6996  0.1996  0.2828
   90SAPC   H2S 8551   5.496   3.820   7.203  1.1750 -1.4225 -0.1065
   90SAPC    C3 8552   5.108   3.497   7.066 -0.2232 -0.0066 -0.1868
   90SAPC    HX 8553   5.064   3.568   6.993 -0.3278 -1.2607 -1.3815
   90SAPC    HY 8554   5.028   3.423   7.086  0.1892 -0.2854  0.4745
   90SAPC   O31 8555   5.218   3.442   6.993  0.4381  0.4606 -0.0247
   90SAPC   C31 8556   5.238   3.319   7.029 -0.0144  0.3540  0.1034
   90SAPC   O32 8557   5.185   3.258   7.119  0.5487 -0.1931 -0.3467
   90SAPC   C32 8558   5.336   3.259   6.929  0.3397 -0.7580  0.7134
   90SAPC   H2X 8559   5.355   3.154   6.962  2.4796 -0.9426 -0.8818
   90SAPC   H2Y 8560   5.427   3.322   6.933 -0.9032  1.1907 -0.2623
   90SAPC   C23 8561   5.585   3.744   7.018 -0.6832  0.0130 -0.7957
   90SAPC   H3R 8562   5.634   3.648   7.043  0.1724  0.4247 -0.8289
   90SAPC   H3S 8563   5.660   3.822   7.046  1.9340 -2.0332 -1.7098
   90SAPC   C24 8564   5.572   3.746   6.864  0.5597 -0.0825 -0.2152
   90SAPC   H4R 8565   5.677   3.742   6.827  0.2283 -0.2356 -1.1726
   90SAPC   H4S 8566   5.544   3.847   6.828  0.1254  0.5838  1.8770
   90SAPC   C25 8567   5.481   3.644   6.798 -0.4614  0.2176 -0.3370
   90SAPC   H5R 8568   5.410   3.589   6.862 -0.0183  0.4483  0.3658
   90SAPC   C26 8569   5.476   3.620   6.665 -0.1038  0.1148 -0.4275
   90SAPC   H6R 8570   5.405   3.548   6.622  0.0310 -0.0675 -0.3451
   90SAPC   C27 8571   5.565   3.678   6.556 -0.2048  0.1847 -0.3448
   90SAPC   H7R 8572   5.568   3.788   6.574  0.5590  0.1162 -0.0162
   90SAPC   H7S 8573   5.512   3.660   6.460  1.0374  2.2421 -1.4994
   90SAPC   C28 8574   5.710   3.638   6.576  0.3860 -0.5053  0.5136
   90SAPC   H8R 8575   5.748   3.623   6.678 -0.1620 -1.7523  0.5688
   90SAPC   C29 8576   5.798   3.612   6.476  0.2205  0.0014  0.3240
   90SAPC   H9R 8577   5.902   3.577   6.489 -0.2438 -1.8413 -0.6320
   90SAPC  C210 8578   5.765   3.611   6.327 -0.3937  0.4461 -0.4407
   90SAPC  H10R 8579   5.818   3.689   6.268  2.0000 -0.6246  0.1713
   90SAPC  H10S 8580   5.662   3.635   6.294 -0.4154  0.5339 -0.3082
   90SAPC  C211 8581   5.805   3.471   6.282  0.4334  0.1383 -0.8358
   90SAPC  H11R 8582   5.757   3.391   6.340 -1.9234  0.7255 -1.8694
   90SAPC  C212 8583   5.891   3.439   6.186 -0.0196 -0.7757 -0.1988
   90SAPC  H12R 8584   5.921   3.336   6.161  0.9818 -0.1666 -1.6539
   90SAPC  C213 8585   5.977   3.538   6.109  0.9292 -0.0377 -0.4914
   90SAPC  H13R 8586   6.066   3.487   6.068  0.6593 -1.7578  0.9614
   90SAPC  H13S 8587   6.016   3.619   6.174 -2.2059  1.4731 -0.2533
   90SAPC  C214 8588   5.894   3.607   5.996 -0.9637  0.2831 -0.6778
   90SAPC  H14R 8589   5.841   3.698   6.030  0.8935  1.3482 -0.5088
   90SAPC  C215 8590   5.898   3.585   5.867  0.8017  0.8529  0.3827
   90SAPC  H15R 8591   5.829   3.642   5.803 -1.8319 -0.6613  1.7009
   90SAPC  C216 8592   5.967   3.475   5.795 -0.0737 -0.0986 -0.8175
   90SAPC  H16R 8593   5.887   3.408   5.756 -3.5532  2.9647  0.4961
   90SAPC  H16S 8594   6.039   3.424   5.862 -1.0767  2.9579  2.9523
   90SAPC  C217 8595   6.040   3.545   5.680 -0.0932  0.1425  0.2390
   90SAPC  H17R 8596   6.119   3.620   5.702  2.1737 -1.7061 -1.1174
   90SAPC  H17S 8597   5.968   3.598   5.613  0.4825  2.5281  1.4158
   90SAPC  C218 8598   6.115   3.438   5.600 -0.3111  0.5689 -0.4996
   90SAPC  H18R 8599   6.048   3.350   5.596  0.3091  0.0587  0.1293
   90SAPC  H18S 8600   6.211   3.417   5.652  0.1699  1.0389 -1.1805
   90SAPC  C219 8601   6.131   3.471   5.449 -0.0126  0.4536 -0.1963
   90SAPC  H19R 8602   6.038   3.526   5.424  0.6530  1.1665 -1.1897
   90SAPC  H19S 8603   6.137   3.377   5.391 -1.2062  1.2673 -1.7136
   90SAPC  C220 8604   6.254   3.550   5.418 -0.1635 -0.7992  0.0532
   90SAPC  H20R 8605   6.246   3.657   5.447 -1.0899 -0.9822  0.4766
   90SAPC  H20S 8606   6.270   3.554   5.308  1.1972  0.4085  0.2630
   90SAPC  H20T 8607   6.342   3.498   5.462  0.7221 -1.1056 -1.9392
   90SAPC   C33 8608   5.276   3.257   6.789  0.1159 -0.1234 -0.7487
   90SAPC   H3X 8609   5.219   3.347   6.758  0.7482  0.6421  0.2346
   90SAPC   H3Y 8610   5.209   3.168   6.789  1.5981 -1.2988  0.4836
   90SAPC   C34 8611   5.374   3.222   6.674 -0.2238 -0.2354  0.5227
   90SAPC   H4X 8612   5.414   3.119   6.680 -1.6373 -0.7432  1.9237
   90SAPC   H4Y 8613   5.465   3.284   6.656 -0.0651 -0.9156 -1.1370
   90SAPC   C35 8614   5.291   3.207   6.549  0.7146  0.0609 -0.5994
   90SAPC   H5X 8615   5.206   3.278   6.560  0.3149 -0.5849  0.6763
   90SAPC   H5Y 8616   5.252   3.103   6.551  1.1713 -0.1079  1.0403
   90SAPC   C36 8617   5.371   3.243   6.421 -0.0107  0.5888 -0.2752
   90SAPC   H6X 8618   5.427   3.339   6.426 -1.7430  1.5714  2.8306
   90SAPC   H6Y 8619   5.291   3.256   6.345  0.0089  1.3743 -0.1743
   90SAPC   C37 8620   5.454   3.119   6.381 -0.2979  0.0688  0.4125
   90SAPC   H7X 8621   5.398   3.023   6.382  1.2837 -0.9086  0.6905
   90SAPC   H7Y 8622   5.529   3.104   6.462 -0.4601  0.3517  0.6152
   90SAPC   C38 8623   5.528   3.137   6.243 -0.4194 -0.1788  0.3986
   90SAPC   H8X 8624   5.580   3.041   6.218 -0.7940 -0.4103  0.4963
   90SAPC   H8Y 8625   5.611   3.210   6.249 -2.4328  2.1550  1.1003
   90SAPC   C39 8626   5.442   3.181   6.126 -0.0186 -0.1628 -0.3717
   90SAPC   H9X 8627   5.400   3.277   6.162  1.1129 -0.3196  1.4888
   90SAPC   H9Y 8628   5.354   3.115   6.112  1.2619 -1.7411 -1.3719
   90SAPC  C310 8629   5.514   3.190   5.990  0.5075 -0.3873  0.2351
   90SAPC  H10X 8630   5.510   3.101   5.925 -0.0449  0.7975 -1.4249
   90SAPC  H10Y 8631   5.623   3.210   5.998  0.5051  0.5090 -1.5648
   90SAPC  C311 8632   5.471   3.314   5.910 -0.0699  0.5789  0.3897
   90SAPC  H11X 8633   5.493   3.403   5.973  0.4094 -0.2699  1.4488
   90SAPC  H11Y 8634   5.362   3.312   5.891  0.0499  0.0327 -0.2596
   90SAPC  C312 8635   5.534   3.327   5.772 -0.2561  0.1479  0.1408
   90SAPC  H12X 8636   5.529   3.225   5.727 -0.6922  0.2254  0.0075
   90SAPC  H12Y 8637   5.642   3.336   5.793 -0.2391 -0.3481  0.2763
   90SAPC  C313 8638   5.480   3.450   5.698  0.2959  0.0666  0.6517
   90SAPC  H13X 8639   5.484   3.540   5.764  0.7394  2.6149 -2.6030
   90SAPC  H13Y 8640   5.375   3.429   5.672  0.0147  0.8567  1.1203
   90SAPC  C314 8641   5.567   3.472   5.578  0.0283 -0.1642 -0.4267
   90SAPC  H14X 8642   5.570   3.384   5.509 -1.3931 -0.2817 -0.3701
   90SAPC  H14Y 8643   5.670   3.501   5.608 -0.2634 -0.7350  1.2315
   90SAPC  C315 8644   5.496   3.584   5.494  0.1429 -0.4360 -0.2912
   90SAPC  H15X 8645   5.523   3.681   5.542  3.7967  0.2028 -3.2008
   90SAPC  H15Y 8646   5.386   3.579   5.485  0.1616  0.4726 -1.2220
   90SAPC  C316 8647   5.570   3.607   5.362  0.8926  0.3171  0.1196
   90SAPC  H16X 8648   5.530   3.699   5.314 -0.7093 -1.4582 -2.1313
   90SAPC  H16Y 8649   5.530   3.531   5.292  0.8268 -1.5051  2.0417
   90SAPC  C317 8650   5.718   3.612   5.382 -0.3368 -0.7468  0.3863
   90SAPC  H17X 8651   5.764   3.519   5.421  0.7530  0.5049  2.2552
   90SAPC  H17Y 8652   5.739   3.700   5.448 -1.3764  1.0763 -1.5778
   90SAPC  C318 8653   5.790   3.644   5.249 -0.3341 -0.9696  0.1998
   90SAPC  H18X 8654   5.762   3.747   5.218 -2.7099 -1.2209  1.2784
   90SAPC  H18Y 8655   5.753   3.578   5.168  1.3470  2.0160 -3.2512
   90SAPC  H18Z 8656   5.898   3.621   5.257  0.0183  0.1362 -1.0733
   91SAPC     N 8657   1.682   3.570   7.921 -0.6164  0.0080  0.3119
   91SAPC   C12 8658   1.549   3.609   7.982  0.0993 -0.6321 -0.0358
   91SAPC  H12A 8659   1.565   3.687   8.054 -1.3950 -0.1622 -0.1838
   91SAPC  H12B 8660   1.497   3.530   8.032  0.0494 -1.0282 -0.6973
   91SAPC   C13 8661   1.737   3.686   7.835  0.3392 -0.1907  0.1259
   91SAPC  H13A 8662   1.838   3.668   7.799  0.9101  0.7459  1.2131
   91SAPC  H13B 8663   1.667   3.692   7.753  0.5680 -1.3378 -0.1740
   91SAPC  H13C 8664   1.740   3.783   7.883  2.4872  1.5733 -3.1595
   91SAPC   C14 8665   1.774   3.529   8.032  0.5677  1.0242 -0.3593
   91SAPC  H14A 8666   1.785   3.611   8.101  0.1609 -0.6270  1.7974
   91SAPC  H14B 8667   1.735   3.449   8.094  0.6740  2.7641  2.1321
   91SAPC  H14C 8668   1.873   3.500   7.999  0.1924 -0.0190 -0.6233
   91SAPC   C15 8669   1.662   3.453   7.828  0.0227 -0.5130 -0.0213
   91SAPC  H15A 8670   1.759   3.435   7.783  0.3544  2.4285 -0.7481
   91SAPC  H15B 8671   1.644   3.363   7.884  0.6511 -0.9948 -0.5777
   91SAPC  H15C 8672   1.579   3.462   7.759 -1.6631 -1.4085  1.8032
   91SAPC   C11 8673   1.448   3.689   7.898  0.5024  0.4493 -0.0247
   91SAPC  H11A 8674   1.487   3.792   7.890  0.9445  0.3425  0.7162
   91SAPC  H11B 8675   1.355   3.698   7.957 -0.6478 -1.4709 -1.4172
   91SAPC     P 8676   1.405   3.707   7.635  0.1625 -0.0171  0.4976
   91SAPC   O13 8677   1.395   3.603   7.533  0.1203  0.5585  0.2240
   91SAPC   O14 8678   1.300   3.804   7.639  0.1037 -0.0355  0.1029
   91SAPC   O12 8679   1.415   3.632   7.774  0.4630  0.4827 -0.7724
   91SAPC   O11 8680   1.550   3.778   7.629 -0.3705  0.3466 -0.4697
   91SAPC    C1 8681   1.583   3.914   7.614  0.1413  0.6588  0.3734
   91SAPC    HA 8682   1.515   3.981   7.670  0.4756  0.1297  1.4323
   91SAPC    HB 8683   1.685   3.931   7.656  0.1192  1.3629  0.1590
   91SAPC    C2 8684   1.589   3.961   7.459  0.1919 -0.0327 -0.6841
   91SAPC    HS 8685   1.483   3.977   7.429 -0.8297 -3.2972  0.7317
   91SAPC   O21 8686   1.664   3.866   7.368  0.3874 -0.1512 -0.7249
   91SAPC   C21 8687   1.633   3.879   7.241  0.5794 -0.9337  0.0824
   91SAPC   O22 8688   1.547   3.956   7.197 -0.5947  0.3935  0.4207
   91SAPC   C22 8689   1.723   3.782   7.163 -0.1309 -0.0053  0.7319
   91SAPC   H2R 8690   1.815   3.765   7.223 -0.7158 -1.7252  1.2105
   91SAPC   H2S 8691   1.659   3.691   7.169 -0.8444  0.5579  2.2866
   91SAPC    C3 8692   1.651   4.102   7.449 -0.1798  0.2781  0.4923
   91SAPC    HX 8693   1.750   4.083   7.496 -0.5362 -0.5499  0.9190
   91SAPC    HY 8694   1.604   4.181   7.512  1.5255  1.8590 -0.1014
   91SAPC   O31 8695   1.677   4.153   7.315 -0.1005  0.2089 -0.4657
   91SAPC   C31 8696   1.605   4.247   7.269 -0.6270 -0.3671 -0.2054
   91SAPC   O32 8697   1.507   4.294   7.323  0.1550 -0.1734 -0.2445
   91SAPC   C32 8698   1.664   4.309   7.142  0.2112 -0.1135  0.2051
   91SAPC   H2X 8699   1.771   4.336   7.156  0.3839  0.6216 -2.1393
   91SAPC   H2Y 8700   1.618   4.410   7.134 -2.1786 -1.0355  1.3523
   91SAPC   C23 8701   1.749   3.839   7.024 -0.1279 -0.0395 -0.2570
   91SAPC   H3R 8702   1.802   3.936   7.039  1.9002 -1.1034 -0.1035
   91SAPC   H3S 8703   1.657   3.859   6.965 -2.2943 -1.4295  2.4281
   91SAPC   C24 8704   1.846   3.747   6.942  0.4460 -0.1001 -0.9047
   91SAPC   H4R 8705   1.942   3.747   6.997  0.4723  3.2375 -0.7589
   91SAPC   H4S 8706   1.886   3.794   6.849  0.2023 -0.4252 -1.1796
   91SAPC   C25 8707   1.797   3.611   6.916  0.2421 -0.1520  0.2753
   91SAPC   H5R 8708   1.733   3.573   6.997  1.3142  0.1286  1.2813
   91SAPC   C26 8709   1.793   3.549   6.793  0.0047 -0.6365 -0.5043
   91SAPC   H6R 8710   1.760   3.445   6.787 -0.8731 -0.5259  1.7605
   91SAPC   C27 8711   1.857   3.593   6.665  0.3397 -0.5620 -1.2254
   91SAPC   H7R 8712   1.867   3.703   6.671 -0.9934 -0.4767  0.1428
   91SAPC   H7S 8713   1.780   3.577   6.586 -1.7556  0.0241  0.5916
   91SAPC   C28 8714   1.996   3.549   6.633  0.5867  0.3630  0.5788
   91SAPC   H8R 8715   2.055   3.502   6.713 -0.4699 -1.3424  0.4039
   91SAPC   C29 8716   2.063   3.572   6.515 -0.2684  0.0788 -1.1690
   91SAPC   H9R 8717   2.170   3.548   6.516  0.2510  2.0308  0.9978
   91SAPC  C210 8718   2.009   3.639   6.401 -0.0557  0.8513  0.7001
   91SAPC  H10R 8719   2.058   3.737   6.383 -0.1493  0.8331  0.3225
   91SAPC  H10S 8720   1.901   3.662   6.417 -0.3836 -1.3921  2.0624
   91SAPC  C211 8721   2.013   3.564   6.267  0.3265  0.2586 -0.1775
   91SAPC  H11R 8722   1.912   3.533   6.237  1.0086 -3.6500  0.9180
   91SAPC  C212 8723   2.121   3.530   6.191 -0.0259  0.4935  0.0524
   91SAPC  H12R 8724   2.104   3.466   6.103  1.5139 -0.1132  0.1735
   91SAPC  C213 8725   2.261   3.555   6.227 -0.0688  0.1981 -0.3688
   91SAPC  H13R 8726   2.284   3.592   6.330 -1.1991  0.6363 -0.2485
   91SAPC  H13S 8727   2.286   3.638   6.157 -0.8320  0.0126 -0.8724
   91SAPC  C214 8728   2.334   3.421   6.214  0.1337 -0.0053 -1.1053
   91SAPC  H14R 8729   2.316   3.357   6.302  0.5324  0.9799 -0.2825
   91SAPC  C215 8730   2.394   3.357   6.109 -0.1698 -0.2829  0.1852
   91SAPC  H15R 8731   2.444   3.262   6.132 -0.8513 -0.1903  2.2558
   91SAPC  C216 8732   2.410   3.425   5.975 -0.4722  0.9795 -0.1585
   91SAPC  H16R 8733   2.341   3.512   5.964 -3.0739 -1.1885 -2.6371
   91SAPC  H16S 8734   2.378   3.353   5.897  0.8490 -0.2346  0.3706
   91SAPC  C217 8735   2.558   3.467   5.940  0.0984 -0.0208  0.0929
   91SAPC  H17R 8736   2.640   3.393   5.949  0.6905  0.4037 -1.4910
   91SAPC  H17S 8737   2.571   3.538   6.023 -1.1225 -0.4660  0.6881
   91SAPC  C218 8738   2.577   3.537   5.807  0.2572  0.6112  0.3793
   91SAPC  H18R 8739   2.679   3.579   5.810 -0.4727  2.5117  0.0617
   91SAPC  H18S 8740   2.513   3.628   5.804  1.3534  1.3814 -0.4592
   91SAPC  C219 8741   2.557   3.459   5.671 -0.2987 -0.6148 -0.3656
   91SAPC  H19R 8742   2.458   3.407   5.671 -0.4869 -0.2927  1.0535
   91SAPC  H19S 8743   2.645   3.391   5.674  0.8186  0.7562 -1.0738
   91SAPC  C220 8744   2.577   3.553   5.554  0.6357  0.0346  0.3784
   91SAPC  H20R 8745   2.683   3.558   5.522  1.0088 -0.4533  1.4864
   91SAPC  H20S 8746   2.539   3.655   5.576  0.0593 -0.2100  0.5442
   91SAPC  H20T 8747   2.527   3.515   5.462 -0.3286  1.3320  0.3400
   91SAPC   C33 8748   1.641   4.236   7.011  0.9397  0.2621 -0.8117
   91SAPC   H3X 8749   1.532   4.223   6.992  0.5550  2.1091 -0.0894
   91SAPC   H3Y 8750   1.692   4.138   6.994 -2.1246 -1.2660 -2.0474
   91SAPC   C34 8751   1.690   4.328   6.902 -0.6975  0.1044 -0.1948
   91SAPC   H4X 8752   1.795   4.348   6.933 -1.1299  0.2789  1.2118
   91SAPC   H4Y 8753   1.631   4.422   6.907 -1.7522 -0.5200 -0.5566
   91SAPC   C35 8754   1.687   4.296   6.751 -0.3335  0.2366 -0.0210
   91SAPC   H5X 8755   1.584   4.289   6.709 -0.0860 -2.0828 -0.3982
   91SAPC   H5Y 8756   1.734   4.197   6.736 -2.1587 -0.5558 -0.8136
   91SAPC   C36 8757   1.758   4.397   6.669  0.0226 -0.1994  0.1799
   91SAPC   H6X 8758   1.862   4.396   6.709  0.2691 -0.1297 -0.4394
   91SAPC   H6Y 8759   1.725   4.500   6.694  0.4128 -0.1414  0.4698
   91SAPC   C37 8760   1.756   4.371   6.517 -0.1428  0.4518  0.0035
   91SAPC   H7X 8761   1.677   4.426   6.462 -0.1446  0.4495  0.0035
   91SAPC   H7Y 8762   1.729   4.263   6.511 -0.9160  0.6146  0.5355
   91SAPC   C38 8763   1.888   4.386   6.442 -0.3801 -0.3527 -1.2359
   91SAPC   H8X 8764   1.980   4.350   6.492  0.3181  1.6077 -1.0299
   91SAPC   H8Y 8765   1.909   4.494   6.456  0.2801 -0.6316  0.0724
   91SAPC   C39 8766   1.874   4.353   6.294  0.1651 -0.3053  0.1407
   91SAPC   H9X 8767   1.783   4.396   6.247  0.8520  0.2914 -0.6875
   91SAPC   H9Y 8768   1.855   4.244   6.294 -1.2174 -0.0806  0.6674
   91SAPC  C310 8769   1.993   4.377   6.205 -0.3194  1.1650  0.1561
   91SAPC  H10X 8770   2.079   4.346   6.269  0.4776  1.4975 -0.7380
   91SAPC  H10Y 8771   1.998   4.483   6.173  2.2123  1.2464  0.6196
   91SAPC  C311 8772   1.992   4.289   6.073  0.1097 -0.2370 -0.7064
   91SAPC  H11X 8773   1.889   4.285   6.033 -0.1624 -0.8654  0.0292
   91SAPC  H11Y 8774   2.023   4.187   6.107  0.8880  0.0674 -0.4750
   91SAPC  C312 8775   2.100   4.343   5.986 -0.6891  0.7909 -0.1228
   91SAPC  H12X 8776   2.204   4.359   6.024 -0.5194  1.9253 -1.0213
   91SAPC  H12Y 8777   2.073   4.447   5.960  1.1923  1.2572 -0.3777
   91SAPC  C313 8778   2.128   4.257   5.853  0.5129 -0.4696 -0.1892
   91SAPC  H13X 8779   2.181   4.327   5.786  0.1293  1.5516  1.5097
   91SAPC  H13Y 8780   2.033   4.237   5.799  1.4478  0.7413 -2.4089
   91SAPC  C314 8781   2.214   4.132   5.857 -0.3174 -0.0594 -0.1748
   91SAPC  H14X 8782   2.175   4.054   5.925  2.2358 -0.3845  1.0261
   91SAPC  H14Y 8783   2.313   4.159   5.900  0.6189 -2.4487 -0.7011
   91SAPC  C315 8784   2.245   4.080   5.719  0.4193 -0.3106  0.1510
   91SAPC  H15X 8785   2.289   4.157   5.653  0.0425 -1.1704 -1.1257
   91SAPC  H15Y 8786   2.149   4.052   5.671  0.3138 -1.0107  0.7477
   91SAPC  C316 8787   2.331   3.953   5.719 -0.4039 -0.7637  0.1895
   91SAPC  H16X 8788   2.429   3.980   5.765  0.6647 -3.2379 -0.4534
   91SAPC  H16Y 8789   2.353   3.932   5.612  0.7447  1.8782 -0.1746
   91SAPC  C317 8790   2.284   3.835   5.794  0.2662  0.1081  0.3832
   91SAPC  H17X 8791   2.304   3.851   5.902 -1.8195  2.7050  0.4771
   91SAPC  H17Y 8792   2.355   3.754   5.766 -1.4959 -0.8999 -1.4541
   91SAPC  C318 8793   2.143   3.789   5.775  0.1465  0.0762 -0.4025
   91SAPC  H18X 8794   2.115   3.692   5.820 -1.1225  0.6180  0.0339
   91SAPC  H18Y 8795   2.129   3.777   5.665  1.8907  1.7093 -0.8584
   91SAPC  H18Z 8796   2.072   3.869   5.803  1.9252  1.0937  1.4347
   92SAPC     N 8797   1.772   1.084   8.012  0.4588  0.1153 -0.1210
   92SAPC   C12 8798   1.750   0.952   7.952 -0.6641  0.5222 -0.7374
   92SAPC  H12A 8799   1.682   0.892   8.011 -0.2150 -0.5640 -1.2806
   92SAPC  H12B 8800   1.838   0.893   7.934 -0.4736  0.5488  0.0748
   92SAPC   C13 8801   1.833   1.069   8.142 -0.2708  0.5800 -0.2499
   92SAPC  H13A 8802   1.831   1.154   8.208 -0.0218 -1.5743  2.7911
   92SAPC  H13B 8803   1.787   0.985   8.193  0.9304  0.0897  0.0740
   92SAPC  H13C 8804   1.938   1.053   8.122  0.3964  2.4241  1.4781
   92SAPC   C14 8805   1.861   1.174   7.925  0.3214  0.4913 -0.0775
   92SAPC  H14A 8806   1.828   1.194   7.824  0.2521 -0.1825 -0.1954
   92SAPC  H14B 8807   1.858   1.272   7.970 -1.9809  1.0169 -1.2093
   92SAPC  H14C 8808   1.961   1.133   7.921 -0.7011 -2.2862  0.2273
   92SAPC   C15 8809   1.639   1.150   8.026 -0.4143  0.0518  0.6818
   92SAPC  H15A 8810   1.570   1.088   8.081  0.0452  0.4567  1.7499
   92SAPC  H15B 8811   1.643   1.245   8.078  0.4964 -0.5517  1.7672
   92SAPC  H15C 8812   1.599   1.156   7.926 -0.3560 -1.6773  0.5253
   92SAPC   C11 8813   1.678   0.941   7.816 -0.5109 -0.3672 -0.3273
   92SAPC  H11A 8814   1.748   0.978   7.738  0.3630  1.1245  1.1015
   92SAPC  H11B 8815   1.585   0.999   7.799 -1.0813 -1.2836 -0.4212
   92SAPC     P 8816   1.720   0.669   7.812 -0.4209 -0.1299  0.0009
   92SAPC   O13 8817   1.828   0.689   7.908 -0.5705  0.2142 -0.2121
   92SAPC   O14 8818   1.623   0.567   7.857  0.4489  0.4578  0.4178
   92SAPC   O12 8819   1.633   0.804   7.788 -0.3092  0.4366 -0.6044
   92SAPC   O11 8820   1.773   0.629   7.670 -0.5395  0.1096  0.4434
   92SAPC    C1 8821   1.672   0.602   7.568  0.8246 -0.6687 -0.0296
   92SAPC    HA 8822   1.574   0.561   7.601 -1.6122  0.9795 -4.3842
   92SAPC    HB 8823   1.638   0.695   7.518  0.8425 -0.1768  0.8670
   92SAPC    C2 8824   1.724   0.504   7.465  0.4436  0.4342 -0.1072
   92SAPC    HS 8825   1.757   0.417   7.524  0.2521  0.2709 -0.2394
   92SAPC   O21 8826   1.825   0.572   7.390  0.1636 -0.3017  0.0509
   92SAPC   C21 8827   1.904   0.497   7.311  0.0097 -0.1530  0.1175
   92SAPC   O22 8828   1.937   0.385   7.326  0.3671  0.2194 -0.4142
   92SAPC   C22 8829   1.973   0.579   7.205 -0.0963 -0.2816  0.3399
   92SAPC   H2R 8830   1.939   0.685   7.211  0.7586 -0.0909  3.1613
   92SAPC   H2S 8831   2.080   0.582   7.235  0.2037  0.3187 -0.7092
   92SAPC    C3 8832   1.604   0.444   7.380  0.0771 -0.5320 -0.4698
   92SAPC    HX 8833   1.553   0.540   7.356 -0.5717 -0.3725  1.3853
   92SAPC    HY 8834   1.530   0.389   7.442  0.8972  0.7039  1.6829
   92SAPC   O31 8835   1.647   0.371   7.261  0.2002 -0.6697  0.0322
   92SAPC   C31 8836   1.673   0.245   7.289  0.7060 -0.4343 -0.2447
   92SAPC   O32 8837   1.674   0.193   7.400 -0.7791 -0.7681  0.2667
   92SAPC   C32 8838   1.691   0.162   7.159 -0.5699 -0.1899  0.6538
   92SAPC   H2X 8839   1.595   0.110   7.139 -0.1521 -0.8101  0.2164
   92SAPC   H2Y 8840   1.759   0.076   7.182 -0.1922 -0.9257 -2.6678
   92SAPC   C23 8841   1.961   0.512   7.062  0.3699  0.0535  0.2827
   92SAPC   H3R 8842   1.932   0.405   7.053 -2.0727  0.6862 -0.1488
   92SAPC   H3S 8843   2.064   0.519   7.022  0.3321 -0.2775  0.1188
   92SAPC   C24 8844   1.852   0.579   6.973 -0.4194 -0.3416 -0.4972
   92SAPC   H4R 8845   1.761   0.587   7.036  0.6846  0.4392  1.0516
   92SAPC   H4S 8846   1.819   0.526   6.881 -1.9250  1.8803 -1.3204
   92SAPC   C25 8847   1.901   0.711   6.921 -0.4672 -0.3768 -0.3446
   92SAPC   H5R 8848   1.959   0.769   6.994  1.4868 -2.4614 -0.1613
   92SAPC   C26 8849   1.902   0.754   6.791  0.0518  0.2665 -0.6843
   92SAPC   H6R 8850   1.937   0.857   6.772 -2.0584  1.3199  0.7158
   92SAPC   C27 8851   1.849   0.690   6.661 -0.6437 -0.1245  0.5204
   92SAPC   H7R 8852   1.755   0.737   6.627 -0.6044 -1.5895 -1.8373
   92SAPC   H7S 8853   1.826   0.584   6.684  0.9876 -1.2446 -2.4718
   92SAPC   C28 8854   1.955   0.684   6.550  0.3232 -0.0472  0.1318
   92SAPC   H8R 8855   2.059   0.659   6.574  0.3889 -0.6846 -0.7768
   92SAPC   C29 8856   1.927   0.703   6.418 -0.0074 -0.3890  0.0177
   92SAPC   H9R 8857   2.013   0.717   6.352  0.5032  0.3142  0.8141
   92SAPC  C210 8858   1.799   0.735   6.344 -0.3735 -0.2722 -0.5605
   92SAPC  H10R 8859   1.706   0.745   6.404 -0.4869  0.9035 -0.9013
   92SAPC  H10S 8860   1.780   0.656   6.267  0.6602 -0.1842 -0.9220
   92SAPC  C211 8861   1.809   0.849   6.249 -0.4467  0.1440 -0.1835
   92SAPC  H11R 8862   1.765   0.945   6.279 -2.1231 -0.0121 -1.9318
   92SAPC  C212 8863   1.852   0.843   6.123  0.0180 -0.2498  0.6065
   92SAPC  H12R 8864   1.850   0.933   6.061 -2.3868 -0.4798  0.2329
   92SAPC  C213 8865   1.928   0.727   6.058  0.9150 -1.1181  0.8875
   92SAPC  H13R 8866   1.960   0.659   6.139  2.4025 -0.4830  0.8583
   92SAPC  H13S 8867   2.024   0.767   6.020 -0.3522  2.2911  0.8387
   92SAPC  C214 8868   1.845   0.669   5.950  0.4088  0.0798  0.0943
   92SAPC  H14R 8869   1.743   0.637   5.978  1.3790 -1.0400  2.6819
   92SAPC  C215 8870   1.880   0.659   5.816  0.4979  0.6934  0.0994
   92SAPC  H15R 8871   1.810   0.606   5.750  1.3851 -1.8665  1.0531
   92SAPC  C216 8872   2.012   0.670   5.749  0.4754 -0.5592  0.5828
   92SAPC  H16R 8873   2.094   0.697   5.820  0.4151  0.6592  0.2221
   92SAPC  H16S 8874   2.014   0.749   5.670 -1.6427  1.1326  2.1061
   92SAPC  C217 8875   2.057   0.549   5.675 -0.2929 -0.2771  0.3632
   92SAPC  H17R 8876   1.984   0.518   5.596 -0.9162  1.2160  0.3099
   92SAPC  H17S 8877   2.047   0.471   5.752 -1.7079  0.5162  1.0260
   92SAPC  C218 8878   2.200   0.561   5.625 -0.0536 -0.0257  0.4287
   92SAPC  H18R 8879   2.265   0.592   5.710  1.9239 -0.0822 -1.0007
   92SAPC  H18S 8880   2.218   0.646   5.556 -0.9200 -0.5497 -0.4703
   92SAPC  C219 8881   2.244   0.425   5.574 -0.1396 -0.8662  0.6307
   92SAPC  H19R 8882   2.178   0.394   5.490  2.9209  0.9433 -2.7571
   92SAPC  H19S 8883   2.235   0.346   5.651  1.0245 -1.6116  0.0337
   92SAPC  C220 8884   2.398   0.414   5.535  0.5359  0.1798  0.2068
   92SAPC  H20R 8885   2.453   0.509   5.518 -0.4588  0.6629 -0.4396
   92SAPC  H20S 8886   2.405   0.356   5.440 -3.5130  0.5937 -0.5104
   92SAPC  H20T 8887   2.440   0.358   5.621 -1.0139 -1.2128  0.1112
   92SAPC   C33 8888   1.724   0.226   7.027 -0.2931 -0.2215 -0.7386
   92SAPC   H3X 8889   1.834   0.238   7.020 -0.2122 -0.9828 -0.8766
   92SAPC   H3Y 8890   1.675   0.325   7.013 -1.2810 -0.7420 -1.0121
   92SAPC   C34 8891   1.686   0.143   6.908  0.1990 -0.3590  0.0197
   92SAPC   H4X 8892   1.576   0.148   6.901  0.2246 -1.0838 -1.1594
   92SAPC   H4Y 8893   1.716   0.037   6.926  0.8926 -0.0959  0.4486
   92SAPC   C35 8894   1.744   0.215   6.781 -0.8547  0.4091  0.4116
   92SAPC   H5X 8895   1.855   0.207   6.780 -0.8194  0.9039  0.3401
   92SAPC   H5Y 8896   1.725   0.324   6.790 -0.6234  0.6873 -1.8208
   92SAPC   C36 8897   1.676   0.167   6.655  0.2914 -0.0595  0.5131
   92SAPC   H6X 8898   1.569   0.200   6.654  1.5790  4.8137 -0.0664
   92SAPC   H6Y 8899   1.689   0.057   6.651  2.1674  0.1732 -1.3843
   92SAPC   C37 8900   1.747   0.224   6.530 -0.2213  0.3533 -0.4501
   92SAPC   H7X 8901   1.857   0.215   6.520 -0.3833  0.0382 -2.6625
   92SAPC   H7Y 8902   1.723   0.332   6.534  0.3320  0.5012 -0.9330
   92SAPC   C38 8903   1.677   0.178   6.396 -0.7427 -0.4500 -0.4975
   92SAPC   H8X 8904   1.571   0.211   6.393 -0.4314  0.7045  0.5770
   92SAPC   H8Y 8905   1.690   0.068   6.382  0.6399  0.0429 -3.9305
   92SAPC   C39 8906   1.744   0.241   6.269  0.3596  0.4826 -0.6987
   92SAPC   H9X 8907   1.851   0.211   6.271 -0.1173 -1.3460  0.8225
   92SAPC   H9Y 8908   1.732   0.351   6.281 -4.7611  0.1504 -0.9298
   92SAPC  C310 8909   1.691   0.200   6.135 -0.2154 -0.0842  0.4770
   92SAPC  H10X 8910   1.580   0.197   6.134 -0.2287 -2.9522  0.8444
   92SAPC  H10Y 8911   1.717   0.094   6.113  1.0438  0.5695 -1.5103
   92SAPC  C311 8912   1.741   0.291   6.017  0.2061  0.3163  0.3982
   92SAPC  H11X 8913   1.852   0.288   6.026  0.1090  1.5438  2.5320
   92SAPC  H11Y 8914   1.711   0.394   6.046 -0.6705 -0.2425  1.5500
   92SAPC  C312 8915   1.683   0.239   5.881  0.1680 -0.0958 -0.7250
   92SAPC  H12X 8916   1.572   0.228   5.882  0.2971 -1.5394 -0.4964
   92SAPC  H12Y 8917   1.723   0.138   5.862  2.5026  0.9435 -1.7439
   92SAPC  C313 8918   1.710   0.321   5.756 -0.4162 -0.0859  0.1255
   92SAPC  H13X 8919   1.821   0.327   5.751 -0.5093  1.4562 -0.4018
   92SAPC  H13Y 8920   1.661   0.420   5.761  1.6061  0.8994  1.7124
   92SAPC  C314 8921   1.657   0.250   5.627 -0.4196  0.6763  0.1602
   92SAPC  H14X 8922   1.547   0.236   5.634 -0.3990 -0.1247 -0.8382
   92SAPC  H14Y 8923   1.712   0.155   5.612 -2.1644 -0.3355 -0.1975
   92SAPC  C315 8924   1.710   0.335   5.512  0.4407 -0.8133 -0.4908
   92SAPC  H15X 8925   1.817   0.354   5.534  1.2496 -3.6679 -1.5279
   92SAPC  H15Y 8926   1.665   0.437   5.511  0.9984 -0.5507 -2.1846
   92SAPC  C316 8927   1.709   0.267   5.374 -0.4228 -0.3752  0.0131
   92SAPC  H16X 8928   1.603   0.275   5.340  0.2643 -0.1520 -2.2763
   92SAPC  H16Y 8929   1.732   0.159   5.372 -1.6408 -0.6548 -0.1716
   92SAPC  C317 8930   1.793   0.337   5.266 -0.4734  0.3606 -0.3445
   92SAPC  H17X 8931   1.796   0.282   5.169 -2.1002  1.0805 -0.8235
   92SAPC  H17Y 8932   1.895   0.336   5.311 -0.9008  3.2618  0.8857
   92SAPC  C318 8933   1.759   0.486   5.244 -0.5317 -0.5844  0.1909
   92SAPC  H18X 8934   1.833   0.515   5.165 -2.7920  0.3825 -1.6986
   92SAPC  H18Y 8935   1.778   0.548   5.335 -0.0265  0.6771 -0.7354
   92SAPC  H18Z 8936   1.661   0.501   5.194  0.5982  1.2116 -1.6773
   93SAPC     N 8937   4.176   3.421   7.705  0.3828  1.0602  0.0668
   93SAPC   C12 8938   4.175   3.418   7.549 -0.3632  0.0873 -0.6141
   93SAPC  H12A 8939   4.274   3.396   7.510 -0.6629 -2.1856 -0.2243
   93SAPC  H12B 8940   4.152   3.514   7.505 -1.1913  0.5503  0.7542
   93SAPC   C13 8941   4.051   3.482   7.750 -0.4513  0.0717  0.1892
   93SAPC  H13A 8942   4.037   3.586   7.724 -0.4222  0.7506  2.6467
   93SAPC  H13B 8943   3.964   3.430   7.714 -0.3436  0.6967 -1.0388
   93SAPC  H13C 8944   4.037   3.472   7.856  0.3362 -0.0233  0.2943
   93SAPC   C14 8945   4.194   3.283   7.764  0.3976 -0.1986 -0.6156
   93SAPC  H14A 8946   4.190   3.288   7.872  0.0717 -1.7555 -0.5371
   93SAPC  H14B 8947   4.111   3.222   7.730 -0.0533  0.7968 -1.3492
   93SAPC  H14C 8948   4.281   3.229   7.730 -0.7413 -1.1449 -2.1529
   93SAPC   C15 8949   4.286   3.502   7.752 -0.1920  0.5926 -0.1077
   93SAPC  H15A 8950   4.281   3.513   7.859 -0.0795 -0.3690  0.0065
   93SAPC  H15B 8951   4.379   3.451   7.734 -1.0296 -0.1127 -2.9333
   93SAPC  H15C 8952   4.288   3.597   7.701  0.2400  0.1717 -0.8889
   93SAPC   C11 8953   4.083   3.316   7.484  0.1680  0.4753  0.4371
   93SAPC  H11A 8954   4.075   3.340   7.376 -2.8714 -0.6836  0.3181
   93SAPC  H11B 8955   3.977   3.317   7.516 -0.4731 -2.3495 -1.2928
   93SAPC     P 8956   4.269   3.144   7.408 -0.1526 -0.2942  0.1606
   93SAPC   O13 8957   4.390   3.214   7.448  0.0235 -0.1938  0.2834
   93SAPC   O14 8958   4.274   2.998   7.415  0.3345 -0.5062 -0.7470
   93SAPC   O12 8959   4.143   3.193   7.498  0.5757 -0.5828 -0.7096
   93SAPC   O11 8960   4.228   3.186   7.260  0.4417  0.0170  0.0698
   93SAPC    C1 8961   4.115   3.121   7.201  0.0090 -0.2646  0.0501
   93SAPC    HA 8962   4.138   3.019   7.164  1.2623  1.0383 -3.0951
   93SAPC    HB 8963   4.023   3.135   7.262  0.7736  0.1397  1.1447
   93SAPC    C2 8964   4.080   3.197   7.065  0.0617 -0.3960 -0.7165
   93SAPC    HS 8965   3.978   3.173   7.029  0.5191 -3.8593 -0.0444
   93SAPC   O21 8966   4.176   3.174   6.967 -0.2886 -0.2420  0.1434
   93SAPC   C21 8967   4.162   3.051   6.910 -0.1587 -0.9856 -0.3099
   93SAPC   O22 8968   4.066   2.980   6.919  0.1457 -0.1105 -0.0500
   93SAPC   C22 8969   4.291   3.020   6.843  0.2217  0.4564 -0.2626
   93SAPC   H2R 8970   4.319   3.108   6.781 -0.7670  0.7445 -0.3236
   93SAPC   H2S 8971   4.367   2.997   6.920 -0.3773 -1.3732 -0.1664
   93SAPC    C3 8972   4.068   3.352   7.101 -0.7079  0.2830 -0.6931
   93SAPC    HX 8973   4.165   3.386   7.143 -1.3906 -2.0787  3.2768
   93SAPC    HY 8974   3.996   3.358   7.185 -0.7655  0.1445 -0.7317
   93SAPC   O31 8975   4.033   3.429   6.982  0.3878 -0.4405  0.3652
   93SAPC   C31 8976   3.907   3.454   6.966 -0.5388 -0.4466  0.3237
   93SAPC   O32 8977   3.817   3.428   7.041  0.2242  0.0811  0.1256
   93SAPC   C32 8978   3.887   3.506   6.827 -0.3000 -0.0743 -0.2779
   93SAPC   H2X 8979   3.950   3.453   6.752  0.9787  0.9150  0.0582
   93SAPC   H2Y 8980   3.924   3.611   6.818  0.6636 -0.2815  1.0161
   93SAPC   C23 8981   4.275   2.901   6.735  0.4927 -0.0565 -0.4611
   93SAPC   H3R 8982   4.197   2.926   6.660 -1.4781 -1.9812  0.8044
   93SAPC   H3S 8983   4.238   2.816   6.797 -0.1769  0.2799 -0.3912
   93SAPC   C24 8984   4.409   2.852   6.682  0.2736  0.2221 -0.6745
   93SAPC   H4R 8985   4.402   2.743   6.662 -0.9773  0.5189 -2.0240
   93SAPC   H4S 8986   4.488   2.867   6.759  0.9320 -0.5949 -1.1683
   93SAPC   C25 8987   4.453   2.948   6.574  0.1863 -0.3290  0.5760
   93SAPC   H5R 8988   4.455   3.051   6.610  0.4097 -0.1709  0.1251
   93SAPC   C26 8989   4.491   2.931   6.448 -0.0368  0.8890  0.1667
   93SAPC   H6R 8990   4.502   3.024   6.390  1.1679  1.3988  1.1401
   93SAPC   C27 8991   4.501   2.798   6.376 -0.6537 -0.0222  0.0121
   93SAPC   H7R 8992   4.477   2.710   6.439  1.3358  0.0725  0.9583
   93SAPC   H7S 8993   4.608   2.791   6.346 -0.8438  1.3027 -1.0770
   93SAPC   C28 8994   4.419   2.800   6.249 -0.3235  0.1108 -0.2165
   93SAPC   H8R 8995   4.323   2.746   6.259 -0.1103 -0.0628  1.1400
   93SAPC   C29 8996   4.444   2.868   6.130  0.8054  0.1357 -0.5709
   93SAPC   H9R 8997   4.370   2.868   6.049  1.3924 -2.6212 -1.2167
   93SAPC  C210 8998   4.562   2.954   6.100 -1.1337 -0.4232  0.1028
   93SAPC  H10R 8999   4.644   2.934   6.171 -2.3259  1.9886  2.3062
   93SAPC  H10S 9000   4.533   3.053   6.141  0.2412  0.0438  0.0059
   93SAPC  C211 9001   4.615   2.957   5.955  0.3329 -0.7070 -0.2048
   93SAPC  H11R 9002   4.532   2.933   5.886  2.1152 -1.8872 -2.0781
   93SAPC  C212 9003   4.738   2.986   5.915  0.6080 -0.4902  0.0930
   93SAPC  H12R 9004   4.758   2.982   5.807  1.2017 -0.6198  0.2041
   93SAPC  C213 9005   4.852   3.017   6.009  1.2636 -0.1271 -0.7724
   93SAPC  H13R 9006   4.815   3.023   6.114 -0.2788  0.1273 -1.3153
   93SAPC  H13S 9007   4.901   3.112   5.978  0.0108  0.7509 -0.1480
   93SAPC  C214 9008   4.946   2.900   6.004  0.1039  0.1515 -0.7562
   93SAPC  H14R 9009   4.954   2.846   5.908  2.2076 -0.5826 -0.2195
   93SAPC  C215 9010   5.037   2.868   6.102 -0.0025 -0.0198 -0.1879
   93SAPC  H15R 9011   5.100   2.783   6.072 -0.4608 -1.0170  1.5320
   93SAPC  C216 9012   5.062   2.942   6.232 -0.3055 -0.0019  0.6117
   93SAPC  H16R 9013   4.999   3.031   6.255  1.1080  1.3677 -0.6418
   93SAPC  H16S 9014   5.161   2.991   6.239  0.7733 -2.0201  0.1033
   93SAPC  C217 9015   5.059   2.842   6.350 -0.0316  0.0627  0.0702
   93SAPC  H17R 9016   5.104   2.892   6.438 -1.3424  2.7264 -0.6875
   93SAPC  H17S 9017   5.124   2.753   6.332 -0.0405  0.4288 -2.0360
   93SAPC  C218 9018   4.916   2.796   6.383 -0.6033 -0.5796 -0.1261
   93SAPC  H18R 9019   4.868   2.735   6.303  0.9136 -1.6338 -0.2786
   93SAPC  H18S 9020   4.854   2.887   6.391  0.1112 -0.2355  2.0857
   93SAPC  C219 9021   4.916   2.724   6.519  0.1370 -0.4297 -0.4823
   93SAPC  H19R 9022   4.983   2.784   6.584  1.1198  0.6136 -2.3738
   93SAPC  H19S 9023   4.974   2.629   6.515  0.3061 -0.3530  0.0280
   93SAPC  C220 9024   4.783   2.711   6.586 -0.0395  0.5843 -0.0990
   93SAPC  H20R 9025   4.737   2.807   6.619  1.0762  0.6280  1.4723
   93SAPC  H20S 9026   4.797   2.667   6.687 -0.3539  1.7126  0.4549
   93SAPC  H20T 9027   4.704   2.663   6.525 -1.3803  0.5624  1.5808
   93SAPC   C33 9028   3.739   3.501   6.790 -0.1697 -0.5913 -0.3396
   93SAPC   H3X 9029   3.685   3.555   6.872 -0.7858  0.7390 -1.5846
   93SAPC   H3Y 9030   3.694   3.400   6.783 -3.2552  0.4667  1.8000
   93SAPC   C34 9031   3.720   3.583   6.660 -0.0321  0.0226  0.4230
   93SAPC   H4X 9032   3.753   3.688   6.676 -0.6527  0.3239 -0.2464
   93SAPC   H4Y 9033   3.611   3.582   6.639  0.3611  0.6734 -1.8841
   93SAPC   C35 9034   3.778   3.515   6.529  0.4059  0.3180  0.0243
   93SAPC   H5X 9035   3.759   3.405   6.538 -1.6921  0.7273  1.0879
   93SAPC   H5Y 9036   3.886   3.525   6.554  0.4273 -1.5836  0.9396
   93SAPC   C36 9037   3.733   3.573   6.394 -0.4751  0.1838  0.3241
   93SAPC   H6X 9038   3.627   3.540   6.390 -0.9889  1.2748  2.8793
   93SAPC   H6Y 9039   3.793   3.512   6.323 -0.0164  0.2685  0.6353
   93SAPC   C37 9040   3.740   3.722   6.393  0.0233  0.2135  0.2263
   93SAPC   H7X 9041   3.815   3.746   6.471 -0.7258 -0.7450  1.2609
   93SAPC   H7Y 9042   3.643   3.767   6.422 -0.8289  0.4065 -2.5787
   93SAPC   C38 9043   3.772   3.792   6.253  0.5690  0.4254 -0.2478
   93SAPC   H8X 9044   3.873   3.754   6.226  0.6364 -1.9201  2.7812
   93SAPC   H8Y 9045   3.778   3.903   6.260 -0.3976  0.6294 -2.1727
   93SAPC   C39 9046   3.685   3.735   6.142  0.0608  0.1722  0.2547
   93SAPC   H9X 9047   3.579   3.725   6.173  0.0654  3.7222  1.8485
   93SAPC   H9Y 9048   3.726   3.633   6.129 -1.0825 -0.3456  0.5441
   93SAPC  C310 9049   3.699   3.816   6.009 -0.3323 -0.0856 -0.3836
   93SAPC  H10X 9050   3.803   3.839   5.979  0.1348 -0.2148  1.0552
   93SAPC  H10Y 9051   3.637   3.908   6.014 -0.9151 -0.5126  0.4692
   93SAPC  C311 9052   3.633   3.738   5.897  0.0967  0.1176 -0.0620
   93SAPC  H11X 9053   3.528   3.701   5.900  0.0850  0.0554 -1.0856
   93SAPC  H11Y 9054   3.697   3.650   5.872 -1.0593 -0.6353 -0.4325
   93SAPC  C312 9055   3.640   3.805   5.748 -0.2695 -0.1472 -0.4134
   93SAPC  H12X 9056   3.746   3.834   5.731 -0.5597  1.0427 -0.3212
   93SAPC  H12Y 9057   3.586   3.902   5.751 -0.1585 -0.1164  1.2807
   93SAPC  C313 9058   3.583   3.709   5.632 -0.1178  0.4414  0.6181
   93SAPC  H13X 9059   3.474   3.715   5.610 -0.0356 -1.4914 -0.5933
   93SAPC  H13Y 9060   3.607   3.601   5.646 -0.6299 -0.1281 -2.2146
   93SAPC  C314 9061   3.633   3.751   5.489  0.3152 -0.5713 -0.0391
   93SAPC  H14X 9062   3.744   3.744   5.490  0.4018  0.6945  1.2153
   93SAPC  H14Y 9063   3.600   3.856   5.484 -1.4499 -1.1088 -0.1526
   93SAPC  C315 9064   3.573   3.677   5.370  0.1562  0.1658  0.7911
   93SAPC  H15X 9065   3.466   3.647   5.378  0.2975 -0.9644 -1.0017
   93SAPC  H15Y 9066   3.623   3.579   5.358 -1.9975 -1.1673  2.0037
   93SAPC  C316 9067   3.584   3.752   5.238 -1.1424  0.0457  0.6021
   93SAPC  H16X 9068   3.684   3.798   5.228 -1.1823  0.1798  0.8243
   93SAPC  H16Y 9069   3.524   3.842   5.260 -0.4994  0.7815 -0.5886
   93SAPC  C317 9070   3.536   3.683   5.109 -0.1582 -0.1582  0.5245
   93SAPC  H17X 9071   3.540   3.760   5.029  1.6353 -0.4505  0.2819
   93SAPC  H17Y 9072   3.431   3.652   5.127 -0.4127  0.9428  1.0501
   93SAPC  C318 9073   3.629   3.565   5.058  0.2669  0.2955 -0.9326
   93SAPC  H18X 9074   3.586   3.534   4.960  2.9048 -0.7671 -1.8244
   93SAPC  H18Y 9075   3.619   3.480   5.129  2.9655  2.9041  3.0102
   93SAPC  H18Z 9076   3.735   3.593   5.044  0.0575  1.3367 -0.5680
   94SAPC     N 9077   4.926   2.779   7.546 -0.2072 -0.1389  0.3590
   94SAPC   C12 9078   4.992   2.812   7.419 -0.0738 -0.3173  0.1509
   94SAPC  H12A 9079   5.096   2.841   7.428  0.4397 -1.9847  0.0338
   94SAPC  H12B 9080   4.936   2.899   7.389  2.1661  0.9249 -0.6343
   94SAPC   C13 9081   4.968   2.652   7.604 -0.2596 -0.7062 -0.4138
   94SAPC  H13A 9082   4.909   2.629   7.692  0.1567  0.8571  0.3263
   94SAPC  H13B 9083   4.944   2.566   7.544 -1.1503 -2.9655  2.8945
   94SAPC  H13C 9084   5.071   2.659   7.638 -0.6207 -0.6720  0.7049
   94SAPC   C14 9085   4.942   2.889   7.642 -0.1122 -0.5769 -0.5593
   94SAPC  H14A 9086   5.041   2.884   7.685  0.0323  0.0142 -0.8167
   94SAPC  H14B 9087   4.914   2.986   7.605  0.5764 -0.3277 -0.4503
   94SAPC  H14C 9088   4.897   2.868   7.737  2.2263 -2.0578  0.3246
   94SAPC   C15 9089   4.782   2.755   7.525 -1.2352 -0.0071 -0.1932
   94SAPC  H15A 9090   4.755   2.676   7.456 -2.0415 -0.0579  0.1638
   94SAPC  H15B 9091   4.730   2.726   7.616 -1.9254 -1.2223 -0.9437
   94SAPC  H15C 9092   4.736   2.839   7.476  0.0674 -1.3710 -4.0644
   94SAPC   C11 9093   4.994   2.707   7.305  0.2275 -0.5633  1.0372
   94SAPC  H11A 9094   5.031   2.753   7.211 -1.6939  0.7148  0.8492
   94SAPC  H11B 9095   4.887   2.679   7.291 -0.4723  2.5770 -1.0515
   94SAPC     P 9096   5.060   2.461   7.288 -0.1001  0.1617 -0.2967
   94SAPC   O13 9097   5.188   2.400   7.240  0.5493  0.5337  0.5394
   94SAPC   O14 9098   4.999   2.403   7.410  0.4744  0.0065  0.3263
   94SAPC   O12 9099   5.082   2.612   7.336 -0.2004  0.2288  0.3275
   94SAPC   O11 9100   4.949   2.468   7.170 -0.4669  0.1985  0.4674
   94SAPC    C1 9101   4.837   2.379   7.158 -0.2859 -0.2362 -0.7729
   94SAPC    HA 9102   4.858   2.286   7.215 -0.3285 -0.2093 -0.7127
   94SAPC    HB 9103   4.747   2.429   7.200  0.1682  0.4154 -0.5590
   94SAPC    C2 9104   4.798   2.337   7.009  0.4999 -0.8208  0.3430
   94SAPC    HS 9105   4.769   2.230   7.011 -1.6003 -0.3986 -2.4736
   94SAPC   O21 9106   4.906   2.352   6.920 -0.4537 -0.4374  0.6303
   94SAPC   C21 9107   5.002   2.262   6.924  0.5711 -0.5859  0.2342
   94SAPC   O22 9108   4.999   2.161   6.993 -0.4274  0.2498 -0.3179
   94SAPC   C22 9109   5.113   2.305   6.827  0.2401  0.6572  0.0077
   94SAPC   H2R 9110   5.107   2.236   6.740 -2.9847 -0.7067  1.1533
   94SAPC   H2S 9111   5.088   2.405   6.785 -0.5940  1.8593  3.0993
   94SAPC    C3 9112   4.681   2.404   6.937  0.6181  0.4088 -0.2950
   94SAPC    HX 9113   4.704   2.510   6.914  1.5191  0.8885  2.3848
   94SAPC    HY 9114   4.596   2.415   7.009 -0.9578  3.1700 -2.3678
   94SAPC   O31 9115   4.635   2.322   6.826 -0.0198 -0.0840  0.1429
   94SAPC   C31 9116   4.554   2.393   6.743 -0.7853  0.7056 -0.4051
   94SAPC   O32 9117   4.528   2.511   6.757 -0.5929  0.2342  0.1943
   94SAPC   C32 9118   4.501   2.296   6.638 -0.2541  0.5567  0.0190
   94SAPC   H2X 9119   4.454   2.202   6.673  3.3670 -1.7259 -0.6423
   94SAPC   H2Y 9120   4.591   2.260   6.582 -1.3547 -0.7124 -0.9984
   94SAPC   C23 9121   5.249   2.324   6.898  0.4216 -0.1267 -0.5900
   94SAPC   H3R 9122   5.259   2.254   6.984  0.8772  0.6875  0.0362
   94SAPC   H3S 9123   5.254   2.426   6.942  0.6564 -1.6775  3.3709
   94SAPC   C24 9124   5.381   2.305   6.819  0.2449 -0.1114  0.0754
   94SAPC   H4R 9125   5.466   2.332   6.884  0.5179  0.3027 -0.4541
   94SAPC   H4S 9126   5.378   2.388   6.746 -1.4169 -1.0191 -0.9638
   94SAPC   C25 9127   5.413   2.163   6.775 -0.3664  0.1956  0.4937
   94SAPC   H5R 9128   5.429   2.092   6.857  0.8410 -0.9061 -0.6464
   94SAPC   C26 9129   5.440   2.129   6.646  0.0786  0.3696 -0.3106
   94SAPC   H6R 9130   5.472   2.027   6.623  2.4507  0.8406  0.6211
   94SAPC   C27 9131   5.453   2.230   6.534  0.0924 -0.3858  0.3460
   94SAPC   H7R 9132   5.544   2.204   6.475  0.0708  0.7676 -0.2085
   94SAPC   H7S 9133   5.477   2.332   6.572  1.7811  0.3883 -2.4761
   94SAPC   C28 9134   5.331   2.221   6.443 -0.2276 -0.4992  0.3985
   94SAPC   H8R 9135   5.236   2.185   6.485 -1.0250 -0.2429 -1.1316
   94SAPC   C29 9136   5.313   2.295   6.331  0.4425  0.1430  0.0870
   94SAPC   H9R 9137   5.223   2.265   6.277 -0.0137  1.1909  0.2402
   94SAPC  C210 9138   5.420   2.357   6.251  0.0964 -0.0764  0.4172
   94SAPC  H10R 9139   5.496   2.414   6.309 -1.3348  1.8738  0.4967
   94SAPC  H10S 9140   5.374   2.438   6.189 -0.5476 -1.2322 -0.6568
   94SAPC  C211 9141   5.490   2.259   6.158 -0.3699  0.4102  0.2588
   94SAPC  H11R 9142   5.540   2.175   6.209 -1.8892  0.8169  2.6053
   94SAPC  C212 9143   5.511   2.260   6.025 -0.6713 -0.7782  0.7896
   94SAPC  H12R 9144   5.542   2.174   5.964 -0.0577 -0.7206  1.0087
   94SAPC  C213 9145   5.456   2.367   5.924 -0.1371  0.3774 -0.1635
   94SAPC  H13R 9146   5.534   2.420   5.864  0.7807 -0.6556  0.0774
   94SAPC  H13S 9147   5.414   2.448   5.987  0.9350 -0.2021  1.3645
   94SAPC  C214 9148   5.349   2.308   5.835 -0.4022 -0.1277  0.1141
   94SAPC  H14R 9149   5.392   2.223   5.779 -0.2609  1.6788 -2.7010
   94SAPC  C215 9150   5.219   2.343   5.818  0.0692  0.5507 -0.1331
   94SAPC  H15R 9151   5.167   2.293   5.735  1.9118  1.1062 -1.7035
   94SAPC  C216 9152   5.154   2.453   5.892 -0.4234  0.4259 -0.2564
   94SAPC  H16R 9153   5.220   2.538   5.920  2.1930 -0.9012 -2.0316
   94SAPC  H16S 9154   5.129   2.407   5.990  0.9638 -0.8456 -0.4607
   94SAPC  C217 9155   5.018   2.491   5.832 -0.5914 -0.4437 -0.6891
   94SAPC  H17R 9156   4.962   2.558   5.901 -1.8484 -2.8992  0.8424
   94SAPC  H17S 9157   4.946   2.407   5.820 -0.4152 -0.9957  1.5493
   94SAPC  C218 9158   5.025   2.554   5.696 -0.6529  1.1386 -0.4706
   94SAPC  H18R 9159   5.058   2.472   5.628 -2.8737  0.7252 -1.1129
   94SAPC  H18S 9160   5.092   2.643   5.692 -0.5751  1.0234 -3.0450
   94SAPC  C219 9161   4.889   2.608   5.651  0.4373  0.2454 -0.2622
   94SAPC  H19R 9162   4.839   2.673   5.726  0.0738  1.2377 -1.3265
   94SAPC  H19S 9163   4.823   2.520   5.638  1.3303 -0.7105  1.3295
   94SAPC  C220 9164   4.888   2.696   5.517 -0.4056  0.4443  0.0177
   94SAPC  H20R 9165   4.780   2.713   5.497 -0.3525  0.4090 -0.2994
   94SAPC  H20S 9166   4.947   2.643   5.439  1.0842 -1.3039  2.2054
   94SAPC  H20T 9167   4.949   2.786   5.537  4.6739 -2.5736  0.0226
   94SAPC   C33 9168   4.403   2.356   6.533  0.2876 -0.1179 -0.8434
   94SAPC   H3X 9169   4.459   2.422   6.462 -1.2874  0.6183 -1.4558
   94SAPC   H3Y 9170   4.326   2.429   6.569 -0.7369 -0.1208 -2.8754
   94SAPC   C34 9171   4.335   2.247   6.459 -0.9451  0.4290 -0.6444
   94SAPC   H4X 9172   4.306   2.308   6.371  2.2251  1.0859 -1.3813
   94SAPC   H4Y 9173   4.245   2.205   6.509 -0.4780  2.7131  2.3757
   94SAPC   C35 9174   4.433   2.140   6.403 -0.7857  0.5083 -0.0126
   94SAPC   H5X 9175   4.476   2.067   6.476 -0.1173 -1.2502 -2.0639
   94SAPC   H5Y 9176   4.519   2.195   6.360  0.7790 -0.9788  1.0447
   94SAPC   C36 9177   4.372   2.071   6.285 -0.2102  0.2210  0.3189
   94SAPC   H6X 9178   4.331   2.156   6.226  0.6377 -0.8167 -1.8901
   94SAPC   H6Y 9179   4.279   2.018   6.316 -2.8784  3.6128 -1.2933
   94SAPC   C37 9180   4.462   1.992   6.195  0.0571  0.9949 -0.2714
   94SAPC   H7X 9181   4.480   1.901   6.255  1.5395  0.4661 -1.4510
   94SAPC   H7Y 9182   4.566   2.031   6.183  1.5550 -2.8973 -1.4254
   94SAPC   C38 9183   4.395   1.966   6.061  0.3606 -0.5224 -0.1737
   94SAPC   H8X 9184   4.390   2.062   6.005 -1.2522  0.4268  1.5116
   94SAPC   H8Y 9185   4.289   1.942   6.081  0.2705  1.9473  3.1226
   94SAPC   C39 9186   4.472   1.862   5.971  0.6966 -0.0064  0.6606
   94SAPC   H9X 9187   4.465   1.761   6.018 -1.4428  0.2262  0.9629
   94SAPC   H9Y 9188   4.578   1.891   5.984  0.4215  0.2054  2.7912
   94SAPC  C310 9189   4.411   1.841   5.831  0.7992 -0.7756 -0.1631
   94SAPC  H10X 9190   4.442   1.933   5.777 -0.8013 -0.1060 -0.0043
   94SAPC  H10Y 9191   4.300   1.827   5.832  0.7804 -0.8675 -1.5776
   94SAPC  C311 9192   4.465   1.728   5.753  0.2939  0.5158 -0.1754
   94SAPC  H11X 9193   4.428   1.634   5.798 -0.0042  1.4920  1.7093
   94SAPC  H11Y 9194   4.576   1.738   5.757  0.4353 -1.0554  2.6049
   94SAPC  C312 9195   4.415   1.737   5.615  0.1627  0.7266  0.0057
   94SAPC  H12X 9196   4.395   1.844   5.593 -0.6210  0.3700 -1.0668
   94SAPC  H12Y 9197   4.321   1.678   5.618 -0.0617  1.1095  2.0435
   94SAPC  C313 9198   4.508   1.660   5.519 -0.2658 -0.3181  0.3248
   94SAPC  H13X 9199   4.542   1.565   5.567  1.4242 -1.1586 -2.3304
   94SAPC  H13Y 9200   4.601   1.720   5.512 -1.4806  1.7789  1.3898
   94SAPC  C314 9201   4.436   1.639   5.389 -0.0642 -0.5065  0.7819
   94SAPC  H14X 9202   4.362   1.556   5.392 -1.7586  0.8875 -0.0789
   94SAPC  H14Y 9203   4.506   1.606   5.310 -1.0801 -1.8889  0.4233
   94SAPC  C315 9204   4.357   1.761   5.324  0.4691  0.3662 -0.2356
   94SAPC  H15X 9205   4.421   1.852   5.326 -0.0861  0.7553 -0.1499
   94SAPC  H15Y 9206   4.271   1.780   5.391  0.8465 -0.1410  0.4082
   94SAPC  C316 9207   4.313   1.729   5.176  0.4134  0.0667 -0.3096
   94SAPC  H16X 9208   4.399   1.757   5.110  1.1051 -0.7786  0.2070
   94SAPC  H16Y 9209   4.235   1.804   5.150 -0.3901 -0.9843 -1.0193
   94SAPC  C317 9210   4.273   1.584   5.143 -0.5864 -0.5693 -0.2386
   94SAPC  H17X 9211   4.181   1.570   5.203  0.1551  1.7015  1.5934
   94SAPC  H17Y 9212   4.356   1.515   5.171  0.0151 -0.2539 -1.1906
   94SAPC  C318 9213   4.240   1.562   4.996 -0.0579 -0.1995 -0.0328
   94SAPC  H18X 9214   4.168   1.636   4.955 -0.0466  0.0301  0.3599
   94SAPC  H18Y 9215   4.189   1.465   4.975 -3.1280  1.4637 -0.8172
   94SAPC  H18Z 9216   4.331   1.574   4.933  0.8106  0.8178  1.3633
   95SAPC     N 9217   0.654   3.588   3.104  0.2955  0.0674  0.3756
   95SAPC   C12 9218   0.690   3.730   3.047 -0.3915  0.0213  0.2949
   95SAPC  H12A 9219   0.613   3.780   2.991 -0.6065 -0.4769  0.1388
   95SAPC  H12B 9220   0.767   3.706   2.975 -1.7380  0.0243 -1.2030
   95SAPC   C13 9221   0.778   3.524   3.160  0.5223  0.5294  0.2819
   95SAPC  H13A 9222   0.816   3.587   3.239 -0.6812  1.1396  0.3913
   95SAPC  H13B 9223   0.780   3.423   3.200  1.2628  0.6869  0.6669
   95SAPC  H13C 9224   0.854   3.536   3.084  1.4554 -0.9579  0.9374
   95SAPC   C14 9225   0.545   3.589   3.213 -0.1103 -0.2860  0.6749
   95SAPC  H14A 9226   0.599   3.635   3.294  0.5849  1.0018 -0.4650
   95SAPC  H14B 9227   0.455   3.640   3.180 -1.4275 -2.5687  0.5480
   95SAPC  H14C 9228   0.520   3.489   3.243 -1.3019  0.1203  1.0921
   95SAPC   C15 9229   0.594   3.508   2.994  0.0759 -0.1378 -0.4517
   95SAPC  H15A 9230   0.629   3.514   2.892 -0.2399 -1.1919 -0.6411
   95SAPC  H15B 9231   0.592   3.403   3.021  0.6222  0.3501  1.6641
   95SAPC  H15C 9232   0.493   3.544   2.986  0.4958  2.0833  2.7664
   95SAPC   C11 9233   0.750   3.835   3.142 -0.4029  0.2998 -0.0805
   95SAPC  H11A 9234   0.661   3.854   3.204 -1.8403  0.5907 -2.1452
   95SAPC  H11B 9235   0.775   3.933   3.097  5.1854 -1.6515 -2.1877
   95SAPC     P 9236   0.889   3.806   3.368 -0.1129 -0.1418  0.2582
   95SAPC   O13 9237   0.815   3.700   3.432  0.1209  0.2243 -0.1619
   95SAPC   O14 9238   1.034   3.823   3.403  0.3948 -0.0901 -0.1786
   95SAPC   O12 9239   0.872   3.786   3.210  0.0657  0.1533 -0.2537
   95SAPC   O11 9240   0.823   3.946   3.387 -0.1136 -0.1646  0.4759
   95SAPC    C1 9241   0.871   4.073   3.338  0.1418  0.4537  0.2413
   95SAPC    HA 9242   0.980   4.077   3.360  0.5182 -0.7812 -1.1839
   95SAPC    HB 9243   0.858   4.078   3.228 -2.2304  0.9928  0.5107
   95SAPC    C2 9244   0.807   4.190   3.410 -0.0440 -0.0327 -0.2642
   95SAPC    HS 9245   0.859   4.272   3.355 -1.2479  0.6541 -0.4125
   95SAPC   O21 9246   0.830   4.177   3.551 -0.3777 -0.6561  0.1493
   95SAPC   C21 9247   0.956   4.194   3.595 -0.2216  0.1376 -0.0660
   95SAPC   O22 9248   1.050   4.244   3.531 -0.4985 -0.3537 -1.0085
   95SAPC   C22 9249   0.971   4.146   3.741  0.1753  0.4284  0.9876
   95SAPC   H2R 9250   0.905   4.203   3.811 -0.7776 -0.8304  1.1572
   95SAPC   H2S 9251   0.944   4.038   3.742  0.0185  0.4632  1.6946
   95SAPC    C3 9252   0.660   4.187   3.375  0.1544  0.4732  0.3408
   95SAPC    HX 9253   0.612   4.108   3.436 -3.2321  1.0535 -1.3208
   95SAPC    HY 9254   0.649   4.156   3.269 -1.3307 -0.3160  0.6893
   95SAPC   O31 9255   0.596   4.309   3.409  0.6407  0.2621  0.0317
   95SAPC   C31 9256   0.459   4.309   3.398  0.6646 -0.1319 -0.4181
   95SAPC   O32 9257   0.395   4.218   3.351  0.1618 -0.8683 -0.7458
   95SAPC   C32 9258   0.402   4.422   3.490 -0.0951 -0.4912  0.7029
   95SAPC   H2X 9259   0.305   4.466   3.460 -0.1766  0.7288  2.5671
   95SAPC   H2Y 9260   0.472   4.508   3.479 -1.8717  0.8834 -0.3866
   95SAPC   C23 9261   1.110   4.168   3.803  0.5111  0.3941  0.4128
   95SAPC   H3R 9262   1.116   4.274   3.839 -0.6125 -0.0581  2.0354
   95SAPC   H3S 9263   1.188   4.151   3.725  0.6701  2.5035  0.0481
   95SAPC   C24 9264   1.134   4.082   3.928 -0.2917  0.1769 -0.0966
   95SAPC   H4R 9265   1.241   4.089   3.959  0.0536  1.0032 -1.3621
   95SAPC   H4S 9266   1.105   3.978   3.901  0.3341  0.6071 -2.6877
   95SAPC   C25 9267   1.042   4.123   4.041 -0.2010  0.9222 -0.1172
   95SAPC   H5R 9268   0.939   4.126   4.004 -0.5515  0.6676  0.8261
   95SAPC   C26 9269   1.069   4.165   4.166 -0.1691 -0.0273 -1.2214
   95SAPC   H6R 9270   0.990   4.179   4.240  1.4566  0.9089  0.4266
   95SAPC   C27 9271   1.214   4.190   4.212  0.4191  0.3509 -0.1382
   95SAPC   H7R 9272   1.285   4.116   4.169  1.6351  1.0282  0.6600
   95SAPC   H7S 9273   1.215   4.162   4.319 -1.4522 -1.7746 -0.5831
   95SAPC   C28 9274   1.262   4.336   4.172  0.1393  0.0277  0.0686
   95SAPC   H8R 9275   1.260   4.342   4.062  1.6177  4.0959  0.1161
   95SAPC   C29 9276   1.321   4.430   4.246  0.6573 -0.0393  0.5582
   95SAPC   H9R 9277   1.345   4.530   4.206  1.8122  0.3460  2.1495
   95SAPC  C210 9278   1.341   4.410   4.392  0.1062  0.7278 -0.1300
   95SAPC  H10R 9279   1.340   4.304   4.426 -2.1943  0.4452 -0.8832
   95SAPC  H10S 9280   1.262   4.470   4.442  1.3679  1.0817  1.5447
   95SAPC  C211 9281   1.486   4.458   4.419  0.3423 -0.1189 -0.1663
   95SAPC  H11R 9282   1.540   4.502   4.334  1.3243 -0.6115  0.1743
   95SAPC  C212 9283   1.546   4.448   4.537 -0.1119  0.2832  0.6131
   95SAPC  H12R 9284   1.654   4.469   4.541 -0.2116  0.6139  2.6957
   95SAPC  C213 9285   1.489   4.389   4.664 -0.4891  0.2371  0.0897
   95SAPC  H13R 9286   1.574   4.352   4.726 -0.8812  0.4956  0.7834
   95SAPC  H13S 9287   1.418   4.307   4.639 -1.5749  1.3209 -0.4361
   95SAPC  C214 9288   1.430   4.495   4.743  0.6039 -0.8557 -0.0171
   95SAPC  H14R 9289   1.424   4.597   4.702 -0.5761 -0.0808  1.9592
   95SAPC  C215 9290   1.402   4.481   4.880  0.5207  1.4942  0.4190
   95SAPC  H15R 9291   1.341   4.555   4.934  0.6041 -0.8492  4.0549
   95SAPC  C216 9292   1.420   4.349   4.956 -0.7034 -0.8755  0.4413
   95SAPC  H16R 9293   1.439   4.259   4.893  1.2626 -1.0426  1.1873
   95SAPC  H16S 9294   1.325   4.325   5.007 -0.0300 -1.1585  1.6014
   95SAPC  C217 9295   1.526   4.357   5.072  0.6697  0.3174 -0.0171
   95SAPC  H17R 9296   1.500   4.444   5.137  0.3251  0.1730  0.0426
   95SAPC  H17S 9297   1.627   4.379   5.031  1.9787 -1.2549  2.1496
   95SAPC  C218 9298   1.536   4.228   5.153  0.5338 -0.0691  0.2101
   95SAPC  H18R 9299   1.580   4.151   5.085  0.2636 -1.0083  1.0769
   95SAPC  H18S 9300   1.433   4.191   5.175  1.1274 -2.2696 -0.4467
   95SAPC  C219 9301   1.628   4.233   5.281 -0.0992 -0.6648  0.4470
   95SAPC  H19R 9302   1.574   4.291   5.359 -0.2799 -1.5666  0.9966
   95SAPC  H19S 9303   1.714   4.301   5.262 -1.8244  1.7542  0.8005
   95SAPC  C220 9304   1.667   4.100   5.340  0.6287 -0.1707  1.2737
   95SAPC  H20R 9305   1.713   4.121   5.439  2.2991 -0.7023  0.6563
   95SAPC  H20S 9306   1.722   4.036   5.267 -1.7352 -1.5670  0.6145
   95SAPC  H20T 9307   1.576   4.043   5.367  1.5006 -1.8644  0.7626
   95SAPC   C33 9308   0.399   4.390   3.641  0.6142  0.7433 -0.2904
   95SAPC   H3X 9309   0.502   4.358   3.669 -0.4902 -1.4644  1.5293
   95SAPC   H3Y 9310   0.331   4.305   3.660  1.4058 -0.3478 -2.1482
   95SAPC   C34 9311   0.367   4.510   3.735  0.0277  0.4367 -0.0855
   95SAPC   H4X 9312   0.258   4.521   3.754  0.0328  1.8434 -0.7602
   95SAPC   H4Y 9313   0.390   4.609   3.692 -1.0297  0.6637 -0.1518
   95SAPC   C35 9314   0.440   4.519   3.872  0.5334 -0.2573  0.2734
   95SAPC   H5X 9315   0.408   4.609   3.928  0.8737 -0.4131  0.7283
   95SAPC   H5Y 9316   0.548   4.534   3.851  0.5497  0.8527  1.0916
   95SAPC   C36 9317   0.415   4.398   3.963  0.6821  0.3606  0.0079
   95SAPC   H6X 9318   0.477   4.315   3.922  2.0124  1.1050  0.4327
   95SAPC   H6Y 9319   0.306   4.381   3.955  0.3637  1.0485  2.2329
   95SAPC   C37 9320   0.451   4.416   4.109 -0.3146  0.8008  0.3871
   95SAPC   H7X 9321   0.408   4.516   4.127 -0.1429  0.7191  1.3431
   95SAPC   H7Y 9322   0.561   4.407   4.121  0.3180  0.0372 -4.1197
   95SAPC   C38 9323   0.384   4.318   4.198  0.2244 -0.4194  0.8470
   95SAPC   H8X 9324   0.411   4.222   4.149 -3.9313 -1.1143 -0.5703
   95SAPC   H8Y 9325   0.273   4.321   4.204 -0.0440  0.2967 -2.3065
   95SAPC   C39 9326   0.436   4.323   4.338  0.3323  0.3244 -0.6114
   95SAPC   H9X 9327   0.547   4.313   4.337  0.2160 -1.6930  0.4163
   95SAPC   H9Y 9328   0.399   4.231   4.389  2.1560  1.0788  2.3414
   95SAPC  C310 9329   0.379   4.446   4.405 -0.4457  0.2032 -0.3725
   95SAPC  H10X 9330   0.272   4.438   4.434 -0.1202 -1.6247  0.4452
   95SAPC  H10Y 9331   0.382   4.530   4.332  0.5906 -1.3122 -2.1633
   95SAPC  C311 9332   0.456   4.473   4.533 -0.2322 -0.5987 -0.5310
   95SAPC  H11X 9333   0.424   4.575   4.563 -0.3991 -0.6014 -0.6984
   95SAPC  H11Y 9334   0.567   4.469   4.527 -0.1881 -1.3425  0.6088
   95SAPC  C312 9335   0.414   4.368   4.639 -0.5648  0.6276 -0.3030
   95SAPC  H12X 9336   0.465   4.269   4.632 -1.7602 -0.1371  1.1535
   95SAPC  H12Y 9337   0.305   4.346   4.628 -0.8719 -1.4400  4.2553
   95SAPC  C313 9338   0.440   4.409   4.785  0.0065 -0.0660 -0.3607
   95SAPC  H13X 9339   0.369   4.487   4.822  0.8536  0.3831  0.3312
   95SAPC  H13Y 9340   0.548   4.429   4.799  0.1528 -1.1455  0.1658
   95SAPC  C314 9341   0.396   4.294   4.878  0.0206  0.1604  0.3314
   95SAPC  H14X 9342   0.442   4.198   4.846  0.0821 -0.2687  1.6412
   95SAPC  H14Y 9343   0.286   4.279   4.889 -0.0734  0.2370 -0.4445
   95SAPC  C315 9344   0.438   4.315   5.029 -0.5574 -0.7821  0.1178
   95SAPC  H15X 9345   0.354   4.369   5.079 -0.7315 -3.6297  3.2952
   95SAPC  H15Y 9346   0.525   4.384   5.029  0.6401 -2.2408  0.2739
   95SAPC  C316 9347   0.477   4.185   5.096  0.1568  0.8543  0.0222
   95SAPC  H16X 9348   0.562   4.136   5.044 -0.9707  0.0857 -1.1691
   95SAPC  H16Y 9349   0.388   4.119   5.088  0.5707  0.1096  1.3828
   95SAPC  C317 9350   0.514   4.189   5.243  0.3870  0.0832 -0.5356
   95SAPC  H17X 9351   0.544   4.091   5.286  0.3249 -0.8457 -2.4947
   95SAPC  H17Y 9352   0.435   4.233   5.307 -0.0253 -0.8657 -0.3726
   95SAPC  C318 9353   0.639   4.277   5.263  0.1169  0.4160  0.8513
   95SAPC  H18X 9354   0.727   4.259   5.198 -0.9313  0.0040 -0.4886
   95SAPC  H18Y 9355   0.683   4.272   5.365  0.8126  0.1415  0.5446
   95SAPC  H18Z 9356   0.601   4.380   5.246 -2.0580 -0.3994  0.4468
   96SAPC     N 9357   6.247   5.278   2.847  0.1609  0.6857  0.2588
   96SAPC   C12 9358   6.226   5.201   2.980 -0.1985  0.0755  0.4802
   96SAPC  H12A 9359   6.152   5.123   2.969  1.1765 -1.0584 -1.3638
   96SAPC  H12B 9360   6.169   5.266   3.045 -1.2742  0.1361 -0.4844
   96SAPC   C13 9361   6.119   5.332   2.806  0.4880 -1.1196 -0.2229
   96SAPC  H13A 9362   6.062   5.397   2.871 -1.2752 -2.0526 -0.7578
   96SAPC  H13B 9363   6.134   5.385   2.713 -2.2840 -1.7333 -1.1401
   96SAPC  H13C 9364   6.048   5.251   2.795 -2.3603  1.1128  0.5188
   96SAPC   C14 9365   6.354   5.378   2.844 -0.3967 -0.6277  0.1892
   96SAPC  H14A 9366   6.372   5.406   2.742 -3.3615 -1.1547 -0.5561
   96SAPC  H14B 9367   6.320   5.469   2.890 -0.2275 -1.4508  2.0319
   96SAPC  H14C 9368   6.446   5.352   2.894  0.5211  0.3822 -0.9074
   96SAPC   C15 9369   6.281   5.171   2.743 -0.1820  0.1455  0.2113
   96SAPC  H15A 9370   6.297   5.222   2.649  4.8629  1.0687  1.2711
   96SAPC  H15B 9371   6.378   5.128   2.763 -0.3590 -0.5218 -0.3238
   96SAPC  H15C 9372   6.208   5.093   2.758 -2.7117  2.5887  1.6353
   96SAPC   C11 9373   6.344   5.135   3.054  0.5695  0.1650 -0.0193
   96SAPC  H11A 9374   6.297   5.114   3.152 -0.4120  0.7590 -0.3463
   96SAPC  H11B 9375   6.427   5.207   3.073  1.0945 -1.1546  3.2539
   96SAPC     P 9376   6.527   4.950   3.011  0.2352  0.2714 -0.0888
   96SAPC   O13 9377   6.526   4.807   2.954  0.5230  0.0328 -0.3317
   96SAPC   O14 9378   6.629   5.045   2.970 -0.6528  0.0156 -0.3078
   96SAPC   O12 9379   6.389   5.021   2.976  0.2069  0.5815  0.0705
   96SAPC   O11 9380   6.534   4.932   3.162  0.8476 -0.5579 -0.3664
   96SAPC    C1 9381   6.420   4.882   3.240  0.4296  0.5807  0.4421
   96SAPC    HA 9382   6.372   4.966   3.294  0.4547  0.1586  1.1373
   96SAPC    HB 9383   6.351   4.822   3.177  0.7615  0.7568 -0.1020
   96SAPC    C2 9384   6.455   4.791   3.364 -0.2683 -0.3529 -0.0435
   96SAPC    HS 9385   6.367   4.789   3.432  0.6125 -1.2492  1.1244
   96SAPC   O21 9386   6.560   4.858   3.444  0.6359  0.2040 -0.4224
   96SAPC   C21 9387   6.530   4.973   3.508 -0.2927 -0.7724 -0.0606
   96SAPC   O22 9388   6.419   5.025   3.510  0.3295  0.6794 -0.6501
   96SAPC   C22 9389   6.657   5.010   3.594 -0.3773 -0.7243  0.1760
   96SAPC   H2R 9390   6.728   4.925   3.591 -1.2447 -1.6487  2.7424
   96SAPC   H2S 9391   6.708   5.094   3.542  0.1839 -1.5211 -0.5811
   96SAPC    C3 9392   6.498   4.649   3.326  0.4961 -0.4159 -0.0270
   96SAPC    HX 9393   6.587   4.666   3.263 -1.5438 -0.2717 -3.1021
   96SAPC    HY 9394   6.424   4.599   3.260  2.9311 -0.8125 -2.6146
   96SAPC   O31 9395   6.519   4.577   3.449 -0.1753  0.4471 -0.1826
   96SAPC   C31 9396   6.415   4.529   3.512 -0.9256  1.0495  0.5739
   96SAPC   O32 9397   6.302   4.522   3.473 -0.3193  0.4123 -0.8536
   96SAPC   C32 9398   6.464   4.452   3.635 -0.5555 -0.2352  0.2527
   96SAPC   H2X 9399   6.575   4.447   3.629 -0.3878  1.2884  1.5400
   96SAPC   H2Y 9400   6.433   4.346   3.621 -0.5550 -0.1641 -0.3289
   96SAPC   C23 9401   6.638   5.032   3.747  0.3431 -0.0912 -0.0029
   96SAPC   H3R 9402   6.558   5.108   3.763  1.5320  0.9134  1.4426
   96SAPC   H3S 9403   6.730   5.073   3.793 -1.0541  1.1117  1.8850
   96SAPC   C24 9404   6.597   4.906   3.821  0.7102  0.3963 -0.3657
   96SAPC   H4R 9405   6.515   4.860   3.762  0.4972  1.2318 -0.7240
   96SAPC   H4S 9406   6.543   4.927   3.916 -0.1237 -1.7563 -0.2950
   96SAPC   C25 9407   6.714   4.808   3.839  0.5124  0.2114 -0.3735
   96SAPC   H5R 9408   6.763   4.766   3.751  0.5104 -0.5054 -0.0361
   96SAPC   C26 9409   6.758   4.765   3.960  0.5777  0.3151  0.8412
   96SAPC   H6R 9410   6.850   4.705   3.958  0.7585  0.5799  1.1137
   96SAPC   C27 9411   6.687   4.788   4.087  0.1680  0.5460 -0.8807
   96SAPC   H7R 9412   6.577   4.795   4.078 -0.1683 -1.6290  0.7034
   96SAPC   H7S 9413   6.718   4.888   4.126 -1.6611  0.3142  1.3941
   96SAPC   C28 9414   6.729   4.680   4.189 -0.0962 -0.3826 -0.0888
   96SAPC   H8R 9415   6.820   4.626   4.162 -0.5094 -0.9480 -0.3676
   96SAPC   C29 9416   6.661   4.642   4.301  0.2308 -1.1920 -0.2253
   96SAPC   H9R 9417   6.703   4.562   4.364  0.4265 -2.8680 -2.3610
   96SAPC  C210 9418   6.536   4.715   4.355  0.4936 -0.4338 -0.4593
   96SAPC  H10R 9419   6.455   4.645   4.386 -0.7061  1.2114  0.2299
   96SAPC  H10S 9420   6.494   4.768   4.267  1.2728 -2.2421 -1.9961
   96SAPC  C211 9421   6.548   4.807   4.474 -0.1250  0.0681 -1.0608
   96SAPC  H11R 9422   6.562   4.913   4.447  0.5364  0.1252 -0.5153
   96SAPC  C212 9423   6.545   4.758   4.606 -0.0511  0.0318 -0.0417
   96SAPC  H12R 9424   6.536   4.832   4.687 -2.5330  0.6811 -0.8117
   96SAPC  C213 9425   6.546   4.614   4.659 -0.1880  0.3138  0.4341
   96SAPC  H13R 9426   6.539   4.544   4.573 -1.2578  1.7168 -0.6709
   96SAPC  H13S 9427   6.459   4.588   4.723 -2.3667  1.3063 -1.9563
   96SAPC  C214 9428   6.674   4.589   4.743  0.5743 -0.9045  0.1589
   96SAPC  H14R 9429   6.757   4.545   4.685  1.8118  2.7255 -1.1219
   96SAPC  C215 9430   6.696   4.612   4.873  0.8011  0.0471 -0.3443
   96SAPC  H15R 9431   6.799   4.593   4.906  1.1171  0.4179 -1.0797
   96SAPC  C216 9432   6.597   4.677   4.964 -0.1960 -0.0904  0.1291
   96SAPC  H16R 9433   6.593   4.614   5.055  0.2941  2.1621  1.7985
   96SAPC  H16S 9434   6.495   4.667   4.920 -0.5642  2.4628  0.2687
   96SAPC  C217 9435   6.596   4.819   5.002 -0.1593  0.1547  0.0516
   96SAPC  H17R 9436   6.529   4.839   5.087 -0.0794 -1.4903  0.5282
   96SAPC  H17S 9437   6.544   4.875   4.922 -3.1946 -0.0896  1.7260
   96SAPC  C218 9438   6.736   4.870   5.031 -0.6599 -0.5373  0.2093
   96SAPC  H18R 9439   6.805   4.850   4.946 -1.0363  0.2643 -0.3039
   96SAPC  H18S 9440   6.774   4.834   5.129 -0.3739 -2.5179 -0.5962
   96SAPC  C219 9441   6.737   5.020   5.034  0.0354 -0.5930  0.1599
   96SAPC  H19R 9442   6.807   5.062   5.109  0.2399  0.4441 -0.5979
   96SAPC  H19S 9443   6.641   5.062   5.072 -2.6043 -1.8861 -4.3101
   96SAPC  C220 9444   6.768   5.090   4.905 -0.0460 -0.5071  0.4057
   96SAPC  H20R 9445   6.841   5.034   4.843 -1.6035 -1.5222 -0.5904
   96SAPC  H20S 9446   6.822   5.183   4.932 -1.0882  0.0407  0.6587
   96SAPC  H20T 9447   6.681   5.127   4.846  0.4890  1.8246  0.9516
   96SAPC   C33 9448   6.412   4.506   3.775 -0.4721  0.0984  0.2906
   96SAPC   H3X 9449   6.301   4.507   3.764 -0.5062 -0.4880  0.5281
   96SAPC   H3Y 9450   6.441   4.612   3.788  1.2107 -0.6269  3.2533
   96SAPC   C34 9451   6.444   4.420   3.893 -0.0872  0.7650  0.0203
   96SAPC   H4X 9452   6.550   4.422   3.928  0.0970  0.1295 -0.4824
   96SAPC   H4Y 9453   6.413   4.316   3.868  1.6801 -0.3862  2.1978
   96SAPC   C35 9454   6.357   4.451   4.012  1.1265 -0.4400  0.3060
   96SAPC   H5X 9455   6.255   4.422   3.979  1.2826 -1.7186  0.8937
   96SAPC   H5Y 9456   6.348   4.561   4.029  0.5460 -0.4101 -0.1467
   96SAPC   C36 9457   6.393   4.378   4.133 -0.0962  0.3516 -0.2094
   96SAPC   H6X 9458   6.496   4.408   4.162 -0.4125 -0.1102  1.5354
   96SAPC   H6Y 9459   6.379   4.269   4.118  1.2465  0.0436  0.5829
   96SAPC   C37 9460   6.296   4.410   4.243  0.1493  0.5462 -0.0416
   96SAPC   H7X 9461   6.188   4.403   4.217  0.2609  2.9307 -1.5492
   96SAPC   H7Y 9462   6.316   4.515   4.273  0.2784  0.1041  1.4776
   96SAPC   C38 9463   6.315   4.320   4.368  0.6036  0.4282  0.2094
   96SAPC   H8X 9464   6.422   4.331   4.397  0.8143 -1.8260  0.4757
   96SAPC   H8Y 9465   6.311   4.213   4.339  0.5324  0.1077  1.3524
   96SAPC   C39 9466   6.224   4.344   4.495 -0.0425 -0.4895  0.5325
   96SAPC   H9X 9467   6.119   4.338   4.457  0.6301 -0.8192 -1.3828
   96SAPC   H9Y 9468   6.248   4.443   4.538  1.3265 -1.0254  1.0641
   96SAPC  C310 9469   6.257   4.241   4.601  0.2644 -0.5937 -0.6827
   96SAPC  H10X 9470   6.357   4.272   4.637 -0.6328  0.7100  0.8300
   96SAPC  H10Y 9471   6.263   4.133   4.574  0.2198 -0.5368 -0.9211
   96SAPC  C311 9472   6.152   4.264   4.722  0.1747  0.6347  0.3319
   96SAPC  H11X 9473   6.043   4.248   4.706 -0.0708 -0.3623  2.5999
   96SAPC  H11Y 9474   6.162   4.374   4.721 -0.6170  0.7316 -1.2469
   96SAPC  C312 9475   6.196   4.200   4.852  0.0581  0.1858  0.9210
   96SAPC  H12X 9476   6.164   4.096   4.829 -1.7006  0.9286 -0.1012
   96SAPC  H12Y 9477   6.124   4.236   4.928 -0.1606 -1.9927  1.8437
   96SAPC  C313 9478   6.340   4.221   4.890  0.6303  0.1473  0.5937
   96SAPC  H13X 9479   6.365   4.329   4.892  0.1127  0.2635  0.8510
   96SAPC  H13Y 9480   6.409   4.178   4.814 -2.2388 -1.4941 -1.2411
   96SAPC  C314 9481   6.361   4.148   5.025  0.2196  0.2129  0.2480
   96SAPC  H14X 9482   6.322   4.044   5.016 -0.6937  0.6407 -1.0221
   96SAPC  H14Y 9483   6.302   4.210   5.096 -0.9521 -0.8642  0.2544
   96SAPC  C315 9484   6.509   4.145   5.071  1.2850 -0.0221  0.7560
   96SAPC  H15X 9485   6.553   4.240   5.033  0.7282  0.1969  0.6468
   96SAPC  H15Y 9486   6.558   4.056   5.026  0.0799 -0.7809  0.8876
   96SAPC  C316 9487   6.520   4.132   5.224  0.4798 -0.4763  0.0106
   96SAPC  H16X 9488   6.500   4.033   5.269  0.4558 -1.2535 -1.6397
   96SAPC  H16Y 9489   6.443   4.200   5.266  3.9844  3.6109  0.5219
   96SAPC  C317 9490   6.648   4.199   5.269  0.5954  0.7366  0.3826
   96SAPC  H17X 9491   6.615   4.305   5.268 -1.6564  0.1304  2.0780
   96SAPC  H17Y 9492   6.730   4.174   5.198 -1.3968  0.4866 -1.9735
   96SAPC  C318 9493   6.693   4.160   5.415  0.3807 -0.1153 -0.2564
   96SAPC  H18X 9494   6.610   4.158   5.488  1.1219  0.2276  0.6227
   96SAPC  H18Y 9495   6.752   4.239   5.466 -3.1656  2.5230  0.1359
   96SAPC  H18Z 9496   6.748   4.063   5.418 -0.8198 -0.8211 -0.6368
   97SAPC     N 9497   1.224   2.940   3.331 -1.3245  0.1882 -0.6570
   97SAPC   C12 9498   1.110   2.919   3.430  0.1343 -0.2040  0.1324
   97SAPC  H12A 9499   1.083   3.018   3.466  0.1386  0.2475 -1.0669
   97SAPC  H12B 9500   1.149   2.866   3.516  0.1363  0.6549  0.6752
   97SAPC   C13 9501   1.334   3.024   3.395  0.4203  0.1032  0.5578
   97SAPC  H13A 9502   1.413   3.059   3.330 -1.6896  1.2570 -1.5547
   97SAPC  H13B 9503   1.283   3.113   3.426  0.4112  0.3480 -0.1392
   97SAPC  H13C 9504   1.372   2.971   3.481  1.6745 -2.1525 -1.2496
   97SAPC   C14 9505   1.294   2.811   3.285 -0.5604 -0.7008 -0.2133
   97SAPC  H14A 9506   1.348   2.762   3.365  1.9814  1.7290 -0.2715
   97SAPC  H14B 9507   1.231   2.743   3.230 -1.9391  1.5352 -1.5738
   97SAPC  H14C 9508   1.376   2.837   3.221 -1.4665  1.9753 -0.4091
   97SAPC   C15 9509   1.180   3.015   3.210 -0.7601 -0.5592 -0.3163
   97SAPC  H15A 9510   1.271   3.046   3.159 -0.8741 -2.0358 -1.4854
   97SAPC  H15B 9511   1.106   2.958   3.156 -0.3218 -2.6532  1.1591
   97SAPC  H15C 9512   1.125   3.103   3.238 -2.3946 -0.9935 -2.0245
   97SAPC   C11 9513   0.987   2.838   3.373 -0.5727 -1.3635 -0.0590
   97SAPC  H11A 9514   0.926   2.823   3.465 -1.1143  1.6907  0.1976
   97SAPC  H11B 9515   1.028   2.743   3.332 -1.1632 -1.9099  0.5951
   97SAPC     P 9516   0.821   2.866   3.178  0.0066  0.1613 -0.0928
   97SAPC   O13 9517   0.751   2.975   3.105 -0.1007  0.0571 -0.0575
   97SAPC   O14 9518   0.890   2.769   3.087  0.1434 -0.4266 -0.3465
   97SAPC   O12 9519   0.915   2.927   3.285  0.1579  0.1594  0.3958
   97SAPC   O11 9520   0.715   2.784   3.262  0.4948  0.1092  0.1098
   97SAPC    C1 9521   0.584   2.832   3.280 -0.2718  0.7147  0.5606
   97SAPC    HA 9522   0.569   2.940   3.256  0.6203  0.2925 -2.3335
   97SAPC    HB 9523   0.516   2.787   3.205 -1.2215  1.1408  1.1404
   97SAPC    C2 9524   0.524   2.806   3.418 -0.5631  0.5500  0.4860
   97SAPC    HS 9525   0.436   2.873   3.431  0.5266  2.1630 -0.1666
   97SAPC   O21 9526   0.622   2.829   3.522 -0.0258  0.0330  0.1348
   97SAPC   C21 9527   0.652   2.952   3.546 -0.1046  0.2938  0.4738
   97SAPC   O22 9528   0.598   3.051   3.503  0.4580  0.0029  0.4875
   97SAPC   C22 9529   0.752   2.965   3.663  0.7991  0.7855  0.3753
   97SAPC   H2R 9530   0.703   2.912   3.747 -0.2291  0.6465 -0.2851
   97SAPC   H2S 9531   0.832   2.895   3.631  0.3114  0.0193  0.7918
   97SAPC    C3 9532   0.483   2.654   3.429 -0.8316  0.0389 -0.2217
   97SAPC    HX 9533   0.573   2.589   3.431  1.0133  2.4464 -0.4595
   97SAPC    HY 9534   0.428   2.617   3.339  1.7620 -0.7504 -1.5616
   97SAPC   O31 9535   0.411   2.636   3.549 -0.0228  0.2870  0.0800
   97SAPC   C31 9536   0.282   2.674   3.560 -0.5654  0.2528  0.4988
   97SAPC   O32 9537   0.215   2.724   3.471  0.1140 -0.0418  0.5408
   97SAPC   C32 9538   0.223   2.637   3.697 -0.0811  0.5241 -0.2672
   97SAPC   H2X 9539   0.224   2.527   3.707  2.6744  0.4337 -0.8048
   97SAPC   H2Y 9540   0.117   2.669   3.706  0.5318  2.2274  1.8311
   97SAPC   C23 9541   0.792   3.101   3.694  0.8827 -0.3509 -0.3745
   97SAPC   H3R 9542   0.707   3.159   3.736  0.8541  0.2881 -1.2801
   97SAPC   H3S 9543   0.819   3.151   3.598  0.0905 -0.8606 -0.8787
   97SAPC   C24 9544   0.917   3.102   3.795  0.8338  0.4010 -0.1547
   97SAPC   H4R 9545   0.997   3.046   3.741  0.8176  1.0864 -0.9241
   97SAPC   H4S 9546   0.883   3.046   3.884  3.0517 -0.0824  0.4598
   97SAPC   C25 9547   0.957   3.239   3.838  0.0307  0.3774 -0.6589
   97SAPC   H5R 9548   0.988   3.307   3.758 -2.7645  0.7168 -1.5449
   97SAPC   C26 9549   0.952   3.290   3.959 -0.5755 -0.0264  0.3735
   97SAPC   H6R 9550   0.967   3.398   3.967  2.9888 -0.2136 -1.6656
   97SAPC   C27 9551   0.912   3.223   4.090  0.0385  0.5267 -0.1742
   97SAPC   H7R 9552   0.960   3.123   4.097 -0.3351  0.4136  0.9275
   97SAPC   H7S 9553   0.803   3.206   4.102  0.0866  1.0640  1.1479
   97SAPC   C28 9554   0.958   3.311   4.205 -0.7373  0.2256 -0.7222
   97SAPC   H8R 9555   0.892   3.396   4.226  0.2394  0.3757  2.2622
   97SAPC   C29 9556   1.078   3.297   4.271 -0.5018 -0.4752 -0.9442
   97SAPC   H9R 9557   1.085   3.360   4.361 -1.4226  0.1634 -1.3016
   97SAPC  C210 9558   1.194   3.207   4.245  0.1036 -0.2364  0.4501
   97SAPC  H10R 9559   1.167   3.123   4.177  0.6930  0.9877 -1.3790
   97SAPC  H10S 9560   1.213   3.151   4.339  0.2396 -1.9716 -0.5678
   97SAPC  C211 9561   1.315   3.278   4.194 -0.0661 -0.1575  0.4267
   97SAPC  H11R 9562   1.294   3.345   4.109  0.6628  0.7283  0.9331
   97SAPC  C212 9563   1.440   3.270   4.234 -0.5210  0.5066  0.7975
   97SAPC  H12R 9564   1.512   3.340   4.190  1.9784 -2.9994 -1.1971
   97SAPC  C213 9565   1.499   3.174   4.340  0.3926  0.2572 -0.5772
   97SAPC  H13R 9566   1.597   3.132   4.308 -0.3312 -1.2037 -0.9455
   97SAPC  H13S 9567   1.429   3.090   4.358  1.7973 -1.0989 -1.2049
   97SAPC  C214 9568   1.516   3.257   4.467 -0.3620 -0.3888 -0.0964
   97SAPC  H14R 9569   1.490   3.364   4.465  0.5020 -0.1623  0.0763
   97SAPC  C215 9570   1.517   3.200   4.590 -0.2508 -0.0606  0.6573
   97SAPC  H15R 9571   1.496   3.266   4.676 -1.1938 -0.5195  0.7820
   97SAPC  C216 9572   1.533   3.052   4.620 -0.5332  0.6684 -0.6797
   97SAPC  H16R 9573   1.545   3.006   4.520  3.4087  0.5453 -0.3111
   97SAPC  H16S 9574   1.444   3.008   4.669 -1.6876  0.5529 -2.7693
   97SAPC  C217 9575   1.649   3.025   4.707  0.3260  0.2619  0.2150
   97SAPC  H17R 9576   1.636   3.082   4.801  0.6940  1.2884 -0.3451
   97SAPC  H17S 9577   1.738   3.057   4.649  1.1286 -1.3291  0.5073
   97SAPC  C218 9578   1.651   2.868   4.736 -0.5654 -0.3291  0.0040
   97SAPC  H18R 9579   1.662   2.810   4.642 -0.3837  0.0276 -0.1932
   97SAPC  H18S 9580   1.554   2.844   4.785  0.3651  0.3933  2.3614
   97SAPC  C219 9581   1.765   2.834   4.834 -1.0562  0.8364  0.3140
   97SAPC  H19R 9582   1.749   2.896   4.925 -0.0596 -0.0135  1.1066
   97SAPC  H19S 9583   1.861   2.853   4.781 -1.7426 -0.5638 -1.5207
   97SAPC  C220 9584   1.771   2.686   4.887  0.2098 -0.1275 -0.4231
   97SAPC  H20R 9585   1.761   2.618   4.800 -1.8165 -0.7598  0.2509
   97SAPC  H20S 9586   1.685   2.686   4.958 -1.0876 -2.6653 -1.8699
   97SAPC  H20T 9587   1.872   2.654   4.921  0.5556  0.5089 -0.8336
   97SAPC   C33 9588   0.315   2.701   3.810 -0.4438 -0.4541  0.1019
   97SAPC   H3X 9589   0.367   2.797   3.789  1.0800 -1.1666  0.4864
   97SAPC   H3Y 9590   0.407   2.641   3.823  0.9119  1.7996  1.3881
   97SAPC   C34 9591   0.256   2.713   3.954 -0.2649  0.0368 -0.1009
   97SAPC   H4X 9592   0.188   2.629   3.981 -1.4804  1.2301  0.7018
   97SAPC   H4Y 9593   0.184   2.797   3.948 -2.0575 -1.5585 -3.2313
   97SAPC   C35 9594   0.354   2.726   4.073  1.0530 -0.3361 -0.0917
   97SAPC   H5X 9595   0.424   2.811   4.060  3.1355 -2.1717 -1.8013
   97SAPC   H5Y 9596   0.415   2.633   4.068 -0.2132 -1.2081 -0.0230
   97SAPC   C36 9597   0.274   2.734   4.214 -0.4526 -0.7570  0.5369
   97SAPC   H6X 9598   0.211   2.643   4.216  1.8858 -2.5997 -2.3373
   97SAPC   H6Y 9599   0.209   2.825   4.214 -0.7935 -0.9347 -1.9741
   97SAPC   C37 9600   0.384   2.731   4.326 -0.0328 -0.3045 -0.0753
   97SAPC   H7X 9601   0.454   2.818   4.324 -1.4681  0.9185  0.5217
   97SAPC   H7Y 9602   0.438   2.635   4.314  0.3974 -0.3163  1.6850
   97SAPC   C38 9603   0.297   2.720   4.457  0.3674  0.1468  0.7476
   97SAPC   H8X 9604   0.216   2.647   4.436  0.8752 -0.1984 -0.0910
   97SAPC   H8Y 9605   0.248   2.818   4.469 -0.8990 -0.3652  0.0020
   97SAPC   C39 9606   0.379   2.685   4.584 -0.4681  0.2954  0.6344
   97SAPC   H9X 9607   0.473   2.743   4.594  1.2716 -2.0065 -1.3521
   97SAPC   H9Y 9608   0.417   2.584   4.562 -1.9428 -0.2693  0.5461
   97SAPC  C310 9609   0.295   2.671   4.709 -0.0341  0.3985 -0.8687
   97SAPC  H10X 9610   0.206   2.608   4.686 -2.4644  3.4447 -0.5118
   97SAPC  H10Y 9611   0.248   2.764   4.747 -2.4398 -1.5426  1.3004
   97SAPC  C311 9612   0.375   2.621   4.836 -0.4473  0.0803  0.2944
   97SAPC  H11X 9613   0.447   2.697   4.874 -0.4890 -0.4859  1.5608
   97SAPC  H11Y 9614   0.437   2.531   4.817  1.2356  0.8120  2.0330
   97SAPC  C312 9615   0.279   2.588   4.954  0.5119  0.1244  0.5123
   97SAPC  H12X 9616   0.323   2.609   5.054  0.0422 -0.3037  0.8119
   97SAPC  H12Y 9617   0.240   2.484   4.953  0.7473  0.0344  0.5845
   97SAPC  C313 9618   0.151   2.679   4.958  0.1898  0.0385  0.0622
   97SAPC  H13X 9619   0.085   2.641   4.877 -2.4146  0.3655  1.8985
   97SAPC  H13Y 9620   0.197   2.779   4.945  0.6867 -0.2596 -0.5204
   97SAPC  C314 9621   0.078   2.666   5.091  0.0827  0.3284  0.7048
   97SAPC  H14X 9622   0.158   2.646   5.166  0.4585  3.3619  1.2484
   97SAPC  H14Y 9623   0.001   2.587   5.089 -0.7425  1.1332 -0.5241
   97SAPC  C315 9624   0.016   2.801   5.140  0.1957  0.2436  0.1141
   97SAPC  H15X 9625  -0.092   2.809   5.114 -0.0204 -2.6459 -0.2472
   97SAPC  H15Y 9626   0.074   2.886   5.099 -1.5485  2.0378  1.2218
   97SAPC  C316 9627   0.039   2.827   5.287  0.4533  0.3845 -0.0709
   97SAPC  H16X 9628   0.018   2.935   5.305  0.3720  0.4232 -0.3885
   97SAPC  H16Y 9629   0.146   2.814   5.311  0.7255 -1.6511 -2.1203
   97SAPC  C317 9630  -0.059   2.756   5.374  0.2180 -0.3530 -0.4616
   97SAPC  H17X 9631  -0.047   2.646   5.360 -1.3403 -0.4436 -1.3393
   97SAPC  H17Y 9632  -0.161   2.782   5.341 -0.0094  0.5434  0.8779
   97SAPC  C318 9633  -0.055   2.778   5.525 -0.3437 -0.6907  0.3735
   97SAPC  H18X 9634  -0.132   2.717   5.577  1.8163 -2.6211  1.5032
   97SAPC  H18Y 9635  -0.064   2.883   5.557 -2.2096 -1.1210  1.3721
   97SAPC  H18Z 9636   0.042   2.729   5.551  1.0927  0.3332 -2.5267
   98SAPC     N 9637   1.975   6.303   3.016 -0.7161 -0.1716  0.4553
   98SAPC   C12 9638   2.065   6.217   3.104 -0.7463  0.6407 -0.5619
   98SAPC  H12A 9639   1.994   6.163   3.164 -0.3531  0.6539 -0.0828
   98SAPC  H12B 9640   2.123   6.291   3.157 -0.6256  0.3531 -0.2919
   98SAPC   C13 9641   2.049   6.385   2.914 -0.1134 -0.4255  0.0303
   98SAPC  H13A 9642   1.998   6.476   2.888 -0.1003  0.2419  2.2122
   98SAPC  H13B 9643   2.139   6.418   2.962  1.2590  0.3198 -2.8344
   98SAPC  H13C 9644   2.084   6.327   2.830 -0.9948 -0.9490  0.0116
   98SAPC   C14 9645   1.875   6.214   2.941 -0.0720 -0.4219 -0.2100
   98SAPC  H14A 9646   1.802   6.165   3.005  1.8898 -1.9091  0.9908
   98SAPC  H14B 9647   1.828   6.277   2.866  0.7632  0.8918  0.3406
   98SAPC  H14C 9648   1.919   6.133   2.886 -1.5551 -1.5281  0.1524
   98SAPC   C15 9649   1.903   6.402   3.110  0.1509  0.0293 -0.1452
   98SAPC  H15A 9650   1.977   6.462   3.162  0.2977 -1.3492  1.2907
   98SAPC  H15B 9651   1.844   6.477   3.059 -0.5492 -0.7942 -0.5483
   98SAPC  H15C 9652   1.847   6.344   3.181  3.6208 -3.6778 -0.0877
   98SAPC   C11 9653   2.162   6.101   3.052  0.0276 -0.5734 -0.0444
   98SAPC  H11A 9654   2.225   6.068   3.137 -0.0668 -1.4186 -0.2864
   98SAPC  H11B 9655   2.220   6.156   2.975 -4.0718  2.9583 -1.0200
   98SAPC     P 9656   1.990   5.903   3.062 -0.2168  0.2736 -0.0990
   98SAPC   O13 9657   1.857   5.939   3.007 -0.2117 -0.2930  0.1240
   98SAPC   O14 9658   2.024   5.759   3.044 -0.0892 -0.4329 -0.2601
   98SAPC   O12 9659   2.094   5.996   2.994 -0.3107  0.3000  0.0580
   98SAPC   O11 9660   2.001   5.934   3.217  0.0685  0.3909  0.0152
   98SAPC    C1 9661   1.886   5.922   3.295  0.2809  0.1041  0.2399
   98SAPC    HA 9662   1.795   5.966   3.250 -0.2655  0.1362  1.3511
   98SAPC    HB 9663   1.864   5.815   3.315  0.3588  0.3381  1.7268
   98SAPC    C2 9664   1.899   5.976   3.434 -0.3632 -0.4967 -0.1519
   98SAPC    HS 9665   1.804   5.957   3.487  0.2613  0.5260  1.4126
   98SAPC   O21 9666   1.940   6.109   3.431  0.3606  0.2312  0.1785
   98SAPC   C21 9667   1.892   6.189   3.528 -0.3135  0.4210 -0.3802
   98SAPC   O22 9668   1.814   6.164   3.623  0.2740  0.1120  0.4843
   98SAPC   C22 9669   1.972   6.324   3.517 -0.5419  0.7550 -0.0070
   98SAPC   H2R 9670   2.068   6.293   3.563 -0.7072  0.8167  0.3821
   98SAPC   H2S 9671   1.991   6.351   3.411 -0.5803  0.9456  0.0356
   98SAPC    C3 9672   2.004   5.899   3.515  0.3236  0.3584  0.1950
   98SAPC    HX 9673   2.093   5.873   3.454 -0.5757 -0.3084 -0.8610
   98SAPC    HY 9674   1.959   5.798   3.527  0.7178  0.2441  0.7420
   98SAPC   O31 9675   2.042   5.961   3.637 -0.1397  0.4151  0.5825
   98SAPC   C31 9676   1.963   5.935   3.740 -0.8125 -0.2317  0.2703
   98SAPC   O32 9677   1.877   5.850   3.745 -0.0982  0.5581 -0.0978
   98SAPC   C32 9678   2.002   6.008   3.868 -0.4959 -0.1406  0.3593
   98SAPC   H2X 9679   2.023   5.927   3.942  0.0136 -0.8510 -0.5427
   98SAPC   H2Y 9680   1.907   6.059   3.895  0.3232  1.3643  0.5000
   98SAPC   C23 9681   1.923   6.435   3.605  0.8268 -0.4535  0.1748
   98SAPC   H3R 9682   2.001   6.513   3.617 -2.4980  2.8191  2.9142
   98SAPC   H3S 9683   1.906   6.386   3.703 -1.2908 -0.6393 -0.2291
   98SAPC   C24 9684   1.786   6.499   3.567 -0.0001 -0.4267 -0.0368
   98SAPC   H4R 9685   1.753   6.558   3.655 -0.2391  0.6048 -0.7855
   98SAPC   H4S 9686   1.708   6.422   3.551 -0.2938 -0.8585  2.9944
   98SAPC   C25 9687   1.796   6.589   3.446  0.1320 -0.7244 -0.5378
   98SAPC   H5R 9688   1.807   6.543   3.346 -0.7349 -1.5344 -0.2656
   98SAPC   C26 9689   1.803   6.725   3.450 -0.5200  0.3304 -0.4674
   98SAPC   H6R 9690   1.813   6.782   3.357  1.3286 -1.0006 -1.1334
   98SAPC   C27 9691   1.793   6.812   3.576  0.7095 -0.3032 -0.7686
   98SAPC   H7R 9692   1.713   6.772   3.642 -0.7674  0.3644 -2.0771
   98SAPC   H7S 9693   1.749   6.913   3.561  0.1404 -0.0925  1.9031
   98SAPC   C28 9694   1.925   6.822   3.644 -0.4798  0.9126 -0.2373
   98SAPC   H8R 9695   2.011   6.831   3.576  0.2311  2.6532  0.7863
   98SAPC   C29 9696   1.945   6.805   3.780  0.4307  0.0467  0.6897
   98SAPC   H9R 9697   2.049   6.817   3.811  0.4964  1.6251 -0.0481
   98SAPC  C210 9698   1.842   6.786   3.893 -0.9290  0.6658 -0.0324
   98SAPC  H10R 9699   1.740   6.794   3.849 -1.7414  0.1481  1.6616
   98SAPC  H10S 9700   1.870   6.868   3.961  0.3013  0.0321  0.2593
   98SAPC  C211 9701   1.847   6.646   3.949 -0.3944 -0.5863 -0.3063
   98SAPC  H11R 9702   1.853   6.574   3.866 -0.5759 -3.5877  2.1493
   98SAPC  C212 9703   1.838   6.619   4.077 -0.2617  0.0183  1.1954
   98SAPC  H12R 9704   1.851   6.514   4.110  3.1150 -0.2910 -0.6656
   98SAPC  C213 9705   1.821   6.716   4.191 -0.1693  0.1713 -0.0568
   98SAPC  H13R 9706   1.819   6.820   4.152 -4.3051  1.0282  1.8850
   98SAPC  H13S 9707   1.902   6.700   4.264 -0.7939 -2.3891  0.1886
   98SAPC  C214 9708   1.684   6.690   4.246  0.0265 -0.1142  0.6066
   98SAPC  H14R 9709   1.600   6.746   4.201 -0.0995 -0.2366  0.6882
   98SAPC  C215 9710   1.643   6.604   4.345 -0.0717  0.6241 -0.4422
   98SAPC  H15R 9711   1.541   6.586   4.380  0.6156 -2.1430  0.4100
   98SAPC  C216 9712   1.738   6.505   4.412  0.5987  0.7622  0.2536
   98SAPC  H16R 9713   1.833   6.487   4.358 -0.0343 -3.4020  0.1337
   98SAPC  H16S 9714   1.694   6.402   4.413 -0.0991  1.0485  0.0163
   98SAPC  C217 9715   1.771   6.536   4.562  0.0836  0.3022  0.7315
   98SAPC  H17R 9716   1.814   6.638   4.573  0.5346  0.3610 -1.1688
   98SAPC  H17S 9717   1.849   6.462   4.589  1.2254  1.3388  0.3788
   98SAPC  C218 9718   1.658   6.518   4.660  0.6552  0.6111  0.0701
   98SAPC  H18R 9719   1.607   6.420   4.647  0.1793  0.9151 -0.3829
   98SAPC  H18S 9720   1.589   6.605   4.664  1.1882  1.0038  2.5859
   98SAPC  C219 9721   1.699   6.511   4.811 -0.1688  0.1761 -0.0666
   98SAPC  H19R 9722   1.757   6.603   4.834 -1.0827  0.9526 -0.7828
   98SAPC  H19S 9723   1.757   6.418   4.829  1.3368  1.0204 -0.3890
   98SAPC  C220 9724   1.586   6.515   4.913 -0.0383  0.1497  0.6240
   98SAPC  H20R 9725   1.540   6.415   4.922 -0.6992  0.2993 -0.9612
   98SAPC  H20S 9726   1.506   6.578   4.869  1.2570  2.6014  1.6004
   98SAPC  H20T 9727   1.631   6.538   5.013  1.7555 -2.9488  0.6558
   98SAPC   C33 9728   2.121   6.105   3.859 -0.4663 -0.6222 -0.0606
   98SAPC   H3X 9729   2.088   6.182   3.932  1.1172  0.0177  0.0203
   98SAPC   H3Y 9730   2.136   6.151   3.760 -0.0637  1.3782  0.8813
   98SAPC   C34 9731   2.257   6.048   3.902  0.4551 -0.2058 -0.5140
   98SAPC   H4X 9732   2.332   6.128   3.882 -0.6827  0.7208 -1.2145
   98SAPC   H4Y 9733   2.272   5.952   3.848 -0.3128 -1.3872  1.2838
   98SAPC   C35 9734   2.256   6.018   4.050 -0.2085 -0.1178 -0.2075
   98SAPC   H5X 9735   2.228   5.914   4.074 -0.6461 -0.2332 -1.1928
   98SAPC   H5Y 9736   2.190   6.087   4.107  0.3686 -0.1656  0.5300
   98SAPC   C36 9737   2.382   6.062   4.131 -0.0057 -0.0836 -0.4367
   98SAPC   H6X 9738   2.393   6.172   4.116 -2.7452  0.4011  0.6058
   98SAPC   H6Y 9739   2.472   6.012   4.090 -0.4058 -2.3686  1.2511
   98SAPC   C37 9740   2.364   6.056   4.291 -0.4030  0.5010  0.4877
   98SAPC   H7X 9741   2.338   5.951   4.315  0.1706 -0.4296 -2.5814
   98SAPC   H7Y 9742   2.280   6.116   4.332  0.8378  0.7501  2.7964
   98SAPC   C38 9743   2.490   6.099   4.356 -0.2591 -0.1275 -0.4764
   98SAPC   H8X 9744   2.504   6.209   4.350  1.8463  0.0714  3.7497
   98SAPC   H8Y 9745   2.571   6.046   4.302 -0.2131  0.0568 -0.5903
   98SAPC   C39 9746   2.499   6.055   4.507  0.1461 -0.1332  0.4863
   98SAPC   H9X 9747   2.601   6.084   4.543 -0.7818  1.2153  2.1806
   98SAPC   H9Y 9748   2.499   5.944   4.513  0.7035 -0.2456 -1.1569
   98SAPC  C310 9749   2.390   6.107   4.599 -0.4424  0.0528  0.6934
   98SAPC  H10X 9750   2.287   6.081   4.566 -0.7986  1.0033  1.0260
   98SAPC  H10Y 9751   2.396   6.217   4.596 -0.9989  0.1205  1.4842
   98SAPC  C311 9752   2.428   6.061   4.748  0.1864  1.0464  1.1203
   98SAPC  H11X 9753   2.436   5.952   4.766 -1.5606  1.2229  3.5899
   98SAPC  H11Y 9754   2.345   6.084   4.818 -0.5111  0.9085  0.3477
   98SAPC  C312 9755   2.544   6.145   4.803 -0.4864 -0.1285 -0.1596
   98SAPC  H12X 9756   2.509   6.250   4.789  0.7096  0.4855  1.2617
   98SAPC  H12Y 9757   2.637   6.118   4.749 -0.0318  2.2880 -0.7171
   98SAPC  C313 9758   2.572   6.129   4.954 -0.3683  0.1037 -0.1248
   98SAPC  H13X 9759   2.645   6.203   4.994  0.2356  1.1083 -2.8645
   98SAPC  H13Y 9760   2.613   6.025   4.962  1.2327  0.6934 -0.2383
   98SAPC  C314 9761   2.458   6.126   5.057  0.1525 -0.3705  0.2482
   98SAPC  H14X 9762   2.382   6.053   5.023  0.3720 -0.5800  0.2081
   98SAPC  H14Y 9763   2.418   6.230   5.053 -0.3334 -0.3690  2.9732
   98SAPC  C315 9764   2.506   6.107   5.200  1.1830 -0.4941 -0.8109
   98SAPC  H15X 9765   2.416   6.129   5.261  0.6814 -0.0867 -1.6712
   98SAPC  H15Y 9766   2.589   6.173   5.232 -1.0060  1.3902  1.4514
   98SAPC  C316 9767   2.531   5.956   5.232  0.2367 -0.3917  0.3249
   98SAPC  H16X 9768   2.603   5.914   5.159  0.8864 -0.7819  1.1809
   98SAPC  H16Y 9769   2.429   5.911   5.234 -1.6341  3.3973  1.0590
   98SAPC  C317 9770   2.599   5.929   5.365  0.3490 -0.1541 -0.0979
   98SAPC  H17X 9771   2.568   5.826   5.390  0.4139 -0.7051 -2.1081
   98SAPC  H17Y 9772   2.549   5.996   5.438  0.9712  0.5444 -0.2978
   98SAPC  C318 9773   2.748   5.963   5.359 -0.6147 -0.6025 -0.1074
   98SAPC  H18X 9774   2.792   5.976   5.460  0.0605 -2.5913 -0.1089
   98SAPC  H18Y 9775   2.764   6.056   5.300 -3.0587  0.8152  1.2853
   98SAPC  H18Z 9776   2.798   5.875   5.314 -1.1237 -1.2436  0.5575
   99SAPC     N 9777   0.033   1.610   2.932 -0.0744 -0.1137  0.0152
   99SAPC   C12 9778  -0.007   1.552   3.063 -0.4467  0.1857 -0.5171
   99SAPC  H12A 9779   0.073   1.490   3.100 -0.1459  1.1289  0.4586
   99SAPC  H12B 9780  -0.086   1.481   3.041  0.6565  0.1565 -5.5031
   99SAPC   C13 9781   0.012   1.512   2.818 -0.2886  0.7859  0.0466
   99SAPC  H13A 9782   0.028   1.569   2.728  1.6087 -1.9095 -1.4873
   99SAPC  H13B 9783   0.087   1.434   2.820 -1.8173 -0.8147 -1.1513
   99SAPC  H13C 9784  -0.088   1.471   2.817  0.0724 -0.1235 -0.8345
   99SAPC   C14 9785  -0.063   1.728   2.901 -0.5226  0.2954 -0.2739
   99SAPC  H14A 9786  -0.029   1.802   2.973  1.2494 -1.6353  0.9798
   99SAPC  H14B 9787  -0.036   1.765   2.803  0.1687 -0.0654 -0.2238
   99SAPC  H14C 9788  -0.168   1.705   2.906 -0.7914  1.6707  1.5988
   99SAPC   C15 9789   0.172   1.650   2.927  0.3320  0.1909 -0.0433
   99SAPC  H15A 9790   0.239   1.566   2.936  0.3335  0.2125  0.1654
   99SAPC  H15B 9791   0.216   1.703   2.844  3.1590 -0.7776  0.7140
   99SAPC  H15C 9792   0.199   1.710   3.014  2.6230 -1.2092  0.2977
   99SAPC   C11 9793  -0.048   1.646   3.181 -0.1972 -0.2376  0.8371
   99SAPC  H11A 9794  -0.075   1.572   3.259 -1.1886 -1.1942 -0.3581
   99SAPC  H11B 9795  -0.138   1.706   3.155  0.3201  0.6299  1.0366
   99SAPC     P 9796   0.188   1.699   3.283 -0.2165  0.3131 -0.2670
   99SAPC   O13 9797   0.208   1.550   3.265 -0.0690 -0.4757 -0.3626
   99SAPC   O14 9798   0.293   1.785   3.233  0.0051 -0.0091 -0.3717
   99SAPC   O12 9799   0.049   1.746   3.222 -0.0445 -0.2000  0.3865
   99SAPC   O11 9800   0.175   1.724   3.437 -0.0076 -0.2825 -0.3282
   99SAPC    C1 9801   0.055   1.771   3.495  0.8381 -0.0830  0.0037
   99SAPC    HA 9802   0.007   1.855   3.440  0.4003 -0.1162  0.3327
   99SAPC    HB 9803  -0.021   1.690   3.493  1.1211 -0.4095 -3.2511
   99SAPC    C2 9804   0.087   1.824   3.639 -0.2420 -0.1893 -0.4489
   99SAPC    HS 9805  -0.010   1.850   3.685 -0.2676  0.2487 -0.7474
   99SAPC   O21 9806   0.176   1.939   3.626  0.5907 -0.3799 -0.2680
   99SAPC   C21 9807   0.160   2.027   3.724  0.3984  0.0921  0.8983
   99SAPC   O22 9808   0.064   2.037   3.793 -0.2296 -0.0871 -0.0139
   99SAPC   C22 9809   0.293   2.108   3.744  0.3741 -0.2183 -0.1884
   99SAPC   H2R 9810   0.372   2.032   3.726  0.3306 -0.1020 -0.8878
   99SAPC   H2S 9811   0.288   2.188   3.667  1.4242  0.5574  0.5119
   99SAPC    C3 9812   0.155   1.717   3.728 -0.0389  0.0168  0.8782
   99SAPC    HX 9813   0.256   1.708   3.683  0.0370 -1.4030  1.2762
   99SAPC    HY 9814   0.108   1.617   3.711  0.1784  0.3328 -2.0299
   99SAPC   O31 9815   0.163   1.755   3.869  0.4929 -0.0382 -0.2127
   99SAPC   C31 9816   0.055   1.734   3.937 -0.0726  0.3983  0.0387
   99SAPC   O32 9817  -0.043   1.675   3.894  0.3133 -0.4874  0.1172
   99SAPC   C32 9818   0.082   1.794   4.075  0.5194  0.6043 -0.1341
   99SAPC   H2X 9819   0.158   1.875   4.081  1.6811 -0.5402  1.4932
   99SAPC   H2Y 9820   0.123   1.717   4.143 -1.6555 -0.6498 -0.1317
   99SAPC   C23 9821   0.289   2.172   3.886 -0.1875  0.5789  0.0669
   99SAPC   H3R 9822   0.284   2.094   3.964  0.7494  1.2418  0.8100
   99SAPC   H3S 9823   0.187   2.216   3.895 -1.2924 -1.9217  0.4790
   99SAPC   C24 9824   0.402   2.276   3.908 -0.7627  0.6816  0.9052
   99SAPC   H4R 9825   0.395   2.351   3.827  0.8393  2.0901  2.0030
   99SAPC   H4S 9826   0.498   2.222   3.897 -0.6114  1.1057  0.1187
   99SAPC   C25 9827   0.387   2.354   4.033 -0.2767 -0.2739  0.4174
   99SAPC   H5R 9828   0.301   2.422   4.033 -0.7433 -0.8514 -0.5318
   99SAPC   C26 9829   0.458   2.360   4.151 -0.1745  0.1480  0.0240
   99SAPC   H6R 9830   0.426   2.417   4.240  0.9921 -0.3550  0.7821
   99SAPC   C27 9831   0.577   2.276   4.188 -0.1367  0.0717  0.0251
   99SAPC   H7R 9832   0.654   2.356   4.198  1.2833 -1.2827  0.1877
   99SAPC   H7S 9833   0.606   2.216   4.100  0.0102 -0.5803  0.5148
   99SAPC   C28 9834   0.556   2.183   4.307  0.7497 -0.5020  1.2446
   99SAPC   H8R 9835   0.520   2.085   4.273  1.0570 -0.9042  2.0553
   99SAPC   C29 9836   0.548   2.204   4.437  0.6279 -0.0211 -0.2728
   99SAPC   H9R 9837   0.518   2.128   4.510 -0.1687  0.8031  0.2825
   99SAPC  C210 9838   0.574   2.334   4.507 -0.5991  0.5862  0.9099
   99SAPC  H10R 9839   0.512   2.353   4.597  0.0023  1.4975  1.1452
   99SAPC  H10S 9840   0.542   2.417   4.440  0.4597  0.5867  0.3699
   99SAPC  C211 9841   0.719   2.354   4.551  0.1234 -0.2682  0.3746
   99SAPC  H11R 9842   0.768   2.266   4.594 -1.5780 -0.8048  1.2974
   99SAPC  C212 9843   0.785   2.468   4.525  0.1915 -0.1409 -0.2738
   99SAPC  H12R 9844   0.887   2.480   4.566  0.0046  1.5847 -0.2473
   99SAPC  C213 9845   0.737   2.587   4.451  0.6150 -0.3816 -0.3715
   99SAPC  H13R 9846   0.674   2.637   4.528  1.2930 -1.8463  1.2019
   99SAPC  H13S 9847   0.685   2.571   4.355 -0.4230  2.5200 -0.3768
   99SAPC  C214 9848   0.849   2.690   4.424  0.0450 -0.3473 -0.0355
   99SAPC  H14R 9849   0.883   2.749   4.510 -1.8963  1.7859 -0.6103
   99SAPC  C215 9850   0.905   2.728   4.305  0.1023  0.9557 -0.8207
   99SAPC  H15R 9851   0.984   2.803   4.294  0.9576 -0.1056 -2.3949
   99SAPC  C216 9852   0.876   2.660   4.170 -0.4496  0.1621 -0.3485
   99SAPC  H16R 9853   0.843   2.555   4.189 -1.1521 -0.0645 -2.6154
   99SAPC  H16S 9854   0.968   2.652   4.109  2.8931 -2.9097  4.3366
   99SAPC  C217 9855   0.777   2.738   4.080  0.4902 -0.1622 -0.0959
   99SAPC  H17R 9856   0.827   2.832   4.051  2.4596 -0.4951  1.8855
   99SAPC  H17S 9857   0.689   2.755   4.147 -0.2724 -1.5997 -0.6672
   99SAPC  C218 9858   0.711   2.674   3.962 -0.9030 -0.5611  0.7853
   99SAPC  H18R 9859   0.624   2.736   3.932 -0.7521 -1.8508 -2.8432
   99SAPC  H18S 9860   0.666   2.576   3.985  1.5652 -1.9481  0.1104
   99SAPC  C219 9861   0.803   2.658   3.851 -0.4407  0.2668  1.3578
   99SAPC  H19R 9862   0.879   2.582   3.876  0.3289  1.3673  2.5081
   99SAPC  H19S 9863   0.855   2.748   3.811 -0.0367  0.7444  2.8798
   99SAPC  C220 9864   0.711   2.600   3.738  0.0772  0.4969  0.0751
   99SAPC  H20R 9865   0.774   2.570   3.651  0.8747 -0.5770  0.9935
   99SAPC  H20S 9866   0.634   2.676   3.714 -0.6286 -0.3304 -0.3668
   99SAPC  H20T 9867   0.662   2.504   3.764  0.0290  0.6728  0.6413
   99SAPC   C33 9868  -0.048   1.847   4.133  0.2168  0.5989 -0.2965
   99SAPC   H3X 9869  -0.099   1.766   4.190 -0.0128 -0.2525 -1.6461
   99SAPC   H3Y 9870  -0.119   1.881   4.054 -2.3534 -0.5812  1.3662
   99SAPC   C34 9871  -0.028   1.957   4.240 -0.9279 -0.2461  0.4488
   99SAPC   H4X 9872  -0.121   2.018   4.243  0.5925  2.3371 -0.8485
   99SAPC   H4Y 9873   0.043   2.036   4.207 -0.9375  0.7004  2.5140
   99SAPC   C35 9874   0.011   1.924   4.391  0.1856  0.2510  0.4780
   99SAPC   H5X 9875   0.045   2.016   4.444  0.0898  0.3901  0.2985
   99SAPC   H5Y 9876   0.097   1.853   4.389 -2.4863 -3.2689  0.7731
   99SAPC   C36 9877  -0.099   1.843   4.467 -0.0273  0.0470  0.3805
   99SAPC   H6X 9878  -0.093   1.736   4.436 -2.1997 -0.4071  1.3107
   99SAPC   H6Y 9879  -0.197   1.890   4.446 -0.2874  0.6942  2.7429
   99SAPC   C37 9880  -0.088   1.840   4.624  0.0897 -0.5756  0.0967
   99SAPC   H7X 9881  -0.088   1.942   4.669 -3.0544 -0.3943 -0.0520
   99SAPC   H7Y 9882   0.005   1.782   4.640  0.1417 -0.7977 -0.9759
   99SAPC   C38 9883  -0.207   1.767   4.685  0.9751 -0.0349  0.0541
   99SAPC   H8X 9884  -0.210   1.664   4.643  0.9525 -0.7893  1.8319
   99SAPC   H8Y 9885  -0.309   1.806   4.664 -0.7882 -3.7307  0.8922
   99SAPC   C39 9886  -0.195   1.739   4.838  0.1472 -0.0335  0.0916
   99SAPC   H9X 9887  -0.227   1.827   4.898 -1.0174 -1.1555  1.1900
   99SAPC   H9Y 9888  -0.089   1.723   4.868  0.6076 -1.2875 -1.9741
   99SAPC  C310 9889  -0.280   1.610   4.873  0.4072  0.1722 -0.1905
   99SAPC  H10X 9890  -0.243   1.527   4.810  1.5958 -1.1245  2.0764
   99SAPC  H10Y 9891  -0.386   1.637   4.854  0.5908  0.5353 -0.7035
   99SAPC  C311 9892  -0.268   1.559   5.025  0.1563 -0.7827  0.2029
   99SAPC  H11X 9893  -0.331   1.468   5.031  1.1483 -1.6332 -1.4687
   99SAPC  H11Y 9894  -0.296   1.642   5.093  0.5729  0.5749 -1.2229
   99SAPC  C312 9895  -0.124   1.511   5.058  0.1433 -0.3469  0.3506
   99SAPC  H12X 9896  -0.058   1.600   5.070 -0.0014  0.2785 -2.7685
   99SAPC  H12Y 9897  -0.082   1.452   4.974  0.8452 -0.4031  0.7271
   99SAPC  C313 9898  -0.117   1.429   5.193 -0.4445  0.1819  0.0979
   99SAPC  H13X 9899  -0.136   1.323   5.169 -3.0389  0.7137 -0.4205
   99SAPC  H13Y 9900  -0.181   1.470   5.274 -0.9402  1.0833 -0.7375
   99SAPC  C314 9901   0.036   1.447   5.243  0.3436  0.0525 -0.0079
   99SAPC  H14X 9902   0.051   1.557   5.252 -0.0489  0.0408  1.0345
   99SAPC  H14Y 9903   0.098   1.407   5.161 -1.5732 -0.7289 -1.1500
   99SAPC  C315 9904   0.069   1.386   5.373  0.3036 -0.1913  0.2818
   99SAPC  H15X 9905  -0.004   1.419   5.449 -0.4351 -0.1636 -0.4271
   99SAPC  H15Y 9906   0.174   1.412   5.398  0.0429  0.3351  0.8595
   99SAPC  C316 9907   0.049   1.233   5.370  0.0560 -0.0087  0.0914
   99SAPC  H16X 9908  -0.053   1.191   5.373  1.1043 -2.8706 -0.8521
   99SAPC  H16Y 9909   0.097   1.183   5.457  0.2067  1.3733  0.8218
   99SAPC  C317 9910   0.127   1.174   5.255  0.9048  0.5388 -0.2119
   99SAPC  H17X 9911   0.234   1.204   5.256  0.9750  0.3887  2.0654
   99SAPC  H17Y 9912   0.065   1.193   5.164  1.4566  0.9068 -0.5140
   99SAPC  C318 9913   0.120   1.020   5.261  0.2688 -0.2519 -0.0338
   99SAPC  H18X 9914   0.191   0.970   5.192 -1.9998 -2.6008 -0.8502
   99SAPC  H18Y 9915   0.017   0.999   5.223  0.7926 -1.8645 -0.6422
   99SAPC  H18Z 9916   0.143   0.985   5.364  1.9420 -1.1325 -0.6774
  100SAPC     N 9917   6.274   3.024   3.056  0.0225 -0.4546  0.3578
  100SAPC   C12 9918   6.140   3.065   3.109  0.1864 -0.0887  0.1316
  100SAPC  H12A 9919   6.088   2.977   3.146 -0.7322  0.3410 -0.1267
  100SAPC  H12B 9920   6.086   3.094   3.021  1.0343  1.1850  0.0048
  100SAPC   C13 9921   6.363   2.994   3.172  0.3671  0.2665  0.4097
  100SAPC  H13A 9922   6.382   3.085   3.228 -1.4000 -0.0504  1.6277
  100SAPC  H13B 9923   6.317   2.918   3.234 -1.0089 -0.9122 -1.9242
  100SAPC  H13C 9924   6.459   2.962   3.135 -0.6122 -2.7029  0.2107
  100SAPC   C14 9925   6.251   2.905   2.971 -0.0342 -0.2038 -0.2398
  100SAPC  H14A 9926   6.197   2.934   2.882  0.6788  1.0498 -0.2827
  100SAPC  H14B 9927   6.350   2.871   2.945  1.1153  0.9356  2.2644
  100SAPC  H14C 9928   6.194   2.829   3.023 -1.7907 -0.1419 -1.9517
  100SAPC   C15 9929   6.326   3.127   2.961 -0.0620 -0.1934  0.0972
  100SAPC  H15A 9930   6.428   3.103   2.936 -0.5989  1.0502 -4.0685
  100SAPC  H15B 9931   6.271   3.133   2.868  2.7958  0.7292 -1.6644
  100SAPC  H15C 9932   6.330   3.226   3.005 -1.4912 -1.1171  2.4989
  100SAPC   C11 9933   6.118   3.190   3.201 -0.3206  0.0483 -0.2877
  100SAPC  H11A 9934   6.176   3.170   3.294 -0.7522  0.3234  0.0430
  100SAPC  H11B 9935   6.012   3.192   3.235 -0.8851 -2.1976 -1.6869
  100SAPC     P 9936   6.077   3.383   3.043 -0.1897 -0.2591 -0.2897
  100SAPC   O13 9937   6.161   3.468   2.961 -0.0062  0.2815 -0.2031
  100SAPC   O14 9938   5.992   3.285   2.974 -0.2523 -0.6063 -0.2577
  100SAPC   O12 9939   6.170   3.313   3.152  0.0145  0.6199  0.0407
  100SAPC   O11 9940   5.998   3.472   3.143  0.1641 -0.4018  0.0400
  100SAPC    C1 9941   6.050   3.586   3.209  0.3698 -0.4167  0.4875
  100SAPC    HA 9942   6.145   3.624   3.165  0.4896 -0.5061  0.6706
  100SAPC    HB 9943   5.974   3.666   3.221  0.7946  0.7065 -3.1087
  100SAPC    C2 9944   6.075   3.547   3.355 -1.2949  0.6048 -0.1121
  100SAPC    HS 9945   6.152   3.467   3.362 -0.9803  1.0564  4.0319
  100SAPC   O21 9946   5.953   3.497   3.420 -0.2870 -0.2409  0.3565
  100SAPC   C21 9947   5.971   3.402   3.501 -0.2856  0.5873 -0.0671
  100SAPC   O22 9948   6.077   3.346   3.531  0.8126  0.0629 -0.1930
  100SAPC   C22 9949   5.825   3.360   3.550  0.5321 -0.6962 -0.0614
  100SAPC   H2R 9950   5.766   3.453   3.554 -1.5017 -1.9481  0.5149
  100SAPC   H2S 9951   5.781   3.291   3.475 -0.1470 -0.6087  0.2521
  100SAPC    C3 9952   6.136   3.674   3.427  0.3432  0.0156  0.7125
  100SAPC    HX 9953   6.050   3.744   3.410 -0.7258 -1.5039 -0.3852
  100SAPC    HY 9954   6.226   3.703   3.370  1.0456 -0.5269  1.5157
  100SAPC   O31 9955   6.160   3.653   3.565 -0.1547  0.2436 -0.5342
  100SAPC   C31 9956   6.262   3.575   3.598 -0.1586  0.0936 -0.1508
  100SAPC   O32 9957   6.347   3.535   3.517 -0.0457  0.0680  0.3304
  100SAPC   C32 9958   6.260   3.551   3.744 -0.3928 -0.1498  0.1672
  100SAPC   H2X 9959   6.349   3.489   3.770 -0.7231 -0.5121  0.4392
  100SAPC   H2Y 9960   6.171   3.490   3.771 -1.1589  0.2307 -1.4070
  100SAPC   C23 9961   5.815   3.299   3.690 -0.0890  0.2649  0.0289
  100SAPC   H3R 9962   5.889   3.216   3.697  0.3918  0.3530 -2.9662
  100SAPC   H3S 9963   5.714   3.256   3.700  0.5467 -1.8491 -1.8581
  100SAPC   C24 9964   5.830   3.408   3.798 -0.7210 -0.1175 -0.8023
  100SAPC   H4R 9965   5.761   3.494   3.789  0.8865  1.4817  1.1149
  100SAPC   H4S 9966   5.934   3.444   3.781 -0.6267  0.2174  0.4214
  100SAPC   C25 9967   5.804   3.353   3.933  0.6169  0.2529  0.1744
  100SAPC   H5R 9968   5.837   3.250   3.955  0.4474  0.2322  0.3382
  100SAPC   C26 9969   5.745   3.422   4.043  0.6075  0.2505  0.5026
  100SAPC   H6R 9970   5.730   3.369   4.139 -1.7847  0.6211  0.3889
  100SAPC   C27 9971   5.681   3.557   4.027  0.1918  0.5310 -0.4465
  100SAPC   H7R 9972   5.593   3.547   3.960  0.3484 -4.8575 -0.2976
  100SAPC   H7S 9973   5.749   3.628   3.974 -0.6746  0.5833 -1.5004
  100SAPC   C28 9974   5.647   3.630   4.155  0.2629 -0.6208 -0.1778
  100SAPC   H8R 9975   5.704   3.724   4.163 -1.7080  0.5244  1.1585
  100SAPC   C29 9976   5.553   3.592   4.248 -0.2742 -0.6783  0.1558
  100SAPC   H9R 9977   5.537   3.658   4.334  1.3813  0.1507 -0.1297
  100SAPC  C210 9978   5.471   3.462   4.235  0.6089 -0.7408 -0.2788
  100SAPC  H10R 9979   5.542   3.378   4.221  2.5140  0.6516  0.5316
  100SAPC  H10S 9980   5.427   3.471   4.134 -0.2206 -0.1354  0.1245
  100SAPC  C211 9981   5.372   3.439   4.339 -0.0187  0.2300 -0.4684
  100SAPC  H11R 9982   5.278   3.495   4.325  0.3019  0.3237 -2.5249
  100SAPC  C212 9983   5.389   3.352   4.442 -0.4027 -0.4224  0.5173
  100SAPC  H12R 9984   5.304   3.329   4.509 -1.2251  0.7322 -0.0965
  100SAPC  C213 9985   5.511   3.272   4.471 -0.1565 -0.5704  0.0450
  100SAPC  H13R 9986   5.598   3.340   4.479  0.8579 -1.6708 -1.1595
  100SAPC  H13S 9987   5.535   3.197   4.392  2.8268 -0.0730  0.3749
  100SAPC  C214 9988   5.497   3.190   4.600 -0.0272 -0.4401  0.3808
  100SAPC  H14R 9989   5.475   3.083   4.584 -0.6729  0.0471 -2.5314
  100SAPC  C215 9990   5.493   3.237   4.723 -0.1737  0.2759 -0.6216
  100SAPC  H15R 9991   5.473   3.165   4.804  2.2875  0.8998  0.6417
  100SAPC  C216 9992   5.499   3.380   4.759 -0.2467 -0.5426 -0.1529
  100SAPC  H16R 9993   5.512   3.446   4.671  0.2232 -1.0674 -0.4806
  100SAPC  H16S 9994   5.591   3.403   4.816 -0.8050  1.3797  0.0426
  100SAPC  C217 9995   5.375   3.424   4.850  0.2939  0.0113  0.5573
  100SAPC  H17R 9996   5.276   3.424   4.799 -0.4371 -0.9924  1.9319
  100SAPC  H17S 9997   5.395   3.527   4.887  0.8986  0.6070 -1.2904
  100SAPC  C218 9998   5.351   3.333   4.976 -0.3053  0.7401  0.4653
  100SAPC  H18R 9999   5.449   3.291   5.007 -1.5669 -1.2897  1.9656
  100SAPC  H18S10000   5.284   3.249   4.950  0.4395  0.5503 -0.9457
  100SAPC  C21910001   5.304   3.412   5.096 -0.2006  1.1323  0.3734
  100SAPC  H19R10002   5.194   3.430   5.092 -0.0404  2.4346  1.1777
  100SAPC  H19S10003   5.343   3.516   5.089  1.4411  0.4648 -0.8646
  100SAPC  C22010004   5.331   3.334   5.225 -0.0394  0.7927 -0.3078
  100SAPC  H20R10005   5.335   3.401   5.313  1.0067 -0.2078  0.4379
  100SAPC  H20S10006   5.429   3.281   5.229  0.5158  1.5792 -2.1647
  100SAPC  H20T10007   5.254   3.259   5.253  0.4178  0.0345 -1.0142
  100SAPC   C3310008   6.247   3.675   3.829 -0.7703 -0.4137  0.6263
  100SAPC   H3X10009   6.147   3.722   3.840 -0.8442 -1.0838  4.1856
  100SAPC   H3Y10010   6.310   3.760   3.796  0.8474 -1.7893  0.0161
  100SAPC   C3410011   6.302   3.641   3.974  0.5534 -0.7858 -0.1317
  100SAPC   H4X10012   6.298   3.741   4.022 -0.9711 -1.2144  0.6773
  100SAPC   H4Y10013   6.412   3.625   3.972  0.5820 -0.6562  0.3932
  100SAPC   C3510014   6.214   3.556   4.065 -0.8804  0.7000 -0.1782
  100SAPC   H5X10015   6.243   3.449   4.059 -1.0176  0.5671  1.1997
  100SAPC   H5Y10016   6.113   3.575   4.022 -2.5707 -2.8315  1.7793
  100SAPC   C3610017   6.221   3.586   4.224  0.4399 -0.5170 -0.4973
  100SAPC   H6X10018   6.128   3.542   4.267  0.0759 -0.0139 -0.7645
  100SAPC   H6Y10019   6.226   3.696   4.238  0.5364 -0.4080 -1.3023
  100SAPC   C3710020   6.346   3.524   4.295 -0.5135  0.0533  0.0666
  100SAPC   H7X10021   6.437   3.584   4.272 -0.4512  0.1849  0.6318
  100SAPC   H7Y10022   6.356   3.430   4.237 -2.2610 -0.9126  1.2623
  100SAPC   C3810023   6.336   3.485   4.439  1.1399 -0.4426 -0.0375
  100SAPC   H8X10024   6.229   3.492   4.468  0.8793  0.8066 -1.1838
  100SAPC   H8Y10025   6.374   3.569   4.501 -1.6418  0.9615 -0.0910
  100SAPC   C3910026   6.424   3.362   4.464 -0.0876  0.1001 -0.6841
  100SAPC   H9X10027   6.524   3.380   4.421  0.4090  0.4714  0.5591
  100SAPC   H9Y10028   6.381   3.268   4.422 -0.2667  0.1670 -0.6545
  100SAPC  C31010029   6.440   3.342   4.617 -0.5914  0.5625  0.6866
  100SAPC  H10X10030   6.348   3.355   4.678  0.9080 -0.9197  3.4778
  100SAPC  H10Y10031   6.519   3.412   4.650  1.7139 -1.5053 -0.1257
  100SAPC  C31110032   6.487   3.203   4.659 -0.8219 -0.5934  0.0745
  100SAPC  H11X10033   6.545   3.170   4.571 -1.6010 -0.8618 -0.3493
  100SAPC  H11Y10034   6.400   3.135   4.674 -0.7437 -0.5100  0.9914
  100SAPC  C31210035   6.574   3.205   4.786 -0.5754  0.0723 -0.3018
  100SAPC  H12X10036   6.673   3.240   4.750 -0.2663 -0.9567 -0.5070
  100SAPC  H12Y10037   6.585   3.101   4.824 -0.7606  1.1365  2.9945
  100SAPC  C31310038   6.513   3.286   4.895 -1.0340  0.4766  0.2759
  100SAPC  H13X10039   6.410   3.244   4.899 -0.5051 -1.3996 -2.7041
  100SAPC  H13Y10040   6.502   3.394   4.869  0.0379  0.4669 -0.2611
  100SAPC  C31410041   6.590   3.275   5.033 -0.5779 -0.1206 -0.1811
  100SAPC  H14X10042   6.529   3.339   5.101  1.1814  1.3257  0.1275
  100SAPC  H14Y10043   6.694   3.314   5.034 -0.9521  0.9221  0.6568
  100SAPC  C31510044   6.599   3.122   5.080 -0.0580  0.0574  0.4075
  100SAPC  H15X10045   6.663   3.068   5.007 -1.5662 -1.2075 -0.0299
  100SAPC  H15Y10046   6.494   3.089   5.065  0.1170 -1.1390  1.6393
  100SAPC  C31610047   6.644   3.103   5.223  0.0386 -0.0692 -0.2925
  100SAPC  H16X10048   6.653   2.996   5.252  0.2507 -0.2832 -1.1231
  100SAPC  H16Y10049   6.578   3.157   5.294 -2.0449 -2.5749 -0.1575
  100SAPC  C31710050   6.789   3.161   5.245 -0.5986  0.1850  0.1245
  100SAPC  H17X10051   6.803   3.268   5.216  1.5272  0.3323  1.4156
  100SAPC  H17Y10052   6.851   3.099   5.178 -0.1381 -0.0188  0.7254
  100SAPC  C31810053   6.826   3.132   5.390  0.1995  0.2413 -0.9674
  100SAPC  H18X10054   6.936   3.149   5.394  0.1268  0.7565 -1.1080
  100SAPC  H18Y10055   6.807   3.026   5.419  0.0310  0.4760 -0.2086
  100SAPC  H18Z10056   6.781   3.199   5.466  1.2017 -0.3371  0.1722
  101OSM      N10057   5.532   1.356   7.747 -0.1295  0.1880 -0.6518
  101OSM    C1510058   5.424   1.369   7.642 -0.4383  0.9404 -0.3286
  101OSM   H15A10059   5.464   1.326   7.551 -1.1208  2.6531 -1.4831
  101OSM   H15B10060   5.397   1.473   7.629  0.2898  1.0848 -0.7713
  101OSM   H15C10061   5.335   1.312   7.666  1.5879 -2.3974 -0.1175
  101OSM    C1410062   5.486   1.450   7.849  0.1622  0.2382  0.2625
  101OSM   H14A10063   5.479   1.547   7.802 -0.8622  0.4214  0.7732
  101OSM   H14B10064   5.559   1.476   7.924 -2.0488  0.2860  2.5296
  101OSM   H14C10065   5.391   1.413   7.885 -0.3468 -1.1977 -2.3221
  101OSM    C1310066   5.535   1.217   7.803 -0.0496 -0.0277  0.1299
  101OSM   H13A10067   5.566   1.150   7.724 -0.1294  1.6625 -1.3996
  101OSM   H13B10068   5.437   1.192   7.841 -0.0344  0.5817  0.5811
  101OSM   H13C10069   5.602   1.210   7.887  1.0441  4.0024 -0.2114
  101OSM    C1210070   5.674   1.389   7.697  0.3948 -0.0243  0.1965
  101OSM   H12A10071   5.711   1.302   7.645 -0.2351 -0.2516  0.1189
  101OSM   H12B10072   5.728   1.407   7.789 -2.7271 -0.4777  2.2931
  101OSM    C1110073   5.678   1.515   7.602 -0.2498 -0.3314 -0.3560
  101OSM   H11A10074   5.607   1.591   7.643  0.8995  1.2296 -1.1564
  101OSM   H11B10075   5.654   1.476   7.501  0.3117 -0.2327 -0.5330
  101OSM      P10076   5.940   1.522   7.570 -0.1278 -0.2708 -0.1241
  101OSM    O1310077   6.043   1.615   7.620  0.2537 -0.0349  0.5475
  101OSM    O1410078   5.944   1.377   7.613  0.1059 -0.2066 -0.1928
  101OSM    O1110079   5.937   1.515   7.410  0.5462 -0.4820  0.1028
  101OSM    O1210080   5.804   1.581   7.621 -0.0004 -0.3770 -0.4542
  101OSM    C1S10081   5.893   1.619   7.328 -0.3157 -0.4149  0.3015
  101OSM    H1S10082   5.953   1.711   7.347  0.3009 -1.2032  2.4629
  101OSM    H1T10083   5.787   1.645   7.346 -0.0581 -0.7955  2.8057
  101OSM     NF10084   5.860   1.682   7.090  0.5390 -0.3467 -0.2902
  101OSM    HNF10085   5.764   1.670   7.069  0.1051 -1.0878  1.8719
  101OSM    C2S10086   5.905   1.578   7.177 -0.0799  0.9147  0.4425
  101OSM    H2S10087   6.011   1.554   7.153 -1.0418 -0.3439 -3.1525
  101OSM    C3S10088   5.836   1.441   7.158 -0.7765  0.0421  0.3440
  101OSM    H3S10089   5.728   1.454   7.183 -1.1302  1.2094 -1.5886
  101OSM     O310090   5.881   1.332   7.239  0.4307  0.0878 -0.7197
  101OSM    HO310091   5.919   1.376   7.315  1.3605 -3.5858  1.2275
  101OSM    C4S10092   5.851   1.394   7.015 -0.0195 -0.1956 -0.3015
  101OSM    H4S10093   5.774   1.442   6.953 -0.1269 -1.4710 -1.1931
  101OSM    C5S10094   5.932   1.305   6.955  0.0642  0.1140  0.0111
  101OSM    H5S10095   6.007   1.249   7.012  0.7434 -1.1286 -2.0091
  101OSM    C6S10096   5.939   1.282   6.802 -0.4299  0.7926  1.1710
  101OSM    H6S10097   5.927   1.172   6.790 -0.7672  1.1330 -3.5093
  101OSM    H6T10098   6.044   1.298   6.768 -0.6137 -1.0955 -0.4938
  101OSM    C7S10099   5.834   1.349   6.714  0.5224  0.0502  0.6428
  101OSM    H7S10100   5.828   1.460   6.719 -0.1688  0.0155  0.7258
  101OSM    H7T10101   5.734   1.319   6.752 -0.0416 -1.1458 -1.5985
  101OSM    C8S10102   5.856   1.316   6.568 -0.0291  0.1803 -0.4976
  101OSM    H8S10103   5.858   1.205   6.563 -1.3414  0.0873  0.5211
  101OSM    H8T10104   5.956   1.346   6.530  0.1469  1.9765  1.2153
  101OSM    C9S10105   5.733   1.366   6.486  0.1217  0.5671 -0.1068
  101OSM    H9S10106   5.726   1.476   6.475  0.5482  0.4349 -2.0246
  101OSM    H9T10107   5.639   1.338   6.539 -0.0817 -0.9891 -1.2077
  101OSM   C10S10108   5.731   1.300   6.349  0.4348  0.0115  0.1607
  101OSM   H10S10109   5.714   1.192   6.366 -0.0249  0.2696  1.5248
  101OSM   H10T10110   5.828   1.317   6.296  0.4004 -1.7304 -0.5238
  101OSM   C11S10111   5.618   1.354   6.266  0.3453  0.0908 -0.5017
  101OSM   H11S10112   5.640   1.463   6.257 -1.8133  0.5550 -0.8992
  101OSM   H11T10113   5.530   1.325   6.327 -0.0749  1.1436 -0.5732
  101OSM   C12S10114   5.594   1.292   6.131  0.4191  0.1692  0.1345
  101OSM   H12S10115   5.568   1.186   6.146 -0.5513  0.0465 -2.0391
  101OSM   H12T10116   5.685   1.285   6.067  0.8900 -2.6437  0.9756
  101OSM   C13S10117   5.461   1.338   6.058 -0.1504 -0.6944 -0.2184
  101OSM   H13S10118   5.468   1.446   6.034  1.0337 -0.3086  1.6879
  101OSM   H13T10119   5.376   1.309   6.123 -0.6650 -0.5136 -0.7956
  101OSM   C14S10120   5.434   1.272   5.925 -0.4367  0.5686 -0.1051
  101OSM   H14S10121   5.426   1.164   5.950  2.0325  0.2055 -0.6173
  101OSM   H14T10122   5.520   1.282   5.856 -0.3543 -1.3329 -0.3391
  101OSM   C15S10123   5.314   1.322   5.840 -1.1854  0.8531 -0.1425
  101OSM   H15S10124   5.347   1.425   5.814 -0.4114  0.6865  0.1464
  101OSM   H15T10125   5.223   1.312   5.903 -0.3841 -0.6644  0.8418
  101OSM   C16S10126   5.291   1.237   5.721  0.1371  0.1015  0.5510
  101OSM   H16S10127   5.287   1.128   5.740 -1.7924  0.0769  0.1732
  101OSM   H16T10128   5.375   1.258   5.652 -1.1008  1.0062 -0.7347
  101OSM   C17S10129   5.162   1.290   5.647 -0.3168 -0.2263 -0.8002
  101OSM   H17S10130   5.176   1.400   5.642 -1.3481 -0.0199  0.5029
  101OSM   H17T10131   5.080   1.277   5.720  2.6758  0.1807  2.9941
  101OSM   C18S10132   5.133   1.234   5.508  0.1809 -0.1390 -0.1377
  101OSM   H18S10133   5.104   1.127   5.514 -2.0859  0.4428  0.5963
  101OSM   H18T10134   5.216   1.254   5.437 -0.5165 -0.3082 -1.0314
  101OSM   H18U10135   5.044   1.290   5.470  0.3678 -0.9086 -1.8074
  101OSM    C1F10136   5.936   1.789   7.059 -0.1735 -0.0393  0.4995
  101OSM     OF10137   6.046   1.811   7.118 -0.8148  0.3150  0.2609
  101OSM    C2F10138   5.872   1.888   6.969 -0.0735 -0.0416  0.4557
  101OSM    H2F10139   5.822   1.961   7.036 -0.3647  2.1141 -1.9159
  101OSM    H2G10140   5.793   1.832   6.915 -0.5715 -1.9025  2.9414
  101OSM    C3F10141   5.973   1.961   6.884  0.0037  0.3180  0.2107
  101OSM    H3F10142   6.048   1.897   6.833 -0.1186  0.8792 -0.6956
  101OSM    H3G10143   6.018   2.037   6.952 -0.8757  0.7199  0.3598
  101OSM    C4F10144   5.914   2.058   6.779  0.2644  0.2476 -0.2620
  101OSM    H4F10145   6.000   2.119   6.745  1.5834 -0.4116  1.6819
  101OSM    H4G10146   5.831   2.117   6.823  0.8531  1.1102 -0.2730
  101OSM    C5F10147   5.864   1.982   6.650  0.1256  0.5473 -0.4939
  101OSM    H5F10148   5.802   1.896   6.683 -0.1990  1.4722  1.3805
  101OSM    H5G10149   5.950   1.931   6.601 -0.0824  0.8094 -1.1444
  101OSM    C6F10150   5.801   2.064   6.535  0.6338 -0.1471 -0.4742
  101OSM    H6F10151   5.866   2.152   6.517 -0.5926  0.4465 -2.3491
  101OSM    H6G10152   5.705   2.107   6.569 -0.1754 -2.0436 -0.2568
  101OSM    C7F10153   5.776   1.975   6.408 -0.0395 -0.0319 -0.0655
  101OSM    H7F10154   5.880   1.957   6.371 -0.3820 -0.6821 -0.7461
  101OSM    H7G10155   5.724   2.036   6.331 -0.8551  1.8986  1.8974
  101OSM    C8F10156   5.715   1.839   6.419  0.1860  0.1447  0.0484
  101OSM    H8F10157   5.615   1.862   6.463  1.0077  3.4590  0.4833
  101OSM    H8G10158   5.785   1.788   6.489  2.0776  1.6672 -0.6640
  101OSM    C9F10159   5.710   1.752   6.292  0.0036 -0.6384  0.7103
  101OSM    H9F10160   5.769   1.659   6.296 -0.3677 -0.8563  1.1963
  101OSM   C10F10161   5.638   1.781   6.181  0.4993  0.3704 -0.0574
  101OSM   H10F10162   5.642   1.710   6.098 -1.5470 -0.7264  0.6958
  101OSM   C11F10163   5.558   1.901   6.158  0.4344 -0.5148  0.7818
  101OSM   H11F10164   5.621   1.983   6.118 -0.2277 -0.6031 -0.4674
  101OSM   H11G10165   5.503   1.934   6.249 -0.8952  0.2861 -0.2780
  101OSM   C12F10166   5.442   1.879   6.056 -0.5274  0.5184  0.2052
  101OSM   H12F10167   5.398   1.980   6.044 -2.1653 -0.1428  0.2920
  101OSM   H12G10168   5.367   1.811   6.103  0.3459 -0.2504  0.5217
  101OSM   C13F10169   5.487   1.831   5.911  0.1155  0.5257  0.6410
  101OSM   H13F10170   5.537   1.732   5.904 -2.4980 -0.7664 -3.2570
  101OSM   H13G10171   5.559   1.904   5.868 -0.4454  1.5107  1.3087
  101OSM   C14F10172   5.370   1.832   5.811 -0.1655 -0.5763 -0.7093
  101OSM   H14F10173   5.407   1.796   5.713 -0.1435  0.8585 -1.2499
  101OSM   H14G10174   5.337   1.936   5.790  1.6712  0.3939  0.8408
  101OSM   C15F10175   5.250   1.741   5.852 -0.0817 -0.0402 -0.5175
  101OSM   H15F10176   5.191   1.806   5.921 -1.0231 -0.9928 -0.4029
  101OSM   H15G10177   5.290   1.651   5.902  1.8857  0.4895 -1.0704
  101OSM   C16F10178   5.170   1.696   5.732 -0.3031  0.3424 -0.2395
  101OSM   H16F10179   5.085   1.633   5.766  0.5374 -0.0929  1.1839
  101OSM   H16G10180   5.233   1.631   5.667 -1.3928 -0.5671 -0.4084
  101OSM   C17F10181   5.105   1.814   5.657  0.7540  0.4699 -0.7491
  101OSM   H17F10182   5.179   1.881   5.610  0.4721  0.7315 -0.8233
  101OSM   H17G10183   5.037   1.874   5.722 -0.6836 -0.0433 -1.7264
  101OSM   C18F10184   5.013   1.758   5.550 -0.1684  0.2642  0.0344
  101OSM   H18F10185   4.972   1.845   5.494  3.9835  2.9188  0.6923
  101OSM   H18G10186   4.933   1.706   5.607  1.6609 -1.9928  0.6640
  101OSM   H18H10187   5.066   1.688   5.483 -0.7959  0.9775 -1.2383
  102OSM      N10188   1.010   1.178   7.613  0.6736  1.1820 -0.2647
  102OSM    C1510189   0.907   1.233   7.709 -0.1473 -0.1430 -0.2864
  102OSM   H15A10190   0.962   1.304   7.770  0.9266 -2.1693  1.2082
  102OSM   H15B10191   0.860   1.158   7.771  1.4836 -0.0915  1.0692
  102OSM   H15C10192   0.830   1.287   7.656 -0.5827  0.9373  1.3490
  102OSM    C1410193   1.098   1.279   7.556 -1.2569 -0.4245  0.2680
  102OSM   H14A10194   1.032   1.354   7.516  0.0121  0.2025 -0.7682
  102OSM   H14B10195   1.161   1.237   7.478 -0.2721 -0.0293  0.8225
  102OSM   H14C10196   1.153   1.342   7.625 -0.7941  1.3879 -1.6274
  102OSM    C1310197   1.104   1.088   7.689  0.0269  1.0606 -0.1454
  102OSM   H13A10198   1.179   1.043   7.626  1.7952  0.9831  1.9010
  102OSM   H13B10199   1.049   1.002   7.725  1.7570 -0.1774 -0.3344
  102OSM   H13C10200   1.162   1.136   7.767 -0.4843  0.4862  0.6087
  102OSM    C1210201   0.938   1.098   7.499  0.0865  0.3720  0.0410
  102OSM   H12A10202   0.887   1.016   7.546  1.6947  0.2181  1.6638
  102OSM   H12B10203   1.003   1.050   7.428 -0.8117 -0.4380 -0.2468
  102OSM    C1110204   0.848   1.176   7.401  0.2114  0.7946  0.4606
  102OSM   H11A10205   0.811   1.103   7.325 -0.5812  2.1293 -0.4934
  102OSM   H11B10206   0.902   1.248   7.336 -2.1104  1.6317 -0.6494
  102OSM      P10207   0.595   1.184   7.473  0.0985  0.6103 -0.0544
  102OSM    O1310208   0.592   1.077   7.570  0.3945  0.0702 -0.1339
  102OSM    O1410209   0.510   1.300   7.503  0.0603  0.2892  0.1905
  102OSM    O1110210   0.572   1.132   7.322 -0.7709 -0.6252 -0.5264
  102OSM    O1210211   0.739   1.245   7.466 -0.6500 -0.0702  0.2529
  102OSM    C1S10212   0.565   1.221   7.205  0.1897 -0.2170 -0.1109
  102OSM    H1S10213   0.652   1.291   7.205  0.3830 -0.4492  0.3592
  102OSM    H1T10214   0.478   1.290   7.198 -0.5661 -0.8537  2.1852
  102OSM     NF10215   0.586   1.236   6.959  0.5927 -0.1861 -0.0234
  102OSM    HNF10216   0.500   1.237   6.909  0.0708  2.5835  0.7648
  102OSM    C2S10217   0.579   1.144   7.072 -0.4115  0.2531 -0.4855
  102OSM    H2S10218   0.673   1.085   7.079  1.1245  2.6391 -0.0307
  102OSM    C3S10219   0.465   1.039   7.059  0.3215 -0.0801  0.6588
  102OSM    H3S10220   0.375   1.100   7.035  1.2879  0.9806 -0.3930
  102OSM     O310221   0.437   0.957   7.176 -0.2948 -0.8796  0.2031
  102OSM    HO310222   0.482   0.996   7.251 -0.4597 -0.7392  0.2313
  102OSM    C4S10223   0.487   0.945   6.941  0.2443 -0.2144 -0.0309
  102OSM    H4S10224   0.594   0.928   6.924 -0.0015 -0.8302 -1.0777
  102OSM    C5S10225   0.398   0.927   6.841 -0.1094 -0.2124  0.3939
  102OSM    H5S10226   0.295   0.959   6.860 -0.6526 -1.2865 -0.6334
  102OSM    C6S10227   0.409   0.863   6.708 -0.1201 -1.1781 -0.4292
  102OSM    H6S10228   0.415   0.944   6.632 -1.0211  0.0041  0.7175
  102OSM    H6T10229   0.321   0.799   6.685 -1.9220  1.6488 -2.0438
  102OSM    C7S10230   0.530   0.774   6.693 -0.1242  0.0910  0.1750
  102OSM    H7S10231   0.522   0.706   6.781 -1.5208  1.8922  1.5366
  102OSM    H7T10232   0.622   0.834   6.708  0.6377 -1.5755  2.9286
  102OSM    C8S10233   0.537   0.710   6.553 -0.2373 -0.5690 -0.0181
  102OSM    H8S10234   0.597   0.783   6.493 -2.0562  0.9191 -0.1104
  102OSM    H8T10235   0.433   0.707   6.516 -0.1599 -2.1670 -0.1845
  102OSM    C9S10236   0.603   0.575   6.545  0.1317 -0.4672  0.2216
  102OSM    H9S10237   0.552   0.508   6.617 -1.0777 -1.5432 -1.5694
  102OSM    H9T10238   0.711   0.585   6.570 -0.2525  3.5222  0.8479
  102OSM   C10S10239   0.586   0.505   6.411 -0.2081  0.5146 -0.2530
  102OSM   H10S10240   0.478   0.495   6.387  0.4330 -1.4015 -2.6366
  102OSM   H10T10241   0.634   0.406   6.425 -1.3069 -0.0706 -0.4979
  102OSM   C11S10242   0.650   0.578   6.291  0.5931 -0.1692 -0.0768
  102OSM   H11S10243   0.760   0.586   6.300  0.6086  0.3064 -0.6454
  102OSM   H11T10244   0.612   0.682   6.283 -2.7157 -1.2001  0.7008
  102OSM   C12S10245   0.641   0.500   6.150  0.1522 -0.0090  0.9021
  102OSM   H12S10246   0.539   0.458   6.138 -1.0790  3.1786 -0.8382
  102OSM   H12T10247   0.698   0.405   6.160 -2.2413 -1.5458  0.7414
  102OSM   C13S10248   0.678   0.585   6.025  0.2855 -0.3581  0.2101
  102OSM   H13S10249   0.694   0.505   5.950  1.3935 -0.0164  0.0760
  102OSM   H13T10250   0.781   0.625   6.019 -0.2641  0.9488 -0.9542
  102OSM   C14S10251   0.574   0.687   5.987 -0.7644 -0.2445  0.7909
  102OSM   H14S10252   0.617   0.785   6.019 -0.9660  0.0667  0.1398
  102OSM   H14T10253   0.480   0.671   6.043 -0.1849 -2.4266  1.2291
  102OSM   C15S10254   0.542   0.704   5.839 -0.1518 -0.1750 -0.2154
  102OSM   H15S10255   0.626   0.675   5.772 -0.3639  2.0439 -1.5139
  102OSM   H15T10256   0.527   0.812   5.821  4.4513  0.4486 -1.3999
  102OSM   C16S10257   0.420   0.620   5.796 -0.2560  0.0379 -0.3107
  102OSM   H16S10258   0.336   0.651   5.863 -1.3017 -1.7036 -0.7462
  102OSM   H16T10259   0.434   0.510   5.807 -0.2283  0.0121 -0.5940
  102OSM   C17S10260   0.370   0.652   5.648  0.2986 -0.1630 -0.6255
  102OSM   H17S10261   0.444   0.621   5.572 -0.5348  1.6888 -2.2948
  102OSM   H17T10262   0.361   0.763   5.646 -0.3842 -0.1226  1.6790
  102OSM   C18S10263   0.235   0.582   5.614  0.1303 -0.9983 -0.0676
  102OSM   H18S10264   0.162   0.605   5.695  1.7625  0.1731  1.1296
  102OSM   H18T10265   0.258   0.473   5.616  0.9263 -0.8644 -1.0676
  102OSM   H18U10266   0.195   0.621   5.518  0.9912  0.7639  0.2561
  102OSM    C1F10267   0.686   1.322   6.932  0.1524 -0.1700  0.2807
  102OSM     OF10268   0.787   1.318   7.003  0.0702  0.1062  0.0286
  102OSM    C2F10269   0.644   1.408   6.819  0.1746 -0.4189  1.1031
  102OSM    H2F10270   0.590   1.499   6.854 -0.0145 -0.6909  1.5242
  102OSM    H2G10271   0.572   1.357   6.751  1.9521 -1.3796 -0.1199
  102OSM    C3F10272   0.758   1.437   6.718 -0.6613  0.0233 -0.5041
  102OSM    H3F10273   0.817   1.343   6.721  0.2626  0.6178  0.5904
  102OSM    H3G10274   0.828   1.509   6.765  1.4015 -2.5547  0.6403
  102OSM    C4F10275   0.720   1.475   6.572 -0.5546 -0.4945  0.2241
  102OSM    H4F10276   0.781   1.558   6.531  1.0401 -1.4230  0.6062
  102OSM    H4G10277   0.616   1.512   6.584 -0.5289 -1.2814  3.8908
  102OSM    C5F10278   0.724   1.354   6.479 -0.1078 -0.6756  0.4150
  102OSM    H5F10279   0.670   1.272   6.532  1.4550 -2.2509 -0.3163
  102OSM    H5G10280   0.829   1.319   6.471 -0.0020 -0.4987  1.0263
  102OSM    C6F10281   0.661   1.387   6.333 -0.0233 -0.2389 -0.4347
  102OSM    H6F10282   0.566   1.440   6.354  0.3984  0.3291  0.0628
  102OSM    H6G10283   0.635   1.293   6.280  1.7074 -0.8860 -0.2113
  102OSM    C7F10284   0.755   1.468   6.238 -0.0820 -0.1380 -0.1136
  102OSM    H7F10285   0.839   1.399   6.213  0.8841  0.1948  1.9707
  102OSM    H7G10286   0.794   1.555   6.294 -0.0458  0.2999 -0.8161
  102OSM    C8F10287   0.688   1.530   6.118  0.2205 -0.4353 -0.4783
  102OSM    H8F10288   0.752   1.601   6.061 -1.2241  1.8181  0.6077
  102OSM    H8G10289   0.609   1.596   6.160  1.3039 -0.2411  1.3663
  102OSM    C9F10290   0.626   1.431   6.029  0.3346  0.1013  0.4569
  102OSM    H9F10291   0.546   1.370   6.075 -2.9695  1.9134 -2.4091
  102OSM   C10F10292   0.673   1.400   5.906 -0.1063  0.1406  0.3136
  102OSM   H10F10293   0.617   1.328   5.845 -0.4776  0.7085 -0.0302
  102OSM   C11F10294   0.780   1.469   5.829 -0.4900 -0.2599 -0.2308
  102OSM   H11F10295   0.824   1.408   5.748  0.6187 -0.1047  0.2357
  102OSM   H11G10296   0.864   1.487   5.901 -1.3930 -2.9885  1.6662
  102OSM   C12F10297   0.727   1.594   5.752  0.0431  0.2917 -0.2427
  102OSM   H12F10298   0.705   1.665   5.835 -0.8374 -1.9226  1.5500
  102OSM   H12G10299   0.633   1.584   5.695 -1.2328  1.5784  1.5254
  102OSM   C13F10300   0.828   1.648   5.654  0.3384 -0.2939 -0.4219
  102OSM   H13F10301   0.914   1.669   5.720 -0.4284  0.7089  0.2960
  102OSM   H13G10302   0.783   1.744   5.618  0.1677  0.4275  1.5984
  102OSM   C14F10303   0.886   1.560   5.548  0.8679  1.3284 -0.0224
  102OSM   H14F10304   0.804   1.501   5.503 -0.4150  3.1291 -0.1340
  102OSM   H14G10305   0.964   1.492   5.589  0.2901 -0.5176 -1.8431
  102OSM   C15F10306   0.953   1.635   5.428  0.3765  0.5944  0.5967
  102OSM   H15F10307   1.011   1.721   5.468 -1.8496  1.8867  1.2118
  102OSM   H15G10308   0.870   1.681   5.371  1.2238  1.1540 -0.2286
  102OSM   C16F10309   1.030   1.550   5.331 -0.7812 -0.2087  0.1149
  102OSM   H16F10310   1.125   1.511   5.374  0.8051 -0.0381 -2.9236
  102OSM   H16G10311   1.045   1.614   5.241 -0.5969 -0.3340  0.0556
  102OSM   C17F10312   0.951   1.430   5.277 -0.1563 -0.4740  0.2122
  102OSM   H17F10313   0.851   1.475   5.262  0.7419  1.5843  0.0758
  102OSM   H17G10314   0.923   1.354   5.353 -1.4834  0.1776  0.4084
  102OSM   C18F10315   1.000   1.372   5.148 -0.2260 -0.2259 -0.4342
  102OSM   H18F10316   0.949   1.275   5.129 -1.8411  0.4897  0.1624
  102OSM   H18G10317   1.108   1.346   5.161  0.0083  0.0961 -1.6016
  102OSM   H18H10318   0.985   1.445   5.066  0.0406  1.0864  0.6573
  103OSM      N10319   6.599   2.600   7.728 -0.0813 -0.0613 -0.2231
  103OSM    C1510320   6.509   2.475   7.701 -0.1141 -0.2927 -0.0535
  103OSM   H15A10321   6.435   2.457   7.779  2.5404  0.5464  2.8386
  103OSM   H15B10322   6.575   2.390   7.703 -0.2499 -0.4203 -0.6269
  103OSM   H15C10323   6.452   2.481   7.609  0.8127  1.5883 -0.5530
  103OSM    C1410324   6.521   2.719   7.752  0.2573  0.4376 -0.0719
  103OSM   H14A10325   6.449   2.729   7.672  0.6206  0.5363 -0.3892
  103OSM   H14B10326   6.580   2.809   7.747  0.7559  0.0356 -2.8272
  103OSM   H14C10327   6.487   2.727   7.854  2.6526  1.3847  0.7133
  103OSM    C1310328   6.685   2.574   7.847  0.6681  0.2111 -0.6422
  103OSM   H13A10329   6.624   2.538   7.928  4.0375  1.3231  2.6639
  103OSM   H13B10330   6.729   2.665   7.885 -2.2599  0.4123  2.7596
  103OSM   H13C10331   6.765   2.504   7.829  1.1771  0.1919  1.5220
  103OSM    C1210332   6.690   2.617   7.603 -1.0957  0.1585 -0.5048
  103OSM   H12A10333   6.625   2.647   7.522 -1.0690  2.0288  0.1160
  103OSM   H12B10334   6.750   2.529   7.589  0.5395  1.0304  0.7618
  103OSM    C1110335   6.801   2.731   7.622 -0.3494  0.2061  0.2644
  103OSM   H11A10336   6.869   2.719   7.535 -0.9123 -2.0958  0.0950
  103OSM   H11B10337   6.862   2.714   7.714  0.8531 -1.4881 -0.8085
  103OSM      P10338   6.712   2.947   7.510  0.1081  0.4619 -0.0035
  103OSM    O1310339   6.569   2.925   7.491 -0.3054 -0.4389  0.2078
  103OSM    O1410340   6.750   3.087   7.536  0.2834 -0.2041  0.4774
  103OSM    O1110341   6.784   2.884   7.388  0.4687 -0.8439 -0.0651
  103OSM    O1210342   6.746   2.863   7.635 -0.0598 -0.1881 -0.4649
  103OSM    C1S10343   6.819   2.969   7.272  0.5347  0.4320 -0.5563
  103OSM    H1S10344   6.907   3.034   7.293  1.1353 -1.3189  3.2691
  103OSM    H1T10345   6.733   3.033   7.243 -0.2448 -0.3767 -0.0959
  103OSM     NF10346   6.889   2.970   7.040  0.2066 -0.0868 -0.0802
  103OSM    HNF10347   6.813   2.978   6.976 -0.5244  1.7105  0.9200
  103OSM    C2S10348   6.861   2.883   7.148  0.6142  0.0772 -0.1808
  103OSM    H2S10349   6.954   2.826   7.169  0.6629  1.0168  2.5889
  103OSM    C3S10350   6.746   2.779   7.116  0.3374 -0.5270 -0.2854
  103OSM    H3S10351   6.661   2.844   7.090  0.9784 -0.3949 -2.2416
  103OSM     O310352   6.718   2.687   7.218 -0.2024 -0.2599 -0.1798
  103OSM    HO310353   6.761   2.733   7.291 -1.2416  2.3191 -1.0865
  103OSM    C4S10354   6.793   2.698   6.999 -0.2975  0.7265  0.1719
  103OSM    H4S10355   6.893   2.652   7.009 -0.6351  0.2704  1.9671
  103OSM    C5S10356   6.711   2.668   6.896 -0.1356 -0.3199 -0.2001
  103OSM    H5S10357   6.605   2.695   6.891  0.0843  0.5178 -0.6264
  103OSM    C6S10358   6.756   2.607   6.772 -0.1043 -0.2047  0.5774
  103OSM    H6S10359   6.687   2.520   6.764  0.3266 -0.5642  0.6884
  103OSM    H6T10360   6.862   2.576   6.784  0.1755  0.6414  0.3429
  103OSM    C7S10361   6.755   2.695   6.647 -0.4845 -0.8303  0.6498
  103OSM    H7S10362   6.818   2.786   6.655  0.3777 -1.3859  0.3550
  103OSM    H7T10363   6.653   2.739   6.640 -1.1314 -2.2812  0.4326
  103OSM    C8S10364   6.793   2.618   6.514 -0.8546 -0.1711 -0.0821
  103OSM    H8S10365   6.877   2.549   6.532 -0.7433 -0.0147  0.0030
  103OSM    H8T10366   6.817   2.691   6.434  2.0051 -2.6317 -1.6139
  103OSM    C9S10367   6.673   2.548   6.451  0.5484  0.2666  0.1500
  103OSM    H9S10368   6.585   2.615   6.438  1.2195  1.1649  0.1574
  103OSM    H9T10369   6.626   2.469   6.513  0.9832  1.3295  1.8943
  103OSM   C10S10370   6.704   2.490   6.308 -0.1506  0.4203  0.2158
  103OSM   H10S10371   6.747   2.388   6.320  1.2744  0.8570 -0.9285
  103OSM   H10T10372   6.776   2.555   6.253  1.9995 -2.1817 -0.2602
  103OSM   C11S10373   6.581   2.481   6.215 -0.3999 -0.7959 -0.9399
  103OSM   H11S10374   6.544   2.586   6.215 -0.9131 -0.8949  1.9078
  103OSM   H11T10375   6.509   2.417   6.271  0.1466 -1.7054 -1.2598
  103OSM   C12S10376   6.601   2.427   6.070  0.1696  0.4999  0.2263
  103OSM   H12S10377   6.657   2.331   6.077  2.4673  1.7055 -0.6160
  103OSM   H12T10378   6.674   2.490   6.014 -0.2582  1.6179  0.8868
  103OSM   C13S10379   6.470   2.403   6.008  0.2896 -0.4955  0.3170
  103OSM   H13S10380   6.395   2.484   5.998 -0.6859 -1.4947 -0.8045
  103OSM   H13T10381   6.411   2.332   6.071 -0.6248  0.3169  0.4029
  103OSM   C14S10382   6.480   2.341   5.866 -1.0900 -0.6548 -0.1514
  103OSM   H14S10383   6.534   2.244   5.878 -1.0809 -0.4786  1.4113
  103OSM   H14T10384   6.550   2.396   5.800 -0.2639 -1.1098  0.3300
  103OSM   C15S10385   6.361   2.318   5.771  0.6169 -0.5644  0.1008
  103OSM   H15S10386   6.304   2.413   5.770  2.9748  0.9715  1.6511
  103OSM   H15T10387   6.301   2.236   5.816  0.4462 -0.0609  0.8089
  103OSM   C16S10388   6.408   2.287   5.626  0.4309 -0.4971 -0.3884
  103OSM   H16S10389   6.481   2.203   5.624  0.6753 -0.3311  0.6542
  103OSM   H16T10390   6.462   2.373   5.580 -0.0933 -0.4319 -0.8846
  103OSM   C17S10391   6.291   2.265   5.528  1.0133 -0.0582  0.4021
  103OSM   H17S10392   6.335   2.249   5.427  0.7995 -0.8736  0.4261
  103OSM   H17T10393   6.216   2.346   5.527  2.0165  0.8900 -0.8715
  103OSM   C18S10394   6.235   2.125   5.544 -0.6855  0.5012 -0.0382
  103OSM   H18S10395   6.176   2.110   5.637 -0.9883 -2.2856 -0.5839
  103OSM   H18T10396   6.323   2.059   5.555 -0.8842  0.3928  1.0564
  103OSM   H18U10397   6.174   2.082   5.461 -1.0594  0.5151  0.2237
  103OSM    C1F10398   7.005   3.048   7.033  0.8213  0.4914 -0.2486
  103OSM     OF10399   7.102   3.038   7.104 -0.5213  0.4269 -0.3065
  103OSM    C2F10400   7.004   3.148   6.921 -0.5432 -0.0953  0.7002
  103OSM    H2F10401   7.058   3.242   6.946  2.0587 -0.7322 -2.0001
  103OSM    H2G10402   6.899   3.176   6.897 -0.2665 -0.3532 -0.9193
  103OSM    C3F10403   7.065   3.085   6.794  0.4795  0.0538 -0.1893
  103OSM    H3F10404   7.169   3.047   6.805  0.5351  0.3268  0.2441
  103OSM    H3G10405   7.079   3.167   6.720  1.5422  0.1947  0.1522
  103OSM    C4F10406   6.984   2.968   6.730 -0.5955 -0.3096 -0.5407
  103OSM    H4F10407   6.878   3.003   6.727 -0.7864 -0.6107  1.5321
  103OSM    H4G10408   6.989   2.884   6.803  2.0297  2.1272  2.3459
  103OSM    C5F10409   7.056   2.911   6.606  0.0573  0.2638  0.1271
  103OSM    H5F10410   7.029   2.804   6.588  2.5604 -0.2423 -1.0308
  103OSM    H5G10411   7.160   2.907   6.644 -0.8458 -0.8510  2.7744
  103OSM    C6F10412   7.054   2.998   6.482 -0.8302  0.2068 -1.1054
  103OSM    H6F10413   7.155   2.972   6.445  0.6948  3.2470  0.4753
  103OSM    H6G10414   7.050   3.107   6.505  1.0568  0.2376 -0.6994
  103OSM    C7F10415   6.936   2.971   6.393 -0.4565  0.0750  0.0679
  103OSM    H7F10416   6.852   3.017   6.451 -0.7755 -1.3305  0.7625
  103OSM    H7G10417   6.903   2.868   6.366 -0.6984  0.4325 -1.0824
  103OSM    C8F10418   6.945   3.044   6.258 -0.0178 -0.3964  0.6801
  103OSM    H8F10419   7.025   2.995   6.198  1.6353  1.4470  1.2890
  103OSM    H8G10420   6.979   3.149   6.269 -2.5452  0.4115  1.4151
  103OSM    C9F10421   6.812   3.056   6.187 -0.1336 -0.1739  0.8336
  103OSM    H9F10422   6.753   3.140   6.226  1.4080  0.8236  1.0871
  103OSM   C10F10423   6.776   2.990   6.073  0.5553 -0.3227 -0.5733
  103OSM   H10F10424   6.679   3.020   6.030 -0.6941 -1.6081  1.1951
  103OSM   C11F10425   6.839   2.875   6.006  0.3474  0.1870  0.1831
  103OSM   H11F10426   6.902   2.817   6.077 -1.3391 -1.6340  0.2651
  103OSM   H11G10427   6.910   2.905   5.926  3.0032  2.7813  3.2135
  103OSM   C12F10428   6.734   2.772   5.951 -0.2457  0.0118  0.4401
  103OSM   H12F10429   6.647   2.757   6.019 -0.6697  0.4435 -0.0016
  103OSM   H12G10430   6.784   2.673   5.945  0.6228  0.4127  0.9458
  103OSM   C13F10431   6.686   2.799   5.816  0.2989 -0.2551 -0.0857
  103OSM   H13F10432   6.765   2.823   5.741  0.4826 -1.6502 -0.3611
  103OSM   H13G10433   6.625   2.892   5.826  0.3780 -0.0199 -1.5010
  103OSM   C14F10434   6.600   2.682   5.760  0.0572 -1.0689  0.2289
  103OSM   H14F10435   6.540   2.630   5.839 -1.5448 -1.3962 -1.1460
  103OSM   H14G10436   6.673   2.607   5.723  0.5759  0.4749 -2.0476
  103OSM   C15F10437   6.509   2.707   5.642 -0.0879  0.9907 -0.0268
  103OSM   H15F10438   6.442   2.792   5.671 -2.1909 -1.0761  1.5131
  103OSM   H15G10439   6.455   2.610   5.637  0.2665  0.7836 -5.0728
  103OSM   C16F10440   6.567   2.719   5.498 -0.1876 -0.3770 -0.6481
  103OSM   H16F10441   6.658   2.655   5.484  1.9880  2.8617 -2.6168
  103OSM   H16G10442   6.602   2.822   5.478  3.7434 -1.2696  0.5638
  103OSM   C17F10443   6.467   2.685   5.394 -0.1868 -0.1090  0.1741
  103OSM   H17F10444   6.388   2.760   5.373 -0.3563  0.0208  1.2130
  103OSM   H17G10445   6.412   2.590   5.409 -0.7167  0.2778  0.7322
  103OSM   C18F10446   6.529   2.650   5.257  0.7314 -0.8176  0.1304
  103OSM   H18F10447   6.605   2.572   5.278  0.9384 -0.2615  1.6146
  103OSM   H18G10448   6.567   2.736   5.198 -1.2412 -1.7101 -2.6244
  103OSM   H18H10449   6.449   2.608   5.193 -0.2271  0.0075  0.7386
  104OSM      N10450   6.818   1.148   7.139 -0.1052  0.0122  0.2080
  104OSM    C1510451   6.801   1.025   7.222  0.6300 -0.0051 -0.0453
  104OSM   H15A10452   6.899   0.989   7.250  1.4484 -0.3391 -2.9864
  104OSM   H15B10453   6.755   0.945   7.166  1.1169  0.4086 -1.0642
  104OSM   H15C10454   6.741   1.041   7.310  0.2221 -3.6730  0.4783
  104OSM    C1410455   6.679   1.206   7.116  0.2182 -0.2230  0.9281
  104OSM   H14A10456   6.617   1.218   7.204 -0.3354 -0.8003  0.6252
  104OSM   H14B10457   6.619   1.135   7.062  0.2581 -1.7551  2.7632
  104OSM   H14C10458   6.689   1.299   7.062 -0.0751 -0.0280  1.2041
  104OSM    C1310459   6.897   1.261   7.203 -0.1832 -0.1444  0.1768
  104OSM   H13A10460   6.990   1.227   7.247  0.1339  0.3174 -0.1355
  104OSM   H13B10461   6.828   1.302   7.276  1.1731 -0.5700  1.7466
  104OSM   H13C10462   6.917   1.345   7.138 -0.6665 -2.4880 -3.2758
  104OSM    C1210463   6.882   1.114   7.003 -0.3491 -0.6118 -0.5515
  104OSM   H12A10464   6.872   1.199   6.937  3.1421  2.7776  2.7349
  104OSM   H12B10465   6.831   1.029   6.959 -3.8136  1.0979 -0.2323
  104OSM    C1110466   7.033   1.086   6.997 -0.0899  0.0530  0.0674
  104OSM   H11A10467   7.093   1.170   7.039  1.3333 -1.5605  1.3925
  104OSM   H11B10468   7.058   1.078   6.889  2.0345  1.7008  0.3585
  104OSM      P10469   7.030   0.815   7.032  0.0379  0.2238  0.4394
  104OSM    O1310470   7.142   0.726   6.995 -0.1548 -0.1320 -0.8973
  104OSM    O1410471   6.948   0.768   7.141  0.0921 -0.2582 -0.6367
  104OSM    O1110472   6.936   0.818   6.900  0.7833  0.3224 -0.0968
  104OSM    O1210473   7.070   0.969   7.065  0.1289  0.1617  0.2635
  104OSM    C1S10474   6.912   0.701   6.826 -0.3021  0.2134  0.4231
  104OSM    H1S10475   6.837   0.636   6.876  0.3887 -0.8321  0.1318
  104OSM    H1T10476   7.002   0.638   6.807  0.5523  1.8854 -1.4656
  104OSM     NF10477   6.824   0.616   6.614  0.1851  0.2197  0.4032
  104OSM    HNF10478   6.892   0.567   6.560  0.0928 -1.6022  1.8710
  104OSM    C2S10479   6.871   0.737   6.681 -0.3236  0.2467  0.2578
  104OSM    H2S10480   6.782   0.804   6.684 -0.2040  0.3754  1.2624
  104OSM    C3S10481   6.990   0.821   6.614  0.1751 -0.4160 -0.2551
  104OSM    H3S10482   7.080   0.767   6.650  0.4227  2.4985  4.2296
  104OSM     O310483   7.016   0.945   6.670  0.0621 -0.1376  0.2595
  104OSM    HO310484   6.945   0.959   6.734 -1.0165  0.6331 -1.0451
  104OSM    C4S10485   6.976   0.829   6.467  0.0146 -0.2510 -0.3392
  104OSM    H4S10486   7.037   0.757   6.410  0.1275  1.0797 -1.9799
  104OSM    C5S10487   6.900   0.909   6.395  0.1978  0.1490  0.1214
  104OSM    H5S10488   6.815   0.963   6.439 -1.5582 -1.6832 -0.8692
  104OSM    C6S10489   6.888   0.912   6.246  0.4103 -0.5409  0.0599
  104OSM    H6S10490   6.949   0.828   6.206  0.2495  0.1805 -1.7772
  104OSM    H6T10491   6.933   0.998   6.192 -1.4333 -1.4714 -3.3101
  104OSM    C7S10492   6.740   0.897   6.202 -0.2505 -0.1030  0.0433
  104OSM    H7S10493   6.670   0.981   6.219  0.5135  0.3686  0.9948
  104OSM    H7T10494   6.694   0.810   6.254  3.1980 -3.1560 -1.4955
  104OSM    C8S10495   6.736   0.861   6.053  0.0977 -0.2040  0.7152
  104OSM    H8S10496   6.792   0.767   6.033 -0.8180 -0.4982 -0.5839
  104OSM    H8T10497   6.781   0.940   5.989  0.9600 -2.4051 -1.5529
  104OSM    C9S10498   6.590   0.839   6.002  0.3283 -0.4138  0.5167
  104OSM    H9S10499   6.529   0.917   6.051  0.4634  0.5150 -0.7189
  104OSM    H9T10500   6.545   0.750   6.050  1.0435  0.4763  2.9885
  104OSM   C10S10501   6.583   0.833   5.849 -0.4759 -0.3420  0.0039
  104OSM   H10S10502   6.645   0.758   5.796 -2.4149 -2.3480  0.4229
  104OSM   H10T10503   6.625   0.922   5.797  1.5768 -1.5958 -0.5990
  104OSM   C11S10504   6.435   0.818   5.793 -0.0287 -0.5999 -0.7499
  104OSM   H11S10505   6.377   0.901   5.839  3.3220  1.4721  0.1682
  104OSM   H11T10506   6.398   0.727   5.843 -0.1074 -0.1439  0.0489
  104OSM   C12S10507   6.415   0.822   5.648 -0.0700  0.5695  0.2758
  104OSM   H12S10508   6.489   0.746   5.614 -0.2516 -1.0907  3.2334
  104OSM   H12T10509   6.440   0.921   5.604  2.0523  1.0551  2.3664
  104OSM   C13S10510   6.265   0.779   5.610  0.5999  0.2007 -0.5254
  104OSM   H13S10511   6.200   0.869   5.607 -1.0793 -0.9726 -0.5993
  104OSM   H13T10512   6.222   0.708   5.684 -2.3025  2.7127  0.4471
  104OSM   C14S10513   6.262   0.708   5.479  0.0888  0.1119  0.3455
  104OSM   H14S10514   6.287   0.600   5.482 -2.0205 -0.7205 -4.1091
  104OSM   H14T10515   6.327   0.747   5.398 -0.6176 -0.1494 -0.3626
  104OSM   C15S10516   6.126   0.706   5.409 -0.5325 -0.5235 -0.2857
  104OSM   H15S10517   6.124   0.648   5.314  0.9657 -0.9955 -0.0575
  104OSM   H15T10518   6.094   0.809   5.382 -0.3296 -0.1939  0.6636
  104OSM   C16S10519   6.015   0.657   5.503 -0.3811  0.5266 -0.0157
  104OSM   H16S10520   6.006   0.744   5.571  2.1992 -0.4061  1.6730
  104OSM   H16T10521   6.052   0.575   5.567 -2.2804 -0.2537  0.1669
  104OSM   C17S10522   5.877   0.614   5.440 -0.4975  0.6115  0.6972
  104OSM   H17S10523   5.887   0.544   5.354  0.8059 -2.3604  3.0487
  104OSM   H17T10524   5.836   0.704   5.391 -1.2113  0.1937  0.5049
  104OSM   C18S10525   5.779   0.542   5.532  0.4389 -0.1675  0.0704
  104OSM   H18S10526   5.687   0.514   5.476 -0.5873 -1.2909  2.2096
  104OSM   H18T10527   5.733   0.600   5.615 -2.5013 -2.7078  0.3827
  104OSM   H18U10528   5.819   0.449   5.576  0.1848  0.9003  2.6961
  104OSM    C1F10529   6.711   0.548   6.635  0.9732  0.4549 -0.0458
  104OSM     OF10530   6.646   0.566   6.736 -0.1625  0.0243  0.3046
  104OSM    C2F10531   6.676   0.441   6.528 -0.3385 -0.5557 -0.0477
  104OSM    H2F10532   6.680   0.340   6.574 -2.2853 -0.3021  0.7555
  104OSM    H2G10533   6.743   0.445   6.440 -1.3098  0.0732 -0.7871
  104OSM    C3F10534   6.532   0.461   6.467 -0.7008  0.1431 -0.3717
  104OSM    H3F10535   6.468   0.526   6.531  0.6854 -1.0624  2.4024
  104OSM    H3G10536   6.477   0.365   6.464  0.9057 -0.8727  0.9676
  104OSM    C4F10537   6.520   0.519   6.330  0.5948  0.1510  0.2943
  104OSM    H4F10538   6.594   0.601   6.314 -1.4293  1.6417 -2.2018
  104OSM    H4G10539   6.416   0.553   6.311  1.1137  0.2199 -3.0345
  104OSM    C5F10540   6.533   0.403   6.227 -0.7199  0.2811 -0.0717
  104OSM    H5F10541   6.465   0.319   6.251  0.0091 -1.1629 -2.6577
  104OSM    H5G10542   6.633   0.356   6.238 -1.2387 -0.7299  0.4014
  104OSM    C6F10543   6.507   0.444   6.078 -0.1564  0.2178 -0.2550
  104OSM    H6F10544   6.571   0.527   6.042  2.3680 -1.7915 -0.7022
  104OSM    H6G10545   6.399   0.468   6.072 -0.3586 -0.7053 -0.4116
  104OSM    C7F10546   6.534   0.337   5.981 -1.0585 -0.3075  0.0966
  104OSM    H7F10547   6.641   0.309   5.972 -0.6233  0.8136  1.4523
  104OSM    H7G10548   6.515   0.379   5.880  0.9623 -2.1657 -1.1365
  104OSM    C8F10549   6.436   0.216   5.991  0.7291  0.4256 -0.4237
  104OSM    H8F10550   6.430   0.186   6.097 -0.3972  1.5625 -0.1307
  104OSM    H8G10551   6.483   0.134   5.933 -0.3545  0.8880 -2.0443
  104OSM    C9F10552   6.298   0.238   5.930 -0.0483 -0.1290  0.3274
  104OSM    H9F10553   6.215   0.228   6.001 -0.5062  1.9853  0.1470
  104OSM   C10F10554   6.256   0.265   5.805 -0.3359 -0.2673 -0.4149
  104OSM   H10F10555   6.147   0.276   5.791 -0.1775  1.6203 -0.3836
  104OSM   C11F10556   6.342   0.274   5.682  0.1351 -0.1073 -0.1626
  104OSM   H11F10557   6.422   0.196   5.688 -0.8725 -1.2660 -1.3920
  104OSM   H11G10558   6.392   0.372   5.665 -1.3951  0.2976 -2.8544
  104OSM   C12F10559   6.254   0.252   5.551 -0.6812  0.1233  0.4242
  104OSM   H12F10560   6.319   0.287   5.467 -0.0665  0.6504  1.1084
  104OSM   H12G10561   6.158   0.307   5.552  0.1703  1.7088 -0.3814
  104OSM   C13F10562   6.201   0.111   5.521  0.4570  1.0210  0.5896
  104OSM   H13F10563   6.127   0.121   5.439 -0.2398  1.3801  1.2457
  104OSM   H13G10564   6.147   0.083   5.614  0.3138  0.1355  0.2487
  104OSM   C14F10565   6.314   0.006   5.497 -0.3187 -0.0942  0.0846
  104OSM   H14F10566   6.354  -0.027   5.596 -3.1540  0.8516  1.6693
  104OSM   H14G10567   6.395   0.060   5.443 -0.1462  0.5368  0.9498
  104OSM   C15F10568   6.260  -0.121   5.431 -0.9085 -0.2591 -0.1827
  104OSM   H15F10569   6.219  -0.089   5.332 -2.6714 -1.5589  0.0868
  104OSM   H15G10570   6.171  -0.157   5.486 -1.0025  0.2765  0.0190
  104OSM   C16F10571   6.362  -0.233   5.428 -0.5579 -0.0531 -0.4894
  104OSM   H16F10572   6.304  -0.322   5.393  0.1778 -0.8059  0.1525
  104OSM   H16G10573   6.397  -0.256   5.531 -0.4286  0.0468 -0.5108
  104OSM   C17F10574   6.487  -0.198   5.347  0.1427  0.1758  0.3269
  104OSM   H17F10575   6.540  -0.111   5.393  0.7180  0.0844 -0.1524
  104OSM   H17G10576   6.460  -0.171   5.242 -0.5676  1.2979  0.7753
  104OSM   C18F10577   6.584  -0.314   5.335  1.1879 -0.3344 -0.2882
  104OSM   H18F10578   6.629  -0.317   5.234  1.7142 -1.2665 -0.0406
  104OSM   H18G10579   6.539  -0.411   5.364  2.8185 -0.4835  2.0044
  104OSM   H18H10580   6.665  -0.307   5.411  1.2417  0.6696 -0.4236
  105OSM      N10581   2.456   4.424   7.752  0.0970  0.1085  0.0162
  105OSM    C1510582   2.559   4.328   7.704  1.4328  0.2078  0.8150
  105OSM   H15A10583   2.627   4.292   7.779 -0.5780 -0.8739  2.2100
  105OSM   H15B10584   2.614   4.377   7.625  2.6411 -0.8461  0.9688
  105OSM   H15C10585   2.505   4.243   7.666 -1.4328  1.8342  0.9025
  105OSM    C1410586   2.368   4.366   7.869 -0.0582  0.5618  0.0060
  105OSM   H14A10587   2.297   4.294   7.832  0.8318  0.2262 -1.1112
  105OSM   H14B10588   2.315   4.449   7.914 -0.6941  0.8600 -1.2387
  105OSM   H14C10589   2.431   4.318   7.942 -0.4027 -0.3959 -0.3171
  105OSM    C1310590   2.524   4.540   7.802 -0.5867  0.3659  0.1969
  105OSM   H13A10591   2.614   4.544   7.743 -2.0972  1.4479 -2.1922
  105OSM   H13B10592   2.547   4.522   7.906  1.3078 -2.6624 -0.6118
  105OSM   H13C10593   2.469   4.632   7.786 -0.9918  0.0508 -0.2407
  105OSM    C1210594   2.378   4.468   7.630  0.9868  0.3138 -0.3074
  105OSM   H12A10595   2.353   4.378   7.576  1.1817  0.0162  0.0926
  105OSM   H12B10596   2.437   4.530   7.564  0.6963 -1.1052 -1.9551
  105OSM    C1110597   2.243   4.548   7.662  0.7766 -0.4362  0.4475
  105OSM   H11A10598   2.188   4.476   7.726 -0.5378 -0.2181 -0.4048
  105OSM   H11B10599   2.189   4.574   7.569  1.0556  0.9684  0.6570
  105OSM      P10600   2.282   4.807   7.665 -0.3434 -0.0919 -0.4581
  105OSM    O1310601   2.207   4.910   7.739 -0.0190  0.0454  0.5396
  105OSM    O1410602   2.432   4.831   7.663  0.6216  0.1824 -0.8466
  105OSM    O1110603   2.229   4.784   7.520 -0.5041 -0.1291  0.6633
  105OSM    O1210604   2.262   4.667   7.736 -0.3642  0.5689 -0.4155
  105OSM    C1S10605   2.217   4.900   7.438  0.1146 -0.0992 -0.1738
  105OSM    H1S10606   2.304   4.968   7.454 -0.9188  1.3065 -0.3421
  105OSM    H1T10607   2.122   4.953   7.462 -0.2461 -0.8506  0.0744
  105OSM     NF10608   2.246   4.964   7.195  0.2042 -0.0214 -0.1179
  105OSM    HNF10609   2.170   5.005   7.144  2.3108  2.0930 -1.7909
  105OSM    C2S10610   2.216   4.856   7.292 -0.0216  0.3205  0.3756
  105OSM    H2S10611   2.296   4.782   7.270 -1.1946 -0.3171 -2.1448
  105OSM    C3S10612   2.087   4.783   7.265  0.4640 -0.0019  0.0386
  105OSM    H3S10613   2.002   4.854   7.271  1.4620  1.1876  0.5086
  105OSM     O310614   2.055   4.689   7.358 -0.0585  0.2555  0.4732
  105OSM    HO310615   2.110   4.711   7.434 -1.1442 -1.4031  1.8158
  105OSM    C4S10616   2.095   4.709   7.129  0.0211 -0.0808 -0.0337
  105OSM    H4S10617   2.155   4.617   7.124 -0.8329 -0.6065 -0.7659
  105OSM    C5S10618   2.026   4.749   7.017 -1.1414  0.7976 -0.1551
  105OSM    H5S10619   1.957   4.834   7.023 -1.6317  0.3429  0.7974
  105OSM    C6S10620   2.027   4.679   6.876 -0.0973  0.1665 -0.5306
  105OSM    H6S10621   1.919   4.658   6.859 -0.4780  1.3882  0.2405
  105OSM    H6T10622   2.087   4.586   6.867  1.2623  0.9776 -0.0862
  105OSM    C7S10623   2.086   4.762   6.762 -0.2782  0.2479 -0.0702
  105OSM    H7S10624   2.196   4.772   6.771 -0.2512 -1.2134  1.8241
  105OSM    H7T10625   2.044   4.864   6.766 -2.0607 -0.4478 -0.1499
  105OSM    C8S10626   2.070   4.705   6.615  0.2055 -0.4862  0.0561
  105OSM    H8S10627   1.961   4.698   6.597  0.4253 -3.9593 -0.6049
  105OSM    H8T10628   2.104   4.600   6.607  0.1230 -0.6055  1.1179
  105OSM    C9S10629   2.143   4.786   6.503 -0.2295 -0.4845  0.2329
  105OSM    H9S10630   2.249   4.788   6.534  0.0621 -1.3829 -0.6844
  105OSM    H9T10631   2.101   4.889   6.513 -0.4624 -0.4851 -0.7056
  105OSM   C10S10632   2.117   4.733   6.361  0.1549 -0.4260 -0.7667
  105OSM   H10S10633   2.008   4.730   6.340  0.3263  0.5231 -1.8377
  105OSM   H10T10634   2.159   4.630   6.361  2.2446  0.3510  0.6240
  105OSM   C11S10635   2.168   4.816   6.248  0.5233  0.3656 -0.0848
  105OSM   H11S10636   2.279   4.812   6.249  0.5229 -0.9881 -1.7697
  105OSM   H11T10637   2.134   4.921   6.259  1.7332  0.9735 -1.7393
  105OSM   C12S10638   2.123   4.748   6.125 -0.4146  0.2625  1.0390
  105OSM   H12S10639   2.013   4.748   6.111 -0.1766  1.3050 -1.5112
  105OSM   H12T10640   2.155   4.642   6.127 -1.3784 -0.0294  2.5597
  105OSM   C13S10641   2.189   4.805   5.999 -0.0375 -0.0158 -0.3136
  105OSM   H13S10642   2.299   4.803   6.010  0.0258  1.1211 -0.6847
  105OSM   H13T10643   2.167   4.910   5.973 -0.5803  0.1127  0.6106
  105OSM   C14S10644   2.145   4.722   5.883  0.3888  0.3326  0.0719
  105OSM   H14S10645   2.039   4.726   5.852 -0.1256  0.5520  1.7521
  105OSM   H14T10646   2.191   4.620   5.884  1.9774  1.0103 -0.1536
  105OSM   C15S10647   2.220   4.773   5.763 -0.6021  0.2180  0.7652
  105OSM   H15S10648   2.329   4.762   5.783 -0.6858 -0.1885  1.0069
  105OSM   H15T10649   2.194   4.878   5.737 -0.0429  0.3773  0.8275
  105OSM   C16S10650   2.191   4.696   5.636  0.4120  0.1060 -0.1670
  105OSM   H16S10651   2.084   4.705   5.608 -0.2509  1.1769  2.4595
  105OSM   H16T10652   2.217   4.589   5.648 -1.0686 -0.3203 -0.5417
  105OSM   C17S10653   2.269   4.748   5.512 -0.4119  0.4849  0.4877
  105OSM   H17S10654   2.379   4.747   5.528 -0.5496 -1.1893  1.6394
  105OSM   H17T10655   2.237   4.853   5.502 -0.8325  0.3181  0.0359
  105OSM   C18S10656   2.221   4.680   5.380  0.3653  0.9298 -0.0142
  105OSM   H18S10657   2.283   4.717   5.296  0.9851  1.3071  0.5982
  105OSM   H18T10658   2.117   4.717   5.366  0.3921  0.4371 -1.7550
  105OSM   H18U10659   2.214   4.569   5.373 -1.2073  1.0435 -0.6497
  105OSM    C1F10660   2.366   5.011   7.182 -0.2405  0.6090  0.5911
  105OSM     OF10661   2.461   4.973   7.251  0.4056 -0.0040 -0.3970
  105OSM    C2F10662   2.376   5.104   7.067  0.1410  0.7565  1.0899
  105OSM    H2F10663   2.474   5.156   7.080  1.4482 -1.2677 -0.0304
  105OSM    H2G10664   2.292   5.176   7.059  0.2836  0.7020 -1.7901
  105OSM    C3F10665   2.374   5.024   6.933 -0.4558 -0.2886 -0.4281
  105OSM    H3F10666   2.270   4.988   6.915 -0.1928 -0.9015 -0.7339
  105OSM    H3G10667   2.445   4.940   6.947 -1.8949 -1.6023 -0.7990
  105OSM    C4F10668   2.412   5.109   6.807 -0.1510  0.3479  0.0824
  105OSM    H4F10669   2.504   5.167   6.830  0.7480 -0.7242 -0.6580
  105OSM    H4G10670   2.343   5.193   6.787 -1.4502 -0.4545  0.9968
  105OSM    C5F10671   2.434   5.013   6.685 -0.1418 -0.4821 -0.5265
  105OSM    H5F10672   2.345   4.950   6.662 -0.9785  0.6750 -0.5046
  105OSM    H5G10673   2.517   4.944   6.712 -0.8910 -0.4152  2.2435
  105OSM    C6F10674   2.481   5.099   6.563  0.3111 -0.5967  0.0273
  105OSM    H6F10675   2.562   5.174   6.579 -0.0496 -0.2356  0.1665
  105OSM    H6G10676   2.390   5.158   6.540  0.2551  0.0367  1.7226
  105OSM    C7F10677   2.494   5.011   6.433  0.1866  0.2653  0.0383
  105OSM    H7F10678   2.440   4.916   6.455  0.3121  0.4629  1.2467
  105OSM    H7G10679   2.597   4.974   6.414 -0.1347 -1.8668  1.9885
  105OSM    C8F10680   2.430   5.069   6.306 -0.0885 -0.3842  0.4778
  105OSM    H8F10681   2.322   5.085   6.328 -0.1378  0.3979 -0.2924
  105OSM    H8G10682   2.437   4.981   6.238 -0.9804 -0.4881  0.5152
  105OSM    C9F10683   2.510   5.171   6.224  0.2330  0.2224 -1.2751
  105OSM    H9F10684   2.570   5.241   6.284 -0.3249 -0.0767 -0.3467
  105OSM   C10F10685   2.510   5.190   6.089  0.2433 -0.0657 -0.5154
  105OSM   H10F10686   2.574   5.272   6.055  1.0039 -0.3094  0.2820
  105OSM   C11F10687   2.430   5.107   5.993 -0.2502 -0.0319  0.3577
  105OSM   H11F10688   2.402   5.173   5.908 -1.4445  0.4776  1.1275
  105OSM   H11G10689   2.338   5.069   6.041 -1.2914 -0.8378 -2.0842
  105OSM   C12F10690   2.500   4.980   5.934 -0.0062 -0.2005 -0.0431
  105OSM   H12F10691   2.420   4.936   5.871 -1.9016  1.3285  1.1644
  105OSM   H12G10692   2.508   4.918   6.026 -1.2124  1.1431  1.0260
  105OSM   C13F10693   2.634   4.992   5.867 -0.0715 -0.0089  0.3958
  105OSM   H13F10694   2.708   5.030   5.941 -3.2091  1.0980  3.2560
  105OSM   H13G10695   2.631   5.080   5.799 -0.1135  0.8688  1.4886
  105OSM   C14F10696   2.678   4.879   5.778 -0.6397  0.4174 -0.4430
  105OSM   H14F10697   2.639   4.899   5.676 -0.4439 -1.8256 -0.9969
  105OSM   H14G10698   2.652   4.779   5.818  0.5546 -0.4707 -1.8220
  105OSM   C15F10699   2.832   4.875   5.764 -0.1701  0.6599  0.1429
  105OSM   H15F10700   2.889   4.885   5.859 -0.7582 -2.4035  0.9036
  105OSM   H15G10701   2.871   4.965   5.711 -0.2959  0.0125 -1.0647
  105OSM   C16F10702   2.886   4.756   5.684 -0.0517 -0.1585 -0.0129
  105OSM   H16F10703   2.861   4.664   5.741 -2.2054  1.2711  1.5241
  105OSM   H16G10704   2.994   4.780   5.673 -0.2611  1.7695  1.5169
  105OSM   C17F10705   2.820   4.735   5.548 -0.0472  0.2402 -0.0317
  105OSM   H17F10706   2.828   4.831   5.492 -3.0561  1.1026  0.8149
  105OSM   H17G10707   2.716   4.701   5.568 -0.2060  1.5113  1.4652
  105OSM   C18F10708   2.892   4.619   5.469  0.2719 -0.9458  0.0680
  105OSM   H18F10709   2.999   4.644   5.454 -0.4522  0.6838 -3.3560
  105OSM   H18G10710   2.851   4.602   5.367 -0.0911  0.6531 -0.0781
  105OSM   H18H10711   2.878   4.521   5.518  0.6960 -1.4799 -0.8443
  106OSM      N10712   6.860   6.718   7.617  0.0783  0.0754 -0.2637
  106OSM    C1510713   6.993   6.750   7.555 -0.7273 -0.3736  0.8269
  106OSM   H15A10714   6.992   6.810   7.465  0.8195 -0.1731  0.9149
  106OSM   H15B10715   7.051   6.658   7.555 -0.7227 -0.3696  0.5419
  106OSM   H15C10716   7.059   6.799   7.625 -0.0970  0.0509 -0.0523
  106OSM    C1410717   6.864   6.620   7.732 -0.4895  0.8203  0.9248
  106OSM   H14A10718   6.909   6.666   7.819  1.8111  0.3493  0.0278
  106OSM   H14B10719   6.919   6.531   7.707 -1.1799 -0.0906  2.4608
  106OSM   H14C10720   6.769   6.574   7.756 -0.2681 -0.2954 -0.2471
  106OSM    C1310721   6.810   6.847   7.673  0.2489  0.2262 -0.7300
  106OSM   H13A10722   6.791   6.922   7.598  2.5438  1.5687 -0.0759
  106OSM   H13B10723   6.874   6.890   7.748  0.6947 -2.2165  0.3985
  106OSM   H13C10724   6.711   6.835   7.715  0.2652 -2.0084 -1.1921
  106OSM    C1210725   6.766   6.672   7.510 -0.0854  0.0186  0.2901
  106OSM   H12A10726   6.793   6.575   7.470  2.7713  0.2935  1.3489
  106OSM   H12B10727   6.773   6.740   7.427 -1.4710  0.0113  0.1479
  106OSM    C1110728   6.612   6.666   7.555 -0.1254  0.2052 -0.2769
  106OSM   H11A10729   6.603   6.622   7.656  1.7153 -0.2145 -0.2555
  106OSM   H11B10730   6.572   6.590   7.485  3.2315 -0.4133 -1.7540
  106OSM      P10731   6.540   6.878   7.420  0.3666  0.3728  0.1303
  106OSM    O1310732   6.432   6.975   7.446  0.1644 -0.7247 -0.1625
  106OSM    O1410733   6.671   6.940   7.390  0.3381 -0.4447 -0.7204
  106OSM    O1110734   6.499   6.775   7.308 -0.2252  0.5757 -0.0763
  106OSM    O1210735   6.559   6.799   7.552 -0.2278 -0.1031  0.4356
  106OSM    C1S10736   6.382   6.691   7.313 -0.2297  0.3034 -0.5738
  106OSM    H1S10737   6.301   6.766   7.326  1.1915  1.9234 -0.7539
  106OSM    H1T10738   6.381   6.616   7.395  2.0931 -0.1111 -0.8674
  106OSM     NF10739   6.228   6.570   7.156 -0.0264 -0.2482 -0.2180
  106OSM    HNF10740   6.204   6.475   7.177  0.5373 -0.5323 -0.8315
  106OSM    C2S10741   6.367   6.619   7.175  0.0995  0.5792 -0.6344
  106OSM    H2S10742   6.395   6.692   7.097  2.8352 -0.7245 -0.9831
  106OSM    C3S10743   6.473   6.502   7.171 -0.3621 -0.1051  0.0221
  106OSM    H3S10744   6.461   6.446   7.266  3.5673  0.6732  1.1452
  106OSM     O310745   6.607   6.562   7.160  0.5954 -0.0790  0.0082
  106OSM    HO310746   6.594   6.651   7.194 -1.3503 -0.2425 -0.1722
  106OSM    C4S10747   6.445   6.417   7.051  0.3683 -0.0872 -0.1685
  106OSM    H4S10748   6.411   6.314   7.066  3.1163 -1.0670 -0.2878
  106OSM    C5S10749   6.461   6.452   6.923 -0.4120  0.4227 -0.5535
  106OSM    H5S10750   6.501   6.550   6.890 -1.6378  0.5678 -1.6652
  106OSM    C6S10751   6.432   6.359   6.815 -0.0258  0.5699  0.2286
  106OSM    H6S10752   6.417   6.258   6.857  0.2879  1.0051  1.4021
  106OSM    H6T10753   6.529   6.357   6.760  0.2579  0.6689  0.7229
  106OSM    C7S10754   6.330   6.397   6.711  0.2614 -0.0060 -0.1644
  106OSM    H7S10755   6.236   6.423   6.765  0.2978  1.1860 -0.6638
  106OSM    H7T10756   6.306   6.308   6.648 -0.5642  1.1303 -1.5121
  106OSM    C8S10757   6.356   6.518   6.629  0.5088 -0.1315 -0.5325
  106OSM    H8S10758   6.410   6.590   6.694  1.2071 -0.4625 -0.7290
  106OSM    H8T10759   6.268   6.559   6.575 -0.2047 -2.8123 -1.5596
  106OSM    C9S10760   6.447   6.483   6.515  0.0288  0.0477 -0.1425
  106OSM    H9S10761   6.396   6.398   6.465 -2.3683  1.8614 -0.9600
  106OSM    H9T10762   6.545   6.450   6.557  1.1007  3.1535  0.0745
  106OSM   C10S10763   6.478   6.593   6.416 -0.6267 -0.2376 -0.4253
  106OSM   H10S10764   6.541   6.671   6.464  1.7754 -0.2149 -3.3228
  106OSM   H10T10765   6.385   6.633   6.373 -0.8585  3.1294  2.7098
  106OSM   C11S10766   6.571   6.548   6.300 -0.0846  0.4064  0.2851
  106OSM   H11S10767   6.520   6.471   6.239 -0.5682 -0.0381  1.2236
  106OSM   H11T10768   6.663   6.502   6.341 -1.0920 -0.8519  1.2517
  106OSM   C12S10769   6.603   6.667   6.210 -0.7369  0.4336 -0.4985
  106OSM   H12S10770   6.697   6.647   6.155 -0.0472  1.8642  0.0828
  106OSM   H12T10771   6.632   6.759   6.266  1.6437 -0.5254 -0.0254
  106OSM   C13S10772   6.494   6.702   6.111 -0.1029  0.6673  0.2356
  106OSM   H13S10773   6.397   6.727   6.159 -0.0371  1.8451 -0.2236
  106OSM   H13T10774   6.487   6.614   6.042  1.9851  1.1595 -0.6795
  106OSM   C14S10775   6.528   6.825   6.028 -0.8827 -0.6963 -0.2186
  106OSM   H14S10776   6.636   6.827   6.001 -0.6742  1.4543  0.5385
  106OSM   H14T10777   6.517   6.916   6.092  1.9085 -1.4546  1.5169
  106OSM   C15S10778   6.431   6.830   5.904 -0.3838 -0.6565  0.0017
  106OSM   H15S10779   6.446   6.732   5.854 -0.1701 -0.9875  0.6970
  106OSM   H15T10780   6.469   6.915   5.844 -2.3438 -1.3312 -2.3692
  106OSM   C16S10781   6.283   6.841   5.942  0.4128  0.5341 -0.3311
  106OSM   H16S10782   6.265   6.936   5.997 -1.6722 -0.1452  0.2544
  106OSM   H16T10783   6.238   6.757   6.000 -0.3082  0.4761 -0.9635
  106OSM   C17S10784   6.191   6.848   5.820  0.1141 -0.0291  0.3865
  106OSM   H17S10785   6.192   6.756   5.757  2.1139  1.2936 -1.6632
  106OSM   H17T10786   6.213   6.942   5.765 -0.2397  0.8160  1.6678
  106OSM   C18S10787   6.050   6.862   5.869  0.1848 -0.0315  0.7323
  106OSM   H18S10788   6.023   6.773   5.929  0.2134 -1.2920 -1.0460
  106OSM   H18T10789   5.982   6.881   5.783  0.2288 -2.6626  0.0156
  106OSM   H18U10790   6.037   6.950   5.936  0.0125 -0.8864  1.8415
  106OSM    C1F10791   6.138   6.659   7.119  0.6404  0.1599  0.5434
  106OSM     OF10792   6.161   6.779   7.115 -0.0649 -0.1675  0.5646
  106OSM    C2F10793   6.005   6.608   7.068  0.4944  0.3157  0.5615
  106OSM    H2F10794   5.947   6.594   7.162 -1.7526 -2.9563 -1.1158
  106OSM    H2G10795   6.011   6.510   7.015 -2.6250  0.2833  0.0697
  106OSM    C3F10796   5.932   6.697   6.964 -0.1330  0.1505 -0.4226
  106OSM    H3F10797   5.997   6.714   6.876  2.8977 -1.2809  1.3974
  106OSM    H3G10798   5.912   6.795   7.010 -1.2795  0.1029 -0.7640
  106OSM    C4F10799   5.797   6.646   6.916  0.1238 -0.3553 -0.1744
  106OSM    H4F10800   5.736   6.632   7.008  0.2737  0.2604  0.0236
  106OSM    H4G10801   5.823   6.551   6.865 -0.2856 -0.2576 -0.5761
  106OSM    C5F10802   5.710   6.729   6.819  0.1156 -0.3783 -0.3861
  106OSM    H5F10803   5.685   6.830   6.857  1.8470  0.4133 -1.2289
  106OSM    H5G10804   5.619   6.669   6.800  0.7909 -1.0351 -1.6620
  106OSM    C6F10805   5.786   6.757   6.684  0.3156  1.0836  0.3566
  106OSM    H6F10806   5.811   6.657   6.642 -1.1241 -0.2297  2.4197
  106OSM    H6G10807   5.888   6.801   6.696  1.7253 -1.5571 -1.0794
  106OSM    C7F10808   5.710   6.849   6.591  0.2935  0.4662 -0.0964
  106OSM    H7F10809   5.674   6.929   6.659 -2.2032  0.7722 -1.6731
  106OSM    H7G10810   5.616   6.806   6.549  0.0280  1.0822 -0.1447
  106OSM    C8F10811   5.789   6.907   6.472  0.6253 -0.1949  0.2717
  106OSM    H8F10812   5.864   6.976   6.517  0.2290 -0.0097  0.6553
  106OSM    H8G10813   5.721   6.965   6.407  0.2005  0.2468  1.0956
  106OSM    C9F10814   5.867   6.810   6.389  0.2922  0.3404  0.3016
  106OSM    H9F10815   5.974   6.799   6.413  0.3783 -0.6572 -0.4715
  106OSM   C10F10816   5.826   6.739   6.284  0.2389 -0.1304 -0.1272
  106OSM   H10F10817   5.892   6.686   6.214 -0.4664 -0.0288 -0.8877
  106OSM   C11F10818   5.680   6.759   6.240 -0.2540 -0.4946 -0.5228
  106OSM   H11F10819   5.627   6.853   6.265 -1.4350 -1.2028 -0.2969
  106OSM   H11G10820   5.624   6.672   6.279 -0.9860  0.8661  1.6603
  106OSM   C12F10821   5.663   6.769   6.089 -0.3640 -0.3051  0.1871
  106OSM   H12F10822   5.693   6.677   6.033 -3.1316 -1.1124 -0.1242
  106OSM   H12G10823   5.724   6.854   6.052 -1.2729  0.5785  0.6675
  106OSM   C13F10824   5.519   6.801   6.040 -1.1390  1.1384 -0.0183
  106OSM   H13F10825   5.485   6.899   6.081 -0.9468  0.8154  0.9388
  106OSM   H13G10826   5.448   6.728   6.085 -0.3920 -0.0298 -0.6860
  106OSM   C14F10827   5.503   6.806   5.891  0.3490  0.2272  0.8089
  106OSM   H14F10828   5.482   6.700   5.863 -2.4767  0.5423  1.3780
  106OSM   H14G10829   5.601   6.837   5.850  0.2574  2.5056  2.1071
  106OSM   C15F10830   5.394   6.900   5.840  0.0503 -0.0044  0.1638
  106OSM   H15F10831   5.423   7.001   5.877  0.0286  0.7537 -1.7953
  106OSM   H15G10832   5.298   6.874   5.888 -0.8144  2.2748 -0.2183
  106OSM   C16F10833   5.380   6.884   5.688  0.1128 -0.2667 -0.0968
  106OSM   H16F10834   5.375   6.775   5.667  1.0644  0.0614 -2.3814
  106OSM   H16G10835   5.476   6.914   5.640 -0.7025 -0.1480 -1.7467
  106OSM   C17F10836   5.253   6.947   5.646  1.1618 -0.4242 -0.1228
  106OSM   H17F10837   5.264   7.052   5.679 -0.3457 -0.0235 -0.8056
  106OSM   H17G10838   5.168   6.901   5.700  0.8322  0.4168  0.0754
  106OSM   C18F10839   5.226   6.953   5.496 -0.3652  0.5970  0.1163
  106OSM   H18F10840   5.213   6.852   5.451 -0.8605  1.4139 -1.6848
  106OSM   H18G10841   5.302   7.008   5.436  0.1245  1.8813  1.8564
  106OSM   H18H10842   5.134   7.014   5.481  0.7572  2.3561  0.0110
  107OSM      N10843   1.383   4.921   7.880 -0.1923 -1.0219  0.7184
  107OSM    C1510844   1.399   4.777   7.908 -0.3730 -0.3988  0.4313
  107OSM   H15A10845   1.377   4.743   8.008 -1.1146 -1.7915 -0.1806
  107OSM   H15B10846   1.490   4.736   7.867 -2.1560 -2.3878 -1.8637
  107OSM   H15C10847   1.318   4.724   7.861 -0.6687 -0.1352  0.6432
  107OSM    C1410848   1.255   4.970   7.945 -0.1237  0.9198  0.6370
  107OSM   H14A10849   1.242   4.921   8.041 -0.7761 -0.4091 -0.1000
  107OSM   H14B10850   1.171   4.934   7.887  0.1043 -0.3473  1.0610
  107OSM   H14C10851   1.249   5.077   7.949 -1.6819  0.8274  2.3102
  107OSM    C1310852   1.492   4.993   7.954 -0.2797 -0.2082 -0.1246
  107OSM   H13A10853   1.478   4.974   8.059 -1.6762 -0.6029 -0.3634
  107OSM   H13B10854   1.488   5.100   7.937 -0.6021 -0.1838  0.0962
  107OSM   H13C10855   1.592   4.973   7.919 -0.6196 -1.6258 -0.3488
  107OSM    C1210856   1.376   4.952   7.730 -0.3751 -0.6354  0.1227
  107OSM   H12A10857   1.460   4.899   7.689  0.2962 -1.5077  2.4432
  107OSM   H12B10858   1.388   5.057   7.711 -1.4094 -0.7727 -1.5204
  107OSM    C1110859   1.251   4.910   7.644 -0.4247  0.1220 -0.1767
  107OSM   H11A10860   1.248   4.799   7.646 -1.0275  0.1456  0.6015
  107OSM   H11B10861   1.277   4.921   7.536 -1.7690 -1.0213 -0.6560
  107OSM      P10862   1.063   5.081   7.596  0.0048 -0.6326  0.1914
  107OSM    O1310863   0.920   5.046   7.583  0.2263  0.4858 -0.5292
  107OSM    O1410864   1.098   5.206   7.661  0.3466  0.4494  0.2430
  107OSM    O1110865   1.126   5.079   7.455  0.1463  0.2564  0.4986
  107OSM    O1210866   1.127   4.969   7.672 -0.6420 -0.4936  0.0036
  107OSM    C1S10867   1.084   4.974   7.357 -0.1473  0.4491 -0.0319
  107OSM    H1S10868   1.064   4.879   7.412 -0.8135  0.9025  0.5227
  107OSM    H1T10869   1.165   4.966   7.281 -0.8014  1.1903 -0.8358
  107OSM     NF10870   0.925   4.913   7.175  0.6813  0.9120  0.6188
  107OSM    HNF10871   0.960   4.917   7.081 -0.7468 -0.9058 -0.0494
  107OSM    C2S10872   0.960   5.015   7.269  0.0398 -0.2891 -0.9530
  107OSM    H2S10873   0.884   5.030   7.348  0.0560 -0.6933 -0.8591
  107OSM    C3S10874   0.978   5.154   7.206  0.1612 -0.6862  0.8303
  107OSM    H3S10875   1.068   5.139   7.144  0.6421  0.9705  1.0788
  107OSM     O310876   1.003   5.254   7.304 -0.0841 -0.2646 -0.4231
  107OSM    HO310877   1.035   5.207   7.381  0.9112  2.4613  0.9548
  107OSM    C4S10878   0.865   5.199   7.112 -0.3289 -0.3901 -0.1965
  107OSM    H4S10879   0.883   5.178   7.005  2.5344 -0.2643  0.1846
  107OSM    C5S10880   0.754   5.263   7.142 -0.0207  0.2050 -0.5834
  107OSM    H5S10881   0.739   5.299   7.245 -1.4749 -0.1232 -0.6594
  107OSM    C6S10882   0.652   5.315   7.043  0.3838 -0.6130 -0.3351
  107OSM    H6S10883   0.671   5.423   7.027  1.6063 -0.5733  1.2124
  107OSM    H6T10884   0.552   5.295   7.088  1.6807 -2.2912  2.0151
  107OSM    C7S10885   0.662   5.257   6.903  0.2108  0.0867  0.2716
  107OSM    H7S10886   0.673   5.147   6.909  1.3923  0.1143 -0.9725
  107OSM    H7T10887   0.755   5.290   6.852 -1.3337  1.0453 -2.1198
  107OSM    C8S10888   0.545   5.295   6.816  0.5302 -0.3320  0.2037
  107OSM    H8S10889   0.535   5.404   6.829 -1.0156 -0.1785 -1.7157
  107OSM    H8T10890   0.450   5.256   6.860  1.0357 -2.0209 -0.1186
  107OSM    C9S10891   0.561   5.255   6.670  1.0110 -0.3695 -0.6398
  107OSM    H9S10892   0.469   5.290   6.619  1.1874 -0.0164 -0.7153
  107OSM    H9T10893   0.577   5.145   6.664 -2.4934 -0.9306 -2.1389
  107OSM   C10S10894   0.678   5.323   6.601  0.4354 -0.0723  0.4963
  107OSM   H10S10895   0.770   5.278   6.643  0.4103 -0.0877  0.5351
  107OSM   H10T10896   0.682   5.434   6.611  1.6574 -0.1367  0.8433
  107OSM   C11S10897   0.693   5.282   6.451  0.2233  0.1583 -0.2638
  107OSM   H11S10898   0.699   5.173   6.435  1.7855 -0.6186  4.2134
  107OSM   H11T10899   0.793   5.320   6.421  1.0763 -0.6069  1.4660
  107OSM   C12S10900   0.579   5.350   6.365  0.1798 -0.0006 -0.6180
  107OSM   H12S10901   0.584   5.461   6.358 -1.6453  0.1853  0.2797
  107OSM   H12T10902   0.479   5.324   6.405  0.0512  1.4579  0.0707
  107OSM   C13S10903   0.591   5.289   6.228 -0.0816  0.6655  0.0177
  107OSM   H13S10904   0.564   5.181   6.235 -2.4352  1.1926 -0.0420
  107OSM   H13T10905   0.695   5.297   6.191  0.0172 -1.7254 -0.3885
  107OSM   C14S10906   0.493   5.356   6.124  0.4847  0.3570  0.2649
  107OSM   H14S10907   0.526   5.319   6.025  1.0319 -3.1399  1.6180
  107OSM   H14T10908   0.506   5.467   6.120 -3.0045  0.9548  1.6342
  107OSM   C15S10909   0.343   5.321   6.131 -0.3264 -0.3118 -0.1808
  107OSM   H15S10910   0.303   5.374   6.220 -2.1250  1.4291 -1.9134
  107OSM   H15T10911   0.317   5.214   6.140 -0.7994 -0.0674  1.8569
  107OSM   C16S10912   0.268   5.380   6.008 -0.1850  0.1572 -0.1580
  107OSM   H16S10913   0.159   5.386   6.025 -0.1766 -1.7334  0.7801
  107OSM   H16T10914   0.283   5.307   5.926 -0.9429 -1.4645  1.0854
  107OSM   C17S10915   0.305   5.523   5.969 -0.4562 -0.2496  0.1094
  107OSM   H17S10916   0.410   5.557   5.954  0.1172 -1.3751  1.3470
  107OSM   H17T10917   0.276   5.592   6.051  2.9904  5.6212 -2.8927
  107OSM   C18S10918   0.215   5.578   5.859  0.0012 -0.1332 -0.0338
  107OSM   H18S10919   0.126   5.512   5.846 -0.4063  0.2912  0.5482
  107OSM   H18T10920   0.260   5.566   5.758 -0.1763 -0.4795 -0.0747
  107OSM   H18U10921   0.188   5.681   5.891 -1.8285 -1.1069  1.8593
  107OSM    C1F10922   0.867   4.792   7.214  0.1477  0.0210  0.2067
  107OSM     OF10923   0.816   4.775   7.326  0.1452  0.1982 -0.2072
  107OSM    C2F10924   0.873   4.678   7.117  0.5876  0.6979  0.1562
  107OSM    H2F10925   0.900   4.584   7.169  1.2742 -0.0538 -1.5139
  107OSM    H2G10926   0.955   4.700   7.045 -0.5579 -0.9096 -1.7251
  107OSM    C3F10927   0.743   4.641   7.036 -0.3318 -0.7607 -0.8009
  107OSM    H3F10928   0.696   4.732   6.994 -0.7428 -0.0528  1.0679
  107OSM    H3G10929   0.666   4.599   7.105 -0.5522  1.5861  0.5098
  107OSM    C4F10930   0.767   4.546   6.928 -0.4144  0.5328 -0.0665
  107OSM    H4F10931   0.811   4.458   6.980  0.9895  2.4839  2.2558
  107OSM    H4G10932   0.847   4.567   6.854  0.7827  0.2808  1.1137
  107OSM    C5F10933   0.639   4.502   6.856 -0.3281 -0.9596 -0.7876
  107OSM    H5F10934   0.603   4.570   6.776 -0.6202 -0.3602 -0.1575
  107OSM    H5G10935   0.550   4.509   6.922  1.4349 -0.5896  1.6757
  107OSM    C6F10936   0.650   4.363   6.800  0.4691  0.0757  0.3081
  107OSM    H6F10937   0.681   4.287   6.875  2.4276  0.3967 -0.1182
  107OSM    H6G10938   0.721   4.354   6.715  2.5040  2.7275  1.5666
  107OSM    C7F10939   0.519   4.305   6.750 -0.5597  0.7593  0.7566
  107OSM    H7F10940   0.454   4.292   6.839  0.3878 -2.1551  1.1086
  107OSM    H7G10941   0.533   4.202   6.712 -1.8442  0.5007  0.9410
  107OSM    C8F10942   0.457   4.375   6.625  0.8713 -0.3930 -0.7919
  107OSM    H8F10943   0.514   4.351   6.533  0.4709  0.7775 -1.3648
  107OSM    H8G10944   0.466   4.484   6.640  3.6558 -0.6238 -0.2657
  107OSM    C9F10945   0.314   4.331   6.614  0.0802  0.0591  0.8035
  107OSM    H9F10946   0.280   4.248   6.678  1.5999 -1.4310 -0.2318
  107OSM   C10F10947   0.221   4.394   6.529 -0.0734 -0.5332 -0.2874
  107OSM   H10F10948   0.119   4.354   6.519 -0.7615  1.1973 -0.4444
  107OSM   C11F10949   0.243   4.511   6.435  0.0042 -0.6148 -0.5634
  107OSM   H11F10950   0.339   4.562   6.460 -1.1513  2.0364 -1.1130
  107OSM   H11G10951   0.166   4.587   6.458  0.8698  0.1974 -0.2634
  107OSM   C12F10952   0.238   4.470   6.284 -0.5459  0.6603  0.3236
  107OSM   H12F10953   0.221   4.560   6.221  1.3928 -0.3280 -1.7827
  107OSM   H12G10954   0.155   4.398   6.273 -0.5872  0.1667  3.2235
  107OSM   C13F10955   0.359   4.395   6.228  0.6541  0.0078  0.5650
  107OSM   H13F10956   0.377   4.312   6.300 -1.5291  0.9977  2.3700
  107OSM   H13G10957   0.452   4.454   6.219  0.7655 -0.2237  0.2051
  107OSM   C14F10958   0.343   4.343   6.088 -0.5208 -0.3364  0.5166
  107OSM   H14F10959   0.251   4.284   6.066  1.0207 -2.0836 -1.7030
  107OSM   H14G10960   0.414   4.260   6.067 -2.1587 -1.6320 -0.1615
  107OSM   C15F10961   0.359   4.454   5.989 -0.0140 -0.0656 -0.3155
  107OSM   H15F10962   0.462   4.494   5.994 -0.5989  1.3721  1.6706
  107OSM   H15G10963   0.279   4.528   6.011 -1.2424 -0.7033 -2.3506
  107OSM   C16F10964   0.354   4.412   5.842 -0.1811  0.6439  0.4849
  107OSM   H16F10965   0.284   4.326   5.843 -0.3676  0.7978  1.2870
  107OSM   H16G10966   0.453   4.380   5.803  0.3292  0.2431  2.0342
  107OSM   C17F10967   0.294   4.518   5.749 -0.1394 -0.4564  0.1307
  107OSM   H17F10968   0.184   4.508   5.763  0.0315 -0.7714  1.3732
  107OSM   H17G10969   0.319   4.488   5.645  3.2221  1.8789  0.1261
  107OSM   C18F10970   0.337   4.659   5.780  0.1144 -0.2184 -0.3703
  107OSM   H18F10971   0.448   4.669   5.774  0.1074  0.6533  0.6120
  107OSM   H18G10972   0.294   4.706   5.871  0.4508  1.7235 -1.1532
  107OSM   H18H10973   0.302   4.720   5.694  0.3900 -0.0618 -0.3715
  108OSM      N10974   4.852   5.613   7.878 -0.1665  0.7193  0.2112
  108OSM    C1510975   4.998   5.642   7.853  0.8593  0.5887  0.3391
  108OSM   H15A10976   5.007   5.655   7.746 -2.1355  0.4147 -0.0269
  108OSM   H15B10977   5.061   5.557   7.874 -0.4446 -1.0478 -1.8389
  108OSM   H15C10978   5.032   5.729   7.907  1.5367  1.7810 -1.8985
  108OSM    C1410979   4.827   5.563   8.016  0.1112  0.5462 -0.1689
  108OSM   H14A10980   4.856   5.633   8.094 -0.8990  0.8354 -0.0501
  108OSM   H14B10981   4.874   5.466   8.023 -0.7407  0.1914  0.9801
  108OSM   H14C10982   4.723   5.542   8.032  0.3115  0.5221  1.3332
  108OSM    C1310983   4.774   5.737   7.847  0.2036  0.8274 -0.1106
  108OSM   H13A10984   4.801   5.768   7.747  2.3259  1.8871  0.7276
  108OSM   H13B10985   4.802   5.825   7.903 -2.9713  0.4177  2.4129
  108OSM   H13C10986   4.666   5.739   7.851  0.0111 -3.2508  0.5570
  108OSM    C1210987   4.811   5.492   7.786 -0.4826 -0.6165 -0.4638
  108OSM   H12A10988   4.715   5.458   7.822 -0.5711  0.6131  0.5352
  108OSM   H12B10989   4.872   5.405   7.798 -0.2451 -0.5005 -0.8306
  108OSM    C1110990   4.791   5.523   7.634 -0.3254  0.0004 -0.1807
  108OSM   H11A10991   4.716   5.605   7.631 -0.7767 -0.2867  1.6882
  108OSM   H11B10992   4.739   5.436   7.589  0.4547  0.9689 -3.1183
  108OSM      P10993   5.019   5.458   7.519  0.2409  0.1583 -0.4641
  108OSM    O1310994   5.139   5.533   7.481  0.0999  0.5487 -0.7169
  108OSM    O1410995   5.034   5.363   7.633  0.5701  0.5012  0.6672
  108OSM    O1110996   4.952   5.390   7.385 -0.2415  0.5501  0.0228
  108OSM    O1210997   4.913   5.569   7.568  0.1461  0.3454 -0.4592
  108OSM    C1S10998   4.947   5.475   7.269 -0.0490  0.1178  0.4559
  108OSM    H1S10999   5.048   5.504   7.232  0.0300  2.2054  2.1111
  108OSM    H1T11000   4.904   5.575   7.292 -1.4119 -0.3281 -0.0673
  108OSM     NF11001   4.869   5.531   7.047  0.2981 -0.1137  0.1012
  108OSM    HNF11002   4.791   5.593   7.049  0.3211 -0.0863  0.1715
  108OSM    C2S11003   4.857   5.426   7.140 -0.9090 -0.7987  0.1298
  108OSM    H2S11004   4.890   5.330   7.095 -0.5541 -1.5835  1.9499
  108OSM    C3S11005   4.718   5.404   7.205  0.9103  0.2187  0.9100
  108OSM    H3S11006   4.678   5.500   7.242 -1.6871 -0.4235  0.0071
  108OSM     O311007   4.722   5.324   7.324 -0.5673 -0.1761  0.8078
  108OSM    HO311008   4.817   5.334   7.336  0.0420 -2.9031 -0.7509
  108OSM    C4S11009   4.628   5.337   7.103 -0.2461 -0.4257  0.3869
  108OSM    H4S11010   4.679   5.262   7.041 -0.1031  0.4756 -0.6203
  108OSM    C5S11011   4.502   5.369   7.070 -0.2069 -0.7773 -1.0150
  108OSM    H5S11012   4.464   5.464   7.110 -0.6509 -1.1046 -0.6516
  108OSM    C6S11013   4.415   5.303   6.967 -0.2211 -0.1633  0.2202
  108OSM    H6S11014   4.307   5.296   6.993 -0.2037  0.1385  0.3779
  108OSM    H6T11015   4.470   5.210   6.942  1.4996  0.4568  1.5493
  108OSM    C7S11016   4.397   5.384   6.829  0.0069  0.1846 -0.3790
  108OSM    H7S11017   4.346   5.482   6.844  0.1430 -0.0122  1.5933
  108OSM    H7T11018   4.343   5.318   6.757 -1.1713  0.2308  0.4401
  108OSM    C8S11019   4.524   5.414   6.748 -0.1063  0.1822  0.2511
  108OSM    H8S11020   4.576   5.316   6.745 -0.3877  0.0504 -0.8870
  108OSM    H8T11021   4.577   5.498   6.796 -2.1407  0.8809  1.3970
  108OSM    C9S11022   4.497   5.451   6.607  0.3563 -0.0611  0.5035
  108OSM    H9S11023   4.389   5.473   6.594  0.6690  1.0710 -0.4160
  108OSM    H9T11024   4.532   5.373   6.536  2.2624  0.1580  1.1450
  108OSM   C10S11025   4.588   5.558   6.560 -0.0872  0.4864 -0.6654
  108OSM   H10S11026   4.696   5.532   6.553  0.0985  1.4461 -1.5759
  108OSM   H10T11027   4.595   5.645   6.630  0.0161  0.7391 -0.9881
  108OSM   C11S11028   4.555   5.611   6.418  0.2003 -0.3669 -0.2147
  108OSM   H11S11029   4.617   5.699   6.390 -2.0785  1.1189 -0.9518
  108OSM   H11T11030   4.446   5.632   6.411  0.4044  0.7152 -0.2922
  108OSM   C12S11031   4.572   5.520   6.295 -0.0343 -0.2647 -0.1200
  108OSM   H12S11032   4.487   5.448   6.286 -0.0676 -0.5974  2.2374
  108OSM   H12T11033   4.658   5.452   6.312  0.6110  0.5835  0.0518
  108OSM   C13S11034   4.585   5.597   6.167 -0.4416 -0.6400  0.1468
  108OSM   H13S11035   4.689   5.623   6.139 -0.8337 -0.2131 -0.9702
  108OSM   H13T11036   4.542   5.699   6.166  1.6290  0.2918 -1.3423
  108OSM   C14S11037   4.528   5.512   6.052 -0.0694  0.6129  0.1296
  108OSM   H14S11038   4.420   5.490   6.060 -0.0268  0.3844  0.0887
  108OSM   H14T11039   4.575   5.412   6.065  0.0976  0.8636  1.7348
  108OSM   C15S11040   4.577   5.566   5.920 -0.4956 -0.1869 -0.3717
  108OSM   H15S11041   4.687   5.561   5.905 -0.4902 -0.4921 -0.2431
  108OSM   H15T11042   4.554   5.675   5.915 -0.4179 -0.0592  1.3248
  108OSM   C16S11043   4.503   5.517   5.799 -0.2444  0.2015 -0.2893
  108OSM   H16S11044   4.394   5.518   5.819 -0.7050  0.6590 -2.4910
  108OSM   H16T11045   4.526   5.415   5.762 -0.3674  0.3574 -0.8086
  108OSM   C17S11046   4.529   5.609   5.681 -0.0900 -0.4554  0.1101
  108OSM   H17S11047   4.639   5.606   5.663  0.1992 -0.1572  1.6516
  108OSM   H17T11048   4.475   5.701   5.713 -0.8951 -0.8202 -0.1764
  108OSM   C18S11049   4.458   5.570   5.552  0.4122  0.0227 -0.3062
  108OSM   H18S11050   4.358   5.530   5.578  0.0947  0.0611 -1.4315
  108OSM   H18T11051   4.511   5.509   5.476  1.3561  1.1514 -0.5874
  108OSM   H18U11052   4.429   5.664   5.502 -1.9535 -0.3831  0.1741
  108OSM    C1F11053   4.973   5.556   6.973  0.3270  0.1655 -0.1631
  108OSM     OF11054   5.074   5.491   6.990  0.0051  0.4398 -0.1275
  108OSM    C2F11055   4.961   5.665   6.867  0.3796  0.0465  0.4381
  108OSM    H2F11056   4.944   5.757   6.926 -3.0294 -0.7459  0.8629
  108OSM    H2G11057   4.857   5.654   6.829  0.2818  0.8390  0.4593
  108OSM    C3F11058   5.070   5.656   6.763 -0.2149  0.0027  0.6336
  108OSM    H3F11059   5.065   5.557   6.715  1.5260  0.2956 -0.2391
  108OSM    H3G11060   5.174   5.645   6.801  0.0543  0.1188 -0.0601
  108OSM    C4F11061   5.070   5.762   6.656  0.9564  0.1724 -0.3319
  108OSM    H4F11062   5.142   5.726   6.579  1.2473  2.7678 -1.3739
  108OSM    H4G11063   5.119   5.858   6.684 -1.0472  1.9694 -2.5193
  108OSM    C5F11064   4.933   5.788   6.591 -0.4588 -0.0245  0.3792
  108OSM    H5F11065   4.854   5.827   6.658  0.2757  1.9471  0.1477
  108OSM    H5G11066   4.898   5.696   6.539  1.5490 -2.1224  2.4806
  108OSM    C6F11067   4.943   5.887   6.474  0.4472  0.2077  0.6554
  108OSM    H6F11068   5.028   5.850   6.413 -1.4501 -2.0252 -0.8287
  108OSM    H6G11069   4.965   5.988   6.514 -1.6943  0.7994  0.4431
  108OSM    C7F11070   4.823   5.873   6.382  0.0593  0.8861  0.1278
  108OSM    H7F11071   4.732   5.908   6.434  1.8258 -0.7496  4.7649
  108OSM    H7G11072   4.805   5.773   6.339  1.1274  0.5348  0.4645
  108OSM    C8F11073   4.836   5.968   6.253  0.7229  0.6629  0.3521
  108OSM    H8F11074   4.930   5.942   6.201  0.0104  0.6731 -0.9933
  108OSM    H8G11075   4.850   6.078   6.261  1.1245  0.7226 -0.9781
  108OSM    C9F11076   4.724   5.940   6.151  0.5080  0.2910  0.0246
  108OSM    H9F11077   4.629   5.915   6.201  0.9247 -4.8845 -1.2302
  108OSM   C10F11078   4.726   5.967   6.020 -0.2030 -0.2312 -0.3719
  108OSM   H10F11079   4.641   5.940   5.956  1.0387 -1.4615 -1.5548
  108OSM   C11F11080   4.853   6.012   5.951 -0.0363 -0.5137 -0.5431
  108OSM   H11F11081   4.928   5.933   5.972 -0.4220 -0.2691  1.9691
  108OSM   H11G11082   4.900   6.103   5.993 -1.2444  0.3360 -0.9849
  108OSM   C12F11083   4.850   6.040   5.802  0.1640  1.3319  0.5469
  108OSM   H12F11084   4.933   6.105   5.769  1.2016 -0.7182 -1.0632
  108OSM   H12G11085   4.756   6.095   5.778 -0.3379 -0.4345 -1.9104
  108OSM   C13F11086   4.853   5.911   5.711 -0.3268  0.2846 -0.3048
  108OSM   H13F11087   4.794   5.827   5.754  1.1411  0.2015  1.6494
  108OSM   H13G11088   4.958   5.874   5.716 -0.1521  0.6140 -1.2734
  108OSM   C14F11089   4.818   5.941   5.564  0.1534  0.2059 -0.2193
  108OSM   H14F11090   4.864   6.033   5.523 -0.7776  0.6764 -0.2197
  108OSM   H14G11091   4.707   5.945   5.558  0.1962  1.7147 -0.3766
  108OSM   C15F11092   4.868   5.831   5.468  0.6148 -0.0232  0.1004
  108OSM   H15F11093   4.834   5.851   5.364  1.4673 -1.3246 -0.4459
  108OSM   H15G11094   4.815   5.738   5.496 -1.9049  0.4991 -2.4218
  108OSM   C16F11095   5.016   5.812   5.452  0.6031 -0.5701 -0.3102
  108OSM   H16F11096   5.028   5.718   5.394  2.2781 -2.7337  3.2565
  108OSM   H16G11097   5.055   5.783   5.552  0.6875 -1.6434 -0.6393
  108OSM   C17F11098   5.108   5.917   5.384  0.0406  0.3205 -0.8510
  108OSM   H17F11099   5.104   6.003   5.455  0.7315  0.0662 -0.5037
  108OSM   H17G11100   5.067   5.943   5.284 -2.0291  1.8569  0.2933
  108OSM   C18F11101   5.255   5.881   5.371  0.0763  0.4225  0.4355
  108OSM   H18F11102   5.317   5.964   5.330  2.4268 -0.4095  2.0922
  108OSM   H18G11103   5.263   5.784   5.317  0.8057  1.7614 -2.0296
  108OSM   H18H11104   5.296   5.869   5.473 -3.0425  0.3692  1.7773
  109OSM      N11105   5.352   6.048   7.836 -0.0329  0.2992 -0.1273
  109OSM    C1511106   5.396   5.986   7.712 -0.3019 -0.3692  0.4582
  109OSM   H15A11107   5.390   6.064   7.638  0.1412 -0.3258  0.4638
  109OSM   H15B11108   5.342   5.897   7.683 -0.9948  0.4869 -1.0126
  109OSM   H15C11109   5.503   5.970   7.722 -0.0626  2.2396  3.9615
  109OSM    C1411110   5.206   6.083   7.842  0.1778 -0.4116  0.6038
  109OSM   H14A11111   5.182   6.131   7.748 -1.9253  0.3414  1.4769
  109OSM   H14B11112   5.184   6.142   7.930 -0.5354 -0.5295  0.5118
  109OSM   H14C11113   5.143   5.995   7.844  0.1206 -0.4245 -0.6275
  109OSM    C1311114   5.363   5.943   7.950 -0.1231 -0.3429 -0.5403
  109OSM   H13A11115   5.372   5.987   8.048 -2.9697 -0.0795 -0.3113
  109OSM   H13B11116   5.451   5.884   7.929  0.2719  1.1183 -3.3804
  109OSM   H13C11117   5.275   5.880   7.946 -1.9845  2.1346 -0.8497
  109OSM    C1211118   5.436   6.170   7.870  0.3366 -0.4512  0.4178
  109OSM   H12A11119   5.539   6.140   7.883  1.0719  1.4321 -0.6332
  109OSM   H12B11120   5.397   6.210   7.962 -1.8591  1.1715 -1.1093
  109OSM    C1111121   5.440   6.289   7.763  0.3895 -0.0072  0.6999
  109OSM   H11A11122   5.490   6.381   7.801 -0.5743  0.8535 -0.0747
  109OSM   H11B11123   5.335   6.321   7.751 -0.3199 -2.7518 -1.5469
  109OSM      P11124   5.632   6.249   7.593 -0.2843  0.0409 -0.1861
  109OSM    O1311125   5.685   6.386   7.601 -0.2143 -0.6974 -0.0412
  109OSM    O1411126   5.702   6.151   7.670 -0.4313  0.0652  0.0503
  109OSM    O1111127   5.641   6.203   7.448  0.0945  0.2950  0.5158
  109OSM    O1211128   5.478   6.249   7.631  0.2278 -0.1545  0.1293
  109OSM    C1S11129   5.528   6.178   7.371  0.5479 -0.3990  0.7155
  109OSM    H1S11130   5.467   6.267   7.346 -1.3241 -1.7649  0.1800
  109OSM    H1T11131   5.450   6.115   7.418 -0.7011  1.2004  0.8800
  109OSM     NF11132   5.479   6.168   7.128  0.4243 -0.5863  0.6461
  109OSM    HNF11133   5.417   6.104   7.083 -0.3398 -0.7511  1.8673
  109OSM    C2S11134   5.569   6.118   7.234  0.4230 -0.5083 -0.3284
  109OSM    H2S11135   5.673   6.153   7.214  1.0343 -1.4893  0.9761
  109OSM    C3S11136   5.591   5.962   7.247  0.9499 -0.1330 -0.9057
  109OSM    H3S11137   5.488   5.924   7.234  0.3932  1.3780 -1.0430
  109OSM     O311138   5.647   5.916   7.377  0.7787 -0.1365  0.8637
  109OSM    HO311139   5.694   5.991   7.413  2.1879  0.2024 -1.4598
  109OSM    C4S11140   5.668   5.902   7.124 -0.5315 -0.1360 -0.4741
  109OSM    H4S11141   5.767   5.949   7.114 -0.5324  0.0681  0.3972
  109OSM    C5S11142   5.622   5.816   7.032  0.1058  0.5014 -0.3540
  109OSM    H5S11143   5.514   5.797   7.025 -0.0803  0.9210  1.1218
  109OSM    C6S11144   5.697   5.785   6.903  0.5841  0.1745  0.8209
  109OSM    H6S11145   5.696   5.674   6.906  2.0029  0.1337  0.3327
  109OSM    H6T11146   5.795   5.836   6.914  0.3250  1.3245 -1.5887
  109OSM    C7S11147   5.625   5.849   6.781  0.4249 -0.7306  0.3962
  109OSM    H7S11148   5.520   5.814   6.775 -0.6943  2.2474  0.9899
  109OSM    H7T11149   5.681   5.830   6.686 -0.0037  1.7768 -0.4184
  109OSM    C8S11150   5.611   6.002   6.790  0.0032  0.0958  0.8621
  109OSM    H8S11151   5.710   6.051   6.798  1.6400 -2.0412 -3.0731
  109OSM    H8T11152   5.540   6.032   6.870  0.7662  1.5804  1.0126
  109OSM    C9S11153   5.570   6.059   6.652  0.0620  0.1446 -0.7998
  109OSM    H9S11154   5.626   6.013   6.567  1.0524  1.4395 -0.8977
  109OSM    H9T11155   5.586   6.169   6.654 -2.9976  0.7334 -2.3254
  109OSM   C10S11156   5.420   6.045   6.625 -0.0553 -0.7586 -0.1543
  109OSM   H10S11157   5.356   6.099   6.698 -1.3548  0.8739 -2.3797
  109OSM   H10T11158   5.389   5.939   6.634 -4.4526  0.1737 -1.8125
  109OSM   C11S11159   5.388   6.087   6.484  0.1267 -0.1823  0.0528
  109OSM   H11S11160   5.471   6.042   6.427  0.0709  0.1120 -0.2671
  109OSM   H11T11161   5.403   6.197   6.480 -0.7305 -0.0899 -0.9463
  109OSM   C12S11162   5.250   6.039   6.440 -0.1864 -0.0330  1.0407
  109OSM   H12S11163   5.166   6.076   6.502 -1.3827  0.3212 -0.7306
  109OSM   H12T11164   5.246   5.928   6.435  0.3091 -0.0071 -0.6593
  109OSM   C13S11165   5.224   6.080   6.287 -0.3752 -0.5202 -0.0931
  109OSM   H13S11166   5.151   6.006   6.246 -0.8186  0.9255 -2.0228
  109OSM   H13T11167   5.314   6.055   6.227 -1.6152 -3.3133 -0.9691
  109OSM   C14S11168   5.167   6.223   6.270  0.2329  0.2062  0.6785
  109OSM   H14S11169   5.219   6.290   6.342 -0.2373 -0.3526  1.5565
  109OSM   H14T11170   5.059   6.215   6.296 -0.3165 -3.9769 -1.9435
  109OSM   C15S11171   5.181   6.264   6.121  0.2065  0.5023 -0.3809
  109OSM   H15S11172   5.127   6.185   6.066 -2.7768  2.5838 -0.6952
  109OSM   H15T11173   5.287   6.266   6.090  0.4133 -1.6515  0.0681
  109OSM   C16S11174   5.104   6.394   6.072 -0.2010 -0.4612 -0.0340
  109OSM   H16S11175   4.997   6.368   6.060 -0.4607 -0.8605  2.6175
  109OSM   H16T11176   5.146   6.406   5.969  0.1014  0.8047  0.2132
  109OSM   C17S11177   5.126   6.530   6.145  0.2943  0.0370 -0.1591
  109OSM   H17S11178   5.235   6.553   6.150  0.4138 -0.1822 -1.3322
  109OSM   H17T11179   5.081   6.524   6.246 -1.3180 -2.8195 -0.9391
  109OSM   C18S11180   5.058   6.653   6.078 -0.1535  0.4674 -0.0463
  109OSM   H18S11181   4.958   6.613   6.049 -0.5493  0.7738  0.8573
  109OSM   H18T11182   5.111   6.687   5.987 -0.2416 -0.7049 -0.5503
  109OSM   H18U11183   5.046   6.734   6.153 -3.5014  0.7393 -0.7258
  109OSM    C1F11184   5.467   6.292   7.078  0.4442  0.5035 -0.2166
  109OSM     OF11185   5.544   6.380   7.118  0.0422  0.5547 -0.0876
  109OSM    C2F11186   5.358   6.315   6.973  0.1968 -0.0006 -0.3210
  109OSM    H2F11187   5.273   6.360   7.029  1.5520  1.9985  0.2444
  109OSM    H2G11188   5.334   6.225   6.913 -2.4372  1.5249 -1.7479
  109OSM    C3F11189   5.405   6.428   6.881 -0.6290  0.3798 -0.2812
  109OSM    H3F11190   5.513   6.424   6.858 -0.4849  1.2679  0.2081
  109OSM    H3G11191   5.393   6.519   6.943 -0.6714  0.0878  0.1433
  109OSM    C4F11192   5.323   6.442   6.742 -0.4226 -0.1235 -0.4000
  109OSM    H4F11193   5.214   6.437   6.765 -0.2751  1.7879  0.9774
  109OSM    H4G11194   5.345   6.355   6.677  0.1688 -0.5520  0.3479
  109OSM    C5F11195   5.352   6.579   6.670 -0.0859 -0.0823  0.1372
  109OSM    H5F11196   5.458   6.576   6.636 -0.4429  1.7972 -1.3205
  109OSM    H5G11197   5.331   6.667   6.734 -2.2247 -1.5615  1.5916
  109OSM    C6F11198   5.267   6.585   6.540 -0.2945  0.1448  0.2238
  109OSM    H6F11199   5.161   6.591   6.573 -0.4190  1.5502 -0.3320
  109OSM    H6G11200   5.279   6.485   6.493 -2.0083  0.7676 -1.7003
  109OSM    C7F11201   5.291   6.701   6.439  0.6182  0.0553  0.3398
  109OSM    H7F11202   5.211   6.693   6.364  1.8627 -1.2917 -0.8997
  109OSM    H7G11203   5.387   6.684   6.386  1.0787 -1.7695  1.6723
  109OSM    C8F11204   5.288   6.841   6.507  0.3439  0.1572  0.4051
  109OSM    H8F11205   5.374   6.856   6.575 -0.6731  0.7038  1.6103
  109OSM    H8G11206   5.202   6.829   6.576 -1.1167 -0.0882 -1.3622
  109OSM    C9F11207   5.291   6.954   6.410  0.5459  0.7159 -0.5822
  109OSM    H9F11208   5.375   6.952   6.339 -0.2689 -0.2393 -1.5497
  109OSM   C10F11209   5.201   7.049   6.387  0.2309 -0.4430 -0.1732
  109OSM   H10F11210   5.229   7.114   6.303  0.4758 -0.4839 -0.1221
  109OSM   C11F11211   5.065   7.063   6.449 -0.9250  0.0136 -0.0657
  109OSM   H11F11212   5.061   7.157   6.509 -3.7384 -0.8628  1.2806
  109OSM   H11G11213   5.046   6.991   6.531 -0.1257  1.7909  1.7918
  109OSM   C12F11214   4.949   7.055   6.351 -0.3938 -0.3713  0.7416
  109OSM   H12F11215   4.855   7.060   6.410 -1.9156  3.3448 -1.5638
  109OSM   H12G11216   4.951   6.963   6.288  0.9577  0.1836 -0.0672
  109OSM   C13F11217   4.954   7.173   6.249 -0.5226 -0.1880 -0.2903
  109OSM   H13F11218   5.055   7.184   6.204 -0.3106  0.4088  0.3113
  109OSM   H13G11219   4.920   7.259   6.311  0.3837  0.9022 -1.2663
  109OSM   C14F11220   4.843   7.158   6.140 -0.1264  0.7005 -0.1794
  109OSM   H14F11221   4.824   7.252   6.084 -3.3619  0.1867 -0.1901
  109OSM   H14G11222   4.748   7.138   6.195 -0.8684 -0.1670 -1.6924
  109OSM   C15F11223   4.871   7.050   6.037  0.6462  0.6026  0.6347
  109OSM   H15F11224   4.777   7.013   5.990  0.9535 -0.4285  0.7951
  109OSM   H15G11225   4.909   6.961   6.093  1.2425  0.5769  0.2049
  109OSM   C16F11226   4.984   7.086   5.939  0.0644  0.4417  0.4360
  109OSM   H16F11227   5.022   6.989   5.901 -1.6688 -0.4180  0.8102
  109OSM   H16G11228   5.078   7.124   5.985  2.1754 -0.8622 -2.5132
  109OSM   C17F11229   4.941   7.182   5.829  0.7373 -0.2901 -0.3503
  109OSM   H17F11230   5.035   7.233   5.798  1.1280 -1.3427 -0.9446
  109OSM   H17G11231   4.874   7.264   5.862  1.5166  1.0034 -1.8194
  109OSM   C18F11232   4.883   7.125   5.702  0.0590 -0.3466  0.1779
  109OSM   H18F11233   4.951   7.048   5.660  0.2030  0.8797 -2.0000
  109OSM   H18G11234   4.863   7.198   5.620  0.0534 -2.4591 -1.8050
  109OSM   H18H11235   4.786   7.079   5.731 -0.2366  1.8794  3.0871
  110OSM      N11236   1.080   6.569   7.401  0.5040 -0.9564 -0.2731
  110OSM    C1511237   1.107   6.718   7.414  0.6555 -0.0980 -0.1665
  110OSM   H15A11238   1.154   6.768   7.330  0.0906  0.5017 -0.1264
  110OSM   H15B11239   1.156   6.742   7.507 -0.3488  1.9277 -0.1140
  110OSM   H15C11240   1.016   6.776   7.419  0.8648  0.1959  0.2951
  110OSM    C1411241   1.206   6.488   7.423  0.2443 -0.3280 -0.1005
  110OSM   H14A11242   1.273   6.508   7.340 -2.2959 -0.8443 -2.4141
  110OSM   H14B11243   1.186   6.382   7.426 -0.7961 -0.1169  1.9343
  110OSM   H14C11244   1.254   6.527   7.512  0.6856 -1.5556  0.2204
  110OSM    C1311245   0.993   6.533   7.513 -0.0705  0.1968 -0.0289
  110OSM   H13A11246   1.029   6.569   7.609  2.3211 -0.8459 -0.4491
  110OSM   H13B11247   0.991   6.425   7.513  1.1424  0.1363 -1.8780
  110OSM   H13C11248   0.890   6.561   7.502 -1.1130 -2.2791  2.1967
  110OSM    C1211249   1.018   6.525   7.270 -0.1276  0.6234 -0.0307
  110OSM   H12A11250   1.065   6.573   7.185  2.1739 -1.3616  0.0105
  110OSM   H12B11251   0.916   6.560   7.278  0.1309  1.5041 -0.4011
  110OSM    C1111252   0.992   6.375   7.242  0.0090 -0.1525 -0.1067
  110OSM   H11A11253   1.095   6.334   7.230 -0.1839 -0.4135 -0.9981
  110OSM   H11B11254   0.936   6.359   7.147 -2.5341 -1.5352  1.5154
  110OSM      P11255   0.977   6.171   7.401 -0.0579  0.1019  0.0788
  110OSM    O1311256   1.109   6.201   7.464 -0.3135 -0.2813  0.1864
  110OSM    O1411257   0.875   6.096   7.472  0.2467  0.0012  0.0952
  110OSM    O1111258   0.990   6.107   7.258 -0.3019  1.0730 -0.0943
  110OSM    O1211259   0.919   6.312   7.348  0.0418  0.0087  0.0628
  110OSM    C1S11260   1.016   5.966   7.241  0.4157  0.8138 -0.5670
  110OSM    H1S11261   0.925   5.914   7.278  0.7225  0.4585 -0.2925
  110OSM    H1T11262   1.111   5.931   7.288 -0.0837  0.6229  0.3214
  110OSM     NF11263   1.047   5.796   7.063  0.4859 -0.9768  0.1696
  110OSM    HNF11264   1.131   5.744   7.078  0.1635 -1.2053  1.2525
  110OSM    C2S11265   1.042   5.939   7.091  0.2764  0.3903  0.6441
  110OSM    H2S11266   0.958   5.978   7.031  0.5736 -1.0331 -0.7703
  110OSM    C3S11267   1.178   6.004   7.048 -0.2127 -0.1209 -0.2094
  110OSM    H3S11268   1.257   5.976   7.122  0.4281  1.4855 -0.2478
  110OSM     O311269   1.178   6.149   7.051  0.0942  0.5029 -0.1092
  110OSM    HO311270   1.088   6.178   7.067  0.1862  0.5009  0.4091
  110OSM    C4S11271   1.242   5.954   6.919  1.1479 -0.3694 -0.0497
  110OSM    H4S11272   1.173   5.953   6.834  2.2776 -0.0435 -0.9985
  110OSM    C5S11273   1.370   5.907   6.902 -0.4768 -0.6359  0.4637
  110OSM    H5S11274   1.430   5.897   6.994  0.3264 -1.7584 -0.1488
  110OSM    C6S11275   1.431   5.846   6.775 -0.0143  0.3539  0.1805
  110OSM    H6S11276   1.410   5.737   6.779  1.3525  0.0924  0.9030
  110OSM    H6T11277   1.541   5.864   6.780  0.0674 -0.3948  2.1342
  110OSM    C7S11278   1.365   5.880   6.638  0.0977  0.4481  0.1093
  110OSM    H7S11279   1.369   5.986   6.604 -2.4948 -0.1038 -2.3415
  110OSM    H7T11280   1.257   5.856   6.647  0.7786 -2.5068  1.1089
  110OSM    C8S11281   1.416   5.799   6.510  0.0354 -0.3432 -0.3425
  110OSM    H8S11282   1.437   5.691   6.530  0.9954  0.0045  0.6374
  110OSM    H8T11283   1.519   5.838   6.501 -0.5157  1.2174 -0.2660
  110OSM    C9S11284   1.338   5.836   6.388  0.4040 -0.2708  0.0220
  110OSM    H9S11285   1.344   5.942   6.354  1.8685  0.3109  1.9160
  110OSM    H9T11286   1.230   5.810   6.388  0.4179 -0.4323 -1.4592
  110OSM   C10S11287   1.383   5.745   6.271  0.8343  0.4472  0.0583
  110OSM   H10S11288   1.367   5.637   6.290 -3.0310  0.5885 -1.4892
  110OSM   H10T11289   1.493   5.757   6.265  0.7867 -0.0231 -3.3099
  110OSM   C11S11290   1.327   5.791   6.136 -0.5505 -0.8133  0.7300
  110OSM   H11S11291   1.356   5.896   6.116 -0.5165 -1.3454 -2.5609
  110OSM   H11T11292   1.217   5.799   6.145 -0.8011 -1.7451 -0.9721
  110OSM   C12S11293   1.350   5.700   6.016 -0.1273 -0.2236  0.2083
  110OSM   H12S11294   1.334   5.592   6.035  0.5921 -0.3702  0.0006
  110OSM   H12T11295   1.459   5.700   5.993  0.3942 -0.0906  2.5030
  110OSM   C13S11296   1.264   5.725   5.884 -0.2580 -0.0155  0.4290
  110OSM   H13S11297   1.268   5.833   5.860 -0.6083  0.4182  2.1713
  110OSM   H13T11298   1.159   5.701   5.911  0.1682 -1.2520  1.0810
  110OSM   C14S11299   1.314   5.643   5.765 -0.3641 -0.1772 -0.6209
  110OSM   H14S11300   1.298   5.539   5.802 -1.3499 -0.0065 -0.5399
  110OSM   H14T11301   1.423   5.654   5.746 -0.4659  0.6716 -0.7358
  110OSM   C15S11302   1.244   5.680   5.632 -0.1123  0.2964 -0.0485
  110OSM   H15S11303   1.268   5.786   5.612  0.3299  0.3078  0.5210
  110OSM   H15T11304   1.136   5.660   5.647 -0.1033 -0.6712 -1.0861
  110OSM   C16S11305   1.293   5.594   5.522 -0.4531 -0.1395 -0.0488
  110OSM   H16S11306   1.279   5.486   5.545 -0.1013  0.0473  1.1165
  110OSM   H16T11307   1.403   5.610   5.528 -0.6839  1.6419  0.1286
  110OSM   C17S11308   1.238   5.617   5.381 -0.4057 -0.7152 -0.5958
  110OSM   H17S11309   1.321   5.623   5.309 -0.2227 -0.6236 -0.3783
  110OSM   H17T11310   1.190   5.717   5.378  1.6978  0.3369 -0.2982
  110OSM   C18S11311   1.122   5.519   5.335 -0.2946 -0.4189 -0.4745
  110OSM   H18S11312   1.073   5.552   5.242 -0.1594  1.7823  0.1866
  110OSM   H18T11313   1.047   5.509   5.416  1.3343 -0.0608  1.1427
  110OSM   H18U11314   1.168   5.419   5.314 -0.6720 -0.9446  1.0428
  110OSM    C1F11315   0.945   5.727   7.026 -0.4197 -0.0004  0.6028
  110OSM     OF11316   0.839   5.778   6.997 -0.1139  0.3231  0.0918
  110OSM    C2F11317   0.969   5.575   7.023 -0.7202 -0.1741 -0.0158
  110OSM    H2F11318   0.868   5.527   7.025 -1.0180  0.4285 -0.3526
  110OSM    H2G11319   1.034   5.545   7.108 -0.5743 -0.1008 -0.1018
  110OSM    C3F11320   1.040   5.522   6.892 -0.1504 -0.0529  0.4376
  110OSM    H3F11321   1.021   5.412   6.886  0.6292 -0.1047 -2.5839
  110OSM    H3G11322   1.148   5.544   6.882 -0.2435 -0.5944 -2.8189
  110OSM    C4F11323   0.971   5.574   6.761  0.3996  0.1082 -1.1698
  110OSM    H4F11324   0.997   5.682   6.755 -0.4589  0.3953  0.0261
  110OSM    H4G11325   0.861   5.562   6.763  0.1436  1.5142  3.3027
  110OSM    C5F11326   1.023   5.507   6.642  0.8465 -1.2637  0.7306
  110OSM    H5F11327   0.989   5.401   6.630  1.1441 -1.0571 -3.4656
  110OSM    H5G11328   1.132   5.525   6.642  0.4870  1.4302 -0.4070
  110OSM    C6F11329   0.974   5.567   6.504  0.7100  0.6616  0.3021
  110OSM    H6F11330   0.984   5.678   6.504  0.9837  0.6410 -0.1729
  110OSM    H6G11331   0.868   5.545   6.482 -0.6585  4.5124  2.1264
  110OSM    C7F11332   1.064   5.505   6.395 -0.3807 -0.6481  0.1054
  110OSM    H7F11333   1.076   5.396   6.413 -0.2195 -0.3529  2.0170
  110OSM    H7G11334   1.164   5.551   6.384  0.4200 -2.2264  0.4353
  110OSM    C8F11335   1.003   5.515   6.252 -0.0412  0.7578  0.8487
  110OSM    H8F11336   0.971   5.616   6.219  0.6388  0.3869 -1.0780
  110OSM    H8G11337   0.908   5.458   6.264  0.0544  0.3561 -0.1872
  110OSM    C9F11338   1.092   5.445   6.154 -0.4766  0.3051 -0.0167
  110OSM    H9F11339   1.188   5.406   6.192 -1.4492 -0.2210  2.0841
  110OSM   C10F11340   1.053   5.419   6.030 -0.1642  0.4542  0.2974
  110OSM   H10F11341   1.125   5.366   5.965  0.6837  1.9103  0.0030
  110OSM   C11F11342   0.928   5.457   5.964  0.4482  0.0128  0.7414
  110OSM   H11F11343   0.863   5.513   6.035 -2.2416 -0.7130 -1.0194
  110OSM   H11G11344   0.871   5.362   5.960  0.5426 -0.0161 -0.2154
  110OSM   C12F11345   0.928   5.500   5.815 -0.4262 -0.0692 -0.9574
  110OSM   H12F11346   1.005   5.432   5.774 -1.0195 -1.2579 -0.1663
  110OSM   H12G11347   0.956   5.606   5.801  2.2395 -0.4565  0.6555
  110OSM   C13F11348   0.797   5.474   5.742  0.3059  0.3410 -0.2758
  110OSM   H13F11349   0.761   5.373   5.770  4.2016 -0.8842  0.9631
  110OSM   H13G11350   0.831   5.473   5.636  2.9550  0.7462  0.4879
  110OSM   C14F11351   0.698   5.588   5.773  0.2701  0.2803  0.4143
  110OSM   H14F11352   0.751   5.685   5.764 -2.9950  1.9648 -3.4240
  110OSM   H14G11353   0.661   5.568   5.876 -3.0034  2.0537 -0.2782
  110OSM   C15F11354   0.573   5.588   5.689 -0.6664  0.7588  0.5094
  110OSM   H15F11355   0.511   5.496   5.698  0.2312  0.0917  0.0902
  110OSM   H15G11356   0.600   5.573   5.582  0.8486 -0.6572  1.0444
  110OSM   C16F11357   0.480   5.701   5.707 -0.1402 -0.5850  0.2374
  110OSM   H16F11358   0.443   5.715   5.811  0.2237 -1.7557  0.5440
  110OSM   H16G11359   0.389   5.681   5.647  0.7620  1.0194 -1.8034
  110OSM   C17F11360   0.537   5.833   5.648 -0.2762 -0.2893  0.6632
  110OSM   H17F11361   0.575   5.821   5.544  0.7177  4.2434  0.2936
  110OSM   H17G11362   0.629   5.854   5.707  1.0774  1.7926 -1.9408
  110OSM   C18F11363   0.444   5.950   5.654 -0.1334 -0.1264  0.0229
  110OSM   H18F11364   0.477   6.032   5.586  4.0016 -1.0765  0.6394
  110OSM   H18G11365   0.446   5.991   5.757 -0.0618 -0.1769  0.0414
  110OSM   H18H11366   0.337   5.925   5.634 -0.2234  0.8729 -0.8898
  111OSM      N11367   3.034   1.160   7.634 -0.2355  0.4510  0.1783
  111OSM    C1511368   2.937   1.267   7.636 -0.2499  0.4062  0.3175
  111OSM   H15A11369   2.956   1.333   7.552 -2.0495  0.8046  0.1742
  111OSM   H15B11370   2.956   1.340   7.713 -2.7914  2.3069 -0.6937
  111OSM   H15C11371   2.834   1.238   7.651  0.5892 -1.8129  2.4931
  111OSM    C1411372   3.017   1.084   7.762 -0.4953  0.5890 -0.8335
  111OSM   H14A11373   2.920   1.036   7.768 -0.8935  1.4941  0.4152
  111OSM   H14B11374   3.017   1.141   7.854 -0.5733 -0.0613 -0.4240
  111OSM   H14C11375   3.086   1.001   7.772 -1.2747  0.0027 -0.1252
  111OSM    C1311376   3.003   1.068   7.525 -0.2143  0.6093 -0.6068
  111OSM   H13A11377   3.000   1.114   7.427  0.5660 -0.0941 -0.9730
  111OSM   H13B11378   2.910   1.019   7.550  1.5252 -1.2764  2.9174
  111OSM   H13C11379   3.080   0.992   7.522  0.2664  0.8990  1.9030
  111OSM    C1211380   3.176   1.206   7.614 -0.0065  0.0911  0.4168
  111OSM   H12A11381   3.209   1.290   7.674  0.8832 -0.4666  0.7347
  111OSM   H12B11382   3.179   1.243   7.513 -1.1910 -1.9516 -0.4090
  111OSM    C1111383   3.297   1.104   7.638  0.5870 -0.2317  0.1353
  111OSM   H11A11384   3.389   1.161   7.613  2.0692 -1.2340  2.8342
  111OSM   H11B11385   3.283   1.008   7.583  1.5830 -0.4745  0.2745
  111OSM      P11386   3.370   0.944   7.835 -0.6683  0.1106  0.0289
  111OSM    O1311387   3.490   0.995   7.913 -0.0900  0.4612  0.4014
  111OSM    O1411388   3.267   0.866   7.903 -0.1283  0.3370  0.5014
  111OSM    O1111389   3.419   0.865   7.708  0.3227 -0.1934  0.0959
  111OSM    O1211390   3.298   1.070   7.775 -0.2797  0.4434 -0.8458
  111OSM    C1S11391   3.363   0.742   7.675 -0.3075 -0.5948 -0.0778
  111OSM    H1S11392   3.252   0.749   7.674 -0.2853 -0.0729 -1.7035
  111OSM    H1T11393   3.389   0.665   7.751 -0.9342 -1.7617 -1.0076
  111OSM     NF11394   3.359   0.548   7.510  0.6598  0.3073 -0.9343
  111OSM    HNF11395   3.417   0.470   7.530 -0.4905 -0.2907  0.2701
  111OSM    C2S11396   3.417   0.682   7.540  0.3511  0.0433 -0.3047
  111OSM    H2S11397   3.385   0.757   7.465 -0.4517 -0.3311 -0.3440
  111OSM    C3S11398   3.574   0.684   7.538  0.3074  0.2997  0.8201
  111OSM    H3S11399   3.609   0.600   7.601 -2.0446 -1.4374 -0.0124
  111OSM     O311400   3.635   0.808   7.580  0.3448  1.1519  0.3870
  111OSM    HO311401   3.560   0.846   7.626 -1.1166 -0.4365 -0.5577
  111OSM    C4S11402   3.611   0.645   7.394  0.5720  0.2670 -0.5465
  111OSM    H4S11403   3.634   0.539   7.380  2.1119  0.3493  1.0939
  111OSM    C5S11404   3.625   0.725   7.287 -0.7565  0.9961  0.5161
  111OSM    H5S11405   3.607   0.833   7.298  0.6220  1.1696  1.2779
  111OSM    C6S11406   3.668   0.677   7.151 -0.8386 -0.0132  0.4991
  111OSM    H6S11407   3.586   0.650   7.080 -0.6486  1.1523 -0.1868
  111OSM    H6T11408   3.734   0.588   7.150 -0.3084  0.3614  1.2469
  111OSM    C7S11409   3.739   0.801   7.083  0.3275 -0.2484 -0.3114
  111OSM    H7S11410   3.833   0.826   7.137 -1.0487 -0.1913  2.2626
  111OSM    H7T11411   3.669   0.887   7.090 -0.1702 -0.7166  0.8187
  111OSM    C8S11412   3.788   0.787   6.942 -0.3986  0.3195  0.3052
  111OSM    H8S11413   3.869   0.710   6.947  0.1072  0.8228 -0.0886
  111OSM    H8T11414   3.815   0.886   6.901 -0.3618  0.1250 -0.1532
  111OSM    C9S11415   3.683   0.722   6.850 -0.1708 -0.7378  0.6464
  111OSM    H9S11416   3.589   0.780   6.866 -0.1689 -0.4307 -0.4190
  111OSM    H9T11417   3.670   0.614   6.870  1.2732 -1.1038 -0.3301
  111OSM   C10S11418   3.733   0.739   6.709  0.3041 -0.2213 -0.2569
  111OSM   H10S11419   3.833   0.691   6.713 -1.1313 -3.4129  0.2289
  111OSM   H10T11420   3.739   0.849   6.693  0.6662 -0.0151  1.1474
  111OSM   C11S11421   3.641   0.680   6.599  0.1797  0.3263 -0.2083
  111OSM   H11S11422   3.536   0.707   6.619  1.4156  3.7643  2.7146
  111OSM   H11T11423   3.660   0.570   6.596 -0.8889  0.1516 -0.7537
  111OSM   C12S11424   3.674   0.730   6.456  0.4868 -0.2895  0.6543
  111OSM   H12S11425   3.779   0.702   6.433 -0.5288 -3.2307 -1.0047
  111OSM   H12T11426   3.673   0.841   6.448  0.2436 -0.2055  1.6921
  111OSM   C13S11427   3.583   0.661   6.348  0.4530  0.0599  0.2357
  111OSM   H13S11428   3.481   0.704   6.360 -0.7397 -2.1295 -1.4144
  111OSM   H13T11429   3.576   0.551   6.362  2.3867 -0.1118  0.1823
  111OSM   C14S11430   3.628   0.696   6.202  0.6013  0.1642 -0.3045
  111OSM   H14S11431   3.721   0.639   6.182 -0.9901 -2.2887 -1.1245
  111OSM   H14T11432   3.647   0.805   6.192  1.7732 -0.1476 -1.9324
  111OSM   C15S11433   3.515   0.656   6.102  0.1312 -0.0499  0.2767
  111OSM   H15S11434   3.433   0.731   6.107 -1.4797 -1.4307 -2.7506
  111OSM   H15T11435   3.463   0.561   6.127  0.9113 -0.1345  1.7011
  111OSM   C16S11436   3.569   0.655   5.959  0.1633  0.5904  0.3537
  111OSM   H16S11437   3.662   0.596   5.960  0.8883  1.6751 -0.8316
  111OSM   H16T11438   3.615   0.754   5.939  3.6719 -1.4495 -2.9193
  111OSM   C17S11439   3.459   0.617   5.861 -0.9102 -0.2609 -0.0397
  111OSM   H17S11440   3.378   0.693   5.855 -0.0986  0.9887  3.0847
  111OSM   H17T11441   3.412   0.526   5.904 -0.0258 -0.1407  1.2333
  111OSM   C18S11442   3.514   0.567   5.729 -0.2341  0.7521 -0.3108
  111OSM   H18S11443   3.578   0.644   5.680  1.8690 -1.3757 -1.1140
  111OSM   H18T11444   3.427   0.536   5.666 -0.8978 -0.1056  0.9785
  111OSM   H18U11445   3.582   0.480   5.743 -0.3347  0.2014 -2.7123
  111OSM    C1F11446   3.230   0.530   7.472 -0.1514 -0.2661  0.9717
  111OSM     OF11447   3.166   0.626   7.438  0.3483 -0.1266 -0.3202
  111OSM    C2F11448   3.176   0.388   7.478 -0.4211 -0.0642  0.0172
  111OSM    H2F11449   3.113   0.372   7.568  0.0318 -1.0698  0.1653
  111OSM    H2G11450   3.267   0.329   7.497 -0.2052  0.5861  1.1055
  111OSM    C3F11451   3.102   0.355   7.342 -0.3759 -0.2791  0.1089
  111OSM    H3F11452   3.128   0.426   7.260 -1.8543  0.7965  0.5434
  111OSM    H3G11453   2.998   0.384   7.365  0.4770  2.0006  1.3855
  111OSM    C4F11454   3.112   0.213   7.302 -0.1147  0.0092 -0.6301
  111OSM    H4F11455   3.063   0.147   7.378 -0.6632 -2.6224 -3.0951
  111OSM    H4G11456   3.220   0.185   7.299 -0.1625 -0.1162 -1.2048
  111OSM    C5F11457   3.059   0.177   7.164 -0.2091 -0.1923 -0.7586
  111OSM    H5F11458   3.089   0.076   7.131 -2.2409  0.2483 -4.5289
  111OSM    H5G11459   3.098   0.245   7.086 -0.2639 -0.1918 -0.7865
  111OSM    C6F11460   2.901   0.187   7.154  0.0762 -0.2168 -0.0323
  111OSM    H6F11461   2.875   0.295   7.148  0.2419 -0.2444 -3.2792
  111OSM    H6G11462   2.858   0.133   7.241  3.7971 -1.3951  1.2394
  111OSM    C7F11463   2.858   0.126   7.015 -0.2441 -0.0563  0.5548
  111OSM    H7F11464   2.747   0.130   7.002 -0.1290  2.7553 -0.2729
  111OSM    H7G11465   2.881   0.018   7.011 -1.4297 -0.3238  0.5718
  111OSM    C8F11466   2.917   0.204   6.898 -0.0498 -0.0635  0.2895
  111OSM    H8F11467   2.903   0.137   6.810  0.3785 -1.0331  0.9416
  111OSM    H8G11468   3.028   0.208   6.903  0.1001 -2.7086  0.4683
  111OSM    C9F11469   2.852   0.336   6.873  0.3707  0.2930 -0.1263
  111OSM    H9F11470   2.810   0.384   6.963  1.3691  0.9651  0.0010
  111OSM   C10F11471   2.849   0.400   6.755  0.4265 -0.3857 -0.5673
  111OSM   H10F11472   2.796   0.496   6.747  0.0415 -0.5742 -0.3288
  111OSM   C11F11473   2.907   0.351   6.621 -0.4952 -0.2869  0.8340
  111OSM   H11F11474   2.949   0.249   6.628 -0.0301 -0.2719 -1.1147
  111OSM   H11G11475   2.986   0.420   6.584 -0.7517 -0.7694 -0.6843
  111OSM   C12F11476   2.795   0.341   6.519 -0.2467 -0.6143 -0.7631
  111OSM   H12F11477   2.752   0.441   6.496  2.0644  0.6356 -0.0752
  111OSM   H12G11478   2.712   0.281   6.562  0.3793 -0.8466  0.1555
  111OSM   C13F11479   2.843   0.256   6.398  0.7756  0.5601 -0.2902
  111OSM   H13F11480   2.897   0.167   6.437  1.3441  1.8315  2.0013
  111OSM   H13G11481   2.917   0.316   6.341 -0.0007  0.3867 -1.5124
  111OSM   C14F11482   2.721   0.231   6.307  0.6538  0.6212 -0.1285
  111OSM   H14F11483   2.686   0.327   6.265  2.1141  1.7886  1.2293
  111OSM   H14G11484   2.643   0.187   6.373  3.4918 -2.1873  1.6830
  111OSM   C15F11485   2.750   0.127   6.197  0.4292  0.3128 -0.5737
  111OSM   H15F11486   2.775   0.026   6.236 -3.9887 -1.8381 -2.5269
  111OSM   H15G11487   2.831   0.162   6.130 -0.7808  1.2119 -1.6390
  111OSM   C16F11488   2.628   0.109   6.107  0.2284 -0.3281 -0.8094
  111OSM   H16F11489   2.606   0.213   6.073  1.5892 -0.3627 -1.8957
  111OSM   H16G11490   2.542   0.061   6.158 -0.0392  1.2048  0.2610
  111OSM   C17F11491   2.657   0.031   5.975 -0.3625  0.6215 -0.1209
  111OSM   H17F11492   2.702  -0.061   6.018  1.1562  0.5795 -1.6726
  111OSM   H17G11493   2.742   0.081   5.923  1.1474 -0.2513  1.4232
  111OSM   C18F11494   2.534   0.014   5.888 -0.3426  0.4876 -0.0151
  111OSM   H18F11495   2.457  -0.049   5.937 -1.3972  1.8782  0.1956
  111OSM   H18G11496   2.556  -0.035   5.791 -1.6898  2.4100 -1.3678
  111OSM   H18H11497   2.502   0.118   5.865 -0.8564  1.0028  2.6851
  112OSM      N11498   6.889   4.547   7.562 -0.5025 -0.5635  0.7669
  112OSM    C1511499   6.932   4.411   7.542  0.0614  0.4032 -0.0639
  112OSM   H15A11500   6.994   4.375   7.623 -1.2180 -1.2603  0.2204
  112OSM   H15B11501   6.991   4.406   7.451 -1.3970  2.3281 -1.1801
  112OSM   H15C11502   6.850   4.342   7.532 -0.7365  1.1922  0.9107
  112OSM    C1411503   6.780   4.553   7.662  0.3528 -0.3764 -0.5288
  112OSM   H14A11504   6.702   4.485   7.631  0.8067 -0.5681 -1.2601
  112OSM   H14B11505   6.739   4.653   7.674  0.4960 -0.2139 -1.3496
  112OSM   H14C11506   6.818   4.522   7.759  1.4026  0.8438 -0.5312
  112OSM    C1311507   7.005   4.630   7.617 -0.2509 -0.5545 -0.5324
  112OSM   H13A11508   6.975   4.734   7.618 -1.7607 -0.9732  0.5672
  112OSM   H13B11509   7.091   4.637   7.552 -0.3319  1.5135 -0.4841
  112OSM   H13C11510   7.041   4.594   7.712  0.9122 -1.4325 -1.2777
  112OSM    C1211511   6.830   4.596   7.431 -0.2148 -1.2967 -0.3037
  112OSM   H12A11512   6.787   4.692   7.459  0.4300 -1.8224  2.9119
  112OSM   H12B11513   6.753   4.529   7.398 -1.3703  0.6329 -1.6980
  112OSM    C1111514   6.925   4.627   7.309  0.5484 -0.4046  0.5916
  112OSM   H11A11515   7.000   4.699   7.349 -1.1274  1.7786  0.0445
  112OSM   H11B11516   6.871   4.690   7.235  1.0088 -0.1807  0.4429
  112OSM      P11517   6.892   4.430   7.154  0.1387  0.3604  0.2435
  112OSM    O1311518   6.971   4.325   7.090 -0.2867  0.4232 -0.2550
  112OSM    O1411519   6.765   4.391   7.212  0.7369  0.3686 -0.1965
  112OSM    O1111520   6.862   4.540   7.052  0.9520  0.1939 -0.1231
  112OSM    O1211521   6.986   4.510   7.254  0.1061  0.0877 -0.2561
  112OSM    C1S11522   6.949   4.626   6.979  0.5489 -0.0881 -0.0905
  112OSM    H1S11523   7.050   4.635   7.025 -0.1190 -2.5149  2.0550
  112OSM    H1T11524   6.906   4.728   6.983 -2.3545 -1.2773  2.5797
  112OSM     NF11525   7.068   4.659   6.756 -0.6916  0.1440 -0.4731
  112OSM    HNF11526   7.032   4.743   6.716 -0.1719  1.2511  1.2945
  112OSM    C2S11527   6.974   4.584   6.825  0.3775 -0.3031 -0.0044
  112OSM    H2S11528   7.009   4.478   6.828  2.1486  0.1785 -1.5063
  112OSM    C3S11529   6.836   4.583   6.752  0.4042 -0.7090  0.0763
  112OSM    H3S11530   6.799   4.688   6.756  1.0465 -0.4119 -1.3783
  112OSM     O311531   6.729   4.511   6.814  0.0178  0.8087  0.3333
  112OSM    HO311532   6.749   4.516   6.908  2.5797  1.2185 -0.1484
  112OSM    C4S11533   6.841   4.537   6.607 -0.4305 -0.6616 -0.4463
  112OSM    H4S11534   6.906   4.451   6.587  0.5169 -0.2657  0.8309
  112OSM    C5S11535   6.789   4.609   6.504  0.3580  0.5109 -0.2231
  112OSM    H5S11536   6.740   4.703   6.532  0.6852  0.4564  0.5527
  112OSM    C6S11537   6.782   4.578   6.358 -0.0685 -0.3117 -0.3971
  112OSM    H6S11538   6.780   4.672   6.300 -0.0195 -0.3860 -0.5187
  112OSM    H6T11539   6.683   4.529   6.342  0.5001 -1.4502 -0.4955
  112OSM    C7S11540   6.895   4.490   6.302 -0.5170  0.2815 -0.4147
  112OSM    H7S11541   6.925   4.409   6.372 -0.6433 -1.2756 -2.0930
  112OSM    H7T11542   6.982   4.549   6.265 -1.7729  2.5883  0.0858
  112OSM    C8S11543   6.852   4.404   6.184  0.4957 -0.5470 -0.0382
  112OSM    H8S11544   6.765   4.339   6.209  0.0126  0.0563 -0.1451
  112OSM    H8T11545   6.943   4.343   6.165  1.8804  0.3127  3.1170
  112OSM    C9S11546   6.800   4.484   6.070 -0.4297  0.5313 -0.0732
  112OSM    H9S11547   6.742   4.571   6.108  2.3315  1.4934  2.3012
  112OSM    H9T11548   6.739   4.422   6.001 -0.5302 -0.5701  0.9670
  112OSM   C10S11549   6.913   4.547   5.987 -0.6439 -0.0559  0.2264
  112OSM   H10S11550   6.962   4.469   5.924  0.6616 -1.1133  2.3997
  112OSM   H10T11551   7.000   4.573   6.052 -0.3486  0.4166 -0.3531
  112OSM   C11S11552   6.864   4.669   5.910  0.0215  0.4843 -0.0982
  112OSM   H11S11553   6.945   4.739   5.880  1.6490 -1.8414 -1.4013
  112OSM   H11T11554   6.802   4.730   5.980  0.0503  0.4760 -0.0659
  112OSM   C12S11555   6.782   4.640   5.788  0.0608 -0.4142  0.3513
  112OSM   H12S11556   6.719   4.728   5.762 -1.2902 -1.3713  0.2679
  112OSM   H12T11557   6.713   4.560   5.820 -0.2654  0.5904  2.3162
  112OSM   C13S11558   6.863   4.608   5.663 -0.2442 -0.4684 -0.6006
  112OSM   H13S11559   6.955   4.551   5.684  0.0840  0.6381  1.1265
  112OSM   H13T11560   6.909   4.700   5.622  2.7436 -1.5478  0.1374
  112OSM   C14S11561   6.772   4.544   5.558  0.2166 -0.0563  0.1391
  112OSM   H14S11562   6.701   4.490   5.623  0.8560  0.9998  1.7626
  112OSM   H14T11563   6.829   4.474   5.492 -2.9859 -1.2033 -1.6569
  112OSM   C15S11564   6.681   4.638   5.480  0.8540  0.2046 -0.0288
  112OSM   H15S11565   6.754   4.700   5.422  0.0974  0.0488 -1.1825
  112OSM   H15T11566   6.634   4.716   5.543 -2.7590 -0.4098 -1.6881
  112OSM   C16S11567   6.582   4.561   5.393 -0.0144  0.6392 -0.0701
  112OSM   H16S11568   6.562   4.469   5.452  3.0827  0.3897  0.7612
  112OSM   H16T11569   6.627   4.524   5.298  1.7341 -2.1762  1.6757
  112OSM   C17S11570   6.454   4.632   5.355  1.0330 -0.0991 -0.7552
  112OSM   H17S11571   6.477   4.734   5.318  0.0591  0.4119 -0.0073
  112OSM   H17T11572   6.384   4.665   5.435  0.6843  0.7515 -1.3913
  112OSM   C18S11573   6.368   4.560   5.252  0.0470  0.3547 -0.3144
  112OSM   H18S11574   6.389   4.600   5.151 -0.8178  0.3420 -0.5077
  112OSM   H18T11575   6.260   4.580   5.263 -0.0672 -0.0394 -0.6980
  112OSM   H18U11576   6.378   4.450   5.264  0.6971  0.1733 -2.2480
  112OSM    C1F11577   7.202   4.657   6.785  0.4721  0.2484  0.6647
  112OSM     OF11578   7.259   4.567   6.840  0.6979  0.9152  0.8971
  112OSM    C2F11579   7.279   4.782   6.761 -0.2144 -0.0941  0.1690
  112OSM    H2F11580   7.335   4.799   6.855 -0.1676  0.1997  0.0890
  112OSM    H2G11581   7.217   4.873   6.747  0.0849 -0.0881 -1.3416
  112OSM    C3F11582   7.384   4.766   6.653 -0.1607 -0.4228 -0.7122
  112OSM    H3F11583   7.337   4.752   6.553  0.6586 -2.1818 -0.8828
  112OSM    H3G11584   7.465   4.691   6.663  0.9438  0.9291  1.0424
  112OSM    C4F11585   7.472   4.892   6.636  0.1679 -0.2530  0.1850
  112OSM    H4F11586   7.516   4.905   6.738  0.2602 -0.3123  0.1522
  112OSM    H4G11587   7.401   4.978   6.631 -0.3690 -0.6717  0.4857
  112OSM    C5F11588   7.567   4.881   6.517  1.1232 -0.2761  0.1895
  112OSM    H5F11589   7.616   4.782   6.520 -1.7973 -1.8258  0.5539
  112OSM    H5G11590   7.650   4.954   6.524  1.9958 -1.0735 -1.3356
  112OSM    C6F11591   7.498   4.889   6.377 -0.0350  0.3012  0.6521
  112OSM    H6F11592   7.447   4.987   6.377 -2.0499 -0.6917  2.2505
  112OSM    H6G11593   7.427   4.804   6.381  3.9607 -3.3977  0.9224
  112OSM    C7F11594   7.597   4.870   6.264 -0.7724  0.7079 -0.6405
  112OSM    H7F11595   7.658   4.781   6.289  0.1591  1.4557 -0.1626
  112OSM    H7G11596   7.672   4.952   6.274  1.6644 -1.3939 -0.6313
  112OSM    C8F11597   7.529   4.869   6.131  0.0782  0.4604 -0.3273
  112OSM    H8F11598   7.460   4.955   6.133  1.3429  1.4895  0.2843
  112OSM    H8G11599   7.466   4.777   6.127 -0.6472  0.7115  2.7627
  112OSM    C9F11600   7.623   4.847   6.016 -0.1273  0.2258 -0.0549
  112OSM    H9F11601   7.680   4.754   6.025 -1.9795 -0.9240  0.5001
  112OSM   C10F11602   7.620   4.917   5.906  0.7177  0.0534 -0.1454
  112OSM   H10F11603   7.692   4.888   5.828  2.0142 -0.1945  1.1176
  112OSM   C11F11604   7.529   5.030   5.868  0.6789  0.8299  0.6133
  112OSM   H11F11605   7.580   5.124   5.900  2.6668  0.9356 -2.4607
  112OSM   H11G11606   7.434   5.033   5.925  0.8972  1.4231  0.9529
  112OSM   C12F11607   7.481   5.015   5.718  0.3887 -0.7454  0.0495
  112OSM   H12F11608   7.397   4.942   5.712 -0.7951  0.5489  0.2443
  112OSM   H12G11609   7.562   4.980   5.651  1.2747  0.8917  0.2105
  112OSM   C13F11610   7.430   5.145   5.660  0.3798 -0.2948  0.2097
  112OSM   H13F11611   7.514   5.215   5.638  0.1552  0.5673  1.9304
  112OSM   H13G11612   7.369   5.206   5.730  1.7879  1.0116  0.3563
  112OSM   C14F11613   7.342   5.116   5.528  0.0098 -0.3019 -0.2963
  112OSM   H14F11614   7.256   5.047   5.545  0.1505 -0.3784  0.1323
  112OSM   H14G11615   7.403   5.056   5.458 -0.8781 -2.4699  0.6837
  112OSM   C15F11616   7.298   5.246   5.466 -0.0528  0.2025  0.1008
  112OSM   H15F11617   7.383   5.314   5.442 -0.2239 -0.1179 -1.4788
  112OSM   H15G11618   7.240   5.306   5.539 -0.1382 -2.3015  2.2672
  112OSM   C16F11619   7.215   5.226   5.336  0.1601 -0.2490 -0.6895
  112OSM   H16F11620   7.128   5.161   5.361 -1.3026  1.7663 -0.2117
  112OSM   H16G11621   7.285   5.192   5.257  0.0988  1.2567 -1.4223
  112OSM   C17F11622   7.156   5.354   5.271  0.0557  0.1674  1.0024
  112OSM   H17F11623   7.240   5.423   5.248 -0.4174  0.8386  1.2761
  112OSM   H17G11624   7.082   5.400   5.340  1.3451 -0.0160  2.5721
  112OSM   C18F11625   7.092   5.318   5.137  1.2452  0.0339 -0.2448
  112OSM   H18F11626   7.018   5.236   5.150 -0.0522  0.6867 -2.9044
  112OSM   H18G11627   7.175   5.276   5.076  0.9486 -0.5195 -0.2742
  112OSM   H18H11628   7.037   5.401   5.089  0.2444 -0.7390 -0.4587
  113OSM      N11629   4.784   0.123   7.649 -0.3372  0.2176  0.6425
  113OSM    C1511630   4.802  -0.027   7.636 -0.0907 -0.2462 -0.2857
  113OSM   H15A11631   4.709  -0.080   7.623 -0.3629  0.3495 -0.8244
  113OSM   H15B11632   4.848  -0.073   7.722  2.2877  0.9208 -0.8429
  113OSM   H15C11633   4.870  -0.047   7.554 -2.0995  0.1480 -2.1193
  113OSM    C1411634   4.706   0.184   7.532  0.2086  0.7311  0.1677
  113OSM   H14A11635   4.625   0.112   7.525  1.0338 -0.4036  1.7085
  113OSM   H14B11636   4.762   0.179   7.440 -0.2966 -1.6876 -0.0781
  113OSM   H14C11637   4.666   0.283   7.548 -1.4707 -0.0015  0.7404
  113OSM    C1311638   4.705   0.153   7.779 -0.2273 -0.0699 -0.4836
  113OSM   H13A11639   4.614   0.094   7.781 -0.1441 -0.2540 -1.5125
  113OSM   H13B11640   4.685   0.257   7.800  2.4889 -0.1795  4.0996
  113OSM   H13C11641   4.765   0.125   7.865 -0.9246  2.0463  0.7615
  113OSM    C1211642   4.917   0.190   7.672 -1.2915 -0.1209 -0.8703
  113OSM   H12A11643   4.962   0.152   7.762 -2.9405 -0.0811  0.0102
  113OSM   H12B11644   4.902   0.294   7.698  0.2079 -0.2190  0.5013
  113OSM    C1111645   5.023   0.169   7.559  0.8949  0.1177 -0.3823
  113OSM   H11A11646   5.107   0.237   7.585  0.5989  0.8795 -1.3136
  113OSM   H11B11647   4.973   0.207   7.467 -1.3487  0.0107  0.7217
  113OSM      P11648   5.189  -0.025   7.589 -0.2993  0.1341  0.2714
  113OSM    O1311649   5.237   0.051   7.707  0.5636  0.4416  0.8745
  113OSM    O1411650   5.169  -0.167   7.617  0.0176  0.5989  0.8272
  113OSM    O1111651   5.304   0.003   7.481  0.6741  0.0681 -0.1885
  113OSM    O1211652   5.062   0.035   7.526 -0.4062 -0.7286  0.1089
  113OSM    C1S11653   5.295  -0.055   7.346 -0.3064  0.0639 -0.3241
  113OSM    H1S11654   5.210  -0.126   7.335  0.5700 -1.2920  1.2581
  113OSM    H1T11655   5.384  -0.119   7.325 -0.8458 -1.3428  1.4191
  113OSM     NF11656   5.261  -0.018   7.102 -0.1685  0.3731  0.2702
  113OSM    HNF11657   5.338  -0.039   7.043  0.8370  0.4093  1.5241
  113OSM    C2S11658   5.297   0.045   7.227  1.2565 -0.7924 -0.7030
  113OSM    H2S11659   5.209   0.110   7.249  2.5700  0.6205  0.7072
  113OSM    C3S11660   5.423   0.133   7.226 -0.3010 -0.0071  0.8782
  113OSM    H3S11661   5.511   0.072   7.197 -1.5496 -0.9622 -1.1296
  113OSM     O311662   5.450   0.175   7.355  0.3946 -0.6269 -0.0989
  113OSM    HO311663   5.394   0.122   7.413 -1.3371  1.7122  0.4985
  113OSM    C4S11664   5.412   0.238   7.121 -0.0169 -0.0573  0.0607
  113OSM    H4S11665   5.328   0.310   7.120 -0.7128 -0.8528  0.1423
  113OSM    C5S11666   5.478   0.236   7.003  0.5044 -0.0338 -0.0284
  113OSM    H5S11667   5.548   0.153   6.988  1.1193  0.1407  1.6217
  113OSM    C6S11668   5.445   0.333   6.890 -0.0917 -0.2669  0.1040
  113OSM    H6S11669   5.423   0.270   6.800 -1.8306  0.7898 -0.2678
  113OSM    H6T11670   5.543   0.380   6.866 -0.6926  0.3218 -1.3385
  113OSM    C7S11671   5.348   0.454   6.901 -0.2403 -0.1259 -0.0021
  113OSM    H7S11672   5.390   0.510   6.986 -0.6841  0.3840 -0.1133
  113OSM    H7T11673   5.245   0.429   6.933 -0.2617  1.1479  0.9723
  113OSM    C8S11674   5.349   0.534   6.770 -0.0758 -0.2542 -0.2691
  113OSM    H8S11675   5.451   0.529   6.727  0.3184  2.7381  0.1072
  113OSM    H8T11676   5.310   0.635   6.794 -0.0051 -0.3200  0.1398
  113OSM    C9S11677   5.252   0.471   6.671  0.0703  0.1642  0.4418
  113OSM    H9S11678   5.156   0.450   6.724  0.2264 -0.3234  0.5370
  113OSM    H9T11679   5.288   0.372   6.636 -1.1489 -0.2574  0.3421
  113OSM   C10S11680   5.217   0.560   6.553  0.6527 -0.4674 -0.3485
  113OSM   H10S11681   5.316   0.563   6.503  1.1842  3.1362  0.6318
  113OSM   H10T11682   5.203   0.664   6.590  0.9980  0.0004 -1.4875
  113OSM   C11S11683   5.126   0.500   6.450  0.0155 -0.0780  0.3283
  113OSM   H11S11684   5.021   0.488   6.486 -0.6738  2.6306 -0.5433
  113OSM   H11T11685   5.171   0.402   6.424 -0.1249  0.0005 -0.2116
  113OSM   C12S11686   5.124   0.596   6.327  0.2147 -0.0685  0.4267
  113OSM   H12S11687   5.221   0.612   6.273 -0.6151 -0.9021 -1.4105
  113OSM   H12T11688   5.074   0.694   6.338 -1.1342 -0.5491 -1.0760
  113OSM   C13S11689   5.035   0.538   6.220  0.0862  0.5164  0.4482
  113OSM   H13S11690   4.942   0.496   6.264  1.1993 -3.2264 -0.3694
  113OSM   H13T11691   5.098   0.455   6.181  1.4329  2.5757 -2.0270
  113OSM   C14S11692   4.989   0.633   6.108 -0.3426  0.1242 -0.0371
  113OSM   H14S11693   5.050   0.725   6.103  0.8637 -0.6459  0.1050
  113OSM   H14T11694   4.892   0.669   6.150 -1.1861 -3.2484  1.2733
  113OSM   C15S11695   4.961   0.567   5.971 -0.2648  0.6649  0.5583
  113OSM   H15S11696   4.893   0.480   5.987  0.6783 -0.3335 -0.7168
  113OSM   H15T11697   5.049   0.521   5.921 -1.0408  0.4049 -0.6063
  113OSM   C16S11698   4.881   0.661   5.876  0.0785 -0.2612 -0.2380
  113OSM   H16S11699   4.944   0.736   5.823 -0.5036 -1.6354 -3.0656
  113OSM   H16T11700   4.805   0.713   5.939 -0.4579 -0.4467 -0.7250
  113OSM   C17S11701   4.800   0.581   5.774  0.1604  0.1220 -0.3950
  113OSM   H17S11702   4.734   0.654   5.724 -1.1221 -1.6195 -1.3615
  113OSM   H17T11703   4.730   0.514   5.829 -0.0849  1.6707  1.2808
  113OSM   C18S11704   4.886   0.515   5.666 -0.6226  0.3732  0.1476
  113OSM   H18S11705   4.959   0.592   5.632 -2.2034  2.6289  1.6087
  113OSM   H18T11706   4.823   0.472   5.585  1.0722 -4.0083  0.8371
  113OSM   H18U11707   4.931   0.422   5.707 -0.9037  0.4025  0.5180
  113OSM    C1F11708   5.137  -0.067   7.075 -0.6668  0.4463 -0.2937
  113OSM     OF11709   5.035  -0.042   7.146  0.2604  0.5860  0.3763
  113OSM    C2F11710   5.124  -0.135   6.943  0.6340 -0.1705  0.2467
  113OSM    H2F11711   5.167  -0.237   6.954  0.9675 -0.2133 -1.2271
  113OSM    H2G11712   5.186  -0.082   6.867  1.8065  0.0923  1.3468
  113OSM    C3F11713   4.972  -0.141   6.906  0.2250 -0.3628  0.1796
  113OSM    H3F11714   4.925  -0.040   6.911 -1.1719 -0.7173 -3.2152
  113OSM    H3G11715   4.920  -0.212   6.974  1.1149 -1.0640  0.1381
  113OSM    C4F11716   4.961  -0.190   6.764  0.2774 -0.5945  0.2714
  113OSM    H4F11717   5.027  -0.279   6.761  1.9571  0.6014  0.1230
  113OSM    H4G11718   5.000  -0.106   6.702 -1.1848  2.0358  2.6684
  113OSM    C5F11719   4.816  -0.222   6.716 -0.0795  0.2004 -0.0551
  113OSM    H5F11720   4.747  -0.139   6.744  0.4521  1.1729 -1.4587
  113OSM    H5G11721   4.778  -0.315   6.761  0.0200  1.8612  3.8276
  113OSM    C6F11722   4.823  -0.245   6.564  0.2621 -0.6989  1.1686
  113OSM    H6F11723   4.893  -0.330   6.551  1.9364  0.5496  1.7044
  113OSM    H6G11724   4.864  -0.160   6.506 -0.1775 -0.2876  1.4524
  113OSM    C7F11725   4.678  -0.267   6.503 -0.8510  0.6121 -0.1395
  113OSM    H7F11726   4.603  -0.315   6.569  0.8659  0.9847  2.2478
  113OSM    H7G11727   4.702  -0.317   6.407  2.1717  2.8867 -0.7333
  113OSM    C8F11728   4.619  -0.134   6.450  0.3547  0.0678  0.0697
  113OSM    H8F11729   4.685  -0.098   6.369  1.5578 -3.1320 -0.5201
  113OSM    H8G11730   4.622  -0.054   6.526 -2.1592  1.5782 -1.2652
  113OSM    C9F11731   4.474  -0.147   6.417 -0.0557 -0.3696 -0.6778
  113OSM    H9F11732   4.408  -0.131   6.504  0.3184 -2.6470  0.0889
  113OSM   C10F11733   4.427  -0.172   6.293 -0.6271  0.1845  0.1031
  113OSM   H10F11734   4.318  -0.177   6.274 -0.6235  0.9918 -0.1625
  113OSM   C11F11735   4.509  -0.204   6.166 -0.1062  0.0008  0.7815
  113OSM   H11F11736   4.487  -0.306   6.128  2.1468 -0.7174  1.2408
  113OSM   H11G11737   4.618  -0.214   6.187 -0.0792  0.2735  0.7758
  113OSM   C12F11738   4.497  -0.113   6.036  0.1686  0.2023  0.5933
  113OSM   H12F11739   4.560  -0.022   6.048 -0.7516  0.7496  1.5071
  113OSM   H12G11740   4.392  -0.078   6.037  0.3462  0.7700  0.2376
  113OSM   C13F11741   4.520  -0.185   5.906 -0.5807 -0.0827  0.1508
  113OSM   H13F11742   4.444  -0.266   5.899  0.3328 -0.8696 -1.1195
  113OSM   H13G11743   4.620  -0.234   5.896 -0.5591 -0.1509  0.6763
  113OSM   C14F11744   4.502  -0.088   5.784  0.0407 -0.6156  0.9266
  113OSM   H14F11745   4.590  -0.019   5.780  0.0176 -0.6095 -2.0639
  113OSM   H14G11746   4.413  -0.024   5.797 -0.2424  0.0615 -3.0648
  113OSM   C15F11747   4.514  -0.167   5.654  0.2371  0.0281  0.2326
  113OSM   H15F11748   4.440  -0.249   5.660  1.6604 -1.3011  0.1263
  113OSM   H15G11749   4.607  -0.228   5.662 -0.1258 -1.0401 -2.6333
  113OSM   C16F11750   4.519  -0.084   5.523  0.2867  0.0900 -0.4179
  113OSM   H16F11751   4.601  -0.010   5.535  0.7177 -0.2435 -1.2743
  113OSM   H16G11752   4.425  -0.024   5.523 -0.6248 -1.2370  1.6425
  113OSM   C17F11753   4.532  -0.166   5.396  0.4399 -0.1983 -1.1395
  113OSM   H17F11754   4.503  -0.102   5.309 -1.1083 -0.7211 -1.0343
  113OSM   H17G11755   4.452  -0.243   5.404  0.9460 -0.5744  0.8011
  113OSM   C18F11756   4.663  -0.238   5.372 -0.1458  0.1781  0.1628
  113OSM   H18F11757   4.754  -0.177   5.358 -0.4256  0.5307 -0.1559
  113OSM   H18G11758   4.647  -0.306   5.285 -2.2469  1.2785 -0.3817
  113OSM   H18H11759   4.675  -0.297   5.465 -0.2474 -0.0796  0.0164
  114OSM      N11760   5.876   4.869   7.295  0.3458  0.4932 -0.2617
  114OSM    C1511761   5.965   4.987   7.343 -0.1503 -0.0533 -0.0568
  114OSM   H15A11762   5.905   5.050   7.407  1.2679  1.3431 -0.0239
  114OSM   H15B11763   6.019   5.033   7.261 -0.0094  0.5984  0.3952
  114OSM   H15C11764   6.031   4.946   7.418  1.2870  0.3791 -1.0292
  114OSM    C1411765   5.964   4.783   7.211 -0.0224  0.7466  0.6305
  114OSM   H14A11766   5.979   4.834   7.118 -0.3361 -1.2883 -0.6059
  114OSM   H14B11767   5.923   4.684   7.197  2.4258 -0.3042  0.4958
  114OSM   H14C11768   6.066   4.769   7.244  0.6886 -0.9348 -1.9568
  114OSM    C1311769   5.847   4.782   7.422  0.1402  0.1197  0.2868
  114OSM   H13A11770   5.940   4.737   7.453  0.7950  0.9555 -0.4054
  114OSM   H13B11771   5.774   4.706   7.401 -0.0277  0.1362  0.7984
  114OSM   H13C11772   5.812   4.845   7.502 -0.8589 -0.2327  0.1424
  114OSM    C1211773   5.760   4.916   7.219 -0.1735 -0.1543  0.4850
  114OSM   H12A11774   5.786   4.970   7.129 -2.4807  0.8454  0.3265
  114OSM   H12B11775   5.700   4.988   7.273 -0.2903  0.9983 -1.0898
  114OSM    C1111776   5.650   4.809   7.178 -0.4599 -0.6663  0.7763
  114OSM   H11A11777   5.705   4.746   7.106  3.0471  3.4228 -0.5448
  114OSM   H11B11778   5.573   4.867   7.124 -0.4914 -1.3403  0.0820
  114OSM      P11779   5.542   4.585   7.274 -0.3208 -0.0882  0.1033
  114OSM    O1311780   5.656   4.498   7.261  0.3144 -0.5552 -0.1982
  114OSM    O1411781   5.452   4.558   7.390 -0.0107  0.4824 -0.3012
  114OSM    O1111782   5.460   4.587   7.138 -0.1674 -0.0134  0.2267
  114OSM    O1211783   5.593   4.734   7.287 -0.3582 -0.0799 -0.5490
  114OSM    C1S11784   5.346   4.678   7.135 -0.0378  0.1481  0.1048
  114OSM    H1S11785   5.374   4.782   7.161 -2.8650  0.8596  0.6354
  114OSM    H1T11786   5.272   4.642   7.211  0.8069 -0.8540  0.4717
  114OSM     NF11787   5.181   4.784   6.975 -0.0054  0.0707  0.2906
  114OSM    HNF11788   5.087   4.758   6.997 -0.1689 -0.4095 -0.8986
  114OSM    C2S11789   5.274   4.677   7.001 -0.5743  0.8786  0.4754
  114OSM    H2S11790   5.356   4.675   6.927 -1.5256  0.6997 -0.5954
  114OSM    C3S11791   5.211   4.533   6.984  0.9701 -0.1372  0.2671
  114OSM    H3S11792   5.120   4.541   7.047  1.5473  0.9060  1.0147
  114OSM     O311793   5.278   4.427   7.046  0.0113  0.3518 -0.0106
  114OSM    HO311794   5.350   4.475   7.087 -0.9582  2.4748 -0.6814
  114OSM    C4S11795   5.165   4.501   6.836 -0.1644 -0.3756 -1.2416
  114OSM    H4S11796   5.083   4.566   6.802 -0.6341 -1.0843 -1.4794
  114OSM    C5S11797   5.214   4.409   6.753 -0.0228 -0.3319  0.2562
  114OSM    H5S11798   5.292   4.344   6.795 -1.2948 -1.4659  0.9409
  114OSM    C6S11799   5.160   4.384   6.618 -0.7745  0.8641  0.4214
  114OSM    H6S11800   5.247   4.401   6.550 -1.7689 -1.8692 -1.7266
  114OSM    H6T11801   5.088   4.461   6.585  0.9752  1.5844 -1.9838
  114OSM    C7S11802   5.120   4.238   6.594 -0.6544  0.6154 -0.1599
  114OSM    H7S11803   5.029   4.199   6.644  0.1260  0.7835  1.4644
  114OSM    H7T11804   5.204   4.168   6.617  0.0714  0.7869 -2.0877
  114OSM    C8S11805   5.112   4.217   6.442  0.1486  0.2571 -0.0994
  114OSM    H8S11806   5.169   4.291   6.382 -0.2901  0.1563 -0.6490
  114OSM    H8T11807   5.012   4.266   6.437  0.8155  1.6455 -0.3746
  114OSM    C9S11808   5.116   4.073   6.385  0.0442  0.6327  0.0965
  114OSM    H9S11809   5.040   4.025   6.450  0.1907 -1.8583 -1.4628
  114OSM    H9T11810   5.218   4.030   6.390 -1.2594 -2.6093  1.1944
  114OSM   C10S11811   5.081   4.060   6.233  0.2387 -0.2034  0.1759
  114OSM   H10S11812   5.080   3.949   6.223 -1.4638 -0.3441  1.4442
  114OSM   H10T11813   5.168   4.104   6.179  0.9952  1.0961  2.3094
  114OSM   C11S11814   4.951   4.135   6.185 -0.4281  0.2462  0.5126
  114OSM   H11S11815   4.939   4.238   6.225 -0.3388 -0.5113  2.6087
  114OSM   H11T11816   4.871   4.082   6.241  1.0632  0.8404  3.4140
  114OSM   C12S11817   4.930   4.114   6.034 -0.5189  0.3731 -0.1986
  114OSM   H12S11818   4.829   4.151   6.006  0.2899  1.7483 -1.4641
  114OSM   H12T11819   4.936   4.004   6.018  1.2404  0.2815  0.8039
  114OSM   C13S11820   5.036   4.164   5.934 -0.3147 -0.9192 -0.1362
  114OSM   H13S11821   5.129   4.106   5.950 -0.3337 -1.2095 -1.0289
  114OSM   H13T11822   5.061   4.270   5.958 -1.5227 -0.7745  0.6041
  114OSM   C14S11823   5.006   4.169   5.791  0.3930  0.0509  0.1224
  114OSM   H14S11824   4.905   4.217   5.788 -0.2549 -1.3477 -1.9835
  114OSM   H14T11825   4.995   4.065   5.755  0.7225 -0.5695  1.6932
  114OSM   C15S11826   5.098   4.247   5.702 -0.3108 -0.3098 -0.4557
  114OSM   H15S11827   5.202   4.217   5.726 -0.0722  0.9173  0.1015
  114OSM   H15T11828   5.110   4.355   5.724  2.5759 -0.4440 -1.0074
  114OSM   C16S11829   5.076   4.205   5.556  0.7084 -0.8416  0.5248
  114OSM   H16S11830   4.974   4.239   5.526  0.5475 -2.2678 -0.6377
  114OSM   H16T11831   5.078   4.094   5.548 -1.0727 -0.7470 -2.4846
  114OSM   C17S11832   5.169   4.260   5.451 -0.0603  0.2088  0.1785
  114OSM   H17S11833   5.270   4.232   5.485 -0.2515 -0.3694  0.2806
  114OSM   H17T11834   5.155   4.370   5.453 -1.1543  0.0725  1.5545
  114OSM   C18S11835   5.141   4.199   5.315 -0.3301  0.1539  0.2308
  114OSM   H18S11836   5.054   4.244   5.262 -0.5181  2.7554  2.5472
  114OSM   H18T11837   5.127   4.089   5.322 -1.5555  0.2475 -0.4357
  114OSM   H18U11838   5.229   4.215   5.250 -0.5222  1.3271  0.2426
  114OSM    C1F11839   5.221   4.907   6.964  0.0994 -0.4104 -0.3563
  114OSM     OF11840   5.339   4.940   6.985 -0.2244 -0.3300 -0.2299
  114OSM    C2F11841   5.122   5.014   6.939 -0.2871  1.0410  0.0050
  114OSM    H2F11842   5.184   5.106   6.924  0.2425  0.8240  0.8112
  114OSM    H2G11843   5.051   5.030   7.023  2.4062 -0.4198  2.7723
  114OSM    C3F11844   5.043   4.986   6.815  0.0380  0.1623  0.4062
  114OSM    H3F11845   5.002   4.883   6.812  0.3826 -0.0003 -2.7872
  114OSM    H3G11846   5.093   4.988   6.715 -2.6021 -0.8014 -1.0449
  114OSM    C4F11847   4.921   5.072   6.812 -0.1011 -0.1586 -0.1730
  114OSM    H4F11848   4.856   5.059   6.901 -2.9457  0.9062 -1.9546
  114OSM    H4G11849   4.853   5.035   6.732 -0.7313  0.6140 -0.0052
  114OSM    C5F11850   4.933   5.224   6.797 -0.1449  0.0237 -0.6775
  114OSM    H5F11851   5.000   5.256   6.880 -1.3182 -0.7458  0.6230
  114OSM    H5G11852   4.839   5.281   6.812  0.1693  0.1425  1.1380
  114OSM    C6F11853   5.000   5.273   6.667  0.2354 -0.3355 -0.4094
  114OSM    H6F11854   5.097   5.220   6.675 -0.5306 -1.5333  1.4641
  114OSM    H6G11855   4.998   5.384   6.655 -0.7507 -0.2111  0.6961
  114OSM    C7F11856   4.918   5.233   6.542  1.0702  0.5068  0.4140
  114OSM    H7F11857   4.819   5.283   6.541  1.4722  1.3457  1.2619
  114OSM    H7G11858   4.910   5.122   6.536 -0.7849  0.5485  1.2740
  114OSM    C8F11859   4.989   5.275   6.410  0.6034  0.5797 -0.0358
  114OSM    H8F11860   4.933   5.214   6.336  0.7073 -0.5742  0.8041
  114OSM    H8G11861   5.095   5.241   6.403  0.1971 -0.6297 -0.6040
  114OSM    C9F11862   4.972   5.420   6.386  0.3354 -0.0991 -0.2113
  114OSM    H9F11863   4.982   5.497   6.464  2.1688  0.6413 -1.0958
  114OSM   C10F11864   4.930   5.471   6.263  0.2517  0.9308 -0.0594
  114OSM   H10F11865   4.911   5.578   6.248  1.5541  1.2588  0.4447
  114OSM   C11F11866   4.892   5.404   6.141 -0.4317  0.1157  0.7828
  114OSM   H11F11867   4.788   5.364   6.147 -1.3220  2.3913  1.7031
  114OSM   H11G11868   4.958   5.316   6.129  0.8039  0.9431  1.3206
  114OSM   C12F11869   4.924   5.485   6.017 -0.3043  0.4287 -0.3369
  114OSM   H12F11870   5.029   5.520   6.030 -0.7706  1.5180  0.7935
  114OSM   H12G11871   4.875   5.583   5.996  0.1051  0.3468 -1.7161
  114OSM   C13F11872   4.928   5.394   5.896 -0.2681  0.4781 -0.5574
  114OSM   H13F11873   4.825   5.357   5.878 -0.2968 -1.0003  2.0485
  114OSM   H13G11874   4.991   5.306   5.921 -0.1459  1.3228  2.5443
  114OSM   C14F11875   4.991   5.458   5.770 -0.1091  0.0930 -0.1638
  114OSM   H14F11876   5.093   5.496   5.791  1.1193 -2.6435 -0.6455
  114OSM   H14G11877   4.927   5.545   5.743  0.1243  1.0928  2.2015
  114OSM   C15F11878   5.014   5.348   5.657  0.0788 -0.8079 -0.6680
  114OSM   H15F11879   4.913   5.310   5.630 -0.9051  0.5215  0.9649
  114OSM   H15G11880   5.088   5.266   5.674  1.4048  0.6168  0.7370
  114OSM   C16F11881   5.067   5.434   5.538  0.0814 -0.3953 -1.2565
  114OSM   H16F11882   5.169   5.469   5.565 -0.6599  1.6789 -1.0076
  114OSM   H16G11883   5.013   5.527   5.514  0.0400 -0.4225 -1.2678
  114OSM   C17F11884   5.080   5.334   5.421 -0.2180  0.1487 -0.9857
  114OSM   H17F11885   4.982   5.282   5.406  0.0047 -0.5239 -0.2190
  114OSM   H17G11886   5.153   5.257   5.453 -1.4786 -0.4490  0.6185
  114OSM   C18F11887   5.120   5.402   5.292 -0.1027 -0.2503 -0.3849
  114OSM   H18F11888   5.220   5.451   5.298 -0.7725  1.2305 -0.8746
  114OSM   H18G11889   5.052   5.482   5.256  0.2452  0.2703  0.0975
  114OSM   H18H11890   5.127   5.325   5.212  0.4233  0.9072 -1.4814
  115OSM      N11891   2.411   6.413   7.758  0.6671 -0.1852  0.1013
  115OSM    C1511892   2.319   6.390   7.641 -0.4938  0.0021 -0.5346
  115OSM   H15A11893   2.347   6.458   7.561  1.2626 -1.0871 -0.9055
  115OSM   H15B11894   2.217   6.406   7.672 -1.7113  1.2704 -4.4982
  115OSM   H15C11895   2.323   6.287   7.608 -1.5132 -0.4712  0.7865
  115OSM    C1411896   2.367   6.537   7.834 -0.4950 -0.3623 -0.7695
  115OSM   H14A11897   2.424   6.560   7.923  2.1521 -2.8407 -1.6478
  115OSM   H14B11898   2.266   6.515   7.862 -0.5522  1.0983  0.2764
  115OSM   H14C11899   2.376   6.622   7.767 -1.1546  0.2340 -0.1034
  115OSM    C1311900   2.380   6.291   7.842  0.1517  0.0423 -0.2216
  115OSM   H13A11901   2.440   6.293   7.932  0.1802  2.1159 -0.2301
  115OSM   H13B11902   2.397   6.196   7.793 -1.8136 -0.9598  0.9176
  115OSM   H13C11903   2.280   6.285   7.883  0.7656  1.9436  1.7099
  115OSM    C1211904   2.557   6.427   7.721 -0.2184  0.2904  0.6793
  115OSM   H12A11905   2.572   6.531   7.698  0.7173  0.2142  0.9059
  115OSM   H12B11906   2.586   6.383   7.626 -1.2843 -1.8938  1.2869
  115OSM    C1111907   2.667   6.414   7.829  0.2332  0.5037  0.1288
  115OSM   H11A11908   2.657   6.486   7.912  1.0122  0.9371 -0.1490
  115OSM   H11B11909   2.755   6.448   7.771  0.4282 -2.2101 -1.3794
  115OSM      P11910   2.791   6.176   7.817 -0.4526  0.0869 -0.1344
  115OSM    O1311911   2.898   6.171   7.909  0.3196 -0.2775 -0.3000
  115OSM    O1411912   2.722   6.050   7.782  0.2131 -0.1916 -0.5061
  115OSM    O1111913   2.847   6.245   7.688  0.3894 -0.3848  0.1842
  115OSM    O1211914   2.679   6.273   7.866  0.0677  0.0704 -0.8630
  115OSM    C1S11915   2.794   6.216   7.556  0.2541  0.7494  0.0063
  115OSM    H1S11916   2.685   6.197   7.567  0.7556 -2.1645  0.8899
  115OSM    H1T11917   2.840   6.118   7.528  1.4897  1.5265 -0.7696
  115OSM     NF11918   2.748   6.300   7.336  0.2359 -0.5114  0.0036
  115OSM    HNF11919   2.793   6.241   7.270 -0.9249 -1.1136 -0.2718
  115OSM    C2S11920   2.822   6.330   7.454  0.5096 -0.1160  0.5989
  115OSM    H2S11921   2.778   6.425   7.490  0.6409 -0.2075  1.0017
  115OSM    C3S11922   2.973   6.360   7.437 -0.5643  0.1891 -0.2363
  115OSM    H3S11923   3.031   6.276   7.392  1.9701  0.2693  2.5781
  115OSM     O311924   3.036   6.372   7.567 -0.3787 -0.5170 -0.2253
  115OSM    HO311925   2.982   6.331   7.635 -2.3216  2.2653  0.0710
  115OSM    C4S11926   3.004   6.476   7.343 -0.1694 -0.2045  0.1261
  115OSM    H4S11927   2.927   6.555   7.350 -2.2864 -2.2340  1.3388
  115OSM    C5S11928   3.094   6.494   7.252 -0.1656 -0.3835  0.2325
  115OSM    H5S11929   3.177   6.425   7.229  1.7970  3.1942 -5.9161
  115OSM    C6S11930   3.084   6.619   7.162 -0.0181 -0.1331 -0.4446
  115OSM    H6S11931   3.178   6.676   7.177  0.1010 -0.6856  1.1591
  115OSM    H6T11932   3.004   6.690   7.192  0.2848  0.9960 -2.2231
  115OSM    C7S11933   3.079   6.596   7.007 -0.0695 -0.0507  0.0093
  115OSM    H7S11934   2.984   6.545   6.981 -0.2739  1.5119 -2.7962
  115OSM    H7T11935   3.162   6.526   6.987 -0.8264 -0.6832 -1.0593
  115OSM    C8S11936   3.089   6.732   6.935  0.1489  0.3038  0.1045
  115OSM    H8S11937   3.193   6.768   6.952  0.6664 -1.6071  1.2852
  115OSM    H8T11938   3.015   6.801   6.981  0.9804  0.1810  1.7228
  115OSM    C9S11939   3.073   6.711   6.783  0.2225  0.3765 -0.5193
  115OSM    H9S11940   2.990   6.640   6.764  0.5543 -0.0375 -0.4630
  115OSM    H9T11941   3.164   6.668   6.736  0.3023  0.3163 -0.3129
  115OSM   C10S11942   3.040   6.842   6.710  0.0368 -0.7403  0.2938
  115OSM   H10S11943   3.134   6.882   6.666  0.5108 -0.5693  1.4154
  115OSM   H10T11944   3.001   6.918   6.780 -0.6265 -1.7170  1.0168
  115OSM   C11S11945   2.956   6.818   6.595 -0.4924  0.6756 -0.3266
  115OSM   H11S11946   2.921   6.918   6.560 -0.5842  0.5332 -0.6457
  115OSM   H11T11947   2.862   6.767   6.623 -0.0621 -0.1343 -0.3331
  115OSM   C12S11948   3.022   6.743   6.478  0.3962  0.0732  0.0080
  115OSM   H12S11949   3.057   6.647   6.522  0.6011 -0.2986 -0.9506
  115OSM   H12T11950   3.115   6.795   6.446  1.5255 -0.0581  2.7839
  115OSM   C13S11951   2.924   6.711   6.367 -0.1029 -0.0843  0.2318
  115OSM   H13S11952   2.843   6.786   6.355  1.1366  1.3774  0.7038
  115OSM   H13T11953   2.878   6.615   6.398  0.6968 -0.5604 -0.0120
  115OSM   C14S11954   2.990   6.679   6.229  0.0019 -0.0957  0.3513
  115OSM   H14S11955   3.043   6.581   6.234 -1.4899 -1.0891 -1.9083
  115OSM   H14T11956   3.055   6.758   6.187 -0.1008 -0.3296 -0.2619
  115OSM   C15S11957   2.885   6.654   6.116  0.4857  0.2338 -0.5424
  115OSM   H15S11958   2.813   6.738   6.105 -1.0676 -1.1788 -1.7107
  115OSM   H15T11959   2.824   6.572   6.159 -0.0045  2.2078  2.9563
  115OSM   C16S11960   2.942   6.620   5.980 -0.1106 -0.0802 -0.4410
  115OSM   H16S11961   3.024   6.547   5.992  0.0882  0.2565  0.3325
  115OSM   H16T11962   2.984   6.707   5.926  0.9746 -0.7940 -0.7785
  115OSM   C17S11963   2.833   6.559   5.899  0.6833 -0.8519  0.2271
  115OSM   H17S11964   2.768   6.643   5.866  1.1606 -0.7736 -0.5480
  115OSM   H17T11965   2.771   6.501   5.970  1.9019 -0.7726  1.3989
  115OSM   C18S11966   2.880   6.475   5.770 -0.5789 -0.1288  0.2330
  115OSM   H18S11967   2.966   6.526   5.723 -0.0688 -2.0672 -1.0815
  115OSM   H18T11968   2.803   6.472   5.689  0.6988 -0.8258 -1.0018
  115OSM   H18U11969   2.902   6.370   5.800 -0.9302 -0.4922 -0.7390
  115OSM    C1F11970   2.616   6.310   7.327  0.3590 -0.9927 -0.1511
  115OSM     OF11971   2.548   6.389   7.395 -0.0504 -0.0600  0.3517
  115OSM    C2F11972   2.560   6.240   7.209  0.4228  0.1817  0.6745
  115OSM    H2F11973   2.629   6.158   7.179  1.8318  0.5508  2.6398
  115OSM    H2G11974   2.557   6.306   7.120 -1.3020 -0.5914  0.1185
  115OSM    C3F11975   2.421   6.164   7.226 -0.2285 -1.7061  0.2662
  115OSM    H3F11976   2.348   6.240   7.262  0.5106 -1.0649  0.4490
  115OSM    H3G11977   2.424   6.083   7.301 -1.7541 -2.3729 -0.3478
  115OSM    C4F11978   2.376   6.101   7.096  0.5468 -0.4360 -0.4436
  115OSM    H4F11979   2.275   6.059   7.116  0.9272 -1.6836 -1.0576
  115OSM    H4G11980   2.436   6.015   7.060  0.0600 -0.8601 -0.2626
  115OSM    C5F11981   2.377   6.192   6.975 -0.1300  0.5260 -0.8169
  115OSM    H5F11982   2.483   6.221   6.955 -0.0563  0.8546  0.0226
  115OSM    H5G11983   2.317   6.282   6.998 -1.9608 -0.8574  0.1243
  115OSM    C6F11984   2.306   6.129   6.854  0.3317 -0.9411 -0.3096
  115OSM    H6F11985   2.214   6.080   6.892  0.9763  0.5878  3.7071
  115OSM    H6G11986   2.370   6.052   6.806  1.3622 -0.0160 -0.4742
  115OSM    C7F11987   2.272   6.239   6.749  0.2012 -0.0982  0.0387
  115OSM    H7F11988   2.371   6.270   6.711  1.2262 -1.3602  1.5583
  115OSM    H7G11989   2.224   6.327   6.796 -0.3030 -0.8172  0.9027
  115OSM    C8F11990   2.184   6.196   6.631 -0.6182 -0.0295 -0.1039
  115OSM    H8F11991   2.163   6.282   6.563 -0.3846  0.9677  1.0372
  115OSM    H8G11992   2.087   6.165   6.674  0.2933 -2.7089  0.2134
  115OSM    C9F11993   2.249   6.087   6.550 -1.0660 -0.8432  0.7747
  115OSM    H9F11994   2.289   6.001   6.606  0.5036 -0.7426 -0.1394
  115OSM   C10F11995   2.261   6.077   6.415  0.5655  0.1222 -0.1237
  115OSM   H10F11996   2.327   5.998   6.375 -0.2573  0.0055 -1.2910
  115OSM   C11F11997   2.198   6.164   6.314  0.0326 -0.8108 -0.3096
  115OSM   H11F11998   2.268   6.243   6.281  0.3641 -0.1972  1.6809
  115OSM   H11G11999   2.103   6.208   6.352  0.1605  0.8415 -1.8190
  115OSM   C12F12000   2.159   6.098   6.186  0.6781  0.0969 -0.2580
  115OSM   H12F12001   2.084   6.019   6.203 -1.4539  2.0635 -0.1123
  115OSM   H12G12002   2.250   6.047   6.147  1.1010  0.7444 -0.1388
  115OSM   C13F12003   2.102   6.198   6.079  0.3366  0.9582 -0.7071
  115OSM   H13F12004   2.161   6.291   6.066 -1.1419  1.6744 -2.6884
  115OSM   H13G12005   2.002   6.228   6.115 -0.9028  0.4050 -3.4314
  115OSM   C14F12006   2.086   6.140   5.937  0.0360 -0.4113 -0.4210
  115OSM   H14F12007   2.021   6.051   5.951 -2.3045  1.2971  0.1588
  115OSM   H14G12008   2.182   6.119   5.884  1.3183  1.4559  1.0370
  115OSM   C15F12009   2.018   6.243   5.845  0.3581 -0.6639  0.3831
  115OSM   H15F12010   2.084   6.333   5.843 -0.0492 -0.3673  0.1062
  115OSM   H15G12011   1.924   6.287   5.886  1.0951  0.4665  0.8872
  115OSM   C16F12012   1.994   6.195   5.697 -0.1661  0.1317 -0.5646
  115OSM   H16F12013   1.921   6.255   5.638  0.8236  1.8614 -0.1066
  115OSM   H16G12014   1.944   6.096   5.701 -0.9136  0.5129 -0.0918
  115OSM   C17F12015   2.130   6.187   5.627  0.1479  0.3241 -0.2719
  115OSM   H17F12016   2.173   6.088   5.657 -0.3727 -0.0100 -0.6162
  115OSM   H17G12017   2.214   6.255   5.655 -0.1496  0.9066 -0.7911
  115OSM   C18F12018   2.127   6.181   5.474 -0.3126 -0.4057  0.0951
  115OSM   H18F12019   2.229   6.155   5.438 -1.0412 -1.1594 -1.5344
  115OSM   H18G12020   2.098   6.283   5.439  0.6375 -0.0816  0.2148
  115OSM   H18H12021   2.053   6.115   5.424  0.9582 -1.8563  0.0396
  116OSM      N12022   3.698   2.477   7.423  0.7693  0.1679 -0.3989
  116OSM    C1512023   3.839   2.521   7.414 -0.3499  0.6397  0.9060
  116OSM   H15A12024   3.849   2.571   7.319 -0.7548 -0.9342 -0.0096
  116OSM   H15B12025   3.907   2.436   7.422  0.6417  1.4531  1.3775
  116OSM   H15C12026   3.867   2.586   7.496  1.6608  1.0611 -0.0633
  116OSM    C1412027   3.666   2.368   7.329  0.1869 -0.0506  0.7669
  116OSM   H14A12028   3.671   2.394   7.224 -1.4395  0.6799  0.8295
  116OSM   H14B12029   3.570   2.324   7.351  0.0231  0.0917  0.3504
  116OSM   H14C12030   3.724   2.279   7.340 -1.0749 -1.1128 -0.6919
  116OSM    C1312031   3.685   2.421   7.561 -0.4156  0.1902  0.4535
  116OSM   H13A12032   3.727   2.492   7.630 -0.3869  1.0726 -0.4496
  116OSM   H13B12033   3.751   2.335   7.563  1.7409  1.4630 -3.3297
  116OSM   H13C12034   3.584   2.386   7.575 -0.3095 -1.3712 -1.9802
  116OSM    C1212035   3.595   2.588   7.403  1.0428 -0.4583  0.2017
  116OSM   H12A12036   3.495   2.550   7.387  1.4333 -1.0671 -0.9165
  116OSM   H12B12037   3.625   2.637   7.312 -0.7813  2.1919  0.9203
  116OSM    C1112038   3.589   2.692   7.513 -0.7427  0.2775  0.2090
  116OSM   H11A12039   3.603   2.644   7.613  0.9974 -1.9549 -0.9988
  116OSM   H11B12040   3.489   2.741   7.515 -0.4580  0.8628  0.3884
  116OSM      P12041   3.666   2.935   7.432 -0.2451  0.0647  0.3474
  116OSM    O1312042   3.538   2.989   7.480  0.4250 -0.3225 -0.0120
  116OSM    O1412043   3.785   3.023   7.461  0.2353 -0.6961 -0.0833
  116OSM    O1112044   3.668   2.904   7.278 -0.2014 -0.0590  0.4035
  116OSM    O1212045   3.693   2.791   7.493 -0.4481  0.4423 -0.2602
  116OSM    C1S12046   3.791   2.885   7.209  0.4009  0.0755  1.0773
  116OSM    H1S12047   3.854   2.795   7.229  2.1660  0.4954 -1.9295
  116OSM    H1T12048   3.855   2.976   7.203 -1.3155  1.2633  0.1063
  116OSM     NF12049   3.874   2.791   6.993  0.3926 -0.3493 -0.4101
  116OSM    HNF12050   3.943   2.859   6.970  0.8204 -0.2113  1.1683
  116OSM    C2S12051   3.757   2.848   7.058 -0.6550  0.0883  0.0743
  116OSM    H2S12052   3.677   2.771   7.059  0.8174 -1.4965  1.2582
  116OSM    C3S12053   3.702   2.976   6.989 -0.0666  0.0457  0.0918
  116OSM    H3S12054   3.792   3.039   6.973  0.4611 -1.0636 -1.5725
  116OSM     O312055   3.613   3.065   7.067  0.4304 -0.0493  0.5789
  116OSM    HO312056   3.596   3.011   7.144  2.6027 -0.8029  0.5967
  116OSM    C4S12057   3.631   2.955   6.855  0.2269  0.0315  0.2813
  116OSM    H4S12058   3.553   2.879   6.866  2.8928 -2.8171  1.1578
  116OSM    C5S12059   3.650   3.019   6.744  0.4089  0.6398  0.0968
  116OSM    H5S12060   3.701   3.117   6.742 -0.1654  0.9293 -0.7110
  116OSM    C6S12061   3.570   2.992   6.617 -0.1036 -0.0592 -1.1538
  116OSM    H6S12062   3.481   2.930   6.638  0.0322  0.5605  1.5535
  116OSM    H6T12063   3.635   2.935   6.547  1.6389 -0.4437  0.6608
  116OSM    C7S12064   3.540   3.110   6.531  0.1658 -0.0107  0.0337
  116OSM    H7S12065   3.642   3.153   6.517  1.4727 -2.0217  2.4695
  116OSM    H7T12066   3.483   3.182   6.593  0.4080 -0.5520  0.9012
  116OSM    C8S12067   3.479   3.084   6.391 -0.0385 -0.0781 -0.0569
  116OSM    H8S12068   3.561   3.038   6.332  0.3902 -0.0768  0.5264
  116OSM    H8T12069   3.449   3.175   6.335 -0.5518 -0.8224 -1.0114
  116OSM    C9S12070   3.349   3.005   6.398  0.0409 -0.7244  0.1551
  116OSM    H9S12071   3.278   3.072   6.449 -0.5546 -0.6511 -0.7542
  116OSM    H9T12072   3.370   2.914   6.459  1.6772 -1.1271 -0.9240
  116OSM   C10S12073   3.268   2.990   6.262  0.7765  0.3708  1.1067
  116OSM   H10S12074   3.249   3.094   6.229  2.2046  0.3142 -0.0031
  116OSM   H10T12075   3.188   2.913   6.270  2.1252 -1.2098  0.1465
  116OSM   C11S12076   3.359   2.941   6.149 -0.8323 -0.0910 -0.6330
  116OSM   H11S12077   3.383   2.834   6.169  0.1720  0.4515  1.2884
  116OSM   H11T12078   3.459   2.990   6.145 -0.2209 -1.2537 -0.2389
  116OSM   C12S12079   3.287   2.944   6.021 -0.3406  0.1960  0.0403
  116OSM   H12S12080   3.271   3.045   5.977  2.5378  0.2419 -1.1251
  116OSM   H12T12081   3.183   2.911   6.040 -0.2745  0.4200  0.8000
  116OSM   C13S12082   3.353   2.850   5.910  0.5117 -0.2984 -0.2067
  116OSM   H13S12083   3.340   2.749   5.955  0.0687  0.2435  0.9257
  116OSM   H13T12084   3.459   2.879   5.895  0.3864  0.4396  0.2377
  116OSM   C14S12085   3.265   2.859   5.788  0.2875  0.4369  0.2002
  116OSM   H14S12086   3.281   2.962   5.749  0.4363  2.3381  4.5814
  116OSM   H14T12087   3.156   2.864   5.810  0.5446  0.5105  1.5460
  116OSM   C15S12088   3.289   2.746   5.683  0.4131  0.1029 -0.8495
  116OSM   H15S12089   3.265   2.651   5.737 -0.0882  1.0089  0.5964
  116OSM   H15T12090   3.397   2.742   5.657  1.1052  0.8384  1.6516
  116OSM   C16S12091   3.197   2.771   5.562  0.0377 -0.2290  0.4384
  116OSM   H16S12092   3.173   2.879   5.550 -0.5139 -0.4645 -0.6858
  116OSM   H16T12093   3.100   2.721   5.582  0.6479 -1.9890 -0.7923
  116OSM   C17S12094   3.241   2.698   5.440  0.5505  0.2109  0.2645
  116OSM   H17S12095   3.259   2.593   5.470  1.2792  0.1370 -0.4046
  116OSM   H17T12096   3.339   2.733   5.402  1.3123 -1.3478  0.7211
  116OSM   C18S12097   3.149   2.691   5.321 -0.1602 -0.0093  0.0572
  116OSM   H18S12098   3.113   2.785   5.271 -2.3812 -0.7703  0.1028
  116OSM   H18T12099   3.056   2.642   5.355 -0.2680  0.7561  0.8981
  116OSM   H18U12100   3.191   2.621   5.245 -2.4269  1.6332 -2.9726
  116OSM    C1F12101   3.905   2.659   7.013 -0.3690  0.4071  0.1547
  116OSM     OF12102   3.823   2.583   7.065  0.3752 -0.4172  0.2076
  116OSM    C2F12103   4.049   2.614   6.988 -0.4630  0.4175  0.1349
  116OSM    H2F12104   4.104   2.595   7.082  1.8514 -1.4717 -1.4684
  116OSM    H2G12105   4.101   2.701   6.942 -1.5617  1.3618  0.6291
  116OSM    C3F12106   4.052   2.476   6.907 -0.5463  0.9266 -0.4669
  116OSM    H3F12107   4.009   2.395   6.968  0.3849  2.0686  1.8129
  116OSM    H3G12108   4.161   2.459   6.889 -0.3602  1.0714  0.4786
  116OSM    C4F12109   3.999   2.486   6.767 -0.1618  0.3918 -0.6499
  116OSM    H4F12110   4.056   2.573   6.729 -1.7723  0.8054 -2.2387
  116OSM    H4G12111   3.894   2.521   6.772  0.3799  1.9931  0.4500
  116OSM    C5F12112   4.013   2.368   6.678  0.5816  0.7651  0.0903
  116OSM    H5F12113   3.968   2.288   6.739  0.9471 -0.5734 -1.3342
  116OSM    H5G12114   4.118   2.337   6.657  0.2977 -0.5341  0.4953
  116OSM    C6F12115   3.938   2.376   6.544  0.0937 -0.1723  0.1215
  116OSM    H6F12116   3.832   2.393   6.570 -0.0112  1.6831 -1.3414
  116OSM    H6G12117   3.937   2.276   6.495 -1.1686 -0.4620  0.7051
  116OSM    C7F12118   3.988   2.493   6.464 -0.3304  0.5499 -0.5385
  116OSM    H7F12119   4.099   2.489   6.454  0.1568 -3.7175  3.2217
  116OSM    H7G12120   3.963   2.588   6.516  3.6932  0.5455  1.8316
  116OSM    C8F12121   3.923   2.503   6.326 -0.1058 -0.0034  0.4557
  116OSM    H8F12122   3.916   2.607   6.289 -0.8441  0.4899  1.9012
  116OSM    H8G12123   3.816   2.476   6.335 -0.1672  0.2087  0.3505
  116OSM    C9F12124   3.982   2.412   6.222 -1.3362  0.0503 -0.3430
  116OSM    H9F12125   3.945   2.309   6.228  2.0967 -1.3167 -0.3401
  116OSM   C10F12126   4.077   2.442   6.134  0.3318 -0.6794 -0.0508
  116OSM   H10F12127   4.116   2.367   6.063 -0.1306 -1.1917  0.2313
  116OSM   C11F12128   4.134   2.578   6.121 -0.1103  0.1548 -0.1739
  116OSM   H11F12129   4.243   2.568   6.104 -0.1902  1.5665 -1.6459
  116OSM   H11G12130   4.116   2.645   6.208 -2.1338  0.9138 -1.1102
  116OSM   C12F12131   4.105   2.662   5.993 -0.6473 -0.0824 -0.1075
  116OSM   H12F12132   4.130   2.593   5.910 -0.6463  0.0955 -0.2561
  116OSM   H12G12133   4.170   2.752   6.005 -2.6457  1.5352 -0.8890
  116OSM   C13F12134   3.961   2.695   5.978 -0.6941  0.0486  0.6134
  116OSM   H13F12135   3.928   2.757   6.064 -1.9363 -2.2762  1.9254
  116OSM   H13G12136   3.897   2.604   5.975 -3.3774  1.8418  0.4356
  116OSM   C14F12137   3.930   2.781   5.859  0.1388 -0.0702 -0.3934
  116OSM   H14F12138   3.970   2.754   5.758 -1.5146 -0.9754 -0.8465
  116OSM   H14G12139   3.960   2.886   5.882  0.5989  0.3493 -2.6483
  116OSM   C15F12140   3.780   2.785   5.819 -0.2211  0.0761  0.7274
  116OSM   H15F12141   3.711   2.838   5.889 -1.8577  1.3770 -1.7100
  116OSM   H15G12142   3.735   2.687   5.794  0.5897 -0.4035  1.1473
  116OSM   C16F12143   3.757   2.863   5.690  0.2015 -0.0952 -0.5038
  116OSM   H16F12144   3.828   2.948   5.698  2.1175 -1.6116 -0.7956
  116OSM   H16G12145   3.661   2.918   5.691  1.1187  1.7920  3.3887
  116OSM   C17F12146   3.777   2.786   5.560 -0.9574  0.9879  0.9471
  116OSM   H17F12147   3.711   2.696   5.561  1.8754 -1.2976 -1.5537
  116OSM   H17G12148   3.882   2.753   5.555 -0.4331  2.7115 -0.4640
  116OSM   C18F12149   3.736   2.856   5.432  0.2821 -0.8776 -0.0883
  116OSM   H18F12150   3.740   2.798   5.337  1.7176 -1.1569  0.1261
  116OSM   H18G12151   3.786   2.955   5.425  1.1269 -1.3652 -1.2928
  116OSM   H18H12152   3.627   2.878   5.439  0.4167  0.6900 -2.0929
  117OSM      N12153   1.688   0.106   7.785 -0.4285 -0.0480  0.4716
  117OSM    C1512154   1.839   0.103   7.761 -0.7064 -0.2943 -0.5549
  117OSM   H15A12155   1.885   0.010   7.733  1.1945  0.4220  0.0522
  117OSM   H15B12156   1.881   0.135   7.855 -1.2831  1.8448 -0.9584
  117OSM   H15C12157   1.859   0.182   7.690 -0.6428  1.3328  1.1844
  117OSM    C1412158   1.660  -0.001   7.885 -0.0519 -0.2292  0.1204
  117OSM   H14A12159   1.658  -0.102   7.847  0.2576 -0.8575  1.7198
  117OSM   H14B12160   1.562   0.029   7.920 -0.1756  0.7988 -1.0376
  117OSM   H14C12161   1.728  -0.001   7.969 -0.8725  1.3997  0.8322
  117OSM    C1312162   1.657   0.239   7.847 -0.6340 -0.1663  0.1647
  117OSM   H13A12163   1.554   0.235   7.879  0.1812 -1.2533  2.9699
  117OSM   H13B12164   1.692   0.320   7.786  2.3170 -2.5501 -1.5858
  117OSM   H13C12165   1.711   0.248   7.941  1.4140  0.7580 -1.0460
  117OSM    C1212166   1.611   0.084   7.660 -0.0900 -0.3595 -0.2313
  117OSM   H12A12167   1.636  -0.006   7.607  0.6486  0.0704 -0.6191
  117OSM   H12B12168   1.629   0.157   7.583  1.8067  0.2063  0.6796
  117OSM    C1112169   1.459   0.074   7.681 -0.5239  0.4816 -0.0954
  117OSM   H11A12170   1.424   0.073   7.575  0.9918 -1.3705 -0.6320
  117OSM   H11B12171   1.416   0.161   7.736 -1.7295  0.3568 -0.7992
  117OSM      P12172   1.439  -0.191   7.709  0.2649  0.2592 -0.0346
  117OSM    O1312173   1.500  -0.250   7.832 -0.4330 -0.2958  0.5308
  117OSM    O1412174   1.312  -0.250   7.659  0.0634 -0.3540  0.1265
  117OSM    O1112175   1.541  -0.182   7.599 -0.5363  0.0284 -0.2110
  117OSM    O1212176   1.403  -0.042   7.746 -0.6328  0.0757  0.3778
  117OSM    C1S12177   1.523  -0.249   7.467  0.7715 -0.1283 -0.5373
  117OSM    H1S12178   1.430  -0.210   7.422  0.2823  0.0192  0.5814
  117OSM    H1T12179   1.517  -0.359   7.483  0.2271  0.1715  1.4584
  117OSM     NF12180   1.601  -0.241   7.230  0.7850 -0.0084 -0.3419
  117OSM    HNF12181   1.644  -0.318   7.184  1.3477  0.1575 -0.1148
  117OSM    C2S12182   1.632  -0.214   7.365 -1.0709 -0.0672  0.3355
  117OSM    H2S12183   1.645  -0.104   7.370  0.3204 -0.1947 -0.2811
  117OSM    C3S12184   1.761  -0.285   7.421  0.1833  0.1003 -0.0092
  117OSM    H3S12185   1.745  -0.395   7.412  1.5804  0.0282 -2.8650
  117OSM     O312186   1.790  -0.268   7.559 -0.3924 -0.3804  0.6606
  117OSM    HO312187   1.713  -0.223   7.595  0.5208  0.1010  2.1215
  117OSM    C4S12188   1.886  -0.260   7.338 -0.0771 -0.1355  0.4537
  117OSM    H4S12189   1.910  -0.341   7.267 -0.4242 -0.7488  1.0296
  117OSM    C5S12190   1.965  -0.149   7.350  0.1173  0.3780  0.2556
  117OSM    H5S12191   1.917  -0.073   7.413 -0.8751 -0.4629  0.5537
  117OSM    C6S12192   2.078  -0.113   7.254 -0.5251  0.7303 -0.1160
  117OSM    H6S12193   2.087  -0.187   7.172  2.9409  0.5844  0.2172
  117OSM    H6T12194   2.172  -0.112   7.315  0.8132 -2.1820 -1.9175
  117OSM    C7S12195   2.053   0.021   7.196 -0.3520 -0.0688  0.6391
  117OSM    H7S12196   2.041   0.110   7.262  0.2600 -0.6311  1.5253
  117OSM    H7T12197   1.958   0.027   7.138 -1.4542  1.3009  2.4702
  117OSM    C8S12198   2.163   0.057   7.095 -0.7314 -0.0859  0.4525
  117OSM    H8S12199   2.184  -0.033   7.033  0.0220 -0.4611  1.2445
  117OSM    H8T12200   2.256   0.089   7.145 -1.4074  1.6408  0.6933
  117OSM    C9S12201   2.127   0.176   7.004 -0.6145  0.0691 -0.1264
  117OSM    H9S12202   2.104   0.262   7.070 -0.3224 -0.6851  0.9745
  117OSM    H9T12203   2.036   0.151   6.945 -2.1490 -1.1057  2.5621
  117OSM   C10S12204   2.236   0.203   6.897  0.6751  0.0872  0.3937
  117OSM   H10S12205   2.267   0.099   6.875  0.1376 -0.5960  2.6466
  117OSM   H10T12206   2.334   0.236   6.939  0.9342 -0.1807  0.0124
  117OSM   C11S12207   2.200   0.293   6.783  0.2982  0.4732  0.8062
  117OSM   H11S12208   2.206   0.396   6.824 -2.3983  1.7131 -1.6083
  117OSM   H11T12209   2.097   0.269   6.747  1.1720 -2.0912 -0.2454
  117OSM   C12S12210   2.299   0.274   6.669  0.5022  0.0987 -0.0237
  117OSM   H12S12211   2.390   0.229   6.714  1.3436 -1.0002 -2.6346
  117OSM   H12T12212   2.340   0.374   6.645 -1.1091  0.5518 -1.0199
  117OSM   C13S12213   2.248   0.198   6.539 -0.5610  0.1840  0.2841
  117OSM   H13S12214   2.149   0.244   6.520 -0.5788  1.4092  2.8778
  117OSM   H13T12215   2.240   0.088   6.554 -1.6793 -0.6298 -4.6041
  117OSM   C14S12216   2.343   0.216   6.421  0.4159  0.4973 -0.2481
  117OSM   H14S12217   2.336   0.127   6.355 -1.6533 -0.8682  1.6364
  117OSM   H14T12218   2.444   0.199   6.465 -0.1656  0.7497  1.2699
  117OSM   C15S12219   2.330   0.337   6.337  0.0981 -0.6107  0.8726
  117OSM   H15S12220   2.407   0.320   6.258 -0.6986  0.4924 -0.1917
  117OSM   H15T12221   2.354   0.429   6.394  0.9127 -1.0999  1.3241
  117OSM   C16S12222   2.190   0.353   6.266 -0.1054 -1.3140 -0.3848
  117OSM   H16S12223   2.120   0.408   6.332  0.7649  1.3430 -1.5724
  117OSM   H16T12224   2.133   0.258   6.251  0.6391 -1.5673 -1.7831
  117OSM   C17S12225   2.191   0.435   6.132  0.9650  0.5137  0.9654
  117OSM   H17S12226   2.081   0.449   6.121  1.0097 -0.3500 -0.9559
  117OSM   H17T12227   2.216   0.374   6.043  0.8571 -0.1240  1.3640
  117OSM   C18S12228   2.259   0.564   6.136  0.2294 -0.4605 -0.6262
  117OSM   H18S12229   2.198   0.631   6.200  1.1108  0.1998 -0.4592
  117OSM   H18T12230   2.265   0.599   6.030 -0.0788  1.0489 -0.1673
  117OSM   H18U12231   2.363   0.557   6.174  1.8900 -0.6270 -4.6552
  117OSM    C1F12232   1.498  -0.177   7.173  0.0381 -0.1546 -0.8648
  117OSM     OF12233   1.459  -0.069   7.223 -0.0285  0.2718 -0.2240
  117OSM    C2F12234   1.438  -0.241   7.049  0.3025  0.4735  0.0572
  117OSM    H2F12235   1.341  -0.293   7.064  1.6100 -2.5210 -1.0342
  117OSM    H2G12236   1.502  -0.324   7.011  1.2977  1.5931 -0.7803
  117OSM    C3F12237   1.425  -0.143   6.932  1.1267  0.2840 -0.5749
  117OSM    H3F12238   1.525  -0.099   6.913 -0.0007  3.8554  0.9047
  117OSM    H3G12239   1.366  -0.052   6.958  1.4429  1.1092 -2.6134
  117OSM    C4F12240   1.381  -0.204   6.798 -0.2587  0.2547  0.4396
  117OSM    H4F12241   1.275  -0.234   6.790 -0.0246 -0.5968  0.4310
  117OSM    H4G12242   1.455  -0.284   6.775  0.6771  0.8925  1.1058
  117OSM    C5F12243   1.416  -0.116   6.679 -0.5362  0.2159  0.3408
  117OSM    H5F12244   1.419  -0.180   6.588  2.3856 -1.9627  1.8163
  117OSM    H5G12245   1.521  -0.085   6.692 -1.0357  2.5218 -0.7087
  117OSM    C6F12246   1.313   0.002   6.668 -0.5795  0.2275  0.2330
  117OSM    H6F12247   1.314   0.078   6.748 -0.4022 -0.2989  0.7370
  117OSM    H6G12248   1.211  -0.040   6.679 -0.2540 -0.6508 -0.0165
  117OSM    C7F12249   1.322   0.076   6.533 -0.0313 -0.4049 -0.1039
  117OSM    H7F12250   1.429   0.086   6.503  0.5243 -1.8443  1.2385
  117OSM    H7G12251   1.277   0.176   6.550  1.1632  0.0383  0.5647
  117OSM    C8F12252   1.262   0.005   6.408 -0.8250 -0.1433  0.1877
  117OSM    H8F12253   1.158  -0.013   6.441 -0.5262 -0.2689  1.0729
  117OSM    H8G12254   1.319  -0.090   6.402 -0.6098 -0.0073  0.0398
  117OSM    C9F12255   1.266   0.083   6.280 -0.8419 -0.5090  0.6818
  117OSM    H9F12256   1.326   0.174   6.280 -2.3611  0.5329  0.3001
  117OSM   C10F12257   1.238   0.019   6.160  0.0460  0.0896  0.0177
  117OSM   H10F12258   1.255   0.070   6.064 -0.7424  0.5369  0.1076
  117OSM   C11F12259   1.175  -0.115   6.136 -0.2552 -0.5700  0.0652
  117OSM   H11F12260   1.115  -0.097   6.044  1.2707 -0.4475 -0.9308
  117OSM   H11G12261   1.111  -0.155   6.218 -1.3451 -1.4708 -1.1758
  117OSM   C12F12262   1.280  -0.223   6.111 -0.1694  0.5701  0.0983
  117OSM   H12F12263   1.216  -0.314   6.105  3.0757 -1.8398 -1.0552
  117OSM   H12G12264   1.363  -0.233   6.185 -0.2370 -0.8966  0.0182
  117OSM   C13F12265   1.344  -0.200   5.975 -0.4208 -0.0364 -0.6892
  117OSM   H13F12266   1.403  -0.106   5.970  1.6033 -1.1713  0.4193
  117OSM   H13G12267   1.255  -0.201   5.908 -0.8043 -1.9443 -0.2144
  117OSM   C14F12268   1.435  -0.318   5.931 -0.4136 -0.0369 -0.8090
  117OSM   H14F12269   1.386  -0.417   5.945  0.4794 -0.4117 -0.3230
  117OSM   H14G12270   1.519  -0.313   6.003 -1.4750 -0.9709  0.5454
  117OSM   C15F12271   1.486  -0.312   5.785 -0.4985  0.9074 -0.1486
  117OSM   H15F12272   1.402  -0.334   5.715 -0.4308  4.4804 -1.5476
  117OSM   H15G12273   1.561  -0.392   5.766 -1.0521  0.7004 -1.6038
  117OSM   C16F12274   1.555  -0.185   5.741 -0.6783  0.0202 -0.0073
  117OSM   H16F12275   1.647  -0.170   5.801  0.1007 -0.5631 -1.0162
  117OSM   H16G12276   1.492  -0.095   5.757 -0.9081  0.1093 -1.3290
  117OSM   C17F12277   1.595  -0.182   5.592 -0.3084 -0.3931 -0.8767
  117OSM   H17F12278   1.641  -0.082   5.573 -1.0600  0.3416  0.9405
  117OSM   H17G12279   1.503  -0.182   5.531 -0.4687 -0.0342 -0.6406
  117OSM   C18F12280   1.668  -0.302   5.540 -0.8815  0.9067  0.2631
  117OSM   H18F12281   1.696  -0.304   5.432 -1.2474  0.8968  0.1671
  117OSM   H18G12282   1.597  -0.386   5.552 -1.0290  1.2584  2.2094
  117OSM   H18H12283   1.755  -0.336   5.601 -1.9045  0.7665  1.6875
  118OSM      N12284   4.022   0.536   7.979 -1.1600 -0.3405  0.2984
  118OSM    C1512285   4.159   0.554   7.917  0.2333  0.0803 -0.2675
  118OSM   H15A12286   4.226   0.571   7.999 -1.1100  0.8981  0.7080
  118OSM   H15B12287   4.162   0.644   7.857  2.4986 -0.8301 -1.6263
  118OSM   H15C12288   4.192   0.466   7.865  0.3558 -0.0302 -0.0036
  118OSM    C1412289   4.021   0.401   8.051  0.8304 -0.3167 -0.3789
  118OSM   H14A12290   3.920   0.368   8.073  0.8986  0.5549  1.4235
  118OSM   H14B12291   4.089   0.394   8.135  0.1652 -1.9793  0.0833
  118OSM   H14C12292   4.053   0.330   7.976  2.1930 -0.5777  0.4248
  118OSM    C1312293   3.992   0.648   8.072 -0.2437  0.0019  0.5136
  118OSM   H13A12294   4.050   0.630   8.162 -0.7590  0.2968  0.9128
  118OSM   H13B12295   3.891   0.636   8.108  0.1022 -1.0518  1.1997
  118OSM   H13C12296   3.999   0.744   8.024  1.1213 -0.8869 -1.1660
  118OSM    C1212297   3.928   0.535   7.860  0.8116 -0.8311 -0.2899
  118OSM   H12A12298   3.931   0.627   7.803 -0.3745 -1.1684 -0.9299
  118OSM   H12B12299   3.827   0.516   7.895  0.7963 -1.0691 -0.4634
  118OSM    C1112300   3.942   0.420   7.760  0.5638 -0.0702  0.1035
  118OSM   H11A12301   4.036   0.434   7.701 -0.0467 -1.6953 -1.3385
  118OSM   H11B12302   3.863   0.438   7.684  0.5515 -0.8735 -0.0832
  118OSM      P12303   3.852   0.174   7.766 -0.2994 -0.0800  0.6096
  118OSM    O1312304   3.881   0.048   7.844  0.0695  0.3336 -0.0021
  118OSM    O1412305   3.711   0.205   7.754  0.1526  0.4687 -0.1941
  118OSM    O1112306   3.909   0.159   7.614  0.1654 -0.3633  0.3375
  118OSM    O1212307   3.932   0.295   7.830  0.4211 -0.2606 -0.9452
  118OSM    C1S12308   4.052   0.160   7.580 -0.3339 -0.1742  0.2910
  118OSM    H1S12309   4.087   0.062   7.619 -1.1068 -0.0687  1.2747
  118OSM    H1T12310   4.094   0.253   7.623 -0.6646  1.4889 -2.6589
  118OSM     NF12311   4.215   0.176   7.407 -0.8312  0.3833 -0.4512
  118OSM    HNF12312   4.262   0.264   7.401 -0.0964  0.2203  1.9016
  118OSM    C2S12313   4.079   0.189   7.425  0.5092 -0.3478 -0.4216
  118OSM    H2S12314   4.033   0.107   7.365  1.2335 -0.6825 -0.5313
  118OSM    C3S12315   4.013   0.327   7.385 -0.1701 -0.7697  0.3389
  118OSM    H3S12316   4.053   0.409   7.448  0.0693 -0.2823 -0.4300
  118OSM     O312317   3.877   0.326   7.424  0.8250  0.1648 -0.4976
  118OSM    HO312318   3.866   0.255   7.487  1.6331 -1.3154 -1.9410
  118OSM    C4S12319   4.031   0.360   7.240 -0.2675  0.2372  0.2348
  118OSM    H4S12320   4.131   0.401   7.224  0.0899 -0.5890  0.3238
  118OSM    C5S12321   3.943   0.351   7.136 -0.3226  0.6515 -0.0412
  118OSM    H5S12322   3.841   0.313   7.147 -0.0152 -0.1768  0.0817
  118OSM    C6S12323   3.965   0.402   6.994 -0.0049 -0.4203  0.0930
  118OSM    H6S12324   4.067   0.370   6.964  0.5691  0.2496  1.2697
  118OSM    H6T12325   3.948   0.512   6.990 -1.4179 -0.6302 -0.3005
  118OSM    C7S12326   3.862   0.352   6.884 -0.1253  0.0864  0.3735
  118OSM    H7S12327   3.770   0.413   6.895 -1.5855 -1.7400 -0.9346
  118OSM    H7T12328   3.831   0.246   6.895 -2.0976  0.5599 -0.1960
  118OSM    C8S12329   3.917   0.370   6.740 -0.4200 -0.2194  0.4425
  118OSM    H8S12330   4.023   0.335   6.738 -0.8036 -1.3869 -0.7405
  118OSM    H8T12331   3.910   0.477   6.711 -1.2468 -0.6011 -0.8147
  118OSM    C9S12332   3.852   0.296   6.625 -0.2585  0.0290 -0.6466
  118OSM    H9S12333   3.743   0.313   6.640 -0.4326 -2.5855  1.9569
  118OSM    H9T12334   3.874   0.189   6.645  1.5585  0.5340  0.2709
  118OSM   C10S12335   3.871   0.356   6.483  0.2867 -0.4785 -0.5139
  118OSM   H10S12336   3.977   0.362   6.449  0.1917  1.4806 -0.5952
  118OSM   H10T12337   3.841   0.462   6.499  1.8410  0.4191 -2.8882
  118OSM   C11S12338   3.789   0.284   6.376  0.4949  0.1876  0.0782
  118OSM   H11S12339   3.682   0.295   6.402  0.5645  1.1230 -0.0209
  118OSM   H11T12340   3.810   0.174   6.378  0.3777  0.0393 -2.6485
  118OSM   C12S12341   3.814   0.331   6.236  0.2957 -0.1842  0.5500
  118OSM   H12S12342   3.919   0.312   6.208  0.6447  1.3597  0.7044
  118OSM   H12T12343   3.820   0.442   6.244  2.1126 -0.3086  1.3175
  118OSM   C13S12344   3.706   0.279   6.132 -1.0253  0.1786 -1.3649
  118OSM   H13S12345   3.620   0.345   6.156  1.2334  2.5249  0.9226
  118OSM   H13T12346   3.682   0.180   6.176 -0.1501  0.2934 -0.5812
  118OSM   C14S12347   3.747   0.249   5.991 -0.7274  0.6342 -0.1313
  118OSM   H14S12348   3.792   0.148   5.997 -1.6190  0.2400  0.1074
  118OSM   H14T12349   3.817   0.320   5.942  0.6404 -0.7642 -0.2908
  118OSM   C15S12350   3.617   0.217   5.902 -0.9229 -0.4678 -0.4925
  118OSM   H15S12351   3.581   0.317   5.868 -0.9594 -0.0306  0.7860
  118OSM   H15T12352   3.533   0.172   5.959 -1.1996 -0.7668 -1.1158
  118OSM   C16S12353   3.657   0.123   5.785  0.0875  0.2883 -0.1202
  118OSM   H16S12354   3.623   0.024   5.821 -0.2006  0.6578  0.6643
  118OSM   H16T12355   3.767   0.113   5.777  0.0634 -1.2686  1.0927
  118OSM   C17S12356   3.575   0.163   5.662 -0.4270 -0.0646  0.7750
  118OSM   H17S12357   3.613   0.259   5.620 -1.6623 -0.8191 -2.2838
  118OSM   H17T12358   3.470   0.184   5.692 -1.4627 -0.3039 -2.3204
  118OSM   C18S12359   3.574   0.072   5.539  0.0283  0.7247  1.2281
  118OSM   H18S12360   3.518  -0.023   5.551  0.1436  0.0868 -2.3158
  118OSM   H18T12361   3.677   0.051   5.504  0.0210 -0.4192  1.8641
  118OSM   H18U12362   3.514   0.118   5.457  1.5337 -0.8033 -0.8527
  118OSM    C1F12363   4.272   0.058   7.402  0.8033  0.9557 -0.1908
  118OSM     OF12364   4.203  -0.043   7.378  0.1895 -0.3254  0.0031
  118OSM    C2F12365   4.418   0.060   7.401  0.5436 -0.2001 -0.3393
  118OSM    H2F12366   4.454  -0.045   7.407 -0.2885 -0.4504  0.6777
  118OSM    H2G12367   4.443   0.115   7.494 -0.1371 -0.4643  0.0100
  118OSM    C3F12368   4.479   0.106   7.267  0.0440 -0.4808  0.1800
  118OSM    H3F12369   4.589   0.090   7.278  0.0666 -1.5091 -1.2666
  118OSM    H3G12370   4.460   0.215   7.256 -1.9787 -0.7381  0.6925
  118OSM    C4F12371   4.434   0.028   7.146 -0.4462 -0.4255  0.1153
  118OSM    H4F12372   4.349   0.085   7.102 -0.3235 -0.2161  0.1474
  118OSM    H4G12373   4.393  -0.071   7.175 -1.4402 -0.7125 -2.1044
  118OSM    C5F12374   4.543   0.011   7.040  0.2418 -0.1395 -0.0517
  118OSM    H5F12375   4.629  -0.043   7.085  0.6914  1.5029  1.1877
  118OSM    H5G12376   4.564   0.117   7.012  1.5909 -0.6736 -1.1864
  118OSM    C6F12377   4.495  -0.073   6.919  0.0706  0.2017 -1.1968
  118OSM    H6F12378   4.567  -0.055   6.836  2.0612  0.4521  0.5002
  118OSM    H6G12379   4.396  -0.036   6.885 -0.2281  0.3863 -0.1509
  118OSM    C7F12380   4.492  -0.223   6.950 -0.2437 -0.3883  0.2625
  118OSM    H7F12381   4.426  -0.236   7.038 -2.1368  2.3899 -0.6008
  118OSM    H7G12382   4.595  -0.258   6.971  1.0467  1.3294 -2.5468
  118OSM    C8F12383   4.445  -0.314   6.841  0.1439  0.4742 -0.2731
  118OSM    H8F12384   4.469  -0.270   6.741  1.3576 -0.4570 -0.4116
  118OSM    H8G12385   4.335  -0.313   6.850  0.0418  1.1465 -1.3709
  118OSM    C9F12386   4.494  -0.461   6.845 -0.3444  0.3407 -0.2066
  118OSM    H9F12387   4.602  -0.470   6.867 -0.3421  0.8637  0.0031
  118OSM   C10F12388   4.423  -0.571   6.813  0.2520 -0.5148 -0.2545
  118OSM   H10F12389   4.477  -0.666   6.811 -0.2102 -0.8317  1.3661
  118OSM   C11F12390   4.276  -0.582   6.776 -0.0965 -0.2880 -0.4721
  118OSM   H11F12391   4.229  -0.489   6.814 -0.8609  0.1599 -2.3679
  118OSM   H11G12392   4.225  -0.662   6.833 -0.1188 -0.5833 -0.9019
  118OSM   C12F12393   4.244  -0.576   6.623 -0.8053 -0.2067  0.5503
  118OSM   H12F12394   4.300  -0.652   6.565 -1.1543 -1.3189  1.6224
  118OSM   H12G12395   4.268  -0.476   6.580 -2.0558 -0.3032 -0.4141
  118OSM   C13F12396   4.095  -0.596   6.597 -0.7026  0.3097 -0.1033
  118OSM   H13F12397   4.044  -0.568   6.692  2.8429 -2.7407  2.9835
  118OSM   H13G12398   4.064  -0.701   6.577  1.8791 -0.4267 -0.5686
  118OSM   C14F12399   4.048  -0.524   6.474  0.7128  0.5865  0.3728
  118OSM   H14F12400   4.092  -0.422   6.477  1.3595  0.3451 -0.4386
  118OSM   H14G12401   3.938  -0.518   6.468  0.7033  0.3602  0.3189
  118OSM   C15F12402   4.097  -0.589   6.347  0.2358 -0.8157 -0.9108
  118OSM   H15F12403   4.031  -0.677   6.333 -1.4477 -0.0688  1.6162
  118OSM   H15G12404   4.198  -0.628   6.373 -0.2290  0.1225  2.8767
  118OSM   C16F12405   4.114  -0.509   6.223  0.1780  0.2485 -0.2009
  118OSM   H16F12406   4.196  -0.435   6.231 -0.5688  1.1393 -0.5203
  118OSM   H16G12407   4.019  -0.454   6.206  0.4921  1.5639  1.9909
  118OSM   C17F12408   4.138  -0.610   6.106  0.3702 -0.3116  0.1654
  118OSM   H17F12409   4.044  -0.669   6.098 -1.0580  1.6570  1.4266
  118OSM   H17G12410   4.217  -0.686   6.123  1.2450  0.3684 -0.7533
  118OSM   C18F12411   4.181  -0.545   5.974 -0.0586  0.4489 -0.1491
  118OSM   H18F12412   4.113  -0.478   5.918  0.5634  1.4358  0.2412
  118OSM   H18G12413   4.225  -0.617   5.901 -0.4618  1.4221 -1.3840
  118OSM   H18H12414   4.267  -0.479   5.998  0.4387 -0.7356  1.4920
  119OSM      N12415   5.483   4.087   7.957  0.4390 -0.0649  0.0970
  119OSM    C1512416   5.445   4.226   7.983  0.1608  0.2399  0.3497
  119OSM   H15A12417   5.339   4.233   7.965  0.2207  0.6763  0.1315
  119OSM   H15B12418   5.509   4.284   7.917 -1.3264  0.9924 -0.4781
  119OSM   H15C12419   5.467   4.256   8.084  1.7409 -1.0274  0.4346
  119OSM    C1412420   5.629   4.071   7.943 -0.0858 -0.0411 -0.3161
  119OSM   H14A12421   5.666   4.141   7.870 -1.6549  0.3967 -0.7271
  119OSM   H14B12422   5.643   3.972   7.901 -2.4093 -0.0097 -1.3160
  119OSM   H14C12423   5.691   4.076   8.031  0.6401 -1.1676 -0.7303
  119OSM    C1312424   5.444   4.013   8.084  0.7767 -0.5854 -0.1866
  119OSM   H13A12425   5.480   3.912   8.082  1.0618 -0.5746  2.2633
  119OSM   H13B12426   5.338   4.016   8.107  1.4254 -0.7537  3.2848
  119OSM   H13C12427   5.490   4.067   8.165  0.4049  0.1428 -0.4453
  119OSM    C1212428   5.413   4.024   7.835  0.2545 -0.0589 -0.9078
  119OSM   H12A12429   5.305   4.017   7.837  0.2045  0.7479 -0.5800
  119OSM   H12B12430   5.442   3.920   7.839 -0.8371 -0.3409  0.8515
  119OSM    C1112431   5.441   4.087   7.696 -0.6467 -0.5687  0.2290
  119OSM   H11A12432   5.407   4.017   7.616  0.0294  0.1393 -0.7056
  119OSM   H11B12433   5.550   4.088   7.672 -0.5811  0.4473  0.5030
  119OSM      P12434   5.218   4.232   7.656  0.0147  0.2839 -0.2269
  119OSM    O1312435   5.139   4.164   7.758 -0.9136 -0.7281  0.1644
  119OSM    O1412436   5.209   4.376   7.646 -0.0839 -0.0961  0.9971
  119OSM    O1112437   5.199   4.163   7.522 -0.1113 -0.0426  0.1428
  119OSM    O1212438   5.370   4.209   7.690  0.7976 -0.8055 -0.1167
  119OSM    C1S12439   5.266   4.222   7.406  0.1673 -0.1677 -0.1988
  119OSM    H1S12440   5.375   4.240   7.423  0.3329 -0.7592 -0.5794
  119OSM    H1T12441   5.218   4.316   7.373  0.1191 -0.5162 -1.1454
  119OSM     NF12442   5.354   4.187   7.176 -0.0174 -0.7815  0.2004
  119OSM    HNF12443   5.304   4.253   7.120 -0.9327  0.8210  2.7168
  119OSM    C2S12444   5.263   4.126   7.280  0.2265  0.3481  1.0806
  119OSM    H2S12445   5.306   4.026   7.301 -0.6689 -0.6086 -1.2766
  119OSM    C3S12446   5.117   4.101   7.239  0.3684 -0.0158  1.3273
  119OSM    H3S12447   5.062   4.196   7.226  1.5898  0.6710  0.9902
  119OSM     O312448   5.046   4.032   7.341  0.1580 -0.2306  0.2142
  119OSM    HO312449   5.098   4.053   7.419 -0.4998 -0.1579  0.6427
  119OSM    C4S12450   5.098   4.027   7.110 -0.5578  0.4056  0.2301
  119OSM    H4S12451   5.138   3.924   7.115 -0.8088  0.3605  4.4201
  119OSM    C5S12452   5.045   4.070   6.993  0.5065  0.4674 -0.6704
  119OSM    H5S12453   4.999   4.169   6.997  0.0914  0.2670 -0.4607
  119OSM    C6S12454   5.021   3.990   6.872 -0.4287  0.3101  0.3531
  119OSM    H6S12455   5.096   4.011   6.793  2.7866 -1.5581  2.6793
  119OSM    H6T12456   4.928   4.031   6.827  0.1899  0.4213 -0.8745
  119OSM    C7S12457   5.037   3.836   6.884  0.4303  0.0686  0.6055
  119OSM    H7S12458   4.966   3.792   6.958 -0.3910 -0.5965 -0.5542
  119OSM    H7T12459   5.136   3.808   6.925 -1.3870 -2.5089  3.7224
  119OSM    C8S12460   5.010   3.759   6.751 -0.9308 -0.1079 -0.3431
  119OSM    H8S12461   4.920   3.799   6.701  1.0299  2.5366 -2.0218
  119OSM    H8T12462   5.011   3.648   6.757  0.1982 -0.0322  3.0304
  119OSM    C9S12463   5.125   3.785   6.651  0.7999  0.2722 -0.3803
  119OSM    H9S12464   5.209   3.730   6.699  1.5838  1.5950 -0.2027
  119OSM    H9T12465   5.159   3.890   6.646 -0.5238  0.8347  1.3466
  119OSM   C10S12466   5.093   3.706   6.522 -0.3485 -0.9885 -0.4838
  119OSM   H10S12467   5.005   3.757   6.478  1.4439  0.7551 -2.2763
  119OSM   H10T12468   5.069   3.600   6.545 -0.9717 -0.5713  0.8468
  119OSM   C11S12469   5.213   3.719   6.422 -0.0732  0.1321  0.1769
  119OSM   H11S12470   5.300   3.667   6.467  0.4352 -1.0808 -2.0603
  119OSM   H11T12471   5.242   3.824   6.402 -0.2773  0.3155  0.8100
  119OSM   C12S12472   5.184   3.644   6.292 -0.5276 -0.5860  0.0357
  119OSM   H12S12473   5.100   3.696   6.240  0.0359  2.5105  1.9606
  119OSM   H12T12474   5.152   3.541   6.316 -0.1353 -0.5777  0.6112
  119OSM   C13S12475   5.307   3.638   6.206 -0.6974 -0.3386  0.8604
  119OSM   H13S12476   5.379   3.567   6.252  2.0290  1.5848 -0.2096
  119OSM   H13T12477   5.358   3.736   6.198 -0.1467 -0.5324  1.9002
  119OSM   C14S12478   5.286   3.609   6.058  0.6092  0.5047  0.1287
  119OSM   H14S12479   5.226   3.516   6.054  1.4959 -0.0266 -2.7274
  119OSM   H14T12480   5.390   3.593   6.021  0.4316  0.6130 -0.4134
  119OSM   C15S12481   5.228   3.721   5.974 -0.5461 -0.1585 -0.7998
  119OSM   H15S12482   5.303   3.791   5.934 -0.6626 -0.9309 -2.4569
  119OSM   H15T12483   5.166   3.779   6.046  2.4189  0.9905  0.9824
  119OSM   C16S12484   5.150   3.671   5.857  0.1696 -0.5190  0.3040
  119OSM   H16S12485   5.047   3.641   5.886  0.0058 -3.5229 -2.7349
  119OSM   H16T12486   5.204   3.585   5.813 -1.6273  0.0194 -3.3151
  119OSM   C17S12487   5.151   3.774   5.745 -0.9680 -0.3508  0.7517
  119OSM   H17S12488   5.257   3.794   5.722 -0.6655 -1.7629  0.8236
  119OSM   H17T12489   5.113   3.865   5.797 -0.5441  0.0248  0.4121
  119OSM   C18S12490   5.062   3.742   5.620 -0.4208  0.0855 -0.5288
  119OSM   H18S12491   4.955   3.729   5.645 -0.3937 -0.1248 -0.5192
  119OSM   H18T12492   5.094   3.647   5.570  1.0188 -0.6539  1.6503
  119OSM   H18U12493   5.062   3.825   5.546 -0.3803  1.8610  1.3907
  119OSM    C1F12494   5.487   4.193   7.185  0.8775  0.3442 -0.1458
  119OSM     OF12495   5.544   4.148   7.279  0.3286 -0.1067 -0.1234
  119OSM    C2F12496   5.550   4.250   7.062 -0.0408  0.1488 -0.4908
  119OSM    H2F12497   5.660   4.245   7.078  0.0861 -0.3052 -1.4092
  119OSM    H2G12498   5.514   4.354   7.051 -1.0353 -0.1409 -0.1099
  119OSM    C3F12499   5.512   4.161   6.940  0.0394  0.0465  0.1435
  119OSM    H3F12500   5.401   4.159   6.932  0.1183 -0.6468 -1.1146
  119OSM    H3G12501   5.543   4.058   6.964 -2.7214 -1.0409 -0.5394
  119OSM    C4F12502   5.589   4.191   6.811  0.2913 -0.1044 -0.0938
  119OSM    H4F12503   5.693   4.153   6.813  0.8235  1.1397 -1.9153
  119OSM    H4G12504   5.595   4.300   6.795 -0.4075 -0.2843 -1.7228
  119OSM    C5F12505   5.515   4.143   6.683  0.0498 -0.7258  0.1764
  119OSM    H5F12506   5.413   4.184   6.689 -0.0396 -1.1357  2.1769
  119OSM    H5G12507   5.502   4.033   6.669  0.0371 -0.5767 -1.0359
  119OSM    C6F12508   5.576   4.212   6.556  0.0426 -0.3392  0.1606
  119OSM    H6F12509   5.682   4.181   6.543  0.1614 -1.2393  2.7306
  119OSM    H6G12510   5.578   4.318   6.587  2.6739 -0.1779 -0.2857
  119OSM    C7F12511   5.495   4.191   6.428  0.0512 -0.8078  0.7565
  119OSM    H7F12512   5.387   4.202   6.453 -0.3359  1.3902 -1.5021
  119OSM    H7G12513   5.523   4.086   6.405  0.4276 -0.2626 -1.4493
  119OSM    C8F12514   5.511   4.286   6.305  0.0247  0.4253  0.3112
  119OSM    H8F12515   5.455   4.240   6.221 -1.2630 -0.5552  1.6475
  119OSM    H8G12516   5.616   4.261   6.282 -0.0201 -0.5372  1.1010
  119OSM    C9F12517   5.501   4.435   6.322  0.0203 -0.2918  0.0076
  119OSM    H9F12518   5.556   4.481   6.405  1.7787 -1.9028 -0.2111
  119OSM   C10F12519   5.418   4.513   6.260  0.6118 -0.2770 -0.1209
  119OSM   H10F12520   5.426   4.619   6.288 -0.4805 -0.6023  1.5907
  119OSM   C11F12521   5.330   4.480   6.144 -0.1167 -0.1064 -0.0726
  119OSM   H11F12522   5.225   4.464   6.175 -0.2101 -0.1146 -0.3887
  119OSM   H11G12523   5.372   4.397   6.083 -0.0538  0.2707 -0.5490
  119OSM   C12F12524   5.338   4.598   6.036 -0.0089 -0.1339 -0.1847
  119OSM   H12F12525   5.447   4.613   6.020  0.3190 -0.3281  1.6277
  119OSM   H12G12526   5.290   4.682   6.091  0.0422  0.6498 -1.2989
  119OSM   C13F12527   5.270   4.550   5.908 -0.2140  0.3860 -0.7490
  119OSM   H13F12528   5.167   4.512   5.925 -0.5111  0.1679 -2.7455
  119OSM   H13G12529   5.326   4.461   5.872  1.1579  0.6706  0.6002
  119OSM   C14F12530   5.260   4.662   5.802 -0.6143 -0.4522  0.0622
  119OSM   H14F12531   5.232   4.764   5.838 -1.9624 -0.7966  0.0241
  119OSM   H14G12532   5.186   4.622   5.730 -0.4816 -1.0988  0.2812
  119OSM   C15F12533   5.393   4.685   5.729  0.0281 -1.2761  0.4156
  119OSM   H15F12534   5.447   4.588   5.721  1.2177 -0.5156 -1.1706
  119OSM   H15G12535   5.455   4.751   5.794  0.3427  1.0419 -2.0741
  119OSM   C16F12536   5.389   4.752   5.586  0.4536  0.1179 -0.0595
  119OSM   H16F12537   5.496   4.741   5.557 -0.1148 -1.9985 -1.6563
  119OSM   H16G12538   5.346   4.854   5.585 -0.9763 -0.4526 -0.4319
  119OSM   C17F12539   5.329   4.669   5.468  0.6994  0.3747 -0.2629
  119OSM   H17F12540   5.364   4.730   5.381 -1.1360  2.5332  0.4014
  119OSM   H17G12541   5.218   4.670   5.476  0.6801 -3.0269  1.5171
  119OSM   C18F12542   5.383   4.532   5.465  0.4010 -0.6006 -0.0400
  119OSM   H18F12543   5.493   4.529   5.481  0.1778  0.0406  1.8653
  119OSM   H18G12544   5.346   4.477   5.376  0.8407 -0.4747 -0.2996
  119OSM   H18H12545   5.343   4.477   5.553  0.1269 -2.3523 -1.2077
  120OSM      N12546   0.933   3.647   7.731 -0.5095 -0.6856 -0.0483
  120OSM    C1512547   0.979   3.784   7.693 -0.1124  0.1586 -0.1743
  120OSM   H15A12548   1.085   3.791   7.673 -0.4480 -1.1981 -2.7979
  120OSM   H15B12549   0.964   3.852   7.777 -0.1292  0.7380 -0.6388
  120OSM   H15C12550   0.927   3.825   7.608  0.1177  0.3532 -0.2219
  120OSM    C1412551   1.004   3.609   7.854  0.3398  0.2819 -0.0045
  120OSM   H14A12552   0.961   3.521   7.900  0.3908 -0.5497 -1.4775
  120OSM   H14B12553   0.996   3.691   7.924  0.4447  0.0488  0.2857
  120OSM   H14C12554   1.108   3.593   7.828 -0.1307  0.7673 -2.3575
  120OSM    C1312555   0.792   3.667   7.766 -0.0224  0.4221 -0.1326
  120OSM   H13A12556   0.736   3.578   7.789 -2.1769  1.4958 -0.9514
  120OSM   H13B12557   0.744   3.707   7.678  1.5482  0.6419 -0.9134
  120OSM   H13C12558   0.771   3.735   7.847 -1.3759 -0.1514  0.0246
  120OSM    C1212559   0.964   3.546   7.622 -0.6534  0.3569  0.2314
  120OSM   H12A12560   1.066   3.543   7.589 -0.3847  1.9211  0.8394
  120OSM   H12B12561   0.905   3.573   7.535 -1.4681  1.0350  0.9705
  120OSM    C1112562   0.938   3.397   7.656 -0.1609 -0.0964 -0.0806
  120OSM   H11A12563   1.001   3.364   7.742  0.4275 -1.0141 -0.8495
  120OSM   H11B12564   0.959   3.338   7.565 -3.2630  0.1265 -1.0613
  120OSM      P12565   0.691   3.333   7.587  0.0710  0.2449  0.0664
  120OSM    O1312566   0.672   3.189   7.595  0.1410  0.6382 -0.3226
  120OSM    O1412567   0.568   3.417   7.612  0.0845  0.5048 -0.2150
  120OSM    O1112568   0.749   3.371   7.447 -0.2724 -0.0084 -0.6497
  120OSM    O1212569   0.802   3.376   7.692  0.6489 -0.3842 -0.4011
  120OSM    C1S12570   0.706   3.309   7.330  0.6164  0.2707  0.1985
  120OSM    H1S12571   0.602   3.270   7.334  1.0850 -1.4514 -2.1811
  120OSM    H1T12572   0.771   3.223   7.303 -0.5067  0.0104 -1.8750
  120OSM     NF12573   0.619   3.323   7.111 -0.4148 -0.0833  0.0113
  120OSM    HNF12574   0.662   3.253   7.055 -2.9875 -0.6535 -1.4155
  120OSM    C2S12575   0.703   3.394   7.202  0.4661  0.4696 -0.1139
  120OSM    H2S12576   0.658   3.492   7.230  1.7493  1.9807 -2.8870
  120OSM    C3S12577   0.848   3.428   7.159  0.0612 -0.3338  0.3094
  120OSM    H3S12578   0.906   3.336   7.138 -0.4006 -0.4132 -0.7076
  120OSM     O312579   0.914   3.508   7.253  0.2852  0.1040  0.5839
  120OSM    HO312580   0.847   3.504   7.322  0.0554  2.3607  0.5600
  120OSM    C4S12581   0.844   3.504   7.023 -0.2602 -0.5809  0.1579
  120OSM    H4S12582   0.806   3.607   7.021  2.5509  0.5773 -1.6965
  120OSM    C5S12583   0.902   3.462   6.909 -0.0661  0.0937  0.3397
  120OSM    H5S12584   0.931   3.356   6.906 -1.6926 -0.3673  0.1076
  120OSM    C6S12585   0.904   3.539   6.785 -0.0395 -0.1553  0.0634
  120OSM    H6S12586   1.005   3.584   6.782 -0.7785  1.5365 -1.5250
  120OSM    H6T12587   0.828   3.619   6.774 -2.2063 -2.3088 -2.0450
  120OSM    C7S12588   0.897   3.442   6.668  0.2136  0.5132  0.2544
  120OSM    H7S12589   0.799   3.389   6.668  0.0092  0.8844  0.6303
  120OSM    H7T12590   0.982   3.370   6.674  1.3136  1.8877  3.0983
  120OSM    C8S12591   0.903   3.522   6.537 -0.8581  0.1222  0.4247
  120OSM    H8S12592   0.821   3.595   6.521 -0.3999  0.1428 -2.1883
  120OSM    H8T12593   0.884   3.446   6.458 -0.4353  0.6447 -0.1895
  120OSM    C9S12594   1.046   3.577   6.515 -0.4080  0.0144 -0.1947
  120OSM    H9S12595   1.115   3.501   6.558 -1.4385  0.6982  2.9647
  120OSM    H9T12596   1.064   3.675   6.563 -0.6868 -0.0634  0.0742
  120OSM   C10S12597   1.079   3.591   6.362 -0.2254  0.9443  1.0518
  120OSM   H10S12598   0.994   3.646   6.316  1.2547  3.1543  0.8080
  120OSM   H10T12599   1.069   3.484   6.337  1.0416  0.5249  2.2081
  120OSM   C11S12600   1.207   3.655   6.343 -1.1370  0.3036 -0.1810
  120OSM   H11S12601   1.290   3.617   6.407 -0.5771  1.4586 -0.1985
  120OSM   H11T12602   1.200   3.765   6.357 -1.2485  0.5147 -1.7386
  120OSM   C12S12603   1.247   3.649   6.193  0.2780 -0.1455 -0.1355
  120OSM   H12S12604   1.345   3.699   6.178  1.4981 -2.2180  0.4702
  120OSM   H12T12605   1.159   3.687   6.138 -0.7986 -3.5773 -1.0405
  120OSM   C13S12606   1.274   3.507   6.139 -0.3184  0.1398  0.1401
  120OSM   H13S12607   1.174   3.459   6.135 -0.1749 -0.0792 -1.8403
  120OSM   H13T12608   1.355   3.449   6.189 -0.5516 -2.2977 -2.1171
  120OSM   C14S12609   1.332   3.509   5.995  0.4351 -0.3458  0.0761
  120OSM   H14S12610   1.425   3.569   5.989 -0.7717  1.6957  0.7070
  120OSM   H14T12611   1.257   3.555   5.927  1.6535  1.0181 -0.4129
  120OSM   C15S12612   1.357   3.361   5.946 -0.0256  0.0653  0.6681
  120OSM   H15S12613   1.262   3.304   5.952 -0.3149  0.1646 -1.8313
  120OSM   H15T12614   1.443   3.320   6.003 -2.0566 -0.6957  3.3800
  120OSM   C16S12615   1.387   3.368   5.795 -0.4612  0.0722 -0.1533
  120OSM   H16S12616   1.478   3.428   5.774  0.4254 -0.7341  1.2533
  120OSM   H16T12617   1.305   3.420   5.741  0.9117  2.2303 -0.2705
  120OSM   C17S12618   1.421   3.220   5.750  0.1265 -0.3502 -0.3344
  120OSM   H17S12619   1.334   3.155   5.775  0.4202 -0.7209 -0.2639
  120OSM   H17T12620   1.507   3.188   5.812  1.0565 -1.3060 -2.0433
  120OSM   C18S12621   1.448   3.201   5.607 -0.5487 -0.0065  0.3724
  120OSM   H18S12622   1.501   3.105   5.589 -2.7338 -1.1723 -0.2204
  120OSM   H18T12623   1.506   3.285   5.562 -0.1430 -0.6346 -0.2954
  120OSM   H18U12624   1.354   3.203   5.548 -0.9471  1.5364  0.9935
  120OSM    C1F12625   0.484   3.319   7.113  0.3855 -0.1156 -0.3895
  120OSM     OF12626   0.420   3.372   7.203  0.2716  0.4420 -0.7374
  120OSM    C2F12627   0.429   3.229   7.005 -0.2463 -0.3179  0.7028
  120OSM    H2F12628   0.344   3.171   7.046 -2.1443  0.1256 -2.2464
  120OSM    H2G12629   0.515   3.164   6.976  0.8713  1.4096 -0.0468
  120OSM    C3F12630   0.376   3.311   6.875  0.1714  0.2116  0.2090
  120OSM    H3F12631   0.302   3.385   6.913  0.8561  0.4768  1.0443
  120OSM    H3G12632   0.317   3.235   6.818  1.0107 -2.7179  2.9560
  120OSM    C4F12633   0.480   3.379   6.787  0.3646 -0.4112  0.1901
  120OSM    H4F12634   0.540   3.292   6.751  1.0615  0.0148  0.2956
  120OSM    H4G12635   0.566   3.434   6.829  0.6758 -0.4054 -0.4384
  120OSM    C5F12636   0.420   3.448   6.667 -0.1403  0.9631  0.3871
  120OSM    H5F12637   0.358   3.533   6.701 -2.6311 -0.5959 -0.0276
  120OSM    H5G12638   0.352   3.380   6.611  1.0165  0.4253 -0.4131
  120OSM    C6F12639   0.531   3.494   6.569 -0.2321  0.2687 -0.1438
  120OSM    H6F12640   0.607   3.417   6.545  1.4508  1.5754  0.7028
  120OSM    H6G12641   0.591   3.575   6.618 -0.3010  0.5623 -0.5413
  120OSM    C7F12642   0.475   3.562   6.445 -0.9200  0.0616  0.3263
  120OSM    H7F12643   0.390   3.629   6.470 -0.6810 -0.4007  2.6692
  120OSM    H7G12644   0.431   3.476   6.389 -0.1404  0.8031 -1.4892
  120OSM    C8F12645   0.585   3.622   6.362 -0.7341 -0.4723 -0.0181
  120OSM    H8F12646   0.675   3.561   6.338  1.3425  2.2927  0.1726
  120OSM    H8G12647   0.637   3.705   6.416  1.2464 -1.2261 -0.6817
  120OSM    C9F12648   0.525   3.687   6.237  0.0961 -0.7204  0.5895
  120OSM    H9F12649   0.473   3.782   6.252 -1.4771 -0.4977 -4.3795
  120OSM   C10F12650   0.538   3.651   6.107  0.5340 -0.2356  0.4342
  120OSM   H10F12651   0.484   3.707   6.030  1.9525 -1.2227 -1.3514
  120OSM   C11F12652   0.613   3.529   6.054  0.1033  0.1559 -0.2685
  120OSM   H11F12653   0.551   3.438   6.038 -0.0886  0.3334 -0.5655
  120OSM   H11G12654   0.690   3.487   6.122  1.0430  1.5151 -0.4690
  120OSM   C12F12655   0.696   3.560   5.924 -0.4450  0.6755 -0.3795
  120OSM   H12F12656   0.641   3.630   5.857  0.5604  1.3354 -0.5493
  120OSM   H12G12657   0.692   3.459   5.878  1.9389 -0.5477  1.8594
  120OSM   C13F12658   0.836   3.598   5.953  0.0484  0.0924 -0.3454
  120OSM   H13F12659   0.892   3.511   5.993  1.1829  1.1772  0.4887
  120OSM   H13G12660   0.845   3.675   6.032 -1.8918  1.5175 -1.4213
  120OSM   C14F12661   0.923   3.647   5.833 -0.1678 -0.1264  0.4408
  120OSM   H14F12662   0.883   3.600   5.740 -3.7476  2.4480  0.4525
  120OSM   H14G12663   1.029   3.618   5.847  0.5976  0.6603 -2.7609
  120OSM   C15F12664   0.929   3.801   5.814  0.4775  0.7667  0.3080
  120OSM   H15F12665   0.983   3.841   5.903 -0.7170  2.7353  0.1850
  120OSM   H15G12666   0.829   3.844   5.796  0.0490 -0.9982 -1.9813
  120OSM   C16F12667   1.021   3.827   5.695 -0.4431  0.3201  0.0861
  120OSM   H16F12668   1.076   3.731   5.687 -1.4576 -0.2079 -1.0575
  120OSM   H16G12669   1.092   3.913   5.695  0.2428 -0.1632 -2.1179
  120OSM   C17F12670   0.934   3.851   5.566 -0.5146 -0.3104 -0.2767
  120OSM   H17F12671   0.845   3.785   5.572 -1.2657  0.4384 -2.3262
  120OSM   H17G12672   0.994   3.811   5.482  0.5010  0.0029  0.2780
  120OSM   C18F12673   0.890   3.999   5.551  0.1620 -0.1655  0.2420
  120OSM   H18F12674   0.793   4.015   5.602  1.5777 -0.6781  3.3212
  120OSM   H18G12675   0.871   4.031   5.446  1.0850  1.0093  0.4076
  120OSM   H18H12676   0.966   4.064   5.600  0.1288  0.1105 -0.0639
  121OSM      N12677   1.864   4.677   8.332  0.1201 -0.4785 -0.1305
  121OSM    C1512678   1.819   4.535   8.326  0.3672  0.9525 -0.3545
  121OSM   H15A12679   1.908   4.475   8.315 -0.1742  0.4635 -2.2831
  121OSM   H15B12680   1.736   4.518   8.259  1.5274 -1.8434 -1.2255
  121OSM   H15C12681   1.786   4.507   8.426 -0.3133 -1.7176 -1.2332
  121OSM    C1412682   1.760   4.756   8.406  0.3988 -0.0733 -0.2197
  121OSM   H14A12683   1.756   4.723   8.509  1.1319 -0.5453 -0.3385
  121OSM   H14B12684   1.659   4.750   8.368  0.3439  2.9788 -0.8039
  121OSM   H14C12685   1.787   4.860   8.399 -1.2066  0.2733 -2.3128
  121OSM    C1312686   1.984   4.676   8.424 -0.0773  0.1936  0.2793
  121OSM   H13A12687   2.057   4.612   8.376 -0.0526  0.1444  0.3812
  121OSM   H13B12688   1.976   4.635   8.524  1.2741  2.0515  1.2121
  121OSM   H13C12689   2.021   4.777   8.417 -0.6605  0.3204 -1.9051
  121OSM    C1212690   1.893   4.738   8.191  0.6948 -0.3406  0.1457
  121OSM   H12A12691   1.968   4.682   8.136  1.7074  0.9416  0.1870
  121OSM   H12B12692   1.938   4.832   8.216  2.9822 -1.0338 -1.0776
  121OSM    C1112693   1.766   4.760   8.101 -0.0018 -0.4511 -0.6671
  121OSM   H11A12694   1.796   4.821   8.013  1.9980 -0.8222 -0.2971
  121OSM   H11B12695   1.686   4.817   8.152  0.4891 -0.8152  0.5584
  121OSM      P12696   1.795   4.541   7.950  0.3368 -0.1087 -0.0769
  121OSM    O1312697   1.924   4.505   8.006 -0.1496 -0.0314 -0.3985
  121OSM    O1412698   1.710   4.425   7.908 -0.4517 -0.0575  0.4901
  121OSM    O1112699   1.820   4.629   7.827  0.2031 -0.5385 -0.0485
  121OSM    O1212700   1.719   4.633   8.058 -0.3960 -0.1750  0.3191
  121OSM    C1S12701   1.890   4.588   7.710 -0.2889  1.0131  0.0612
  121OSM    H1S12702   1.957   4.502   7.732 -0.4733  1.0409  0.7585
  121OSM    H1T12703   1.954   4.672   7.676 -0.6788  0.9916 -0.7570
  121OSM     NF12704   1.867   4.500   7.476 -0.5716 -0.3305 -0.1079
  121OSM    HNF12705   1.894   4.568   7.408  0.0156 -1.4336 -1.0185
  121OSM    C2S12706   1.795   4.551   7.589  0.0125 -0.0933 -0.5668
  121OSM    H2S12707   1.726   4.470   7.620 -0.8426  0.4387 -1.0412
  121OSM    C3S12708   1.712   4.671   7.543 -0.2958 -0.1704 -0.2486
  121OSM    H3S12709   1.783   4.747   7.505  0.2324 -0.1651  0.7075
  121OSM     O312710   1.655   4.753   7.651  0.3769  0.0545  0.4665
  121OSM    HO312711   1.708   4.713   7.721 -0.3924 -0.1521  0.9383
  121OSM    C4S12712   1.614   4.634   7.431 -0.1104  0.4278 -0.6916
  121OSM    H4S12713   1.539   4.557   7.456  1.3658 -0.7631  0.2876
  121OSM    C5S12714   1.596   4.702   7.322 -0.1157 -0.5314  0.1223
  121OSM    H5S12715   1.651   4.794   7.298 -1.2531 -0.1565 -1.1169
  121OSM    C6S12716   1.498   4.663   7.221 -0.7163  0.1594  0.3765
  121OSM    H6S12717   1.545   4.589   7.152 -0.5845 -0.4320  1.0947
  121OSM    H6T12718   1.485   4.756   7.162 -1.4353 -1.5920 -2.4785
  121OSM    C7S12719   1.363   4.634   7.274 -0.2472  0.3222  0.3063
  121OSM    H7S12720   1.337   4.704   7.357  2.5957  2.8134 -0.7256
  121OSM    H7T12721   1.358   4.531   7.315  2.3087  0.6024  1.5710
  121OSM    C8S12722   1.250   4.635   7.169 -0.4586  0.1552 -0.2846
  121OSM    H8S12723   1.216   4.733   7.129  0.3110 -0.2121 -1.9565
  121OSM    H8T12724   1.168   4.578   7.218  0.7931 -2.4021 -0.9495
  121OSM    C9S12725   1.288   4.553   7.048  1.0772 -0.3416 -0.3632
  121OSM    H9S12726   1.324   4.452   7.077 -2.2826 -1.3468  0.7129
  121OSM    H9T12727   1.359   4.603   6.978 -1.9647  0.4968 -3.1439
  121OSM   C10S12728   1.163   4.512   6.970  0.5722 -0.3289 -0.5413
  121OSM   H10S12729   1.115   4.599   6.921 -0.6415 -1.5433 -1.5888
  121OSM   H10T12730   1.096   4.465   7.046 -0.0969 -0.3925 -1.1569
  121OSM   C11S12731   1.192   4.405   6.864 -0.2780 -0.4864  0.1931
  121OSM   H11S12732   1.092   4.391   6.820 -0.0878  1.0631 -0.7942
  121OSM   H11T12733   1.236   4.311   6.904 -1.3190 -1.0359  0.0733
  121OSM   C12S12734   1.288   4.447   6.750 -0.4593 -0.4739  0.0794
  121OSM   H12S12735   1.390   4.476   6.782 -1.3121  2.0649  0.7950
  121OSM   H12T12736   1.248   4.549   6.727  2.1816  1.0371  1.6536
  121OSM   C13S12737   1.278   4.353   6.635  0.0607 -0.3613 -0.7785
  121OSM   H13S12738   1.171   4.328   6.621 -0.6915  2.1061  0.1235
  121OSM   H13T12739   1.331   4.262   6.670 -0.4211 -0.9021 -1.4287
  121OSM   C14S12740   1.334   4.394   6.495  0.4688 -0.2481 -0.6581
  121OSM   H14S12741   1.433   4.443   6.509 -0.3951  1.7276 -1.1065
  121OSM   H14T12742   1.269   4.480   6.466  1.0384  0.8240  1.1140
  121OSM   C15S12743   1.354   4.283   6.385 -0.0433 -0.1679 -0.4165
  121OSM   H15S12744   1.436   4.217   6.421 -0.8396 -0.1121  1.6620
  121OSM   H15T12745   1.394   4.320   6.288 -0.1507 -1.0356 -0.8047
  121OSM   C16S12746   1.231   4.197   6.357  0.4560 -0.7742  0.1524
  121OSM   H16S12747   1.168   4.257   6.288  1.0761  0.7698  0.8775
  121OSM   H16T12748   1.172   4.171   6.447  5.1939 -1.4095  3.4305
  121OSM   C17S12749   1.253   4.068   6.280 -0.0348  0.2140  0.2447
  121OSM   H17S12750   1.157   4.011   6.271  0.4310 -0.7442  1.0871
  121OSM   H17T12751   1.328   4.007   6.334  3.1194  1.1979 -2.7096
  121OSM   C18S12752   1.319   4.084   6.141 -0.1783 -0.0119 -0.5469
  121OSM   H18S12753   1.303   3.992   6.080  0.6985  0.0111 -0.8330
  121OSM   H18T12754   1.427   4.104   6.156 -0.2005 -0.7654  0.8609
  121OSM   H18U12755   1.279   4.172   6.088 -0.0606  1.0151  1.0002
  121OSM    C1F12756   1.924   4.385   7.475  0.0593  0.1585  0.0099
  121OSM     OF12757   1.907   4.305   7.573  0.1905 -0.0312  0.0619
  121OSM    C2F12758   2.000   4.348   7.354 -0.1642  0.1446 -0.1514
  121OSM    H2F12759   2.098   4.397   7.368 -0.5035  0.5792  0.7485
  121OSM    H2G12760   1.954   4.392   7.262 -0.6517 -1.7323 -0.8539
  121OSM    C3F12761   2.019   4.193   7.325 -0.3669  0.0226 -0.4781
  121OSM    H3F12762   1.921   4.146   7.303 -0.9405  0.9023  0.1239
  121OSM    H3G12763   2.067   4.140   7.410  1.2581  1.4236 -0.4742
  121OSM    C4F12764   2.119   4.178   7.209  0.4179  0.0228  0.2410
  121OSM    H4F12765   2.183   4.091   7.237 -0.8054 -0.6848  0.9292
  121OSM    H4G12766   2.173   4.274   7.195  0.3922  0.2209  1.4718
  121OSM    C5F12767   2.042   4.143   7.081  0.2123 -0.6084 -0.3042
  121OSM    H5F12768   1.975   4.228   7.055 -1.0821 -1.2185  0.8781
  121OSM    H5G12769   1.981   4.054   7.108  0.2151 -0.5544 -0.1222
  121OSM    C6F12770   2.130   4.106   6.961  0.6673 -0.8361  0.5582
  121OSM    H6F12771   2.195   4.017   6.976  0.8395 -1.0427 -1.2498
  121OSM    H6G12772   2.198   4.189   6.933 -0.4019 -0.0939  0.0812
  121OSM    C7F12773   2.044   4.077   6.839  0.1158  0.4797 -0.0362
  121OSM    H7F12774   1.970   4.159   6.828 -0.2897  0.2699  1.0890
  121OSM    H7G12775   1.979   3.988   6.849 -1.6231  1.4551 -1.7548
  121OSM    C8F12776   2.129   4.059   6.710  0.3823  0.1906 -0.2891
  121OSM    H8F12777   2.204   3.979   6.731  0.1703  0.2243  0.6300
  121OSM    H8G12778   2.180   4.158   6.709  1.2851 -0.1477  2.9854
  121OSM    C9F12779   2.046   4.041   6.588 -0.0274  0.1341 -0.0234
  121OSM    H9F12780   1.936   4.048   6.594 -0.0879 -0.5575 -0.1580
  121OSM   C10F12781   2.099   4.025   6.466  0.6761  0.0307 -0.4268
  121OSM   H10F12782   2.037   4.028   6.375  1.0589 -1.4597 -0.7711
  121OSM   C11F12783   2.247   4.015   6.447 -0.4986 -0.1484 -0.1506
  121OSM   H11F12784   2.312   4.050   6.530 -2.7108  3.1135  0.3868
  121OSM   H11G12785   2.266   4.088   6.366  0.8147  0.9044  1.0556
  121OSM   C12F12786   2.297   3.882   6.383 -0.1939  0.4371  0.3568
  121OSM   H12F12787   2.249   3.870   6.283  0.8629  2.8266 -0.5244
  121OSM   H12G12788   2.263   3.801   6.450 -2.2073  0.9831  0.0555
  121OSM   C13F12789   2.447   3.875   6.369 -0.3606 -0.7830 -0.2714
  121OSM   H13F12790   2.493   3.830   6.460  1.8587  0.1783 -0.8385
  121OSM   H13G12791   2.483   3.977   6.344 -1.3444 -0.5019 -0.6035
  121OSM   C14F12792   2.489   3.787   6.249  0.0665  0.3777  0.8820
  121OSM   H14F12793   2.447   3.832   6.156  1.8150 -1.2833 -0.7746
  121OSM   H14G12794   2.454   3.685   6.273  1.7419 -0.4248  0.0352
  121OSM   C15F12795   2.639   3.780   6.233  0.0945 -0.2129  0.6596
  121OSM   H15F12796   2.668   3.686   6.182  1.1117 -0.8762  2.3889
  121OSM   H15G12797   2.686   3.780   6.333  3.0360  2.6155 -0.5602
  121OSM   C16F12798   2.708   3.889   6.155  0.1725 -0.0425 -0.4127
  121OSM   H16F12799   2.808   3.904   6.200  1.4644 -0.8617 -2.8279
  121OSM   H16G12800   2.651   3.984   6.164 -0.7111 -0.7542  2.8332
  121OSM   C17F12801   2.725   3.855   6.007 -0.2772  0.4862 -1.1609
  121OSM   H17F12802   2.626   3.829   5.964 -0.4109 -0.0830 -0.5310
  121OSM   H17G12803   2.784   3.761   6.010 -1.3255 -0.1836  1.4552
  121OSM   C18F12804   2.791   3.958   5.926  0.0328 -0.2071  0.7691
  121OSM   H18F12805   2.898   3.974   5.948  0.0276  1.8545 -0.4720
  121OSM   H18G12806   2.743   4.057   5.941  2.0713  0.9691 -0.1650
  121OSM   H18H12807   2.779   3.938   5.817  1.5861  1.1009  0.3173
  122OSM      N12808   3.656   5.015   7.664 -0.4124 -0.4761  0.1197
  122OSM    C1512809   3.584   4.935   7.564  0.5023 -0.1661  0.1413
  122OSM   H15A12810   3.533   4.850   7.608  0.3968  0.3195  0.9869
  122OSM   H15B12811   3.652   4.900   7.488  0.6090  0.6201 -0.1316
  122OSM   H15C12812   3.507   4.994   7.516 -0.1270 -0.9070  0.2330
  122OSM    C1412813   3.565   5.100   7.750 -0.4052 -0.8041  0.6383
  122OSM   H14A12814   3.498   5.036   7.806 -1.6816 -0.9708 -0.9963
  122OSM   H14B12815   3.517   5.169   7.682  0.9520  0.7755  1.2321
  122OSM   H14C12816   3.630   5.158   7.813 -0.0228  1.1222 -1.4272
  122OSM    C1312817   3.721   4.931   7.765  0.8545 -0.0157 -0.3922
  122OSM   H13A12818   3.777   4.851   7.720  2.6118  0.9131  0.0374
  122OSM   H13B12819   3.639   4.877   7.809  1.9641 -0.1936  1.5600
  122OSM   H13C12820   3.783   4.978   7.840 -2.1826 -0.7890  2.8511
  122OSM    C1212821   3.760   5.103   7.595  0.2016  0.0240 -0.0269
  122OSM   H12A12822   3.842   5.043   7.556 -0.4523 -0.2457 -1.0342
  122OSM   H12B12823   3.804   5.156   7.678 -1.3464  1.2015  0.0694
  122OSM    C1112824   3.715   5.197   7.485  0.3640 -0.4813  0.3989
  122OSM   H11A12825   3.665   5.157   7.395  0.4360 -1.0063  0.5861
  122OSM   H11B12826   3.805   5.233   7.430  0.6992  1.5005  2.0797
  122OSM      P12827   3.694   5.450   7.539  0.4010 -0.2834 -0.1620
  122OSM    O1312828   3.599   5.545   7.610  0.1992  0.7484 -0.8100
  122OSM    O1412829   3.834   5.446   7.589  0.2419  0.3668  0.2076
  122OSM    O1112830   3.703   5.486   7.383 -0.3779  0.4397  0.1644
  122OSM    O1212831   3.625   5.304   7.535  0.0135 -0.5276 -0.1287
  122OSM    C1S12832   3.572   5.489   7.318  0.6777 -0.1111 -0.3763
  122OSM    H1S12833   3.507   5.569   7.360 -0.8178 -1.2922 -0.3563
  122OSM    H1T12834   3.519   5.392   7.336 -1.5021  0.7731 -1.5719
  122OSM     NF12835   3.433   5.490   7.108 -0.6651  0.3811  0.5406
  122OSM    HNF12836   3.385   5.404   7.092  0.9668 -0.8850  1.9536
  122OSM    C2S12837   3.570   5.494   7.157  0.6682 -0.2126 -0.4258
  122OSM    H2S12838   3.617   5.591   7.131  1.4228 -0.2398  0.7463
  122OSM    C3S12839   3.651   5.372   7.104  0.7756 -0.3434  0.6427
  122OSM    H3S12840   3.596   5.285   7.146 -2.3375  1.5847  0.8779
  122OSM     O312841   3.782   5.365   7.166 -0.1245  0.5101  0.3243
  122OSM    HO312842   3.776   5.422   7.243  1.8117  1.0498  0.1316
  122OSM    C4S12843   3.641   5.364   6.950 -1.1295 -0.1641  0.5663
  122OSM    H4S12844   3.569   5.287   6.919  1.1755 -2.4417  0.4829
  122OSM    C5S12845   3.731   5.399   6.860 -0.0188  0.0396 -0.4833
  122OSM    H5S12846   3.827   5.442   6.892 -0.2747 -1.0500  1.9095
  122OSM    C6S12847   3.718   5.369   6.716  0.7640  0.3263  0.8178
  122OSM    H6S12848   3.809   5.321   6.676 -0.1174  0.8770 -2.1304
  122OSM    H6T12849   3.715   5.463   6.657 -1.1409 -0.4047 -0.3523
  122OSM    C7S12850   3.603   5.287   6.665  0.5556 -0.0050  0.1624
  122OSM    H7S12851   3.507   5.333   6.697  0.2913 -0.9120  0.7177
  122OSM    H7T12852   3.596   5.193   6.725 -3.6079 -0.0628 -0.0832
  122OSM    C8S12853   3.613   5.257   6.512  0.4012  0.5919 -0.5157
  122OSM    H8S12854   3.519   5.207   6.480 -1.0396 -0.0484  3.9097
  122OSM    H8T12855   3.697   5.194   6.478 -1.4979 -2.0534 -0.5795
  122OSM    C9S12856   3.609   5.380   6.427  0.1381 -0.4512 -0.4636
  122OSM    H9S12857   3.703   5.437   6.438 -0.2200 -0.2824  2.1718
  122OSM    H9T12858   3.523   5.442   6.459  2.1302  1.8556  0.6545
  122OSM   C10S12859   3.587   5.344   6.278 -0.0002 -0.5495  0.1085
  122OSM   H10S12860   3.563   5.440   6.228  1.7310  0.2877  0.7640
  122OSM   H10T12861   3.509   5.268   6.255  1.3722 -1.5073 -1.6107
  122OSM   C11S12862   3.721   5.301   6.221 -0.2609 -0.1276  0.5569
  122OSM   H11S12863   3.764   5.229   6.294 -1.1694 -0.5438  0.7011
  122OSM   H11T12864   3.771   5.399   6.213 -1.3339  0.4575  0.8394
  122OSM   C12S12865   3.701   5.229   6.083 -0.6483 -0.3023  0.4408
  122OSM   H12S12866   3.635   5.293   6.020  0.8084 -0.3113 -1.1786
  122OSM   H12T12867   3.649   5.132   6.100  0.0285 -1.1761 -2.0224
  122OSM   C13S12868   3.829   5.202   6.000 -0.0531  0.3641 -0.3727
  122OSM   H13S12869   3.888   5.121   6.050 -0.0229  0.5356 -0.1309
  122OSM   H13T12870   3.890   5.295   6.000 -1.0454  1.0270 -0.4908
  122OSM   C14S12871   3.804   5.170   5.854  0.5579  0.3516 -0.9668
  122OSM   H14S12872   3.902   5.155   5.804 -0.2832 -0.5113 -2.4510
  122OSM   H14T12873   3.765   5.265   5.811 -1.4185 -0.5507 -1.2829
  122OSM   C15S12874   3.720   5.044   5.809  0.0074  0.2306  0.2809
  122OSM   H15S12875   3.636   5.042   5.881 -0.8534  0.1592 -0.7032
  122OSM   H15T12876   3.777   4.949   5.808  0.4813  0.4994 -1.5139
  122OSM   C16S12877   3.677   5.058   5.669  0.8067 -0.6760 -0.1816
  122OSM   H16S12878   3.668   5.162   5.631 -0.7273 -0.9305 -0.5679
  122OSM   H16T12879   3.572   5.023   5.670 -0.3143  2.1655 -2.6069
  122OSM   C17S12880   3.755   4.981   5.554 -0.0419 -0.0794 -0.5071
  122OSM   H17S12881   3.706   5.012   5.459  1.4858  2.4759 -0.5761
  122OSM   H17T12882   3.750   4.873   5.577  2.1811 -0.4516 -1.4727
  122OSM   C18S12883   3.903   5.019   5.554 -0.3247  0.2873  0.0583
  122OSM   H18S12884   3.951   5.006   5.454 -1.7822  0.4240 -0.6876
  122OSM   H18T12885   3.958   4.962   5.631 -0.9410 -1.0557 -0.4744
  122OSM   H18U12886   3.910   5.128   5.577 -3.5041  0.1424  2.3739
  122OSM    C1F12887   3.359   5.598   7.114  0.0355 -0.4761 -0.0628
  122OSM     OF12888   3.393   5.703   7.158  0.1661 -0.1850  0.0865
  122OSM    C2F12889   3.218   5.583   7.064 -0.3126 -0.1750  0.0583
  122OSM    H2F12890   3.145   5.598   7.145  1.3764  2.1996  1.2620
  122OSM    H2G12891   3.211   5.477   7.031 -0.7529  0.3515 -1.6809
  122OSM    C3F12892   3.173   5.658   6.933  0.0180  0.3957  0.4144
  122OSM    H3F12893   3.201   5.766   6.935  0.3102  0.3724 -1.3752
  122OSM    H3G12894   3.063   5.641   6.931 -0.2519  1.9837  0.6315
  122OSM    C4F12895   3.236   5.615   6.802  0.1747  0.2704  0.5283
  122OSM    H4F12896   3.228   5.504   6.795 -0.4730 -0.0351  4.1532
  122OSM    H4G12897   3.341   5.650   6.806  0.5721 -0.0967 -3.1378
  122OSM    C5F12898   3.162   5.685   6.686 -0.4444  0.0388 -1.3047
  122OSM    H5F12899   3.144   5.789   6.720  0.0517 -0.3890  0.3524
  122OSM    H5G12900   3.068   5.629   6.665 -1.2815  0.8235  0.1760
  122OSM    C6F12901   3.264   5.681   6.569  0.1400 -0.0122  0.8266
  122OSM    H6F12902   3.296   5.576   6.550 -0.1682 -0.0468  0.4918
  122OSM    H6G12903   3.353   5.745   6.587  0.5304  0.0176 -1.0518
  122OSM    C7F12904   3.195   5.725   6.433 -0.4756  0.0376  0.1443
  122OSM    H7F12905   3.137   5.817   6.455 -2.8993 -1.4582  0.3838
  122OSM    H7G12906   3.124   5.645   6.403 -1.7400 -0.2580  3.4934
  122OSM    C8F12907   3.295   5.750   6.322 -0.2374  0.5619  0.1865
  122OSM    H8F12908   3.365   5.664   6.316 -1.3307 -0.2546 -2.0849
  122OSM    H8G12909   3.358   5.828   6.369 -0.9676  0.9220  0.5888
  122OSM    C9F12910   3.250   5.796   6.185  0.2975 -0.0960 -0.1867
  122OSM    H9F12911   3.228   5.904   6.174 -1.2699 -0.1850  1.6172
  122OSM   C10F12912   3.239   5.723   6.074 -0.2544  0.6344 -0.5219
  122OSM   H10F12913   3.190   5.766   5.985 -0.7769  0.0894 -0.5022
  122OSM   C11F12914   3.279   5.577   6.059  0.8214 -0.3424 -0.5944
  122OSM   H11F12915   3.204   5.515   6.005 -0.1500  0.6583 -0.4418
  122OSM   H11G12916   3.290   5.528   6.158  3.3371  1.2712 -0.0013
  122OSM   C12F12917   3.405   5.551   5.977  0.0099  0.2536  0.1291
  122OSM   H12F12918   3.430   5.446   6.003 -0.5288 -0.7484 -2.9854
  122OSM   H12G12919   3.470   5.637   6.005 -0.1482 -0.2969  2.2896
  122OSM   C13F12920   3.367   5.553   5.827  0.1030  0.1366  0.9125
  122OSM   H13F12921   3.326   5.652   5.798 -0.3191 -0.0885  0.7184
  122OSM   H13G12922   3.292   5.472   5.812  1.8009 -1.5528  1.0919
  122OSM   C14F12923   3.490   5.523   5.741  0.5589  0.2013  0.0371
  122OSM   H14F12924   3.524   5.422   5.772  0.2796  0.7046  2.0883
  122OSM   H14G12925   3.578   5.585   5.766  1.3104 -1.2872  1.2935
  122OSM   C15F12926   3.467   5.531   5.589  0.5189 -0.5633  0.1163
  122OSM   H15F12927   3.455   5.638   5.560 -1.2204 -0.7283  0.1177
  122OSM   H15G12928   3.369   5.484   5.569  1.5882 -3.4806  1.1930
  122OSM   C16F12929   3.573   5.455   5.509 -0.1262  0.0266 -0.0172
  122OSM   H16F12930   3.569   5.354   5.554  0.3160 -0.3225 -0.7446
  122OSM   H16G12931   3.678   5.489   5.526 -0.3329  2.4467 -2.8651
  122OSM   C17F12932   3.538   5.446   5.363  0.2953  0.1097  0.2447
  122OSM   H17F12933   3.514   5.547   5.323  0.0931  0.2800  0.7957
  122OSM   H17G12934   3.441   5.395   5.346 -0.0844  1.0374 -0.4877
  122OSM   C18F12935   3.656   5.391   5.277 -0.6397  0.1887  0.5644
  122OSM   H18F12936   3.750   5.441   5.306 -1.1939  1.1836  0.6967
  122OSM   H18G12937   3.635   5.392   5.167  0.1128 -2.8868  0.3051
  122OSM   H18H12938   3.667   5.281   5.290  0.0997 -0.1913 -2.5065
  123OSM      N12939   5.668   0.584   3.068  0.2104 -0.1755 -0.6153
  123OSM    C1512940   5.773   0.690   3.112 -0.2813  0.5461 -0.1265
  123OSM   H15A12941   5.750   0.787   3.071  2.3142  1.7539  1.0358
  123OSM   H15B12942   5.870   0.649   3.089 -0.3897  0.4669 -0.4508
  123OSM   H15C12943   5.769   0.709   3.219 -0.3331 -1.8508  0.3682
  123OSM    C1412944   5.659   0.612   2.921  0.0423  0.0976  0.4440
  123OSM   H14A12945   5.587   0.545   2.874  0.5934 -1.4364  1.6850
  123OSM   H14B12946   5.745   0.591   2.859 -0.9074  0.2683 -0.9773
  123OSM   H14C12947   5.636   0.717   2.914 -2.0013 -0.2558  1.0451
  123OSM    C1312948   5.716   0.448   3.100  0.1044  0.3111  0.6681
  123OSM   H13A12949   5.810   0.424   3.054  0.3670 -0.7937  1.7238
  123OSM   H13B12950   5.636   0.378   3.078  0.7529 -0.8633  1.8734
  123OSM   H13C12951   5.729   0.443   3.207  0.9740 -1.5444  0.5254
  123OSM    C1212952   5.540   0.609   3.138  0.5347 -0.6692  0.3224
  123OSM   H12A12953   5.491   0.695   3.094  1.8362  0.0853  0.2943
  123OSM   H12B12954   5.545   0.635   3.243 -1.0067 -0.8174  0.4525
  123OSM    C1112955   5.443   0.492   3.145 -0.2673 -0.3722 -0.4832
  123OSM   H11A12956   5.481   0.415   3.216  0.4379  1.2145  0.9406
  123OSM   H11B12957   5.447   0.448   3.043 -1.7014 -1.5537 -0.0534
  123OSM      P12958   5.218   0.602   3.084  0.1291 -0.1451 -0.0655
  123OSM    O1312959   5.287   0.611   2.952  0.4977  0.3434 -0.5325
  123OSM    O1412960   5.084   0.540   3.091 -0.5725  0.2204 -0.6625
  123OSM    O1112961   5.223   0.749   3.141 -0.3858  0.0295  0.3694
  123OSM    O1212962   5.312   0.530   3.189  0.0509 -0.3332  0.1050
  123OSM    C1S12963   5.130   0.775   3.246  0.0650 -0.4146 -0.2524
  123OSM    H1S12964   5.184   0.746   3.340  1.7016 -2.3664 -1.6904
  123OSM    H1T12965   5.046   0.703   3.251  0.9210 -1.3939  0.6337
  123OSM     NF12966   5.001   0.917   3.381  0.0338 -0.7987  0.3431
  123OSM    HNF12967   4.902   0.928   3.381  0.3269  3.2466  1.1216
  123OSM    C2S12968   5.077   0.920   3.256  0.2029  0.4012 -0.4208
  123OSM    H2S12969   5.162   0.991   3.266 -0.7216  1.3324  1.1882
  123OSM    C3S12970   4.999   0.961   3.130 -0.9619 -0.1616  0.2795
  123OSM    H3S12971   4.925   0.882   3.109  0.7873 -1.6980 -0.3624
  123OSM     O312972   5.080   0.960   3.011 -0.6703 -0.5677  0.2751
  123OSM    HO312973   5.148   0.897   3.036 -1.1353 -1.3922 -0.4700
  123OSM    C4S12974   4.938   1.095   3.155  0.0549 -0.2488 -0.0311
  123OSM    H4S12975   4.836   1.098   3.196 -0.9726 -0.3060 -2.4227
  123OSM    C5S12976   5.014   1.205   3.154  0.0879 -0.3757 -0.0472
  123OSM    H5S12977   5.118   1.203   3.119 -0.9239 -1.8393 -3.4555
  123OSM    C6S12978   4.965   1.342   3.194  0.4119 -0.0291 -0.0698
  123OSM    H6S12979   4.857   1.332   3.221  0.5690  1.1554  1.0853
  123OSM    H6T12980   4.954   1.413   3.110  0.4000 -0.8447 -0.7662
  123OSM    C7S12981   5.036   1.420   3.301  0.4375 -0.0211  0.0833
  123OSM    H7S12982   4.985   1.518   3.293  0.6337  0.0062 -0.9831
  123OSM    H7T12983   5.143   1.436   3.272  0.8814  1.4999  2.3033
  123OSM    C8S12984   5.029   1.359   3.440  0.4595  0.1752  0.0681
  123OSM    H8S12985   5.095   1.269   3.443 -0.3837 -0.4316  0.7695
  123OSM    H8T12986   4.929   1.322   3.470  0.0932  2.1805  1.5372
  123OSM    C9S12987   5.082   1.457   3.548  0.6974 -0.8226 -0.2318
  123OSM    H9S12988   5.029   1.553   3.532 -0.8844 -1.7150 -0.6384
  123OSM    H9T12989   5.192   1.466   3.538  1.3918 -3.4936  2.9327
  123OSM   C10S12990   5.050   1.408   3.694 -0.3421  0.3179  0.5453
  123OSM   H10S12991   5.115   1.318   3.691  0.4621  0.8434 -2.9291
  123OSM   H10T12992   4.945   1.376   3.706 -0.2666 -0.2668 -0.2359
  123OSM   C11S12993   5.101   1.498   3.805  0.8630 -0.6601  0.8279
  123OSM   H11S12994   5.049   1.596   3.801 -2.1094 -2.0729  1.6164
  123OSM   H11T12995   5.211   1.511   3.793  0.7052  1.2134  1.1188
  123OSM   C12S12996   5.080   1.436   3.941  0.1261  0.3676 -0.0416
  123OSM   H12S12997   5.136   1.342   3.922  1.7243  1.6829 -2.4177
  123OSM   H12T12998   4.973   1.411   3.956  0.4907 -2.3899 -1.4605
  123OSM   C13S12999   5.114   1.513   4.071 -0.0098 -0.3091 -0.1541
  123OSM   H13S13000   5.058   1.608   4.060  0.2079  0.0754  1.6131
  123OSM   H13T13001   5.223   1.531   4.057  0.0949  0.0496  0.9737
  123OSM   C14S13002   5.069   1.432   4.197  0.0491  0.2659  0.0653
  123OSM   H14S13003   5.123   1.335   4.197 -2.8607 -1.5089 -1.3681
  123OSM   H14T13004   4.961   1.404   4.194  0.2022 -0.3356  0.1214
  123OSM   C15S13005   5.103   1.516   4.318 -0.5167  0.5831 -0.0646
  123OSM   H15S13006   5.068   1.620   4.303  0.3367  0.9296  0.2786
  123OSM   H15T13007   5.214   1.515   4.326 -0.4121  1.9929 -1.0953
  123OSM   C16S13008   5.048   1.462   4.453  0.1616  0.0337  0.4823
  123OSM   H16S13009   5.077   1.355   4.462  1.1060  0.2371 -0.0395
  123OSM   H16T13010   4.938   1.469   4.445  0.3496  1.7259 -1.3720
  123OSM   C17S13011   5.105   1.541   4.573  0.0992 -0.2049 -0.2794
  123OSM   H17S13012   5.072   1.646   4.562 -0.2651 -0.4252 -1.4192
  123OSM   H17T13013   5.216   1.544   4.562  0.0319 -1.7564 -1.8561
  123OSM   C18S13014   5.064   1.476   4.708 -0.2390 -0.1802  0.7752
  123OSM   H18S13015   5.121   1.536   4.783  0.5472  6.5162 -4.2339
  123OSM   H18T13016   5.094   1.369   4.718 -1.7766 -0.8664 -1.3931
  123OSM   H18U13017   4.953   1.470   4.712 -0.3745  0.8648 -0.8254
  123OSM    C1F13018   5.057   0.918   3.509  0.2203  0.0128 -0.1713
  123OSM     OF13019   5.177   0.923   3.533  0.2281 -1.1137  0.1687
  123OSM    C2F13020   4.955   0.912   3.618  0.4369  0.7921 -0.2220
  123OSM    H2F13021   4.889   0.825   3.603  0.0001  1.5905 -3.7523
  123OSM    H2G13022   4.887   1.000   3.617  0.2804  0.7257  1.6910
  123OSM    C3F13023   5.018   0.913   3.757 -0.4131  0.5353  0.8265
  123OSM    H3F13024   5.082   1.002   3.775 -0.1374  0.0453  2.5057
  123OSM    H3G13025   5.093   0.832   3.774 -1.3751 -0.5216  0.1682
  123OSM    C4F13026   4.907   0.910   3.865  0.1417  0.0322  0.2632
  123OSM    H4F13027   4.876   0.805   3.879 -0.9875 -0.0578 -2.3355
  123OSM    H4G13028   4.828   0.985   3.839  3.1232  2.5097 -2.6130
  123OSM    C5F13029   4.959   0.971   4.000  0.3960  0.0836  0.1651
  123OSM    H5F13030   4.872   0.975   4.070 -0.8944 -1.0707 -1.2982
  123OSM    H5G13031   4.992   1.073   3.973  1.1665 -0.1544  0.1830
  123OSM    C6F13032   5.079   0.902   4.071  0.2753 -0.0527 -0.1890
  123OSM    H6F13033   5.166   0.888   4.004 -1.1048 -0.3299 -2.0008
  123OSM    H6G13034   5.043   0.801   4.099 -0.6051  0.3863  0.3135
  123OSM    C7F13035   5.101   0.974   4.209  0.0840 -0.1306  0.1937
  123OSM    H7F13036   5.093   1.082   4.183 -1.4429 -0.0983  0.6782
  123OSM    H7G13037   5.205   0.971   4.246 -0.6352  1.8836  2.6731
  123OSM    C8F13038   5.006   0.928   4.322  0.6969  0.2569  0.2662
  123OSM    H8F13039   5.037   0.826   4.352  0.3962  0.3107  0.7759
  123OSM    H8G13040   4.906   0.931   4.274  0.7134 -1.7288  0.0100
  123OSM    C9F13041   5.022   1.035   4.426  0.3647 -0.9024  0.6923
  123OSM    H9F13042   4.985   1.130   4.385  0.0659 -2.1307 -2.1420
  123OSM   C10F13043   5.050   1.012   4.554  0.1807 -0.1856  0.3837
  123OSM   H10F13044   5.064   1.100   4.619 -1.4292  0.9024 -0.6932
  123OSM   C11F13045   5.079   0.870   4.616 -0.3023  0.3612  0.0981
  123OSM   H11F13046   5.180   0.883   4.660  1.1526 -0.9944 -2.6427
  123OSM   H11G13047   5.100   0.795   4.537 -0.0268 -0.2317  0.7260
  123OSM   C12F13048   4.980   0.818   4.718 -0.1764 -0.2917  0.6297
  123OSM   H12F13049   5.008   0.716   4.750  1.5451  0.6415  2.2508
  123OSM   H12G13050   4.879   0.815   4.671  0.9011  0.1893 -1.8832
  123OSM   C13F13051   4.971   0.897   4.850  0.4627  0.4373 -0.7878
  123OSM   H13F13052   5.071   0.935   4.881  1.1852  0.9454 -3.4353
  123OSM   H13G13053   4.938   0.831   4.933 -0.8415 -1.3890 -2.6695
  123OSM   C14F13054   4.868   1.016   4.841 -0.1226  0.2210  0.3409
  123OSM   H14F13055   4.783   0.966   4.790 -0.5551  1.2429  0.0433
  123OSM   H14G13056   4.887   1.094   4.764 -1.6040 -0.7907 -1.1031
  123OSM   C15F13057   4.831   1.077   4.982 -0.3550  0.5911  1.0324
  123OSM   H15F13058   4.816   0.994   5.055 -0.1205  0.6429  1.1414
  123OSM   H15G13059   4.732   1.125   4.968 -0.4912  1.7771  4.9127
  123OSM   C16F13060   4.923   1.187   5.035  0.2243 -0.0304  0.4745
  123OSM   H16F13061   4.961   1.260   4.960 -0.4757 -0.3733 -0.2278
  123OSM   H16G13062   5.005   1.136   5.089  0.3806  2.0149  2.3037
  123OSM   C17F13063   4.843   1.262   5.147  0.5335 -0.2326  0.0912
  123OSM   H17F13064   4.810   1.192   5.227  0.4604 -0.0687  0.2048
  123OSM   H17G13065   4.761   1.320   5.100  0.4355 -1.6476 -1.5742
  123OSM   C18F13066   4.937   1.363   5.216 -0.5381 -0.3145  0.4178
  123OSM   H18F13067   4.895   1.419   5.302  1.6969 -0.7204  1.8824
  123OSM   H18G13068   4.992   1.430   5.147  0.8864  0.2344  2.0003
  123OSM   H18H13069   5.021   1.306   5.263  0.8013  2.5403  1.7306
  124OSM      N13070   6.575   0.629   3.156  0.2257 -0.8477 -0.2421
  124OSM    C1513071   6.637   0.629   3.293  0.3415  0.0899 -0.1960
  124OSM   H15A13072   6.719   0.558   3.294 -1.5713 -2.4797 -3.6413
  124OSM   H15B13073   6.569   0.605   3.373 -0.7940 -1.1352 -1.4648
  124OSM   H15C13074   6.688   0.721   3.314  0.2020  0.1919 -0.3043
  124OSM    C1413075   6.680   0.640   3.050 -0.5376 -0.2151  0.2170
  124OSM   H14A13076   6.745   0.724   3.066 -1.1840  0.1563  0.9183
  124OSM   H14B13077   6.631   0.661   2.956  1.4085 -1.3510 -1.1337
  124OSM   H14C13078   6.746   0.554   3.051  0.2220  0.2868 -2.0191
  124OSM    C1313079   6.510   0.499   3.141 -0.2248  0.4715  0.5792
  124OSM   H13A13080   6.481   0.472   3.041  1.5621 -0.7915  0.3518
  124OSM   H13B13081   6.434   0.482   3.216  0.0293  2.0695  1.2367
  124OSM   H13C13082   6.595   0.433   3.145 -1.0288 -0.6318 -0.0321
  124OSM    C1213083   6.468   0.733   3.139  0.1335  0.4118 -0.0505
  124OSM   H12A13084   6.518   0.828   3.142  1.1021  0.0168 -2.1009
  124OSM   H12B13085   6.402   0.712   3.222 -0.3610 -2.5820 -1.0606
  124OSM    C1113086   6.390   0.749   3.008  0.3199 -0.3555 -0.5051
  124OSM   H11A13087   6.315   0.829   3.024 -0.5460 -0.5673 -2.9651
  124OSM   H11B13088   6.340   0.653   2.984 -2.6802  0.6511  1.2587
  124OSM      P13089   6.508   0.946   2.882  0.3976 -0.2773  0.0811
  124OSM    O1313090   6.656   0.954   2.871 -0.0535 -0.0403  0.1017
  124OSM    O1413091   6.422   1.007   2.779 -0.3727 -0.0794 -0.3869
  124OSM    O1113092   6.466   1.013   3.018  0.4453  0.1295  0.3772
  124OSM    O1213093   6.471   0.791   2.899 -0.7549  0.5086 -0.2356
  124OSM    C1S13094   6.344   1.094   3.023  0.0993  0.1994  0.1752
  124OSM    H1S13095   6.253   1.036   2.996 -0.0342  0.1111  0.8060
  124OSM    H1T13096   6.353   1.181   2.955 -0.6107  1.1215  1.2328
  124OSM     NF13097   6.175   1.174   3.187 -0.4295 -0.1186 -0.6623
  124OSM    HNF13098   6.146   1.266   3.164 -1.7877  0.0726  1.4743
  124OSM    C2S13099   6.316   1.150   3.170 -0.1893  0.1511  0.2930
  124OSM    H2S13100   6.346   1.069   3.240 -0.8654  0.2517  0.7116
  124OSM    C3S13101   6.409   1.276   3.193  0.0103 -0.5521  0.5391
  124OSM    H3S13102   6.385   1.345   3.110 -0.4314 -0.6079  0.6185
  124OSM     O313103   6.549   1.249   3.205 -0.0597  0.1443 -0.0326
  124OSM    HO313104   6.553   1.154   3.191 -0.7123  0.3343 -1.7985
  124OSM    C4S13105   6.374   1.334   3.319 -0.0379  0.4636 -0.8781
  124OSM    H4S13106   6.391   1.259   3.398 -0.0944  0.0816 -1.2241
  124OSM    C5S13107   6.304   1.445   3.336 -0.4362  0.2972 -0.0599
  124OSM    H5S13108   6.279   1.503   3.246  1.9735  1.2086 -0.2238
  124OSM    C6S13109   6.252   1.482   3.472  0.3555 -0.2488  0.7303
  124OSM    H6S13110   6.141   1.479   3.466  0.3174  2.1731 -0.6596
  124OSM    H6T13111   6.294   1.579   3.505 -1.4499 -0.1419  2.9843
  124OSM    C7S13112   6.306   1.402   3.593 -0.9985 -0.3264  0.2138
  124OSM    H7S13113   6.417   1.403   3.602 -0.8805  2.1766 -0.7955
  124OSM    H7T13114   6.266   1.299   3.583 -2.2937  0.2087 -0.3631
  124OSM    C8S13115   6.242   1.442   3.724 -0.9437 -0.4304  0.2253
  124OSM    H8S13116   6.132   1.431   3.717 -1.0767  0.7006  0.3368
  124OSM    H8T13117   6.264   1.549   3.745 -1.4716 -0.3571  0.4218
  124OSM    C9S13118   6.298   1.375   3.858 -0.2273 -0.2655 -0.5130
  124OSM    H9S13119   6.398   1.416   3.885 -1.1019  0.6941  1.5188
  124OSM    H9T13120   6.293   1.265   3.846 -0.2318 -0.2333 -0.7994
  124OSM   C10S13121   6.219   1.407   3.990 -0.0559 -0.6921  0.7715
  124OSM   H10S13122   6.111   1.384   3.978 -1.0959  2.9960  1.8077
  124OSM   H10T13123   6.236   1.510   4.027  2.9449 -0.6307 -0.5204
  124OSM   C11S13124   6.268   1.321   4.109 -0.2393 -0.3546  0.3249
  124OSM   H11S13125   6.379   1.326   4.120 -0.4621  1.8291  2.1445
  124OSM   H11T13126   6.242   1.213   4.104  2.7491 -1.2852  2.2107
  124OSM   C12S13127   6.222   1.380   4.237 -0.0038  0.2388  0.2545
  124OSM   H12S13128   6.113   1.356   4.239  0.5546 -3.6388 -3.2210
  124OSM   H12T13129   6.249   1.487   4.236  2.1728 -0.2586  0.6516
  124OSM   C13S13130   6.292   1.308   4.349  0.0619 -0.1413 -0.3256
  124OSM   H13S13131   6.399   1.338   4.349 -0.2146  0.8678  0.0984
  124OSM   H13T13132   6.297   1.199   4.328  2.4414  0.3161 -2.5575
  124OSM   C14S13133   6.223   1.320   4.481  0.5881 -0.3582  0.3193
  124OSM   H14S13134   6.131   1.258   4.479  1.2919 -1.3847 -1.0906
  124OSM   H14T13135   6.209   1.429   4.503  1.2688  0.0984 -1.3833
  124OSM   C15S13136   6.317   1.270   4.587  1.1802 -0.3097 -0.0553
  124OSM   H15S13137   6.415   1.318   4.567  0.5366  0.4347 -1.6142
  124OSM   H15T13138   6.325   1.162   4.564 -2.4313 -0.1951 -2.8771
  124OSM   C16S13139   6.289   1.313   4.734  0.4347  0.5949 -0.5249
  124OSM   H16S13140   6.188   1.286   4.772  0.7690  2.4179  1.9010
  124OSM   H16T13141   6.284   1.424   4.734 -1.6055  0.5428 -1.2137
  124OSM   C17S13142   6.398   1.257   4.835 -0.6791 -0.0964  0.0268
  124OSM   H17S13143   6.493   1.315   4.833  0.3264 -1.6850  0.3804
  124OSM   H17T13144   6.425   1.156   4.799 -0.4610 -0.1847  0.4376
  124OSM   C18S13145   6.360   1.254   4.985 -0.3518  0.2130  0.1397
  124OSM   H18S13146   6.447   1.218   5.043  0.0725  0.2249 -0.4787
  124OSM   H18T13147   6.285   1.176   5.005  0.9087 -0.8157  0.9709
  124OSM   H18U13148   6.318   1.345   5.034  1.7975  0.8391  0.9405
  124OSM    C1F13149   6.078   1.085   3.222  0.4674 -0.2217  0.3823
  124OSM     OF13150   6.115   0.971   3.254  0.2236 -0.8914  0.1152
  124OSM    C2F13151   5.938   1.127   3.235  0.6786 -0.5567  0.0888
  124OSM    H2F13152   5.876   1.035   3.234 -0.9264  0.4883 -1.0044
  124OSM    H2G13153   5.908   1.187   3.146  1.1483  1.5167  1.2637
  124OSM    C3F13154   5.907   1.229   3.352  0.9655  0.2417  0.1615
  124OSM    H3F13155   5.800   1.260   3.351  1.2598  1.4455  2.0549
  124OSM    H3G13156   5.964   1.318   3.318  0.7780  0.9223  1.5680
  124OSM    C4F13157   5.954   1.185   3.488  0.6178 -0.0302  0.2544
  124OSM    H4F13158   6.064   1.203   3.492  1.2095 -3.1946  0.7867
  124OSM    H4G13159   5.935   1.075   3.491  1.0689 -0.1010  1.2425
  124OSM    C5F13160   5.878   1.243   3.606  0.2307 -0.2254 -0.2944
  124OSM    H5F13161   5.769   1.222   3.604  0.3751 -0.9427 -1.1008
  124OSM    H5G13162   5.884   1.354   3.594 -1.4205  0.0462  0.9386
  124OSM    C6F13163   5.934   1.226   3.744  0.4926 -0.0598  0.0935
  124OSM    H6F13164   5.901   1.308   3.811 -0.4839 -0.8245  0.5950
  124OSM    H6G13165   6.045   1.226   3.741  0.4882 -0.7486 -1.7825
  124OSM    C7F13166   5.901   1.091   3.809  0.1090  0.4719 -0.2091
  124OSM    H7F13167   5.963   1.012   3.762 -0.7924  0.5668 -1.6286
  124OSM    H7G13168   5.796   1.068   3.779  0.5998  0.5539 -2.1064
  124OSM    C8F13169   5.934   1.081   3.964  0.2992 -0.4753  0.2044
  124OSM    H8F13170   6.038   1.119   3.972  0.2149  0.2970 -1.8872
  124OSM    H8G13171   5.944   0.974   3.991  0.9804 -0.3259  0.5606
  124OSM    C9F13172   5.835   1.161   4.052 -0.4900  0.0931  0.7157
  124OSM    H9F13173   5.768   1.225   3.993  3.6530  4.3095 -0.0121
  124OSM   C10F13174   5.846   1.189   4.185  0.5798  0.3412 -0.5624
  124OSM   H10F13175   5.759   1.232   4.236  0.9362 -1.2628  1.5322
  124OSM   C11F13176   5.945   1.120   4.284 -0.7167 -1.0685 -0.0730
  124OSM   H11F13177   5.982   1.204   4.346 -0.5311 -0.6919 -0.6862
  124OSM   H11G13178   6.033   1.085   4.225 -0.4944  0.5018 -0.7344
  124OSM   C12F13179   5.883   1.000   4.353 -0.8650  0.1528  0.1179
  124OSM   H12F13180   5.974   0.968   4.409  0.1879  2.5411 -0.1142
  124OSM   H12G13181   5.849   0.928   4.276  0.0807  0.4119 -0.5632
  124OSM   C13F13182   5.755   1.018   4.431 -0.6434  0.2990 -0.2366
  124OSM   H13F13183   5.707   0.923   4.462  1.2316 -0.1719  1.4088
  124OSM   H13G13184   5.678   1.074   4.372  0.0369  2.5055  0.8381
  124OSM   C14F13185   5.768   1.098   4.557 -0.3193 -0.3788  1.2661
  124OSM   H14F13186   5.675   1.145   4.594 -0.5966  0.8877 -0.8700
  124OSM   H14G13187   5.841   1.181   4.542 -0.9594 -0.2345 -1.5155
  124OSM   C15F13188   5.828   1.004   4.661  0.2364  0.5777 -0.5048
  124OSM   H15F13189   5.893   0.930   4.610  1.7909  0.9178  0.8925
  124OSM   H15G13190   5.744   0.942   4.698 -0.8577  0.8964 -2.3198
  124OSM   C16F13191   5.897   1.065   4.783 -0.3237  0.2609 -0.2072
  124OSM   H16F13192   5.822   1.138   4.819 -3.7522 -0.6968 -4.4526
  124OSM   H16G13193   5.986   1.120   4.746 -0.9241  1.6292  0.3381
  124OSM   C17F13194   5.937   0.970   4.896 -0.4767 -0.1018 -0.0537
  124OSM   H17F13195   6.024   0.914   4.856  1.3965  0.8511  2.4374
  124OSM   H17G13196   5.855   0.898   4.915  1.0221 -1.4024  1.7507
  124OSM   C18F13197   5.982   1.032   5.030  0.1618  0.4589 -0.1580
  124OSM   H18F13198   6.075   1.093   5.022  0.1442  0.5601  0.3747
  124OSM   H18G13199   5.999   0.955   5.108 -1.5694  0.2456  0.0466
  124OSM   H18H13200   5.896   1.095   5.061  0.2518  0.1440  0.7688
  125OSM      N13201   1.083   5.221   3.047 -0.2289  0.4911 -0.2999
  125OSM    C1513202   1.225   5.204   3.009 -0.0331  0.5122  0.6153
  125OSM   H15A13203   1.271   5.297   2.979  0.6427 -0.1616 -0.4985
  125OSM   H15B13204   1.229   5.132   2.929 -3.2814 -0.1586  0.9439
  125OSM   H15C13205   1.292   5.170   3.087  1.2466  1.6592  0.0564
  125OSM    C1413206   1.013   5.276   2.922 -0.2181  0.5063 -0.0361
  125OSM   H14A13207   1.030   5.201   2.846 -0.0379 -1.5981  1.9757
  125OSM   H14B13208   1.052   5.365   2.875 -0.4512  0.8195  0.3521
  125OSM   H14C13209   0.905   5.277   2.934 -0.4756  0.3531 -2.0528
  125OSM    C1313210   1.035   5.085   3.081 -0.1328  0.4592 -0.0036
  125OSM   H13A13211   1.031   5.029   2.989  0.4053  2.1379 -1.1049
  125OSM   H13B13212   0.938   5.086   3.128 -0.4300  0.5918 -0.6043
  125OSM   H13C13213   1.095   5.034   3.155 -0.6018 -1.5125 -0.9232
  125OSM    C1213214   1.063   5.317   3.161 -0.3111 -0.2788  0.4615
  125OSM   H12A13215   0.960   5.311   3.195 -0.3133 -0.4086  0.4289
  125OSM   H12B13216   1.098   5.417   3.140 -0.2148 -0.7675 -1.8783
  125OSM    C1113217   1.147   5.276   3.286 -0.5541 -0.9157 -0.1336
  125OSM   H11A13218   1.257   5.270   3.272 -0.1940  2.3596  0.4344
  125OSM   H11B13219   1.127   5.171   3.316 -1.9021 -0.5849  0.2148
  125OSM      P13220   0.986   5.380   3.468  0.1614  0.2180 -0.2795
  125OSM    O1313221   1.033   5.442   3.597  0.6123 -0.1246 -0.1334
  125OSM    O1413222   0.892   5.458   3.378  0.5488 -0.7349 -0.8462
  125OSM    O1113223   0.939   5.230   3.492  0.7598 -0.3201 -0.2569
  125OSM    O1213224   1.122   5.367   3.386 -0.4514 -0.0560  0.0023
  125OSM    C1S13225   1.015   5.139   3.572 -0.2933 -0.0575  0.2352
  125OSM    H1S13226   1.018   5.175   3.677 -1.9798  0.3283  0.1729
  125OSM    H1T13227   1.116   5.119   3.529 -1.2032 -1.7537 -1.2338
  125OSM     NF13228   1.015   4.912   3.677 -0.1734  0.1217 -0.3870
  125OSM    HNF13229   1.099   4.869   3.645 -1.1426 -1.5080 -0.8571
  125OSM    C2S13230   0.946   5.000   3.579  0.1039  0.0559  0.1156
  125OSM    H2S13231   0.841   5.016   3.612 -0.3406  1.1638 -1.7325
  125OSM    C3S13232   0.929   4.929   3.439 -0.0081  0.7522 -0.1386
  125OSM    H3S13233   1.028   4.916   3.390 -0.4605 -0.5072 -0.7819
  125OSM     O313234   0.856   5.003   3.342  0.7020  0.6384 -0.3357
  125OSM    HO313235   0.852   5.085   3.392  1.2100 -0.0501  0.8592
  125OSM    C4S13236   0.876   4.792   3.453 -0.4235  0.1895  0.3789
  125OSM    H4S13237   0.770   4.787   3.479 -0.9403 -0.7190 -1.7094
  125OSM    C5S13238   0.945   4.682   3.427 -0.3700 -0.2261  0.0749
  125OSM    H5S13239   1.052   4.683   3.401 -0.3074 -1.0977  0.2695
  125OSM    C6S13240   0.884   4.550   3.457 -0.1229 -0.2742  0.8513
  125OSM    H6S13241   0.968   4.477   3.462  2.0519  1.8678 -1.2444
  125OSM    H6T13242   0.819   4.518   3.373  0.7668 -2.0226  0.7852
  125OSM    C7S13243   0.808   4.539   3.583  0.5775 -0.2112  0.0725
  125OSM    H7S13244   0.776   4.432   3.587  0.3327 -0.1050  1.1766
  125OSM    H7T13245   0.711   4.593   3.577 -1.1451 -3.1551 -0.6272
  125OSM    C8S13246   0.880   4.563   3.717  0.5634 -0.8362 -0.1175
  125OSM    H8S13247   0.901   4.670   3.737 -0.2202 -0.8823  1.0458
  125OSM    H8T13248   0.981   4.516   3.718  0.2386 -1.5564  1.1155
  125OSM    C9S13249   0.801   4.526   3.850 -0.3216 -0.1876 -0.4569
  125OSM    H9S13250   0.747   4.430   3.846 -1.6407  0.5666 -1.5849
  125OSM    H9T13251   0.719   4.600   3.854  0.6692  0.9120  0.7007
  125OSM   C10S13252   0.891   4.535   3.974  0.7196  0.1892 -0.4594
  125OSM   H10S13253   0.923   4.641   3.987  0.9575  0.1472 -0.7133
  125OSM   H10T13254   0.975   4.465   3.955  0.9623  0.0561  1.0045
  125OSM   C11S13255   0.822   4.498   4.111  0.0646  0.5497  0.1939
  125OSM   H11S13256   0.782   4.395   4.103 -0.8954  0.8426  1.0932
  125OSM   H11T13257   0.737   4.566   4.132  0.9175  1.7547 -0.1300
  125OSM   C12S13258   0.927   4.493   4.226 -0.1131 -0.9582  0.0515
  125OSM   H12S13259   0.991   4.584   4.230 -1.2778 -0.1213  0.0118
  125OSM   H12T13260   0.994   4.407   4.203  0.7926  0.1557 -1.6670
  125OSM   C13S13261   0.852   4.488   4.356 -0.2142 -0.3270  0.2411
  125OSM   H13S13262   0.775   4.408   4.370 -1.8112  1.0305 -0.4317
  125OSM   H13T13263   0.796   4.582   4.374 -0.7535 -0.9195  1.9002
  125OSM   C14S13264   0.943   4.487   4.481 -0.5716 -0.2370 -0.4873
  125OSM   H14S13265   0.909   4.567   4.549 -1.9234 -0.5128 -0.8104
  125OSM   H14T13266   1.047   4.515   4.456 -0.2586  1.9369  2.7465
  125OSM   C15S13267   0.941   4.356   4.551 -0.2103  0.1300 -0.1679
  125OSM   H15S13268   1.032   4.345   4.614 -0.5048  0.3947  0.3088
  125OSM   H15T13269   0.954   4.263   4.491 -1.3712 -0.0660 -0.1435
  125OSM   C16S13270   0.822   4.335   4.637  0.0471 -0.0003  0.1297
  125OSM   H16S13271   0.731   4.314   4.576  0.5490 -0.1467 -0.5764
  125OSM   H16T13272   0.795   4.427   4.692 -1.1859 -0.3693  0.1801
  125OSM   C17S13273   0.857   4.220   4.739  0.4556  0.2800  0.0357
  125OSM   H17S13274   0.951   4.248   4.789 -0.9805  1.6098  2.1553
  125OSM   H17T13275   0.887   4.124   4.691  1.2205  1.4101 -1.8357
  125OSM   C18S13276   0.738   4.183   4.838 -0.1771 -0.4846  0.0945
  125OSM   H18S13277   0.766   4.082   4.874 -1.3506 -0.7205  0.3811
  125OSM   H18T13278   0.641   4.186   4.784  1.2627  1.3831 -2.6196
  125OSM   H18U13279   0.739   4.250   4.926 -0.1207 -0.2908 -0.0527
  125OSM    C1F13280   0.989   4.938   3.804 -0.6293  0.0560 -0.3866
  125OSM     OF13281   0.900   5.017   3.834 -0.5300  0.3366  0.1681
  125OSM    C2F13282   1.083   4.883   3.908 -0.6310 -0.3711 -0.6250
  125OSM    H2F13283   1.184   4.926   3.895  0.1403 -1.2875  1.8696
  125OSM    H2G13284   1.101   4.776   3.884 -0.5140 -0.2876 -0.9097
  125OSM    C3F13285   1.031   4.914   4.051  0.4152  0.6313 -0.6190
  125OSM    H3F13286   0.932   4.865   4.066  0.8389 -0.0584  0.0239
  125OSM    H3G13287   1.014   5.024   4.055  0.1476  0.5687  0.9083
  125OSM    C4F13288   1.126   4.852   4.156  0.9455  0.1290  0.2061
  125OSM    H4F13289   1.215   4.919   4.155  0.6491  0.5297  0.1837
  125OSM    H4G13290   1.148   4.746   4.134 -1.6985 -0.1541 -1.5944
  125OSM    C5F13291   1.072   4.872   4.303  0.4331 -0.8660 -0.1555
  125OSM    H5F13292   0.985   4.804   4.311  1.5627 -2.1780  1.6674
  125OSM    H5G13293   1.047   4.980   4.315  0.5166 -0.7780 -0.7185
  125OSM    C6F13294   1.156   4.815   4.417  0.7448  0.3496  1.0228
  125OSM    H6F13295   1.262   4.846   4.406  0.8269 -0.7399 -2.4762
  125OSM    H6G13296   1.171   4.705   4.403  0.2798  0.5744 -1.8333
  125OSM    C7F13297   1.101   4.839   4.562 -0.1500 -0.8861  0.0593
  125OSM    H7F13298   0.997   4.810   4.589  0.2766 -2.2765  0.2984
  125OSM    H7G13299   1.100   4.948   4.581  0.9967 -0.6772 -0.9248
  125OSM    C8F13300   1.197   4.773   4.665  0.5581 -0.3129  0.7910
  125OSM    H8F13301   1.299   4.793   4.623  0.5736  0.3846  1.1430
  125OSM    H8G13302   1.179   4.664   4.666  0.8599 -0.4294 -1.3933
  125OSM    C9F13303   1.205   4.819   4.809 -0.2402 -0.3164 -0.4859
  125OSM    H9F13304   1.292   4.880   4.837 -1.3359  2.0669 -1.9704
  125OSM   C10F13305   1.121   4.789   4.902  0.3558  0.2698  0.2842
  125OSM   H10F13306   1.140   4.833   5.001 -1.0941 -0.8756  1.1210
  125OSM   C11F13307   0.991   4.722   4.886 -0.3219  0.1213 -0.3432
  125OSM   H11F13308   0.947   4.756   4.789 -0.2655  0.7253 -0.1640
  125OSM   H11G13309   0.921   4.759   4.964 -0.1404 -0.1305 -0.0601
  125OSM   C12F13310   0.987   4.569   4.901 -0.5490  0.4754 -0.0727
  125OSM   H12F13311   1.050   4.508   4.832  1.2775  0.6609  1.3412
  125OSM   H12G13312   0.888   4.536   4.864 -1.1581 -0.2327  2.0571
  125OSM   C13F13313   0.999   4.515   5.045 -0.0041  0.3171 -0.1282
  125OSM   H13F13314   0.898   4.545   5.081 -0.6213 -0.5537 -1.0915
  125OSM   H13G13315   1.077   4.575   5.097  0.7069  0.5499 -1.4265
  125OSM   C14F13316   1.022   4.367   5.057 -0.3426  0.2942 -0.0299
  125OSM   H14F13317   1.094   4.339   4.976  0.5920 -0.2351  0.9586
  125OSM   H14G13318   0.925   4.339   5.009 -0.2469 -0.1633  0.0316
  125OSM   C15F13319   1.038   4.301   5.196  0.1647  0.1713 -0.1195
  125OSM   H15F13320   1.065   4.194   5.184 -2.0950 -0.7440  1.9724
  125OSM   H15G13321   0.934   4.297   5.236  0.0056  0.7842 -0.4497
  125OSM   C16F13322   1.120   4.368   5.299  0.3603  0.1436 -0.3224
  125OSM   H16F13323   1.102   4.477   5.313  0.1402  0.1614 -0.7180
  125OSM   H16G13324   1.227   4.376   5.269  0.1481 -0.8843 -1.4489
  125OSM   C17F13325   1.119   4.290   5.431 -0.1120  0.3447 -0.6762
  125OSM   H17F13326   1.126   4.179   5.423  0.1263  0.2149  0.9583
  125OSM   H17G13327   1.019   4.305   5.476  0.4593 -0.7142  1.0232
  125OSM   C18F13328   1.217   4.357   5.537  0.5549  0.0147 -0.2282
  125OSM   H18F13329   1.323   4.340   5.510  1.1231  1.4094  0.9728
  125OSM   H18G13330   1.210   4.322   5.642 -2.5602  0.6218 -0.1184
  125OSM   H18H13331   1.192   4.465   5.545  1.8188  0.2898  0.2530
  126OSM      N13332   6.262   3.937   2.940 -0.1360  0.1780  0.5973
  126OSM    C1513333   6.381   3.907   2.852 -0.3979  0.3744  0.4893
  126OSM   H15A13334   6.453   3.987   2.841  0.3646 -0.3684 -0.1889
  126OSM   H15B13335   6.354   3.898   2.748  0.6446  1.1775  0.1356
  126OSM   H15C13336   6.441   3.823   2.885  1.2042  1.3328  0.1412
  126OSM    C1413337   6.303   3.935   3.080 -0.2653 -0.0283  0.6602
  126OSM   H14A13338   6.349   3.840   3.102  0.1487  0.3105  1.2647
  126OSM   H14B13339   6.218   3.959   3.142  0.2996  0.2862  1.3279
  126OSM   H14C13340   6.370   4.019   3.092 -0.7489  0.5409 -0.4568
  126OSM    C1313341   6.229   4.080   2.899  0.3564 -0.3180  0.2221
  126OSM   H13A13342   6.151   4.113   2.966  1.7852  0.4830  1.5649
  126OSM   H13B13343   6.206   4.090   2.794 -1.0230  1.3060  0.6426
  126OSM   H13C13344   6.319   4.140   2.907 -0.1594  0.4106  0.6530
  126OSM    C1213345   6.159   3.828   2.915  0.7515 -0.2868 -0.6637
  126OSM   H12A13346   6.197   3.731   2.946  1.3014 -0.6422 -2.3513
  126OSM   H12B13347   6.122   3.821   2.814 -0.9013  0.9425 -0.1987
  126OSM    C1113348   6.017   3.834   2.982 -0.4175 -0.4250 -0.7794
  126OSM   H11A13349   6.046   3.838   3.089  0.3110 -0.9415 -0.9503
  126OSM   H11B13350   5.958   3.740   2.978  1.3213 -1.5667 -0.6467
  126OSM      P13351   5.805   3.983   3.008  0.1431  0.1197 -0.0492
  126OSM    O1313352   5.745   4.084   2.921  0.0419  0.3727  0.2853
  126OSM    O1413353   5.721   3.872   3.049 -0.5434  0.0264  0.1664
  126OSM    O1113354   5.868   4.050   3.134  0.1380 -0.1052  0.2293
  126OSM    O1213355   5.940   3.939   2.930  0.1471 -0.1050  0.2891
  126OSM    C1S13356   5.862   4.192   3.155  0.2797 -0.0766  0.2612
  126OSM    H1S13357   5.769   4.232   3.109  0.7103 -0.4969 -1.0229
  126OSM    H1T13358   5.948   4.241   3.103  0.8532  1.3528  2.4547
  126OSM     NF13359   5.854   4.379   3.310 -0.2241  0.0465  0.3002
  126OSM    HNF13360   5.935   4.430   3.334 -2.5092  3.1519  2.1708
  126OSM    C2S13361   5.878   4.237   3.299 -0.0417  0.7164 -0.6062
  126OSM    H2S13362   5.803   4.176   3.354 -0.0880 -0.4982 -1.9485
  126OSM    C3S13363   6.015   4.182   3.365 -0.2998 -0.5560  0.4686
  126OSM    H3S13364   6.095   4.245   3.321 -0.2380 -1.1620 -0.3118
  126OSM     O313365   6.054   4.052   3.328  0.2165 -0.3997 -0.5817
  126OSM    HO313366   5.993   4.034   3.256 -0.8410  1.2192 -0.1519
  126OSM    C4S13367   6.010   4.183   3.512  0.0839  0.1669  0.5037
  126OSM    H4S13368   5.931   4.126   3.563  0.5355  1.2337  2.5082
  126OSM    C5S13369   6.101   4.246   3.598  1.1063 -0.5295  0.7826
  126OSM    H5S13370   6.179   4.309   3.554  0.9944 -1.5900 -1.0592
  126OSM    C6S13371   6.073   4.248   3.746 -0.1291  0.1393  0.1100
  126OSM    H6S13372   5.964   4.253   3.761 -0.0797  2.0983  0.1402
  126OSM    H6T13373   6.114   4.341   3.790  0.6347  0.7457 -1.7439
  126OSM    C7S13374   6.134   4.130   3.820 -0.5032  0.9378  0.4046
  126OSM    H7S13375   6.244   4.120   3.812 -0.4913  0.4734  1.0437
  126OSM    H7T13376   6.097   4.035   3.777  0.6791  1.1018 -1.0289
  126OSM    C8S13377   6.101   4.136   3.970 -0.1031  0.1802  1.1053
  126OSM    H8S13378   5.991   4.147   3.981 -0.0154  2.4540  0.3247
  126OSM    H8T13379   6.146   4.222   4.024 -1.2222  1.7705 -0.4055
  126OSM    C9S13380   6.129   4.006   4.046 -0.0973 -0.3429 -0.0554
  126OSM    H9S13381   6.239   3.987   4.044 -0.4475 -2.6398  0.1004
  126OSM    H9T13382   6.082   3.917   4.000  1.4478 -0.9552 -0.5159
  126OSM   C10S13383   6.089   3.997   4.199  0.0444 -0.3255  0.0396
  126OSM   H10S13384   6.104   4.098   4.242  2.8313 -1.2082  1.3884
  126OSM   H10T13385   6.160   3.926   4.247  1.0223  0.2637 -0.5119
  126OSM   C11S13386   5.951   3.946   4.236  0.0283  0.4257  0.3652
  126OSM   H11S13387   5.945   3.840   4.202  2.4135  0.8365 -1.7120
  126OSM   H11T13388   5.890   4.004   4.164  0.9656  1.6125  0.5019
  126OSM   C12S13389   5.924   3.954   4.389  0.2315  0.0525  0.3586
  126OSM   H12S13390   5.816   3.937   4.408  0.1387  1.5028  1.3353
  126OSM   H12T13391   5.934   4.058   4.428 -1.0460  1.4037 -2.6229
  126OSM   C13S13392   6.017   3.871   4.474 -0.1534 -0.1347 -0.3501
  126OSM   H13S13393   6.113   3.927   4.473  0.9666 -1.8586  1.6975
  126OSM   H13T13394   6.028   3.766   4.437  1.9145 -0.1094  0.0441
  126OSM   C14S13395   5.970   3.859   4.619 -0.1360 -0.4551  0.0094
  126OSM   H14S13396   5.875   3.804   4.634 -0.6459  1.0247  3.0256
  126OSM   H14T13397   5.953   3.963   4.654 -0.1970 -0.8157  1.0854
  126OSM   C15S13398   6.080   3.793   4.710 -0.1877  0.1616  0.6821
  126OSM   H15S13399   6.179   3.842   4.695 -0.2631  0.4218  1.0107
  126OSM   H15T13400   6.098   3.687   4.683  0.4071  0.6448 -0.9056
  126OSM   C16S13401   6.030   3.804   4.854  0.2020 -0.2654  0.5759
  126OSM   H16S13402   5.923   3.777   4.844  0.5990 -1.5103 -0.5357
  126OSM   H16T13403   6.048   3.906   4.896  0.7840  0.8142 -2.0936
  126OSM   C17S13404   6.108   3.699   4.943 -0.3004  0.8350  0.1124
  126OSM   H17S13405   6.121   3.606   4.883 -1.2168  0.7191  0.0708
  126OSM   H17T13406   6.039   3.686   5.030 -0.0512  1.8768  0.4777
  126OSM   C18S13407   6.243   3.762   4.988 -0.4204 -0.5249 -0.3831
  126OSM   H18S13408   6.324   3.686   5.001  1.7683  1.8171  0.4923
  126OSM   H18T13409   6.228   3.816   5.084 -1.0683  1.5832 -1.5920
  126OSM   H18U13410   6.285   3.829   4.910 -0.8913  0.9062  0.5434
  126OSM    C1F13411   5.742   4.448   3.289  0.5864 -0.3228  0.3653
  126OSM     OF13412   5.648   4.401   3.228 -0.2818  0.0022 -0.4647
  126OSM    C2F13413   5.733   4.592   3.347  0.4290 -0.7911 -0.0615
  126OSM    H2F13414   5.756   4.661   3.262  0.4160 -1.5322 -0.6771
  126OSM    H2G13415   5.815   4.603   3.422 -0.6948  2.6007  0.8423
  126OSM    C3F13416   5.598   4.624   3.407 -0.4140  0.5666  0.3639
  126OSM    H3F13417   5.522   4.619   3.326  1.1831  0.4789 -1.1872
  126OSM    H3G13418   5.591   4.727   3.449 -0.5705  0.7612 -0.1258
  126OSM    C4F13419   5.548   4.539   3.527  0.3916  0.1951  0.3380
  126OSM    H4F13420   5.555   4.433   3.496  0.8097  0.5833 -0.9835
  126OSM    H4G13421   5.440   4.556   3.543  0.4194  0.6071  0.1328
  126OSM    C5F13422   5.637   4.553   3.652 -0.3841 -0.0007  0.3137
  126OSM    H5F13423   5.612   4.644   3.710  0.5434 -1.1159  2.5910
  126OSM    H5G13424   5.742   4.555   3.616 -0.7011  1.0914 -0.6024
  126OSM    C6F13425   5.634   4.432   3.743  0.0534 -0.9364  0.8745
  126OSM    H6F13426   5.665   4.347   3.678  2.4514  0.1798  0.4854
  126OSM    H6G13427   5.527   4.409   3.764 -0.8589  0.3023 -1.8671
  126OSM    C7F13428   5.722   4.435   3.864 -0.4174 -0.2334  0.0662
  126OSM    H7F13429   5.814   4.451   3.804  0.1277 -0.7580  0.7447
  126OSM    H7G13430   5.720   4.337   3.917 -1.9666 -0.5402 -0.4949
  126OSM    C8F13431   5.687   4.548   3.964  0.1027 -0.6713  0.0152
  126OSM    H8F13432   5.693   4.645   3.910  2.0309  0.4920  2.1649
  126OSM    H8G13433   5.767   4.560   4.039 -0.0060  1.9748 -0.2044
  126OSM    C9F13434   5.560   4.513   4.039 -0.2130  0.6985 -0.4140
  126OSM    H9F13435   5.476   4.572   3.998  0.2545  1.8717  0.2568
  126OSM   C10F13436   5.547   4.455   4.158  0.1331 -0.0431  0.0667
  126OSM   H10F13437   5.444   4.457   4.195 -0.4815  0.4246 -1.5947
  126OSM   C11F13438   5.643   4.391   4.254 -0.2834  0.1988 -1.1063
  126OSM   H11F13439   5.724   4.327   4.213 -0.7422 -1.4097  0.3296
  126OSM   H11G13440   5.589   4.316   4.317 -0.1367  1.3617  0.4653
  126OSM   C12F13441   5.699   4.512   4.345 -0.1348 -0.1980  0.5384
  126OSM   H12F13442   5.614   4.558   4.401 -0.3212 -0.2699  0.3185
  126OSM   H12G13443   5.743   4.584   4.273  1.7306 -2.4309 -0.7064
  126OSM   C13F13444   5.808   4.466   4.438 -0.7254 -0.5096 -0.7963
  126OSM   H13F13445   5.853   4.563   4.472 -0.9372  0.0041 -1.9256
  126OSM   H13G13446   5.889   4.414   4.382 -0.9883 -2.3714  0.4615
  126OSM   C14F13447   5.761   4.383   4.550  0.0452  0.1617  0.7504
  126OSM   H14F13448   5.852   4.372   4.614 -0.0339 -0.2538  0.7906
  126OSM   H14G13449   5.725   4.287   4.508  0.1625  1.1963 -1.9166
  126OSM   C15F13450   5.655   4.447   4.646  0.4582 -0.0608  0.1633
  126OSM   H15F13451   5.558   4.431   4.594  1.0005 -3.2411 -0.0538
  126OSM   H15G13452   5.678   4.556   4.655 -1.4259  0.4375 -0.6798
  126OSM   C16F13453   5.651   4.392   4.789  0.2345  0.4699  0.0567
  126OSM   H16F13454   5.574   4.447   4.847 -0.0471 -0.6287  0.7484
  126OSM   H16G13455   5.744   4.401   4.849  0.3409 -1.5127  0.2288
  126OSM   C17F13456   5.621   4.243   4.797  0.6300  1.1840  0.5218
  126OSM   H17F13457   5.677   4.176   4.728 -1.3542 -1.2140  1.0980
  126OSM   H17G13458   5.519   4.230   4.756  0.1805 -1.9800  2.2843
  126OSM   C18F13459   5.640   4.170   4.934 -0.3902 -0.3143 -0.2284
  126OSM   H18F13460   5.612   4.062   4.941  2.4529 -1.3548 -2.4898
  126OSM   H18G13461   5.584   4.225   5.012 -0.2023  0.6246 -0.7393
  126OSM   H18H13462   5.745   4.194   4.960 -0.5050  1.1777 -1.0584
  127OSM      N13463   5.259   6.781   2.850 -0.8356 -0.2925 -0.3473
  127OSM    C1513464   5.359   6.869   2.780 -0.3285 -0.4045 -0.1577
  127OSM   H15A13465   5.313   6.957   2.737  1.6426 -0.0824 -1.7137
  127OSM   H15B13466   5.411   6.809   2.707  0.9667  1.0214 -0.4393
  127OSM   H15C13467   5.432   6.905   2.851 -1.5012  0.8747  0.4410
  127OSM    C1413468   5.140   6.754   2.762  0.5292  0.7147  0.3936
  127OSM   H14A13469   5.098   6.845   2.722 -2.5647 -0.2494  1.1986
  127OSM   H14B13470   5.072   6.682   2.804  0.6614  0.3737  0.0298
  127OSM   H14C13471   5.171   6.708   2.669 -1.0961  0.0309  0.1687
  127OSM    C1313472   5.322   6.653   2.894 -0.2893  0.1444 -0.1487
  127OSM   H13A13473   5.248   6.590   2.940 -1.7982  0.8672 -1.4724
  127OSM   H13B13474   5.404   6.668   2.962 -0.8374 -2.3374  1.1672
  127OSM   H13C13475   5.354   6.601   2.804 -0.2205 -1.6214  0.8592
  127OSM    C1213476   5.213   6.845   2.980  0.3407  0.0869 -0.0303
  127OSM   H12A13477   5.166   6.768   3.039 -0.6696  1.5861  1.1898
  127OSM   H12B13478   5.134   6.917   2.965 -0.8387 -0.9027  1.1573
  127OSM    C1113479   5.316   6.906   3.072 -0.0369  0.5830 -0.0977
  127OSM   H11A13480   5.402   6.837   3.085  1.1850  1.9227 -0.8352
  127OSM   H11B13481   5.260   6.926   3.166 -1.5334  0.0849 -0.8477
  127OSM      P13482   5.490   7.101   3.081  0.6061 -0.1479 -0.0244
  127OSM    O1313483   5.575   6.998   3.136  0.0128  0.3760  0.1997
  127OSM    O1413484   5.553   7.200   2.987 -0.4412 -0.3364  0.0422
  127OSM    O1113485   5.413   7.172   3.194  0.1157  0.0846  0.1729
  127OSM    O1213486   5.369   7.027   3.010 -0.4471  0.8499  0.0578
  127OSM    C1S13487   5.449   7.144   3.331 -0.8230 -0.2362 -0.3395
  127OSM    H1S13488   5.558   7.156   3.346 -0.7322 -1.0934 -0.2621
  127OSM    H1T13489   5.413   7.042   3.359  0.7478 -0.9423 -0.8261
  127OSM     NF13490   5.456   7.232   3.554 -0.5333  0.2924 -0.1085
  127OSM    HNF13491   5.413   7.172   3.621  0.2746  0.7860  0.8721
  127OSM    C2S13492   5.386   7.244   3.431 -0.0944  0.1561 -0.1214
  127OSM    H2S13493   5.405   7.345   3.390  0.0713  1.0512  2.0415
  127OSM    C3S13494   5.227   7.237   3.439 -0.2971 -0.1373 -0.0289
  127OSM    H3S13495   5.204   7.138   3.485 -1.3252  0.9105  1.7981
  127OSM     O313496   5.164   7.237   3.307  0.2938 -0.1949 -0.0427
  127OSM    HO313497   5.239   7.239   3.247  0.3787 -0.7747  0.0430
  127OSM    C4S13498   5.175   7.344   3.522  0.3889 -0.1823 -0.7198
  127OSM    H4S13499   5.140   7.302   3.617  0.1287 -0.3342 -0.8823
  127OSM    C5S13500   5.152   7.477   3.497  0.3937 -0.4675  0.1076
  127OSM    H5S13501   5.163   7.516   3.394 -1.4505  1.0621  0.4338
  127OSM    C6S13502   5.098   7.575   3.592 -0.5308 -0.2936 -0.8628
  127OSM    H6S13503   4.997   7.610   3.564 -0.3095  1.7737  0.7146
  127OSM    H6T13504   5.162   7.665   3.589 -2.2726  0.9662 -2.2978
  127OSM    C7S13505   5.095   7.541   3.746  0.4493  0.2393 -0.2691
  127OSM    H7S13506   5.023   7.464   3.781  1.5078 -0.6020  0.1000
  127OSM    H7T13507   5.088   7.634   3.806 -1.6023 -0.3644  0.5177
  127OSM    C8S13508   5.231   7.497   3.806  0.1889 -0.2135 -0.4441
  127OSM    H8S13509   5.316   7.531   3.744  0.0135 -1.4209 -1.3861
  127OSM    H8T13510   5.241   7.386   3.812 -0.8796 -0.2717  0.9595
  127OSM    C9S13511   5.261   7.550   3.950 -0.0237  0.0960  0.4026
  127OSM    H9S13512   5.256   7.660   3.934 -1.2578 -0.3598 -3.3010
  127OSM    H9T13513   5.360   7.513   3.982 -0.2474 -1.2547 -0.3863
  127OSM   C10S13514   5.153   7.492   4.047  0.7659  0.1103 -0.5429
  127OSM   H10S13515   5.154   7.382   4.027  1.9366 -0.3221  1.5330
  127OSM   H10T13516   5.054   7.534   4.021 -0.5487 -1.6402  1.2752
  127OSM   C11S13517   5.166   7.523   4.194 -0.2788 -0.1316 -0.5988
  127OSM   H11S13518   5.159   7.633   4.208  1.0734 -0.0856 -0.2005
  127OSM   H11T13519   5.267   7.492   4.228 -0.3249 -1.5046 -1.6367
  127OSM   C12S13520   5.050   7.456   4.268  0.3709  0.0580 -0.1396
  127OSM   H12S13521   5.067   7.347   4.251  1.9945  0.5948 -2.3860
  127OSM   H12T13522   4.952   7.481   4.223  0.0093 -1.2100 -0.0913
  127OSM   C13S13523   5.048   7.480   4.422  0.5937 -0.9024  0.7088
  127OSM   H13S13524   5.013   7.586   4.425  2.1582 -0.3410  0.1263
  127OSM   H13T13525   5.148   7.469   4.468  0.4279  0.3027  1.4244
  127OSM   C14S13526   4.955   7.379   4.502 -0.1684  0.5826  0.0864
  127OSM   H14S13527   4.980   7.274   4.475  0.5741  0.4082  1.3904
  127OSM   H14T13528   4.858   7.396   4.450  0.2584 -1.9569 -1.7190
  127OSM   C15S13529   4.962   7.390   4.650  0.0396 -0.6200  0.4813
  127OSM   H15S13530   4.953   7.496   4.681 -0.8758 -0.9500  1.4021
  127OSM   H15T13531   5.064   7.351   4.668 -0.0885 -0.4959  1.5294
  127OSM   C16S13532   4.861   7.308   4.727  0.2529  0.3308 -0.2224
  127OSM   H16S13533   4.843   7.207   4.682 -2.6088  0.0627  1.2977
  127OSM   H16T13534   4.763   7.357   4.709  0.0580  0.9538  2.2273
  127OSM   C17S13535   4.881   7.313   4.874 -0.4484  0.2282  0.0551
  127OSM   H17S13536   4.985   7.286   4.903  0.0774  1.0983 -0.9256
  127OSM   H17T13537   4.811   7.236   4.913 -0.7880 -0.0163 -0.9914
  127OSM   C18S13538   4.847   7.452   4.925  0.1230 -0.1593 -0.0515
  127OSM   H18S13539   4.736   7.455   4.924  0.0864  0.0022  1.4940
  127OSM   H18T13540   4.882   7.539   4.866  1.4852 -1.5639 -1.3969
  127OSM   H18U13541   4.872   7.479   5.030 -0.6220  2.8171 -0.5406
  127OSM    C1F13542   5.571   7.295   3.583  0.5064  0.4361  0.3039
  127OSM     OF13543   5.618   7.367   3.500 -0.2894 -0.4173 -0.4492
  127OSM    C2F13544   5.626   7.271   3.715 -1.0785 -0.6583 -0.0152
  127OSM    H2F13545   5.606   7.164   3.738 -0.7657 -0.4362  1.3920
  127OSM    H2G13546   5.582   7.340   3.790 -0.7787 -1.1215  0.6005
  127OSM    C3F13547   5.777   7.301   3.708  0.1821  0.2938 -0.0208
  127OSM    H3F13548   5.802   7.401   3.666  0.2587 -0.2924 -1.4310
  127OSM    H3G13549   5.824   7.224   3.644  1.0115  1.3912 -0.7757
  127OSM    C4F13550   5.850   7.277   3.846 -0.5364 -0.1180 -0.2109
  127OSM    H4F13551   5.960   7.263   3.832  0.0283  1.3298  2.0742
  127OSM    H4G13552   5.821   7.180   3.890  0.1560 -0.4068 -0.3730
  127OSM    C5F13553   5.835   7.404   3.939  0.6721  0.1723 -0.2900
  127OSM    H5F13554   5.732   7.414   3.977  0.3823 -1.0123 -0.7117
  127OSM    H5G13555   5.876   7.486   3.877  0.7127 -1.6991 -2.8971
  127OSM    C6F13556   5.934   7.396   4.062 -0.5896 -0.0647  0.0531
  127OSM    H6F13557   5.953   7.497   4.106 -0.4475 -0.1434  0.1741
  127OSM    H6G13558   6.027   7.359   4.013 -1.1587 -2.5812  0.7255
  127OSM    C7F13559   5.883   7.301   4.172  0.1561  0.6830  0.0163
  127OSM    H7F13560   5.964   7.272   4.242  1.1983 -1.9464 -2.1100
  127OSM    H7G13561   5.854   7.207   4.119  0.0456  0.1082  1.0793
  127OSM    C8F13562   5.765   7.356   4.247 -0.1127  0.0263  0.2212
  127OSM    H8F13563   5.736   7.280   4.322  2.3854 -1.3474 -0.0649
  127OSM    H8G13564   5.678   7.390   4.188  0.6881  0.8241 -0.5410
  127OSM    C9F13565   5.802   7.478   4.324  0.2458 -0.0462 -0.5291
  127OSM    H9F13566   5.767   7.573   4.283  2.1830  1.4956  1.1579
  127OSM   C10F13567   5.875   7.483   4.438 -0.6881 -0.2674 -0.3700
  127OSM   H10F13568   5.908   7.581   4.475 -1.7759 -0.3877  1.0076
  127OSM   C11F13569   5.949   7.369   4.501  0.3241 -0.0706 -0.1927
  127OSM   H11F13570   6.056   7.384   4.475 -0.0847 -0.0449 -1.9967
  127OSM   H11G13571   5.919   7.273   4.454  2.7895 -1.4997  0.9280
  127OSM   C12F13572   5.935   7.353   4.653  0.0853  0.1502  0.8584
  127OSM   H12F13573   6.011   7.278   4.682  3.8964  2.7269 -1.5916
  127OSM   H12G13574   5.837   7.304   4.670  0.9669 -0.9203  3.3465
  127OSM   C13F13575   5.954   7.477   4.734 -0.6384 -0.8436 -0.7293
  127OSM   H13F13576   5.877   7.556   4.728 -1.4000 -1.4571  0.5850
  127OSM   H13G13577   6.054   7.521   4.712  0.5980 -3.5028 -0.8166
  127OSM   C14F13578   5.977   7.442   4.876  0.3318  0.5300  0.1357
  127OSM   H14F13579   5.929   7.343   4.894  1.7665  0.0048  1.3340
  127OSM   H14G13580   5.943   7.523   4.943 -1.8027 -0.3341  0.1625
  127OSM   C15F13581   6.127   7.403   4.906 -0.1500  0.3332 -0.4329
  127OSM   H15F13582   6.196   7.479   4.862  2.4173 -1.6977 -0.1668
  127OSM   H15G13583   6.152   7.310   4.852  1.3760  1.1463 -1.2088
  127OSM   C16F13584   6.143   7.390   5.055 -0.3486 -0.2586 -0.2916
  127OSM   H16F13585   6.073   7.463   5.099 -3.3059 -1.2753 -2.9463
  127OSM   H16G13586   6.248   7.403   5.089  0.4315  0.1759 -2.6492
  127OSM   C17F13587   6.084   7.257   5.101 -0.5703  0.0355 -0.1934
  127OSM   H17F13588   6.001   7.203   5.052  0.0323 -0.3387 -0.8234
  127OSM   H17G13589   6.064   7.280   5.208  1.8821  0.1801  0.2934
  127OSM   C18F13590   6.189   7.149   5.107  0.2638  0.0868 -0.1331
  127OSM   H18F13591   6.272   7.167   5.179  1.1911 -1.5648 -0.7548
  127OSM   H18G13592   6.234   7.131   5.008 -1.6190  1.8754 -1.4013
  127OSM   H18H13593   6.142   7.054   5.138 -0.8530  1.3610  2.4062
  128OSM      N13594   4.684   6.711   2.481  1.1598 -0.5022 -0.0453
  128OSM    C1513595   4.648   6.706   2.338  0.0976  0.0312  0.8501
  128OSM   H15A13596   4.662   6.803   2.292 -2.7712  0.5490  0.8948
  128OSM   H15B13597   4.545   6.677   2.321  0.1356 -1.6002  2.9999
  128OSM   H15C13598   4.712   6.637   2.285  0.2347  0.0472  0.9972
  128OSM    C1413599   4.820   6.762   2.505 -0.6004  0.2538  0.1409
  128OSM   H14A13600   4.891   6.688   2.471 -0.4333  0.1605  0.6837
  128OSM   H14B13601   4.829   6.775   2.612 -0.7975  2.2026 -0.0329
  128OSM   H14C13602   4.836   6.862   2.467 -0.8350  0.6758  1.1081
  128OSM    C1313603   4.582   6.803   2.547 -0.2804  0.4766  0.0195
  128OSM   H13A13604   4.596   6.907   2.522 -0.4830  0.9065  1.5769
  128OSM   H13B13605   4.595   6.788   2.653  0.5563 -0.6520 -0.2192
  128OSM   H13C13606   4.481   6.768   2.530 -0.2595  0.6132 -0.4005
  128OSM    C1213607   4.663   6.577   2.536  0.0225  0.4132  0.2426
  128OSM   H12A13608   4.721   6.512   2.472  0.1112 -1.2354  1.9006
  128OSM   H12B13609   4.561   6.543   2.520  0.1715 -0.0042  0.1535
  128OSM    C1113610   4.701   6.555   2.687 -0.1047  0.1126  0.9865
  128OSM   H11A13611   4.812   6.552   2.693  0.2609  1.8708 -2.4431
  128OSM   H11B13612   4.672   6.451   2.711 -1.2668  0.6229  1.8785
  128OSM      P13613   4.503   6.615   2.846  0.0679 -0.2301 -0.0186
  128OSM    O1313614   4.442   6.730   2.909 -0.1564 -0.0119 -0.2914
  128OSM    O1413615   4.412   6.542   2.759  0.3267  0.1606 -0.1932
  128OSM    O1113616   4.550   6.517   2.962 -0.3207 -0.1965  0.1306
  128OSM    O1213617   4.638   6.645   2.776  0.0868 -0.7023  0.9065
  128OSM    C1S13618   4.638   6.576   3.058 -0.1053 -0.2072  0.9223
  128OSM    H1S13619   4.582   6.668   3.088  1.1829  1.2341 -0.8411
  128OSM    H1T13620   4.739   6.603   3.022 -0.0055  0.3372  1.5890
  128OSM     NF13621   4.684   6.562   3.304 -0.0160 -0.1923 -0.3362
  128OSM    HNF13622   4.779   6.570   3.333  0.2323  1.2321 -1.4403
  128OSM    C2S13623   4.649   6.484   3.187  0.0193 -0.3999 -0.3653
  128OSM    H2S13624   4.549   6.447   3.215 -0.2862  1.6626  1.5495
  128OSM    C3S13625   4.736   6.357   3.152  0.2205  0.2968  0.2650
  128OSM    H3S13626   4.841   6.391   3.147  0.2785  0.1681  0.6213
  128OSM     O313627   4.692   6.283   3.033  0.5043  0.2654  0.7857
  128OSM    HO313628   4.616   6.333   3.002  1.2537  0.3617 -1.0166
  128OSM    C4S13629   4.725   6.259   3.263  0.0538  0.2934  0.1842
  128OSM    H4S13630   4.623   6.226   3.287 -0.2442 -0.0580 -1.4494
  128OSM    C5S13631   4.823   6.221   3.345 -0.1099  0.1228 -0.4924
  128OSM    H5S13632   4.920   6.273   3.341 -1.6318  3.1276 -0.2257
  128OSM    C6S13633   4.819   6.130   3.466 -0.5096  1.1169 -0.0498
  128OSM    H6S13634   4.842   6.189   3.557 -0.1667  0.7713  0.0931
  128OSM    H6T13635   4.893   6.047   3.461 -0.8011  0.7382  1.3581
  128OSM    C7S13636   4.681   6.066   3.501  0.2621 -0.0196  0.3711
  128OSM    H7S13637   4.650   6.000   3.418  1.1064 -2.0311  1.5868
  128OSM    H7T13638   4.607   6.148   3.512  0.3292  0.2660 -1.0948
  128OSM    C8S13639   4.688   5.977   3.624  0.1061 -0.4921 -0.0358
  128OSM    H8S13640   4.760   5.893   3.612  0.8485 -0.6466  4.0331
  128OSM    H8T13641   4.587   5.935   3.643  0.6581 -1.7211  0.2985
  128OSM    C9S13642   4.700   6.053   3.761  1.0064 -0.4799  0.3553
  128OSM    H9S13643   4.654   6.154   3.756  3.2373  0.7165  2.1097
  128OSM    H9T13644   4.805   6.074   3.790  0.5574 -0.4889  2.0938
  128OSM   C10S13645   4.628   5.976   3.875 -0.1636 -0.0097  0.5175
  128OSM   H10S13646   4.690   5.885   3.889  0.0321 -0.2466 -1.6245
  128OSM   H10T13647   4.527   5.944   3.843  0.0248 -1.0405  0.9268
  128OSM   C11S13648   4.614   6.051   4.012  0.2360 -0.2439  0.6651
  128OSM   H11S13649   4.588   5.978   4.091  1.8784  1.2678  2.7465
  128OSM   H11T13650   4.542   6.135   4.005 -0.9264 -0.8974  3.4527
  128OSM   C12S13651   4.745   6.114   4.069  0.2499  0.6249 -0.2241
  128OSM   H12S13652   4.780   6.194   4.000 -0.8282  2.5367  1.3699
  128OSM   H12T13653   4.826   6.037   4.069 -1.4038 -1.2819 -2.5410
  128OSM   C13S13654   4.736   6.183   4.201 -0.6494  0.6197 -0.7514
  128OSM   H13S13655   4.683   6.280   4.209  0.8182  1.3951 -0.0099
  128OSM   H13T13656   4.838   6.211   4.237 -0.6922 -1.8576  1.5906
  128OSM   C14S13657   4.693   6.071   4.307 -0.1885  0.2225  0.2503
  128OSM   H14S13658   4.747   5.976   4.286  0.8785  1.0147 -0.6904
  128OSM   H14T13659   4.587   6.039   4.294  0.1393  0.0913 -2.7964
  128OSM   C15S13660   4.741   6.090   4.451  0.0621  0.3034  0.3669
  128OSM   H15S13661   4.662   6.144   4.507 -0.7447 -1.0190  0.5439
  128OSM   H15T13662   4.834   6.152   4.447  0.2097  0.0335 -0.6147
  128OSM   C16S13663   4.767   5.953   4.509  0.3787  0.3252  0.5462
  128OSM   H16S13664   4.838   5.896   4.446 -0.1179 -0.6514  0.8583
  128OSM   H16T13665   4.669   5.900   4.514  1.5492 -1.8709  4.0524
  128OSM   C17S13666   4.830   5.968   4.647 -0.0702  0.0551  0.1360
  128OSM   H17S13667   4.744   5.983   4.716 -0.9248  0.0755 -0.9151
  128OSM   H17T13668   4.885   6.063   4.665 -0.1368 -0.1379  1.4917
  128OSM   C18S13669   4.896   5.846   4.696  0.4000  0.1467  0.2437
  128OSM   H18S13670   4.993   5.833   4.645  0.0820  0.0300 -0.3383
  128OSM   H18T13671   4.829   5.764   4.663 -1.3662  1.4846  0.3035
  128OSM   H18U13672   4.909   5.844   4.806 -0.6453  1.2306  0.4101
  128OSM    C1F13673   4.585   6.640   3.358 -0.4838 -1.1297  0.6628
  128OSM     OF13674   4.471   6.633   3.317  0.1153  0.1680 -0.2201
  128OSM    C2F13675   4.637   6.719   3.476 -0.2519 -0.1145 -0.4072
  128OSM    H2F13676   4.661   6.822   3.442 -1.1673  0.0786 -0.5147
  128OSM    H2G13677   4.723   6.665   3.520 -0.2622 -2.1779 -2.7214
  128OSM    C3F13678   4.521   6.748   3.578  0.1111  0.3042 -0.3000
  128OSM    H3F13679   4.452   6.662   3.588 -1.1766  1.3103 -0.2435
  128OSM    H3G13680   4.465   6.835   3.538  1.1732  0.3596 -1.7510
  128OSM    C4F13681   4.588   6.780   3.711 -0.4387 -0.2564  1.2578
  128OSM    H4F13682   4.682   6.831   3.684 -2.1667  1.3075 -2.5481
  128OSM    H4G13683   4.604   6.681   3.760  2.0213 -0.7820 -0.4688
  128OSM    C5F13684   4.499   6.876   3.791 -0.9540 -0.0663  0.4701
  128OSM    H5F13685   4.396   6.835   3.786 -0.3495 -1.4478 -1.3424
  128OSM    H5G13686   4.497   6.981   3.756  0.0979  0.6013  2.2580
  128OSM    C6F13687   4.545   6.873   3.940  0.1962 -0.6303  0.4758
  128OSM    H6F13688   4.557   6.764   3.953  0.3868 -1.1614 -3.1788
  128OSM    H6G13689   4.473   6.908   4.018  3.0023  1.1411  2.4950
  128OSM    C7F13690   4.682   6.941   3.964  0.2144 -0.4317  0.5424
  128OSM    H7F13691   4.689   7.050   3.941  0.7074 -0.1371  1.9888
  128OSM    H7G13692   4.757   6.902   3.892  0.3933  2.1500 -0.8088
  128OSM    C8F13693   4.742   6.917   4.104  0.2010  0.3017  0.0322
  128OSM    H8F13694   4.802   6.824   4.100  0.4736  0.5060 -1.2706
  128OSM    H8G13695   4.652   6.917   4.170  0.2739  1.5508  0.1653
  128OSM    C9F13696   4.842   7.021   4.143  0.1166 -0.3570  0.0952
  128OSM    H9F13697   4.945   6.998   4.113  0.1031  0.2080 -0.4129
  128OSM   C10F13698   4.811   7.146   4.191 -0.7721 -0.7269 -0.0544
  128OSM   H10F13699   4.898   7.203   4.227  1.5528 -3.2998 -1.2049
  128OSM   C11F13700   4.671   7.197   4.214  0.1054 -0.7408  0.2235
  128OSM   H11F13701   4.594   7.161   4.143 -1.2618  0.4880  1.0109
  128OSM   H11G13702   4.675   7.305   4.188 -0.2441 -1.0657 -1.2448
  128OSM   C12F13703   4.618   7.181   4.362 -0.5311 -0.8616  0.6928
  128OSM   H12F13704   4.689   7.228   4.432 -0.0982  0.5678 -0.6605
  128OSM   H12G13705   4.603   7.074   4.391 -0.4420 -0.6021  1.7446
  128OSM   C13F13706   4.482   7.247   4.391  0.3335  0.4040  0.7910
  128OSM   H13F13707   4.407   7.194   4.329  0.5362 -0.0243  0.9087
  128OSM   H13G13708   4.489   7.347   4.342  1.7320  0.3435  0.8264
  128OSM   C14F13709   4.432   7.270   4.532 -0.1258  0.7337 -0.3080
  128OSM   H14F13710   4.514   7.306   4.598 -0.6157  1.3059  0.0067
  128OSM   H14G13711   4.403   7.171   4.572  1.0385  0.2892 -0.5388
  128OSM   C15F13712   4.308   7.358   4.537 -0.0344  0.5713  0.7037
  128OSM   H15F13713   4.240   7.313   4.461 -0.7177  1.5907  0.6938
  128OSM   H15G13714   4.346   7.461   4.523  1.3227  0.3972  2.6500
  128OSM   C16F13715   4.245   7.369   4.678 -0.3298 -0.4928 -0.6392
  128OSM   H16F13716   4.324   7.415   4.740  0.3458 -2.0944 -0.2561
  128OSM   H16G13717   4.226   7.267   4.719 -0.3146  0.5191  2.0336
  128OSM   C17F13718   4.132   7.471   4.697 -0.1130  0.0698  0.7006
  128OSM   H17F13719   4.060   7.465   4.613 -0.5731  0.2959  1.0729
  128OSM   H17G13720   4.181   7.570   4.686  3.3115 -1.3504  1.6541
  128OSM   C18F13721   4.043   7.468   4.824 -0.1075 -0.0325 -0.1091
  128OSM   H18F13722   3.963   7.392   4.813  0.1821 -0.2527 -0.7189
  128OSM   H18G13723   3.989   7.565   4.835  2.7019  1.4002  2.6646
  128OSM   H18H13724   4.097   7.456   4.920  0.3366  1.1824 -0.1812
  129OSM      N13725   6.959   2.958   2.978  0.5099  0.2174 -0.7999
  129OSM    C1513726   7.058   2.901   2.880 -0.4364  0.6478  0.5345
  129OSM   H15A13727   7.133   2.871   2.952  0.4143  1.7399  0.1404
  129OSM   H15B13728   7.104   2.964   2.805  0.1947 -1.5953 -1.0529
  129OSM   H15C13729   7.020   2.818   2.823  0.2024 -0.8925  2.2433
  129OSM    C1413730   6.832   2.972   2.902 -0.5355  0.0337 -0.0296
  129OSM   H14A13731   6.851   3.026   2.810  0.6055  0.8330  0.6564
  129OSM   H14B13732   6.761   3.035   2.954 -0.3693 -0.6378  1.0436
  129OSM   H14C13733   6.799   2.873   2.874  1.3931 -1.0802  1.4176
  129OSM    C1313734   6.945   2.857   3.087 -0.6445  0.4509  0.4422
  129OSM   H13A13735   7.029   2.863   3.154 -0.3928 -1.5397  0.3351
  129OSM   H13B13736   6.917   2.758   3.056 -1.9652  0.6678  0.8396
  129OSM   H13C13737   6.862   2.888   3.149 -1.5130 -1.9472  0.5835
  129OSM    C1213738   7.002   3.091   3.040 -0.1993  0.5383 -0.5934
  129OSM   H12A13739   7.025   3.159   2.959 -0.5055  1.2347 -0.1101
  129OSM   H12B13740   7.098   3.069   3.086 -1.3647 -0.7700  1.3635
  129OSM    C1113741   6.913   3.155   3.151 -0.0529  0.1312  0.0748
  129OSM   H11A13742   6.946   3.256   3.184 -1.0111  0.5884 -0.3480
  129OSM   H11B13743   6.914   3.087   3.239 -1.1740  1.0317  0.8018
  129OSM      P13744   6.720   3.274   2.998 -0.0638  0.1015 -0.4805
  129OSM    O1313745   6.833   3.321   2.914  0.6529 -0.1954  0.9923
  129OSM    O1413746   6.610   3.208   2.930  0.5703 -0.1037  0.2711
  129OSM    O1113747   6.663   3.398   3.076 -0.2297  0.3841  0.4733
  129OSM    O1213748   6.778   3.176   3.107  0.0254 -0.1371  0.0838
  129OSM    C1S13749   6.574   3.356   3.184  0.2488  0.0709 -0.2417
  129OSM    H1S13750   6.535   3.252   3.178 -0.5283  0.1693  2.0218
  129OSM    H1T13751   6.479   3.410   3.167  0.0034 -0.5324 -0.8087
  129OSM     NF13752   6.510   3.344   3.419  0.1647  0.3567  0.4757
  129OSM    HNF13753   6.457   3.414   3.465 -0.3184 -1.5939  3.1551
  129OSM    C2S13754   6.620   3.379   3.334  0.0358 -0.0022  0.2034
  129OSM    H2S13755   6.706   3.310   3.350  0.2078  0.0575 -0.4414
  129OSM    C3S13756   6.665   3.532   3.353  0.0361  0.4932 -0.2382
  129OSM    H3S13757   6.576   3.593   3.325  0.3502  1.2109  0.3166
  129OSM     O313758   6.769   3.582   3.273  0.5174 -0.2107 -0.1042
  129OSM    HO313759   6.758   3.530   3.193 -0.8753  0.9515 -0.7239
  129OSM    C4S13760   6.689   3.563   3.494 -0.1053  0.6362  0.1087
  129OSM    H4S13761   6.617   3.639   3.526 -1.5919 -1.0009  0.7966
  129OSM    C5S13762   6.796   3.525   3.568 -0.1959 -0.6044  0.0777
  129OSM    H5S13763   6.872   3.457   3.525 -0.1475  0.3259 -1.3760
  129OSM    C6S13764   6.809   3.564   3.713 -0.2140  0.3042  0.0734
  129OSM    H6S13765   6.907   3.612   3.730  0.4878 -0.8365 -0.5789
  129OSM    H6T13766   6.812   3.471   3.775  0.5588 -0.2687 -0.7990
  129OSM    C7S13767   6.696   3.644   3.784  0.2043 -0.3017 -0.1051
  129OSM    H7S13768   6.603   3.588   3.758  0.2740  0.6485 -2.6666
  129OSM    H7T13769   6.695   3.745   3.738  0.5378  0.0742  0.6998
  129OSM    C8S13770   6.699   3.659   3.937 -1.3557  0.4303  0.3477
  129OSM    H8S13771   6.601   3.698   3.971 -0.5004  1.3978  1.8973
  129OSM    H8T13772   6.773   3.739   3.962 -0.0613 -0.6190 -0.0012
  129OSM    C9S13773   6.740   3.535   4.015  0.2399 -0.0563 -0.2302
  129OSM    H9S13774   6.839   3.498   3.983 -0.3298 -1.2072 -0.7401
  129OSM    H9T13775   6.661   3.461   3.988 -0.9249  1.8552 -2.3886
  129OSM   C10S13776   6.739   3.552   4.168  0.0679 -0.1188 -0.0569
  129OSM   H10S13777   6.633   3.566   4.196 -0.6415  2.2968 -3.3301
  129OSM   H10T13778   6.801   3.640   4.199  0.3481 -0.5722  0.7023
  129OSM   C11S13779   6.793   3.428   4.244 -0.0291  0.1431  0.8644
  129OSM   H11S13780   6.893   3.402   4.202 -0.0868 -0.4453  1.0842
  129OSM   H11T13781   6.732   3.336   4.229  2.0272 -0.9206 -1.9284
  129OSM   C12S13782   6.820   3.450   4.389 -0.1083 -0.6067  0.4121
  129OSM   H12S13783   6.728   3.488   4.440  0.3214 -0.4875  1.1144
  129OSM   H12T13784   6.879   3.544   4.388 -1.7196  0.4609  0.7089
  129OSM   C13S13785   6.880   3.333   4.459  0.7764 -0.6109  0.5866
  129OSM   H13S13786   6.963   3.288   4.400  0.1700  0.2859 -1.0341
  129OSM   H13T13787   6.805   3.255   4.482  0.5556 -0.3751  0.6731
  129OSM   C14S13788   6.941   3.374   4.599 -0.5137  0.3827  0.5330
  129OSM   H14S13789   6.857   3.420   4.655 -1.8407 -0.4935 -0.6787
  129OSM   H14T13790   7.015   3.454   4.581 -1.3674  1.3447  1.1639
  129OSM   C15S13791   6.999   3.257   4.679 -0.0697  0.5112  0.2680
  129OSM   H15S13792   7.058   3.197   4.607  0.0471  0.9962 -0.0466
  129OSM   H15T13793   6.917   3.199   4.726  2.9487 -0.6862  4.8012
  129OSM   C16S13794   7.085   3.301   4.797  0.0422  0.2213 -0.3910
  129OSM   H16S13795   7.022   3.366   4.862  0.8497  0.1785  0.4506
  129OSM   H16T13796   7.153   3.384   4.769  1.0065  0.4751  2.3614
  129OSM   C17S13797   7.164   3.192   4.867  0.0220  0.6960 -0.4230
  129OSM   H17S13798   7.265   3.194   4.822  0.2752  0.7429  0.1386
  129OSM   H17T13799   7.126   3.090   4.845 -1.4935  1.1921 -0.2252
  129OSM   C18S13800   7.163   3.213   5.016  0.4739  0.1067  0.1394
  129OSM   H18S13801   7.057   3.230   5.045  0.9352  1.3954  1.1610
  129OSM   H18T13802   7.220   3.302   5.047  0.6414 -0.5651  1.9142
  129OSM   H18U13803   7.209   3.124   5.065  2.4114  0.3271 -1.1862
  129OSM    C1F13804   6.472   3.217   3.437 -0.6947 -0.4733 -0.6001
  129OSM     OF13805   6.537   3.127   3.383 -0.3828 -0.4379 -0.5231
  129OSM    C2F13806   6.358   3.192   3.539 -0.2777  0.3787  0.2181
  129OSM    H2F13807   6.267   3.234   3.491  0.3228  1.1929 -0.2377
  129OSM    H2G13808   6.385   3.246   3.632  0.6158  0.7573 -0.2465
  129OSM    C3F13809   6.336   3.045   3.582 -0.3295 -0.7636  0.2708
  129OSM    H3F13810   6.422   3.003   3.639  1.0067  0.4260 -0.7705
  129OSM    H3G13811   6.334   2.988   3.486  0.8205  1.4811 -1.1853
  129OSM    C4F13812   6.218   3.025   3.675 -0.0522  0.4207 -0.1402
  129OSM    H4F13813   6.202   2.916   3.678  1.2219  0.0799 -2.7150
  129OSM    H4G13814   6.120   3.058   3.633 -1.4488  0.2194  2.7166
  129OSM    C5F13815   6.257   3.078   3.813 -0.0487  0.6125 -0.0925
  129OSM    H5F13816   6.288   3.184   3.800 -0.7080  0.8023 -0.1509
  129OSM    H5G13817   6.338   3.012   3.849 -0.8150  0.9826  2.4934
  129OSM    C6F13818   6.136   3.069   3.914  0.0294 -0.3682  0.3980
  129OSM    H6F13819   6.121   2.960   3.932 -1.3719 -0.0476  1.3520
  129OSM    H6G13820   6.046   3.106   3.861 -1.0339  2.2200  3.6734
  129OSM    C7F13821   6.152   3.154   4.043 -0.5250 -0.3405  0.1043
  129OSM    H7F13822   6.144   3.262   4.016  0.7242  0.2352  1.8800
  129OSM    H7G13823   6.250   3.141   4.092 -1.0168  1.7131  1.8183
  129OSM    C8F13824   6.036   3.118   4.142  0.0089  0.3004 -0.1091
  129OSM    H8F13825   6.069   3.029   4.200  2.4739  1.5395  0.5594
  129OSM    H8G13826   5.944   3.093   4.085  0.4731  0.7584 -1.0910
  129OSM    C9F13827   6.014   3.236   4.227  0.5493  0.4209 -0.5616
  129OSM    H9F13828   5.975   3.328   4.182  4.5495  4.3176  3.0707
  129OSM   C10F13829   6.030   3.242   4.360  0.0712  0.2593  0.4182
  129OSM   H10F13830   6.007   3.333   4.417 -1.8108 -0.2542  0.5356
  129OSM   C11F13831   6.071   3.124   4.455 -0.7953 -0.4791 -0.1219
  129OSM   H11F13832   6.180   3.109   4.476 -0.5894 -0.6144 -1.2336
  129OSM   H11G13833   6.018   3.033   4.422 -3.4248 -0.1439  2.7053
  129OSM   C12F13834   6.014   3.144   4.599 -0.3150 -0.2677  0.0462
  129OSM   H12F13835   6.012   3.042   4.642  0.5552 -0.9074 -1.3323
  129OSM   H12G13836   5.909   3.179   4.600  0.4210  2.1417  1.3075
  129OSM   C13F13837   6.093   3.237   4.697 -0.0334  0.5736 -0.2361
  129OSM   H13F13838   6.091   3.344   4.667 -0.2393  1.3609  2.3251
  129OSM   H13G13839   6.195   3.194   4.692 -1.0525 -2.0760  0.1352
  129OSM   C14F13840   6.052   3.230   4.845 -0.0159 -0.7032 -0.2276
  129OSM   H14F13841   6.138   3.243   4.914 -1.0155 -0.2414  0.9869
  129OSM   H14G13842   6.014   3.127   4.861 -1.6453 -0.0534  0.2646
  129OSM   C15F13843   5.936   3.325   4.895 -0.6446 -0.0189 -0.0313
  129OSM   H15F13844   5.840   3.269   4.887 -0.2774 -1.1803  2.7072
  129OSM   H15G13845   5.938   3.407   4.821  0.5414  0.0847  0.0907
  129OSM   C16F13846   5.948   3.376   5.039 -0.1915  0.7954  0.7162
  129OSM   H16F13847   5.862   3.444   5.059  0.6048  2.0365  0.0887
  129OSM   H16G13848   6.038   3.442   5.038  1.8244 -1.6470 -3.0486
  129OSM   C17F13849   5.970   3.275   5.152 -0.5408  0.2060 -0.5087
  129OSM   H17F13850   5.967   3.334   5.247 -2.3943  0.8299 -0.9113
  129OSM   H17G13851   6.066   3.219   5.147 -2.4580 -3.3658 -0.1704
  129OSM   C18F13852   5.857   3.177   5.152  0.8771 -0.0669 -0.2822
  129OSM   H18F13853   5.763   3.227   5.120  1.5692  1.6346  0.2699
  129OSM   H18G13854   5.841   3.137   5.254 -0.4197  1.5079  0.1577
  129OSM   H18H13855   5.871   3.099   5.074 -1.4478 -1.3363  0.4711
  130OSM      N13856   6.989   6.962   3.164  0.3289  0.6543 -0.6357
  130OSM    C1513857   7.035   6.939   3.303  0.3545  0.2712 -0.3204
  130OSM   H15A13858   7.010   7.019   3.372  0.1002  0.0343 -0.1396
  130OSM   H15B13859   7.142   6.923   3.311  1.1407  2.7257 -3.7188
  130OSM   H15C13860   6.980   6.858   3.348 -0.4285  0.8244 -0.2508
  130OSM    C1413861   7.006   6.823   3.096 -0.2678  0.2763  0.6814
  130OSM   H14A13862   6.957   6.735   3.136  1.1406 -1.0380 -0.3517
  130OSM   H14B13863   7.110   6.801   3.076 -0.4917 -0.9026  0.7596
  130OSM   H14C13864   6.977   6.842   2.994 -1.6726  2.0840  1.3657
  130OSM    C1313865   6.842   6.992   3.155  0.2519  0.9090  0.3965
  130OSM   H13A13866   6.838   7.096   3.185  1.5524  0.7446  1.2444
  130OSM   H13B13867   6.779   6.929   3.216  0.8149  2.0306  2.2105
  130OSM   H13C13868   6.802   6.972   3.057  3.1031  1.0908 -0.8970
  130OSM    C1213869   7.070   7.055   3.087 -0.3738 -0.2304 -0.2283
  130OSM   H12A13870   7.172   7.021   3.078  1.0381  3.5956 -0.5176
  130OSM   H12B13871   7.089   7.143   3.146  3.1307  0.0340 -1.5085
  130OSM    C1113872   7.031   7.094   2.943  0.1187 -0.4239  0.0370
  130OSM   H11A13873   7.003   7.000   2.891 -0.0495 -1.7680  2.4570
  130OSM   H11B13874   7.120   7.145   2.899  0.3736  1.2682  2.3290
  130OSM      P13875   6.910   7.327   2.989  0.1319  0.3236 -0.2200
  130OSM    O1313876   6.983   7.408   2.894  0.0998 -0.1827 -0.6863
  130OSM    O1413877   6.764   7.359   3.009 -0.1634  0.2030 -0.0426
  130OSM    O1113878   6.989   7.321   3.123 -0.1415 -0.5319 -0.1483
  130OSM    O1213879   6.911   7.175   2.938 -0.3425 -0.0527  0.5324
  130OSM    C1S13880   6.968   7.426   3.225 -0.1361  1.0223  0.1225
  130OSM    H1S13881   6.874   7.411   3.281 -0.5055 -1.2863 -0.9946
  130OSM    H1T13882   6.946   7.527   3.185 -1.9776  0.2522 -0.9051
  130OSM     NF13883   7.055   7.528   3.433  0.0792 -0.5161  0.4413
  130OSM    HNF13884   7.103   7.615   3.431  1.6064 -1.3275  0.3635
  130OSM    C2S13885   7.084   7.433   3.327  0.4335 -0.0217 -0.5864
  130OSM    H2S13886   7.078   7.335   3.379  1.1758  1.2875  2.1199
  130OSM    C3S13887   7.213   7.457   3.254 -0.1214 -0.8471  0.1680
  130OSM    H3S13888   7.197   7.557   3.208  0.4558 -0.7205  0.2268
  130OSM     O313889   7.229   7.371   3.144 -0.6399  0.4656  0.4278
  130OSM    HO313890   7.146   7.323   3.132 -0.6052 -0.1420  2.2755
  130OSM    C4S13891   7.333   7.455   3.347  0.0772  0.1515 -0.0117
  130OSM    H4S13892   7.345   7.545   3.409  1.9898 -0.5750  0.7460
  130OSM    C5S13893   7.415   7.352   3.375 -0.8543  0.1300  1.2324
  130OSM    H5S13894   7.400   7.261   3.314  1.3843  1.9439 -2.3902
  130OSM    C6S13895   7.521   7.366   3.481 -0.4259 -1.1658 -0.3968
  130OSM    H6S13896   7.556   7.471   3.481 -1.3522 -0.8019 -2.1217
  130OSM    H6T13897   7.610   7.308   3.450  0.0429 -0.1315 -1.0429
  130OSM    C7S13898   7.481   7.302   3.614  0.2738 -0.1446  0.3713
  130OSM    H7S13899   7.569   7.273   3.675  1.4315  2.2410 -0.0393
  130OSM    H7T13900   7.414   7.214   3.604 -0.9381  0.7583  0.3378
  130OSM    C8S13901   7.410   7.404   3.706 -0.1340  0.4715 -0.3315
  130OSM    H8S13902   7.311   7.420   3.658 -0.2840  3.2742  0.7342
  130OSM    H8T13903   7.464   7.498   3.681  0.4626  0.4742  0.8636
  130OSM    C9S13904   7.395   7.363   3.857  0.2044  0.3971 -1.1877
  130OSM    H9S13905   7.498   7.364   3.900 -0.4990 -0.6979  0.6299
  130OSM    H9T13906   7.364   7.257   3.871 -1.7724  1.3144  2.6959
  130OSM   C10S13907   7.314   7.465   3.946  0.6570 -0.1029 -0.0168
  130OSM   H10S13908   7.215   7.479   3.897  0.2924  2.2676  1.2372
  130OSM   H10T13909   7.360   7.565   3.958  0.1878  0.5860 -3.1251
  130OSM   C11S13910   7.300   7.413   4.088  0.7019  1.1317  0.4522
  130OSM   H11S13911   7.299   7.302   4.080  0.8299  1.1146  0.6653
  130OSM   H11T13912   7.211   7.451   4.142 -0.5843 -0.0525 -0.7612
  130OSM   C12S13913   7.418   7.459   4.180 -0.6635  0.3806  0.3377
  130OSM   H12S13914   7.410   7.569   4.174  1.1371  0.5152 -0.1919
  130OSM   H12T13915   7.511   7.428   4.127 -0.5142 -0.3014  0.9873
  130OSM   C13S13916   7.421   7.410   4.336  0.2539  0.2146  0.5665
  130OSM   H13S13917   7.475   7.316   4.358 -0.0385  0.4660  2.5472
  130OSM   H13T13918   7.314   7.410   4.368  0.0167  1.0981 -0.1688
  130OSM   C14S13919   7.494   7.511   4.429  0.7139  0.1176  0.0322
  130OSM   H14S13920   7.476   7.610   4.382 -0.0024 -0.5682 -1.1802
  130OSM   H14T13921   7.600   7.481   4.412 -0.4096 -3.8260 -0.9789
  130OSM   C15S13922   7.448   7.497   4.569  0.5914 -1.0224  0.0244
  130OSM   H15S13923   7.449   7.390   4.598  0.1108 -1.1763 -0.5031
  130OSM   H15T13924   7.343   7.529   4.583  0.0622 -1.0711 -3.0705
  130OSM   C16S13925   7.543   7.579   4.659 -0.4293  0.5584  0.2532
  130OSM   H16S13926   7.575   7.671   4.607 -1.0021  0.0326 -1.0781
  130OSM   H16T13927   7.643   7.536   4.677 -0.9196 -0.5340  0.4508
  130OSM   C17S13928   7.482   7.613   4.795  0.4684 -0.4228 -0.7269
  130OSM   H17S13929   7.388   7.669   4.780  1.2218  1.2077  0.4563
  130OSM   H17T13930   7.537   7.686   4.858 -2.8995 -0.1468  2.2206
  130OSM   C18S13931   7.451   7.488   4.877  0.0586  0.2203 -0.0047
  130OSM   H18S13932   7.351   7.457   4.839  0.5252  0.8316 -1.8413
  130OSM   H18T13933   7.432   7.531   4.978 -1.5169  1.9735 -0.9817
  130OSM   H18U13934   7.531   7.413   4.861 -0.1666  0.1747 -0.9201
  130OSM    C1F13935   6.979   7.506   3.541 -0.3536 -0.1683 -0.1660
  130OSM     OF13936   6.915   7.401   3.541  0.1727 -0.0453  0.2917
  130OSM    C2F13937   6.988   7.606   3.656 -0.2087 -0.5673  0.6321
  130OSM    H2F13938   7.009   7.706   3.611 -2.8954  0.9049  2.4211
  130OSM    H2G13939   7.064   7.569   3.728 -0.0260 -0.5645  0.4430
  130OSM    C3F13940   6.859   7.626   3.734  0.1175  0.8108  0.8609
  130OSM    H3F13941   6.838   7.532   3.789  2.3509 -0.5055 -0.3829
  130OSM    H3G13942   6.782   7.646   3.656  0.7853  0.8186  0.1928
  130OSM    C4F13943   6.862   7.742   3.826  0.9537 -0.5232  0.2288
  130OSM    H4F13944   6.759   7.744   3.868  1.4346 -1.6740  1.5559
  130OSM    H4G13945   6.858   7.836   3.767  1.0521 -0.2958  0.5826
  130OSM    C5F13946   6.980   7.752   3.923 -0.4231  0.5910  0.2727
  130OSM    H5F13947   6.973   7.858   3.953  0.0422  0.2201  1.7887
  130OSM    H5G13948   7.079   7.750   3.874 -0.6604  3.7641 -0.5003
  130OSM    C6F13949   6.959   7.666   4.047 -0.3174  0.1791  0.1221
  130OSM    H6F13950   6.977   7.562   4.014  0.5765  0.9095 -1.8176
  130OSM    H6G13951   6.853   7.687   4.072 -0.7210 -0.1862 -1.2217
  130OSM    C7F13952   7.044   7.701   4.172  0.4190  0.2749  0.0732
  130OSM    H7F13953   7.039   7.811   4.182 -0.2633  0.1134  1.8791
  130OSM    H7G13954   7.151   7.687   4.148  1.2821 -0.5467  3.7602
  130OSM    C8F13955   7.004   7.628   4.299 -0.1257 -0.0178 -0.4606
  130OSM    H8F13956   6.996   7.519   4.280  1.6569 -0.4698  1.0746
  130OSM    H8G13957   6.907   7.667   4.336  0.6877  3.1769 -1.3245
  130OSM    C9F13958   7.098   7.643   4.414  0.2834  0.0533 -0.1825
  130OSM    H9F13959   7.205   7.637   4.387 -0.0568  0.0815 -1.5915
  130OSM   C10F13960   7.063   7.674   4.539 -0.0007  0.1394  0.6129
  130OSM   H10F13961   7.150   7.697   4.602  2.2355  0.6795 -2.4434
  130OSM   C11F13962   6.928   7.689   4.598 -0.0151 -0.5331  0.1471
  130OSM   H11F13963   6.851   7.652   4.526 -1.0724 -0.2263  1.0806
  130OSM   H11G13964   6.895   7.794   4.612  1.4475  0.0781 -0.7966
  130OSM   C12F13965   6.911   7.634   4.740 -0.7765 -0.1925  0.7839
  130OSM   H12F13966   6.922   7.525   4.753 -0.5030 -0.1673  0.7633
  130OSM   H12G13967   6.804   7.661   4.754 -0.7259  0.7836 -0.4207
  130OSM   C13F13968   7.001   7.692   4.849  0.4591 -0.0437  0.5369
  130OSM   H13F13969   7.007   7.802   4.838  1.1136 -0.0789  0.5320
  130OSM   H13G13970   7.107   7.662   4.838  0.0869 -1.0975 -0.2924
  130OSM   C14F13971   6.941   7.652   4.988 -0.2244 -0.4202 -0.0330
  130OSM   H14F13972   6.834   7.674   4.973  0.0441 -0.9865 -3.7184
  130OSM   H14G13973   6.978   7.725   5.064 -0.2819  0.7636 -1.1246
  130OSM   C15F13974   6.966   7.502   5.016  0.1880 -0.2662  0.4268
  130OSM   H15F13975   7.077   7.498   5.020  0.3718  1.1128 -1.7126
  130OSM   H15G13976   6.919   7.440   4.937 -2.4244 -0.3593  1.9466
  130OSM   C16F13977   6.908   7.461   5.153  0.1618 -0.2057 -0.7685
  130OSM   H16F13978   6.932   7.354   5.170  1.3914  0.3484  1.3771
  130OSM   H16G13979   6.799   7.478   5.167  0.5157  0.8067  1.0701
  130OSM   C17F13980   6.976   7.546   5.269 -0.1354  0.0274 -0.4602
  130OSM   H17F13981   6.962   7.656   5.259 -1.0602 -0.0023  0.4442
  130OSM   H17G13982   7.086   7.527   5.266 -0.2666 -1.1405  0.9027
  130OSM   C18F13983   6.926   7.510   5.409 -0.1186  0.2830  0.3310
  130OSM   H18F13984   6.817   7.492   5.406  0.1431 -1.5001  0.5726
  130OSM   H18G13985   6.957   7.576   5.493  1.8185  1.0374 -0.9040
  130OSM   H18H13986   6.966   7.409   5.434  0.4552  0.2923 -0.5130
  131OSM      N13987   3.520   0.379   3.164 -0.7482 -0.1727 -0.7602
  131OSM    C1513988   3.416   0.469   3.221 -0.8148  0.6668  0.8020
  131OSM   H15A13989   3.443   0.569   3.192 -0.7112  0.3749 -0.1618
  131OSM   H15B13990   3.406   0.458   3.328  1.7732  0.4623  1.0847
  131OSM   H15C13991   3.322   0.441   3.174 -0.5412  0.2799  0.4777
  131OSM    C1413992   3.495   0.363   3.019 -0.3155 -0.3938 -0.5430
  131OSM   H14A13993   3.578   0.307   2.979  0.9808 -0.5613  2.1837
  131OSM   H14B13994   3.488   0.454   2.961  1.3464 -0.0657 -0.2770
  131OSM   H14C13995   3.403   0.307   3.010 -0.0085 -1.0959  0.5129
  131OSM    C1313996   3.660   0.438   3.182  0.1595 -0.2035  0.0286
  131OSM   H13A13997   3.666   0.534   3.133  2.7856 -0.0987  0.4074
  131OSM   H13B13998   3.740   0.373   3.150 -0.1127 -1.5118  1.8802
  131OSM   H13C13999   3.672   0.458   3.287 -2.6373  3.5626 -0.1495
  131OSM    C1214000   3.510   0.243   3.238 -0.3459 -0.9765 -0.4086
  131OSM   H12A14001   3.531   0.262   3.343  0.9478 -1.9702 -0.4613
  131OSM   H12B14002   3.594   0.179   3.218  0.4401 -0.3195  0.6354
  131OSM    C1114003   3.371   0.167   3.235 -0.2384 -0.0830 -0.7892
  131OSM   H11A14004   3.283   0.229   3.260 -0.7843 -1.4995  1.0643
  131OSM   H11B14005   3.362   0.087   3.311  0.5483  0.5180 -0.0593
  131OSM      P14006   3.384  -0.017   3.048 -0.0094 -0.2479 -0.1847
  131OSM    O1314007   3.277  -0.063   2.954  0.1208 -0.3404 -0.0948
  131OSM    O1414008   3.518  -0.016   2.982  0.3919  0.5196  0.6751
  131OSM    O1114009   3.376  -0.117   3.172  0.4559  0.0181 -0.3400
  131OSM    O1214010   3.337   0.125   3.104 -0.2615 -0.2831  0.1745
  131OSM    C1S14011   3.486  -0.165   3.245 -0.4582  0.1373 -1.0331
  131OSM    H1S14012   3.572  -0.095   3.238 -1.4196  1.1630 -3.7504
  131OSM    H1T14013   3.517  -0.263   3.204  1.7807 -0.6516  2.1319
  131OSM     NF14014   3.557  -0.260   3.465 -0.4461  0.2246 -0.7570
  131OSM    HNF14015   3.558  -0.357   3.485  0.0956  0.5274  0.7926
  131OSM    C2S14016   3.449  -0.205   3.391  0.6058 -0.4830  0.1668
  131OSM    H2S14017   3.425  -0.105   3.435  0.2095 -0.0353 -1.0276
  131OSM    C3S14018   3.328  -0.305   3.397 -0.1483 -0.0015  0.1619
  131OSM    H3S14019   3.360  -0.404   3.358 -0.8293  0.0019 -0.4294
  131OSM     O314020   3.215  -0.264   3.322  0.7441 -0.3399  0.1397
  131OSM    HO314021   3.258  -0.223   3.246 -1.2719  1.4527 -0.1301
  131OSM    C4S14022   3.295  -0.322   3.541 -0.0126  0.0157  0.0443
  131OSM    H4S14023   3.342  -0.413   3.582 -1.5545 -1.2801 -0.9540
  131OSM    C5S14024   3.215  -0.237   3.614 -0.2614  0.4598  0.5301
  131OSM    H5S14025   3.162  -0.155   3.564  0.1297  0.8537  0.7554
  131OSM    C6S14026   3.176  -0.249   3.760  0.6053  0.0969  0.1100
  131OSM    H6S14027   3.067  -0.268   3.771 -0.1851  1.6344 -3.7017
  131OSM    H6T14028   3.193  -0.149   3.805  0.9969 -0.2734  0.8171
  131OSM    C7S14029   3.263  -0.341   3.845  0.4589 -0.2005  0.0665
  131OSM    H7S14030   3.371  -0.318   3.827  0.5522 -1.5648 -1.3492
  131OSM    H7T14031   3.238  -0.444   3.814  0.3578 -0.8515  2.1504
  131OSM    C8S14032   3.238  -0.334   3.997  0.3807  0.3499  0.6529
  131OSM    H8S14033   3.129  -0.344   4.018  0.3324  0.5595  0.5008
  131OSM    H8T14034   3.265  -0.236   4.043 -1.7530  0.8324  0.9976
  131OSM    C9S14035   3.318  -0.446   4.064  0.6073 -0.9688 -0.5564
  131OSM    H9S14036   3.425  -0.418   4.069  0.4073 -0.2475 -0.2673
  131OSM    H9T14037   3.311  -0.547   4.017  0.5224 -1.3487  0.2577
  131OSM   C10S14038   3.283  -0.458   4.209  0.4964 -0.1377 -0.6654
  131OSM   H10S14039   3.328  -0.551   4.250 -1.8329 -0.4859  1.2969
  131OSM   H10T14040   3.175  -0.481   4.212  0.4237  0.1920  2.4170
  131OSM   C11S14041   3.311  -0.333   4.302  0.5362  0.1113 -1.0414
  131OSM   H11S14042   3.268  -0.249   4.245  0.7534  1.7465  1.0916
  131OSM   H11T14043   3.421  -0.320   4.297  0.9100 -2.7229 -3.7612
  131OSM   C12S14044   3.272  -0.344   4.449 -0.1012  0.8595 -1.0340
  131OSM   H12S14045   3.164  -0.370   4.457 -0.0408  0.8237 -0.2575
  131OSM   H12T14046   3.279  -0.245   4.499  0.8283 -0.1443  0.9464
  131OSM   C13S14047   3.360  -0.443   4.537 -0.3818 -0.2561  0.4459
  131OSM   H13S14048   3.463  -0.430   4.499 -0.8746  0.6661 -0.6331
  131OSM   H13T14049   3.323  -0.546   4.517  0.8004 -0.8305  1.1272
  131OSM   C14S14050   3.355  -0.412   4.689  0.0422  0.2290 -0.0063
  131OSM   H14S14051   3.413  -0.318   4.699  1.4670 -0.6717  0.5173
  131OSM   H14T14052   3.428  -0.483   4.732 -0.0539 -0.5340 -1.0468
  131OSM   C15S14053   3.218  -0.415   4.749  0.6435  1.0050 -0.0448
  131OSM   H15S14054   3.175  -0.517   4.738 -0.2373  1.2308  1.1948
  131OSM   H15T14055   3.164  -0.337   4.692 -2.5691 -0.2650  1.0550
  131OSM   C16S14056   3.217  -0.373   4.897  0.3088  0.1634  0.3749
  131OSM   H16S14057   3.256  -0.272   4.920 -1.8549  0.6216  2.4141
  131OSM   H16T14058   3.277  -0.450   4.950  1.9614 -0.4309 -2.1702
  131OSM   C17S14059   3.069  -0.367   4.961  0.6347 -0.0237  0.5015
  131OSM   H17S14060   3.008  -0.456   4.932  0.6743  0.3362 -0.7301
  131OSM   H17T14061   3.012  -0.278   4.926  1.7963  0.6993  0.4231
  131OSM   C18S14062   3.078  -0.358   5.112  0.0483 -0.2042 -0.0725
  131OSM   H18S14063   3.089  -0.453   5.169  1.3141 -0.2616 -0.3765
  131OSM   H18T14064   2.986  -0.312   5.152  0.3794  0.4713 -0.0710
  131OSM   H18U14065   3.162  -0.291   5.141  0.2765 -0.0335 -1.0891
  131OSM    C1F14066   3.668  -0.187   3.489  0.1732  0.1405 -1.0768
  131OSM     OF14067   3.667  -0.066   3.452  0.0342  0.1634  0.0538
  131OSM    C2F14068   3.789  -0.257   3.552  0.5251 -0.1377 -0.7180
  131OSM    H2F14069   3.784  -0.364   3.525 -2.0909 -0.5347  0.9095
  131OSM    H2G14070   3.755  -0.257   3.658 -1.7829  1.6881 -1.3446
  131OSM    C3F14071   3.915  -0.166   3.541 -0.0331 -0.2504 -0.2060
  131OSM    H3F14072   3.894  -0.079   3.605 -2.0256  0.9600 -2.3536
  131OSM    H3G14073   3.923  -0.117   3.441 -0.6012 -2.6759 -1.5414
  131OSM    C4F14074   4.052  -0.237   3.564  0.5789  0.3411 -0.7153
  131OSM    H4F14075   4.132  -0.160   3.570  1.5163 -0.6838  0.5107
  131OSM    H4G14076   4.064  -0.312   3.483  0.2608 -0.3961 -0.0919
  131OSM    C5F14077   4.078  -0.306   3.713 -0.2381 -0.2950 -0.4002
  131OSM    H5F14078   4.185  -0.336   3.710 -0.7695 -2.6543  1.2976
  131OSM    H5G14079   4.014  -0.396   3.720  1.0562 -1.1601  0.6786
  131OSM    C6F14080   4.048  -0.209   3.825 -0.0512  0.5768  0.0800
  131OSM    H6F14081   3.940  -0.183   3.814  0.2251  1.7808  0.0631
  131OSM    H6G14082   4.097  -0.111   3.810  1.7347  0.7958  5.3274
  131OSM    C7F14083   4.077  -0.261   3.968  0.0887  0.1654 -0.0323
  131OSM    H7F14084   4.183  -0.292   3.967  0.0221 -0.0657 -0.8260
  131OSM    H7G14085   4.013  -0.351   3.978  2.1658 -1.2425  1.4516
  131OSM    C8F14086   4.035  -0.165   4.085 -0.2271 -0.3814 -0.4470
  131OSM    H8F14087   4.054  -0.216   4.182 -1.8671 -3.3526 -1.5861
  131OSM    H8G14088   3.925  -0.150   4.080 -0.1261  1.4654  1.3194
  131OSM    C9F14089   4.114  -0.032   4.083  0.1238  0.4727 -0.1471
  131OSM    H9F14090   4.085   0.035   4.000  0.0894 -0.9542 -1.3383
  131OSM   C10F14091   4.221  -0.006   4.166 -0.3046 -0.5697 -0.2047
  131OSM   H10F14092   4.264   0.096   4.170 -1.7447  0.0210  1.7878
  131OSM   C11F14093   4.274  -0.087   4.281 -0.0510  1.0837  0.9873
  131OSM   H11F14094   4.385  -0.084   4.283 -0.0630  1.3256  2.1951
  131OSM   H11G14095   4.254  -0.195   4.262 -1.5881  1.5986 -0.5860
  131OSM   C12F14096   4.216  -0.057   4.420 -0.2474  0.3106 -0.2249
  131OSM   H12F14097   4.108  -0.083   4.415 -0.3668  0.5972  0.7598
  131OSM   H12G14098   4.238   0.044   4.461  0.1869  0.9716 -2.0013
  131OSM   C13F14099   4.275  -0.150   4.534 -0.5990  0.1162  0.7318
  131OSM   H13F14100   4.384  -0.139   4.519 -0.9619  3.3712 -0.3808
  131OSM   H13G14101   4.251  -0.258   4.521 -1.8815  0.3213  1.1708
  131OSM   C14F14102   4.246  -0.097   4.669 -0.4435 -0.1117  0.3148
  131OSM   H14F14103   4.269   0.011   4.673 -0.9335  0.1277 -1.9550
  131OSM   H14G14104   4.320  -0.141   4.739 -2.0108 -0.8709  1.5783
  131OSM   C15F14105   4.105  -0.130   4.712 -0.0398 -0.5712 -0.3918
  131OSM   H15F14106   4.097  -0.240   4.730  2.3396 -0.4529  2.0765
  131OSM   H15G14107   4.042  -0.102   4.625  0.6571  1.1744 -0.3778
  131OSM   C16F14108   4.048  -0.062   4.846 -0.3520  0.0598 -0.3232
  131OSM   H16F14109   4.106  -0.109   4.928  0.2432  1.3726  0.0311
  131OSM   H16G14110   3.943  -0.090   4.870 -1.7491  3.3366 -2.0439
  131OSM   C17F14111   4.059   0.087   4.853 -0.6497 -0.5050 -0.6201
  131OSM   H17F14112   4.024   0.133   4.758 -0.7042  0.0459 -0.3383
  131OSM   H17G14113   4.166   0.116   4.855 -1.0868  1.2421  1.3177
  131OSM   C18F14114   3.999   0.151   4.980 -0.0571  0.4545 -0.1067
  131OSM   H18F14115   4.041   0.099   5.069  0.0925  0.7175 -0.0227
  131OSM   H18G14116   3.890   0.133   4.980  0.1017 -0.5930  0.0979
  131OSM   H18H14117   4.035   0.255   4.998  5.5698 -1.0643 -0.5950
  132OSM      N14118   2.285   0.773   2.874  0.2463 -0.3409  0.0649
  132OSM    C1514119   2.314   0.709   2.744  0.0703  0.0605 -0.5375
  132OSM   H15A14120   2.229   0.653   2.708 -0.5790  1.1528 -0.7440
  132OSM   H15B14121   2.397   0.642   2.762  0.1704  0.2978 -0.0858
  132OSM   H15C14122   2.341   0.778   2.665  0.0357  2.2613  1.2567
  132OSM    C1414123   2.397   0.870   2.901 -0.3666 -0.4210  0.1631
  132OSM   H14A14124   2.416   0.934   2.816  2.8219  2.8419  3.0489
  132OSM   H14B14125   2.489   0.813   2.908 -1.1135 -1.5798  0.8907
  132OSM   H14C14126   2.378   0.942   2.979  3.5736  2.7563 -1.4278
  132OSM    C1314127   2.160   0.852   2.851 -0.2587 -0.1003 -0.3444
  132OSM   H13A14128   2.122   0.904   2.938  2.8328 -1.3063  1.9404
  132OSM   H13B14129   2.080   0.784   2.828 -0.2563  0.2658 -1.5098
  132OSM   H13C14130   2.183   0.931   2.781  3.2641  0.2965  1.0337
  132OSM    C1214131   2.271   0.677   2.989  0.0373 -0.3872  0.3858
  132OSM   H12A14132   2.199   0.601   2.962 -0.8892  0.4592  0.4075
  132OSM   H12B14133   2.231   0.715   3.081 -0.8180 -1.1966  0.3600
  132OSM    C1114134   2.397   0.596   3.022  1.0603  0.1742 -0.2816
  132OSM   H11A14135   2.451   0.576   2.927  0.0946  0.2824 -0.8632
  132OSM   H11B14136   2.378   0.494   3.062 -1.6544  0.5060 -0.5310
  132OSM      P14137   2.448   0.671   3.275 -0.1119  0.2586  0.1289
  132OSM    O1314138   2.560   0.751   3.329 -0.3292  0.1352 -0.6753
  132OSM    O1414139   2.313   0.715   3.298 -0.1372  0.5889 -0.7792
  132OSM    O1114140   2.460   0.522   3.320 -0.0974 -0.9742 -0.1075
  132OSM    O1214141   2.476   0.668   3.119  0.0278 -0.0700 -0.0919
  132OSM    C1S14142   2.574   0.442   3.301 -0.0834 -0.3696  0.3178
  132OSM    H1S14143   2.665   0.504   3.296  1.2866 -2.3650 -1.1962
  132OSM    H1T14144   2.565   0.382   3.208 -0.8163  1.1255 -0.6130
  132OSM     NF14145   2.737   0.286   3.418 -0.1023  0.1955  0.2690
  132OSM    HNF14146   2.733   0.191   3.391 -1.4469 -0.0739  1.2864
  132OSM    C2S14147   2.614   0.356   3.430 -0.1398 -0.3044 -0.2966
  132OSM    H2S14148   2.624   0.412   3.526  0.4328  0.4700 -0.7995
  132OSM    C3S14149   2.493   0.255   3.444  0.0711 -0.3593  0.0052
  132OSM    H3S14150   2.483   0.191   3.354 -2.1164 -0.2412  0.1107
  132OSM     O314151   2.364   0.324   3.454 -0.2511  0.2786 -0.5691
  132OSM    HO314152   2.388   0.414   3.430  0.9315  0.7672  2.0630
  132OSM    C4S14153   2.511   0.162   3.563 -0.5615 -0.2774  0.0219
  132OSM    H4S14154   2.537   0.062   3.525  2.0828  0.3830 -0.1349
  132OSM    C5S14155   2.474   0.184   3.686  0.4538 -0.3542 -0.0122
  132OSM    H5S14156   2.416   0.276   3.704 -2.1823 -1.1303 -3.6068
  132OSM    C6S14157   2.496   0.089   3.798 -0.0331  1.0384 -0.0130
  132OSM    H6S14158   2.579   0.121   3.864  0.2746 -1.5290  0.9852
  132OSM    H6T14159   2.532  -0.011   3.767  0.3784  0.6259  1.7157
  132OSM    C7S14160   2.370   0.072   3.879  0.0671 -0.0074 -0.3984
  132OSM    H7S14161   2.292   0.015   3.825 -0.2465 -0.5993  0.6479
  132OSM    H7T14162   2.327   0.171   3.907  0.5525  0.1288 -0.1269
  132OSM    C8S14163   2.372  -0.025   4.003  0.0395  0.2696  0.3976
  132OSM    H8S14164   2.449   0.005   4.077 -1.7971  2.4820  1.5018
  132OSM    H8T14165   2.403  -0.122   3.958  1.1798  0.4297  0.8018
  132OSM    C9S14166   2.243  -0.037   4.081  0.2075 -0.3995 -0.0452
  132OSM    H9S14167   2.167  -0.091   4.021 -2.3186 -0.1817  2.7828
  132OSM    H9T14168   2.194   0.058   4.109  1.4922  0.0427  0.8192
  132OSM   C10S14169   2.270  -0.120   4.209 -0.2624 -0.2128 -0.2896
  132OSM   H10S14170   2.343  -0.055   4.263 -2.7170  1.4882  1.1553
  132OSM   H10T14171   2.319  -0.215   4.180  0.9391  0.6426 -1.2053
  132OSM   C11S14172   2.153  -0.131   4.299 -0.1827 -0.1112  0.0021
  132OSM   H11S14173   2.178  -0.196   4.386  1.2019 -0.0835 -0.3536
  132OSM   H11T14174   2.074  -0.180   4.238 -1.5476  0.7926  0.9628
  132OSM   C12S14175   2.111   0.014   4.347 -0.0395 -0.4567  0.3682
  132OSM   H12S14176   2.024   0.041   4.284 -1.1222 -0.3321  1.8695
  132OSM   H12T14177   2.202   0.077   4.345 -1.2101  1.2780 -0.4618
  132OSM   C13S14178   2.059   0.016   4.488 -0.4716  0.9427 -0.0186
  132OSM   H13S14179   1.985  -0.067   4.498 -0.4799  0.7754 -1.3625
  132OSM   H13T14180   2.002   0.110   4.503 -0.7994  0.8603 -0.7017
  132OSM   C14S14181   2.162  -0.015   4.598  0.3166  0.0453  0.0218
  132OSM   H14S14182   2.240   0.064   4.606  0.0661  0.2792  0.2066
  132OSM   H14T14183   2.224  -0.105   4.583 -1.7293 -2.2573  3.8399
  132OSM   C15S14184   2.084  -0.009   4.731  0.1604 -0.3633  0.2841
  132OSM   H15S14185   2.034  -0.109   4.730 -0.8543  0.0622 -2.5470
  132OSM   H15T14186   2.002   0.065   4.743 -0.9166 -1.5060  0.2195
  132OSM   C16S14187   2.179   0.010   4.844  0.5427  0.2015 -0.3121
  132OSM   H16S14188   2.239   0.103   4.830  0.0852  0.7560  1.1427
  132OSM   H16T14189   2.247  -0.077   4.835 -1.0526 -1.0985 -0.1858
  132OSM   C17S14190   2.123   0.015   4.988 -0.2206  1.0142 -0.4372
  132OSM   H17S14191   2.035   0.082   4.999 -2.1867 -1.4735 -0.3472
  132OSM   H17T14192   2.199   0.055   5.060  1.1714 -0.9833 -0.7229
  132OSM   C18S14193   2.090  -0.123   5.045 -0.1477  0.8787 -0.8084
  132OSM   H18S14194   2.040  -0.115   5.144  0.6605 -0.1685 -0.3034
  132OSM   H18T14195   2.180  -0.183   5.067 -1.1307  0.6942  3.5768
  132OSM   H18U14196   2.020  -0.183   4.984 -1.9838 -0.4842  2.3761
  132OSM    C1F14197   2.855   0.352   3.422  0.0678  0.5988 -0.3099
  132OSM     OF14198   2.858   0.474   3.438 -0.0751 -0.4644  0.5124
  132OSM    C2F14199   2.979   0.270   3.417 -0.2570 -0.5479 -0.2095
  132OSM    H2F14200   3.044   0.309   3.335  0.2934  0.2330  0.5861
  132OSM    H2G14201   2.950   0.169   3.381  0.0668 -0.7041 -0.0318
  132OSM    C3F14202   3.062   0.270   3.547  0.3033  0.2315  0.1722
  132OSM    H3F14203   3.110   0.369   3.565  1.9797 -0.4811 -0.1937
  132OSM    H3G14204   3.150   0.204   3.527  1.1912  1.6719 -0.8907
  132OSM    C4F14205   2.978   0.225   3.671  0.5428  1.0545 -0.4287
  132OSM    H4F14206   2.936   0.125   3.651  1.7192  0.5404 -0.3934
  132OSM    H4G14207   2.892   0.296   3.674 -1.5059 -1.1093 -3.2279
  132OSM    C5F14208   3.057   0.223   3.804 -1.0506 -0.0384  0.2565
  132OSM    H5F14209   3.089   0.325   3.834  1.5956 -0.5582 -0.4899
  132OSM    H5G14210   3.148   0.165   3.776 -0.8140 -0.2823  1.4729
  132OSM    C6F14211   2.994   0.126   3.911 -0.1795 -0.8693 -0.3370
  132OSM    H6F14212   2.977   0.027   3.861  1.0227 -0.4770 -1.6051
  132OSM    H6G14213   2.899   0.166   3.952 -0.2644 -2.4342  1.1336
  132OSM    C7F14214   3.084   0.122   4.036  0.0697  0.4915  0.3939
  132OSM    H7F14215   3.174   0.060   4.016 -1.0949 -0.7456 -1.3411
  132OSM    H7G14216   3.039   0.044   4.101  1.2954 -1.2549 -0.7383
  132OSM    C8F14217   3.112   0.253   4.100 -0.3005  0.2557 -0.7162
  132OSM    H8F14218   3.021   0.312   4.125 -0.9297 -0.7803 -0.5000
  132OSM    H8G14219   3.157   0.322   4.025 -1.5484  0.6127 -1.1547
  132OSM    C9F14220   3.194   0.256   4.226 -0.8248 -0.5920 -0.6047
  132OSM    H9F14221   3.300   0.285   4.212 -0.5735 -0.9816  0.4120
  132OSM   C10F14222   3.156   0.223   4.349 -0.5891  0.3444  0.7286
  132OSM   H10F14223   3.224   0.234   4.434  1.5556  3.3688 -1.1843
  132OSM   C11F14224   3.012   0.182   4.385 -0.7850 -0.8229 -0.3002
  132OSM   H11F14225   2.954   0.171   4.291 -0.9814 -3.8111  0.0818
  132OSM   H11G14226   2.960   0.263   4.440 -0.1654 -0.9609  0.5033
  132OSM   C12F14227   3.001   0.054   4.469 -0.1542 -0.0493  0.3703
  132OSM   H12F14228   3.022  -0.023   4.392 -2.2621  0.0941 -0.4358
  132OSM   H12G14229   2.896   0.038   4.502 -0.6918  0.8170 -0.8246
  132OSM   C13F14230   3.100   0.036   4.580 -0.4638 -0.2092 -0.4844
  132OSM   H13F14231   3.205   0.047   4.544  0.9257 -2.5019  2.4500
  132OSM   H13G14232   3.099  -0.066   4.624 -2.2764  0.5264  1.3370
  132OSM   C14F14233   3.076   0.128   4.698 -0.6154 -0.0952 -0.0868
  132OSM   H14F14234   2.967   0.120   4.715 -0.5514 -1.1289 -0.1189
  132OSM   H14G14235   3.096   0.231   4.663  2.3177 -0.7303 -0.5937
  132OSM   C15F14236   3.159   0.096   4.823  0.0197 -0.4649 -0.2274
  132OSM   H15F14237   3.266   0.119   4.808 -0.0354 -0.3308 -0.4102
  132OSM   H15G14238   3.149  -0.013   4.842  1.9380 -0.6253  0.0752
  132OSM   C16F14239   3.105   0.180   4.944 -0.0220 -0.2141  0.4906
  132OSM   H16F14240   2.996   0.157   4.945  0.1184 -1.0161  2.9139
  132OSM   H16G14241   3.130   0.288   4.932 -1.8666  0.3322  1.2637
  132OSM   C17F14242   3.162   0.136   5.078  0.1227 -0.5680 -0.4280
  132OSM   H17F14243   3.271   0.154   5.086 -0.0818  0.1081  1.1546
  132OSM   H17G14244   3.146   0.027   5.090 -0.6662 -0.4035  0.0909
  132OSM   C18F14245   3.090   0.209   5.197 -0.3264  0.2364  0.3754
  132OSM   H18F14246   3.110   0.319   5.195  2.0582 -0.1009  2.0607
  132OSM   H18G14247   3.125   0.178   5.298  0.2240 -0.8588 -0.1383
  132OSM   H18H14248   2.979   0.199   5.197 -0.3609  0.5188  1.1796
  133OSM      N14249   0.057   5.053   2.980  0.0124 -0.8018 -0.1273
  133OSM    C1514250   0.196   5.082   2.918  0.2336 -0.2953 -0.1185
  133OSM   H15A14251   0.199   5.125   2.819  0.3450  0.6954  0.3044
  133OSM   H15B14252   0.260   4.995   2.912  2.3407  1.1531  0.0793
  133OSM   H15C14253   0.238   5.149   2.991  1.0130 -0.1861 -0.6592
  133OSM    C1414254   0.001   5.192   3.003  0.2092 -0.2457 -0.4124
  133OSM   H14A14255   0.072   5.255   3.055  2.2447 -2.4653 -0.3242
  133OSM   H14B14256  -0.086   5.191   3.067  0.0787 -0.2644 -0.5902
  133OSM   H14C14257  -0.013   5.249   2.913  1.2360 -1.0036 -1.0797
  133OSM    C1314258  -0.048   4.984   2.906 -0.9476 -0.0834  0.5709
  133OSM   H13A14259  -0.013   4.887   2.874  0.3343  1.3739 -2.9541
  133OSM   H13B14260  -0.075   5.035   2.814  1.7353 -2.0152 -1.4729
  133OSM   H13C14261  -0.136   4.969   2.967 -0.1007 -1.7682  1.4516
  133OSM    C1214262   0.071   4.974   3.108  0.4188  0.7628 -0.2526
  133OSM   H12A14263   0.112   4.877   3.086  1.4982  1.4033 -1.1463
  133OSM   H12B14264  -0.029   4.963   3.147  0.9965 -1.9854  0.7202
  133OSM    C1114265   0.151   5.020   3.231 -0.4104 -0.1832 -0.7850
  133OSM   H11A14266   0.261   5.028   3.219  0.1815  0.7182  3.6223
  133OSM   H11B14267   0.142   4.941   3.309 -0.6356  1.9270  1.4179
  133OSM      P14268  -0.006   5.165   3.384 -0.5495 -0.3431  0.0809
  133OSM    O1314269  -0.034   5.306   3.416  0.5602  0.7814 -0.6774
  133OSM    O1414270  -0.118   5.082   3.327 -0.5691  0.7102  0.1579
  133OSM    O1114271   0.052   5.100   3.513  0.0891  0.3786 -0.0185
  133OSM    O1214272   0.106   5.150   3.283  0.6720 -0.0636 -0.0542
  133OSM    C1S14273   0.180   5.151   3.569 -0.2455  0.5073 -0.6763
  133OSM    H1S14274   0.191   5.261   3.556  0.2475  0.3989 -1.2526
  133OSM    H1T14275   0.260   5.105   3.507 -0.5093  1.6846 -1.9263
  133OSM     NF14276   0.287   5.167   3.789  0.2839  0.5203 -0.4973
  133OSM    HNF14277   0.360   5.121   3.839  0.4998  0.5906 -0.7408
  133OSM    C2S14278   0.195   5.097   3.712 -0.4272 -0.0373  0.4348
  133OSM    H2S14279   0.102   5.108   3.772 -1.4660 -1.5192 -0.8357
  133OSM    C3S14280   0.224   4.939   3.705 -0.1944  0.1404 -0.1875
  133OSM    H3S14281   0.324   4.928   3.657 -0.5173 -1.1110 -0.6175
  133OSM     O314282   0.138   4.867   3.622  0.4563  0.2156 -0.0747
  133OSM    HO314283   0.081   4.927   3.574 -0.1196 -1.5577 -1.7141
  133OSM    C4S14284   0.231   4.885   3.843 -0.0481  0.1611 -0.3001
  133OSM    H4S14285   0.331   4.886   3.888  0.0476  0.9695 -0.5066
  133OSM    C5S14286   0.129   4.843   3.918 -0.4145 -0.0718  0.4668
  133OSM    H5S14287   0.033   4.840   3.864  0.3634 -2.7251 -0.9672
  133OSM    C6S14288   0.141   4.796   4.062  0.5614  0.3300 -0.3568
  133OSM    H6S14289   0.250   4.779   4.080  0.7001 -0.5376 -1.8251
  133OSM    H6T14290   0.105   4.692   4.077 -0.3704  0.5254 -1.1715
  133OSM    C7S14291   0.092   4.880   4.179  0.3476 -0.2408  0.0787
  133OSM    H7S14292  -0.018   4.869   4.178  0.1590  1.5001 -0.8217
  133OSM    H7T14293   0.113   4.987   4.160  0.1470  0.0575  1.4815
  133OSM    C8S14294   0.147   4.842   4.314 -0.8330 -0.3059  0.3785
  133OSM    H8S14295   0.140   4.932   4.378 -2.2791 -1.1311  1.4302
  133OSM    H8T14296   0.253   4.810   4.303  0.0688  2.0388  1.6362
  133OSM    C9S14297   0.061   4.729   4.386 -0.2164  0.1395 -0.0466
  133OSM    H9S14298   0.062   4.642   4.318  2.4778 -0.1933  0.2989
  133OSM    H9T14299  -0.045   4.762   4.395 -0.6113 -0.9930 -0.3851
  133OSM   C10S14300   0.125   4.696   4.518  0.2104 -0.1535 -0.0893
  133OSM   H10S14301   0.237   4.696   4.514  0.1942 -1.0756 -0.7804
  133OSM   H10T14302   0.101   4.588   4.529 -0.5240 -0.0306 -0.4917
  133OSM   C11S14303   0.080   4.775   4.636  0.4614  0.1652 -0.0913
  133OSM   H11S14304  -0.030   4.772   4.646  0.3527  0.5780 -1.1318
  133OSM   H11T14305   0.114   4.877   4.609 -1.5035  0.4297 -1.7670
  133OSM   C12S14306   0.158   4.729   4.759  0.6689 -0.1030 -0.2797
  133OSM   H12S14307   0.178   4.813   4.829 -0.5571  0.4198 -0.5272
  133OSM   H12T14308   0.262   4.696   4.738  0.3123 -1.4431 -0.0859
  133OSM   C13S14309   0.082   4.614   4.824  0.4486  0.3357  0.3971
  133OSM   H13S14310   0.095   4.530   4.752 -2.6209  0.0462  0.0287
  133OSM   H13T14311  -0.026   4.637   4.814  0.1871  0.9629  3.4859
  133OSM   C14S14312   0.123   4.597   4.966 -0.0509  0.1691  0.2135
  133OSM   H14S14313   0.233   4.589   4.982 -0.0173  1.3828  0.6990
  133OSM   H14T14314   0.076   4.503   5.003  1.1427  0.3007  2.1803
  133OSM   C15S14315   0.062   4.709   5.061 -0.2294  0.2687 -0.2016
  133OSM   H15S14316  -0.043   4.721   5.024 -0.2905  1.0219  0.1811
  133OSM   H15T14317   0.121   4.801   5.042 -0.8593  0.3183 -2.1289
  133OSM   C16S14318   0.083   4.678   5.210 -0.2082  0.4076 -0.0871
  133OSM   H16S14319   0.193   4.664   5.212 -0.0616  1.5599  0.8859
  133OSM   H16T14320   0.028   4.585   5.236 -2.0178  1.2259 -0.8005
  133OSM   C17S14321   0.037   4.788   5.298 -0.3904 -0.8094 -0.4196
  133OSM   H17S14322  -0.072   4.784   5.319  0.1025  1.7921  3.7688
  133OSM   H17T14323   0.045   4.884   5.242 -3.2589  0.0232  0.4047
  133OSM   C18S14324   0.107   4.786   5.433 -0.4131  0.1761 -0.2060
  133OSM   H18S14325   0.065   4.699   5.487 -0.4299  0.4802  0.2798
  133OSM   H18T14326   0.090   4.873   5.499  1.0471  0.3980 -0.0750
  133OSM   H18U14327   0.217   4.780   5.418  0.1774  1.6506  2.8476
  133OSM    C1F14328   0.263   5.294   3.813 -0.9174  0.4026  0.6905
  133OSM     OF14329   0.156   5.346   3.779  0.6678 -0.4841  0.3610
  133OSM    C2F14330   0.371   5.368   3.879  0.0104 -1.0144 -0.2719
  133OSM    H2F14331   0.428   5.430   3.805  0.4014 -1.6566 -0.5173
  133OSM    H2G14332   0.439   5.305   3.939 -0.4479  0.1207  1.5059
  133OSM    C3F14333   0.318   5.465   3.990  0.4525 -0.4458 -0.4494
  133OSM    H3F14334   0.273   5.395   4.064 -0.5064  0.9291  0.3148
  133OSM    H3G14335   0.233   5.526   3.952  0.2794 -0.0326  0.5586
  133OSM    C4F14336   0.419   5.559   4.054  0.2891 -0.5342 -0.0152
  133OSM    H4F14337   0.368   5.628   4.125  0.9098 -1.5634  1.4962
  133OSM    H4G14338   0.461   5.622   3.972  2.0270  1.2884  2.1102
  133OSM    C5F14339   0.528   5.486   4.134  1.4862 -0.6081  0.5666
  133OSM    H5F14340   0.590   5.426   4.063 -2.2723 -1.0315 -2.7242
  133OSM    H5G14341   0.472   5.423   4.206  0.7982  1.6044  2.0450
  133OSM    C6F14342   0.618   5.589   4.206 -0.3218  0.8686  0.1690
  133OSM    H6F14343   0.557   5.671   4.251 -0.7336  0.7864 -0.2321
  133OSM    H6G14344   0.670   5.630   4.117 -1.0130 -1.9966 -1.6745
  133OSM    C7F14345   0.721   5.526   4.302 -0.1404 -0.0657 -0.3015
  133OSM    H7F14346   0.779   5.611   4.342  1.0554 -0.3381 -1.3989
  133OSM    H7G14347   0.760   5.456   4.224 -1.4671  0.5577 -1.5643
  133OSM    C8F14348   0.662   5.445   4.418  0.4702 -0.0191 -0.4122
  133OSM    H8F14349   0.746   5.402   4.476  0.8570  0.1993 -0.8052
  133OSM    H8G14350   0.620   5.365   4.354  1.5406 -0.5122 -0.5223
  133OSM    C9F14351   0.558   5.511   4.513  0.5961  0.1961  0.7730
  133OSM    H9F14352   0.461   5.539   4.471  1.2435 -1.1114 -1.8402
  133OSM   C10F14353   0.578   5.553   4.638 -0.2112 -0.5924  0.1354
  133OSM   H10F14354   0.504   5.613   4.694  1.1746  0.2895  1.0984
  133OSM   C11F14355   0.704   5.540   4.711 -0.0878 -0.2317  0.0453
  133OSM   H11F14356   0.739   5.639   4.748 -0.2576 -0.2084  0.1474
  133OSM   H11G14357   0.783   5.490   4.652  1.0908 -0.9809  2.1332
  133OSM   C12F14358   0.675   5.441   4.833  0.8896  0.1456 -0.0937
  133OSM   H12F14359   0.781   5.411   4.852  1.7941  0.4789 -3.7404
  133OSM   H12G14360   0.619   5.347   4.813  0.6148  0.1458  0.6554
  133OSM   C13F14361   0.621   5.507   4.965 -0.2477  0.6715 -0.1131
  133OSM   H13F14362   0.535   5.575   4.947 -1.8399 -1.3787 -0.5554
  133OSM   H13G14363   0.699   5.577   5.003 -1.8496  1.4166  1.9840
  133OSM   C14F14364   0.579   5.404   5.068 -0.7471 -0.8806  1.1725
  133OSM   H14F14365   0.530   5.318   5.017 -2.4389  1.1442 -0.8619
  133OSM   H14G14366   0.504   5.452   5.134 -1.5923  0.0220 -0.3797
  133OSM   C15F14367   0.699   5.363   5.151  0.3833 -0.8983  0.1045
  133OSM   H15F14368   0.746   5.453   5.196 -1.2730  0.1064 -0.1049
  133OSM   H15G14369   0.767   5.306   5.085 -1.3862 -0.2579 -2.4395
  133OSM   C16F14370   0.676   5.268   5.272  0.7459  0.0459  0.2260
  133OSM   H16F14371   0.643   5.169   5.235 -1.8742  0.4922  1.1751
  133OSM   H16G14372   0.586   5.304   5.325  0.5677 -0.9638  0.6284
  133OSM   C17F14373   0.803   5.268   5.353  0.3820  0.6960  0.4410
  133OSM   H17F14374   0.843   5.371   5.361 -1.5501  1.4883  0.4460
  133OSM   H17G14375   0.884   5.211   5.301 -0.3434  0.5061 -0.5186
  133OSM   C18F14376   0.784   5.216   5.494  0.8320 -0.0903  0.7031
  133OSM   H18F14377   0.752   5.110   5.491  2.0742 -0.4638 -2.2386
  133OSM   H18G14378   0.712   5.283   5.545 -0.9199 -1.8600  0.6904
  133OSM   H18H14379   0.879   5.226   5.550  1.1175 -0.2470  0.2492
  134OSM      N14380   1.810   2.687   3.038  0.5430  0.7062  0.4579
  134OSM    C1514381   1.904   2.565   3.052 -0.0761 -0.3593  0.7658
  134OSM   H15A14382   1.851   2.472   3.040 -2.5641  1.4104 -5.0456
  134OSM   H15B14383   1.954   2.562   3.149 -0.6742 -0.6600  1.0706
  134OSM   H15C14384   1.969   2.576   2.967 -0.3081 -0.0814  0.6228
  134OSM    C1414385   1.765   2.688   2.895  0.4296  0.0192 -0.0738
  134OSM   H14A14386   1.675   2.744   2.875 -0.4739 -2.5318 -4.5964
  134OSM   H14B14387   1.738   2.586   2.873 -0.2722  0.4860 -1.4315
  134OSM   H14C14388   1.845   2.712   2.826 -0.5526  0.6752 -1.0000
  134OSM    C1314389   1.697   2.653   3.134 -0.6836  0.4491 -0.1459
  134OSM   H13A14390   1.617   2.726   3.132 -1.9097 -0.7653  1.5186
  134OSM   H13B14391   1.733   2.653   3.236 -3.3774  0.0303  0.8975
  134OSM   H13C14392   1.656   2.557   3.105  0.9595  0.6324 -3.5003
  134OSM    C1214393   1.875   2.817   3.076  0.4896  0.3208  1.0578
  134OSM   H12A14394   1.873   2.875   2.985  0.3434 -0.4591  0.5502
  134OSM   H12B14395   1.981   2.799   3.064  0.0775 -1.0924 -1.4262
  134OSM    C1114396   1.839   2.891   3.210  0.1522  0.4410 -0.2690
  134OSM   H11A14397   1.904   2.981   3.215 -1.3092  1.4424  1.5397
  134OSM   H11B14398   1.855   2.832   3.302 -0.8838  2.7007  1.4506
  134OSM      P14399   1.667   3.076   3.129 -0.6162  0.3004 -0.0335
  134OSM    O1314400   1.740   3.094   3.002  0.2191  0.4915  0.6467
  134OSM    O1414401   1.523   3.089   3.127 -0.3039  0.1231  0.1113
  134OSM    O1114402   1.727   3.174   3.235  0.1997  0.4847 -0.7292
  134OSM    O1214403   1.706   2.926   3.190  0.0910 -0.0186  0.3033
  134OSM    C1S14404   1.664   3.219   3.357 -0.3776  0.0124  1.0572
  134OSM    H1S14405   1.563   3.178   3.375 -0.7275 -0.1078 -1.0191
  134OSM    H1T14406   1.653   3.330   3.350 -1.1474 -0.1062  0.3700
  134OSM     NF14407   1.683   3.184   3.600 -0.5127  0.5637  0.6862
  134OSM    HNF14408   1.678   3.275   3.641  2.7721  1.5654 -0.7589
  134OSM    C2S14409   1.757   3.180   3.475 -0.3864 -0.4715  0.1143
  134OSM    H2S14410   1.795   3.077   3.460  1.0222 -0.0877  0.9079
  134OSM    C3S14411   1.875   3.278   3.467 -0.6841  0.2426 -0.2535
  134OSM    H3S14412   1.841   3.380   3.495  2.7432  1.0727  1.4321
  134OSM     O314413   1.942   3.276   3.340 -0.1189  0.8452 -0.2812
  134OSM    HO314414   1.865   3.252   3.289  0.6046  0.6330 -1.2943
  134OSM    C4S14415   1.979   3.249   3.579  0.7926  0.4857 -0.2588
  134OSM    H4S14416   1.943   3.282   3.677 -2.0970 -0.8769 -0.7645
  134OSM    C5S14417   2.099   3.182   3.559  0.2971  0.2128  0.6120
  134OSM    H5S14418   2.117   3.132   3.463 -0.2316  2.8900 -0.9890
  134OSM    C6S14419   2.197   3.148   3.666  0.4070  0.5633 -0.1965
  134OSM    H6S14420   2.304   3.151   3.637  0.0271 -0.3737 -1.7549
  134OSM    H6T14421   2.187   3.042   3.699 -0.0372  0.0185 -1.9995
  134OSM    C7S14422   2.186   3.239   3.790  0.3527 -0.1317 -0.0150
  134OSM    H7S14423   2.089   3.220   3.841 -0.2063 -0.3606 -1.1364
  134OSM    H7T14424   2.189   3.346   3.761 -0.0408 -0.1982 -0.3159
  134OSM    C8S14425   2.304   3.231   3.888  0.1995 -0.3964 -0.2108
  134OSM    H8S14426   2.287   3.314   3.959  0.0761  0.8421 -1.6462
  134OSM    H8T14427   2.399   3.253   3.834  0.3545 -0.0849  0.1842
  134OSM    C9S14428   2.320   3.095   3.952 -0.0668  0.0272 -0.2283
  134OSM    H9S14429   2.365   3.024   3.880  0.0624 -1.9611  1.7014
  134OSM    H9T14430   2.220   3.053   3.977  0.5430 -0.2624  1.9557
  134OSM   C10S14431   2.414   3.098   4.076 -0.0953 -0.0732  0.6631
  134OSM   H10S14432   2.357   3.155   4.152 -0.1091 -0.1379  0.7007
  134OSM   H10T14433   2.514   3.134   4.043 -0.3260 -0.2196 -0.2241
  134OSM   C11S14434   2.441   2.956   4.122 -0.4848  0.3993 -0.7696
  134OSM   H11S14435   2.535   2.970   4.180 -0.6431  1.0962 -0.6657
  134OSM   H11T14436   2.469   2.898   4.032 -0.2508  1.3702 -1.3432
  134OSM   C12S14437   2.330   2.888   4.200  0.4959  0.0788 -0.4004
  134OSM   H12S14438   2.235   2.911   4.146 -1.5845  0.8553  3.2310
  134OSM   H12T14439   2.310   2.933   4.300  0.4037 -2.6325  0.8775
  134OSM   C13S14440   2.346   2.743   4.234 -0.0219  0.3382 -0.3714
  134OSM   H13S14441   2.349   2.683   4.141  3.4088  0.7325 -0.6354
  134OSM   H13T14442   2.264   2.702   4.296 -0.0501 -2.1288 -1.9110
  134OSM   C14S14443   2.475   2.727   4.311  0.2752 -0.2390 -0.2472
  134OSM   H14S14444   2.473   2.790   4.402 -0.7829 -0.6329  0.0226
  134OSM   H14T14445   2.562   2.769   4.257 -0.0946  0.8614 -0.0006
  134OSM   C15S14446   2.504   2.594   4.365 -0.4704 -0.1049 -0.2897
  134OSM   H15S14447   2.502   2.522   4.282 -1.6591 -0.3139 -0.0881
  134OSM   H15T14448   2.425   2.561   4.436 -0.0056  0.0446  0.3124
  134OSM   C16S14449   2.647   2.580   4.429 -0.2272  0.2718 -0.2509
  134OSM   H16S14450   2.668   2.668   4.494 -0.6896  0.0691  0.1823
  134OSM   H16T14451   2.722   2.578   4.347 -0.7884 -0.0988 -0.7674
  134OSM   C17S14452   2.654   2.451   4.506 -0.6579 -0.0307 -0.3549
  134OSM   H17S14453   2.660   2.373   4.427 -0.0472  1.4005 -1.7840
  134OSM   H17T14454   2.562   2.443   4.569  0.0691 -0.0917  0.7127
  134OSM   C18S14455   2.783   2.433   4.590 -0.5897 -0.5034  0.5577
  134OSM   H18S14456   2.802   2.522   4.654  0.6705 -0.6136  0.3664
  134OSM   H18T14457   2.867   2.423   4.517  0.1670  0.2117  1.3106
  134OSM   H18U14458   2.786   2.345   4.657 -1.4541 -2.0927 -1.3910
  134OSM    C1F14459   1.592   3.091   3.623 -0.1434  0.3088 -0.4378
  134OSM     OF14460   1.581   2.985   3.558 -0.5698  0.5768 -0.0988
  134OSM    C2F14461   1.503   3.133   3.737 -0.7860 -0.3018  0.2912
  134OSM    H2F14462   1.444   3.220   3.703 -0.0670 -0.1780 -0.6617
  134OSM    H2G14463   1.570   3.157   3.823  1.2804 -1.3945 -0.9329
  134OSM    C3F14464   1.404   3.018   3.780  0.9486  0.3333  0.5652
  134OSM    H3F14465   1.471   2.938   3.818  0.0718  0.1660  1.7850
  134OSM    H3G14466   1.343   2.982   3.694  1.8509 -1.2371  0.5400
  134OSM    C4F14467   1.310   3.060   3.893  0.5293  0.8478 -0.5989
  134OSM    H4F14468   1.251   3.147   3.859 -2.4848 -0.3417  1.1579
  134OSM    H4G14469   1.377   3.093   3.976 -0.2810 -0.6129  0.6897
  134OSM    C5F14470   1.209   2.946   3.924 -0.3253  0.2177  0.4161
  134OSM    H5F14471   1.165   2.916   3.827  1.1921 -3.6927  0.7482
  134OSM    H5G14472   1.126   2.988   3.985 -0.7331  0.2264 -0.1397
  134OSM    C6F14473   1.262   2.805   3.964 -0.7183  0.8451 -0.1042
  134OSM    H6F14474   1.331   2.768   3.885 -1.1642 -3.7185  1.3862
  134OSM    H6G14475   1.173   2.739   3.969 -2.5760  3.2708  2.0729
  134OSM    C7F14476   1.331   2.806   4.104 -0.4867 -0.9492  0.2721
  134OSM    H7F14477   1.264   2.873   4.163  0.8102 -1.2855  2.2085
  134OSM    H7G14478   1.433   2.850   4.107 -1.2602  1.0173 -0.2864
  134OSM    C8F14479   1.343   2.667   4.166 -0.3517 -0.7430 -0.0804
  134OSM    H8F14480   1.439   2.661   4.220 -0.3678  0.0705  0.0417
  134OSM    H8G14481   1.362   2.591   4.087 -0.3528  0.8209 -1.6644
  134OSM    C9F14482   1.235   2.620   4.255 -0.1926  0.3204 -0.0243
  134OSM    H9F14483   1.153   2.578   4.195  0.2059 -1.2148  0.4557
  134OSM   C10F14484   1.226   2.607   4.390  0.4860  0.3519  0.1610
  134OSM   H10F14485   1.128   2.585   4.434  0.0597  0.6385 -0.6410
  134OSM   C11F14486   1.342   2.637   4.482  0.1587  0.4620  0.0837
  134OSM   H11F14487   1.332   2.742   4.518 -1.5902  1.1978 -2.2735
  134OSM   H11G14488   1.437   2.618   4.428 -1.2779 -1.5834 -1.9179
  134OSM   C12F14489   1.338   2.540   4.609 -0.2049 -0.1872  0.0999
  134OSM   H12F14490   1.385   2.447   4.570 -2.3582 -1.1988 -0.2215
  134OSM   H12G14491   1.233   2.529   4.643  0.4780  0.9645  2.9427
  134OSM   C13F14492   1.421   2.593   4.724  1.6322  0.5906  0.4411
  134OSM   H13F14493   1.389   2.699   4.732 -0.4259  0.1435 -1.0762
  134OSM   H13G14494   1.526   2.581   4.687  1.1566  0.4691 -0.9186
  134OSM   C14F14495   1.402   2.515   4.859  0.7558  0.1423  0.2776
  134OSM   H14F14496   1.498   2.506   4.914  0.8842  3.2437  0.7460
  134OSM   H14G14497   1.365   2.412   4.842  2.0008 -0.0381 -1.6038
  134OSM   C15F14498   1.292   2.572   4.947 -0.3546 -0.2897  0.1452
  134OSM   H15F14499   1.192   2.529   4.923 -0.9422  0.8730  0.4347
  134OSM   H15G14500   1.284   2.683   4.945 -3.2156 -0.3728  1.4627
  134OSM   C16F14501   1.310   2.545   5.100 -0.6753 -0.1488 -0.4161
  134OSM   H16F14502   1.415   2.574   5.124 -0.5630  2.2610 -3.2324
  134OSM   H16G14503   1.303   2.437   5.124  1.7128  0.2642  2.8099
  134OSM   C17F14504   1.222   2.623   5.194 -0.5543 -0.7497 -0.3257
  134OSM   H17F14505   1.228   2.734   5.194  3.8396 -0.8049 -2.2498
  134OSM   H17G14506   1.229   2.606   5.303  0.4539  1.1258 -0.0563
  134OSM   C18F14507   1.071   2.594   5.164 -0.6473  0.0717 -0.3725
  134OSM   H18F14508   1.055   2.484   5.155  5.3777 -1.2339  0.6527
  134OSM   H18G14509   1.040   2.649   5.073  1.5999 -1.0551 -1.9027
  134OSM   H18H14510   1.007   2.627   5.249 -0.1613 -1.5014  0.6655
  135OSM      N14511   4.292   1.473   2.910 -1.0593  0.6093 -0.4086
  135OSM    C1514512   4.351   1.581   2.821 -0.1111 -0.4317 -0.8055
  135OSM   H15A14513   4.318   1.582   2.718  1.1791 -0.4643 -1.2380
  135OSM   H15B14514   4.459   1.574   2.825 -0.2267 -1.9092  0.4303
  135OSM   H15C14515   4.310   1.678   2.847  1.1060  0.1290 -0.9029
  135OSM    C1414516   4.332   1.499   3.051 -0.7842 -0.6441  0.7739
  135OSM   H14A14517   4.302   1.413   3.109 -0.7902 -1.0315  0.2004
  135OSM   H14B14518   4.287   1.587   3.094 -0.6778 -0.3035  0.2010
  135OSM   H14C14519   4.437   1.519   3.063 -1.2864  2.5774  0.8368
  135OSM    C1314520   4.145   1.480   2.892 -0.0304 -0.3405 -0.2096
  135OSM   H13A14521   4.102   1.397   2.946  0.2246 -0.7254 -0.5937
  135OSM   H13B14522   4.127   1.459   2.787 -2.8756  0.6277  0.0027
  135OSM   H13C14523   4.105   1.573   2.930 -1.9197 -0.0398 -2.6723
  135OSM    C1214524   4.346   1.339   2.874 -0.1345 -0.1694  0.3246
  135OSM   H12A14525   4.454   1.337   2.865 -0.2445 -1.3401 -0.9506
  135OSM   H12B14526   4.316   1.319   2.773  0.9233  0.6662 -0.1674
  135OSM    C1114527   4.301   1.214   2.968  0.1883  0.2724  0.4633
  135OSM   H11A14528   4.326   1.119   2.915  2.8761  0.5125  1.1502
  135OSM   H11B14529   4.193   1.216   2.989 -0.5773 -0.9381 -2.6978
  135OSM      P14530   4.523   1.185   3.106  0.2159  0.5195 -0.2973
  135OSM    O1314531   4.548   1.044   3.130  0.7388  0.3320 -0.5464
  135OSM    O1414532   4.586   1.251   2.988 -0.5542  0.6105  0.1597
  135OSM    O1114533   4.565   1.265   3.235 -0.2132 -0.1942  0.0241
  135OSM    O1214534   4.366   1.215   3.094 -0.0124  0.7780 -0.5076
  135OSM    C1S14535   4.494   1.247   3.356  0.6624 -0.1220 -0.1241
  135OSM    H1S14536   4.484   1.138   3.377  2.4957 -0.6552 -1.7016
  135OSM    H1T14537   4.395   1.297   3.355  1.5310  1.6652 -0.8580
  135OSM     NF14538   4.522   1.262   3.605 -0.0458  0.1322 -0.1624
  135OSM    HNF14539   4.453   1.320   3.648 -0.9579 -1.4913  0.6879
  135OSM    C2S14540   4.573   1.309   3.473 -0.5960  0.0497 -0.9508
  135OSM    H2S14541   4.678   1.278   3.460  0.3219  2.1863  0.6038
  135OSM    C3S14542   4.576   1.463   3.454 -0.3375 -0.4890 -0.3802
  135OSM    H3S14543   4.470   1.496   3.447 -0.1013  0.9828  1.7781
  135OSM     O314544   4.645   1.493   3.336 -0.4880  0.0905 -0.0364
  135OSM    HO314545   4.635   1.415   3.281 -0.0720  0.2448 -0.3427
  135OSM    C4S14546   4.630   1.550   3.568 -0.2670  0.3284 -0.4168
  135OSM    H4S14547   4.739   1.548   3.573 -0.3112  0.6511  1.4431
  135OSM    C5S14548   4.563   1.615   3.663  0.1131  0.3008  0.0921
  135OSM    H5S14549   4.454   1.630   3.668  0.5042  3.4925  2.0487
  135OSM    C6S14550   4.624   1.694   3.777  0.1743  0.4556 -0.0513
  135OSM    H6S14551   4.573   1.793   3.774  0.5130  0.6077 -1.0576
  135OSM    H6T14552   4.735   1.705   3.772  0.2671  0.5134  1.5406
  135OSM    C7S14553   4.599   1.620   3.901 -0.4615 -0.1776  0.2105
  135OSM    H7S14554   4.490   1.604   3.919 -0.4235 -0.9851 -0.2005
  135OSM    H7T14555   4.638   1.683   3.983  1.0399  1.2169 -1.4874
  135OSM    C8S14556   4.664   1.484   3.913  0.2436  0.0872 -0.6898
  135OSM    H8S14557   4.775   1.487   3.903  0.1390  1.9147 -1.7247
  135OSM    H8T14558   4.618   1.421   3.834 -1.8940 -0.1447  0.6666
  135OSM    C9S14559   4.632   1.425   4.055  0.2089  0.3239 -0.2729
  135OSM    H9S14560   4.524   1.400   4.057  0.1975  0.3898  0.9430
  135OSM    H9T14561   4.652   1.498   4.136  1.5166 -0.2832 -0.0124
  135OSM   C10S14562   4.705   1.293   4.077 -0.0204 -0.1000  0.3776
  135OSM   H10S14563   4.809   1.306   4.041 -1.0885  1.9155 -2.2818
  135OSM   H10T14564   4.670   1.221   4.000  2.4955 -3.0727  1.7378
  135OSM   C11S14565   4.681   1.216   4.207  0.5678  0.0861  0.4001
  135OSM   H11S14566   4.765   1.143   4.214 -1.0189 -1.6796  2.5649
  135OSM   H11T14567   4.580   1.171   4.206  0.3479  0.5533  1.1975
  135OSM   C12S14568   4.672   1.301   4.332 -0.0391 -0.4317  0.0280
  135OSM   H12S14569   4.582   1.366   4.337  0.2544 -0.0945  2.3016
  135OSM   H12T14570   4.761   1.366   4.338  0.0706 -0.5863  0.0996
  135OSM   C13S14571   4.668   1.213   4.458 -0.2680 -0.2563 -0.3934
  135OSM   H13S14572   4.769   1.168   4.469 -0.5936 -0.8411  0.3216
  135OSM   H13T14573   4.602   1.124   4.454  0.3788 -0.9753  2.4792
  135OSM   C14S14574   4.639   1.308   4.574 -0.5927  0.5589  0.1567
  135OSM   H14S14575   4.547   1.369   4.556 -1.5073  0.1917  3.0458
  135OSM   H14T14576   4.719   1.385   4.565  1.8727 -1.9603 -0.6801
  135OSM   C15S14577   4.615   1.234   4.705 -0.0389  0.1339  0.0717
  135OSM   H15S14578   4.711   1.188   4.735 -0.7699 -1.0088  0.7121
  135OSM   H15T14579   4.543   1.153   4.678 -0.1426  1.4654 -4.5894
  135OSM   C16S14580   4.553   1.320   4.813 -0.3896 -0.7632 -0.2760
  135OSM   H16S14581   4.529   1.254   4.899  1.4748 -0.0380  0.8612
  135OSM   H16T14582   4.463   1.369   4.770  1.4010  2.9212 -0.2507
  135OSM   C17S14583   4.664   1.418   4.850  0.0309 -0.7026  0.4516
  135OSM   H17S14584   4.689   1.483   4.764  1.0751  0.9427  1.9217
  135OSM   H17T14585   4.756   1.356   4.863  1.7004  1.6163  0.2373
  135OSM   C18S14586   4.642   1.504   4.970 -0.4239 -0.6508 -0.7398
  135OSM   H18S14587   4.579   1.594   4.954 -1.2970 -1.5115 -2.3699
  135OSM   H18T14588   4.737   1.532   5.021 -0.2383 -0.4694 -1.1770
  135OSM   H18U14589   4.583   1.438   5.036 -1.0025 -0.2165 -0.8105
  135OSM    C1F14590   4.545   1.134   3.639 -0.6108 -0.1070 -0.7998
  135OSM     OF14591   4.610   1.069   3.565 -0.5622  0.2492  0.1075
  135OSM    C2F14592   4.469   1.077   3.756 -0.8377 -0.2936  0.3527
  135OSM    H2F14593   4.365   1.064   3.721 -0.5947 -0.7609 -0.2110
  135OSM    H2G14594   4.474   1.155   3.835 -2.0984  0.3351 -0.1618
  135OSM    C3F14595   4.510   0.951   3.820  0.0831  0.2645  0.2004
  135OSM    H3F14596   4.603   0.966   3.880 -1.1027  1.0648  1.9415
  135OSM    H3G14597   4.543   0.877   3.744 -0.8985  1.7006 -1.6849
  135OSM    C4F14598   4.416   0.885   3.923  0.0587  0.0393 -0.3856
  135OSM    H4F14599   4.451   0.782   3.950 -0.3562 -0.2380 -0.8863
  135OSM    H4G14600   4.310   0.882   3.891 -0.5256  4.5300  0.5054
  135OSM    C5F14601   4.426   0.961   4.053 -0.0988  0.1356 -0.1222
  135OSM    H5F14602   4.394   1.061   4.016 -0.5363 -0.5237 -1.5975
  135OSM    H5G14603   4.534   0.961   4.080 -0.0208  2.8476 -0.1369
  135OSM    C6F14604   4.325   0.907   4.165  0.7384  0.1421  0.0464
  135OSM    H6F14605   4.367   0.811   4.203  1.1600 -0.8507 -2.6935
  135OSM    H6G14606   4.229   0.893   4.111  0.0775  1.4429  0.8374
  135OSM    C7F14607   4.312   1.015   4.269  0.0937  0.8546  0.0214
  135OSM    H7F14608   4.294   1.113   4.221  1.1602  1.1226  0.1408
  135OSM    H7G14609   4.413   1.023   4.315 -0.2510  1.6693  0.6460
  135OSM    C8F14610   4.201   0.987   4.382 -0.3141 -1.2732  0.5063
  135OSM    H8F14611   4.109   0.946   4.335 -0.4885  1.4820 -1.8770
  135OSM    H8G14612   4.179   1.089   4.421  2.8666 -0.6450  0.9183
  135OSM    C9F14613   4.256   0.903   4.500 -0.3750 -0.5704 -0.2663
  135OSM    H9F14614   4.272   0.796   4.478  0.6295 -0.4316 -0.2346
  135OSM   C10F14615   4.267   0.943   4.627 -0.2668 -0.0973 -0.1693
  135OSM   H10F14616   4.304   0.859   4.688  1.0317 -0.5621 -1.5207
  135OSM   C11F14617   4.246   1.073   4.697  0.5990  0.2403  0.1529
  135OSM   H11F14618   4.280   1.151   4.627 -1.1223 -0.0187 -1.0376
  135OSM   H11G14619   4.302   1.084   4.792  0.7017 -1.3176  0.3018
  135OSM   C12F14620   4.099   1.094   4.732 -0.1731  0.0796 -0.3652
  135OSM   H12F14621   4.058   1.000   4.774 -1.4176  0.8937  0.3064
  135OSM   H12G14622   4.043   1.118   4.639 -2.3169  1.7071  1.2463
  135OSM   C13F14623   4.082   1.216   4.822 -0.0136 -0.2209  0.7781
  135OSM   H13F14624   4.118   1.309   4.772  0.4358 -1.1586 -0.6879
  135OSM   H13G14625   4.155   1.212   4.906  2.7734 -0.1839 -1.4983
  135OSM   C14F14626   3.941   1.228   4.887 -0.6598  0.0718 -0.1645
  135OSM   H14F14627   3.911   1.136   4.941  1.7331 -2.1222 -2.2727
  135OSM   H14G14628   3.877   1.213   4.798  0.5348 -2.3352 -0.6862
  135OSM   C15F14629   3.920   1.359   4.968 -0.6751  0.7440 -0.0393
  135OSM   H15F14630   3.937   1.455   4.915  1.7699  0.0141 -0.6963
  135OSM   H15G14631   3.980   1.357   5.062 -3.2362  0.9146  1.7189
  135OSM   C16F14632   3.779   1.346   5.032  0.1940  0.0321 -0.5135
  135OSM   H16F14633   3.777   1.252   5.091 -0.0700  0.5587  0.3382
  135OSM   H16G14634   3.701   1.337   4.952  0.7154  0.3920 -1.0684
  135OSM   C17F14635   3.742   1.459   5.122 -0.3068  0.3148  0.1458
  135OSM   H17F14636   3.753   1.557   5.072  3.0938 -0.9891 -1.9980
  135OSM   H17G14637   3.811   1.454   5.208  0.1399 -1.9397 -0.2844
  135OSM   C18F14638   3.604   1.447   5.188 -0.3591 -0.0939 -0.1815
  135OSM   H18F14639   3.604   1.510   5.279 -1.4996  1.2465 -1.0724
  135OSM   H18G14640   3.597   1.340   5.218  2.6288 -0.0836  0.8192
  135OSM   H18H14641   3.524   1.480   5.118  0.5635  1.9251 -0.3372
  136OSM      N14642   6.907   2.246   2.445 -0.0793  0.2115 -0.3555
  136OSM    C1514643   7.029   2.168   2.414 -1.1280  0.0634 -0.1967
  136OSM   H15A14644   7.118   2.221   2.444 -0.5087 -1.2371  0.3797
  136OSM   H15B14645   7.055   2.148   2.311  1.9180 -0.4640  0.5739
  136OSM   H15C14646   7.032   2.072   2.463 -0.5814 -1.0359 -2.2624
  136OSM    C1414647   6.906   2.365   2.363  0.1842  0.0244  0.3255
  136OSM   H14A14648   6.918   2.316   2.268 -1.9226  1.8711 -0.9813
  136OSM   H14B14649   6.985   2.436   2.384  2.0742 -1.6772 -0.7635
  136OSM   H14C14650   6.815   2.424   2.366  0.1792  0.1159 -0.9984
  136OSM    C1314651   6.794   2.151   2.417 -0.1817  0.3184  0.0782
  136OSM   H13A14652   6.791   2.136   2.310 -0.9596 -2.0261  0.3684
  136OSM   H13B14653   6.698   2.196   2.440  1.3214  2.5783  2.5868
  136OSM   H13C14654   6.800   2.058   2.473  0.0729  0.3413  0.0899
  136OSM    C1214655   6.900   2.283   2.588  0.1061  0.3012 -0.5912
  136OSM   H12A14656   6.991   2.334   2.616  0.8303 -1.0680 -0.3644
  136OSM   H12B14657   6.901   2.193   2.647  1.3355 -0.5434 -1.8713
  136OSM    C1114658   6.787   2.377   2.630  0.6109  0.9504  0.4074
  136OSM   H11A14659   6.754   2.431   2.539 -0.5980 -0.1631  0.1453
  136OSM   H11B14660   6.799   2.458   2.705 -0.9523  1.8983 -0.3079
  136OSM      P14661   6.565   2.331   2.773  0.0617  0.4355 -0.3447
  136OSM    O1314662   6.538   2.474   2.747 -0.8493 -0.8774 -0.2949
  136OSM    O1414663   6.450   2.236   2.780  0.3340 -0.3053  0.1985
  136OSM    O1114664   6.640   2.318   2.909 -0.2441 -0.1880 -0.0875
  136OSM    O1214665   6.685   2.286   2.673  0.5684 -0.5046 -0.8598
  136OSM    C1S14666   6.589   2.381   3.028  0.2209 -0.1119 -0.1797
  136OSM    H1S14667   6.485   2.348   3.047 -0.1684  1.8293  1.4094
  136OSM    H1T14668   6.598   2.491   3.021  0.3133 -0.1523 -0.7337
  136OSM     NF14669   6.583   2.369   3.278 -0.1753  0.6258  0.0602
  136OSM    HNF14670   6.599   2.455   3.326 -3.2492 -0.0717  2.6398
  136OSM    C2S14671   6.660   2.337   3.162 -0.6809 -0.0983 -0.3266
  136OSM    H2S14672   6.672   2.227   3.148  1.4575  0.2746 -2.0248
  136OSM    C3S14673   6.806   2.389   3.152 -0.0018 -0.5955  0.1442
  136OSM    H3S14674   6.810   2.496   3.125  0.3610 -0.8199 -0.7212
  136OSM     O314675   6.893   2.328   3.055  0.1209 -0.8933 -0.1084
  136OSM    HO314676   6.836   2.284   2.992  0.1278  0.3495 -1.0226
  136OSM    C4S14677   6.876   2.382   3.286 -0.0640 -0.3612 -0.6879
  136OSM    H4S14678   6.863   2.483   3.327 -3.5692  0.6049 -3.6191
  136OSM    C5S14679   6.945   2.286   3.357  0.5995  0.1400  0.2476
  136OSM    H5S14680   6.972   2.192   3.307 -0.5235  0.4440 -0.9907
  136OSM    C6S14681   7.007   2.311   3.491 -0.2612  0.1726 -0.1226
  136OSM    H6S14682   7.116   2.331   3.487 -0.1410 -0.0969  1.2701
  136OSM    H6T14683   6.995   2.208   3.532  0.0573  0.3167  0.3467
  136OSM    C7S14684   6.930   2.400   3.593  0.6639 -0.2879 -0.3625
  136OSM    H7S14685   6.820   2.396   3.593  0.4443  2.8100 -1.2237
  136OSM    H7T14686   6.955   2.507   3.574 -1.7246  0.1016 -1.6101
  136OSM    C8S14687   6.968   2.357   3.734 -0.5033 -0.6356 -0.1508
  136OSM    H8S14688   7.078   2.341   3.733 -0.4172 -0.0589 -0.4918
  136OSM    H8T14689   6.930   2.255   3.756  0.3759 -1.2701 -1.4325
  136OSM    C9S14690   6.933   2.453   3.844  0.1653  0.0645  0.0255
  136OSM    H9S14691   6.830   2.490   3.826 -0.5320 -2.1981 -1.0698
  136OSM    H9T14692   6.998   2.542   3.844  2.3597 -1.4526  0.3933
  136OSM   C10S14693   6.941   2.389   3.978  0.1326 -0.2722 -0.4098
  136OSM   H10S14694   7.042   2.342   3.982  1.1772  1.8854  0.4545
  136OSM   H10T14695   6.871   2.305   3.996 -1.3376  0.8914 -0.4912
  136OSM   C11S14696   6.937   2.484   4.096  0.8821 -0.7467 -1.2014
  136OSM   H11S14697   6.837   2.531   4.086  1.7962  1.1772 -1.6423
  136OSM   H11T14698   7.027   2.549   4.091  1.0535 -0.7343  1.0627
  136OSM   C12S14699   6.953   2.417   4.234  0.3087 -0.2651 -0.7440
  136OSM   H12S14700   6.888   2.326   4.237  1.9463 -1.4640  1.4390
  136OSM   H12T14701   6.916   2.491   4.309  0.0483  1.3871 -2.4257
  136OSM   C13S14702   7.100   2.368   4.259 -0.1393 -0.0647  0.3788
  136OSM   H13S14703   7.187   2.421   4.214 -0.6178 -0.6748 -1.3599
  136OSM   H13T14704   7.106   2.267   4.213  0.7379  0.8284 -1.6099
  136OSM   C14S14705   7.123   2.365   4.407 -0.6029 -0.0984  0.6834
  136OSM   H14S14706   7.152   2.464   4.448 -0.5811  1.2220 -2.3025
  136OSM   H14T14707   7.208   2.295   4.419 -0.7453 -0.5786 -0.8628
  136OSM   C15S14708   7.014   2.301   4.494  0.1022  0.0824 -0.1870
  136OSM   H15S14709   6.968   2.212   4.444  1.5878 -1.4890  1.1089
  136OSM   H15T14710   6.928   2.371   4.501 -1.0746 -1.3567  0.2268
  136OSM   C16S14711   7.062   2.272   4.635  0.2654  0.0984 -0.2450
  136OSM   H16S14712   6.976   2.219   4.680  0.2763  0.3505  0.0767
  136OSM   H16T14713   7.078   2.362   4.698 -0.1449  0.7476 -1.0504
  136OSM   C17S14714   7.176   2.173   4.640 -0.0570 -0.1520 -0.0873
  136OSM   H17S14715   7.270   2.206   4.591 -0.0470 -0.1496 -0.0667
  136OSM   H17T14716   7.144   2.088   4.577  2.2236 -0.4874 -0.9040
  136OSM   C18S14717   7.208   2.131   4.780 -0.2598 -0.4226 -0.8220
  136OSM   H18S14718   7.135   2.060   4.823 -0.3819 -0.7014 -1.4750
  136OSM   H18T14719   7.203   2.223   4.841  0.5240  1.2084 -3.0622
  136OSM   H18U14720   7.311   2.091   4.793 -0.3120 -0.4854 -0.6035
  136OSM    C1F14721   6.474   2.302   3.304 -0.3519 -0.0252  0.2581
  136OSM     OF14722   6.428   2.216   3.226  0.1483  0.0481 -0.3364
  136OSM    C2F14723   6.403   2.330   3.436  0.3945  0.5844 -0.3250
  136OSM    H2F14724   6.325   2.254   3.455  1.1166  0.1577  1.1184
  136OSM    H2G14725   6.361   2.432   3.425 -2.5561 -0.6416 -1.3385
  136OSM    C3F14726   6.504   2.325   3.558  0.4412 -0.3796 -0.5791
  136OSM    H3F14727   6.567   2.416   3.555 -0.6308  0.7112  3.3528
  136OSM    H3G14728   6.568   2.234   3.552 -0.8300 -1.3091 -0.7003
  136OSM    C4F14729   6.431   2.326   3.693 -0.2248  0.5188 -0.3291
  136OSM    H4F14730   6.394   2.222   3.709 -0.6584  0.9941  2.3841
  136OSM    H4G14731   6.345   2.397   3.691  0.7944  1.8808  1.4096
  136OSM    C5F14732   6.524   2.365   3.812  0.8901 -0.0243  0.1232
  136OSM    H5F14733   6.547   2.473   3.816  0.9356 -0.0496  0.7409
  136OSM    H5G14734   6.616   2.303   3.811  0.7976 -0.1526 -0.6844
  136OSM    C6F14735   6.449   2.346   3.945  1.1823 -0.0945  0.4975
  136OSM    H6F14736   6.409   2.242   3.944  0.8639  0.0200 -0.5854
  136OSM    H6G14737   6.362   2.415   3.952  0.4110 -0.7918 -1.3152
  136OSM    C7F14738   6.539   2.372   4.062  0.2080  0.4428  0.6543
  136OSM    H7F14739   6.593   2.468   4.051 -0.2152  0.6987  0.8257
  136OSM    H7G14740   6.622   2.298   4.068  1.3077  1.7448  2.3081
  136OSM    C8F14741   6.470   2.358   4.194 -0.2880 -0.3216  0.3770
  136OSM    H8F14742   6.429   2.255   4.206  0.7088 -1.0056 -1.6100
  136OSM    H8G14743   6.382   2.426   4.201 -0.6410 -0.6032 -0.9959
  136OSM    C9F14744   6.556   2.410   4.301  0.0743 -0.2624 -0.1647
  136OSM    H9F14745   6.571   2.519   4.295 -3.8447  0.4018 -0.8043
  136OSM   C10F14746   6.629   2.340   4.391  0.0529 -0.1385  0.4428
  136OSM   H10F14747   6.691   2.396   4.463 -2.0443  1.1494  1.3348
  136OSM   C11F14748   6.640   2.192   4.419 -0.4524 -0.3460  0.0592
  136OSM   H11F14749   6.748   2.169   4.407  0.0007  2.2604 -1.4881
  136OSM   H11G14750   6.586   2.134   4.340 -0.2978 -1.2396  0.5950
  136OSM   C12F14751   6.588   2.148   4.553  0.0532  0.1567 -0.5893
  136OSM   H12F14752   6.577   2.037   4.556  1.2360  0.0438  0.5295
  136OSM   H12G14753   6.482   2.177   4.568  0.3007 -0.2060  2.6385
  136OSM   C13F14754   6.677   2.174   4.678 -0.4365 -0.0534 -0.7044
  136OSM   H13F14755   6.703   2.282   4.687  0.7911 -0.4489  1.1491
  136OSM   H13G14756   6.772   2.116   4.673  1.0529  2.1507  0.2002
  136OSM   C14F14757   6.601   2.146   4.807  0.0161  0.5695  0.4507
  136OSM   H14F14758   6.545   2.051   4.792 -1.3639  1.0619  2.1929
  136OSM   H14G14759   6.530   2.227   4.835 -1.2678 -0.5776  0.6372
  136OSM   C15F14760   6.687   2.121   4.933  1.1990 -0.3657  0.2560
  136OSM   H15F14761   6.747   2.212   4.956 -0.4284  0.7826  0.1362
  136OSM   H15G14762   6.762   2.043   4.909  1.6724  0.4948 -1.2121
  136OSM   C16F14763   6.594   2.101   5.047  0.3612  0.3834 -0.6452
  136OSM   H16F14764   6.517   2.023   5.025  0.0875 -1.0016  4.0565
  136OSM   H16G14765   6.535   2.195   5.056  0.4279  0.2713  1.3265
  136OSM   C17F14766   6.661   2.073   5.181 -0.1805  0.4110 -0.0833
  136OSM   H17F14767   6.579   2.080   5.256  1.2605 -0.8673  1.7150
  136OSM   H17G14768   6.736   2.150   5.206  2.1630 -1.3317 -1.3176
  136OSM   C18F14769   6.736   1.936   5.193 -0.3984  0.5343 -0.2943
  136OSM   H18F14770   6.657   1.857   5.196  1.7978 -1.8068 -0.7262
  136OSM   H18G14771   6.811   1.935   5.275 -1.4247  2.4977  0.7471
  136OSM   H18H14772   6.794   1.914   5.101 -2.4406  3.2228 -2.3764
  137OSM      N14773   4.447   2.415   3.074  0.7754  0.0851  0.0658
  137OSM    C1514774   4.555   2.333   3.136  0.1938 -0.3774  0.1492
  137OSM   H15A14775   4.646   2.388   3.152  0.5669 -1.6020  2.6867
  137OSM   H15B14776   4.574   2.250   3.070 -1.6991  0.0950 -1.0765
  137OSM   H15C14777   4.527   2.303   3.236 -0.0447 -3.7062 -0.8049
  137OSM    C1414778   4.490   2.457   2.937 -0.1131  0.2152  0.1275
  137OSM   H14A14779   4.581   2.515   2.946  1.7209 -2.1721 -1.6737
  137OSM   H14B14780   4.430   2.529   2.884 -0.3459  1.7435  2.3258
  137OSM   H14C14781   4.522   2.370   2.881  0.7284 -0.1796  1.1726
  137OSM    C1314782   4.332   2.320   3.061 -0.1784  0.0785  1.3482
  137OSM   H13A14783   4.350   2.237   2.994 -1.7497  0.3103  0.5939
  137OSM   H13B14784   4.257   2.381   3.013 -1.6385 -2.7998 -0.2762
  137OSM   H13C14785   4.286   2.293   3.155  1.2297  0.4885  2.1901
  137OSM    C1214786   4.403   2.534   3.164 -0.3562  0.6267 -0.2363
  137OSM   H12A14787   4.365   2.498   3.259 -1.1156 -0.6266 -0.9782
  137OSM   H12B14788   4.313   2.572   3.117 -0.4303  0.5177 -0.1839
  137OSM    C1114789   4.512   2.638   3.202 -0.5692 -0.5176 -0.2722
  137OSM   H11A14790   4.609   2.587   3.221  0.1747  1.8993  3.2954
  137OSM   H11B14791   4.492   2.683   3.301 -1.3488  0.7559 -0.9883
  137OSM      P14792   4.422   2.854   3.094 -0.5336 -0.2548 -0.0646
  137OSM    O1314793   4.475   2.948   2.988 -0.1146  0.2860 -0.3889
  137OSM    O1414794   4.286   2.793   3.069  0.7038 -0.3063  0.5917
  137OSM    O1114795   4.440   2.908   3.246 -0.1445 -0.1353  0.3800
  137OSM    O1214796   4.525   2.738   3.099 -0.8317 -0.0816 -0.6035
  137OSM    C1S14797   4.567   2.958   3.291  0.7081  0.2199  0.8641
  137OSM    H1S14798   4.603   3.018   3.205 -0.0212 -1.3675 -0.6198
  137OSM    H1T14799   4.639   2.877   3.316 -0.4888 -0.6316  1.6765
  137OSM     NF14800   4.697   3.094   3.443  0.5377  0.2717  0.5862
  137OSM    HNF14801   4.745   3.049   3.517 -0.8080 -1.9509  0.1884
  137OSM    C2S14802   4.559   3.038   3.419  0.2533  0.8389 -0.0551
  137OSM    H2S14803   4.496   3.128   3.406  1.2264  1.2400 -2.4690
  137OSM    C3S14804   4.495   2.936   3.530 -0.6993 -0.2265  0.2007
  137OSM    H3S14805   4.569   2.856   3.547 -0.0131  0.4230  0.3558
  137OSM     O314806   4.375   2.876   3.479  0.1728  0.3090  0.1483
  137OSM    HO314807   4.369   2.888   3.384 -2.5982 -2.0503 -0.1324
  137OSM    C4S14808   4.484   3.010   3.656  0.3491  0.5381 -0.7747
  137OSM    H4S14809   4.556   2.984   3.736  0.1289  2.4861  0.0918
  137OSM    C5S14810   4.402   3.111   3.690 -0.0272 -0.1602  0.5073
  137OSM    H5S14811   4.327   3.146   3.617  2.1365  0.6547 -1.4695
  137OSM    C6S14812   4.419   3.177   3.823 -0.5791 -0.1026  0.3654
  137OSM    H6S14813   4.334   3.150   3.889 -1.0506  1.0899  0.2605
  137OSM    H6T14814   4.394   3.284   3.807 -0.2954 -0.1574 -0.5049
  137OSM    C7S14815   4.560   3.174   3.889  0.3387 -0.6353 -0.0699
  137OSM    H7S14816   4.639   3.208   3.819 -0.4330  1.8047  0.1524
  137OSM    H7T14817   4.575   3.069   3.922 -0.0974  0.2193  3.1585
  137OSM    C8S14818   4.565   3.258   4.015 -0.4755  0.1141  0.9239
  137OSM    H8S14819   4.518   3.358   4.007 -0.1430  0.1345 -1.3469
  137OSM    H8T14820   4.672   3.265   4.042  0.4539  0.6001 -2.4163
  137OSM    C9S14821   4.489   3.195   4.134 -0.1956  0.2421  0.5206
  137OSM    H9S14822   4.538   3.095   4.140  2.1752  1.2208 -0.9806
  137OSM    H9T14823   4.381   3.181   4.110 -0.0138 -1.3769  0.5692
  137OSM   C10S14824   4.508   3.289   4.256  0.1627 -0.2937 -0.0119
  137OSM   H10S14825   4.449   3.383   4.246 -2.8487 -2.0699 -0.0740
  137OSM   H10T14826   4.614   3.320   4.270 -0.6445  2.3537  0.8921
  137OSM   C11S14827   4.447   3.232   4.388 -0.2141 -0.4231  0.4755
  137OSM   H11S14828   4.518   3.150   4.414 -0.7217 -1.3013 -0.7924
  137OSM   H11T14829   4.346   3.195   4.361 -0.0117  0.2752 -1.3482
  137OSM   C12S14830   4.437   3.322   4.512 -0.5080 -0.3619 -0.3610
  137OSM   H12S14831   4.355   3.397   4.501 -0.8064  0.1287  3.6560
  137OSM   H12T14832   4.534   3.374   4.524  0.7433 -2.2574 -1.7465
  137OSM   C13S14833   4.394   3.240   4.636 -0.1817  0.2261  0.5526
  137OSM   H13S14834   4.470   3.166   4.668 -1.9070 -3.4696 -3.0163
  137OSM   H13T14835   4.309   3.170   4.616 -1.2751  2.1717 -2.1410
  137OSM   C14S14836   4.363   3.325   4.752  0.2591 -0.0338  0.0849
  137OSM   H14S14837   4.286   3.398   4.721 -0.2626 -0.2120  0.9279
  137OSM   H14T14838   4.459   3.376   4.776  1.0431 -2.0026  1.3941
  137OSM   C15S14839   4.299   3.249   4.869 -0.1223  0.2744  0.8237
  137OSM   H15S14840   4.202   3.212   4.829  1.1692  1.2452 -3.7482
  137OSM   H15T14841   4.268   3.317   4.952 -1.1983 -0.2230  0.8490
  137OSM   C16S14842   4.373   3.128   4.924 -0.4132  0.6765 -0.6866
  137OSM   H16S14843   4.391   3.048   4.848 -1.0556  0.2052 -0.3549
  137OSM   H16T14844   4.303   3.085   4.999 -0.9690  0.4222 -1.3315
  137OSM   C17S14845   4.504   3.141   5.014 -0.5272  0.0352  0.6135
  137OSM   H17S14846   4.586   3.179   4.951 -0.1178 -2.1765 -0.2694
  137OSM   H17T14847   4.526   3.036   5.045  0.8473  0.2873  0.5306
  137OSM   C18S14848   4.481   3.222   5.141 -0.0693  0.2054 -0.3966
  137OSM   H18S14849   4.492   3.332   5.138  3.7343 -0.0186 -0.1572
  137OSM   H18T14850   4.563   3.191   5.210  1.6978  1.1421 -1.9621
  137OSM   H18U14851   4.378   3.195   5.172  0.0981 -2.0118 -1.5756
  137OSM    C1F14852   4.753   3.189   3.370 -0.3486 -0.3858 -0.2369
  137OSM     OF14853   4.704   3.235   3.268 -0.1652  0.3751 -0.4781
  137OSM    C2F14854   4.889   3.224   3.403 -1.3456 -0.5833 -0.0391
  137OSM    H2F14855   4.924   3.303   3.333  0.7363 -1.4862 -0.0672
  137OSM    H2G14856   4.954   3.135   3.386  0.5616  0.4823  1.3392
  137OSM    C3F14857   4.911   3.273   3.551 -0.4988  0.3022 -0.4894
  137OSM    H3F14858   5.016   3.308   3.559 -0.7194  0.9737 -0.5022
  137OSM    H3G14859   4.907   3.193   3.629  0.3489  0.0247 -0.7235
  137OSM    C4F14860   4.807   3.371   3.598  0.0071  0.5910  0.2544
  137OSM    H4F14861   4.717   3.314   3.628  0.1767  0.1155 -0.1270
  137OSM    H4G14862   4.768   3.419   3.506 -0.4828 -0.8280 -0.3092
  137OSM    C5F14863   4.866   3.462   3.710  0.3711  0.3731  0.0206
  137OSM    H5F14864   4.807   3.553   3.734 -0.7438 -0.0122 -1.0852
  137OSM    H5G14865   4.966   3.501   3.680  1.1924 -1.1260  0.7276
  137OSM    C6F14866   4.889   3.381   3.834 -0.5934 -0.1978 -0.3745
  137OSM    H6F14867   4.955   3.294   3.812 -0.6033 -0.3864  0.3414
  137OSM    H6G14868   4.793   3.335   3.863 -1.2547  1.0489 -0.5323
  137OSM    C7F14869   4.966   3.462   3.937 -0.2771 -0.1401 -0.5783
  137OSM    H7F14870   4.909   3.553   3.967 -0.2273 -0.3587  0.2094
  137OSM    H7G14871   5.067   3.488   3.899  0.8129 -1.8275  1.0177
  137OSM    C8F14872   4.983   3.380   4.065 -0.4539 -0.3748 -0.2761
  137OSM    H8F14873   5.064   3.306   4.048 -0.3210  0.1518 -2.1257
  137OSM    H8G14874   4.892   3.323   4.092  0.0070 -0.5104  1.0572
  137OSM    C9F14875   5.041   3.465   4.178 -0.0342 -0.1980  0.1075
  137OSM    H9F14876   5.139   3.505   4.147  0.1619 -1.1201 -0.5145
  137OSM   C10F14877   4.993   3.479   4.304 -0.5705  0.2175 -0.0523
  137OSM   H10F14878   5.066   3.538   4.363  1.9939 -2.0120 -0.7837
  137OSM   C11F14879   4.872   3.424   4.368 -0.4820  1.0087 -0.0924
  137OSM   H11F14880   4.794   3.451   4.293  0.1169  1.5711 -0.5213
  137OSM   H11G14881   4.847   3.477   4.463  0.6617  0.0973  0.7378
  137OSM   C12F14882   4.855   3.277   4.410  0.3925  0.4038  0.3975
  137OSM   H12F14883   4.867   3.213   4.320  4.9248  0.0975  0.9787
  137OSM   H12G14884   4.760   3.266   4.466  1.0693 -0.7300  1.3738
  137OSM   C13F14885   4.962   3.234   4.511  0.2246 -0.0385  0.1890
  137OSM   H13F14886   5.057   3.230   4.454 -1.1682 -0.6701 -2.2696
  137OSM   H13G14887   4.935   3.130   4.538  0.9338  0.4127  2.9102
  137OSM   C14F14888   4.968   3.308   4.645 -0.7144  0.3832  0.7500
  137OSM   H14F14889   4.987   3.414   4.616 -1.5150 -0.0821 -1.7107
  137OSM   H14G14890   5.051   3.274   4.710 -0.3810 -1.1796 -0.4314
  137OSM   C15F14891   4.843   3.290   4.732 -0.0497  0.0981  1.1565
  137OSM   H15F14892   4.831   3.181   4.745 -0.9454 -0.2845 -1.9779
  137OSM   H15G14893   4.759   3.333   4.672  0.5462 -0.6611 -0.2706
  137OSM   C16F14894   4.853   3.352   4.873 -0.3638 -0.5499 -1.2516
  137OSM   H16F14895   4.930   3.291   4.925 -1.9604  0.4549  2.6083
  137OSM   H16G14896   4.757   3.338   4.926  0.6597 -1.3062  0.4764
  137OSM   C17F14897   4.867   3.505   4.876  0.2666  0.6513  0.4267
  137OSM   H17F14898   4.765   3.547   4.866  0.9741  2.2668 -0.3792
  137OSM   H17G14899   4.919   3.539   4.783 -1.9239  0.7993 -0.8007
  137OSM   C18F14900   4.932   3.560   5.001  0.3405 -0.4061 -0.2659
  137OSM   H18F14901   4.922   3.670   4.992  0.0498 -0.5759 -2.3621
  137OSM   H18G14902   5.040   3.533   4.999  0.8906  1.6189 -0.2965
  137OSM   H18H14903   4.880   3.515   5.088 -0.7050 -1.2268 -1.2863
  138OSM      N14904   0.420   6.412   2.597 -0.1337  0.3476  0.8277
  138OSM    C1514905   0.421   6.558   2.577  0.4303 -0.5038  0.0158
  138OSM   H15A14906   0.326   6.607   2.573  0.6838  0.3857  2.9531
  138OSM   H15B14907   0.478   6.567   2.485 -1.5107  2.0188 -1.0582
  138OSM   H15C14908   0.466   6.605   2.663  1.1477 -0.6913 -0.2440
  138OSM    C1414909   0.349   6.343   2.475 -0.3702 -0.2851  0.3777
  138OSM   H14A14910   0.258   6.397   2.454 -0.4840 -1.3885 -2.3515
  138OSM   H14B14911   0.327   6.239   2.493  1.4912 -1.0626 -1.4163
  138OSM   H14C14912   0.400   6.345   2.380 -1.2773 -0.4886 -0.1247
  138OSM    C1314913   0.563   6.368   2.608 -0.0778 -0.7277  0.3773
  138OSM   H13A14914   0.561   6.264   2.640 -0.8213 -0.5652  0.8924
  138OSM   H13B14915   0.615   6.429   2.680 -1.5372  1.9075 -0.6525
  138OSM   H13C14916   0.621   6.368   2.518  1.0530  0.2662  1.0837
  138OSM    C1214917   0.342   6.380   2.724  0.1311 -0.1078 -0.1127
  138OSM   H12A14918   0.360   6.274   2.740  0.0929 -0.0154  0.5787
  138OSM   H12B14919   0.236   6.400   2.719 -0.0005  0.9339  3.7283
  138OSM    C1114920   0.393   6.453   2.849  0.3535  0.7670  0.7588
  138OSM   H11A14921   0.502   6.433   2.855  0.5069  0.4466 -1.9268
  138OSM   H11B14922   0.334   6.386   2.915 -0.9363  0.1862 -0.8818
  138OSM      P14923   0.227   6.645   2.907 -0.2330  0.1328  0.1839
  138OSM    O1314924   0.233   6.793   2.911 -0.5438  0.1476  0.2788
  138OSM    O1414925   0.120   6.582   2.836  0.6337  0.3296  0.2279
  138OSM    O1114926   0.225   6.585   3.049 -0.1345 -0.2626  0.2764
  138OSM    O1214927   0.361   6.595   2.859 -0.2054  0.2372  0.0889
  138OSM    C1S14928   0.314   6.614   3.157  0.6253 -0.1082  0.6494
  138OSM    H1S14929   0.333   6.721   3.180 -1.0722  0.1218  1.0868
  138OSM    H1T14930   0.408   6.555   3.146 -0.2711 -1.6375  0.9344
  138OSM     NF14931   0.354   6.613   3.406  0.5095 -0.2411 -0.3980
  138OSM    HNF14932   0.411   6.544   3.449 -1.6687 -0.6499  2.0228
  138OSM    C2S14933   0.262   6.577   3.300  0.3020  0.0380  0.2409
  138OSM    H2S14934   0.165   6.627   3.324 -0.7504 -1.8247  0.0617
  138OSM    C3S14935   0.225   6.420   3.309 -0.0453 -0.1536  0.6029
  138OSM    H3S14936   0.320   6.364   3.320 -1.7137 -3.5515 -0.8391
  138OSM     O314937   0.155   6.369   3.196  0.2991  0.3196 -0.0633
  138OSM    HO314938   0.163   6.435   3.126  0.9419  1.1705  0.7947
  138OSM    C4S14939   0.143   6.383   3.428  0.2970  0.2839 -0.2069
  138OSM    H4S14940   0.036   6.408   3.432  0.3970  0.9500 -1.2799
  138OSM    C5S14941   0.189   6.302   3.525 -0.1400 -0.1768  0.0067
  138OSM    H5S14942   0.293   6.274   3.506 -0.4939 -0.3051 -1.9321
  138OSM    C6S14943   0.101   6.251   3.639  0.2252 -0.0069 -0.4686
  138OSM    H6S14944   0.088   6.141   3.634  1.1734 -0.1228 -0.6286
  138OSM    H6T14945   0.001   6.298   3.645  0.6243  0.8641 -0.4052
  138OSM    C7S14946   0.159   6.286   3.776  0.0303  0.4601 -0.6086
  138OSM    H7S14947   0.260   6.242   3.786 -0.4283 -0.3229  0.9794
  138OSM    H7T14948   0.095   6.248   3.858  0.1944 -0.9198 -1.0878
  138OSM    C8S14949   0.174   6.439   3.801  0.4749  0.7412 -0.3289
  138OSM    H8S14950   0.069   6.471   3.786  0.9393  2.9065  0.6074
  138OSM    H8T14951   0.251   6.476   3.730  1.1199 -0.4775 -0.2998
  138OSM    C9S14952   0.233   6.463   3.941  1.2502 -0.0166  0.2957
  138OSM    H9S14953   0.277   6.564   3.927 -1.1208  0.9918 -0.5723
  138OSM    H9T14954   0.326   6.402   3.947  2.0026  1.1262  0.4476
  138OSM   C10S14955   0.139   6.469   4.063 -0.3712 -0.1571  0.3726
  138OSM   H10S14956   0.080   6.375   4.075 -1.0665  0.4369  1.7580
  138OSM   H10T14957   0.069   6.554   4.048  0.9931  1.1996  1.4321
  138OSM   C11S14958   0.211   6.505   4.194 -0.8067 -0.5649  0.5932
  138OSM   H11S14959   0.245   6.610   4.184 -2.0152 -0.2275 -0.3276
  138OSM   H11T14960   0.290   6.429   4.206 -1.2943 -1.1901 -0.0471
  138OSM   C12S14961   0.121   6.506   4.310  0.1027 -0.7902 -0.1618
  138OSM   H12S14962   0.084   6.402   4.324  2.0595 -1.7907 -1.9646
  138OSM   H12T14963   0.038   6.576   4.286 -0.9502 -1.6964  0.7270
  138OSM   C13S14964   0.186   6.548   4.443  0.3774  0.2403 -0.0937
  138OSM   H13S14965   0.109   6.576   4.519  1.4478 -1.6889  1.8357
  138OSM   H13T14966   0.246   6.639   4.424  0.4275  0.2148 -0.0599
  138OSM   C14S14967   0.286   6.451   4.508  0.2221 -0.5138 -0.1132
  138OSM   H14S14968   0.358   6.508   4.572 -1.0090  1.8112 -0.7103
  138OSM   H14T14969   0.341   6.402   4.425 -0.1249  1.3598 -1.4850
  138OSM   C15S14970   0.216   6.347   4.602  0.1262  0.5638 -0.1720
  138OSM   H15S14971   0.154   6.282   4.537  0.5298 -0.2718  0.2612
  138OSM   H15T14972   0.147   6.399   4.672  0.6040  1.8265 -0.6111
  138OSM   C16S14973   0.307   6.248   4.681  0.1254 -0.0110  0.0859
  138OSM   H16S14974   0.391   6.288   4.742 -0.3352  1.9567 -0.4890
  138OSM   H16T14975   0.355   6.183   4.604  1.2251 -0.5445  1.1893
  138OSM   C17S14976   0.231   6.141   4.766 -0.5236 -0.6017  0.0426
  138OSM   H17S14977   0.311   6.075   4.807  0.7741  0.7332 -0.2530
  138OSM   H17T14978   0.167   6.071   4.708  1.2577 -0.3369 -2.4233
  138OSM   C18S14979   0.154   6.199   4.887 -0.0828 -0.6176 -0.3463
  138OSM   H18S14980   0.069   6.256   4.844 -0.9058 -1.8388 -0.4072
  138OSM   H18T14981   0.217   6.279   4.931 -0.1256  0.4633 -2.1857
  138OSM   H18U14982   0.118   6.122   4.959 -1.2697 -0.8437 -1.1485
  138OSM    C1F14983   0.375   6.736   3.447 -0.6106  0.0205 -0.3247
  138OSM     OF14984   0.326   6.832   3.390  0.0496 -0.8697  0.3017
  138OSM    C2F14985   0.455   6.753   3.573  0.1744 -0.3286 -0.0362
  138OSM    H2F14986   0.546   6.690   3.560  0.4060 -0.0059  0.0087
  138OSM    H2G14987   0.416   6.705   3.665  3.4301  0.4004  1.8994
  138OSM    C3F14988   0.496   6.904   3.589 -0.2988  0.1682  0.3780
  138OSM    H3F14989   0.398   6.957   3.597  1.2973  3.1580  1.8932
  138OSM    H3G14990   0.550   6.942   3.500  0.2972 -0.1511  0.5950
  138OSM    C4F14991   0.563   6.930   3.722  0.1081  0.1453 -0.0090
  138OSM    H4F14992   0.511   6.896   3.814  0.5038 -0.1083  0.1210
  138OSM    H4G14993   0.568   7.040   3.738 -1.7744  0.2373  0.1203
  138OSM    C5F14994   0.708   6.872   3.728 -0.4339  0.4325  0.0710
  138OSM    H5F14995   0.765   6.904   3.638 -0.4301 -0.7099 -0.3569
  138OSM    H5G14996   0.698   6.761   3.733 -1.6313  0.4836 -0.9072
  138OSM    C6F14997   0.782   6.907   3.860 -0.3318  0.1190  0.0637
  138OSM    H6F14998   0.733   6.851   3.943  0.0345  0.5317  0.5663
  138OSM    H6G14999   0.777   7.017   3.879 -3.2244  0.0695  0.0807
  138OSM    C7F15000   0.931   6.863   3.852  0.3595 -0.3789  0.2442
  138OSM    H7F15001   0.995   6.932   3.792 -1.8173  1.0569 -0.5305
  138OSM    H7G15002   0.933   6.767   3.795 -1.1288  0.2155 -0.8789
  138OSM    C8F15003   0.982   6.850   3.996  0.6887  0.4525  0.7447
  138OSM    H8F15004   1.085   6.808   3.988  0.6224  0.1153  1.5793
  138OSM    H8G15005   0.912   6.787   4.053  0.7273  0.0113  0.3138
  138OSM    C9F15006   1.003   6.981   4.064  0.6948  0.1826  0.1551
  138OSM    H9F15007   1.055   7.062   4.010  2.3888 -0.4830  0.7148
  138OSM   C10F15008   0.967   7.011   4.192 -0.2341  0.1912  0.2830
  138OSM   H10F15009   0.978   7.117   4.219 -0.5971  0.2684  0.1424
  138OSM   C11F15010   0.888   6.916   4.279  0.1505 -0.7585 -0.6399
  138OSM   H11F15011   0.952   6.901   4.369 -0.9666  1.3053  0.5688
  138OSM   H11G15012   0.862   6.814   4.243  0.3765 -1.5342  1.2909
  138OSM   C12F15013   0.760   6.986   4.325  0.6459 -0.5487  0.2156
  138OSM   H12F15014   0.683   6.911   4.353 -1.7976 -0.3196 -4.8447
  138OSM   H12G15015   0.712   7.030   4.235 -1.0120 -1.6663  0.5130
  138OSM   C13F15016   0.781   7.091   4.439 -0.0520  0.1482 -0.7237
  138OSM   H13F15017   0.682   7.125   4.476  0.1813 -0.0056  0.0534
  138OSM   H13G15018   0.849   7.174   4.411  0.2328 -0.1746 -1.0115
  138OSM   C14F15019   0.837   7.040   4.573  0.9281 -0.1180  0.0404
  138OSM   H14F15020   0.947   7.022   4.574  1.0618  0.1320 -2.5495
  138OSM   H14G15021   0.776   6.954   4.607  0.9692  0.4836  1.7736
  138OSM   C15F15022   0.824   7.156   4.677 -0.5345  0.4544  0.6422
  138OSM   H15F15023   0.731   7.211   4.652  0.0015  0.4353 -1.5885
  138OSM   H15G15024   0.902   7.232   4.656  1.4002 -1.5726  0.0062
  138OSM   C16F15025   0.838   7.106   4.826 -0.3238 -0.1394  0.3651
  138OSM   H16F15026   0.864   7.194   4.889  0.4202  0.5835 -0.9127
  138OSM   H16G15027   0.921   7.033   4.830 -0.8595 -0.7751  0.0975
  138OSM   C17F15028   0.714   7.024   4.880 -0.1927  0.0912  0.1659
  138OSM   H17F15029   0.733   6.924   4.837 -0.3367 -0.4218  1.2792
  138OSM   H17G15030   0.626   7.061   4.824 -0.8133  0.4205  1.3322
  138OSM   C18F15031   0.693   7.021   5.029 -0.0641  0.4734  0.2459
  138OSM   H18F15032   0.788   7.024   5.087  0.1024  1.3783 -0.0603
  138OSM   H18G15033   0.646   6.924   5.057 -2.9074  1.5142 -0.5842
  138OSM   H18H15034   0.638   7.113   5.057  1.0667  0.7460  1.7072
  139OSM      N15035   5.259   1.212   2.703  0.7276  0.1950  0.6349
  139OSM    C1515036   5.220   1.316   2.601 -0.4184 -0.5233 -0.2430
  139OSM   H15A15037   5.169   1.402   2.641 -0.2005 -0.9389  0.9758
  139OSM   H15B15038   5.166   1.278   2.516 -0.1949  1.1092 -1.1496
  139OSM   H15C15039   5.317   1.355   2.573  0.0795  0.1053  2.1579
  139OSM    C1415040   5.128   1.144   2.750 -0.1518 -0.7405 -0.2237
  139OSM   H14A15041   5.059   1.226   2.768  0.4371 -0.5976  1.5317
  139OSM   H14B15042   5.134   1.099   2.848 -0.0915  1.0649  0.6302
  139OSM   H14C15043   5.076   1.078   2.681 -0.0920  0.3669 -1.3682
  139OSM    C1315044   5.341   1.108   2.629  0.5516 -0.1510  0.5941
  139OSM   H13A15045   5.370   1.024   2.691  2.8641  0.1647  0.0344
  139OSM   H13B15046   5.432   1.148   2.587  0.1747  0.5826  0.4614
  139OSM   H13C15047   5.278   1.083   2.545 -0.5099  0.2398  1.2516
  139OSM    C1215048   5.333   1.274   2.827  0.6135  0.1063  1.2517
  139OSM   H12A15049   5.275   1.361   2.857 -0.2644  0.2367 -0.6217
  139OSM   H12B15050   5.423   1.323   2.795  0.2423  1.2965  1.9608
  139OSM    C1115051   5.366   1.185   2.944 -0.3210 -1.1260 -0.4752
  139OSM   H11A15052   5.281   1.152   3.007 -0.9901  1.2403 -0.0498
  139OSM   H11B15053   5.423   1.250   3.013 -1.2883 -1.0561  0.2747
  139OSM      P15054   5.593   1.057   2.956  0.2766 -0.3904  0.0256
  139OSM    O1315055   5.651   0.927   2.926  0.0551  0.5899 -0.0035
  139OSM    O1415056   5.666   1.177   2.915 -0.4095  0.0914  0.3118
  139OSM    O1115057   5.585   1.062   3.115 -0.2381 -0.1320 -0.2636
  139OSM    O1215058   5.440   1.071   2.905 -0.1084  0.2807 -0.0835
  139OSM    C1S15059   5.499   0.980   3.192 -0.3352  0.5882  0.0306
  139OSM    H1S15060   5.542   0.877   3.189 -0.9615  0.3471 -1.2444
  139OSM    H1T15061   5.394   0.972   3.159 -1.4645 -0.2559  3.4345
  139OSM     NF15062   5.450   0.919   3.434 -0.3239 -0.1083  0.7024
  139OSM    HNF15063   5.356   0.944   3.457 -0.1346  2.6803 -1.0180
  139OSM    C2S15064   5.508   1.022   3.342 -0.5701 -0.5811 -0.0303
  139OSM    H2S15065   5.616   1.021   3.370 -0.6270 -0.0267  0.2282
  139OSM    C3S15066   5.442   1.155   3.353  0.6301  0.4632 -0.0259
  139OSM    H3S15067   5.334   1.142   3.331  0.7811  0.0523 -0.5559
  139OSM     O315068   5.475   1.244   3.253 -0.3033 -0.2792 -0.1467
  139OSM    HO315069   5.538   1.197   3.198  0.6261  1.2086 -0.4102
  139OSM    C4S15070   5.439   1.210   3.492 -0.1472 -0.5513 -0.3306
  139OSM    H4S15071   5.383   1.144   3.561 -1.1128 -0.2689 -0.8328
  139OSM    C5S15072   5.510   1.310   3.536 -0.1586 -0.3376 -0.2834
  139OSM    H5S15073   5.576   1.368   3.469 -0.0066 -0.8972 -0.6224
  139OSM    C6S15074   5.507   1.360   3.680 -0.2673  0.0920  0.0355
  139OSM    H6S15075   5.422   1.432   3.669 -1.0867 -0.9956 -0.9392
  139OSM    H6T15076   5.607   1.398   3.709 -0.6164  1.0294  0.0752
  139OSM    C7S15077   5.454   1.263   3.791 -0.6198  0.0955 -0.3379
  139OSM    H7S15078   5.511   1.167   3.788 -0.7555  0.0444 -2.4089
  139OSM    H7T15079   5.348   1.240   3.766  0.3388 -2.6534 -2.4042
  139OSM    C8S15080   5.458   1.330   3.929  0.5915 -0.6728  0.4205
  139OSM    H8S15081   5.391   1.418   3.930 -1.2667 -2.0189  0.2041
  139OSM    H8T15082   5.552   1.387   3.944 -0.4866  1.7858 -1.4828
  139OSM    C9S15083   5.419   1.237   4.046  0.6602 -0.3645  0.3091
  139OSM    H9S15084   5.474   1.141   4.057 -1.5155 -1.5384  1.6686
  139OSM    H9T15085   5.317   1.198   4.023  1.0666  0.1634 -2.7671
  139OSM   C10S15086   5.420   1.303   4.181 -0.1132 -0.0570 -0.4060
  139OSM   H10S15087   5.355   1.393   4.174  0.8546  0.5056 -3.3476
  139OSM   H10T15088   5.517   1.356   4.191 -0.5958  1.3043 -2.3513
  139OSM   C11S15089   5.396   1.203   4.297 -0.7176 -0.3090 -0.8749
  139OSM   H11S15090   5.464   1.117   4.279 -0.1457 -0.3384  1.1334
  139OSM   H11T15091   5.290   1.170   4.300 -0.4679 -1.0739  0.8181
  139OSM   C12S15092   5.416   1.274   4.433  0.2667 -0.0229  0.0441
  139OSM   H12S15093   5.349   1.362   4.432 -0.2044 -0.3674  0.3544
  139OSM   H12T15094   5.521   1.308   4.446  0.3168  0.2836 -1.1011
  139OSM   C13S15095   5.379   1.183   4.550 -0.2349  0.1524 -0.8656
  139OSM   H13S15096   5.440   1.091   4.535 -1.5135 -0.8524 -0.0523
  139OSM   H13T15097   5.280   1.136   4.532 -0.6573  0.3341  0.8198
  139OSM   C14S15098   5.408   1.242   4.689  0.2697  0.3582 -0.1882
  139OSM   H14S15099   5.351   1.337   4.680 -2.5735 -1.1322  0.6983
  139OSM   H14T15100   5.512   1.279   4.698 -0.5963  3.0600 -0.4646
  139OSM   C15S15101   5.360   1.162   4.818 -0.8577 -0.3875 -0.2907
  139OSM   H15S15102   5.413   1.065   4.807  2.8575  1.5969 -1.4006
  139OSM   H15T15103   5.249   1.151   4.814 -1.1030  1.8527 -1.1256
  139OSM   C16S15104   5.400   1.220   4.956  0.5457 -0.0484 -0.2822
  139OSM   H16S15105   5.321   1.293   4.983 -0.8851 -1.6598  0.0523
  139OSM   H16T15106   5.502   1.260   4.943  0.8866 -1.0337 -0.7687
  139OSM   C17S15107   5.385   1.115   5.072  0.3175 -0.1151  0.1279
  139OSM   H17S15108   5.285   1.068   5.057 -0.0758  0.0895  1.8601
  139OSM   H17T15109   5.382   1.168   5.170 -1.3620  0.8331 -0.3869
  139OSM   C18S15110   5.494   1.011   5.069  0.0951  0.0440 -0.0064
  139OSM   H18S15111   5.590   1.062   5.094  0.4088 -0.3775 -0.3337
  139OSM   H18T15112   5.508   0.963   4.970  0.1947 -0.7760  0.4030
  139OSM   H18U15113   5.480   0.927   5.141 -1.2943  2.1221  2.3307
  139OSM    C1F15114   5.515   0.810   3.470 -0.1403 -0.0440  0.0869
  139OSM     OF15115   5.619   0.774   3.412  0.0938 -0.2967 -0.7926
  139OSM    C2F15116   5.459   0.746   3.598  0.1380  0.0503  0.1028
  139OSM    H2F15117   5.382   0.672   3.567  0.2584 -0.1588  0.3070
  139OSM    H2G15118   5.407   0.825   3.655  0.1723 -1.0096  1.6410
  139OSM    C3F15119   5.565   0.681   3.686 -0.6081  0.0299  0.5451
  139OSM    H3F15120   5.618   0.620   3.610  2.4986  2.1665  0.8106
  139OSM    H3G15121   5.522   0.621   3.769 -2.3097  0.4480  0.0215
  139OSM    C4F15122   5.656   0.789   3.750 -0.5985  0.0783  1.1006
  139OSM    H4F15123   5.681   0.865   3.674  1.8782 -1.3097  0.4076
  139OSM    H4G15124   5.755   0.747   3.780 -0.5223  0.5696  1.5618
  139OSM    C5F15125   5.599   0.850   3.874 -0.4992 -0.2830  0.9141
  139OSM    H5F15126   5.492   0.873   3.853 -0.0662  0.3473 -0.7570
  139OSM    H5G15127   5.649   0.949   3.883 -2.6651  0.9897 -0.2378
  139OSM    C6F15128   5.614   0.777   4.006 -0.3311  0.2247 -0.3488
  139OSM    H6F15129   5.722   0.785   4.032  0.0194 -1.0957 -1.3124
  139OSM    H6G15130   5.594   0.670   3.985  0.3130 -0.3194  1.6207
  139OSM    C7F15131   5.525   0.830   4.115 -0.4036 -0.4688 -0.3908
  139OSM    H7F15132   5.420   0.838   4.082 -0.6836 -2.8594 -0.2270
  139OSM    H7G15133   5.558   0.930   4.150 -2.3650  0.7209 -1.7640
  139OSM    C8F15134   5.517   0.740   4.246  0.0380 -0.5083  0.5707
  139OSM    H8F15135   5.624   0.726   4.274 -0.1742 -2.3212  0.6351
  139OSM    H8G15136   5.475   0.638   4.230 -0.9760  0.2398 -2.1992
  139OSM    C9F15137   5.449   0.795   4.364  1.5742  0.1294 -0.6334
  139OSM    H9F15138   5.390   0.887   4.351 -1.4328 -1.4842  0.5541
  139OSM   C10F15139   5.466   0.762   4.488 -0.0557 -0.1628  0.1726
  139OSM   H10F15140   5.396   0.817   4.553 -1.1796  1.2739 -2.1063
  139OSM   C11F15141   5.556   0.662   4.553 -0.0169 -0.5140 -0.1686
  139OSM   H11F15142   5.617   0.713   4.631 -0.0646  1.0988 -1.1548
  139OSM   H11G15143   5.616   0.616   4.472 -0.4438 -1.2865 -0.0660
  139OSM   C12F15144   5.475   0.553   4.618 -0.2785  0.1040  0.0893
  139OSM   H12F15145   5.550   0.487   4.668 -1.9970 -2.6782 -0.7950
  139OSM   H12G15146   5.430   0.486   4.542 -0.4692 -0.4654  0.6940
  139OSM   C13F15147   5.362   0.599   4.715  0.4064  0.1245 -0.1935
  139OSM   H13F15148   5.321   0.504   4.754 -0.6001  0.7147  0.2345
  139OSM   H13G15149   5.277   0.646   4.660  1.2749  0.8831 -0.9295
  139OSM   C14F15150   5.413   0.684   4.836 -0.4299 -0.3462 -0.2278
  139OSM   H14F15151   5.468   0.778   4.817  2.2026 -2.1087 -1.9365
  139OSM   H14G15152   5.471   0.620   4.906 -1.8413 -0.3851  0.9608
  139OSM   C15F15153   5.289   0.721   4.929  0.1555  0.2058 -0.0614
  139OSM   H15F15154   5.219   0.770   4.857 -1.1500  1.1445  1.7705
  139OSM   H15G15155   5.321   0.794   5.006  1.1919 -1.9727  1.6788
  139OSM   C16F15156   5.209   0.602   4.982 -0.6469  0.3712 -0.6169
  139OSM   H16F15157   5.163   0.535   4.906 -1.0472 -0.4468  0.3309
  139OSM   H16G15158   5.133   0.651   5.047  0.3400 -0.1950  1.0164
  139OSM   C17F15159   5.285   0.524   5.088  0.6867  0.3912  0.0794
  139OSM   H17F15160   5.312   0.598   5.166  1.6276  0.5946 -0.4239
  139OSM   H17G15161   5.374   0.476   5.043 -0.3742 -1.0586 -0.5512
  139OSM   C18F15162   5.191   0.418   5.161  0.4112  0.1042 -0.1587
  139OSM   H18F15163   5.105   0.460   5.217 -2.1617 -0.6732 -3.2409
  139OSM   H18G15164   5.256   0.353   5.224  2.5507  0.7689 -1.5439
  139OSM   H18H15165   5.151   0.343   5.090  0.2619 -0.5419  0.5972
  140OSM      N15166   2.234   5.238   3.422 -0.4725  0.0086  0.6656
  140OSM    C1515167   2.267   5.324   3.302  0.1064  0.3682 -0.2068
  140OSM   H15A15168   2.356   5.384   3.310  0.7117 -0.5696  0.1516
  140OSM   H15B15169   2.181   5.390   3.295  0.6134  1.0562 -0.0034
  140OSM   H15C15170   2.272   5.264   3.212 -1.3246  0.8694 -0.6500
  140OSM    C1415171   2.367   5.176   3.469  0.1395  0.8165  0.9035
  140OSM   H14A15172   2.409   5.122   3.386 -1.5192 -0.6270  0.9638
  140OSM   H14B15173   2.339   5.110   3.550  0.2624 -1.6407 -0.9458
  140OSM   H14C15174   2.440   5.249   3.502  2.7230 -0.9721 -0.5542
  140OSM    C1315175   2.196   5.329   3.533 -0.4167  0.4179 -0.6255
  140OSM   H13A15176   2.093   5.360   3.532  0.0754  2.1633 -1.5866
  140OSM   H13B15177   2.260   5.415   3.517  0.4073  0.1216  0.8650
  140OSM   H13C15178   2.216   5.283   3.629 -0.1096  0.2441 -0.7688
  140OSM    C1215179   2.139   5.128   3.404 -0.0679  0.3846  0.0398
  140OSM   H12A15180   2.138   5.062   3.490  1.9275  0.0575 -0.1401
  140OSM   H12B15181   2.176   5.066   3.324  0.1483 -1.6518  1.6316
  140OSM    C1115182   1.985   5.163   3.381  0.7146 -0.2381 -0.9647
  140OSM   H11A15183   1.945   5.200   3.477 -1.3317  0.0990 -1.8875
  140OSM   H11B15184   1.939   5.064   3.359 -1.6446  0.0943  1.8551
  140OSM      P15185   1.813   5.342   3.287 -0.1411  0.2779  0.3836
  140OSM    O1315186   1.829   5.458   3.203 -0.5532 -0.4948  0.7064
  140OSM    O1415187   1.713   5.236   3.249 -0.1500 -0.6602 -0.2418
  140OSM    O1115188   1.798   5.387   3.434 -0.4593 -0.3141 -0.4960
  140OSM    O1215189   1.953   5.260   3.279 -0.3175  1.2199 -0.6999
  140OSM    C1S15190   1.762   5.530   3.451 -0.0762 -0.4084 -0.2527
  140OSM    H1S15191   1.678   5.566   3.387 -0.9501 -0.3409  0.8883
  140OSM    H1T15192   1.849   5.596   3.431 -0.5740  0.4847  0.4547
  140OSM     NF15193   1.666   5.693   3.624 -0.6313 -0.1385  0.4639
  140OSM    HNF15194   1.727   5.761   3.662  0.3359  1.3317 -3.2787
  140OSM    C2S15195   1.725   5.561   3.600  0.0914  0.5030  0.4151
  140OSM    H2S15196   1.644   5.489   3.623 -1.2383  1.9344  0.4212
  140OSM    C3S15197   1.842   5.528   3.698 -0.9809  0.5772  0.0079
  140OSM    H3S15198   1.920   5.605   3.679 -1.3184  1.0869  0.6450
  140OSM     O315199   1.915   5.407   3.660  0.3951 -0.1814  0.3771
  140OSM    HO315200   1.887   5.387   3.571  0.3198 -0.9496  0.5650
  140OSM    C4S15201   1.809   5.535   3.844 -0.4239 -0.0686 -0.2085
  140OSM    H4S15202   1.819   5.635   3.888 -0.4056 -0.7560  1.4048
  140OSM    C5S15203   1.770   5.437   3.928  0.0736  0.5090  0.1037
  140OSM    H5S15204   1.750   5.338   3.884  0.9740  0.7836 -0.9690
  140OSM    C6S15205   1.746   5.448   4.077  0.2843  0.5910  0.8357
  140OSM    H6S15206   1.815   5.376   4.127 -0.1781 -0.2055  0.3361
  140OSM    H6T15207   1.644   5.416   4.104 -0.0452  0.8918 -0.0024
  140OSM    C7S15208   1.767   5.582   4.142  0.1950  0.4435 -0.4361
  140OSM    H7S15209   1.715   5.574   4.240 -0.0224  0.5169 -0.5448
  140OSM    H7T15210   1.723   5.662   4.079 -0.4667 -0.5831 -1.3257
  140OSM    C8S15211   1.919   5.622   4.146  0.7195 -0.3929 -0.3791
  140OSM    H8S15212   1.965   5.611   4.045  1.9573 -0.1672  0.1422
  140OSM    H8T15213   1.972   5.547   4.209  0.8433  0.2051  0.2419
  140OSM    C9S15214   1.940   5.760   4.214 -0.1498 -0.0329 -0.1793
  140OSM    H9S15215   1.867   5.774   4.297 -1.7732  0.6337 -1.6522
  140OSM    H9T15216   1.904   5.835   4.141  0.1830 -1.7616 -2.1973
  140OSM   C10S15217   2.085   5.796   4.255  0.4332 -0.2486  0.0267
  140OSM   H10S15218   2.103   5.905   4.263  1.4227 -0.1253 -2.6454
  140OSM   H10T15219   2.151   5.766   4.170  0.9728  0.7415  0.0898
  140OSM   C11S15220   2.127   5.735   4.387 -0.4284 -0.1002 -0.1937
  140OSM   H11S15221   2.236   5.738   4.407  0.0095  0.2421 -2.4107
  140OSM   H11T15222   2.087   5.632   4.395 -3.8623  1.1347  0.1111
  140OSM   C12S15223   2.078   5.813   4.511 -0.8823  0.2847  0.3467
  140OSM   H12S15224   1.970   5.789   4.518 -0.6431 -1.6830 -1.5511
  140OSM   H12T15225   2.094   5.921   4.490 -4.3658  0.6165 -1.3864
  140OSM   C13S15226   2.149   5.765   4.637  0.3117  0.2346 -0.2397
  140OSM   H13S15227   2.259   5.777   4.633  0.2739  0.4575 -0.6332
  140OSM   H13T15228   2.128   5.656   4.639 -0.9167  0.4343  2.1687
  140OSM   C14S15229   2.100   5.835   4.767  1.0233 -0.4050 -0.7778
  140OSM   H14S15230   1.990   5.846   4.757  0.3731 -2.6003  2.3855
  140OSM   H14T15231   2.143   5.938   4.767 -0.0417  0.0603 -0.9996
  140OSM   C15S15232   2.136   5.749   4.888  0.3423  0.6380  0.3416
  140OSM   H15S15233   2.244   5.725   4.899  0.2219 -0.2608 -0.3847
  140OSM   H15T15234   2.085   5.651   4.875 -0.0877  0.4787  2.7392
  140OSM   C16S15235   2.071   5.809   5.016 -1.7140 -0.0821 -0.7408
  140OSM   H16S15236   2.065   5.736   5.099 -3.7813  1.8752  0.9933
  140OSM   H16T15237   1.964   5.842   5.010 -1.9632 -0.1589  1.9508
  140OSM   C17S15238   2.151   5.934   5.072 -0.1429 -0.7136 -0.2431
  140OSM   H17S15239   2.176   5.990   4.980 -0.4350 -1.7208 -0.9511
  140OSM   H17T15240   2.240   5.905   5.132  1.1357  3.5392  0.2317
  140OSM   C18S15241   2.063   6.028   5.163 -0.1928  0.4058 -0.1432
  140OSM   H18S15242   2.038   5.965   5.251  0.7712  0.1018 -0.0751
  140OSM   H18T15243   1.979   6.062   5.099  1.6608  0.5593 -2.6424
  140OSM   H18U15244   2.128   6.109   5.203  0.2766 -0.9270  1.9755
  140OSM    C1F15245   1.537   5.725   3.593  0.1524 -0.2517  0.2294
  140OSM     OF15246   1.466   5.632   3.547 -0.4464 -0.7033  0.1102
  140OSM    C2F15247   1.489   5.869   3.610 -0.1783 -0.1850  0.4892
  140OSM    H2F15248   1.423   5.912   3.531 -2.7781  4.0086  4.4761
  140OSM    H2G15249   1.576   5.937   3.623  1.1222 -0.9649 -2.9316
  140OSM    C3F15250   1.402   5.870   3.740  0.7257 -1.2079  0.2108
  140OSM    H3F15251   1.319   5.797   3.737 -1.3074  0.9980  0.4186
  140OSM    H3G15252   1.355   5.970   3.739 -1.6119 -2.2381 -0.5384
  140OSM    C4F15253   1.475   5.846   3.870 -0.1292  0.4663 -0.1138
  140OSM    H4F15254   1.558   5.918   3.887 -0.9343  0.6970  4.1550
  140OSM    H4G15255   1.530   5.749   3.864 -1.1253 -0.0500 -1.2137
  140OSM    C5F15256   1.375   5.834   3.989 -0.4578 -0.2701 -0.4660
  140OSM    H5F15257   1.293   5.762   3.969  0.0096 -0.8637 -0.2801
  140OSM    H5G15258   1.331   5.935   4.000  0.9674  0.2694  0.5243
  140OSM    C6F15259   1.443   5.790   4.118 -0.5624 -0.4228  0.1766
  140OSM    H6F15260   1.544   5.837   4.121  0.1316 -1.9197  2.5043
  140OSM    H6G15261   1.462   5.681   4.123 -0.2323 -0.3665  0.2112
  140OSM    C7F15262   1.375   5.846   4.240 -0.2289  0.3025  0.2072
  140OSM    H7F15263   1.283   5.791   4.268  1.6740 -2.7613  0.8739
  140OSM    H7G15264   1.335   5.944   4.207 -0.2451  0.1934 -0.1039
  140OSM    C8F15265   1.475   5.859   4.361 -0.0697 -0.2599 -0.8557
  140OSM    H8F15266   1.568   5.909   4.324  0.7737  0.6033  2.0795
  140OSM    H8G15267   1.511   5.760   4.397  0.5496  0.3669  0.3380
  140OSM    C9F15268   1.400   5.934   4.471  0.5040 -0.3858 -0.3861
  140OSM    H9F15269   1.360   5.868   4.550 -0.7271  0.2945 -0.4110
  140OSM   C10F15270   1.361   6.063   4.479  0.0665 -0.2089 -0.0328
  140OSM   H10F15271   1.289   6.090   4.557 -1.0795 -0.1148 -1.1031
  140OSM   C11F15272   1.406   6.170   4.382  0.4723  0.6977  0.3409
  140OSM   H11F15273   1.438   6.121   4.287 -0.6738  1.2178 -0.3286
  140OSM   H11G15274   1.498   6.223   4.414  0.0034  2.6225 -1.3019
  140OSM   C12F15275   1.305   6.277   4.338 -0.8320 -0.1727 -0.2482
  140OSM   H12F15276   1.209   6.238   4.298 -1.1841 -1.0450  1.3494
  140OSM   H12G15277   1.348   6.327   4.249 -1.2571  0.2655 -0.2138
  140OSM   C13F15278   1.281   6.388   4.444  0.4232 -0.0764  0.6019
  140OSM   H13F15279   1.375   6.427   4.488  0.5516 -0.6009  0.7980
  140OSM   H13G15280   1.228   6.334   4.525  0.8817 -1.2016  0.1740
  140OSM   C14F15281   1.190   6.503   4.407  0.0550  0.4125 -0.4257
  140OSM   H14F15282   1.088   6.464   4.384  0.1190  0.3596 -0.6200
  140OSM   H14G15283   1.231   6.555   4.318 -0.3714 -0.4185 -1.1290
  140OSM   C15F15284   1.162   6.596   4.521 -0.3032  0.4425  0.0415
  140OSM   H15F15285   1.107   6.685   4.482  1.6844  0.2203 -3.6266
  140OSM   H15G15286   1.257   6.639   4.560  0.2945 -0.6197 -0.2104
  140OSM   C16F15287   1.110   6.534   4.654 -0.3902  0.1493 -0.1739
  140OSM   H16F15288   1.191   6.468   4.690  0.0671 -0.0225 -1.4390
  140OSM   H16G15289   1.016   6.477   4.635 -1.3963  1.7829 -0.3331
  140OSM   C17F15290   1.089   6.645   4.761 -0.7001 -0.1620  0.7792
  140OSM   H17F15291   1.021   6.717   4.711  1.4080  1.0298 -0.5333
  140OSM   H17G15292   1.183   6.699   4.787  0.8768 -1.2561 -2.2227
  140OSM   C18F15293   1.010   6.584   4.884 -0.7017  0.0018  1.0079
  140OSM   H18F15294   0.958   6.673   4.927 -0.8861  0.3153  0.1498
  140OSM   H18G15295   1.080   6.529   4.951  0.7134 -1.4963 -1.5709
  140OSM   H18H15296   0.929   6.524   4.838 -0.7314  0.9643 -0.2396
  141OSM      N15297   4.964   3.080   2.956  0.0051  0.4297  0.0168
  141OSM    C1515298   4.917   3.177   2.852 -0.1600  0.1223 -0.1476
  141OSM   H15A15299   4.956   3.276   2.872 -2.8703  1.2693 -0.1906
  141OSM   H15B15300   4.810   3.191   2.860 -0.0958  0.1207  0.9966
  141OSM   H15C15301   4.935   3.141   2.752  3.4400 -2.0661  1.0659
  141OSM    C1415302   5.092   3.009   2.909  0.4775 -0.7069 -0.1047
  141OSM   H14A15303   5.172   3.072   2.874 -0.7274  0.1324 -1.4425
  141OSM   H14B15304   5.083   2.944   2.823  1.0316 -0.0657 -0.6554
  141OSM   H14C15305   5.130   2.953   2.993  1.4490  2.6225  1.8603
  141OSM    C1315306   5.005   3.138   3.089  0.6501 -0.3780 -0.2001
  141OSM   H13A15307   5.100   3.185   3.069  0.0515  1.2674  0.5754
  141OSM   H13B15308   5.030   3.051   3.148  0.5619 -0.2113  0.0866
  141OSM   H13C15309   4.940   3.215   3.128  2.1931 -0.1398  2.1401
  141OSM    C1215310   4.856   2.973   2.970  0.3658  0.0104 -0.2422
  141OSM   H12A15311   4.877   2.895   2.898 -2.1104  0.6108 -1.7222
  141OSM   H12B15312   4.754   3.001   2.950 -0.6064 -3.0017 -0.0627
  141OSM    C1115313   4.855   2.901   3.116  0.3723 -0.1811  0.4778
  141OSM   H11A15314   4.778   2.820   3.109 -1.3501  1.3850  0.4409
  141OSM   H11B15315   4.821   2.979   3.187  0.4590  0.9854 -0.7354
  141OSM      P15316   5.043   2.711   3.173 -0.6813 -0.3311 -0.5133
  141OSM    O1315317   5.036   2.637   3.047  0.0020 -0.2055  0.7845
  141OSM    O1415318   5.182   2.728   3.229  0.1029 -0.2677  0.5995
  141OSM    O1115319   4.948   2.657   3.285 -0.3928  0.6649 -0.4442
  141OSM    O1215320   4.990   2.861   3.152  0.1937 -0.1019  0.0267
  141OSM    C1S15321   4.969   2.709   3.414  0.0418 -0.8201  0.5174
  141OSM    H1S15322   4.971   2.820   3.410  0.4172 -0.8232  0.5816
  141OSM    H1T15323   5.059   2.666   3.462 -0.3880 -0.4375  1.7048
  141OSM     NF15324   4.892   2.711   3.651 -0.6549  0.8568  0.7554
  141OSM    HNF15325   4.922   2.646   3.720  2.9616  0.8146 -0.6134
  141OSM    C2S15326   4.857   2.669   3.518 -0.5410  0.5056 -0.1319
  141OSM    H2S15327   4.760   2.716   3.493 -0.3308  0.8128 -0.3766
  141OSM    C3S15328   4.835   2.512   3.511 -0.3579  0.1644 -0.1064
  141OSM    H3S15329   4.928   2.462   3.544 -1.6042 -1.9174  0.4406
  141OSM     O315330   4.789   2.462   3.384  0.2544  0.1176 -0.5927
  141OSM    HO315331   4.815   2.536   3.329 -0.1685  1.1365  0.5380
  141OSM    C4S15332   4.734   2.476   3.613 -0.2633 -0.1784 -0.0053
  141OSM    H4S15333   4.637   2.523   3.591  1.5903  2.8244 -2.6165
  141OSM    C5S15334   4.759   2.414   3.733  0.1788 -0.4355  0.5296
  141OSM    H5S15335   4.862   2.395   3.766  0.1608  0.2566  1.0047
  141OSM    C6S15336   4.649   2.390   3.834 -0.6208  0.4524  0.1787
  141OSM    H6S15337   4.635   2.280   3.844 -2.7543  0.8470  2.7545
  141OSM    H6T15338   4.552   2.424   3.790  0.0616  2.5898  0.2048
  141OSM    C7S15339   4.662   2.451   3.971  0.4610  0.2204 -0.4035
  141OSM    H7S15340   4.653   2.561   3.978 -2.4423 -0.0675  2.2406
  141OSM    H7T15341   4.768   2.427   3.996  1.1478  2.2723 -1.1065
  141OSM    C8S15342   4.555   2.384   4.068 -0.2111  0.4241  0.2770
  141OSM    H8S15343   4.558   2.273   4.064  5.3260  0.3157 -0.2720
  141OSM    H8T15344   4.454   2.407   4.030 -0.0210 -1.3183 -1.4408
  141OSM    C9S15345   4.553   2.449   4.203  0.4327 -0.3409  0.0574
  141OSM    H9S15346   4.447   2.444   4.238 -0.1128  0.6307 -1.3364
  141OSM    H9T15347   4.576   2.558   4.201 -1.3824  0.0907 -2.8007
  141OSM   C10S15348   4.638   2.378   4.305  0.2508  0.2601 -0.6310
  141OSM   H10S15349   4.742   2.369   4.269  0.2982 -2.7697 -0.0227
  141OSM   H10T15350   4.599   2.273   4.303 -0.4876  0.4845  0.9478
  141OSM   C11S15351   4.639   2.431   4.442  0.2015  0.8697 -0.1525
  141OSM   H11S15352   4.536   2.442   4.481  0.8073  1.5475  1.3424
  141OSM   H11T15353   4.685   2.532   4.445 -1.2253  1.6075 -1.6505
  141OSM   C12S15354   4.701   2.331   4.541 -0.4509  0.0741  0.2822
  141OSM   H12S15355   4.797   2.301   4.494 -0.9014  0.4912 -0.9437
  141OSM   H12T15356   4.648   2.234   4.539  2.1572 -1.4395  0.4192
  141OSM   C13S15357   4.709   2.388   4.682 -0.5145  0.6869 -0.0029
  141OSM   H13S15358   4.608   2.424   4.713 -0.0645  0.3552  1.9779
  141OSM   H13T15359   4.789   2.463   4.699 -1.2049  1.5899 -0.6828
  141OSM   C14S15360   4.737   2.262   4.775 -0.2129  0.4043  0.4546
  141OSM   H14S15361   4.831   2.218   4.734  0.1191  0.7209  0.8552
  141OSM   H14T15362   4.649   2.195   4.768 -0.1630  0.3200  0.6451
  141OSM   C15S15363   4.773   2.297   4.916  0.1045 -0.6272  0.0241
  141OSM   H15S15364   4.854   2.370   4.936 -0.3121 -0.9268  3.2961
  141OSM   H15T15365   4.817   2.203   4.954 -0.1043 -0.6054  0.3222
  141OSM   C16S15366   4.653   2.335   5.014 -0.3193 -0.1789  0.0668
  141OSM   H16S15367   4.594   2.241   5.017 -0.9252  0.2126  0.6306
  141OSM   H16T15368   4.590   2.415   4.971  0.3233  1.0106  1.2687
  141OSM   C17S15369   4.687   2.389   5.157 -0.2574 -0.3399  0.6032
  141OSM   H17S15370   4.761   2.472   5.148 -0.9158  0.2097  0.1920
  141OSM   H17T15371   4.739   2.309   5.215 -1.3199 -0.7980  0.9387
  141OSM   C18S15372   4.569   2.434   5.236 -0.0110 -0.5590  0.2082
  141OSM   H18S15373   4.492   2.355   5.246 -1.7856  1.3226  3.2904
  141OSM   H18T15374   4.525   2.527   5.193 -0.7848 -0.7947  0.4703
  141OSM   H18U15375   4.598   2.463   5.339 -0.9261 -0.6909  0.5104
  141OSM    C1F15376   4.885   2.841   3.685  0.1887  0.3432  0.3884
  141OSM     OF15377   4.835   2.925   3.610 -0.4083  0.2167  0.2113
  141OSM    C2F15378   4.941   2.876   3.822  1.0228 -0.0396  0.9500
  141OSM    H2F15379   5.052   2.880   3.817  0.9381  1.5414 -0.6719
  141OSM    H2G15380   4.925   2.792   3.893  0.7063 -0.3412  0.5288
  141OSM    C3F15381   4.882   3.005   3.877  1.0501 -0.4918 -0.2668
  141OSM    H3F15382   4.772   3.019   3.870  1.3087  1.1668 -1.5470
  141OSM    H3G15383   4.933   3.092   3.831 -1.1048  2.0803  1.8826
  141OSM    C4F15384   4.894   3.021   4.030 -0.1103 -0.1293 -1.0790
  141OSM    H4F15385   4.872   3.124   4.065  0.1094 -1.0628  2.0847
  141OSM    H4G15386   5.002   3.005   4.052 -0.0243  1.6191  0.0075
  141OSM    C5F15387   4.802   2.926   4.106  1.4630 -0.1247  0.4564
  141OSM    H5F15388   4.764   2.847   4.038 -2.1230  1.1645  0.7192
  141OSM    H5G15389   4.708   2.982   4.126  0.2922 -1.7267 -0.3461
  141OSM    C6F15390   4.858   2.879   4.235 -0.5548  0.1654 -0.2417
  141OSM    H6F15391   4.919   2.958   4.285  2.7820 -1.7218 -1.0334
  141OSM    H6G15392   4.931   2.797   4.221 -1.5779 -0.8365  0.1276
  141OSM    C7F15393   4.753   2.834   4.334 -1.0709  1.1826 -0.0748
  141OSM    H7F15394   4.806   2.777   4.412  0.2354  0.5080 -1.4050
  141OSM    H7G15395   4.682   2.760   4.290 -0.3405  0.5845 -0.2682
  141OSM    C8F15396   4.671   2.951   4.394 -1.0079 -0.4474 -0.3507
  141OSM    H8F15397   4.625   3.012   4.313 -0.4230 -0.0739 -0.4028
  141OSM    H8G15398   4.731   3.029   4.445 -0.8475 -1.0577  0.4025
  141OSM    C9F15399   4.567   2.884   4.479  0.7364  0.3531 -0.3601
  141OSM    H9F15400   4.475   2.853   4.429  0.6250  1.4728 -0.8817
  141OSM   C10F15401   4.575   2.864   4.612 -0.2341  0.7761 -0.2852
  141OSM   H10F15402   4.490   2.812   4.658 -0.0028  1.4229  0.9175
  141OSM   C11F15403   4.698   2.880   4.692  0.3291  0.1944  0.0661
  141OSM   H11F15404   4.693   2.956   4.773 -1.4636  1.0373 -0.7747
  141OSM   H11G15405   4.777   2.919   4.625 -0.8921  1.1168 -0.9128
  141OSM   C12F15406   4.746   2.750   4.756 -0.2063 -0.2091 -0.0284
  141OSM   H12F15407   4.842   2.770   4.807 -0.6535 -0.5141  0.9713
  141OSM   H12G15408   4.766   2.685   4.668 -0.3706  0.1472 -0.3308
  141OSM   C13F15409   4.658   2.671   4.858  0.0659 -0.6172  0.0603
  141OSM   H13F15410   4.704   2.573   4.882 -1.6790 -1.9497 -1.7334
  141OSM   H13G15411   4.567   2.648   4.799  1.5992 -0.8616 -2.3352
  141OSM   C14F15412   4.634   2.748   4.983  0.3034 -0.2841  1.1347
  141OSM   H14F15413   4.553   2.698   5.040 -1.5190  1.6795  0.3817
  141OSM   H14G15414   4.571   2.835   4.957  0.8182  0.2509  1.6517
  141OSM   C15F15415   4.757   2.789   5.058 -0.2822 -0.0266 -0.2594
  141OSM   H15F15416   4.835   2.839   4.998 -2.1887  1.1706 -1.8898
  141OSM   H15G15417   4.803   2.695   5.095 -0.1147  0.7281  1.5751
  141OSM   C16F15418   4.727   2.891   5.176 -0.8645 -0.0278  0.1816
  141OSM   H16F15419   4.708   2.989   5.128 -2.4135 -0.6783 -0.6006
  141OSM   H16G15420   4.822   2.893   5.234  0.8880  1.0558 -2.5646
  141OSM   C17F15421   4.613   2.852   5.267  0.3532 -0.0863 -0.0625
  141OSM   H17F15422   4.618   2.743   5.288  0.4371 -0.0946 -0.1254
  141OSM   H17G15423   4.520   2.859   5.208  0.6496 -0.4158 -0.5787
  141OSM   C18F15424   4.606   2.928   5.394  0.7221  0.1543  0.5602
  141OSM   H18F15425   4.531   3.010   5.386 -0.5814 -1.1173 -0.9700
  141OSM   H18G15426   4.701   2.963   5.440 -0.3743  1.2212  2.1440
  141OSM   H18H15427   4.552   2.873   5.475 -2.6214  0.6908 -1.1211
  142OSM      N15428   4.622   5.898   3.038 -0.6952 -0.6005  0.6175
  142OSM    C1515429   4.550   6.013   2.981 -0.3788  0.3795 -0.2216
  142OSM   H15A15430   4.565   6.102   3.039 -0.4322 -0.7197  1.5647
  142OSM   H15B15431   4.446   5.986   2.975 -0.5336  1.2187 -1.8433
  142OSM   H15C15432   4.577   6.032   2.878  0.1651  1.3784  0.0904
  142OSM    C1415433   4.551   5.854   3.165  0.1353  0.5951 -0.1219
  142OSM   H14A15434   4.601   5.766   3.203 -1.8054 -0.9248 -0.8907
  142OSM   H14B15435   4.446   5.833   3.146  0.0025  1.9489 -1.0219
  142OSM   H14C15436   4.560   5.930   3.241 -0.2703 -0.7309  1.3081
  142OSM    C1315437   4.628   5.793   2.927 -0.0722 -0.6762 -0.4883
  142OSM   H13A15438   4.650   5.830   2.828  2.0272 -2.2182 -0.6663
  142OSM   H13B15439   4.533   5.743   2.916 -0.0453 -0.7342 -0.4554
  142OSM   H13C15440   4.702   5.719   2.952  0.9431  0.6221  0.5212
  142OSM    C1215441   4.761   5.949   3.081 -0.0629 -0.0756 -0.2207
  142OSM   H12A15442   4.742   6.031   3.149 -1.9497  0.3948 -1.2559
  142OSM   H12B15443   4.802   5.992   2.991 -0.2412  2.6276  0.8831
  142OSM    C1115444   4.859   5.849   3.158  0.9438  0.2486  0.0413
  142OSM   H11A15445   4.837   5.870   3.265  1.8225  1.6411 -0.0243
  142OSM   H11B15446   4.963   5.882   3.136  1.4028 -0.0931  1.5891
  142OSM      P15447   4.972   5.623   3.106  0.3673  0.0280  0.5430
  142OSM    O1315448   4.939   5.486   3.051  0.5375  0.3694 -0.1857
  142OSM    O1415449   5.079   5.689   3.035  0.1942 -0.1215 -0.0992
  142OSM    O1115450   5.013   5.605   3.258  1.0866 -0.4494 -0.4135
  142OSM    O1215451   4.847   5.716   3.107  1.1936 -0.0516  0.5039
  142OSM    C1S15452   4.905   5.564   3.344  0.0011 -0.4661 -0.2499
  142OSM    H1S15453   4.873   5.461   3.318  0.2799 -1.6647  3.4370
  142OSM    H1T15454   4.816   5.628   3.328  1.6432  1.5123 -2.0405
  142OSM     NF15455   4.816   5.485   3.559  0.0673 -0.4666  0.1426
  142OSM    HNF15456   4.743   5.531   3.608 -1.4815 -2.6133  0.0171
  142OSM    C2S15457   4.927   5.553   3.496 -0.3614  0.2951  0.2925
  142OSM    H2S15458   5.012   5.482   3.502 -1.5903 -1.1152  1.6238
  142OSM    C3S15459   4.977   5.686   3.557  0.0669 -0.0015 -0.0813
  142OSM    H3S15460   4.911   5.775   3.563  0.9399  0.5536  3.6519
  142OSM     O315461   5.098   5.730   3.488 -0.3947 -0.7807 -0.2738
  142OSM    HO315462   5.100   5.682   3.405 -0.3009  0.1104 -0.7973
  142OSM    C4S15463   5.013   5.678   3.706  1.0031  0.3988  0.6654
  142OSM    H4S15464   5.067   5.587   3.735  2.1321  1.3756  1.7168
  142OSM    C5S15465   4.976   5.772   3.800  0.1021  0.6770 -1.1751
  142OSM    H5S15466   4.924   5.868   3.786 -1.7159 -0.0437  0.1261
  142OSM    C6S15467   5.009   5.765   3.942 -0.4903 -0.0588 -0.2317
  142OSM    H6S15468   4.932   5.830   3.989 -2.0885 -1.6093 -0.5765
  142OSM    H6T15469   5.105   5.815   3.965 -0.3551 -0.7173  0.6652
  142OSM    C7S15470   4.993   5.631   4.024  0.4975 -0.7860 -0.4090
  142OSM    H7S15471   5.060   5.548   3.995 -0.3323 -1.6931  0.2346
  142OSM    H7T15472   4.888   5.594   4.016 -0.3139  1.2091  0.2820
  142OSM    C8S15473   5.015   5.651   4.175 -0.0962  0.5268  0.3726
  142OSM    H8S15474   4.937   5.713   4.224 -0.7347  0.8896 -1.0753
  142OSM    H8T15475   5.109   5.710   4.178  0.2751  0.0743 -1.2830
  142OSM    C9S15476   5.035   5.518   4.248 -0.2623 -0.0126  0.2694
  142OSM    H9S15477   5.129   5.483   4.200 -0.1576 -2.1517  1.8780
  142OSM    H9T15478   4.961   5.437   4.226  0.1514 -1.0791  2.5370
  142OSM   C10S15479   5.060   5.529   4.403 -0.2853  0.2331  0.5389
  142OSM   H10S15480   5.140   5.605   4.403  0.8546 -0.9178  1.5117
  142OSM   H10T15481   5.114   5.440   4.440  1.0482  0.6310 -0.3750
  142OSM   C11S15482   4.933   5.567   4.488 -1.0202 -0.2795 -0.1420
  142OSM   H11S15483   4.877   5.658   4.457 -0.8917  0.8764  2.7516
  142OSM   H11T15484   4.968   5.576   4.593 -1.4357 -1.0063  0.0673
  142OSM   C12S15485   4.828   5.456   4.500 -0.0592  0.1142 -0.1964
  142OSM   H12S15486   4.872   5.357   4.523  0.8269  0.5285 -0.0621
  142OSM   H12T15487   4.790   5.453   4.396  1.5258  0.7708 -0.8138
  142OSM   C13S15488   4.714   5.491   4.593 -0.4739 -0.6939 -0.6110
  142OSM   H13S15489   4.634   5.415   4.576  0.5859 -1.5303 -2.0401
  142OSM   H13T15490   4.670   5.593   4.587  2.2795  0.7087  1.2801
  142OSM   C14S15491   4.739   5.497   4.748  0.2565  0.1599  0.2595
  142OSM   H14S15492   4.826   5.564   4.765  0.0168  1.1253 -1.9353
  142OSM   H14T15493   4.757   5.392   4.781  0.9750  0.1887 -0.0189
  142OSM   C15S15494   4.619   5.551   4.827 -0.7555 -0.2366  0.0473
  142OSM   H15S15495   4.540   5.477   4.803 -1.6034  0.1034  1.6129
  142OSM   H15T15496   4.599   5.655   4.794 -1.1918 -0.2304  0.3240
  142OSM   C16S15497   4.635   5.546   4.981  0.3965 -0.4250 -0.5493
  142OSM   H16S15498   4.613   5.440   5.010 -1.8350 -0.2912 -1.5417
  142OSM   H16T15499   4.552   5.604   5.027 -2.9240 -3.4684 -2.2103
  142OSM   C17S15500   4.771   5.580   5.033  1.0270 -0.8346 -0.4013
  142OSM   H17S15501   4.795   5.664   4.964 -2.9867  1.1247  0.3006
  142OSM   H17T15502   4.841   5.495   5.014  1.6711 -0.4874  0.3881
  142OSM   C18S15503   4.774   5.631   5.176  0.3557 -0.4406 -0.9044
  142OSM   H18S15504   4.693   5.706   5.186  0.9435  0.0147  0.7288
  142OSM   H18T15505   4.876   5.673   5.191  0.2414 -0.5075  0.1490
  142OSM   H18U15506   4.754   5.554   5.254  4.1907 -0.5939  0.1478
  142OSM    C1F15507   4.796   5.359   3.538  0.4303 -0.0447 -0.4465
  142OSM     OF15508   4.882   5.294   3.471 -0.1237 -0.8330 -0.2160
  142OSM    C2F15509   4.670   5.312   3.598 -0.0683  0.3518 -0.3916
  142OSM    H2F15510   4.606   5.274   3.515  1.2894  1.0418 -1.8030
  142OSM    H2G15511   4.614   5.385   3.660 -0.8478 -1.6711  1.4029
  142OSM    C3F15512   4.710   5.202   3.696 -0.2096 -0.0050  0.0261
  142OSM    H3F15513   4.767   5.120   3.647 -1.1964 -0.2570 -0.7472
  142OSM    H3G15514   4.619   5.144   3.722 -0.3207  0.2704  0.2563
  142OSM    C4F15515   4.783   5.256   3.820 -0.0256 -0.0607 -0.3484
  142OSM    H4F15516   4.718   5.320   3.884  1.7610  0.2799  1.2125
  142OSM    H4G15517   4.874   5.313   3.792  0.1891 -0.3601 -0.2638
  142OSM    C5F15518   4.826   5.148   3.917  0.0696  0.5513  0.1099
  142OSM    H5F15519   4.883   5.074   3.857 -0.6360 -0.6075  0.8392
  142OSM    H5G15520   4.736   5.088   3.945  0.7391  0.3570  1.9890
  142OSM    C6F15521   4.904   5.195   4.044 -0.0932 -0.5526  0.1628
  142OSM    H6F15522   4.849   5.265   4.110 -1.2362 -1.6274  0.3935
  142OSM    H6G15523   5.002   5.241   4.019  0.0126  0.3681  2.0920
  142OSM    C7F15524   4.939   5.070   4.124  0.3039 -0.0650  0.1266
  142OSM    H7F15525   4.987   4.995   4.057 -0.8003  1.7218 -2.8917
  142OSM    H7G15526   4.846   5.026   4.164  0.7228 -1.7048 -0.6451
  142OSM    C8F15527   5.034   5.110   4.235  0.6222 -0.6806  0.3004
  142OSM    H8F15528   4.985   5.185   4.301  2.2587  0.1899  0.5801
  142OSM    H8G15529   5.108   5.165   4.173  1.2109 -0.1468  1.4382
  142OSM    C9F15530   5.090   4.988   4.305  0.5136  0.1052  1.0571
  142OSM    H9F15531   5.171   4.938   4.251  0.6156 -0.0909  1.3902
  142OSM   C10F15532   5.051   4.953   4.425 -0.2902 -0.1556 -0.5037
  142OSM   H10F15533   5.094   4.856   4.454  1.1462  0.2657 -1.1082
  142OSM   C11F15534   4.962   5.022   4.524 -0.2156 -0.0188  0.6586
  142OSM   H11F15535   4.976   5.132   4.521  1.5378 -0.1816  1.6939
  142OSM   H11G15536   4.999   4.997   4.626 -0.6936  0.6813  1.0169
  142OSM   C12F15537   4.814   4.995   4.511  0.3769 -0.0413 -1.3520
  142OSM   H12F15538   4.788   4.889   4.528  4.4145 -0.7789  1.3969
  142OSM   H12G15539   4.784   5.024   4.408 -1.7333 -0.4997 -0.9135
  142OSM   C13F15540   4.733   5.085   4.605  0.0872  0.1653 -0.1420
  142OSM   H13F15541   4.771   5.189   4.613 -0.7706  0.4846 -0.1184
  142OSM   H13G15542   4.734   5.030   4.702 -1.1980  1.3325  0.5541
  142OSM   C14F15543   4.577   5.086   4.562  0.3384  0.3204  0.1528
  142OSM   H14F15544   4.541   4.988   4.524 -1.0640  1.1435 -0.7251
  142OSM   H14G15545   4.571   5.163   4.483  0.2560 -0.9569 -1.1191
  142OSM   C15F15546   4.492   5.135   4.690 -0.6169 -0.3548  0.0306
  142OSM   H15F15547   4.530   5.235   4.721 -1.0651 -0.0505 -0.3786
  142OSM   H15G15548   4.507   5.072   4.780  0.4978  0.3709  0.3813
  142OSM   C16F15549   4.346   5.164   4.643  0.5294  0.1477 -0.0145
  142OSM   H16F15550   4.304   5.081   4.583 -0.6608 -1.3561  2.7540
  142OSM   H16G15551   4.335   5.256   4.581 -3.0839 -1.2779 -1.7979
  142OSM   C17F15552   4.250   5.185   4.765  0.5107 -0.6408 -0.1037
  142OSM   H17F15553   4.245   5.091   4.824  2.2771 -0.1275  0.9202
  142OSM   H17G15554   4.149   5.205   4.722  0.4651 -0.6919 -0.0224
  142OSM   C18F15555   4.284   5.300   4.867  0.4571 -0.0494  0.7231
  142OSM   H18F15556   4.212   5.315   4.950  1.9457 -0.4545  2.1327
  142OSM   H18G15557   4.297   5.390   4.803  0.2710  0.9968  2.1183
  142OSM   H18H15558   4.380   5.282   4.918  1.1845 -1.2957 -0.9782
  143OSM      N15559   2.463   2.387   3.085 -0.2117 -0.1217  0.1064
  143OSM    C1515560   2.425   2.334   2.956  0.3872 -0.4480  0.8741
  143OSM   H15A15561   2.513   2.311   2.899 -0.7570 -0.7193 -0.8937
  143OSM   H15B15562   2.375   2.413   2.900  2.3503 -0.0600 -0.4516
  143OSM   H15C15563   2.356   2.251   2.962  0.8231 -1.0101 -1.2514
  143OSM    C1415564   2.506   2.278   3.171 -0.7124  0.2838  0.0179
  143OSM   H14A15565   2.529   2.333   3.261  0.5124  1.3406 -0.8932
  143OSM   H14B15566   2.588   2.228   3.122 -1.4368  2.2966 -3.5886
  143OSM   H14C15567   2.419   2.217   3.186 -0.2089 -1.0504 -2.1394
  143OSM    C1315568   2.574   2.486   3.061  0.0831 -1.5123 -1.1986
  143OSM   H13A15569   2.540   2.570   3.003 -2.0513 -0.7596  0.9719
  143OSM   H13B15570   2.660   2.448   3.009  0.7439 -1.8979  0.1128
  143OSM   H13C15571   2.608   2.535   3.151 -3.4135  1.2547 -1.1645
  143OSM    C1215572   2.342   2.461   3.141  0.2726 -0.1644  0.5453
  143OSM   H12A15573   2.326   2.554   3.088  0.0693 -0.8127 -0.5649
  143OSM   H12B15574   2.365   2.509   3.235 -0.9476  2.8773 -0.6035
  143OSM    C1115575   2.206   2.384   3.149  0.2377 -0.0554 -0.5615
  143OSM   H11A15576   2.152   2.378   3.052 -0.9821 -0.0669  0.1017
  143OSM   H11B15577   2.139   2.448   3.210 -0.0200 -1.0738  0.2465
  143OSM      P15578   2.109   2.171   3.265 -0.0693 -0.1352 -0.1304
  143OSM    O1315579   1.996   2.262   3.299 -0.7244 -0.0620 -0.7605
  143OSM    O1415580   2.078   2.056   3.173  0.8543 -0.1142 -0.3261
  143OSM    O1115581   2.165   2.115   3.401 -0.0807  0.0573 -0.1691
  143OSM    O1215582   2.229   2.255   3.201  0.5814  0.5131 -0.5360
  143OSM    C1S15583   2.300   2.097   3.444 -0.1512  0.2245  0.0627
  143OSM    H1S15584   2.355   2.194   3.441  1.7712 -0.8337 -0.2235
  143OSM    H1T15585   2.358   2.032   3.374 -1.9664 -2.1027  0.5972
  143OSM     NF15586   2.450   2.026   3.631 -0.5521 -0.2483  0.0005
  143OSM    HNF15587   2.485   1.937   3.601 -3.2952 -1.5758  0.3799
  143OSM    C2S15588   2.313   2.042   3.590  0.9778  0.2134  0.2605
  143OSM    H2S15589   2.258   2.122   3.644 -1.1242 -0.0368 -1.3710
  143OSM    C3S15590   2.229   1.911   3.618 -0.2191  0.2452 -0.2487
  143OSM    H3S15591   2.273   1.828   3.557  0.3329  0.2572  0.1206
  143OSM     O315592   2.097   1.918   3.566 -0.2679  0.1048 -0.1428
  143OSM    HO315593   2.102   1.980   3.492 -0.1959  0.3221  0.0414
  143OSM    C4S15594   2.228   1.870   3.761 -0.2973  0.3233 -0.2132
  143OSM    H4S15595   2.130   1.892   3.805 -0.0660 -0.4732  0.7464
  143OSM    C5S15596   2.312   1.789   3.833 -0.1565  0.0144 -0.0936
  143OSM    H5S15597   2.399   1.738   3.789  1.0693  0.3996  1.7985
  143OSM    C6S15598   2.284   1.731   3.965  1.1028 -0.1449 -1.1345
  143OSM    H6S15599   2.219   1.803   4.020  2.0016  0.6467 -1.0744
  143OSM    H6T15600   2.384   1.738   4.012  0.1084  2.6158  0.8422
  143OSM    C7S15601   2.233   1.592   3.963  0.3914  0.3645 -1.9615
  143OSM    H7S15602   2.309   1.537   3.904 -0.9506 -2.8551 -0.9252
  143OSM    H7T15603   2.133   1.580   3.916  0.1644 -0.0419 -1.3931
  143OSM    C8S15604   2.244   1.519   4.096  0.5322  0.4551  0.5750
  143OSM    H8S15605   2.335   1.550   4.151  0.2301 -0.6381  1.7098
  143OSM    H8T15606   2.264   1.411   4.085  2.5880  0.7850  0.6777
  143OSM    C9S15607   2.127   1.548   4.191  0.0376  0.0347  0.1981
  143OSM    H9S15608   2.035   1.495   4.159  0.7657 -1.4281  0.4655
  143OSM    H9T15609   2.116   1.659   4.195 -2.1105  0.0371 -2.3848
  143OSM   C10S15610   2.148   1.516   4.343 -0.5768  0.4292 -0.5088
  143OSM   H10S15611   2.241   1.571   4.370 -0.0359  0.0741 -1.5933
  143OSM   H10T15612   2.167   1.407   4.338  1.3951  0.7592 -0.8576
  143OSM   C11S15613   2.028   1.551   4.435 -0.6272 -0.3338 -0.1501
  143OSM   H11S15614   1.946   1.480   4.412 -0.0446  0.0416 -4.2206
  143OSM   H11T15615   1.993   1.655   4.414 -1.1250 -0.9370 -2.5302
  143OSM   C12S15616   2.064   1.534   4.583 -0.3146  0.5281  0.0629
  143OSM   H12S15617   1.979   1.567   4.647 -0.1872  0.8663  0.0565
  143OSM   H12T15618   2.146   1.604   4.609  0.5483 -0.4722  0.0889
  143OSM   C13S15619   2.084   1.390   4.628  1.1823  0.4280 -0.1164
  143OSM   H13S15620   2.184   1.369   4.584  0.0519  0.3443 -2.8253
  143OSM   H13T15621   2.011   1.318   4.587 -0.0618  0.1943  2.3776
  143OSM   C14S15622   2.080   1.379   4.781 -0.5581  0.4814  0.5647
  143OSM   H14S15623   2.126   1.472   4.821  1.3218  0.3797 -1.1729
  143OSM   H14T15624   2.145   1.293   4.808 -1.9032 -0.6882  0.2113
  143OSM   C15S15625   1.944   1.365   4.844 -0.1241 -0.4476 -0.0970
  143OSM   H15S15626   1.897   1.273   4.803 -1.7386 -0.1195  0.9311
  143OSM   H15T15627   1.886   1.460   4.834  0.9391  0.5216  2.2147
  143OSM   C16S15628   1.967   1.337   4.991 -0.2531 -0.7308  0.3126
  143OSM   H16S15629   2.033   1.413   5.037 -0.5964  1.3822 -2.4537
  143OSM   H16T15630   2.017   1.238   5.002  0.3163 -0.8702 -2.6836
  143OSM   C17S15631   1.834   1.333   5.078  0.1400  0.4735  0.1840
  143OSM   H17S15632   1.788   1.433   5.068 -0.8873 -0.1836 -3.3616
  143OSM   H17T15633   1.865   1.308   5.182 -2.0371 -1.6715  0.4167
  143OSM   C18S15634   1.726   1.237   5.019  0.1656  0.3409 -0.3981
  143OSM   H18S15635   1.636   1.236   5.086  0.1112 -0.0174 -0.4747
  143OSM   H18T15636   1.758   1.130   5.023 -0.6606  0.0837 -0.2259
  143OSM   H18U15637   1.699   1.271   4.917  2.8466  2.0065 -0.6376
  143OSM    C1F15638   2.528   2.136   3.654  0.1201  0.7846 -0.0696
  143OSM     OF15639   2.484   2.252   3.654 -0.1058  0.2278 -0.0397
  143OSM    C2F15640   2.670   2.115   3.659 -0.3719 -0.2194  0.1300
  143OSM    H2F15641   2.732   2.188   3.715 -2.0591 -0.4449  2.4129
  143OSM    H2G15642   2.693   2.123   3.551 -0.7423  2.0003  0.1844
  143OSM    C3F15643   2.714   1.978   3.709 -0.3204  0.6904  0.1729
  143OSM    H3F15644   2.679   1.906   3.632  0.4715  0.1391  0.3181
  143OSM    H3G15645   2.668   1.957   3.808 -1.2932  0.2417 -0.3555
  143OSM    C4F15646   2.862   1.952   3.715 -1.0583  0.6291 -0.3418
  143OSM    H4F15647   2.910   1.957   3.615  0.8843 -1.2543  0.4079
  143OSM    H4G15648   2.879   1.847   3.746  1.1478 -0.0826 -3.4949
  143OSM    C5F15649   2.949   2.033   3.812  0.2205  0.2670  0.0749
  143OSM    H5F15650   2.914   2.138   3.819  2.4811  1.1150 -0.3385
  143OSM    H5G15651   3.058   2.032   3.787  0.1455  1.2083 -0.3265
  143OSM    C6F15652   2.942   1.980   3.957  0.4884  0.3076 -0.4272
  143OSM    H6F15653   2.983   1.877   3.948  0.9359  0.4457 -0.0150
  143OSM    H6G15654   2.837   1.990   3.993  1.3397  0.7990  2.1185
  143OSM    C7F15655   3.038   2.051   4.056 -0.0481 -0.0133  0.9214
  143OSM    H7F15656   3.029   2.162   4.058 -1.2939  0.0388 -1.9134
  143OSM    H7G15657   3.143   2.036   4.025 -0.1392  0.7454  0.1981
  143OSM    C8F15658   3.042   1.989   4.197  0.1687 -0.5947  0.5848
  143OSM    H8F15659   3.137   2.026   4.240  0.6165 -0.1201 -0.7486
  143OSM    H8G15660   3.053   1.879   4.195  2.2509 -0.4876  2.4157
  143OSM    C9F15661   2.929   2.041   4.277 -0.1422  0.1572  0.3572
  143OSM    H9F15662   2.832   2.024   4.227  0.9918  0.8063 -2.2499
  143OSM   C10F15663   2.929   2.112   4.388 -0.2032  0.4271 -0.3948
  143OSM   H10F15664   2.834   2.150   4.429 -0.2059  0.3244 -0.3054
  143OSM   C11F15665   3.043   2.167   4.474 -0.6708 -0.0749  0.3914
  143OSM   H11F15666   3.047   2.277   4.463  1.7600 -0.2531 -1.1057
  143OSM   H11G15667   3.137   2.134   4.426 -1.1438 -1.7961  0.5761
  143OSM   C12F15668   3.062   2.136   4.626  0.0586 -0.2359  0.5375
  143OSM   H12F15669   3.057   2.026   4.642  3.0222 -0.3555  1.1487
  143OSM   H12G15670   2.972   2.174   4.678 -2.0860  0.3038 -3.1905
  143OSM   C13F15671   3.182   2.202   4.691  0.8193  0.7951 -0.7531
  143OSM   H13F15672   3.203   2.310   4.674  0.4725  1.4294  2.2412
  143OSM   H13G15673   3.271   2.137   4.681 -0.8364 -1.5729 -0.9152
  143OSM   C14F15674   3.171   2.192   4.842  0.3418 -0.3765  0.5181
  143OSM   H14F15675   3.277   2.214   4.865 -0.1146  5.1709 -1.1099
  143OSM   H14G15676   3.150   2.091   4.883 -1.9796  0.8506  2.6576
  143OSM   C15F15677   3.092   2.299   4.919  0.5072  0.7528  0.0580
  143OSM   H15F15678   2.993   2.251   4.939  1.5292 -1.3774  0.2888
  143OSM   H15G15679   3.091   2.392   4.859  2.6001  1.0065  0.3369
  143OSM   C16F15680   3.161   2.344   5.048  0.1926  0.2842 -0.6624
  143OSM   H16F15681   3.112   2.441   5.074 -1.6825 -0.2006 -2.1759
  143OSM   H16G15682   3.270   2.354   5.030  0.7624 -0.3110  1.9456
  143OSM   C17F15683   3.137   2.244   5.167 -0.0198 -0.2499 -0.4590
  143OSM   H17F15684   3.149   2.137   5.139  2.1463 -0.5773  1.3883
  143OSM   H17G15685   3.032   2.253   5.202 -0.2270  0.9157 -1.3311
  143OSM   C18F15686   3.232   2.258   5.289 -0.6222 -0.0678  0.0941
  143OSM   H18F15687   3.208   2.344   5.356  1.2705 -0.1238  0.9306
  143OSM   H18G15688   3.332   2.285   5.248 -1.0673  1.2609 -0.1526
  143OSM   H18H15689   3.245   2.160   5.340 -0.0274 -0.9532 -1.6815
  144OSM      N15690   2.855   5.362   3.035 -0.2789  0.4632 -1.1781
  144OSM    C1515691   2.963   5.320   2.946 -0.0016 -0.6142  0.4106
  144OSM   H15A15692   2.926   5.320   2.845  1.1379  0.0281 -0.0284
  144OSM   H15B15693   2.999   5.219   2.961  2.3000 -0.1558 -1.4130
  144OSM   H15C15694   3.043   5.393   2.948  0.5320 -1.0881 -1.3126
  144OSM    C1415695   2.779   5.479   2.983  0.1618  0.0424  0.0211
  144OSM   H14A15696   2.722   5.455   2.895 -0.7501  0.9994  0.3342
  144OSM   H14B15697   2.830   5.571   2.959 -1.4936  0.4183 -2.3859
  144OSM   H14C15698   2.716   5.502   3.067  1.4960 -0.9759  1.3396
  144OSM    C1315699   2.764   5.246   3.033 -0.4033  0.1405 -0.8959
  144OSM   H13A15700   2.717   5.237   3.130  2.9911 -1.3945  0.7959
  144OSM   H13B15701   2.803   5.150   3.005  2.0466  0.5582  0.7325
  144OSM   H13C15702   2.681   5.257   2.965  0.0507  0.1289 -1.4588
  144OSM    C1215703   2.906   5.392   3.175  0.3204  0.2120  0.5076
  144OSM   H12A15704   2.990   5.460   3.177  1.6907 -1.4214  0.6473
  144OSM   H12B15705   2.941   5.297   3.211 -1.5270 -1.0040 -0.7470
  144OSM    C1115706   2.792   5.445   3.282 -0.3067  0.9199  0.5543
  144OSM   H11A15707   2.840   5.434   3.382  1.7162  1.5329 -0.2960
  144OSM   H11B15708   2.709   5.372   3.272 -0.0707  0.9538 -2.8110
  144OSM      P15709   2.846   5.702   3.271  0.2486  0.3596 -0.2730
  144OSM    O1315710   2.948   5.697   3.165 -0.5421  0.6562  0.0766
  144OSM    O1415711   2.768   5.825   3.286 -0.2680  0.0778  0.1485
  144OSM    O1115712   2.920   5.670   3.404  0.1793  0.6941 -0.4408
  144OSM    O1215713   2.744   5.577   3.250 -0.7759 -0.2441 -0.1435
  144OSM    C1S15714   2.854   5.666   3.534  0.0950 -0.2173 -0.4976
  144OSM    H1S15715   2.748   5.636   3.523  0.3357 -1.6993  0.8557
  144OSM    H1T15716   2.843   5.767   3.579 -0.6228 -0.4884 -0.0510
  144OSM     NF15717   2.840   5.536   3.743 -0.1134  0.1276 -0.4231
  144OSM    HNF15718   2.842   5.592   3.826  0.5613  0.5640 -0.7208
  144OSM    C2S15719   2.928   5.582   3.639  0.2677  0.3477 -0.2049
  144OSM    H2S15720   2.967   5.489   3.591  0.8359 -0.0745  1.0086
  144OSM    C3S15721   3.051   5.657   3.704 -0.7403 -0.2178  0.1319
  144OSM    H3S15722   3.017   5.731   3.780 -1.0319  0.8686 -1.0319
  144OSM     O315723   3.113   5.731   3.606  0.2685 -0.1314  0.4039
  144OSM    HO315724   3.060   5.719   3.527 -1.8098  3.0427  1.0834
  144OSM    C4S15725   3.151   5.567   3.763 -0.1233  0.1205 -0.2440
  144OSM    H4S15726   3.203   5.505   3.688  0.0991  2.8891 -2.5026
  144OSM    C5S15727   3.173   5.557   3.899 -0.2034  0.3116 -0.1455
  144OSM    H5S15728   3.117   5.625   3.965 -2.5221  1.5524 -3.1548
  144OSM    C6S15729   3.272   5.455   3.962  0.0865 -0.2889 -0.6899
  144OSM    H6S15730   3.376   5.491   3.947 -0.4317  1.5204 -0.1372
  144OSM    H6T15731   3.264   5.353   3.918  0.7073 -0.3958 -0.5650
  144OSM    C7S15732   3.256   5.433   4.112  0.1938  0.0327 -0.3655
  144OSM    H7S15733   3.151   5.417   4.145 -0.0954  1.5691 -0.4860
  144OSM    H7T15734   3.288   5.529   4.157  0.9641 -0.0595 -0.7112
  144OSM    C8S15735   3.354   5.322   4.169  0.2059 -1.0452  0.0973
  144OSM    H8S15736   3.343   5.227   4.112  2.6844 -0.5712 -1.3157
  144OSM    H8T15737   3.318   5.315   4.274  0.0525 -2.3379 -0.0246
  144OSM    C9S15738   3.507   5.359   4.154  0.0076 -0.2438  0.2961
  144OSM    H9S15739   3.513   5.465   4.186 -2.3127  0.6054 -1.7880
  144OSM    H9T15740   3.524   5.351   4.044 -2.0007 -2.8951  0.0740
  144OSM   C10S15741   3.604   5.258   4.226  0.5265  0.0375 -0.2780
  144OSM   H10S15742   3.571   5.156   4.199 -0.2951  0.4406 -0.8633
  144OSM   H10T15743   3.595   5.266   4.336  0.7826  1.0944 -0.3171
  144OSM   C11S15744   3.754   5.284   4.190  0.2304  0.4835 -0.1107
  144OSM   H11S15745   3.769   5.388   4.228  0.6762  1.2281 -2.2254
  144OSM   H11T15746   3.763   5.283   4.080 -1.1381 -0.2879 -0.2351
  144OSM   C12S15747   3.847   5.190   4.264  0.2551  1.3660 -0.1348
  144OSM   H12S15748   3.849   5.089   4.218 -1.5916  0.7439  1.0342
  144OSM   H12T15749   3.809   5.170   4.367  1.0226 -2.6880 -0.4661
  144OSM   C13S15750   3.993   5.232   4.281  0.3479 -0.1327  0.1490
  144OSM   H13S15751   4.019   5.275   4.182 -0.1516 -1.9667 -0.8103
  144OSM   H13T15752   4.067   5.153   4.307 -1.3221 -1.6921  0.2920
  144OSM   C14S15753   4.010   5.341   4.383  0.0881 -0.2822  0.0984
  144OSM   H14S15754   3.993   5.307   4.487  1.5972  1.1322  0.8658
  144OSM   H14T15755   3.945   5.429   4.362 -0.1919 -0.1749  1.3701
  144OSM   C15S15756   4.159   5.394   4.385  0.1756  0.3995 -0.1156
  144OSM   H15S15757   4.172   5.434   4.282 -0.2403  2.4007  0.5616
  144OSM   H15T15758   4.234   5.311   4.386  0.2761  0.4798 -0.6185
  144OSM   C16S15759   4.177   5.510   4.475 -0.3224 -0.0342 -0.6301
  144OSM   H16S15760   4.194   5.469   4.577  2.9112  0.4938 -0.8283
  144OSM   H16T15761   4.089   5.577   4.470 -1.4435 -1.1965  1.8670
  144OSM   C17S15762   4.308   5.593   4.446 -0.2326  0.2847  0.2229
  144OSM   H17S15763   4.316   5.600   4.335  1.2523  2.4488  0.4155
  144OSM   H17T15764   4.393   5.536   4.489  0.5532  0.3345 -1.2104
  144OSM   C18S15765   4.295   5.737   4.500 -0.1364 -0.4519  0.2324
  144OSM   H18S15766   4.221   5.784   4.432  0.8365 -0.0854 -0.6079
  144OSM   H18T15767   4.391   5.794   4.495 -0.4212 -0.0918 -3.2518
  144OSM   H18U15768   4.254   5.740   4.604 -0.7929 -2.3889  0.0524
  144OSM    C1F15769   2.749   5.444   3.718 -0.0073 -0.3763 -0.1322
  144OSM     OF15770   2.717   5.407   3.605 -0.1040  0.2264 -0.2742
  144OSM    C2F15771   2.686   5.377   3.841 -0.2936  0.2775  0.4176
  144OSM    H2F15772   2.576   5.381   3.834 -0.3105 -0.3594  0.3195
  144OSM    H2G15773   2.727   5.437   3.925 -3.1743  2.1882  0.5927
  144OSM    C3F15774   2.746   5.239   3.846  0.2785 -0.2943 -0.0180
  144OSM    H3F15775   2.729   5.179   3.754 -0.1459 -0.3433  0.0935
  144OSM    H3G15776   2.686   5.187   3.924  0.5098 -1.1643 -0.4036
  144OSM    C4F15777   2.899   5.231   3.874  0.1903 -0.0571 -0.6754
  144OSM    H4F15778   2.920   5.301   3.958 -0.3588 -1.1236  0.3950
  144OSM    H4G15779   2.958   5.261   3.785 -0.0666 -1.1242 -1.2144
  144OSM    C5F15780   2.937   5.085   3.906  0.0853  0.1931  0.1633
  144OSM    H5F15781   2.913   5.008   3.830 -1.9876  1.1473 -0.2291
  144OSM    H5G15782   2.869   5.059   3.990  1.0690 -0.8828  0.6342
  144OSM    C6F15783   3.087   5.079   3.954  0.2296 -0.6749 -1.1153
  144OSM    H6F15784   3.091   5.114   4.059  0.0148 -0.7883 -1.0678
  144OSM    H6G15785   3.141   5.153   3.893 -1.4002  0.2252 -1.5225
  144OSM    C7F15786   3.164   4.948   3.950  0.5767  0.7122  0.1407
  144OSM    H7F15787   3.264   4.979   3.988  0.4269  4.3156 -1.9211
  144OSM    H7G15788   3.157   4.914   3.844 -0.3253  3.8106 -0.9109
  144OSM    C8F15789   3.107   4.832   4.040 -0.7395 -0.0801  0.0737
  144OSM    H8F15790   3.016   4.793   3.990 -2.2092 -0.1551  2.6311
  144OSM    H8G15791   3.067   4.880   4.132  1.3695  0.1415  0.9255
  144OSM    C9F15792   3.209   4.725   4.071  0.5129  0.4194  0.5579
  144OSM    H9F15793   3.249   4.670   3.985 -0.9620  1.6889 -1.0007
  144OSM   C10F15794   3.261   4.700   4.188 -0.1047 -0.5154 -0.1265
  144OSM   H10F15795   3.327   4.614   4.207  0.6026 -0.2242 -1.1632
  144OSM   C11F15796   3.228   4.771   4.322 -0.9467  0.1777  0.7014
  144OSM   H11F15797   3.246   4.706   4.411  0.1173 -0.1529  0.2517
  144OSM   H11G15798   3.123   4.808   4.327 -1.2219 -0.7165  2.3744
  144OSM   C12F15799   3.295   4.908   4.335 -0.6470  0.5787 -0.3053
  144OSM   H12F15800   3.255   4.982   4.263  1.0522  1.8227 -0.0424
  144OSM   H12G15801   3.402   4.893   4.307  0.1702  3.1068  1.1455
  144OSM   C13F15802   3.280   4.973   4.471 -0.6694 -0.2680  0.4360
  144OSM   H13F15803   3.340   5.066   4.458 -1.3630  0.6951  3.3072
  144OSM   H13G15804   3.321   4.911   4.553 -1.0593  0.5589  1.2790
  144OSM   C14F15805   3.135   5.014   4.509 -0.2200  0.2574 -0.5384
  144OSM   H14F15806   3.128   5.084   4.595  0.6066  1.9548 -1.7958
  144OSM   H14G15807   3.074   4.927   4.541 -0.3610  0.9692  1.2809
  144OSM   C15F15808   3.062   5.086   4.403  0.3874  0.2134  0.7561
  144OSM   H15F15809   3.044   5.010   4.324  1.6225  0.5498  0.1342
  144OSM   H15G15810   3.128   5.169   4.373 -0.0407  0.2537 -0.1025
  144OSM   C16F15811   2.926   5.133   4.440 -0.1701  0.5054 -0.4179
  144OSM   H16F15812   2.925   5.217   4.511 -2.2852  0.4405 -0.3374
  144OSM   H16G15813   2.861   5.052   4.478  0.1222  0.0054 -0.9616
  144OSM   C17F15814   2.854   5.193   4.313 -0.4916 -0.3290 -1.0582
  144OSM   H17F15815   2.846   5.110   4.240  0.7422  0.4560 -2.1346
  144OSM   H17G15816   2.918   5.268   4.261  1.5509 -1.8387 -0.8660
  144OSM   C18F15817   2.721   5.272   4.350 -0.7677  0.6706 -0.2162
  144OSM   H18F15818   2.644   5.206   4.396  0.6910 -0.7075  0.3500
  144OSM   H18G15819   2.679   5.318   4.258  0.6487 -0.6589 -1.5686
  144OSM   H18H15820   2.736   5.352   4.426  0.3697 -0.8721  1.2865
  145SAPE     N15821   6.317   5.443   7.496 -0.5198  0.0315 -0.1673
  145SAPE   HN115822   6.381   5.362   7.488  1.9338  1.7508  0.7822
  145SAPE   HN215823   6.375   5.525   7.521  0.3897 -0.7517  0.3317
  145SAPE   HN315824   6.248   5.422   7.571 -0.7025 -0.9922 -0.6034
  145SAPE   C1215825   6.256   5.459   7.357  0.4002 -0.1721 -0.0060
  145SAPE  H12A15826   6.342   5.476   7.289 -0.2085 -0.0503 -0.7658
  145SAPE  H12B15827   6.190   5.548   7.347  0.0123 -0.4864 -0.2838
  145SAPE   C1115828   6.186   5.335   7.316  0.2293 -0.1121 -0.7935
  145SAPE  H11A15829   6.258   5.250   7.314  0.6302 -0.1614  3.8911
  145SAPE  H11B15830   6.145   5.346   7.213 -0.6458 -1.7540 -0.6610
  145SAPE     P15831   5.961   5.379   7.467 -0.4755  0.6174 -0.0947
  145SAPE   O1315832   5.851   5.287   7.479  0.0800 -0.3018 -0.4315
  145SAPE   O1415833   6.003   5.456   7.588  0.1433 -0.6046  0.0960
  145SAPE   O1215834   6.084   5.300   7.412  0.2177  0.6167  0.0852
  145SAPE   O1115835   5.937   5.477   7.347  0.7776  0.5008  0.2002
  145SAPE    C115836   5.805   5.476   7.283 -0.3678  0.5644 -0.2616
  145SAPE    HA15837   5.713   5.477   7.345 -1.2922  1.0148 -1.6040
  145SAPE    HB15838   5.803   5.558   7.208  1.7079  0.4155 -0.5481
  145SAPE    C215839   5.792   5.354   7.186 -0.4841 -0.5467  0.0617
  145SAPE    HS15840   5.816   5.266   7.250 -1.8812  0.8351  2.6509
  145SAPE   O2115841   5.889   5.376   7.078 -0.0641 -0.7765  0.0195
  145SAPE   C2115842   5.918   5.271   7.003  0.0729  0.1376 -0.3888
  145SAPE   O2215843   5.878   5.159   7.021  0.3411 -0.2420 -0.8319
  145SAPE   C2215844   6.012   5.315   6.893  0.2787 -0.7626  0.4147
  145SAPE   H2R15845   5.946   5.379   6.832 -0.0400 -0.4474  1.0729
  145SAPE   H2S15846   6.092   5.370   6.948 -1.8074  3.4285 -0.3572
  145SAPE    C315847   5.651   5.346   7.124 -0.3905  0.6085 -0.5607
  145SAPE    HX15848   5.571   5.361   7.200 -2.9101  0.1389 -2.9719
  145SAPE    HY15849   5.634   5.238   7.103 -1.1285  0.7829 -0.8747
  145SAPE   O3115850   5.637   5.426   7.013 -0.2298  0.3287 -0.2937
  145SAPE   C3115851   5.543   5.386   6.935  0.3810 -0.0232  0.3029
  145SAPE   O3215852   5.463   5.298   6.952  0.1290 -0.4600 -0.3447
  145SAPE   C3215853   5.546   5.475   6.813  0.3875 -0.5007 -0.4186
  145SAPE   H2X15854   5.648   5.472   6.769  1.0612  1.7203  0.8326
  145SAPE   H2Y15855   5.524   5.578   6.848  1.1456 -0.4049 -0.2009
  145SAPE   C2315856   6.077   5.191   6.828 -0.4671 -0.3953 -0.4799
  145SAPE   H3R15857   6.009   5.104   6.822  0.3777 -1.1119  0.2210
  145SAPE   H3S15858   6.165   5.155   6.885  0.6311  1.4429 -0.9194
  145SAPE   C2415859   6.112   5.221   6.684 -0.7851 -0.3005 -0.2081
  145SAPE   H4R15860   6.157   5.129   6.642 -1.2571  0.5491 -2.7520
  145SAPE   H4S15861   6.202   5.286   6.680  0.2725 -1.7395 -0.9268
  145SAPE   C2515862   5.997   5.259   6.598  0.5184  0.7920 -0.0626
  145SAPE   H5R15863   5.911   5.190   6.608  0.8113  0.4043 -0.2021
  145SAPE   C2615864   5.978   5.366   6.517  0.2301  0.5510  0.9414
  145SAPE   H6R15865   5.877   5.386   6.480  0.2819 -2.4487 -1.1649
  145SAPE   C2715866   6.073   5.482   6.487 -0.2918  1.1595 -0.1830
  145SAPE   H7R15867   6.105   5.471   6.381  0.4922 -1.8257  0.2534
  145SAPE   H7S15868   6.162   5.468   6.552 -1.0613 -1.5607  0.4335
  145SAPE   C2815869   5.994   5.610   6.512 -0.0664  0.7020 -0.3280
  145SAPE   H8R15870   6.007   5.645   6.615  1.2169 -1.8271  0.4604
  145SAPE   C2915871   5.914   5.670   6.417  0.2039  0.4011  0.3683
  145SAPE   H9R15872   5.854   5.759   6.441 -1.8061 -1.2048  1.6204
  145SAPE  C21015873   5.891   5.613   6.277  0.1932  0.1743  0.0494
  145SAPE  H10R15874   5.908   5.503   6.273  1.1004  0.2446  1.3002
  145SAPE  H10S15875   5.973   5.658   6.216  0.1085  1.0190  0.5464
  145SAPE  C21115876   5.759   5.651   6.219  0.2445 -0.1196  0.4568
  145SAPE  H11R15877   5.682   5.573   6.231  0.3153 -0.1824  0.5033
  145SAPE  C21215878   5.715   5.766   6.179  0.4251  0.1273  0.2952
  145SAPE  H12R15879   5.615   5.783   6.135  0.6065  3.2793  0.8221
  145SAPE  C21315880   5.802   5.895   6.159  0.2716  0.1663  0.3659
  145SAPE  H13R15881   5.901   5.878   6.206  1.0169 -1.2843 -1.6075
  145SAPE  H13S15882   5.748   5.973   6.217 -0.6500 -0.7809  0.8201
  145SAPE  C21415883   5.826   5.929   6.017  0.4253 -0.5222  0.2850
  145SAPE  H14R15884   5.835   5.834   5.962 -1.0853 -0.3988 -0.2298
  145SAPE  C21515885   5.850   6.048   5.959  0.1690  0.2339 -0.1756
  145SAPE  H15R15886   5.891   6.062   5.857  2.8900  0.1206  0.8123
  145SAPE  C21615887   5.835   6.180   6.022  0.0523  0.2376  0.1952
  145SAPE  H16R15888   5.910   6.245   5.971  1.1213 -2.6550 -2.2262
  145SAPE  H16S15889   5.860   6.191   6.129  1.9674 -0.2265 -0.1784
  145SAPE  C21715890   5.702   6.246   5.998  0.6058  0.3147  0.1188
  145SAPE  H17R15891   5.624   6.173   6.027 -0.7374  1.4589 -0.4863
  145SAPE  H17S15892   5.677   6.262   5.890 -1.8021 -0.1952  0.5485
  145SAPE  C21815893   5.681   6.376   6.064 -0.3301  0.6246 -0.6098
  145SAPE  H18R15894   5.621   6.448   6.005 -0.3137  1.3171  0.1831
  145SAPE  H18S15895   5.779   6.428   6.075 -0.3607  0.3391  1.4569
  145SAPE  C21915896   5.616   6.375   6.204 -0.2227  0.2282 -0.7292
  145SAPE  H19R15897   5.505   6.376   6.192 -0.2427  3.4183 -0.9282
  145SAPE  H19S15898   5.655   6.468   6.249  1.5987 -0.2705 -1.1720
  145SAPE  C22015899   5.646   6.254   6.296 -0.2569  0.1035 -0.6932
  145SAPE  H20R15900   5.625   6.158   6.243  1.9431 -0.0767 -1.3203
  145SAPE  H20S15901   5.584   6.279   6.385  2.5291  1.2368  1.0571
  145SAPE  H20T15902   5.753   6.261   6.325 -0.2226 -1.6471 -0.2679
  145SAPE   C3315903   5.439   5.427   6.710  0.3212 -0.5436  0.4341
  145SAPE   H3X15904   5.335   5.431   6.748  0.0087 -1.6008 -0.2732
  145SAPE   H3Y15905   5.468   5.324   6.679 -0.8536 -1.4610  2.1847
  145SAPE   C3415906   5.453   5.524   6.596  0.2275  0.0693  0.1860
  145SAPE   H4X15907   5.553   5.510   6.549 -0.3519 -3.6799 -0.2713
  145SAPE   H4Y15908   5.447   5.629   6.630  0.6451  0.5535 -1.1750
  145SAPE   C3515909   5.348   5.512   6.484  0.2900  0.4023 -0.6453
  145SAPE   H5X15910   5.246   5.529   6.524  0.3731  1.0852 -0.7086
  145SAPE   H5Y15911   5.339   5.413   6.435 -0.1635  0.3525 -0.4630
  145SAPE   C3615912   5.383   5.620   6.378 -0.2248 -1.0537  0.6678
  145SAPE   H6X15913   5.484   5.613   6.334 -1.1533 -1.5806 -1.5399
  145SAPE   H6Y15914   5.386   5.719   6.429 -0.5938  0.1511 -1.5561
  145SAPE   C3715915   5.285   5.614   6.264  0.2550  0.0099  0.0310
  145SAPE   H7X15916   5.181   5.626   6.301 -1.0040  3.3057 -3.8624
  145SAPE   H7Y15917   5.297   5.516   6.213  0.6492 -0.8564  1.6973
  145SAPE   C3815918   5.312   5.715   6.154 -0.7600 -0.4221 -0.9077
  145SAPE   H8X15919   5.411   5.692   6.109  0.0059  1.3766 -0.2003
  145SAPE   H8Y15920   5.326   5.812   6.206 -1.8413 -0.1479 -1.0938
  145SAPE   C3915921   5.206   5.727   6.045  0.6073 -0.3502  0.1972
  145SAPE   H9X15922   5.104   5.740   6.087  0.7948  1.5064  0.1564
  145SAPE   H9Y15923   5.199   5.630   5.991  1.7379 -0.0473 -0.5276
  145SAPE  C31015924   5.222   5.833   5.938  0.3110 -0.0407 -0.2070
  145SAPE  H10X15925   5.217   5.930   5.993 -0.7949  0.7146 -1.5702
  145SAPE  H10Y15926   5.123   5.836   5.886 -1.0843  1.1777  2.3164
  145SAPE  C31115927   5.344   5.813   5.850  0.2833 -0.4337  0.3719
  145SAPE  H11X15928   5.330   5.717   5.795  2.1609 -0.0405 -0.8869
  145SAPE  H11Y15929   5.433   5.806   5.916 -0.0436 -1.4174  0.7324
  145SAPE  C31215930   5.366   5.915   5.740 -0.1792  0.5983  0.5829
  145SAPE  H12X15931   5.272   5.921   5.681 -0.3432  0.3463  0.8180
  145SAPE  H12Y15932   5.457   5.889   5.681 -1.1291 -1.7971  0.0749
  145SAPE  C31315933   5.411   6.047   5.801 -0.3038  0.2197  0.3586
  145SAPE  H13X15934   5.480   6.032   5.887 -0.2147 -4.1878 -0.2647
  145SAPE  H13Y15935   5.318   6.093   5.840 -0.8110 -0.7595  0.3417
  145SAPE  C31415936   5.468   6.150   5.707  0.1805 -0.3303  0.5155
  145SAPE  H14X15937   5.568   6.117   5.673 -0.1329 -0.0559 -0.7212
  145SAPE  H14Y15938   5.487   6.251   5.748  0.1687  0.4988 -1.4109
  145SAPE  C31515939   5.397   6.167   5.572 -0.4901 -0.1606 -0.0558
  145SAPE  H15X15940   5.376   6.072   5.519  0.9265  0.0186 -1.0042
  145SAPE  H15Y15941   5.479   6.213   5.513 -2.2666 -0.4219 -2.9331
  145SAPE  C31615942   5.268   6.251   5.570 -0.0764 -0.0904 -0.2220
  145SAPE  H16X15943   5.190   6.179   5.604  1.3836 -3.0888 -2.6211
  145SAPE  H16Y15944   5.237   6.265   5.464 -1.0133 -3.9502 -0.6268
  145SAPE  C31715945   5.272   6.390   5.640 -0.8041  0.1595 -0.6279
  145SAPE  H17X15946   5.302   6.371   5.746  0.9856  1.0109 -0.9544
  145SAPE  H17Y15947   5.170   6.433   5.641 -1.0888 -0.4735  0.6298
  145SAPE  C31815948   5.353   6.494   5.577  0.3725  0.3170  0.4078
  145SAPE  H18X15949   5.318   6.597   5.596  1.7358  1.1049 -1.0562
  145SAPE  H18Y15950   5.351   6.487   5.466 -0.7139  1.9659  0.2937
  145SAPE  H18Z15951   5.458   6.494   5.613  0.6917  0.0831 -0.4894
  146SAPE     N15952   0.213   0.638   7.621  0.0557 -0.0131  0.2029
  146SAPE   HN115953   0.166   0.693   7.695 -0.5842  0.2814 -0.4037
  146SAPE   HN215954   0.305   0.601   7.652 -0.1293 -1.5146 -0.8719
  146SAPE   HN315955   0.236   0.712   7.551 -1.4447  1.0531  0.7892
  146SAPE   C1215956   0.124   0.544   7.550 -1.3048  0.3972 -0.5658
  146SAPE  H12A15957   0.014   0.564   7.558 -1.4937 -0.7147 -0.3006
  146SAPE  H12B15958   0.135   0.444   7.597  3.7742  1.2393  0.6095
  146SAPE   C1115959   0.156   0.531   7.401 -0.0687 -0.3541  0.1135
  146SAPE  H11A15960   0.265   0.511   7.391 -0.0521 -1.6973  2.3685
  146SAPE  H11B15961   0.138   0.628   7.349  0.2187 -0.0189  0.6324
  146SAPE     P15962   0.103   0.271   7.347  0.0986 -0.1866  0.0297
  146SAPE   O1315963   0.216   0.254   7.439 -0.1495  0.8443  0.4462
  146SAPE   O1415964  -0.023   0.202   7.385  0.4271 -0.0319  0.0657
  146SAPE   O1215965   0.074   0.428   7.337  0.1032 -0.2872  0.1222
  146SAPE   O1115966   0.151   0.232   7.200 -0.2498 -0.1627  0.2792
  146SAPE    C115967   0.217   0.320   7.112  0.1122 -0.2270 -0.9395
  146SAPE    HA15968   0.270   0.403   7.163 -0.4108 -2.2780  3.4341
  146SAPE    HB15969   0.293   0.268   7.049  1.7708 -0.4983  1.1585
  146SAPE    C215970   0.135   0.386   6.999 -0.5132  1.6363  0.4183
  146SAPE    HS15971   0.064   0.457   7.046 -1.6775  1.4711 -1.0234
  146SAPE   O2115972   0.060   0.280   6.932  0.4336  0.4529  0.1786
  146SAPE   C2115973  -0.062   0.258   6.984 -0.0798 -0.5389 -0.1535
  146SAPE   O2215974  -0.108   0.320   7.077  0.0182 -0.2266  0.5089
  146SAPE   C2215975  -0.141   0.154   6.902 -0.2451 -0.2759  0.3117
  146SAPE   H2R15976  -0.244   0.193   6.896 -0.1202  0.2336  1.4150
  146SAPE   H2S15977  -0.078   0.144   6.811  1.1920  0.1351  1.2312
  146SAPE    C315978   0.231   0.459   6.898 -0.1015 -0.0658  0.6252
  146SAPE    HX15979   0.295   0.529   6.954 -0.5836  1.2495 -0.4113
  146SAPE    HY15980   0.171   0.527   6.833 -0.2362  0.8198  1.6546
  146SAPE   O3115981   0.322   0.367   6.821  0.2812 -0.0730  0.3985
  146SAPE   C3115982   0.291   0.340   6.695 -0.1520  0.1300 -0.1690
  146SAPE   O3215983   0.191   0.378   6.637  0.1552  0.0646  0.2573
  146SAPE   C3215984   0.392   0.239   6.655  0.1867  0.5603  0.3942
  146SAPE   H2X15985   0.389   0.144   6.712 -1.4361  0.1148 -0.3459
  146SAPE   H2Y15986   0.491   0.286   6.672 -0.6677  1.9413  1.7501
  146SAPE   C2315987  -0.160   0.025   6.974  0.6986  0.5760  0.3220
  146SAPE   H3R15988  -0.188   0.062   7.075 -2.8832  1.3797 -0.8466
  146SAPE   H3S15989  -0.066  -0.035   6.978 -0.2259 -1.0844 -1.3391
  146SAPE   C2415990  -0.272  -0.064   6.903 -0.1363 -0.4217  0.5244
  146SAPE   H4R15991  -0.224  -0.160   6.872  0.8984 -0.8295  3.1500
  146SAPE   H4S15992  -0.311  -0.008   6.815  0.3299 -3.3420 -1.6814
  146SAPE   C2515993  -0.388  -0.084   6.997 -0.4935 -0.7547  0.0549
  146SAPE   H5R15994  -0.355  -0.117   7.097  0.9680  1.4708  0.3803
  146SAPE   C2615995  -0.521  -0.060   6.979  0.8276  0.6327 -0.4868
  146SAPE   H6R15996  -0.579  -0.076   7.071  0.5991  0.8046 -0.6026
  146SAPE   C2715997  -0.605  -0.012   6.859  0.1668 -0.2820 -0.6219
  146SAPE   H7R15998  -0.552   0.069   6.803 -1.5244  0.5412 -1.1022
  146SAPE   H7S15999  -0.689   0.044   6.906  0.1954 -1.5971  1.0898
  146SAPE   C2816000  -0.665  -0.114   6.767 -0.2412 -0.4264 -0.2600
  146SAPE   H8R16001  -0.699  -0.209   6.810 -0.1893 -0.8169 -1.0554
  146SAPE   C2916002  -0.666  -0.107   6.627  0.1527  0.1337  0.4265
  146SAPE   H9R16003  -0.707  -0.196   6.577  0.6596 -0.5975  1.2723
  146SAPE  C21016004  -0.615   0.007   6.545 -0.0117  0.5220  0.6865
  146SAPE  H10R16005  -0.504   0.007   6.557 -0.2399  0.2939  3.5463
  146SAPE  H10S16006  -0.663   0.101   6.579  0.1649 -0.4327  3.9317
  146SAPE  C21116007  -0.647  -0.016   6.394  0.1658  0.1184  0.3181
  146SAPE  H11R16008  -0.574  -0.084   6.347  1.2877  0.9997  0.7418
  146SAPE  C21216009  -0.743   0.049   6.315 -0.4666 -0.6211 -0.5357
  146SAPE  H12R16010  -0.766   0.015   6.213  0.3289 -0.5026 -0.7609
  146SAPE  C21316011  -0.851   0.138   6.369  0.6511 -0.4383 -0.1472
  146SAPE  H13R16012  -0.854   0.131   6.480 -0.2868 -1.2398 -0.2178
  146SAPE  H13S16013  -0.951   0.111   6.332  0.3749  0.8617 -0.4070
  146SAPE  C21416014  -0.825   0.279   6.321 -0.3084  0.4638  0.0718
  146SAPE  H14R16015  -0.723   0.319   6.335 -0.4957  0.8187  0.4352
  146SAPE  C21516016  -0.916   0.368   6.278  0.4208 -0.0699 -0.0950
  146SAPE  H15R16017  -0.876   0.469   6.258  1.0914 -0.5120 -1.0295
  146SAPE  C21616018  -1.061   0.364   6.253 -0.0245 -0.2169  0.0850
  146SAPE  H16R16019  -1.097   0.467   6.275  1.2786  0.3993 -0.5582
  146SAPE  H16S16020  -1.112   0.301   6.329 -0.3585  2.4888  2.2739
  146SAPE  C21716021  -1.103   0.317   6.115 -0.7549 -0.4262 -0.4114
  146SAPE  H17R16022  -1.213   0.306   6.109 -0.6821 -1.8571  0.4128
  146SAPE  H17S16023  -1.067   0.213   6.095  1.2200  0.5894 -2.7509
  146SAPE  C21816024  -1.057   0.414   6.002  0.0976 -0.1867 -0.4407
  146SAPE  H18R16025  -1.075   0.363   5.905  0.0837 -2.4719  0.6863
  146SAPE  H18S16026  -0.948   0.420   6.021 -0.0618 -0.6309  0.7131
  146SAPE  C21916027  -1.131   0.552   6.006 -0.0145  1.0339 -0.0497
  146SAPE  H19R16028  -1.100   0.613   6.093 -0.3112  0.5020  0.4340
  146SAPE  H19S16029  -1.241   0.537   6.006  0.1703 -0.4796  0.5750
  146SAPE  C22016030  -1.103   0.632   5.881 -0.1016 -0.6620  0.4097
  146SAPE  H20R16031  -1.082   0.562   5.798 -2.1000  0.4364 -1.0963
  146SAPE  H20S16032  -1.019   0.705   5.877 -0.0631 -0.7534 -0.7474
  146SAPE  H20T16033  -1.196   0.690   5.865 -1.1483 -2.0867  1.1346
  146SAPE   C3316034   0.388   0.215   6.501 -0.6826  0.5213 -0.1515
  146SAPE   H3X16035   0.461   0.278   6.446  1.6167 -1.5773  0.3115
  146SAPE   H3Y16036   0.281   0.228   6.472 -0.3169  1.5170 -1.1368
  146SAPE   C3416037   0.425   0.071   6.462 -0.6742  0.3468  0.1296
  146SAPE   H4X16038   0.387   0.009   6.546 -0.2851 -0.4201 -0.2440
  146SAPE   H4Y16039   0.534   0.056   6.445 -0.1318 -0.5138  3.5759
  146SAPE   C3516040   0.360   0.021   6.331  0.2485 -0.3824  0.1654
  146SAPE   H5X16041   0.407   0.063   6.239  1.1094  0.8957  1.1363
  146SAPE   H5Y16042   0.256   0.058   6.326  0.7481  0.9592 -2.6073
  146SAPE   C3616043   0.367  -0.135   6.323 -0.5049 -0.6408 -0.9814
  146SAPE   H6X16044   0.306  -0.182   6.242 -2.8062  0.9376 -0.2487
  146SAPE   H6Y16045   0.323  -0.174   6.417 -0.0250  2.4872  0.6594
  146SAPE   C3716046   0.507  -0.194   6.307 -0.1660 -0.5407  0.4103
  146SAPE   H7X16047   0.499  -0.304   6.314  2.6293 -0.8872 -0.6019
  146SAPE   H7Y16048   0.576  -0.156   6.385  0.0745  1.1803 -0.5825
  146SAPE   C3816049   0.572  -0.160   6.169 -1.0228 -0.5707  0.5391
  146SAPE   H8X16050   0.677  -0.197   6.171 -0.1200  1.5730 -1.7847
  146SAPE   H8Y16051   0.571  -0.050   6.158 -1.9667 -0.7492 -1.9358
  146SAPE   C3916052   0.499  -0.199   6.046 -0.0540 -0.8487  0.4627
  146SAPE   H9X16053   0.405  -0.140   6.043  0.3263 -0.2733 -2.2959
  146SAPE   H9Y16054   0.462  -0.304   6.049  0.8967 -1.3475 -2.0936
  146SAPE  C31016055   0.579  -0.175   5.913  0.5380  0.2621 -0.7559
  146SAPE  H10X16056   0.662  -0.249   5.913 -0.5865 -1.0556 -0.9534
  146SAPE  H10Y16057   0.632  -0.078   5.919  1.5767 -0.3202 -0.1875
  146SAPE  C31116058   0.492  -0.195   5.790  0.1194 -0.9892  0.4049
  146SAPE  H11X16059   0.418  -0.112   5.791  0.2917 -0.7954  2.5355
  146SAPE  H11Y16060   0.444  -0.292   5.813  0.2998 -1.1899 -0.0591
  146SAPE  C31216061   0.557  -0.207   5.649 -0.3210 -0.1157 -0.1697
  146SAPE  H12X16062   0.471  -0.211   5.579 -2.5658  1.0487  2.3163
  146SAPE  H12Y16063   0.623  -0.297   5.643  0.5697  0.3732  1.5624
  146SAPE  C31316064   0.655  -0.095   5.614 -0.7964  0.2444  0.2051
  146SAPE  H13X16065   0.734  -0.096   5.693 -0.9730 -0.1117  0.3800
  146SAPE  H13Y16066   0.601   0.002   5.619 -2.7578 -0.7820 -0.2873
  146SAPE  C31416067   0.720  -0.113   5.475 -0.2371 -0.1022 -0.0706
  146SAPE  H14X16068   0.645  -0.082   5.399  1.0576  1.6240 -0.7097
  146SAPE  H14Y16069   0.759  -0.215   5.457  1.2715  0.5916 -0.8573
  146SAPE  C31516070   0.843  -0.024   5.440 -0.0523 -0.0982  0.0134
  146SAPE  H15X16071   0.808   0.072   5.483 -0.4913 -0.8120  1.3147
  146SAPE  H15Y16072   0.846  -0.001   5.332 -0.9998 -0.8808 -0.1957
  146SAPE  C31616073   0.969  -0.074   5.503 -0.1984  0.0891  0.1303
  146SAPE  H16X16074   1.006  -0.157   5.439  3.2083  1.8642 -0.4458
  146SAPE  H16Y16075   0.948  -0.112   5.605 -0.9794 -0.0400 -0.0739
  146SAPE  C31716076   1.073   0.040   5.515  0.2618  0.0135 -0.3574
  146SAPE  H17X16077   1.031   0.125   5.573  0.2407 -0.8187  0.8868
  146SAPE  H17Y16078   1.084   0.066   5.407 -0.9644 -2.9239 -1.3062
  146SAPE  C31816079   1.206  -0.012   5.577  0.0481 -0.7079  0.1978
  146SAPE  H18X16080   1.201  -0.028   5.686  0.5595 -0.5999  0.2411
  146SAPE  H18Y16081   1.286   0.059   5.547 -1.9360  0.7226 -2.0754
  146SAPE  H18Z16082   1.231  -0.112   5.534  0.3908  0.3109 -2.1472
  147SAPE     N16083   1.197   3.180   7.332  0.1468  0.0986  0.2332
  147SAPE   HN116084   1.226   3.144   7.425 -0.8678 -2.5197 -0.3938
  147SAPE   HN216085   1.184   3.284   7.336 -0.3006  0.0032  1.4599
  147SAPE   HN316086   1.105   3.142   7.301 -0.5000  1.0365  0.9162
  147SAPE   C1216087   1.313   3.151   7.235  0.5089 -0.3694  0.1130
  147SAPE  H12A16088   1.319   3.042   7.217  0.6382  0.0754 -3.2370
  147SAPE  H12B16089   1.404   3.187   7.288  1.4172 -2.9230  0.4477
  147SAPE   C1116090   1.302   3.214   7.097 -0.2575 -0.2611 -0.4739
  147SAPE  H11A16091   1.201   3.186   7.060 -1.6216  0.8815  2.1108
  147SAPE  H11B16092   1.377   3.173   7.025 -1.0214  1.1852 -2.1712
  147SAPE     P16093   1.434   3.447   7.066  0.1051  0.0310  0.4703
  147SAPE   O1316094   1.389   3.584   7.046 -0.1288  0.0443  0.3859
  147SAPE   O1416095   1.540   3.418   7.163 -0.2425  0.4253  0.4210
  147SAPE   O1216096   1.300   3.360   7.087 -0.6650  0.0913  0.0041
  147SAPE   O1116097   1.480   3.391   6.922  0.4811  0.6299  0.0905
  147SAPE    C116098   1.391   3.377   6.819  0.0137  0.6765 -0.1633
  147SAPE    HA16099   1.394   3.268   6.798 -0.5354  0.7963 -0.8807
  147SAPE    HB16100   1.283   3.383   6.845  0.4612  0.8830  1.8707
  147SAPE    C216101   1.424   3.457   6.689  0.0548  0.1137 -0.7787
  147SAPE    HS16102   1.340   3.458   6.616 -0.8708  1.3931  0.2609
  147SAPE   O2116103   1.544   3.414   6.630  0.7846  0.4070  0.1058
  147SAPE   C2116104   1.525   3.348   6.510  0.9114  0.0646 -0.1674
  147SAPE   O2216105   1.424   3.360   6.442  0.7221  0.4849  0.1137
  147SAPE   C2216106   1.650   3.282   6.453  0.6014  0.2198 -0.0253
  147SAPE   H2R16107   1.732   3.358   6.456  1.5085 -0.7756  0.9647
  147SAPE   H2S16108   1.685   3.202   6.521 -0.2880  0.6079  0.9088
  147SAPE    C316109   1.444   3.603   6.733  0.1188  0.4243  0.4062
  147SAPE    HX16110   1.536   3.618   6.792 -0.5106  1.4675  1.1629
  147SAPE    HY16111   1.360   3.631   6.801 -1.9311 -0.5973 -1.5473
  147SAPE   O3116112   1.457   3.680   6.616 -0.2866 -0.0570  0.1555
  147SAPE   C3116113   1.451   3.813   6.633  0.6930 -0.6991 -0.7387
  147SAPE   O3216114   1.414   3.873   6.733 -0.1129  0.4271 -0.2167
  147SAPE   C3216115   1.527   3.889   6.522  0.0530 -0.2562  0.2946
  147SAPE   H2X16116   1.530   3.995   6.556 -1.7532 -0.8588  2.5923
  147SAPE   H2Y16117   1.471   3.875   6.427 -0.6282  1.3527  0.4238
  147SAPE   C2316118   1.642   3.210   6.307 -0.5193 -0.6213  0.0582
  147SAPE   H3R16119   1.540   3.227   6.266 -0.5963  0.9488  0.8435
  147SAPE   H3S16120   1.650   3.101   6.330 -0.2495 -0.6310 -0.0824
  147SAPE   C2416121   1.743   3.265   6.201  0.9982 -0.4057  0.2644
  147SAPE   H4R16122   1.756   3.184   6.127 -0.3900  0.3177 -0.8269
  147SAPE   H4S16123   1.838   3.276   6.256  1.7902 -2.8033 -0.4893
  147SAPE   C2516124   1.702   3.401   6.145  0.1056  0.5908  0.3921
  147SAPE   H5R16125   1.633   3.466   6.202  0.3225 -0.6798  2.1929
  147SAPE   C2616126   1.732   3.446   6.020  0.3739 -0.1691  0.2790
  147SAPE   H6R16127   1.690   3.541   5.984 -0.6097 -1.0896 -1.0997
  147SAPE   C2716128   1.808   3.371   5.912 -0.3021 -0.0991 -0.3664
  147SAPE   H7R16129   1.735   3.346   5.833 -0.8919  0.1624  0.0904
  147SAPE   H7S16130   1.842   3.272   5.949  0.7768  0.0630 -0.8894
  147SAPE   C2816131   1.923   3.447   5.846 -0.4718  0.4938 -0.9265
  147SAPE   H8R16132   1.984   3.509   5.914 -0.0727 -0.5236 -0.3474
  147SAPE   C2916133   1.965   3.435   5.720  0.2067 -1.1980  0.2647
  147SAPE   H9R16134   2.055   3.490   5.687 -0.1724  0.1817  1.4272
  147SAPE  C21016135   1.906   3.354   5.611 -0.1869 -0.4512  0.2029
  147SAPE  H10R16136   1.820   3.296   5.652  0.2352 -1.7798 -0.7231
  147SAPE  H10S16137   1.978   3.272   5.589 -1.2063 -0.6767 -2.6885
  147SAPE  C21116138   1.873   3.421   5.475  0.6161  0.2519  0.6750
  147SAPE  H11R16139   1.767   3.450   5.471  0.4996 -0.0291  1.5603
  147SAPE  C21216140   1.957   3.445   5.376  0.0425 -0.1197 -0.1467
  147SAPE  H12R16141   1.907   3.493   5.290 -0.8519 -0.7489  0.0103
  147SAPE  C21316142   2.100   3.411   5.354  0.7391 -0.2176 -0.2090
  147SAPE  H13R16143   2.154   3.400   5.451  1.3442  0.2806 -0.4829
  147SAPE  H13S16144   2.141   3.495   5.294 -0.8999 -0.9726 -2.5404
  147SAPE  C21416145   2.100   3.281   5.272 -0.2250  1.0353  0.3228
  147SAPE  H14R16146   2.021   3.205   5.277  0.5364  0.0742 -1.3987
  147SAPE  C21516147   2.197   3.241   5.188 -0.3629 -0.6765 -0.3157
  147SAPE  H15R16148   2.182   3.150   5.129 -0.5285 -0.7040 -0.2304
  147SAPE  C21616149   2.328   3.310   5.165 -0.0767 -0.1601  0.2973
  147SAPE  H16R16150   2.337   3.411   5.211 -0.7270 -0.2720  0.6913
  147SAPE  H16S16151   2.338   3.335   5.057 -2.0819  0.5631  0.2193
  147SAPE  C21716152   2.463   3.234   5.204  0.3639  0.1350 -0.0185
  147SAPE  H17R16153   2.471   3.138   5.149  0.4548  0.4324 -0.5252
  147SAPE  H17S16154   2.469   3.222   5.314  0.6448  1.9979  0.2070
  147SAPE  C21816155   2.589   3.321   5.164 -0.3227 -0.0436  0.3215
  147SAPE  H18R16156   2.677   3.276   5.216 -1.0936 -1.4879  0.4244
  147SAPE  H18S16157   2.574   3.426   5.197  0.1876  0.0899  0.1485
  147SAPE  C21916158   2.613   3.312   5.012 -0.3104 -0.0308 -0.5296
  147SAPE  H19R16159   2.522   3.343   4.957 -0.6656 -1.3222 -0.7048
  147SAPE  H19S16160   2.618   3.204   4.985 -0.1414  0.2198 -1.5560
  147SAPE  C22016161   2.738   3.380   4.960  0.0851 -0.0776 -0.2904
  147SAPE  H20R16162   2.730   3.395   4.850 -0.8951  0.5236 -0.1538
  147SAPE  H20S16163   2.838   3.334   4.976 -0.0888 -0.1363  0.6754
  147SAPE  H20T16164   2.743   3.482   5.004 -1.6002 -0.1414  0.1203
  147SAPE   C3316165   1.673   3.850   6.506 -0.3272  0.1132 -0.2546
  147SAPE   H3X16166   1.660   3.741   6.489 -3.2559  0.4798 -0.9607
  147SAPE   H3Y16167   1.737   3.866   6.595 -0.7413  0.0084  0.0611
  147SAPE   C3416168   1.737   3.920   6.387 -0.4913 -0.1890  1.0096
  147SAPE   H4X16169   1.845   3.894   6.390 -0.7882 -1.5085  0.8516
  147SAPE   H4Y16170   1.740   4.029   6.410  1.1476 -0.2001  0.9689
  147SAPE   C3516171   1.684   3.888   6.245  0.6314  0.1009  0.1164
  147SAPE   H5X16172   1.593   3.950   6.240  1.2132  1.0037  0.4306
  147SAPE   H5Y16173   1.658   3.781   6.228  0.2907  0.4831 -1.9837
  147SAPE   C3616174   1.787   3.916   6.137 -0.8979 -0.4832  0.8732
  147SAPE   H6X16175   1.888   3.897   6.180  0.2061 -0.8043 -1.7039
  147SAPE   H6Y16176   1.791   4.023   6.106  0.7484 -0.6576  0.4011
  147SAPE   C3716177   1.771   3.833   6.014  0.3995  0.5905 -0.0938
  147SAPE   H7X16178   1.801   3.728   6.034  0.3505  0.8691  1.5739
  147SAPE   H7Y16179   1.844   3.864   5.936 -0.2576 -1.7459 -1.7448
  147SAPE   C3816180   1.627   3.842   5.948 -0.4074  0.0584  0.2361
  147SAPE   H8X16181   1.574   3.938   5.939  0.0114  0.2508 -0.2370
  147SAPE   H8Y16182   1.554   3.784   6.009 -0.8934  1.0810  0.6431
  147SAPE   C3916183   1.625   3.779   5.810  0.2621  0.0674  0.3742
  147SAPE   H9X16184   1.661   3.677   5.833 -2.2027 -0.4223  2.4265
  147SAPE   H9Y16185   1.691   3.842   5.746 -0.3828  0.0217 -0.3455
  147SAPE  C31016186   1.488   3.785   5.747 -0.6443  0.8651 -0.2683
  147SAPE  H10X16187   1.432   3.881   5.744 -1.5316  0.3366 -1.4061
  147SAPE  H10Y16188   1.423   3.723   5.813  2.1108 -0.6446  1.1904
  147SAPE  C31116189   1.480   3.696   5.623  0.3062  0.3324  0.3137
  147SAPE  H11X16190   1.531   3.600   5.645  0.0947  0.1427 -0.0150
  147SAPE  H11Y16191   1.541   3.740   5.541 -0.3443  0.2616 -0.2195
  147SAPE  C31216192   1.336   3.666   5.573  0.1327 -0.1049 -0.2974
  147SAPE  H12X16193   1.268   3.634   5.655 -0.2538  3.2082  0.8346
  147SAPE  H12Y16194   1.340   3.582   5.501  0.4417  0.3270 -0.7852
  147SAPE  C31316195   1.274   3.769   5.477  0.4094 -0.0603 -0.0498
  147SAPE  H13X16196   1.245   3.864   5.527  0.2895  1.5973 -3.0361
  147SAPE  H13Y16197   1.178   3.732   5.437  1.1240 -1.7847 -0.2283
  147SAPE  C31416198   1.370   3.799   5.364  0.1372 -0.6600 -0.4577
  147SAPE  H14X16199   1.441   3.715   5.344 -0.0207 -0.4688 -1.9304
  147SAPE  H14Y16200   1.425   3.891   5.394 -2.1514  0.9730 -1.0554
  147SAPE  C31516201   1.308   3.821   5.219 -0.2487  0.1764  0.4719
  147SAPE  H15X16202   1.239   3.908   5.220 -0.4694  0.0128  0.0489
  147SAPE  H15Y16203   1.250   3.731   5.189 -0.7868  0.6533  0.0458
  147SAPE  C31616204   1.414   3.850   5.107 -0.8874  0.6642 -0.5076
  147SAPE  H16X16205   1.483   3.764   5.119 -0.0932  1.4241  0.4808
  147SAPE  H16Y16206   1.472   3.941   5.135 -0.6797 -0.3061  2.5565
  147SAPE  C31716207   1.355   3.841   4.962 -0.0598  0.4633 -0.6838
  147SAPE  H17X16208   1.291   3.751   4.961  1.6364 -0.8269  0.5275
  147SAPE  H17Y16209   1.423   3.818   4.877 -2.2491 -0.2728 -2.3127
  147SAPE  C31816210   1.266   3.965   4.924  0.0371  0.6926  0.1012
  147SAPE  H18X16211   1.316   4.057   4.962  0.4498 -0.3093  2.1145
  147SAPE  H18Y16212   1.166   3.966   4.971  0.1456  0.5490  0.3339
  147SAPE  H18Z16213   1.252   3.965   4.813  0.5218 -0.8715  0.0150
  148SAPE     N16214   3.031   2.363   7.476  0.2730  0.0586 -0.2121
  148SAPE   HN116215   2.931   2.386   7.489  0.4943  0.4085  1.0303
  148SAPE   HN216216   3.050   2.330   7.573 -1.2566 -1.7960 -0.4978
  148SAPE   HN316217   3.072   2.457   7.455 -1.2270  0.7245 -0.2357
  148SAPE   C1216218   3.058   2.266   7.364 -0.0791 -0.0236  0.2265
  148SAPE  H12A16219   2.981   2.187   7.363  0.2655 -0.3754 -0.8688
  148SAPE  H12B16220   3.148   2.206   7.388 -0.4652 -1.9888 -2.6647
  148SAPE   C1116221   3.055   2.331   7.218  0.1556 -0.7629  0.2685
  148SAPE  H11A16222   2.949   2.356   7.198  0.3948  0.3091  0.2235
  148SAPE  H11B16223   3.082   2.239   7.163 -1.2830 -1.3595  0.5259
  148SAPE     P16224   3.297   2.420   7.173 -0.3380  0.0822 -0.1268
  148SAPE   O1316225   3.361   2.554   7.155 -0.6588  0.5422  0.2887
  148SAPE   O1416226   3.350   2.340   7.284  0.1218  0.7309 -0.1038
  148SAPE   O1216227   3.146   2.445   7.195  0.0196 -0.0294  0.3972
  148SAPE   O1116228   3.309   2.337   7.044  0.2179  0.5859 -0.4103
  148SAPE    C116229   3.248   2.403   6.925 -0.5774 -0.0425 -0.6704
  148SAPE    HA16230   3.138   2.417   6.936 -0.8355 -0.5147 -2.4141
  148SAPE    HB16231   3.298   2.499   6.900  0.7981 -0.1434  1.4820
  148SAPE    C216232   3.259   2.301   6.805  0.6986 -0.0494 -0.2878
  148SAPE    HS16233   3.179   2.315   6.729  1.9841 -0.0049 -1.6926
  148SAPE   O2116234   3.262   2.164   6.855  0.0815 -0.2995  0.2208
  148SAPE   C2116235   3.147   2.136   6.902  0.1719  0.2437  0.2361
  148SAPE   O2216236   3.042   2.197   6.891 -0.2714  0.0848 -0.2101
  148SAPE   C2216237   3.154   2.002   6.972  0.4705  0.5424  0.5656
  148SAPE   H2R16238   3.241   1.993   7.041  0.1198  0.5101  1.0057
  148SAPE   H2S16239   3.064   2.007   7.037  0.3481 -1.6375  0.6259
  148SAPE    C316240   3.384   2.313   6.723 -0.3811 -0.9446  0.4371
  148SAPE    HX16241   3.356   2.249   6.636 -0.7275 -0.3947  0.1391
  148SAPE    HY16242   3.472   2.269   6.774  0.7475  0.4501 -0.2330
  148SAPE   O3116243   3.393   2.450   6.680  0.2247  0.3652 -0.7650
  148SAPE   C3116244   3.512   2.514   6.674  0.0090 -0.1295  0.2388
  148SAPE   O3216245   3.622   2.469   6.711 -0.0810 -0.1158 -0.3048
  148SAPE   C3216246   3.495   2.642   6.604 -0.1013 -0.0227 -0.8529
  148SAPE   H2X16247   3.547   2.719   6.666 -1.2843  0.6259 -0.6365
  148SAPE   H2Y16248   3.391   2.679   6.598  0.5520  2.4617  1.1528
  148SAPE   C2316249   3.152   1.890   6.869 -0.7243  0.0662 -0.7012
  148SAPE   H3R16250   3.064   1.890   6.801 -1.4532 -0.2460  0.2197
  148SAPE   H3S16251   3.139   1.787   6.909 -0.2734  0.2954  0.0527
  148SAPE   C2416252   3.268   1.886   6.770  0.3077 -0.3117 -0.0994
  148SAPE   H4R16253   3.366   1.868   6.819 -0.7089 -2.3439  1.3683
  148SAPE   H4S16254   3.266   1.986   6.721 -1.2190 -0.4013 -0.2733
  148SAPE   C2516255   3.261   1.773   6.671 -0.6166  0.8150  0.6848
  148SAPE   H5R16256   3.213   1.683   6.713  1.1431 -0.5988 -0.1816
  148SAPE   C2616257   3.286   1.786   6.539  0.5978 -0.2262  0.1582
  148SAPE   H6R16258   3.285   1.696   6.476  0.1927 -0.2222  0.1577
  148SAPE   C2716259   3.342   1.908   6.467  0.5732 -0.1771  0.7288
  148SAPE   H7R16260   3.269   1.990   6.488  0.8426 -0.0093  1.0179
  148SAPE   H7S16261   3.351   1.893   6.358 -1.1327 -1.0909  0.6670
  148SAPE   C2816262   3.480   1.962   6.519  0.4424  0.7480  0.0429
  148SAPE   H8R16263   3.484   1.981   6.627  2.0535  0.4530  0.0677
  148SAPE   C2916264   3.588   2.006   6.448 -0.4389 -0.4652 -0.7349
  148SAPE   H9R16265   3.668   2.054   6.507  0.1495 -1.5339 -0.6556
  148SAPE  C21016266   3.604   2.003   6.300 -0.5271 -0.1183  1.0496
  148SAPE  H10R16267   3.603   1.897   6.268  1.9168 -0.8758  3.2096
  148SAPE  H10S16268   3.709   2.025   6.271 -0.2471 -1.2527  1.1929
  148SAPE  C21116269   3.511   2.091   6.213 -0.9042 -0.3018  0.0075
  148SAPE  H11R16270   3.439   2.159   6.260 -0.1935  0.7322 -0.3657
  148SAPE  C21216271   3.508   2.081   6.080 -0.2595 -0.3522 -0.2130
  148SAPE  H12R16272   3.437   2.136   6.017 -0.4771 -0.9309 -0.4836
  148SAPE  C21316273   3.598   1.988   6.004 -0.2232  0.0143  0.2171
  148SAPE  H13R16274   3.530   1.901   5.991  0.5254 -0.5097 -0.3086
  148SAPE  H13S16275   3.689   1.945   6.052 -0.3252 -0.9175 -0.3977
  148SAPE  C21416276   3.626   2.047   5.867  0.0417 -0.3634 -0.7725
  148SAPE  H14R16277   3.558   2.001   5.793 -1.1627 -1.1018  0.7343
  148SAPE  C21516278   3.742   2.110   5.839  0.0413 -0.8650 -0.4910
  148SAPE  H15R16279   3.746   2.127   5.731 -1.2354  0.1483 -0.3987
  148SAPE  C21616280   3.857   2.151   5.925 -0.7278  1.0421 -0.1628
  148SAPE  H16R16281   3.861   2.118   6.031 -0.3847 -1.6347 -0.9218
  148SAPE  H16S16282   3.847   2.261   5.923 -0.8611  1.0249 -0.6699
  148SAPE  C21716283   3.997   2.104   5.867 -0.3808  0.3483  0.7189
  148SAPE  H17R16284   3.998   1.994   5.852 -2.3422  0.2175  1.2664
  148SAPE  H17S16285   4.078   2.138   5.935 -0.2828 -0.9029  1.2503
  148SAPE  C21816286   4.021   2.174   5.723  0.8524  0.0834  0.2165
  148SAPE  H18R16287   3.956   2.124   5.647  0.1547  0.5864  0.4679
  148SAPE  H18S16288   4.124   2.144   5.694  0.4991  1.0348 -2.3112
  148SAPE  C21916289   4.006   2.322   5.719 -1.1495  0.1277  0.2279
  148SAPE  H19R16290   4.065   2.339   5.812  0.4400 -1.4028 -0.4360
  148SAPE  H19S16291   3.903   2.361   5.731 -0.0897  3.1662  0.2911
  148SAPE  C22016292   4.068   2.404   5.602  0.1622  0.3907  0.3379
  148SAPE  H20R16293   4.075   2.513   5.624 -2.4315  1.0086 -1.5031
  148SAPE  H20S16294   4.023   2.383   5.503 -0.2896 -1.5824  0.9184
  148SAPE  H20T16295   4.166   2.354   5.591  0.0710  0.7654 -2.9786
  148SAPE   C3316296   3.556   2.649   6.465  0.8201  0.1694  0.1885
  148SAPE   H3X16297   3.659   2.609   6.478  1.0385 -0.1136 -2.0124
  148SAPE   H3Y16298   3.580   2.756   6.446 -2.0191  1.0103  0.9385
  148SAPE   C3416299   3.477   2.581   6.356 -1.2781 -0.1058 -0.2102
  148SAPE   H4X16300   3.378   2.632   6.353 -1.4636 -0.2938  1.4815
  148SAPE   H4Y16301   3.449   2.474   6.369 -2.9299  0.1770 -1.1209
  148SAPE   C3516302   3.548   2.600   6.225 -0.6154  0.4808 -0.5452
  148SAPE   H5X16303   3.654   2.569   6.217 -0.1237  1.4444  1.5501
  148SAPE   H5Y16304   3.552   2.708   6.199 -0.7405  0.8416  0.8721
  148SAPE   C3616305   3.478   2.526   6.116  0.6152 -0.6537  0.2406
  148SAPE   H6X16306   3.376   2.561   6.089  1.2458  1.5110  0.4454
  148SAPE   H6Y16307   3.451   2.423   6.147 -2.4733  0.0732  0.2077
  148SAPE   C3716308   3.556   2.526   5.982 -0.3602  0.2372 -0.9259
  148SAPE   H7X16309   3.649   2.467   5.998 -0.4320  1.0942  4.4584
  148SAPE   H7Y16310   3.581   2.631   5.955 -0.0558  0.6120  0.7379
  148SAPE   C3816311   3.466   2.466   5.875 -0.0325  0.6561 -0.4744
  148SAPE   H8X16312   3.371   2.525   5.880 -0.4048  0.0751 -0.6095
  148SAPE   H8Y16313   3.449   2.360   5.902 -0.4263  1.1318  1.2390
  148SAPE   C3916314   3.530   2.477   5.734  0.6040  0.1146 -0.0629
  148SAPE   H9X16315   3.634   2.442   5.743  1.2248  1.6434 -0.9064
  148SAPE   H9Y16316   3.530   2.585   5.708  0.9211  0.5076  1.4826
  148SAPE  C31016317   3.458   2.398   5.629  0.0279 -0.3757 -0.5635
  148SAPE  H10X16318   3.351   2.421   5.647  0.3238  0.3682  0.3177
  148SAPE  H10Y16319   3.465   2.289   5.651 -0.6473 -0.8385 -2.4565
  148SAPE  C31116320   3.502   2.431   5.493  0.5373  0.0664  0.2432
  148SAPE  H11X16321   3.481   2.535   5.461 -0.0740 -0.2914 -0.5548
  148SAPE  H11Y16322   3.437   2.375   5.422 -0.4114  0.2710  0.9255
  148SAPE  C31216323   3.642   2.397   5.461 -0.3978  0.2335 -0.4642
  148SAPE  H12X16324   3.714   2.432   5.538 -0.1727  0.5488 -0.8148
  148SAPE  H12Y16325   3.660   2.453   5.367 -0.4616 -0.5550 -0.9587
  148SAPE  C31316326   3.656   2.240   5.443 -0.0262 -0.6032  0.1692
  148SAPE  H13X16327   3.575   2.204   5.377  0.3060  1.3834 -1.4131
  148SAPE  H13Y16328   3.644   2.191   5.542  0.2226  1.2186  1.1449
  148SAPE  C31416329   3.781   2.203   5.368 -0.0080 -0.1787 -0.2270
  148SAPE  H14X16330   3.862   2.235   5.435 -2.1843 -0.4666  2.7527
  148SAPE  H14Y16331   3.781   2.263   5.274 -0.4318  0.5008  0.1947
  148SAPE  C31516332   3.793   2.059   5.330 -0.5196 -0.1080 -0.8512
  148SAPE  H15X16333   3.722   2.042   5.247 -1.1167 -1.1532 -0.1467
  148SAPE  H15Y16334   3.770   2.000   5.421  0.1905 -0.0265 -0.6081
  148SAPE  C31616335   3.926   2.016   5.264  0.3367 -0.3981 -0.2591
  148SAPE  H16X16336   4.011   2.009   5.335 -0.1858 -1.7121  0.2701
  148SAPE  H16Y16337   3.954   2.101   5.198  0.9140  1.6013  2.3777
  148SAPE  C31716338   3.912   1.884   5.201  0.4327 -0.2782 -0.6339
  148SAPE  H17X16339   4.011   1.854   5.159  2.6601  1.7438  2.7514
  148SAPE  H17Y16340   3.826   1.888   5.131  0.7913 -0.6728 -1.1086
  148SAPE  C31816341   3.887   1.780   5.311 -0.3164 -0.5910  0.3633
  148SAPE  H18X16342   3.794   1.793   5.370  0.1581  1.1458  0.7994
  148SAPE  H18Y16343   3.974   1.791   5.380 -0.8167  2.2281  0.6427
  148SAPE  H18Z16344   3.875   1.680   5.265 -0.7844 -0.8945  1.1295
  149SAPE     N16345   5.648   6.645   7.457  0.2187 -0.4404 -0.4121
  149SAPE   HN116346   5.554   6.649   7.411  0.7936  1.1193 -1.5312
  149SAPE   HN216347   5.655   6.555   7.508 -0.4925  0.0804  0.6381
  149SAPE   HN316348   5.652   6.719   7.530 -1.1953 -1.3920  0.6841
  149SAPE   C1216349   5.740   6.670   7.340  0.3544 -0.2793  0.0760
  149SAPE  H12A16350   5.725   6.595   7.260  1.1160 -1.4788  1.0168
  149SAPE  H12B16351   5.846   6.655   7.369  0.1454 -0.7447  0.6518
  149SAPE   C1116352   5.714   6.808   7.294  0.2073 -0.4139  0.5945
  149SAPE  H11A16353   5.614   6.824   7.248  1.2104  0.5040 -1.4295
  149SAPE  H11B16354   5.779   6.826   7.206  0.8882 -5.5151 -0.2473
  149SAPE     P16355   5.860   6.988   7.416 -0.0825  0.3996 -0.1231
  149SAPE   O1316356   5.850   7.080   7.531  0.3924  0.4310  0.2389
  149SAPE   O1416357   5.969   6.894   7.418 -0.5687  0.2893 -0.0119
  149SAPE   O1216358   5.723   6.905   7.402 -0.4504  0.8297 -0.0523
  149SAPE   O1116359   5.875   7.065   7.282 -0.2679 -0.4946 -0.6120
  149SAPE    C116360   5.772   7.124   7.201 -0.3898 -0.2287  0.4662
  149SAPE    HA16361   5.708   7.054   7.143 -1.2720 -0.3113  1.4983
  149SAPE    HB16362   5.702   7.178   7.269 -0.5542  0.4112 -0.2092
  149SAPE    C216363   5.829   7.243   7.114 -0.3805  0.0599 -0.5329
  149SAPE    HS16364   5.743   7.299   7.072  0.6804  0.6855 -1.9532
  149SAPE   O2116365   5.923   7.198   7.017  0.1302  0.1280 -0.4078
  149SAPE   C2116366   5.874   7.132   6.917 -0.6597  0.3497 -0.2670
  149SAPE   O2216367   5.762   7.107   6.885  0.6735  0.2130 -0.2419
  149SAPE   C2216368   5.995   7.084   6.839  0.0059 -0.9408 -0.7714
  149SAPE   H2R16369   6.058   7.031   6.914  0.5110 -1.2430 -1.3960
  149SAPE   H2S16370   5.957   7.008   6.767 -0.6730 -0.1441 -1.2666
  149SAPE    C316371   5.892   7.345   7.212 -1.0188 -0.2832  0.2940
  149SAPE    HX16372   5.980   7.296   7.258 -1.5525 -0.4572  1.1530
  149SAPE    HY16373   5.825   7.375   7.296 -0.5297 -1.1025  0.9895
  149SAPE   O3116374   5.947   7.468   7.155  0.0252  0.3206  0.0952
  149SAPE   C3116375   5.870   7.563   7.103 -0.0537 -0.0207 -0.3015
  149SAPE   O3216376   5.749   7.557   7.088 -0.2852 -0.3948 -0.1792
  149SAPE   C3216377   5.948   7.694   7.087 -0.3988  0.1259  0.6206
  149SAPE   H2X16378   6.009   7.677   6.995 -1.1646  0.2929  0.0779
  149SAPE   H2Y16379   6.004   7.718   7.180  0.9351 -0.2467 -0.0542
  149SAPE   C2316380   6.080   7.197   6.782 -0.7393  0.7473  0.2593
  149SAPE   H3R16381   6.171   7.148   6.742  0.3556  0.7103  2.6298
  149SAPE   H3S16382   6.115   7.253   6.872  0.9604 -2.0161  1.4222
  149SAPE   C2416383   6.003   7.289   6.683  0.0895 -0.0890 -0.2127
  149SAPE   H4R16384   5.946   7.215   6.623 -2.3927 -0.4767  2.3535
  149SAPE   H4S16385   6.079   7.346   6.627 -1.7516 -0.2759 -3.0911
  149SAPE   C2516386   5.926   7.400   6.747  0.0780  0.7612 -0.3247
  149SAPE   H5R16387   5.976   7.443   6.835  2.0968 -0.8054 -0.6510
  149SAPE   C2616388   5.808   7.446   6.707  0.0921  0.0173  0.9246
  149SAPE   H6R16389   5.767   7.530   6.764 -0.2618  0.7220 -0.3324
  149SAPE   C2716390   5.736   7.388   6.584  0.0680 -0.8960 -0.3690
  149SAPE   H7R16391   5.796   7.381   6.491 -1.5344 -1.1352 -1.4251
  149SAPE   H7S16392   5.652   7.460   6.571 -1.3208 -2.1801  1.0994
  149SAPE   C2816393   5.668   7.260   6.594 -0.4114 -0.1307 -0.6880
  149SAPE   H8R16394   5.674   7.212   6.693 -0.4736 -1.2014 -1.1883
  149SAPE   C2916395   5.589   7.197   6.500 -0.5174 -0.1921  0.0726
  149SAPE   H9R16396   5.559   7.093   6.520 -2.9119  0.4453  0.1411
  149SAPE  C21016397   5.548   7.260   6.371  0.2113  0.4317  0.3045
  149SAPE  H10R16398   5.605   7.355   6.368 -1.1534  1.3264  1.4978
  149SAPE  H10S16399   5.442   7.287   6.390  0.0661 -1.2381  2.2149
  149SAPE  C21116400   5.571   7.174   6.248  0.7892  0.0775  0.0634
  149SAPE  H11R16401   5.624   7.079   6.265  2.5059  1.0747  0.5789
  149SAPE  C21216402   5.532   7.204   6.122  0.2787 -0.2340 -0.0156
  149SAPE  H12R16403   5.541   7.131   6.040  1.0266 -1.9291  1.5181
  149SAPE  C21316404   5.447   7.332   6.082 -0.4391  0.4695  0.1295
  149SAPE  H13R16405   5.522   7.408   6.052  1.7695 -1.6111  0.0988
  149SAPE  H13S16406   5.386   7.364   6.170 -4.1151 -2.8110 -0.9331
  149SAPE  C21416407   5.345   7.297   5.981  0.3567  0.6444  0.3511
  149SAPE  H14R16408   5.257   7.247   6.024  0.5959 -1.2935 -1.2283
  149SAPE  C21516409   5.346   7.306   5.847 -0.1958 -0.5797 -0.0472
  149SAPE  H15R16410   5.267   7.277   5.775  2.3027 -0.9070 -2.8734
  149SAPE  C21616411   5.456   7.375   5.771 -0.4145  0.0475 -0.5638
  149SAPE  H16R16412   5.535   7.409   5.841 -1.0801 -0.3927  0.4293
  149SAPE  H16S16413   5.418   7.469   5.727  3.0269  0.6775 -2.5363
  149SAPE  C21716414   5.506   7.295   5.652  0.0974  0.2160  0.6922
  149SAPE  H17R16415   5.548   7.371   5.582 -1.5648  0.3410 -0.2027
  149SAPE  H17S16416   5.440   7.218   5.609 -1.1855  2.2041 -1.0941
  149SAPE  C21816417   5.629   7.212   5.703 -0.6558  0.2760 -0.2281
  149SAPE  H18R16418   5.601   7.147   5.789 -3.0646 -2.0729 -2.6239
  149SAPE  H18S16419   5.700   7.275   5.761 -1.4217 -0.7014  1.8550
  149SAPE  C21916420   5.717   7.158   5.596  0.4440 -0.8081 -0.6648
  149SAPE  H19R16421   5.754   7.246   5.539  0.9047  1.0924  2.3350
  149SAPE  H19S16422   5.660   7.085   5.535 -1.8261 -2.0938  2.6855
  149SAPE  C22016423   5.841   7.076   5.637  0.0983 -0.3612  0.6822
  149SAPE  H20R16424   5.822   6.999   5.714  0.7684 -1.5114 -0.2662
  149SAPE  H20S16425   5.917   7.151   5.667  0.4964 -0.0825 -0.8912
  149SAPE  H20T16426   5.887   7.026   5.548  0.1318  1.7245 -0.5464
  149SAPE   C3316427   5.850   7.814   7.057  0.4214 -0.1924  0.3320
  149SAPE   H3X16428   5.888   7.913   7.091 -0.4777  0.0625  0.6282
  149SAPE   H3Y16429   5.769   7.801   7.132 -1.1968 -3.2037 -1.7257
  149SAPE   C3416430   5.793   7.831   6.919  0.0337  0.2548  0.1643
  149SAPE   H4X16431   5.703   7.895   6.932 -1.6560 -1.5576 -1.9290
  149SAPE   H4Y16432   5.734   7.741   6.892  0.6424  0.0877 -0.6450
  149SAPE   C3516433   5.888   7.885   6.814  0.1616 -0.8016  0.2640
  149SAPE   H5X16434   5.957   7.804   6.782  1.1022 -0.5463  1.5871
  149SAPE   H5Y16435   5.957   7.961   6.856 -1.0830  0.6357 -0.1805
  149SAPE   C3616436   5.810   7.943   6.689 -0.2766 -0.4103 -0.7479
  149SAPE   H6X16437   5.878   8.009   6.631  0.1217  0.5813  0.7712
  149SAPE   H6Y16438   5.746   8.022   6.735  0.9276  1.0850 -1.5294
  149SAPE   C3716439   5.715   7.841   6.618  0.3339  0.2139 -0.3324
  149SAPE   H7X16440   5.628   7.811   6.681  0.3143  1.2049  0.1360
  149SAPE   H7Y16441   5.779   7.754   6.592 -0.4530 -0.5354  0.1561
  149SAPE   C3816442   5.661   7.894   6.487  0.8881 -0.3663  0.1420
  149SAPE   H8X16443   5.739   7.958   6.440  1.8842 -0.3595  1.7373
  149SAPE   H8Y16444   5.577   7.958   6.523 -0.5103 -3.1662  2.1945
  149SAPE   C3916445   5.605   7.782   6.392  1.1271  0.0157  0.0868
  149SAPE   H9X16446   5.532   7.712   6.438 -0.9011  1.1724 -1.2122
  149SAPE   H9Y16447   5.692   7.724   6.356 -0.0562 -0.9681 -1.2944
  149SAPE  C31016448   5.519   7.829   6.271  0.2606 -0.7032 -0.2550
  149SAPE  H10X16449   5.574   7.914   6.225 -0.0500  0.5008  1.4986
  149SAPE  H10Y16450   5.423   7.863   6.315  0.8560  2.5597 -1.2224
  149SAPE  C31116451   5.493   7.723   6.170  0.3962  0.0279  0.1876
  149SAPE  H11X16452   5.433   7.643   6.219  0.6717  1.5526  3.2229
  149SAPE  H11Y16453   5.588   7.676   6.135 -0.1642 -0.7870 -0.2890
  149SAPE  C31216454   5.430   7.778   6.044  0.2684  1.0259 -0.6022
  149SAPE  H12X16455   5.508   7.819   5.977  1.9764 -0.4607  0.4040
  149SAPE  H12Y16456   5.358   7.859   6.070  0.7104  0.8831  1.1573
  149SAPE  C31316457   5.354   7.670   5.959  0.2086 -0.5336 -0.9062
  149SAPE  H13X16458   5.282   7.611   6.019 -0.1836  0.5275 -0.2883
  149SAPE  H13Y16459   5.429   7.593   5.930  0.0890 -0.5337 -1.2124
  149SAPE  C31416460   5.267   7.720   5.838  0.0186  0.6831  0.2351
  149SAPE  H14X16461   5.180   7.782   5.867 -1.9855 -2.3097  1.1190
  149SAPE  H14Y16462   5.218   7.629   5.799 -0.9440  1.7223 -1.0453
  149SAPE  C31516463   5.343   7.783   5.721  0.1149  0.3870  0.4291
  149SAPE  H15X16464   5.440   7.729   5.710 -0.5690 -0.7825 -0.0663
  149SAPE  H15Y16465   5.376   7.885   5.749 -2.0377  2.0003 -2.3320
  149SAPE  C31616466   5.253   7.784   5.597 -0.5169  0.3001 -0.5583
  149SAPE  H16X16467   5.304   7.849   5.523 -0.2047  1.9437  1.0264
  149SAPE  H16Y16468   5.152   7.819   5.630  0.0463  1.7535 -0.2986
  149SAPE  C31716469   5.247   7.643   5.537  0.6720  0.2822  0.3989
  149SAPE  H17X16470   5.169   7.641   5.459  0.2731  0.4450  0.7924
  149SAPE  H17Y16471   5.213   7.566   5.609 -0.1885  2.7308  2.7836
  149SAPE  C31816472   5.369   7.598   5.447  0.1574 -0.0552  0.0031
  149SAPE  H18X16473   5.371   7.670   5.362 -1.7504 -0.2550 -0.2500
  149SAPE  H18Y16474   5.359   7.500   5.396  0.6524 -0.7525  1.2170
  149SAPE  H18Z16475   5.469   7.605   5.496 -0.3356 -0.8374  1.1557
  150SAPE     N16476   4.100   5.905   7.490  0.1094 -0.6004  0.5366
  150SAPE   HN116477   4.175   5.949   7.547  1.7208 -2.8393  0.2817
  150SAPE   HN216478   4.041   5.838   7.542 -0.3718 -1.0703 -0.5840
  150SAPE   HN316479   4.148   5.854   7.413  2.3002 -0.1177  1.5060
  150SAPE   C1216480   4.007   6.014   7.440 -0.0902 -0.3546  0.4249
  150SAPE  H12A16481   3.906   5.974   7.418 -0.1922  0.3445 -0.4276
  150SAPE  H12B16482   4.048   6.040   7.340  1.0698  2.0622  1.4431
  150SAPE   C1116483   4.001   6.141   7.530 -0.0962 -0.3019  0.4130
  150SAPE  H11A16484   3.941   6.217   7.476  1.4690  1.2424  0.7724
  150SAPE  H11B16485   4.103   6.182   7.544  0.5425 -0.5860 -2.6902
  150SAPE     P16486   3.894   6.196   7.762  0.1174  0.4514 -0.2363
  150SAPE   O1316487   3.838   6.112   7.867 -1.1028 -0.2890 -0.4932
  150SAPE   O1416488   3.999   6.291   7.812 -0.0190 -0.4740  0.1491
  150SAPE   O1216489   3.937   6.107   7.647  0.3426 -0.6537 -0.1369
  150SAPE   O1116490   3.774   6.279   7.693 -0.3065 -0.1246 -0.7323
  150SAPE    C116491   3.653   6.209   7.655 -0.0896 -0.1043 -0.3732
  150SAPE    HA16492   3.655   6.101   7.681  1.9219  0.1886  0.9163
  150SAPE    HB16493   3.566   6.255   7.707 -0.2819  0.1525 -0.9166
  150SAPE    C216494   3.639   6.212   7.491  0.1727 -0.4399 -0.5829
  150SAPE    HS16495   3.712   6.134   7.460 -0.1622 -0.8156 -0.4482
  150SAPE   O2116496   3.655   6.345   7.440  0.3500 -0.5425  0.0442
  150SAPE   C2116497   3.733   6.363   7.336  0.5315 -0.5857 -0.0662
  150SAPE   O2216498   3.793   6.274   7.275 -0.1597 -0.2492  0.1605
  150SAPE   C2216499   3.731   6.517   7.304  0.4205  0.4478 -0.3777
  150SAPE   H2R16500   3.743   6.578   7.397 -1.1813  1.5253 -0.8349
  150SAPE   H2S16501   3.813   6.535   7.231 -0.3217  0.9195 -1.1081
  150SAPE    C316502   3.506   6.159   7.437  0.2895 -0.3407  0.0471
  150SAPE    HX16503   3.446   6.243   7.477  1.5988  0.9447 -0.5669
  150SAPE    HY16504   3.466   6.065   7.480 -0.4309 -1.0321 -2.0230
  150SAPE   O3116505   3.501   6.143   7.296 -0.1034  0.0769  0.2045
  150SAPE   C3116506   3.380   6.169   7.232  0.1136 -0.3232  0.1293
  150SAPE   O3216507   3.282   6.213   7.294  0.3910  0.0513  0.2688
  150SAPE   C3216508   3.381   6.136   7.088  0.2692 -0.0425 -0.5157
  150SAPE   H2X16509   3.489   6.129   7.061  0.1962 -2.1717 -0.4456
  150SAPE   H2Y16510   3.339   6.221   7.030  1.3074 -0.2394 -1.6014
  150SAPE   C2316511   3.598   6.557   7.226 -0.6645 -0.6484 -0.6429
  150SAPE   H3R16512   3.589   6.667   7.239  0.4850 -0.4037 -1.7786
  150SAPE   H3S16513   3.517   6.515   7.290 -0.2778  1.4227  1.3275
  150SAPE   C2416514   3.593   6.513   7.081  0.4233  0.3230  0.0286
  150SAPE   H4R16515   3.588   6.402   7.086  0.7606  0.2616 -0.8230
  150SAPE   H4S16516   3.677   6.545   7.015 -1.0364 -0.8549 -2.5609
  150SAPE   C2516517   3.474   6.556   7.009 -0.5323 -0.1738  0.3644
  150SAPE   H5R16518   3.391   6.584   7.076 -0.0859 -0.9659  1.2715
  150SAPE   C2616519   3.454   6.571   6.876 -0.2138  0.1575 -0.8335
  150SAPE   H6R16520   3.355   6.602   6.837  0.2932  1.4544 -1.1478
  150SAPE   C2716521   3.544   6.536   6.770 -0.6716 -0.3286  1.4217
  150SAPE   H7R16522   3.598   6.441   6.788  1.4060  0.6994  0.9083
  150SAPE   H7S16523   3.631   6.605   6.770 -1.5573  0.8255  1.5638
  150SAPE   C2816524   3.468   6.525   6.635 -0.8329 -0.9155 -0.2623
  150SAPE   H8R16525   3.366   6.484   6.645 -1.2633  0.3145  0.5531
  150SAPE   C2916526   3.523   6.555   6.516 -0.0863 -0.3301  0.2192
  150SAPE   H9R16527   3.461   6.541   6.426 -1.1093 -0.8847  0.9918
  150SAPE  C21016528   3.665   6.604   6.485  0.7745 -0.1419 -0.2566
  150SAPE  H10R16529   3.703   6.537   6.405  1.6201 -0.4117  0.3615
  150SAPE  H10S16530   3.737   6.604   6.569 -0.3673  0.4334  0.7570
  150SAPE  C21116531   3.654   6.744   6.430  0.0289  0.1635 -0.4197
  150SAPE  H11R16532   3.659   6.823   6.507  1.0739  0.6612 -0.9824
  150SAPE  C21216533   3.665   6.787   6.303 -0.2036 -0.3469 -0.6233
  150SAPE  H12R16534   3.658   6.896   6.289  1.3520 -0.0659  0.5601
  150SAPE  C21316535   3.662   6.710   6.174  0.5881  0.2151  0.9531
  150SAPE  H13R16536   3.759   6.655   6.166  0.5543  0.4045 -1.1385
  150SAPE  H13S16537   3.667   6.787   6.094 -2.3858 -1.0428 -0.5965
  150SAPE  C21416538   3.547   6.612   6.134 -0.1500  0.0857 -1.3438
  150SAPE  H14R16539   3.562   6.517   6.188 -0.8512  1.1764  0.9383
  150SAPE  C21516540   3.451   6.628   6.041  0.6368 -0.3189 -0.2639
  150SAPE  H15R16541   3.375   6.549   6.030  1.4333 -1.0733 -0.5215
  150SAPE  C21616542   3.421   6.748   5.949  0.1279  0.0116 -0.3688
  150SAPE  H16R16543   3.481   6.840   5.965 -0.1130  0.2202 -0.6467
  150SAPE  H16S16544   3.318   6.787   5.966  0.7728  1.9520 -0.6645
  150SAPE  C21716545   3.443   6.712   5.798 -0.2395 -0.4725 -0.1838
  150SAPE  H17R16546   3.532   6.651   5.770 -1.0434 -1.1950 -1.2420
  150SAPE  H17S16547   3.456   6.809   5.744 -0.9042 -1.8495 -3.0354
  150SAPE  C21816548   3.323   6.651   5.727 -0.4415 -0.6726  0.6543
  150SAPE  H18R16549   3.231   6.706   5.756 -0.0571  0.2905  0.0926
  150SAPE  H18S16550   3.314   6.547   5.766 -1.5440 -1.2433 -1.0104
  150SAPE  C21916551   3.334   6.678   5.578  0.4821  0.1837  0.2850
  150SAPE  H19R16552   3.422   6.624   5.538 -0.7027 -0.1663 -2.0102
  150SAPE  H19S16553   3.345   6.787   5.556  1.7400  0.8252  3.5042
  150SAPE  C22016554   3.209   6.621   5.498  0.2065  0.1310  0.2519
  150SAPE  H20R16555   3.112   6.665   5.530 -0.1681  0.4396 -1.2562
  150SAPE  H20S16556   3.199   6.513   5.524 -1.8624  0.5995  1.7126
  150SAPE  H20T16557   3.221   6.634   5.389  0.2053 -1.1612  0.0774
  150SAPE   C3316558   3.325   6.005   7.030 -0.6253 -0.7477 -0.5923
  150SAPE   H3X16559   3.218   5.984   7.052 -0.0696 -1.4649  1.6611
  150SAPE   H3Y16560   3.388   5.922   7.069  0.0689 -0.7738 -1.7126
  150SAPE   C3416561   3.352   6.000   6.881 -0.3462  0.0964  0.5673
  150SAPE   H4X16562   3.337   5.893   6.855  1.6324 -0.0938  0.0108
  150SAPE   H4Y16563   3.456   6.027   6.851  0.1524 -0.2601  1.9244
  150SAPE   C3516564   3.247   6.063   6.787 -0.0889 -0.8733 -1.4929
  150SAPE   H5X16565   3.224   6.166   6.821  2.1732 -0.6585 -0.4674
  150SAPE   H5Y16566   3.148   6.012   6.796 -1.3084  1.2019 -2.5018
  150SAPE   C3616567   3.285   6.074   6.638  0.0958 -0.3756  0.1877
  150SAPE   H6X16568   3.198   6.105   6.576 -0.0358  2.6309  1.6897
  150SAPE   H6Y16569   3.324   5.979   6.595 -0.0278 -0.5884  0.5456
  150SAPE   C3716570   3.392   6.180   6.614 -0.9439 -0.2469 -0.3936
  150SAPE   H7X16571   3.481   6.152   6.675 -1.4305 -0.8734  0.0389
  150SAPE   H7Y16572   3.361   6.273   6.666  1.9620  1.3927 -1.3531
  150SAPE   C3816573   3.426   6.203   6.467 -0.6834 -0.3278 -0.5079
  150SAPE   H8X16574   3.450   6.106   6.418  0.1490  0.7635 -2.3930
  150SAPE   H8Y16575   3.517   6.266   6.461 -0.4854 -0.3799  1.4253
  150SAPE   C3916576   3.320   6.266   6.373  0.1963  0.0254 -0.6381
  150SAPE   H9X16577   3.305   6.374   6.394 -2.1314 -0.5328  0.8549
  150SAPE   H9Y16578   3.218   6.224   6.381 -1.3640  3.0451 -2.7238
  150SAPE  C31016579   3.361   6.252   6.227 -0.0108 -0.3979  0.3701
  150SAPE  H10X16580   3.420   6.160   6.210 -1.0434 -1.1886  0.9705
  150SAPE  H10Y16581   3.417   6.344   6.198 -1.4475  0.5216  0.3936
  150SAPE  C31116582   3.245   6.247   6.130  0.0706  0.6012 -0.6467
  150SAPE  H11X16583   3.186   6.341   6.137 -1.0129 -0.1283  0.5988
  150SAPE  H11Y16584   3.176   6.167   6.165  1.0059  1.2097  3.0168
  150SAPE  C31216585   3.299   6.225   5.988  0.4964 -0.1978  0.0567
  150SAPE  H12X16586   3.353   6.128   5.984 -0.1155 -0.5350 -0.2857
  150SAPE  H12Y16587   3.365   6.312   5.968  0.0877  0.6126  1.9908
  150SAPE  C31316588   3.195   6.231   5.886 -0.3146 -0.0365 -0.7863
  150SAPE  H13X16589   3.137   6.324   5.905  1.4854  1.2332 -1.3108
  150SAPE  H13Y16590   3.129   6.142   5.900  0.9977 -1.1241 -1.3377
  150SAPE  C31416591   3.243   6.233   5.742  0.2081  0.1467  0.1473
  150SAPE  H14X16592   3.278   6.131   5.715 -1.5028 -0.1851 -0.9467
  150SAPE  H14Y16593   3.329   6.302   5.728 -0.1477  1.0592  2.1057
  150SAPE  C31516594   3.124   6.251   5.645  0.6430 -0.5893 -0.0276
  150SAPE  H15X16595   3.096   6.359   5.639  1.1450 -0.4450  0.1724
  150SAPE  H15Y16596   3.036   6.190   5.675 -0.0740  0.8935  1.0291
  150SAPE  C31616597   3.155   6.213   5.496 -0.2058  0.3280  0.0221
  150SAPE  H16X16598   3.177   6.105   5.484 -1.4021  0.1398 -0.5733
  150SAPE  H16Y16599   3.240   6.278   5.464 -0.4983  2.2208  2.7255
  150SAPE  C31716600   3.036   6.261   5.410  0.0356 -0.2330 -0.0804
  150SAPE  H17X16601   3.016   6.366   5.439  0.6611 -0.2646  0.4852
  150SAPE  H17Y16602   2.949   6.198   5.441  0.7386 -0.3100  1.8913
  150SAPE  C31816603   3.065   6.255   5.259 -0.3319 -0.6127  0.1614
  150SAPE  H18X16604   2.977   6.273   5.195  1.3754 -2.1489 -2.8572
  150SAPE  H18Y16605   3.104   6.154   5.235  0.6749  0.1831 -1.7959
  150SAPE  H18Z16606   3.152   6.320   5.234 -0.2500 -0.5986  0.4714
  151SAPE     N16607   0.944   0.172   7.522  0.2174 -0.3481 -0.2318
  151SAPE   HN116608   0.842   0.150   7.525  0.2308 -0.2342  1.9563
  151SAPE   HN216609   0.999   0.092   7.556  1.5600  1.0034  0.8836
  151SAPE   HN316610   0.962   0.254   7.583 -3.7300  0.2412  0.4237
  151SAPE   C1216611   0.977   0.202   7.377  0.4596  0.7310  0.5904
  151SAPE  H12A16612   0.956   0.106   7.325  0.6479 -0.4159  2.5234
  151SAPE  H12B16613   1.087   0.218   7.381  0.4047  0.8617  2.2558
  151SAPE   C1116614   0.917   0.328   7.323  0.9651 -0.1105  0.2197
  151SAPE  H11A16615   0.811   0.294   7.321  0.7449  0.5363  0.7248
  151SAPE  H11B16616   0.951   0.337   7.218 -0.8138 -1.0515 -0.4886
  151SAPE     P16617   1.050   0.545   7.343  0.1817 -0.1786 -0.0914
  151SAPE   O1316618   1.058   0.666   7.434  0.4179  0.0924  0.0785
  151SAPE   O1416619   1.174   0.477   7.304 -0.5039 -0.2815 -0.1127
  151SAPE   O1216620   0.940   0.439   7.402  0.4693  0.2976 -1.2831
  151SAPE   O1116621   0.974   0.594   7.212 -0.2520  0.1690  0.2760
  151SAPE    C116622   0.874   0.688   7.210  0.4449 -0.3899 -0.2285
  151SAPE    HA16623   0.771   0.650   7.229  0.9092 -1.8327 -0.4762
  151SAPE    HB16624   0.904   0.777   7.269 -1.6128  0.4522 -0.3618
  151SAPE    C216625   0.858   0.762   7.069  0.4712 -0.4264 -0.0256
  151SAPE    HS16626   0.769   0.829   7.072  2.1221  1.8948 -0.0039
  151SAPE   O2116627   0.851   0.672   6.958  0.1723  0.7294  0.0498
  151SAPE   C2116628   0.750   0.590   6.960 -0.3639 -0.6081  0.4003
  151SAPE   O2216629   0.641   0.610   7.012 -0.1792 -0.3685 -0.2671
  151SAPE   C2216630   0.786   0.470   6.878  0.2777 -0.5170 -0.0979
  151SAPE   H2R16631   0.827   0.507   6.782 -0.4140  2.3402  0.6250
  151SAPE   H2S16632   0.868   0.409   6.923 -0.3092 -0.0549  1.6673
  151SAPE    C316633   0.972   0.860   7.052  0.4313  0.1207 -0.1790
  151SAPE    HX16634   1.075   0.817   7.047  0.6593  0.4088  1.5178
  151SAPE    HY16635   0.974   0.938   7.130 -0.1145  0.3628 -0.4082
  151SAPE   O3116636   0.949   0.926   6.927  0.5827  0.0522  0.0111
  151SAPE   C3116637   1.009   1.033   6.896  0.2062 -0.7344  0.9344
  151SAPE   O3216638   1.090   1.092   6.959  0.5468  0.0164  0.4064
  151SAPE   C3216639   0.949   1.080   6.756 -0.2770  1.0932 -0.4745
  151SAPE   H2X16640   0.943   1.189   6.734  0.8740  1.3232  0.2872
  151SAPE   H2Y16641   0.846   1.040   6.742 -0.8237  2.4434 -0.4089
  151SAPE   C2316642   0.660   0.377   6.844  0.8712 -0.7533 -0.4418
  151SAPE   H3R16643   0.692   0.308   6.763 -0.5675 -0.7681 -1.0287
  151SAPE   H3S16644   0.573   0.434   6.806  0.4396 -0.6365  0.6695
  151SAPE   C2416645   0.619   0.287   6.958 -0.1352 -0.6795  0.7252
  151SAPE   H4R16646   0.540   0.221   6.917 -1.7370  0.2882  2.1188
  151SAPE   H4S16647   0.563   0.346   7.034 -0.5985 -0.2702  0.0674
  151SAPE   C2516648   0.730   0.203   7.027 -0.3183  1.1203 -0.5355
  151SAPE   H5R16649   0.767   0.238   7.124 -1.9985  1.9857 -0.1655
  151SAPE   C2616650   0.785   0.082   6.982  0.4057 -0.0182 -0.7203
  151SAPE   H6R16651   0.861   0.034   7.046  0.5172  1.9359  0.6997
  151SAPE   C2716652   0.759   0.022   6.845  1.4081  0.2251 -0.1061
  151SAPE   H7R16653   0.690   0.085   6.784 -0.7627 -0.4782  1.4924
  151SAPE   H7S16654   0.697  -0.069   6.860  0.6341  0.6206 -0.8178
  151SAPE   C2816655   0.876  -0.017   6.774  0.6714  0.1460  0.7508
  151SAPE   H8R16656   0.956  -0.050   6.842  0.1238 -1.2660  0.7593
  151SAPE   C2916657   0.904  -0.014   6.645 -0.5848 -0.1200 -0.3683
  151SAPE   H9R16658   0.995  -0.048   6.594 -1.5980 -0.3749 -2.1045
  151SAPE  C21016659   0.803   0.011   6.539 -0.0017 -0.1464  0.2193
  151SAPE  H10R16660   0.703  -0.032   6.562 -0.0904 -0.0492  0.0236
  151SAPE  H10S16661   0.845  -0.053   6.458 -1.1027 -0.8034  0.1384
  151SAPE  C21116662   0.798   0.157   6.504 -0.2150  0.0790 -0.3923
  151SAPE  H11R16663   0.780   0.228   6.586 -1.1548 -0.5777 -0.0110
  151SAPE  C21216664   0.838   0.213   6.388  0.8059 -0.0342 -0.0808
  151SAPE  H12R16665   0.834   0.322   6.382 -1.2288  0.0005  1.0583
  151SAPE  C21316666   0.890   0.156   6.258  0.3027 -0.0689 -0.0397
  151SAPE  H13R16667   0.950   0.064   6.272 -0.1505 -0.3651 -0.0351
  151SAPE  H13S16668   0.970   0.223   6.220 -1.4325  1.6022 -0.9262
  151SAPE  C21416669   0.777   0.138   6.159  0.0796 -0.2187  0.2354
  151SAPE  H14R16670   0.679   0.138   6.210  0.1790 -1.1008  0.4402
  151SAPE  C21516671   0.786   0.132   6.021 -0.0258  0.4751 -0.1369
  151SAPE  H15R16672   0.691   0.124   5.966 -0.0544  1.9394 -0.3334
  151SAPE  C21616673   0.917   0.150   5.944  0.0179  0.8196 -0.0119
  151SAPE  H16R16674   0.934   0.068   5.871 -0.3584  1.5327 -0.9146
  151SAPE  H16S16675   1.001   0.143   6.017  0.2910 -2.0931 -0.4576
  151SAPE  C21716676   0.927   0.283   5.865 -0.4112  0.1379 -0.2974
  151SAPE  H17R16677   1.023   0.282   5.809  0.0851  1.4566  0.4925
  151SAPE  H17S16678   0.933   0.369   5.934 -1.2321 -1.5987  2.0763
  151SAPE  C21816679   0.818   0.300   5.750 -0.1858 -0.3007  0.2153
  151SAPE  H18R16680   0.725   0.289   5.808  0.2239 -0.6165  0.8251
  151SAPE  H18S16681   0.824   0.211   5.683  0.1207  0.2775 -0.5467
  151SAPE  C21916682   0.844   0.428   5.672  0.8504  0.2945 -0.0505
  151SAPE  H19R16683   0.951   0.433   5.642  0.5112 -1.3314 -1.6558
  151SAPE  H19S16684   0.817   0.513   5.739  0.6430 -1.8164  2.7499
  151SAPE  C22016685   0.763   0.439   5.552 -0.2426 -0.1264  0.4740
  151SAPE  H20R16686   0.758   0.344   5.494 -1.2809  0.1747  0.0318
  151SAPE  H20S16687   0.798   0.524   5.489  1.8921  1.4227  3.4924
  151SAPE  H20T16688   0.655   0.456   5.574 -0.3752 -0.7355  0.3213
  151SAPE   C3316689   1.042   1.014   6.641 -0.2323  0.0994 -0.6339
  151SAPE   H3X16690   1.037   0.903   6.646 -4.1549  0.1939  1.3336
  151SAPE   H3Y16691   1.147   1.049   6.646  0.1227 -0.9479 -0.4974
  151SAPE   C3416692   0.989   1.038   6.496  0.3054 -0.2476 -0.4535
  151SAPE   H4X16693   1.063   1.006   6.419  2.1534 -0.3123  1.2796
  151SAPE   H4Y16694   0.985   1.148   6.481 -1.1660 -0.0658  1.0010
  151SAPE   C3516695   0.854   0.984   6.458  0.2903 -0.3605 -0.5164
  151SAPE   H5X16696   0.772   1.019   6.525  0.9001 -3.1725  1.8872
  151SAPE   H5Y16697   0.846   0.874   6.460 -3.1637 -0.2599  2.5794
  151SAPE   C3616698   0.811   1.028   6.320  0.0730  0.5060 -1.0268
  151SAPE   H6X16699   0.853   1.131   6.312  1.5836  0.1009  0.9462
  151SAPE   H6Y16700   0.700   1.028   6.313 -0.2972 -2.2411  2.3397
  151SAPE   C3716701   0.855   0.943   6.199 -0.1185  0.1762 -0.5799
  151SAPE   H7X16702   0.774   0.961   6.125 -1.4269  1.3132  1.0658
  151SAPE   H7Y16703   0.864   0.836   6.229  0.3707 -0.2697 -2.1913
  151SAPE   C3816704   0.991   0.991   6.138 -0.4944 -0.1289 -0.3821
  151SAPE   H8X16705   1.053   0.907   6.099  0.0007 -0.5593  1.2508
  151SAPE   H8Y16706   1.052   1.037   6.219  1.5530 -2.3522 -0.5487
  151SAPE   C3916707   0.965   1.083   6.032 -0.5041 -0.5111  0.2462
  151SAPE   H9X16708   1.065   1.129   6.016 -0.8561  0.2179  0.0669
  151SAPE   H9Y16709   0.886   1.160   6.046  0.0909  0.8862 -3.1307
  151SAPE  C31016710   0.923   1.016   5.900  0.1547 -0.3116  0.5536
  151SAPE  H10X16711   0.862   0.928   5.928  0.6302 -1.0042 -0.5056
  151SAPE  H10Y16712   1.017   0.976   5.856  0.1757  1.9455 -1.7157
  151SAPE  C31116713   0.859   1.119   5.799  0.9803  0.2111 -0.4590
  151SAPE  H11X16714   0.933   1.188   5.753 -0.1542  2.0078  0.2695
  151SAPE  H11Y16715   0.783   1.177   5.856  0.2597 -0.2248 -0.9573
  151SAPE  C31216716   0.772   1.047   5.691  0.4521 -0.1925  0.1243
  151SAPE  H12X16717   0.699   0.976   5.735 -2.2134  0.7244 -2.4731
  151SAPE  H12Y16718   0.845   0.987   5.634 -0.4449  2.9105 -5.0272
  151SAPE  C31316719   0.692   1.146   5.605  0.0188  0.0116  0.1768
  151SAPE  H13X16720   0.763   1.228   5.580 -2.7151  2.2304 -0.8558
  151SAPE  H13Y16721   0.606   1.186   5.664 -1.2076 -1.1092 -0.7906
  151SAPE  C31416722   0.649   1.091   5.468 -0.0332  0.2763 -0.5680
  151SAPE  H14X16723   0.565   1.021   5.486 -1.0265  1.1369 -1.7595
  151SAPE  H14Y16724   0.741   1.037   5.437  0.1245  1.0287 -1.4255
  151SAPE  C31516725   0.612   1.192   5.363 -0.4442 -0.6377  0.1523
  151SAPE  H15X16726   0.682   1.276   5.384 -0.4200 -0.0982 -1.9464
  151SAPE  H15Y16727   0.507   1.228   5.369 -0.4439 -0.6232  0.0599
  151SAPE  C31616728   0.644   1.142   5.213  0.4379 -0.3368  0.3327
  151SAPE  H16X16729   0.574   1.062   5.182  1.3852 -1.1014  0.1117
  151SAPE  H16Y16730   0.744   1.094   5.217  2.0808  2.7141 -0.9093
  151SAPE  C31716731   0.641   1.253   5.111 -0.0607 -0.2047 -0.0325
  151SAPE  H17X16732   0.711   1.215   5.033  1.4346  0.4531  0.9514
  151SAPE  H17Y16733   0.687   1.346   5.151  0.3801  0.1952 -1.4367
  151SAPE  C31816734   0.500   1.295   5.064 -0.1494  0.3540  0.6880
  151SAPE  H18X16735   0.427   1.314   5.146 -1.3284  0.6039 -0.3839
  151SAPE  H18Y16736   0.451   1.221   4.997  1.1445  0.9482 -0.9834
  151SAPE  H18Z16737   0.501   1.395   5.015 -1.0016  0.0164 -0.0590
  152SAPE     N16738   3.928   3.805   7.289 -0.6364 -0.3504  0.3307
  152SAPE   HN116739   3.974   3.884   7.339  0.4832  1.0018 -2.6387
  152SAPE   HN216740   3.829   3.826   7.312 -0.0261 -0.0844  3.1368
  152SAPE   HN316741   3.958   3.715   7.333  2.8898  0.3350 -0.3793
  152SAPE   C1216742   3.961   3.810   7.146  0.5252  0.2175 -0.3587
  152SAPE  H12A16743   3.918   3.901   7.099 -0.1620 -1.1310 -2.4517
  152SAPE  H12B16744   3.921   3.723   7.090 -0.5848  1.4669 -1.5513
  152SAPE   C1116745   4.112   3.781   7.120  0.8686 -0.4762  0.3324
  152SAPE  H11A16746   4.151   3.877   7.158 -0.2212 -0.7090  2.1696
  152SAPE  H11B16747   4.110   3.775   7.009 -2.6963  1.8713  0.0842
  152SAPE     P16748   4.262   3.654   7.296 -0.0443 -0.0218  0.1500
  152SAPE   O1316749   4.207   3.686   7.427  0.4167  0.3159 -0.9265
  152SAPE   O1416750   4.331   3.520   7.281  0.5075  0.6170 -0.4773
  152SAPE   O1216751   4.149   3.661   7.187 -0.2206 -0.9963  0.3288
  152SAPE   O1116752   4.351   3.779   7.256  0.1125  0.1970  0.1397
  152SAPE    C116753   4.475   3.758   7.190  0.0664  0.0472  0.1485
  152SAPE    HA16754   4.549   3.830   7.232  1.1496 -0.0660 -1.4759
  152SAPE    HB16755   4.528   3.661   7.200  0.7417  0.0442 -2.6041
  152SAPE    C216756   4.460   3.806   7.044 -0.0143  0.0463 -0.5732
  152SAPE    HS16757   4.375   3.877   7.034  0.0999  0.3152  0.2773
  152SAPE   O2116758   4.445   3.688   6.964 -0.1978  0.2443 -0.5303
  152SAPE   C2116759   4.351   3.686   6.881  0.3001  0.2267 -0.0477
  152SAPE   O2216760   4.292   3.785   6.833  0.2275  0.8034 -0.5180
  152SAPE   C2216761   4.339   3.542   6.824  0.0796  0.3302  0.5362
  152SAPE   H2R16762   4.436   3.489   6.834 -0.3730 -0.7796 -0.7540
  152SAPE   H2S16763   4.267   3.500   6.898 -0.3269 -1.2778 -0.7318
  152SAPE    C316764   4.594   3.879   7.005  0.1802 -0.6329 -1.1402
  152SAPE    HX16765   4.688   3.831   7.040  1.8395  2.8318 -0.4451
  152SAPE    HY16766   4.590   3.975   7.060  0.4577 -0.8516 -0.7355
  152SAPE   O3116767   4.592   3.905   6.861  0.2425 -0.8670  0.3927
  152SAPE   C3116768   4.645   3.811   6.787 -0.2968 -0.8314  0.9739
  152SAPE   O3216769   4.695   3.711   6.828  0.4413  0.4449  0.2952
  152SAPE   C3216770   4.649   3.857   6.643 -0.4252 -0.0287 -1.0522
  152SAPE   H2X16771   4.731   3.930   6.623 -0.5873  0.0067 -1.6134
  152SAPE   H2Y16772   4.554   3.905   6.610  1.1616  2.9367 -1.7308
  152SAPE   C2316773   4.288   3.540   6.675 -0.2521 -0.6932 -0.2653
  152SAPE   H3R16774   4.353   3.608   6.617 -0.2998 -1.0726 -0.7787
  152SAPE   H3S16775   4.188   3.587   6.681  0.0358 -0.1391  0.2154
  152SAPE   C2416776   4.272   3.403   6.610 -0.1296 -0.2111  0.5712
  152SAPE   H4R16777   4.208   3.411   6.519 -0.1781 -0.0634  0.6186
  152SAPE   H4S16778   4.214   3.331   6.672 -1.3978  1.5798  1.5793
  152SAPE   C2516779   4.403   3.343   6.575  0.1192 -0.3444  0.4464
  152SAPE   H5R16780   4.466   3.311   6.660  1.9570 -0.6482 -0.9738
  152SAPE   C2616781   4.455   3.330   6.448  0.6505 -0.1870  0.1072
  152SAPE   H6R16782   4.545   3.267   6.440  1.2433  0.7031 -0.5313
  152SAPE   C2716783   4.400   3.390   6.320  0.2579  0.3327 -0.3867
  152SAPE   H7R16784   4.470   3.446   6.255 -0.7371 -2.1725 -3.9381
  152SAPE   H7S16785   4.324   3.469   6.339  0.2314  0.0782  0.5961
  152SAPE   C2816786   4.326   3.284   6.239 -0.0297  0.6307 -0.1662
  152SAPE   H8R16787   4.323   3.182   6.281  1.2371  0.3542 -0.7094
  152SAPE   C2916788   4.251   3.313   6.132 -0.3666 -0.0279 -0.1787
  152SAPE   H9R16789   4.187   3.237   6.087 -1.1488  0.5453 -0.0497
  152SAPE  C21016790   4.249   3.453   6.071  0.4139 -0.1851 -0.0105
  152SAPE  H10R16791   4.270   3.433   5.964 -3.2983  0.4822 -1.0051
  152SAPE  H10S16792   4.341   3.515   6.086 -0.1304  0.2730  1.6333
  152SAPE  C21116793   4.118   3.520   6.083  0.2180 -0.7406  0.3582
  152SAPE  H11R16794   4.107   3.572   6.179 -1.6883  0.6672 -0.5498
  152SAPE  C21216795   4.013   3.520   5.999 -0.3182 -0.5780 -0.2905
  152SAPE  H12R16796   3.923   3.582   6.010 -0.1966 -0.1932 -1.3446
  152SAPE  C21316797   4.015   3.461   5.863  0.0363  0.5421 -0.0909
  152SAPE  H13R16798   3.950   3.371   5.866  2.7911 -1.5812  0.2640
  152SAPE  H13S16799   4.116   3.419   5.842  0.6019  1.6775  0.2684
  152SAPE  C21416800   3.989   3.552   5.752 -1.1541  0.3039  0.3133
  152SAPE  H14R16801   4.060   3.636   5.748  0.0664 -0.5210  2.4933
  152SAPE  C21516802   3.903   3.531   5.653 -0.5059 -0.6137 -0.5392
  152SAPE  H15R16803   3.889   3.615   5.584  1.0213  0.3343  0.2564
  152SAPE  C21616804   3.822   3.404   5.632 -0.1325 -0.6485 -0.3489
  152SAPE  H16R16805   3.712   3.416   5.647 -0.4685  1.0935 -3.2499
  152SAPE  H16S16806   3.848   3.322   5.702  0.9865  0.2018  0.2548
  152SAPE  C21716807   3.838   3.360   5.488  0.7612  0.4942  0.1269
  152SAPE  H17R16808   3.809   3.435   5.411  0.3712  0.9987  0.7503
  152SAPE  H17S16809   3.763   3.280   5.473 -0.3839  1.6250 -0.3530
  152SAPE  C21816810   3.972   3.290   5.457  0.6753 -0.4192  0.5113
  152SAPE  H18R16811   3.959   3.206   5.529 -1.2493  1.8400  3.0155
  152SAPE  H18S16812   4.053   3.357   5.490  0.6987 -1.2342  2.2006
  152SAPE  C21916813   3.984   3.249   5.314  0.2089  0.0539  0.6248
  152SAPE  H19R16814   3.895   3.184   5.299 -0.0251 -0.3613  3.4353
  152SAPE  H19S16815   4.070   3.180   5.300 -0.1527 -0.2737 -0.0764
  152SAPE  C22016816   3.992   3.364   5.208 -0.5002 -0.4230  0.6822
  152SAPE  H20R16817   4.003   3.335   5.101 -0.6545  2.9624 -0.3907
  152SAPE  H20S16818   4.082   3.427   5.230  0.3506 -0.1789 -2.8453
  152SAPE  H20T16819   3.904   3.431   5.212  0.8404  1.6828 -1.6807
  152SAPE   C3316820   4.652   3.735   6.545  0.6442 -0.3853  0.1457
  152SAPE   H3X16821   4.561   3.674   6.561 -1.0002  1.8282 -0.2202
  152SAPE   H3Y16822   4.744   3.675   6.561  1.1707  0.5666  0.7639
  152SAPE   C3416823   4.632   3.783   6.405 -1.1492 -0.0586 -0.2370
  152SAPE   H4X16824   4.661   3.702   6.335  0.3797  1.5606 -1.5997
  152SAPE   H4Y16825   4.703   3.868   6.393 -2.1514  1.2350  2.2757
  152SAPE   C3516826   4.485   3.822   6.364 -0.4332 -0.1431  0.4670
  152SAPE   H5X16827   4.424   3.869   6.444 -1.8446 -2.0583  0.5629
  152SAPE   H5Y16828   4.440   3.724   6.338 -1.5486  0.0948  1.3948
  152SAPE   C3616829   4.471   3.908   6.238  0.0560  0.2834  0.3089
  152SAPE   H6X16830   4.512   3.868   6.142 -0.3991  0.8207 -0.1214
  152SAPE   H6Y16831   4.501   4.014   6.244  1.0884 -0.0390  1.1205
  152SAPE   C3716832   4.319   3.905   6.205  0.2797 -0.9192 -0.4676
  152SAPE   H7X16833   4.249   3.966   6.267  3.1042  2.2936 -0.1938
  152SAPE   H7Y16834   4.276   3.806   6.232 -1.3768 -0.6235 -1.8223
  152SAPE   C3816835   4.290   3.923   6.055 -0.5095 -0.7540  0.3662
  152SAPE   H8X16836   4.345   3.846   5.998  1.8252  0.0019  1.4517
  152SAPE   H8Y16837   4.326   4.024   6.026 -1.1322 -1.1129 -1.7945
  152SAPE   C3916838   4.142   3.915   6.001 -0.7380 -0.5066  0.0092
  152SAPE   H9X16839   4.072   3.988   6.047  0.7867  0.4552  0.8568
  152SAPE   H9Y16840   4.099   3.819   6.037  0.7550 -0.5143  1.9180
  152SAPE  C31016841   4.125   3.935   5.846 -1.1362  0.8605 -0.5160
  152SAPE  H10X16842   4.146   4.037   5.807  0.1364 -0.0352 -2.3197
  152SAPE  H10Y16843   4.018   3.914   5.825 -0.5554 -1.4529 -1.5214
  152SAPE  C31116844   4.210   3.841   5.767 -0.2449 -1.2073  0.2079
  152SAPE  H11X16845   4.194   3.733   5.787 -1.5125 -1.7113 -2.8689
  152SAPE  H11Y16846   4.320   3.852   5.776 -0.4250 -0.5367  2.0278
  152SAPE  C31216847   4.175   3.863   5.611  0.6645 -1.0167  0.9558
  152SAPE  H12X16848   4.207   3.961   5.571  2.6579 -1.8342  0.4328
  152SAPE  H12Y16849   4.065   3.857   5.598  0.5864  0.1261  1.0023
  152SAPE  C31316850   4.242   3.762   5.511  0.0486  0.2657 -0.3780
  152SAPE  H13X16851   4.280   3.679   5.575  1.9288  3.0738  2.4707
  152SAPE  H13Y16852   4.328   3.811   5.463  0.0071  1.1814  0.4509
  152SAPE  C31416853   4.146   3.726   5.400  0.2386 -0.7431  0.4048
  152SAPE  H14X16854   4.061   3.684   5.458  1.2460  0.3868  2.8740
  152SAPE  H14Y16855   4.182   3.644   5.334  0.0385  0.1262 -0.8248
  152SAPE  C31516856   4.094   3.848   5.311 -0.2542 -1.1047 -0.0068
  152SAPE  H15X16857   4.178   3.895   5.255  0.9439  0.4188  2.8633
  152SAPE  H15Y16858   4.043   3.927   5.371  0.2339 -0.3721 -0.5323
  152SAPE  C31616859   3.997   3.801   5.196 -0.2013  0.2392 -0.0339
  152SAPE  H16X16860   3.894   3.781   5.232  0.2668 -0.3964  1.0151
  152SAPE  H16Y16861   4.032   3.708   5.146 -2.1256 -0.8130  0.4526
  152SAPE  C31716862   3.993   3.898   5.070 -0.3310 -0.1903 -0.1495
  152SAPE  H17X16863   4.084   3.880   5.010 -0.7971  1.4101 -1.4134
  152SAPE  H17Y16864   3.995   4.002   5.111 -1.6037 -0.8677  1.7721
  152SAPE  C31816865   3.869   3.882   4.982 -0.3284  0.8471 -0.2800
  152SAPE  H18X16866   3.778   3.901   5.043 -0.4092 -1.6767  0.5182
  152SAPE  H18Y16867   3.859   3.775   4.952 -1.0185 -0.0360  2.7518
  152SAPE  H18Z16868   3.880   3.962   4.906  1.1765  0.0270 -0.9806
  153SAPE     N16869   0.530   6.533   7.489 -0.1253  0.2963  0.5746
  153SAPE   HN116870   0.547   6.430   7.486  0.4256  0.3248  2.0178
  153SAPE   HN216871   0.484   6.561   7.400  0.2528 -0.7454  0.0325
  153SAPE   HN316872   0.623   6.578   7.495 -0.1603  0.3944  0.3967
  153SAPE   C1216873   0.433   6.557   7.601  0.2628 -0.0209  0.1252
  153SAPE  H12A16874   0.420   6.667   7.611  2.2468  0.3852 -1.2098
  153SAPE  H12B16875   0.484   6.521   7.693 -0.8863 -1.2741  0.3090
  153SAPE   C1116876   0.309   6.474   7.585  0.0010 -0.5660  0.1746
  153SAPE  H11A16877   0.265   6.463   7.687 -1.7488 -1.3861 -0.6167
  153SAPE  H11B16878   0.335   6.370   7.556 -0.8364 -0.5320 -0.7439
  153SAPE     P16879   0.210   6.500   7.344  0.2901 -0.0365  0.3536
  153SAPE   O1316880   0.103   6.580   7.277 -0.4470  0.1185 -0.5376
  153SAPE   O1416881   0.345   6.512   7.286  0.4435 -0.4269 -0.5344
  153SAPE   O1216882   0.209   6.538   7.496 -0.1100 -0.2059 -0.2400
  153SAPE   O1116883   0.158   6.350   7.345  0.0453 -0.4268 -0.1668
  153SAPE    C116884   0.227   6.248   7.268 -0.1803  0.0171  0.2094
  153SAPE    HA16885   0.335   6.245   7.292  0.2945 -0.5735 -1.7790
  153SAPE    HB16886   0.184   6.147   7.288  0.2737 -0.0525  0.8381
  153SAPE    C216887   0.190   6.265   7.112  0.5799  0.2166 -0.1523
  153SAPE    HS16888   0.244   6.359   7.087  0.6730 -0.1206 -1.2522
  153SAPE   O2116889   0.045   6.262   7.096  0.5806  0.4273  0.4508
  153SAPE   C2116890   0.013   6.345   6.997  1.0043  0.0346 -0.6113
  153SAPE   O2216891   0.088   6.410   6.930  0.5969  0.7498 -0.5519
  153SAPE   C2216892  -0.144   6.348   6.982  0.5344 -0.4721 -0.0211
  153SAPE   H2R16893  -0.185   6.313   7.080 -1.8979 -0.6013 -1.0195
  153SAPE   H2S16894  -0.182   6.452   6.970 -0.5464 -0.4579  2.7282
  153SAPE    C316895   0.270   6.161   7.032  0.1322  0.1715  0.6507
  153SAPE    HX16896   0.228   6.159   6.930  0.1841  4.0577  0.3925
  153SAPE    HY16897   0.250   6.065   7.083  1.3514 -0.2201  0.4382
  153SAPE   O3116898   0.420   6.181   7.021  1.1047 -0.0685  0.5437
  153SAPE   C3116899   0.494   6.118   7.121 -0.6023 -0.0209 -0.1302
  153SAPE   O3216900   0.454   6.029   7.193  0.3819 -0.4831  0.1489
  153SAPE   C3216901   0.630   6.184   7.132  0.5509  0.9096  0.1828
  153SAPE   H2X16902   0.680   6.157   7.228 -1.0182 -2.4551  0.2263
  153SAPE   H2Y16903   0.622   6.294   7.126 -2.0003  0.6902 -1.9136
  153SAPE   C2316904  -0.185   6.242   6.880 -0.3312  0.0246 -0.1846
  153SAPE   H3R16905  -0.295   6.231   6.877 -0.3827  0.6252 -2.3640
  153SAPE   H3S16906  -0.137   6.144   6.905  2.8023  0.5751 -3.1639
  153SAPE   C2416907  -0.142   6.281   6.738  0.5565  0.2725 -0.6934
  153SAPE   H4R16908  -0.191   6.210   6.667 -3.1610  0.5686  1.3121
  153SAPE   H4S16909  -0.035   6.258   6.721  0.0949 -2.3024 -0.5587
  153SAPE   C2516910  -0.186   6.415   6.689 -0.2586  0.5349  0.0924
  153SAPE   H5R16911  -0.279   6.457   6.730 -0.4657 -1.9352  2.4365
  153SAPE   C2616912  -0.120   6.485   6.591  0.0252  0.2006  0.7225
  153SAPE   H6R16913  -0.161   6.582   6.562 -0.8921 -0.4125 -0.1019
  153SAPE   C2716914   0.005   6.437   6.519  0.5565  0.0060  1.0321
  153SAPE   H7R16915  -0.035   6.356   6.455 -1.0247 -0.8714  2.9985
  153SAPE   H7S16916   0.084   6.408   6.592 -1.2125 -1.2745  2.5468
  153SAPE   C2816917   0.061   6.541   6.423 -0.1426  0.4873  0.4498
  153SAPE   H8R16918   0.089   6.635   6.474 -0.4890  1.3055 -0.8302
  153SAPE   C2916919   0.088   6.536   6.287  0.6145 -0.0623 -0.4609
  153SAPE   H9R16920   0.153   6.615   6.247  3.1507 -1.1183  1.3227
  153SAPE  C21016921   0.053   6.415   6.198  0.1186 -0.4103 -0.3783
  153SAPE  H10R16922  -0.057   6.416   6.210  0.1719  0.7938  0.1187
  153SAPE  H10S16923   0.079   6.322   6.253 -1.3176  0.3850  1.7238
  153SAPE  C21116924   0.110   6.427   6.058 -0.4078  0.2977 -0.0134
  153SAPE  H11R16925   0.190   6.354   6.040 -1.6634 -2.1973  3.4898
  153SAPE  C21216926   0.054   6.497   5.953 -0.4136 -0.7072 -0.5584
  153SAPE  H12R16927   0.112   6.498   5.859  0.3232  1.8646 -0.1674
  153SAPE  C21316928  -0.075   6.574   5.954 -0.3659  0.1732 -0.1159
  153SAPE  H13R16929  -0.142   6.541   6.036  2.2632 -1.8483  1.3777
  153SAPE  H13S16930  -0.132   6.539   5.866 -0.7707  0.6297 -0.0396
  153SAPE  C21416931  -0.042   6.722   5.960  0.1983 -0.2528 -0.5360
  153SAPE  H14R16932  -0.036   6.758   6.064 -0.4874 -1.9754  0.1476
  153SAPE  C21516933  -0.007   6.807   5.865  0.7921 -0.8956  0.2221
  153SAPE  H15R16934   0.028   6.908   5.890 -0.6241  0.1809 -1.8561
  153SAPE  C21616935  -0.015   6.784   5.717 -0.4362  0.1510 -0.4027
  153SAPE  H16R16936  -0.030   6.677   5.695 -0.6018  0.2547 -0.7962
  153SAPE  H16S16937   0.083   6.801   5.668  0.8820  1.3960  2.4334
  153SAPE  C21716938  -0.128   6.876   5.665 -0.6892  0.2750 -0.3080
  153SAPE  H17R16939  -0.222   6.843   5.714 -1.0843  2.6673  0.6875
  153SAPE  H17S16940  -0.134   6.862   5.555  0.3129 -1.7504 -0.1401
  153SAPE  C21816941  -0.105   7.029   5.698  0.9015 -0.0278  0.4079
  153SAPE  H18R16942  -0.006   7.054   5.653  1.4696  2.3004  2.6628
  153SAPE  H18S16943  -0.085   7.053   5.805  4.3390  1.9835 -0.5045
  153SAPE  C21916944  -0.222   7.120   5.658 -0.1322 -0.2031  0.7636
  153SAPE  H19R16945  -0.312   7.086   5.712 -0.4258  0.8874  0.9756
  153SAPE  H19S16946  -0.254   7.087   5.557 -2.5079  0.3041  1.3070
  153SAPE  C22016947  -0.187   7.272   5.662  0.7763  0.0636 -1.0232
  153SAPE  H20R16948  -0.184   7.301   5.769  0.1347 -3.4414  0.0786
  153SAPE  H20S16949  -0.271   7.334   5.626 -0.0628  1.3944  2.8133
  153SAPE  H20T16950  -0.093   7.284   5.604  1.3461 -2.2701 -0.6916
  153SAPE   C3316951   0.723   6.117   7.026 -0.5753  0.2761 -1.5326
  153SAPE   H3X16952   0.720   6.007   7.012  0.2787  0.0302  0.0197
  153SAPE   H3Y16953   0.823   6.155   7.057 -0.8695  0.0344 -0.2564
  153SAPE   C3416954   0.709   6.179   6.885 -0.4876  0.1448  0.3054
  153SAPE   H4X16955   0.681   6.286   6.897  1.2449  0.8069 -1.0355
  153SAPE   H4Y16956   0.619   6.136   6.838  1.5848 -0.9972 -2.9098
  153SAPE   C3516957   0.832   6.158   6.800  0.5220 -0.4877  0.3900
  153SAPE   H5X16958   0.857   6.049   6.802  1.7255 -0.2407 -0.4810
  153SAPE   H5Y16959   0.920   6.213   6.839  1.4991 -1.8065  0.1348
  153SAPE   C3616960   0.802   6.178   6.649 -0.0212  0.8375  0.3722
  153SAPE   H6X16961   0.729   6.261   6.656 -1.8547 -0.8427  3.4193
  153SAPE   H6Y16962   0.751   6.089   6.606 -0.6172  1.5302 -0.3802
  153SAPE   C3716963   0.924   6.200   6.560 -0.2976 -0.2516  0.1903
  153SAPE   H7X16964   0.981   6.284   6.605 -0.8631  0.2407 -0.0067
  153SAPE   H7Y16965   0.879   6.214   6.460 -1.8178  1.1345  1.0251
  153SAPE   C3816966   1.024   6.078   6.551  0.3978  0.0485 -0.3798
  153SAPE   H8X16967   1.075   6.061   6.648  0.9271 -1.7388 -0.9130
  153SAPE   H8Y16968   1.110   6.104   6.485 -1.0962  0.5027 -2.2176
  153SAPE   C3916969   0.963   5.941   6.517  0.0227 -0.5470 -0.1424
  153SAPE   H9X16970   0.895   5.908   6.599  1.1565  1.1544  1.5627
  153SAPE   H9Y16971   1.043   5.864   6.517  0.2872 -0.3798  2.4701
  153SAPE  C31016972   0.888   5.923   6.385  0.2846 -0.0989  0.2514
  153SAPE  H10X16973   0.807   5.996   6.363  1.3545  0.8366 -0.7244
  153SAPE  H10Y16974   0.843   5.822   6.370 -1.5037  0.4175  1.6924
  153SAPE  C31116975   0.982   5.943   6.269  0.1029  0.2344  0.2652
  153SAPE  H11X16976   1.062   5.866   6.273  0.7355  0.8316 -0.4458
  153SAPE  H11Y16977   1.030   6.042   6.282 -2.6159  1.7267 -0.2782
  153SAPE  C31216978   0.918   5.921   6.133 -0.7654  0.1173  0.0671
  153SAPE  H12X16979   0.828   5.985   6.121 -0.9311 -0.2651 -0.8919
  153SAPE  H12Y16980   0.890   5.814   6.120  1.1260 -0.2645 -1.3353
  153SAPE  C31316981   1.007   5.964   6.012  0.0897  0.5568 -0.2711
  153SAPE  H13X16982   1.103   5.912   5.993  0.6228  1.8831 -1.3778
  153SAPE  H13Y16983   1.029   6.071   6.034  2.2792 -0.2648  2.1635
  153SAPE  C31416984   0.930   5.952   5.876 -0.4575 -0.4799 -0.3021
  153SAPE  H14X16985   0.833   6.006   5.881  0.5580  1.4866 -0.9782
  153SAPE  H14Y16986   0.912   5.843   5.864  0.1441 -0.5134 -0.9370
  153SAPE  C31516987   1.006   5.994   5.755 -0.3834  0.2694  0.5293
  153SAPE  H15X16988   1.113   5.965   5.757 -0.9012 -1.8250  0.3633
  153SAPE  H15Y16989   1.010   6.104   5.742 -0.5391  0.0875 -1.2397
  153SAPE  C31616990   0.931   5.938   5.633 -0.3796 -0.1581  0.3512
  153SAPE  H16X16991   0.830   5.982   5.648  1.4491  3.9960  1.8208
  153SAPE  H16Y16992   0.954   5.830   5.615  0.5835  0.4638 -2.8001
  153SAPE  C31716993   0.975   6.000   5.504  0.4277  0.3199  0.5683
  153SAPE  H17X16994   1.081   5.970   5.491  0.5649  0.7976  0.5543
  153SAPE  H17Y16995   0.991   6.110   5.505  1.1196  0.2924 -1.6313
  153SAPE  C31816996   0.885   5.954   5.390 -0.1511  0.2996 -0.2355
  153SAPE  H18X16997   0.884   5.843   5.382 -2.1038  0.2633 -0.0354
  153SAPE  H18Y16998   0.925   5.985   5.291 -0.9543  1.5926 -0.1810
  153SAPE  H18Z16999   0.782   5.997   5.397  0.4025  1.4458  1.4457
  154SAPE     N17000   6.764   6.228   7.402 -0.4623  0.0540 -0.1659
  154SAPE   HN117001   6.685   6.200   7.340 -0.7982  3.0351 -1.2626
  154SAPE   HN217002   6.734   6.250   7.499  1.6799  2.0923  0.1145
  154SAPE   HN317003   6.797   6.318   7.360 -2.1209 -0.1748 -2.1222
  154SAPE   C1217004   6.882   6.140   7.408 -0.3092 -0.0944  0.2600
  154SAPE  H12A17005   6.965   6.211   7.427 -0.1611 -0.2630  0.2391
  154SAPE  H12B17006   6.907   6.097   7.309  0.5024  1.0814 -0.0630
  154SAPE   C1117007   6.881   6.023   7.511  0.6002  0.2946 -0.2104
  154SAPE  H11A17008   6.880   6.076   7.609 -0.4253  2.2007 -1.1780
  154SAPE  H11B17009   6.980   5.973   7.509  0.5355  0.1576 -0.0060
  154SAPE     P17010   6.768   5.803   7.414 -0.2427  0.0366  0.0087
  154SAPE   O1317011   6.840   5.699   7.494  0.6089 -0.0570  0.5362
  154SAPE   O1417012   6.627   5.776   7.372  0.0998 -0.6092 -0.3441
  154SAPE   O1217013   6.766   5.935   7.509 -0.2506 -0.2745  0.3604
  154SAPE   O1117014   6.860   5.848   7.287 -0.1950  0.8667 -0.5057
  154SAPE    C117015   6.986   5.784   7.263 -0.1431 -0.5979  0.6607
  154SAPE    HA17016   7.065   5.819   7.333 -0.1731  0.5119  0.1611
  154SAPE    HB17017   6.973   5.674   7.275 -1.2923 -0.3350  2.1246
  154SAPE    C217018   7.038   5.825   7.120  0.1202 -0.0299 -0.2919
  154SAPE    HS17019   7.048   5.936   7.118 -1.8955  0.1892 -1.0198
  154SAPE   O2117020   6.954   5.765   7.020  0.1226  0.8579 -0.6466
  154SAPE   C2117021   6.840   5.831   6.994  0.1525  0.1459  0.6323
  154SAPE   O2217022   6.806   5.940   7.033 -0.2393 -0.4360  0.1272
  154SAPE   C2217023   6.766   5.745   6.891  0.2706 -0.3905 -0.2510
  154SAPE   H2R17024   6.841   5.700   6.822  1.2980  0.4425  0.2914
  154SAPE   H2S17025   6.725   5.661   6.950 -0.1134 -0.6453 -0.8757
  154SAPE    C317026   7.179   5.767   7.102 -0.4006  0.3997 -0.2271
  154SAPE    HX17027   7.158   5.659   7.088 -0.8607  0.5836 -1.0145
  154SAPE    HY17028   7.227   5.774   7.203  0.9302  0.7155 -0.8520
  154SAPE   O3117029   7.253   5.826   6.992 -0.0479 -0.1953 -0.0510
  154SAPE   C3117030   7.361   5.764   6.973 -0.7741  0.0086  0.5362
  154SAPE   O3217031   7.408   5.675   7.043  0.1246 -0.2404  0.1751
  154SAPE   C3217032   7.434   5.814   6.848  1.1237 -0.4455  0.0769
  154SAPE   H2X17033   7.485   5.910   6.872  1.0829 -0.5085  0.4169
  154SAPE   H2Y17034   7.356   5.823   6.770 -0.9706 -2.9980  1.6991
  154SAPE   C2317035   6.650   5.813   6.818  0.2698  0.0901 -0.3684
  154SAPE   H3R17036   6.572   5.846   6.889 -0.0407 -1.8292  0.2393
  154SAPE   H3S17037   6.607   5.725   6.764 -1.6497  0.3405  0.6869
  154SAPE   C2417038   6.691   5.928   6.719 -0.4131  0.3800 -0.3756
  154SAPE   H4R17039   6.754   5.887   6.638  1.0466 -0.8807  1.3083
  154SAPE   H4S17040   6.756   5.989   6.785 -0.6939 -1.3151  1.5634
  154SAPE   C2517041   6.576   6.016   6.685 -0.1747  0.3785 -0.0731
  154SAPE   H5R17042   6.594   6.120   6.717  1.1610 -0.0846  0.7572
  154SAPE   C2617043   6.469   5.991   6.605 -0.2309  0.0552  1.1227
  154SAPE   H6R17044   6.394   6.071   6.589  1.0116  1.5459  2.4592
  154SAPE   C2717045   6.451   5.861   6.526 -0.1002  0.2541  0.4570
  154SAPE   H7R17046   6.497   5.769   6.567  0.4777  0.5188  0.4066
  154SAPE   H7S17047   6.501   5.876   6.428  1.2848  0.9488  1.2433
  154SAPE   C2817048   6.303   5.833   6.502 -0.9678 -0.1700 -0.2192
  154SAPE   H8R17049   6.249   5.799   6.592 -0.5836 -1.9985 -0.6331
  154SAPE   C2917050   6.237   5.827   6.377 -0.8117 -0.3950  0.5180
  154SAPE   H9R17051   6.129   5.809   6.364 -0.5043 -1.0413 -1.5288
  154SAPE  C21017052   6.301   5.864   6.244 -0.1997 -0.6710  0.0276
  154SAPE  H10R17053   6.258   5.804   6.161  3.0127 -2.5853 -0.4287
  154SAPE  H10S17054   6.409   5.839   6.234  0.7272  2.8823 -0.1279
  154SAPE  C21117055   6.282   6.008   6.212  0.0168 -0.8492 -0.1545
  154SAPE  H11R17056   6.192   6.053   6.258  0.2986 -0.9428  0.4969
  154SAPE  C21217057   6.371   6.095   6.162 -0.5129  0.5477  0.4542
  154SAPE  H12R17058   6.341   6.194   6.126  0.6208  0.0897 -1.9390
  154SAPE  C21317059   6.500   6.059   6.095 -0.0387 -0.1542 -0.5149
  154SAPE  H13R17060   6.476   5.997   6.006 -1.8770  0.6100 -0.6002
  154SAPE  H13S17061   6.562   5.992   6.158 -0.2967  0.1161  0.0249
  154SAPE  C21417062   6.580   6.167   6.036 -0.5167 -0.6531  0.6072
  154SAPE  H14R17063   6.533   6.219   5.951  1.5616 -1.3746 -1.0880
  154SAPE  C21517064   6.692   6.221   6.098  0.0021 -0.8536  0.6385
  154SAPE  H15R17065   6.741   6.309   6.055  1.4399 -1.8950  0.0824
  154SAPE  C21617066   6.760   6.160   6.223  0.2297 -0.0980  0.2986
  154SAPE  H16R17067   6.680   6.115   6.286 -2.5703  3.0723 -0.7030
  154SAPE  H16S17068   6.791   6.250   6.281  1.3310  0.7801 -1.5637
  154SAPE  C21717069   6.877   6.066   6.194  0.1740 -0.2034  0.2260
  154SAPE  H17R17070   6.958   6.123   6.143 -0.2767  0.1694 -0.0825
  154SAPE  H17S17071   6.855   5.979   6.128  0.3011 -0.2924  0.3005
  154SAPE  C21817072   6.936   5.981   6.312 -0.4399 -1.2647  0.3558
  154SAPE  H18R17073   7.032   5.935   6.278  1.8604  2.9990  0.5000
  154SAPE  H18S17074   6.857   5.911   6.349 -2.2316  0.8670  0.7524
  154SAPE  C21917075   6.970   6.066   6.430  0.8001 -0.2789  0.1149
  154SAPE  H19R17076   6.880   6.123   6.461  0.0713 -1.6215  0.5435
  154SAPE  H19S17077   7.039   6.148   6.401  0.7336 -0.0158  0.6987
  154SAPE  C22017078   7.017   5.981   6.547 -0.0392  0.3637 -0.9544
  154SAPE  H20R17079   6.982   6.026   6.642 -0.0839 -0.6278 -0.4940
  154SAPE  H20S17080   7.128   5.983   6.540 -0.0201  0.4151 -0.6630
  154SAPE  H20T17081   6.974   5.879   6.539  1.9598 -0.5206 -1.1609
  154SAPE   C3317082   7.546   5.719   6.800  0.2497 -0.3843  0.3028
  154SAPE   H3X17083   7.513   5.615   6.779  2.7822 -1.0554 -0.8190
  154SAPE   H3Y17084   7.628   5.714   6.874  1.1681  2.7400 -0.3677
  154SAPE   C3417085   7.595   5.767   6.662  0.3316 -0.3496 -0.7849
  154SAPE   H4X17086   7.697   5.723   6.664 -0.2175 -1.6725  0.3273
  154SAPE   H4Y17087   7.591   5.878   6.660  0.0082 -0.3665 -1.4450
  154SAPE   C3517088   7.515   5.710   6.540  0.2016 -0.5881  0.1845
  154SAPE   H5X17089   7.406   5.721   6.558  0.3658  0.9568  0.4208
  154SAPE   H5Y17090   7.559   5.609   6.533 -2.0804 -1.6917  0.8294
  154SAPE   C3617091   7.545   5.798   6.416  0.0817 -0.4591 -0.1350
  154SAPE   H6X17092   7.650   5.785   6.380  0.1002  1.0215 -0.7252
  154SAPE   H6Y17093   7.534   5.905   6.444  2.2512  0.2997 -1.8311
  154SAPE   C3717094   7.439   5.775   6.315  0.3005 -0.0628  0.6433
  154SAPE   H7X17095   7.339   5.766   6.364  0.1541 -0.1874  0.3266
  154SAPE   H7Y17096   7.465   5.677   6.268 -0.8330 -1.1731  2.2110
  154SAPE   C3817097   7.434   5.882   6.207  0.2302 -0.4251 -0.0318
  154SAPE   H8X17098   7.531   5.890   6.153  1.8597  1.0392  2.8818
  154SAPE   H8Y17099   7.414   5.984   6.246  2.3325  1.1038 -2.5817
  154SAPE   C3917100   7.324   5.871   6.103  0.1947  0.6788 -0.0538
  154SAPE   H9X17101   7.235   5.832   6.156 -1.0658  1.8360 -1.2328
  154SAPE   H9Y17102   7.350   5.792   6.030 -2.8816 -0.9526  0.4399
  154SAPE  C31017103   7.272   5.988   6.037 -0.3519  0.2048 -0.0380
  154SAPE  H10X17104   7.352   6.046   5.985 -0.1254  0.9891  1.1573
  154SAPE  H10Y17105   7.225   6.063   6.104 -1.1755 -0.0434 -0.3178
  154SAPE  C31117106   7.181   5.965   5.917  0.2092  0.1918 -0.0102
  154SAPE  H11X17107   7.101   5.908   5.968  1.6918 -1.5722  0.4847
  154SAPE  H11Y17108   7.235   5.903   5.842 -1.5981  0.0971 -1.2829
  154SAPE  C31217109   7.109   6.093   5.858 -0.8385  0.3191 -0.9486
  154SAPE  H12X17110   7.194   6.165   5.857  1.3933 -2.1314 -0.8328
  154SAPE  H12Y17111   7.040   6.137   5.933  0.1749  0.3030  0.0337
  154SAPE  C31317112   7.042   6.075   5.722  0.1494  0.0022 -0.1835
  154SAPE  H13X17113   7.104   6.032   5.640 -0.7626  0.1386 -0.9648
  154SAPE  H13Y17114   7.018   6.176   5.682 -0.8686 -0.9174 -2.0303
  154SAPE  C31417115   6.916   5.990   5.733  0.2338 -0.4377  0.0447
  154SAPE  H14X17116   6.856   6.027   5.819 -0.0941  1.2677 -0.8575
  154SAPE  H14Y17117   6.946   5.886   5.758  1.5084  0.3586  2.0768
  154SAPE  C31517118   6.817   5.987   5.613  0.0442  0.5050 -0.6545
  154SAPE  H15X17119   6.859   5.932   5.525 -0.7911 -0.5407 -0.4178
  154SAPE  H15Y17120   6.783   6.088   5.582  0.0648  0.8676  0.4572
  154SAPE  C31617121   6.691   5.890   5.639 -0.0647  0.1775 -0.0585
  154SAPE  H16X17122   6.610   5.960   5.669 -1.9078 -1.7807 -0.2355
  154SAPE  H16Y17123   6.725   5.821   5.718 -1.4172  0.1038  0.4719
  154SAPE  C31717124   6.650   5.817   5.511  0.3085 -1.0254  0.1817
  154SAPE  H17X17125   6.561   5.759   5.543 -2.0977  2.6934  0.8163
  154SAPE  H17Y17126   6.720   5.733   5.493 -1.7602 -2.5932 -1.0054
  154SAPE  C31817127   6.614   5.897   5.383 -0.3105  0.8173 -0.3489
  154SAPE  H18X17128   6.699   5.953   5.338  1.7194  0.3399  2.6416
  154SAPE  H18Y17129   6.539   5.976   5.405 -2.1882 -1.6918  3.1875
  154SAPE  H18Z17130   6.567   5.834   5.305 -1.5960 -1.5828  2.2222
  155SAPE     N17131   3.011   5.320   7.860  0.9192 -0.4356 -0.6936
  155SAPE   HN117132   2.950   5.301   7.778  0.3348  0.3687 -0.4589
  155SAPE   HN217133   3.103   5.354   7.825  0.2163  1.0146 -1.1885
  155SAPE   HN317134   3.029   5.232   7.913 -1.0461  0.6704  2.0615
  155SAPE   C1217135   2.943   5.423   7.955  0.0088  0.5748 -0.6677
  155SAPE  H12A17136   3.003   5.441   8.047 -3.2275 -0.0044  1.7236
  155SAPE  H12B17137   2.860   5.369   8.005  0.3403 -0.1436 -0.8794
  155SAPE   C1117138   2.902   5.538   7.873 -0.2325 -0.5248 -0.0636
  155SAPE  H11A17139   2.984   5.599   7.830 -1.0956  0.3315 -0.5454
  155SAPE  H11B17140   2.846   5.605   7.942  0.6644  0.1861 -0.0078
  155SAPE     P17141   2.662   5.495   7.787 -0.2599  0.1669  0.0230
  155SAPE   O1317142   2.623   5.388   7.883  0.2065 -0.1913  0.2008
  155SAPE   O1417143   2.622   5.632   7.828  0.6363  0.2541  0.1701
  155SAPE   O1217144   2.819   5.498   7.764 -0.0847  0.2536  0.6846
  155SAPE   O1117145   2.600   5.468   7.651  0.2773  0.0082  0.7902
  155SAPE    C117146   2.662   5.522   7.531  0.4226 -0.7989 -0.1150
  155SAPE    HA17147   2.767   5.552   7.554  0.0868  0.1778  0.1397
  155SAPE    HB17148   2.670   5.451   7.445  3.7108  1.7625 -2.1691
  155SAPE    C217149   2.598   5.656   7.484 -0.5826 -0.1904 -0.0999
  155SAPE    HS17150   2.587   5.716   7.577  0.3310 -0.9183  0.4943
  155SAPE   O2117151   2.465   5.635   7.437 -0.2229 -0.6906  0.0286
  155SAPE   C2117152   2.392   5.742   7.402  0.6729 -0.3791  0.9226
  155SAPE   O2217153   2.412   5.854   7.436  0.5633 -0.3212 -0.4659
  155SAPE   C2217154   2.265   5.692   7.324 -0.0325 -0.1143  0.0149
  155SAPE   H2R17155   2.278   5.583   7.310  2.7304  0.3754 -2.3304
  155SAPE   H2S17156   2.175   5.714   7.385 -0.1480 -1.3692  0.3046
  155SAPE    C317157   2.685   5.736   7.387  0.6437 -0.0449 -0.6820
  155SAPE    HX17158   2.791   5.743   7.422  1.5104 -0.7035 -3.0101
  155SAPE    HY17159   2.643   5.838   7.376 -0.4734 -0.4941 -0.7178
  155SAPE   O3117160   2.679   5.683   7.252  0.4457  0.1884 -0.0254
  155SAPE   C3117161   2.774   5.592   7.211  0.6566 -0.5717  0.7715
  155SAPE   O3217162   2.867   5.559   7.283  0.1990 -0.0730  1.1458
  155SAPE   C3217163   2.757   5.555   7.066 -0.0344  0.8291  0.8922
  155SAPE   H2X17164   2.789   5.637   6.997 -1.1715 -0.6575 -1.5703
  155SAPE   H2Y17165   2.650   5.541   7.039  1.1373 -0.3818 -4.4862
  155SAPE   C2317166   2.257   5.786   7.202 -0.2779  0.8913 -0.1896
  155SAPE   H3R17167   2.347   5.801   7.139 -0.8657  0.0543 -1.2758
  155SAPE   H3S17168   2.232   5.888   7.240  0.0077  0.2404  1.8379
  155SAPE   C2417169   2.148   5.739   7.108 -0.0869 -0.2252  0.6521
  155SAPE   H4R17170   2.115   5.817   7.037  0.8567  1.2114  1.7463
  155SAPE   H4S17171   2.060   5.716   7.172 -0.2796  1.1635  0.9115
  155SAPE   C2517172   2.172   5.614   7.022  0.1919 -0.1224  0.5791
  155SAPE   H5R17173   2.133   5.519   7.060  1.0446 -0.8292 -0.2634
  155SAPE   C2617174   2.231   5.619   6.904  0.0956 -0.5360 -0.1045
  155SAPE   H6R17175   2.236   5.523   6.851  0.8850 -1.3354  1.3347
  155SAPE   C2717176   2.296   5.741   6.833 -0.7840  0.0816 -0.2261
  155SAPE   H7R17177   2.307   5.822   6.909 -1.4776 -2.3702  2.6926
  155SAPE   H7S17178   2.234   5.775   6.748 -0.3891  0.2214 -0.4618
  155SAPE   C2817179   2.446   5.722   6.805 -0.1449  0.0546 -0.0689
  155SAPE   H8R17180   2.510   5.737   6.893  1.2732 -3.0089 -0.4561
  155SAPE   C2917181   2.495   5.690   6.684 -0.6143  0.2919  0.1682
  155SAPE   H9R17182   2.603   5.691   6.661 -0.4769 -1.3941  0.5716
  155SAPE  C21017183   2.410   5.656   6.577  0.1251  0.2071 -0.1664
  155SAPE  H10R17184   2.473   5.685   6.490  1.1384  2.3258  1.1955
  155SAPE  H10S17185   2.315   5.713   6.576 -1.1944 -1.7411  2.2361
  155SAPE  C21117186   2.376   5.510   6.560 -0.7119  0.0015 -0.7884
  155SAPE  H11R17187   2.379   5.450   6.652  2.2392 -0.4867 -1.1038
  155SAPE  C21217188   2.336   5.447   6.447  0.0765  0.0005  0.1473
  155SAPE  H12R17189   2.320   5.338   6.448  0.5464 -0.1232 -2.0772
  155SAPE  C21317190   2.333   5.513   6.314  0.6440  0.4992  0.4386
  155SAPE  H13R17191   2.284   5.441   6.245 -1.4415  1.5685  0.7203
  155SAPE  H13S17192   2.439   5.518   6.280  0.1750 -1.0658 -1.4344
  155SAPE  C21417193   2.256   5.638   6.294 -0.2102 -0.5790  0.2779
  155SAPE  H14R17194   2.170   5.641   6.363  1.0352  0.3824  1.8441
  155SAPE  C21517195   2.279   5.734   6.202 -0.4483 -0.5492  0.1525
  155SAPE  H15R17196   2.208   5.815   6.177 -0.1061 -0.4360 -0.4756
  155SAPE  C21617197   2.396   5.717   6.105 -0.7997  0.0509 -0.3316
  155SAPE  H16R17198   2.432   5.612   6.102  0.2501  0.2795  2.0464
  155SAPE  H16S17199   2.487   5.764   6.148  0.6949 -1.3001 -1.8831
  155SAPE  C21717200   2.366   5.769   5.960  0.1789 -0.0410  0.3227
  155SAPE  H17R17201   2.462   5.773   5.906  1.4003 -1.3380  2.2499
  155SAPE  H17S17202   2.337   5.873   5.986 -1.4265 -0.5284  0.5924
  155SAPE  C21817203   2.253   5.700   5.878  0.0049  0.2371  0.5813
  155SAPE  H18R17204   2.264   5.735   5.773 -2.8965  0.7490  0.3592
  155SAPE  H18S17205   2.148   5.723   5.908 -0.7181  0.7071 -2.0922
  155SAPE  C21917206   2.248   5.551   5.869 -0.0288 -0.1288 -0.4071
  155SAPE  H19R17207   2.196   5.519   5.776 -0.4065 -1.9318  0.3645
  155SAPE  H19S17208   2.191   5.496   5.948  0.1071  0.4826  0.1206
  155SAPE  C22017209   2.390   5.488   5.847 -0.6732 -0.1266  0.0692
  155SAPE  H20R17210   2.454   5.557   5.788 -0.2815 -0.0885  0.5387
  155SAPE  H20S17211   2.385   5.391   5.792  1.9864 -0.6621  0.6539
  155SAPE  H20T17212   2.443   5.479   5.944  2.6452  0.0408 -1.5965
  155SAPE   C3317213   2.822   5.415   7.036  0.3703  0.1095  0.3761
  155SAPE   H3X17214   2.803   5.338   7.114 -2.6829  1.0635  0.6874
  155SAPE   H3Y17215   2.930   5.442   7.030 -0.4920  4.3312  0.9056
  155SAPE   C3417216   2.770   5.356   6.905  0.0097 -0.6459  0.3731
  155SAPE   H4X17217   2.662   5.343   6.883  0.2315 -0.0954 -1.2029
  155SAPE   H4Y17218   2.817   5.258   6.882 -0.1774 -0.1761 -2.3497
  155SAPE   C3517219   2.822   5.441   6.790 -0.2327 -0.8592 -0.2172
  155SAPE   H5X17220   2.932   5.457   6.794 -0.2980  0.2885 -1.9537
  155SAPE   H5Y17221   2.783   5.545   6.800  0.2536 -0.7523  0.7107
  155SAPE   C3617222   2.767   5.394   6.656 -0.4560 -0.2149 -0.2154
  155SAPE   H6X17223   2.659   5.417   6.651 -0.2174  0.8359 -0.8178
  155SAPE   H6Y17224   2.786   5.285   6.643 -0.5160 -0.2371 -0.1154
  155SAPE   C3717225   2.825   5.470   6.531  0.1917 -0.1531 -0.3937
  155SAPE   H7X17226   2.934   5.448   6.531 -0.0645 -1.4714 -0.0903
  155SAPE   H7Y17227   2.808   5.580   6.538 -2.2426 -0.4583 -0.4526
  155SAPE   C3817228   2.783   5.420   6.395 -0.9134  0.5625  0.4978
  155SAPE   H8X17229   2.675   5.438   6.383 -1.1056 -1.0659 -0.6698
  155SAPE   H8Y17230   2.809   5.312   6.380  2.0700  1.4563 -1.8697
  155SAPE   C3917231   2.852   5.485   6.282 -0.0337 -0.3577  0.3688
  155SAPE   H9X17232   2.961   5.463   6.287  0.2072  0.4323 -0.7750
  155SAPE   H9Y17233   2.832   5.594   6.286  0.5476 -0.2895  2.0576
  155SAPE  C31017234   2.795   5.439   6.143 -0.3142 -0.1647 -0.2737
  155SAPE  H10X17235   2.699   5.493   6.133  0.4810  1.1192 -1.1808
  155SAPE  H10Y17236   2.788   5.328   6.141  1.0593 -0.2758 -0.2839
  155SAPE  C31117237   2.887   5.490   6.034 -1.1269 -0.2431  0.7801
  155SAPE  H11X17238   2.989   5.449   6.051 -1.1940 -0.4782  0.6208
  155SAPE  H11Y17239   2.903   5.599   6.050 -0.3458 -0.2783  0.2990
  155SAPE  C31217240   2.849   5.468   5.889  0.0679 -0.7554 -0.8115
  155SAPE  H12X17241   2.750   5.517   5.875  0.4901  0.7605  1.0355
  155SAPE  H12Y17242   2.844   5.359   5.867  0.7618 -0.4629 -2.5799
  155SAPE  C31317243   2.948   5.524   5.791  0.1978 -0.2542  0.5332
  155SAPE  H13X17244   3.050   5.492   5.821  0.6420 -1.2732 -1.8488
  155SAPE  H13Y17245   2.933   5.634   5.798 -1.3951 -0.1130 -2.8611
  155SAPE  C31417246   2.931   5.494   5.646 -0.3389  0.2871  0.8102
  155SAPE  H14X17247   2.837   5.546   5.618 -1.1176 -1.4751  0.0283
  155SAPE  H14Y17248   2.916   5.384   5.648  0.3201  0.1895  0.7264
  155SAPE  C31517249   3.050   5.522   5.555  0.3501  0.9103 -0.0739
  155SAPE  H15X17250   3.034   5.467   5.460 -0.8231 -0.6029  0.9425
  155SAPE  H15Y17251   3.142   5.476   5.599 -1.1825 -2.9615 -0.5181
  155SAPE  C31617252   3.065   5.672   5.539  0.4149  0.5270  0.4994
  155SAPE  H16X17253   3.135   5.711   5.615 -0.7762 -0.9822  2.4758
  155SAPE  H16Y17254   2.964   5.717   5.552  0.2553  0.3161  0.0183
  155SAPE  C31717255   3.109   5.718   5.408  0.3471  0.4315  0.1059
  155SAPE  H17X17256   3.015   5.715   5.350 -0.3870  0.5464  1.2452
  155SAPE  H17Y17257   3.186   5.648   5.369  1.6325  1.4387  0.7579
  155SAPE  C31817258   3.155   5.866   5.402  0.0179 -0.3244  0.1884
  155SAPE  H18X17259   3.221   5.887   5.315 -0.0973 -0.2337  0.1235
  155SAPE  H18Y17260   3.209   5.885   5.498 -0.3127 -0.6048  0.4334
  155SAPE  H18Z17261   3.066   5.932   5.403 -1.2486 -1.9450 -0.8114
  156SAPE     N17262   3.625   4.284   7.197 -0.5051  0.3638  0.1233
  156SAPE   HN117263   3.707   4.227   7.228 -0.0895 -1.0458 -3.1141
  156SAPE   HN217264   3.603   4.352   7.273 -1.2821 -0.8206  1.0048
  156SAPE   HN317265   3.546   4.218   7.180  0.2696 -1.0544  1.6871
  156SAPE   C1217266   3.672   4.363   7.073 -0.0732  0.2755  0.0904
  156SAPE  H12A17267   3.683   4.303   6.981 -1.4348  2.7319 -1.7773
  156SAPE  H12B17268   3.778   4.391   7.091 -0.1649 -0.4584  2.0317
  156SAPE   C1117269   3.591   4.488   7.066 -0.2391 -0.4549 -0.5646
  156SAPE  H11A17270   3.492   4.468   7.019  0.1217 -0.4289 -1.3508
  156SAPE  H11B17271   3.639   4.565   7.002  1.8163 -1.6931 -0.5768
  156SAPE     P17272   3.648   4.653   7.271 -0.4113 -0.2495  0.2991
  156SAPE   O1317273   3.569   4.707   7.385  0.3293 -0.8210 -0.4863
  156SAPE   O1417274   3.781   4.592   7.308  0.6544 -0.1204  1.0165
  156SAPE   O1217275   3.567   4.540   7.199  0.3360  0.0039  0.3004
  156SAPE   O1117276   3.669   4.750   7.152 -0.2976 -0.2606 -0.1708
  156SAPE    C117277   3.600   4.875   7.140 -0.3375 -0.4915  0.2498
  156SAPE    HA17278   3.492   4.854   7.121 -0.4063  0.7622 -0.8945
  156SAPE    HB17279   3.586   4.932   7.235 -3.4444  0.6835 -0.7659
  156SAPE    C217280   3.675   4.968   7.037 -0.0886  0.7037 -0.7681
  156SAPE    HS17281   3.626   5.067   7.039  0.8740  1.1722  0.0450
  156SAPE   O2117282   3.661   4.909   6.911  0.1876 -0.5372  0.3579
  156SAPE   C2117283   3.538   4.914   6.859 -0.2655  0.3229 -0.1887
  156SAPE   O2217284   3.446   4.984   6.897  0.5072 -0.2199 -0.9523
  156SAPE   C2217285   3.529   4.829   6.736  0.5961 -0.0355  0.5079
  156SAPE   H2R17286   3.572   4.726   6.744  0.5582 -0.1529 -0.6132
  156SAPE   H2S17287   3.423   4.798   6.722  0.3571  0.9515  0.0738
  156SAPE    C317288   3.825   4.990   7.068  0.8567 -0.0500  1.1493
  156SAPE    HX17289   3.875   4.895   7.093 -1.1881 -1.1706  1.1742
  156SAPE    HY17290   3.830   5.052   7.160  0.6709  0.4860  0.8023
  156SAPE   O3117291   3.884   5.073   6.965  0.1466  0.2519  0.1561
  156SAPE   C3117292   3.961   5.013   6.885 -0.0082  0.3728  0.4527
  156SAPE   O3217293   3.985   4.891   6.893  0.4411  0.6192  0.5616
  156SAPE   C3217294   4.017   5.112   6.782  0.7259 -0.3680  0.0065
  156SAPE   H2X17295   4.092   5.175   6.835 -0.8984  1.0628  0.6859
  156SAPE   H2Y17296   3.932   5.175   6.748  0.3080 -1.5456 -1.2181
  156SAPE   C2317297   3.575   4.902   6.612 -0.5208 -0.2805  0.1040
  156SAPE   H3R17298   3.681   4.933   6.607 -0.6371  0.4427  1.6004
  156SAPE   H3S17299   3.528   5.002   6.605  3.0079  1.7687  2.7908
  156SAPE   C2417300   3.509   4.832   6.483 -0.2861 -0.1889 -0.3182
  156SAPE   H4R17301   3.500   4.905   6.400  1.7375  0.1117 -0.3264
  156SAPE   H4S17302   3.406   4.799   6.509 -1.0907 -0.2755 -3.2066
  156SAPE   C2517303   3.586   4.718   6.444  0.2279  0.7152  0.0580
  156SAPE   H5R17304   3.644   4.662   6.519  0.8475 -0.6779 -1.4012
  156SAPE   C2617305   3.582   4.655   6.320  0.4229 -0.4634 -0.1791
  156SAPE   H6R17306   3.631   4.558   6.300  2.7177  0.2143  1.6510
  156SAPE   C2717307   3.502   4.696   6.200  0.6655 -0.2740 -0.7567
  156SAPE   H7R17308   3.420   4.766   6.226  0.6384 -0.4527 -0.3474
  156SAPE   H7S17309   3.457   4.600   6.166 -1.3082  0.8202 -1.4012
  156SAPE   C2817310   3.594   4.757   6.097  0.1731 -0.0389  0.0655
  156SAPE   H8R17311   3.668   4.821   6.147 -0.4711 -1.0258  2.4642
  156SAPE   C2917312   3.596   4.728   5.964  0.0761 -0.9649 -0.2559
  156SAPE   H9R17313   3.663   4.787   5.900 -0.2734 -0.0295  0.2192
  156SAPE  C21017314   3.505   4.647   5.875  0.1227  0.2478  0.4036
  156SAPE  H10R17315   3.445   4.721   5.817 -0.3587 -1.5244 -1.4843
  156SAPE  H10S17316   3.435   4.595   5.944 -2.0481  1.4726 -0.7772
  156SAPE  C21117317   3.589   4.557   5.783  0.1944 -0.0293 -0.3939
  156SAPE  H11R17318   3.647   4.480   5.838  2.4416  0.8163 -1.4559
  156SAPE  C21217319   3.616   4.578   5.653  0.1492  0.2842 -0.0091
  156SAPE  H12R17320   3.679   4.501   5.605 -0.6977 -0.1244 -0.4913
  156SAPE  C21317321   3.551   4.676   5.556  0.2033  0.4291  0.3419
  156SAPE  H13R17322   3.615   4.698   5.468  1.3786 -0.6839  0.8840
  156SAPE  H13S17323   3.540   4.770   5.614  1.2108  1.3721 -0.9145
  156SAPE  C21417324   3.410   4.637   5.501 -0.4675 -0.6266 -0.8482
  156SAPE  H14R17325   3.326   4.675   5.561 -0.1085 -0.7773 -0.2371
  156SAPE  C21517326   3.383   4.592   5.376 -0.3991  0.3080  0.1160
  156SAPE  H15R17327   3.277   4.594   5.347  0.0381  0.3036 -1.5933
  156SAPE  C21617328   3.475   4.539   5.270  0.4291  0.3047  0.1898
  156SAPE  H16R17329   3.439   4.436   5.246  3.5547 -1.1151  1.0698
  156SAPE  H16S17330   3.579   4.519   5.302  0.0932  1.0968  1.9141
  156SAPE  C21717331   3.468   4.622   5.142 -0.4829 -0.1851  0.3128
  156SAPE  H17R17332   3.361   4.625   5.114 -0.2310  0.1574 -0.6489
  156SAPE  H17S17333   3.527   4.571   5.063  0.2274  0.3255  0.4970
  156SAPE  C21817334   3.525   4.764   5.156 -0.2896  0.5755  0.0551
  156SAPE  H18R17335   3.600   4.764   5.237  0.4701 -2.0418 -0.5413
  156SAPE  H18S17336   3.453   4.843   5.187 -1.0192 -0.5246  1.2529
  156SAPE  C21917337   3.606   4.819   5.031 -0.2168 -0.1873  0.0965
  156SAPE  H19R17338   3.526   4.829   4.955 -0.6510 -3.6602 -0.0629
  156SAPE  H19S17339   3.684   4.751   4.992  1.0898  0.9979  0.5481
  156SAPE  C22017340   3.674   4.958   5.046 -0.3677 -0.0270  0.1692
  156SAPE  H20R17341   3.755   4.957   5.123  0.1239  0.2150 -0.3314
  156SAPE  H20S17342   3.602   5.032   5.086  1.4059  0.7716  2.0733
  156SAPE  H20T17343   3.720   4.988   4.949 -0.6144 -0.2977 -0.0338
  156SAPE   C3317344   4.081   5.035   6.664  0.0479  0.2611  0.0826
  156SAPE   H3X17345   4.106   4.933   6.701 -1.5257  0.2110  1.1183
  156SAPE   H3Y17346   4.178   5.085   6.643  1.9607 -2.6966  1.1473
  156SAPE   C3417347   3.988   5.006   6.550 -0.3232 -0.3385  0.4537
  156SAPE   H4X17348   3.952   5.102   6.506 -0.5230 -0.3485  0.5963
  156SAPE   H4Y17349   3.901   4.947   6.586  0.7088 -1.8844  0.5301
  156SAPE   C3517350   4.061   4.939   6.431  0.1550 -0.2629  0.7359
  156SAPE   H5X17351   4.098   4.839   6.462 -0.4790 -0.4876  0.7929
  156SAPE   H5Y17352   4.140   5.003   6.387  0.0840 -0.9089 -0.3765
  156SAPE   C3617353   3.963   4.920   6.317  0.1461 -0.0769  0.5654
  156SAPE   H6X17354   3.949   5.013   6.258  0.9937 -0.5446 -0.4124
  156SAPE   H6Y17355   3.864   4.897   6.362 -0.9373 -0.6765 -1.9567
  156SAPE   C3717356   3.995   4.797   6.225 -0.7428 -0.1365  0.5347
  156SAPE   H7X17357   3.903   4.790   6.163 -2.0071 -1.1658  2.4075
  156SAPE   H7Y17358   3.995   4.699   6.277 -1.7467 -0.4120  0.0346
  156SAPE   C3817359   4.124   4.812   6.144  0.1679  0.8421  0.2403
  156SAPE   H8X17360   4.219   4.764   6.174 -0.3423 -0.4174 -0.0861
  156SAPE   H8Y17361   4.150   4.920   6.135 -2.5853  1.5269 -0.5387
  156SAPE   C3917362   4.096   4.780   5.992  0.0323  0.1672 -0.0334
  156SAPE   H9X17363   4.179   4.831   5.938  1.5401 -0.3798  1.6367
  156SAPE   H9Y17364   3.996   4.817   5.962  0.7148  1.4014 -0.8666
  156SAPE  C31017365   4.104   4.624   5.968  0.3065 -0.0028 -0.0005
  156SAPE  H10X17366   4.011   4.579   6.008  1.3082 -0.0829  2.4381
  156SAPE  H10Y17367   4.191   4.583   6.024 -0.2322 -2.2718 -0.7235
  156SAPE  C31117368   4.125   4.578   5.823 -0.0732 -0.4388  0.5606
  156SAPE  H11X17369   4.124   4.467   5.820  0.2557 -0.4738 -3.2861
  156SAPE  H11Y17370   4.219   4.626   5.788 -1.7340  1.4377 -1.5441
  156SAPE  C31217371   4.012   4.641   5.736 -0.6394 -0.5065  0.1633
  156SAPE  H12X17372   4.033   4.750   5.730  0.9393 -0.8623 -2.0652
  156SAPE  H12Y17373   3.919   4.623   5.794  0.6570  0.0799  2.5540
  156SAPE  C31317374   3.991   4.589   5.589  0.1798  0.0060 -0.0891
  156SAPE  H13X17375   3.885   4.614   5.566  0.2749  1.3551  0.8654
  156SAPE  H13Y17376   4.005   4.479   5.593  0.5303  0.0899  1.2824
  156SAPE  C31417377   4.092   4.648   5.487 -0.0953  0.0926 -0.1125
  156SAPE  H14X17378   4.113   4.756   5.505  0.6705  0.2511 -1.7208
  156SAPE  H14Y17379   4.053   4.646   5.383 -0.7616  1.6237  0.0835
  156SAPE  C31517380   4.227   4.589   5.498  0.4200  0.3468  0.4556
  156SAPE  H15X17381   4.227   4.479   5.508  0.7929  0.1952 -0.9612
  156SAPE  H15Y17382   4.279   4.615   5.592  0.3424 -2.9220  1.5078
  156SAPE  C31617383   4.320   4.622   5.380 -0.1835  0.8113  0.2884
  156SAPE  H16X17384   4.379   4.713   5.407 -0.0062  0.7785  0.0142
  156SAPE  H16Y17385   4.259   4.648   5.290 -0.3162  1.0784  0.4508
  156SAPE  C31717386   4.411   4.498   5.352 -0.0362  0.3583  0.0653
  156SAPE  H17X17387   4.343   4.411   5.358 -1.9041  1.7300  0.0519
  156SAPE  H17Y17388   4.485   4.500   5.434  1.1726 -1.5942 -0.9008
  156SAPE  C31817389   4.479   4.503   5.217  0.1139 -0.5110  0.3476
  156SAPE  H18X17390   4.535   4.599   5.213 -0.7120 -0.0286 -0.0370
  156SAPE  H18Y17391   4.421   4.488   5.123 -1.5381  2.9559  0.6577
  156SAPE  H18Z17392   4.552   4.419   5.221 -0.3931 -1.0814 -1.2428
  157SAPE     N17393   3.407   3.586   7.383 -0.5544 -0.5416  0.3629
  157SAPE   HN117394   3.345   3.532   7.319 -0.6411 -0.8109  0.6675
  157SAPE   HN217395   3.397   3.556   7.483  0.4777 -0.9938  0.3494
  157SAPE   HN317396   3.369   3.682   7.390 -0.0424 -0.4307  5.0713
  157SAPE   C1217397   3.544   3.586   7.332 -0.0358  0.1227  0.2426
  157SAPE  H12A17398   3.574   3.479   7.326 -1.8511 -0.5568  1.9608
  157SAPE  H12B17399   3.613   3.646   7.394 -1.2748  0.2590  1.5471
  157SAPE   C1117400   3.545   3.657   7.192 -0.3108 -0.3563 -0.4274
  157SAPE  H11A17401   3.493   3.591   7.119 -0.2142 -2.1482  1.0531
  157SAPE  H11B17402   3.649   3.656   7.152  0.2568 -0.4910  0.9868
  157SAPE     P17403   3.595   3.912   7.191 -0.2180 -0.0360  0.0810
  157SAPE   O1317404   3.517   4.039   7.172  0.1728  0.0057 -0.0819
  157SAPE   O1417405   3.697   3.911   7.303  0.5132  0.5042 -0.4367
  157SAPE   O1217406   3.501   3.793   7.201  0.2257 -0.2563 -0.2683
  157SAPE   O1117407   3.666   3.876   7.055  0.0155  0.3998  0.4727
  157SAPE    C117408   3.591   3.865   6.932  0.1706 -0.0506 -0.2790
  157SAPE    HA17409   3.633   3.781   6.870  1.2333  0.8115 -0.7675
  157SAPE    HB17410   3.483   3.854   6.953  0.3381 -2.2897 -0.2717
  157SAPE    C217411   3.619   3.987   6.843 -0.1510  0.3403  0.4215
  157SAPE    HS17412   3.587   4.077   6.899  0.7333  1.7895 -1.2846
  157SAPE   O2117413   3.548   3.970   6.711  0.0125  0.2659  0.6021
  157SAPE   C2117414   3.448   4.050   6.684 -0.3548  0.4747 -0.1989
  157SAPE   O2217415   3.399   4.129   6.765  0.5482 -0.1556  0.1515
  157SAPE   C2217416   3.392   4.028   6.543  0.2341 -0.6809  0.3723
  157SAPE   H2R17417   3.390   3.921   6.513 -1.4681 -0.2898 -1.0103
  157SAPE   H2S17418   3.287   4.062   6.549  0.2383 -0.3722 -0.9942
  157SAPE    C317419   3.769   4.004   6.800 -0.3080 -0.1287 -0.3328
  157SAPE    HX17420   3.793   3.919   6.733 -0.8421  0.2621 -1.0344
  157SAPE    HY17421   3.841   4.005   6.884 -2.7194  3.8391  2.0356
  157SAPE   O3117422   3.786   4.139   6.739 -0.0501  0.2493 -0.5838
  157SAPE   C3117423   3.860   4.155   6.634 -0.0181 -0.2251 -0.0055
  157SAPE   O3217424   3.928   4.067   6.587  0.0956  0.3509  0.3358
  157SAPE   C3217425   3.857   4.299   6.583 -0.5903 -0.4433 -0.0812
  157SAPE   H2X17426   3.932   4.354   6.643 -0.3135 -1.0122  0.1073
  157SAPE   H2Y17427   3.759   4.347   6.604 -0.1008 -0.0865  1.5258
  157SAPE   C2317428   3.470   4.115   6.436 -0.2068  0.2140 -0.5176
  157SAPE   H3R17429   3.570   4.066   6.428 -0.3349  0.1630 -2.4389
  157SAPE   H3S17430   3.474   4.222   6.464  0.5855  0.6446 -2.1178
  157SAPE   C2417431   3.416   4.114   6.292 -0.2470 -0.1430  0.7312
  157SAPE   H4R17432   3.469   4.198   6.242  1.2084 -1.3561  0.1440
  157SAPE   H4S17433   3.307   4.122   6.311 -0.8537 -2.9607 -1.0881
  157SAPE   C2517434   3.439   3.994   6.206 -0.1062 -0.5100 -0.2669
  157SAPE   H5R17435   3.543   3.961   6.220  0.5718  1.3518 -0.5114
  157SAPE   C2617436   3.368   3.943   6.103 -0.2157  0.7583  0.1710
  157SAPE   H6R17437   3.412   3.851   6.062 -0.7779  0.2045  0.7804
  157SAPE   C2717438   3.226   3.974   6.070  1.0298  0.3555  0.1994
  157SAPE   H7R17439   3.223   4.020   5.969  0.7269 -0.3172 -0.0960
  157SAPE   H7S17440   3.183   4.053   6.136  1.1447 -0.6984  1.5789
  157SAPE   C2817441   3.148   3.847   6.089  1.2840 -0.7628  0.4291
  157SAPE   H8R17442   3.105   3.832   6.189 -0.7911  0.9647 -0.1292
  157SAPE   C2917443   3.105   3.767   5.984  0.3398 -0.5520  0.6427
  157SAPE   H9R17444   3.040   3.679   5.994 -0.8763 -0.0001 -1.6382
  157SAPE  C21017445   3.129   3.791   5.834 -0.2259  0.4250 -0.0684
  157SAPE  H10R17446   3.195   3.879   5.823  1.6038 -1.0184 -1.1736
  157SAPE  H10S17447   3.044   3.808   5.764  0.3601  1.9847 -0.4254
  157SAPE  C21117448   3.228   3.682   5.777  0.0617 -0.1360 -0.7347
  157SAPE  H11R17449   3.332   3.680   5.815  0.1458  0.0534 -0.9537
  157SAPE  C21217450   3.195   3.592   5.676 -0.9605 -0.0826 -0.0794
  157SAPE  H12R17451   3.280   3.530   5.643  0.0036  1.8629 -1.4742
  157SAPE  C21317452   3.076   3.586   5.580 -0.0631 -0.0958  0.0367
  157SAPE  H13R17453   2.988   3.603   5.645  0.5936 -1.8853  1.4583
  157SAPE  H13S17454   3.060   3.482   5.544  0.3866 -0.5825  1.1943
  157SAPE  C21417455   3.073   3.684   5.461  0.4374 -0.4618 -0.4828
  157SAPE  H14R17456   3.149   3.673   5.382  1.8355  2.6012  0.2827
  157SAPE  C21517457   2.988   3.786   5.440  0.2052 -0.2420 -0.2406
  157SAPE  H15R17458   3.008   3.858   5.359  0.2425  0.1362  0.0991
  157SAPE  C21617459   2.876   3.834   5.533 -0.0939  0.6096  0.4218
  157SAPE  H16R17460   2.930   3.894   5.609  1.4398  0.4714 -0.5200
  157SAPE  H16S17461   2.820   3.753   5.586 -0.0568 -0.7096 -1.4756
  157SAPE  C21717462   2.772   3.888   5.450  0.7592  0.8540  0.5811
  157SAPE  H17R17463   2.706   3.818   5.394 -0.1341  0.7960  1.6717
  157SAPE  H17S17464   2.822   3.955   5.377  1.0978 -2.0617 -2.0396
  157SAPE  C21817465   2.676   3.978   5.530 -0.4680  0.0883  0.1462
  157SAPE  H18R17466   2.740   4.058   5.573 -0.6950  0.4210 -0.1320
  157SAPE  H18S17467   2.623   3.930   5.615  0.3950  1.3124  1.4280
  157SAPE  C21917468   2.559   4.040   5.448 -0.2165 -0.0378  0.9316
  157SAPE  H19R17469   2.489   4.111   5.499 -0.1407  1.6122 -1.1059
  157SAPE  H19S17470   2.492   3.958   5.417 -0.1733  1.0583 -2.4617
  157SAPE  C22017471   2.601   4.088   5.313 -0.0287  0.4621  0.3673
  157SAPE  H20R17472   2.652   4.014   5.248 -1.1637  2.5881 -3.2177
  157SAPE  H20S17473   2.654   4.186   5.320 -0.1106  0.6762 -1.5888
  157SAPE  H20T17474   2.507   4.102   5.256  0.2010 -2.8600 -1.0342
  157SAPE   C3317475   3.893   4.323   6.434 -0.3085  0.2342 -0.1508
  157SAPE   H3X17476   3.985   4.267   6.409  0.1431  1.0736 -0.4212
  157SAPE   H3Y17477   3.912   4.431   6.417  0.3906  0.6277  2.5615
  157SAPE   C3417478   3.777   4.293   6.339  0.2262  0.2795  0.5289
  157SAPE   H4X17479   3.696   4.359   6.378 -0.1520  0.9117 -1.2168
  157SAPE   H4Y17480   3.752   4.185   6.344 -0.9280  0.5268  0.4294
  157SAPE   C3517481   3.801   4.316   6.187 -0.6362  0.2526  0.0258
  157SAPE   H5X17482   3.795   4.423   6.156 -3.2714 -0.2017 -1.2759
  157SAPE   H5Y17483   3.727   4.262   6.124 -2.4626  2.3706  0.2507
  157SAPE   C3617484   3.941   4.253   6.146  0.2614 -0.6995 -0.3150
  157SAPE   H6X17485   3.945   4.151   6.189  0.2478  0.5711  3.0759
  157SAPE   H6Y17486   4.018   4.303   6.208 -2.6219 -1.5881  4.5683
  157SAPE   C3717487   3.967   4.255   5.994  0.4886 -0.5640  0.8927
  157SAPE   H7X17488   4.065   4.209   5.972 -0.3224 -2.2628  0.6497
  157SAPE   H7Y17489   3.983   4.363   5.973 -0.3355 -0.0548  2.6614
  157SAPE   C3817490   3.850   4.196   5.909  0.2874 -0.7021  0.0198
  157SAPE   H8X17491   3.754   4.245   5.938 -0.0266 -0.9013 -0.6807
  157SAPE   H8Y17492   3.843   4.090   5.942 -1.7769 -0.1521  1.6632
  157SAPE   C3917493   3.868   4.219   5.757  0.1169  0.5423  0.3849
  157SAPE   H9X17494   3.952   4.151   5.731  0.9396  2.7496 -3.4660
  157SAPE   H9Y17495   3.919   4.315   5.736  4.4655 -1.3486  1.1747
  157SAPE  C31017496   3.743   4.184   5.679  0.3965  0.1174  0.2748
  157SAPE  H10X17497   3.687   4.278   5.657 -0.0022  0.4073  2.3194
  157SAPE  H10Y17498   3.674   4.117   5.734 -0.2482  1.3944  1.0612
  157SAPE  C31117499   3.778   4.135   5.544 -0.2098  0.2168  0.5064
  157SAPE  H11X17500   3.702   4.065   5.502  0.8967 -1.7562  1.6542
  157SAPE  H11Y17501   3.867   4.069   5.558 -0.4859 -0.8846 -2.2421
  157SAPE  C31217502   3.811   4.256   5.443  0.4070  0.1303  0.0976
  157SAPE  H12X17503   3.851   4.331   5.514 -2.8071  0.6294  1.5544
  157SAPE  H12Y17504   3.723   4.310   5.403  0.7902  1.0715  0.4870
  157SAPE  C31317505   3.901   4.205   5.331 -0.4129  0.2851  0.8134
  157SAPE  H13X17506   3.849   4.145   5.253 -0.1648  1.5159 -0.3364
  157SAPE  H13Y17507   3.982   4.143   5.374  0.4097  0.3580 -0.5668
  157SAPE  C31417508   3.969   4.325   5.249  0.6428 -0.0654  0.0818
  157SAPE  H14X17509   4.023   4.391   5.321 -0.4651 -0.9779  1.8417
  157SAPE  H14Y17510   3.882   4.375   5.203  0.6217  0.6636  0.8838
  157SAPE  C31517511   4.056   4.270   5.132 -0.4263 -0.3428  0.2799
  157SAPE  H15X17512   3.997   4.199   5.069  0.6482  0.1876 -1.3826
  157SAPE  H15Y17513   4.135   4.207   5.177  0.2648 -0.0409 -0.4830
  157SAPE  C31617514   4.112   4.372   5.036  0.4589  0.0331  0.0574
  157SAPE  H16X17515   4.188   4.421   5.101 -1.3077 -0.8186  2.9496
  157SAPE  H16Y17516   4.031   4.439   5.000  0.0210  0.2015  1.3273
  157SAPE  C31717517   4.195   4.306   4.921 -0.3290  0.0660 -0.3255
  157SAPE  H17X17518   4.126   4.233   4.873 -0.6254  0.7905 -1.0368
  157SAPE  H17Y17519   4.275   4.259   4.981  0.7998  1.0565 -1.0087
  157SAPE  C31817520   4.254   4.422   4.829  0.3914 -0.2366 -0.2575
  157SAPE  H18X17521   4.173   4.483   4.784  0.4963  0.2510  0.1913
  157SAPE  H18Y17522   4.320   4.370   4.757  0.4892 -0.1961 -0.1987
  157SAPE  H18Z17523   4.318   4.486   4.895 -0.9722 -0.0233  0.8939
  158SAPE     N17524   3.903   1.819   7.907  0.7329  0.3680 -0.4679
  158SAPE   HN117525   3.979   1.845   7.841  0.4166  3.0265  0.1015
  158SAPE   HN217526   3.816   1.872   7.884 -0.1633 -1.3190 -1.1566
  158SAPE   HN317527   3.942   1.831   8.002  0.7769 -0.1059 -0.4278
  158SAPE   C1217528   3.865   1.671   7.881 -0.3014 -0.4693 -0.2331
  158SAPE  H12A17529   3.780   1.643   7.947 -0.7732 -2.4845 -1.6091
  158SAPE  H12B17530   3.953   1.605   7.896  0.3015  0.2145 -0.6817
  158SAPE   C1117531   3.811   1.662   7.733 -0.1492  0.1725 -0.4653
  158SAPE  H11A17532   3.769   1.560   7.721  1.1052 -0.4282  0.1752
  158SAPE  H11B17533   3.894   1.662   7.659  0.7768 -0.5451  0.5451
  158SAPE     P17534   3.567   1.723   7.668  0.0453  0.0290 -0.2291
  158SAPE   O1317535   3.521   1.614   7.757 -0.1200 -0.2858 -0.2412
  158SAPE   O1417536   3.483   1.844   7.657 -0.1127  0.0017 -0.5130
  158SAPE   O1217537   3.715   1.768   7.702 -0.5555  0.3909 -0.0526
  158SAPE   O1117538   3.586   1.656   7.529  0.4186  0.1953 -0.2063
  158SAPE    C117539   3.623   1.740   7.417 -0.3373 -0.2383  0.2743
  158SAPE    HA17540   3.542   1.807   7.384 -0.2741  0.6681  1.8478
  158SAPE    HB17541   3.705   1.813   7.438 -0.7631  0.9286 -1.8965
  158SAPE    C217542   3.661   1.651   7.294  0.2737  0.0044 -0.1525
  158SAPE    HS17543   3.736   1.697   7.226 -1.2493  1.0803 -1.1583
  158SAPE   O2117544   3.537   1.619   7.224  0.3290 -0.0973 -0.2485
  158SAPE   C2117545   3.520   1.689   7.108  0.0840 -0.0574  0.3537
  158SAPE   O2217546   3.596   1.768   7.067  0.0862 -0.1312 -0.6917
  158SAPE   C2217547   3.388   1.646   7.045 -0.8441 -0.1966 -0.9621
  158SAPE   H2R17548   3.334   1.598   7.129  0.8878  1.0482  0.9523
  158SAPE   H2S17549   3.332   1.734   7.009 -0.1532  1.2111  1.1997
  158SAPE    C317550   3.739   1.520   7.345  0.5919  0.4278  0.0973
  158SAPE    HX17551   3.672   1.466   7.415  0.1024 -0.8105 -1.2672
  158SAPE    HY17552   3.830   1.542   7.404  2.1430 -1.5320 -1.3938
  158SAPE   O3117553   3.781   1.432   7.234  0.1609  0.0228 -0.1506
  158SAPE   C3117554   3.761   1.304   7.254 -0.6303 -0.4108  0.3976
  158SAPE   O3217555   3.726   1.253   7.359 -0.1824 -0.5605  0.5346
  158SAPE   C3217556   3.793   1.236   7.119  0.3065 -0.6709 -0.9579
  158SAPE   H2X17557   3.740   1.303   7.048  0.9554 -0.0475 -0.8689
  158SAPE   H2Y17558   3.749   1.135   7.122  1.0379 -0.9665  0.5593
  158SAPE   C2317559   3.414   1.554   6.922  0.3582  0.5312  0.2147
  158SAPE   H3R17560   3.462   1.622   6.848  0.0644  1.4798  0.8686
  158SAPE   H3S17561   3.314   1.518   6.892  0.1843  0.5444  0.7580
  158SAPE   C2417562   3.510   1.432   6.935  0.6392 -0.2916 -0.4038
  158SAPE   H4R17563   3.611   1.466   6.969  0.5769 -0.6069  0.1176
  158SAPE   H4S17564   3.531   1.388   6.835  0.1692 -2.0159  0.2070
  158SAPE   C2517565   3.443   1.339   7.036  0.5066 -0.1813  0.1294
  158SAPE   H5R17566   3.435   1.386   7.135 -0.5120  0.6291 -0.3178
  158SAPE   C2617567   3.394   1.218   7.010  0.3413  0.3797 -0.8548
  158SAPE   H6R17568   3.338   1.155   7.081  0.4968  0.9181 -0.2461
  158SAPE   C2717569   3.393   1.147   6.872  0.1460  0.0112 -0.2298
  158SAPE   H7R17570   3.335   1.221   6.812 -0.8381 -1.0736 -0.6705
  158SAPE   H7S17571   3.339   1.051   6.886  0.8339 -0.7070 -2.1421
  158SAPE   C2817572   3.525   1.111   6.805 -0.0472  0.7107 -0.1592
  158SAPE   H8R17573   3.599   1.070   6.875 -1.1072  0.0271  0.5705
  158SAPE   C2917574   3.554   1.123   6.676  0.3626 -0.3110 -0.3540
  158SAPE   H9R17575   3.655   1.091   6.644  0.3097 -0.0558 -0.7944
  158SAPE  C21017576   3.463   1.179   6.564 -0.0909  0.8796  0.5516
  158SAPE  H10R17577   3.534   1.244   6.508  0.1742  0.2201  0.1103
  158SAPE  H10S17578   3.386   1.247   6.606 -0.7747 -0.3238  1.2874
  158SAPE  C21117579   3.407   1.067   6.482 -0.4343 -0.2727 -0.1622
  158SAPE  H11R17580   3.378   0.970   6.526 -0.7456 -1.5843 -3.0042
  158SAPE  C21217581   3.377   1.067   6.351 -0.0769  0.7567  0.2904
  158SAPE  H12R17582   3.347   0.968   6.314  0.2110  0.6198  0.4213
  158SAPE  C21317583   3.399   1.179   6.248  0.2356  0.5669  0.2629
  158SAPE  H13R17584   3.491   1.157   6.191 -1.8440  0.3637 -3.2983
  158SAPE  H13S17585   3.434   1.269   6.302 -0.1755  0.4029  0.8195
  158SAPE  C21417586   3.288   1.213   6.154 -0.3768  0.6782 -0.3004
  158SAPE  H14R17587   3.235   1.307   6.178  1.4844  1.1954  2.1800
  158SAPE  C21517588   3.236   1.134   6.060 -0.0930  0.7363 -0.2220
  158SAPE  H15R17589   3.153   1.173   5.999 -0.2168 -0.6476 -0.9714
  158SAPE  C21617590   3.297   1.000   6.024  0.8564 -0.5555  0.9333
  158SAPE  H16R17591   3.227   0.917   6.046  0.8394 -0.6413  0.5684
  158SAPE  H16S17592   3.392   0.971   6.074  1.4810 -2.0064 -0.9263
  158SAPE  C21717593   3.337   1.003   5.877  0.3802  0.7709 -0.8322
  158SAPE  H17R17594   3.387   0.905   5.860  1.7834  1.4011 -0.5210
  158SAPE  H17S17595   3.408   1.083   5.848  2.0938 -0.6114 -0.6748
  158SAPE  C21817596   3.210   1.005   5.781  0.0018  0.5367  0.4132
  158SAPE  H18R17597   3.145   1.094   5.785 -5.2063 -2.6303 -2.4692
  158SAPE  H18S17598   3.152   0.912   5.799 -1.5627  1.3489 -0.2426
  158SAPE  C21917599   3.255   0.996   5.635 -0.3361 -0.3902 -0.4274
  158SAPE  H19R17600   3.332   0.916   5.633 -0.5826 -0.6989  0.8465
  158SAPE  H19S17601   3.314   1.088   5.615  0.7842 -0.6988  1.2497
  158SAPE  C22017602   3.131   0.985   5.554 -0.5486 -0.2224  0.1741
  158SAPE  H20R17603   3.143   0.959   5.446  0.6876  1.7758 -0.2403
  158SAPE  H20S17604   3.075   1.081   5.560 -0.0751 -0.0275  2.3127
  158SAPE  H20T17605   3.054   0.915   5.590 -0.3136 -0.3322  0.4676
  158SAPE   C3317606   3.943   1.214   7.094  0.7959 -0.4944 -0.8828
  158SAPE   H3X17607   3.985   1.161   7.182 -1.7155 -2.5786 -0.8308
  158SAPE   H3Y17608   3.999   1.310   7.085  1.4469 -0.2603  3.6202
  158SAPE   C3417609   3.972   1.135   6.975  0.1629 -0.1978  0.0721
  158SAPE   H4X17610   3.914   1.040   6.978 -0.6811  0.3263  0.5995
  158SAPE   H4Y17611   4.082   1.115   6.971  0.1222 -0.3183 -0.4474
  158SAPE   C3517612   3.944   1.221   6.852 -0.5662  0.2477 -0.3284
  158SAPE   H5X17613   4.021   1.301   6.860  0.6958 -1.0697  1.2462
  158SAPE   H5Y17614   3.841   1.263   6.857 -0.1173  1.3825 -0.2514
  158SAPE   C3617615   3.960   1.149   6.721  0.0646  0.6651 -0.2231
  158SAPE   H6X17616   3.905   1.053   6.735 -1.1197  1.5445  1.5659
  158SAPE   H6Y17617   4.062   1.115   6.692  0.0043 -2.2177  2.4240
  158SAPE   C3717618   3.895   1.220   6.599  0.0399  0.5553  0.8600
  158SAPE   H7X17619   3.958   1.304   6.563  1.0647 -1.3837 -2.2961
  158SAPE   H7Y17620   3.788   1.244   6.617  0.4227  1.2644  2.3625
  158SAPE   C3817621   3.885   1.129   6.470  0.5381 -0.4261 -0.8078
  158SAPE   H8X17622   3.830   1.033   6.473  1.4991 -1.0894 -2.6522
  158SAPE   H8Y17623   3.986   1.089   6.449 -0.2384 -1.5942 -2.5610
  158SAPE   C3917624   3.824   1.210   6.356 -0.6119  0.1943 -0.0803
  158SAPE   H9X17625   3.867   1.312   6.367  0.7676 -0.5594  2.0347
  158SAPE   H9Y17626   3.714   1.218   6.371 -0.8314  0.6012 -1.7561
  158SAPE  C31017627   3.848   1.166   6.215 -0.0252  0.0070 -0.1615
  158SAPE  H10X17628   3.814   1.061   6.219 -0.1667  0.0948  2.1699
  158SAPE  H10Y17629   3.955   1.176   6.188  0.0259 -1.2319 -0.4460
  158SAPE  C31117630   3.769   1.238   6.107 -0.2928  0.7541  0.9270
  158SAPE  H11X17631   3.796   1.345   6.106 -2.7336  1.4325 -0.0128
  158SAPE  H11Y17632   3.658   1.236   6.117 -0.3546  1.1064  0.3638
  158SAPE  C31217633   3.798   1.181   5.962  0.2618  0.4154 -0.8612
  158SAPE  H12X17634   3.812   1.072   5.975  4.0193  0.8547 -0.1982
  158SAPE  H12Y17635   3.890   1.233   5.927  0.4484  2.1495  1.8682
  158SAPE  C31317636   3.689   1.214   5.856  0.1433 -0.1835  0.1382
  158SAPE  H13X17637   3.699   1.324   5.843 -1.1742  0.2411  2.2272
  158SAPE  H13Y17638   3.585   1.180   5.877  0.1129 -0.0365  0.2277
  158SAPE  C31417639   3.717   1.141   5.726  0.3182 -0.5752  0.2540
  158SAPE  H14X17640   3.677   1.039   5.744  0.0619 -0.6070 -0.4659
  158SAPE  H14Y17641   3.827   1.133   5.712  0.4230 -1.4484  1.4564
  158SAPE  C31517642   3.660   1.202   5.593  0.2141 -0.2782 -0.5601
  158SAPE  H15X17643   3.679   1.310   5.577 -1.4083  0.8061  3.5229
  158SAPE  H15Y17644   3.550   1.202   5.612  0.7285 -0.4637  3.1509
  158SAPE  C31617645   3.675   1.115   5.468  0.3874  0.7485  0.2157
  158SAPE  H16X17646   3.703   1.011   5.496  0.7680  0.7677 -0.0941
  158SAPE  H16Y17647   3.753   1.150   5.398  1.0685 -0.9728  0.0575
  158SAPE  C31717648   3.539   1.102   5.388  0.0449  0.1408 -0.0546
  158SAPE  H17X17649   3.519   1.209   5.369  1.4352  0.5162  0.4696
  158SAPE  H17Y17650   3.452   1.071   5.451 -1.2366  1.4132 -1.1283
  158SAPE  C31817651   3.556   1.019   5.267 -0.2635 -0.1529 -0.0180
  158SAPE  H18X17652   3.462   1.010   5.208 -0.4671 -3.5261  0.6523
  158SAPE  H18Y17653   3.577   0.913   5.289 -0.3196 -0.4502 -1.3150
  158SAPE  H18Z17654   3.640   1.054   5.203 -0.5842  0.7535  0.0306
  159SAPE     N17655   2.940   1.964   2.946 -0.3843  0.4198  0.0066
  159SAPE   HN117656   2.982   1.880   2.901  2.5154  0.8069  1.7375
  159SAPE   HN217657   2.875   1.997   2.872  2.7514  1.8417 -2.3740
  159SAPE   HN317658   3.023   2.028   2.952  0.4045 -0.2421 -2.3867
  159SAPE   C1217659   2.878   1.946   3.082  0.1789  0.0344  0.3226
  159SAPE  H12A17660   2.962   1.952   3.154  0.3219  0.6600  0.1053
  159SAPE  H12B17661   2.822   1.850   3.081 -1.0503  0.7303  0.4510
  159SAPE   C1117662   2.778   2.061   3.112  0.7260 -0.8281  0.1227
  159SAPE  H11A17663   2.742   2.056   3.217 -1.3777  0.7557 -0.4405
  159SAPE  H11B17664   2.687   2.049   3.049  0.7135  1.1578 -0.3128
  159SAPE     P17665   2.961   2.248   3.153  0.0495 -0.1358  0.1940
  159SAPE   O1317666   3.076   2.188   3.078  0.1391  0.5358 -0.0071
  159SAPE   O1417667   2.960   2.398   3.150 -0.5193  0.5773  0.5657
  159SAPE   O1217668   2.824   2.194   3.094 -0.0825 -0.3561 -0.0380
  159SAPE   O1117669   2.961   2.215   3.303 -0.4583 -0.0233 -0.7885
  159SAPE    C117670   2.900   2.302   3.408  0.0399 -0.1311 -0.3025
  159SAPE    HA17671   2.828   2.377   3.367 -0.1217  0.1507  0.4945
  159SAPE    HB17672   2.847   2.226   3.469  1.7170 -2.1736 -1.2778
  159SAPE    C217673   3.011   2.370   3.496 -0.3917 -0.5128 -0.3352
  159SAPE    HS17674   3.073   2.428   3.424 -0.7766 -0.7751 -0.8793
  159SAPE   O2117675   3.081   2.263   3.563 -0.7899  0.7672 -0.0146
  159SAPE   C2117676   3.199   2.303   3.601 -0.0865  0.2952  0.5069
  159SAPE   O2217677   3.258   2.397   3.551  0.0766  0.5513  0.6893
  159SAPE   C2217678   3.242   2.222   3.727 -0.0285 -1.0176  0.5757
  159SAPE   H2R17679   3.161   2.231   3.802  0.4796 -0.4532  1.0646
  159SAPE   H2S17680   3.258   2.113   3.709 -0.4520 -1.2421  1.5195
  159SAPE    C317681   2.950   2.467   3.606 -0.8049  0.5968 -0.5058
  159SAPE    HX17682   2.894   2.409   3.683 -1.7132 -0.8023 -2.1526
  159SAPE    HY17683   2.867   2.524   3.559 -1.8357  0.6111  1.2439
  159SAPE   O3117684   3.052   2.563   3.670  0.7923  0.4630  0.3995
  159SAPE   C3117685   3.091   2.653   3.582  0.0088 -0.2893 -0.2646
  159SAPE   O3217686   3.056   2.674   3.466  0.0752  0.1060  0.1506
  159SAPE   C3217687   3.219   2.713   3.644 -0.8641  0.9824 -0.0133
  159SAPE   H2X17688   3.299   2.638   3.628 -1.2936  0.5754 -0.2630
  159SAPE   H2Y17689   3.205   2.736   3.752 -0.5046  0.6868  0.0974
  159SAPE   C2317690   3.368   2.284   3.797 -0.1926 -0.0773 -0.1286
  159SAPE   H3R17691   3.342   2.380   3.846 -0.2473 -0.3084  0.2949
  159SAPE   H3S17692   3.451   2.303   3.726 -0.3829 -0.5012 -0.4746
  159SAPE   C2417693   3.412   2.175   3.900  0.2082 -0.1913  0.0825
  159SAPE   H4R17694   3.452   2.080   3.858 -0.3291 -0.5271  0.3198
  159SAPE   H4S17695   3.315   2.148   3.948 -0.6630  1.0460 -0.9153
  159SAPE   C2517696   3.516   2.235   3.994  0.4815 -0.5567 -0.5911
  159SAPE   H5R17697   3.620   2.210   3.971  1.0380  0.1041  1.0521
  159SAPE   C2617698   3.484   2.284   4.120 -0.2759  0.5972 -0.0791
  159SAPE   H6R17699   3.566   2.336   4.171  0.0344  0.3811 -0.3474
  159SAPE   C2717700   3.348   2.278   4.184 -0.0459  0.1441 -0.0598
  159SAPE   H7R17701   3.298   2.185   4.147  0.2109  0.0057 -0.0610
  159SAPE   H7S17702   3.287   2.369   4.165 -0.3550 -0.2218 -0.8693
  159SAPE   C2817703   3.363   2.257   4.332 -0.0833  0.1451  0.0324
  159SAPE   H8R17704   3.376   2.151   4.360  0.5109  1.1995  4.6284
  159SAPE   C2917705   3.346   2.354   4.423 -0.6851 -0.6702  0.2210
  159SAPE   H9R17706   3.369   2.328   4.527  1.5576  2.3106  0.6148
  159SAPE  C21017707   3.316   2.500   4.401  0.3937 -0.2448 -0.3921
  159SAPE  H10R17708   3.259   2.514   4.307  1.9478  1.7185 -1.1197
  159SAPE  H10S17709   3.405   2.561   4.376  0.5512 -1.3065 -2.6895
  159SAPE  C21117710   3.227   2.560   4.506 -0.3443 -0.6066 -0.2523
  159SAPE  H11R17711   3.123   2.564   4.471 -0.1158 -0.2216 -0.9103
  159SAPE  C21217712   3.256   2.607   4.628 -0.0232  0.0833  0.0245
  159SAPE  H12R17713   3.181   2.639   4.701  2.6799  1.7789  2.2560
  159SAPE  C21317714   3.392   2.607   4.691  0.1088  0.3300  0.2532
  159SAPE  H13R17715   3.425   2.713   4.685  3.9737 -0.7521 -0.7888
  159SAPE  H13S17716   3.473   2.548   4.642  0.4916  0.7570  0.3679
  159SAPE  C21417717   3.382   2.559   4.837  0.3543  0.4105  0.3255
  159SAPE  H14R17718   3.284   2.541   4.884  0.9547  2.4517  2.6072
  159SAPE  C21517719   3.486   2.544   4.916 -0.6024 -0.5169 -1.4378
  159SAPE  H15R17720   3.464   2.504   5.016 -0.7704  0.6246 -0.9967
  159SAPE  C21617721   3.630   2.589   4.886 -0.0108 -0.5024 -0.5912
  159SAPE  H16R17722   3.626   2.699   4.881  0.6565 -0.5336 -2.0940
  159SAPE  H16S17723   3.659   2.556   4.784  0.9391  0.7860 -0.7528
  159SAPE  C21717724   3.723   2.537   4.993 -0.0805 -0.0500 -1.2200
  159SAPE  H17R17725   3.693   2.580   5.091  1.1104 -0.6709 -0.5672
  159SAPE  H17S17726   3.824   2.575   4.968  1.0410 -2.4257 -0.5544
  159SAPE  C21817727   3.739   2.385   5.007 -0.3791  0.3527  0.1917
  159SAPE  H18R17728   3.642   2.338   5.030 -0.5541  0.1823 -0.8657
  159SAPE  H18S17729   3.812   2.348   5.083 -2.0804 -0.1970  1.6155
  159SAPE  C21917730   3.778   2.308   4.880  0.3747  0.0493  0.4588
  159SAPE  H19R17731   3.886   2.334   4.878  0.7873 -1.6574 -0.7142
  159SAPE  H19S17732   3.725   2.345   4.790  0.2356 -0.9432  0.1188
  159SAPE  C22017733   3.762   2.161   4.877 -0.2713 -0.0665  0.1483
  159SAPE  H20R17734   3.655   2.132   4.885 -0.4600  0.0975 -1.4887
  159SAPE  H20S17735   3.804   2.100   4.959 -1.1848 -1.8053 -0.6240
  159SAPE  H20T17736   3.813   2.128   4.784 -1.1256  0.0682 -0.3771
  159SAPE   C3317737   3.265   2.840   3.568  0.3074 -0.5969  0.0730
  159SAPE   H3X17738   3.268   2.807   3.461 -0.1820  2.8812 -1.1204
  159SAPE   H3Y17739   3.371   2.859   3.595  0.1891  1.4957 -0.7478
  159SAPE   C3417740   3.184   2.956   3.589 -0.7314 -0.3090 -0.0986
  159SAPE   H4X17741   3.076   2.932   3.582 -0.4987 -1.3198 -0.4170
  159SAPE   H4Y17742   3.195   3.021   3.499  0.4595 -1.1197 -0.5603
  159SAPE   C3517743   3.210   3.036   3.717  0.0144  0.5875 -0.1023
  159SAPE   H5X17744   3.318   3.058   3.710  0.2904 -1.0145 -1.3233
  159SAPE   H5Y17745   3.169   2.975   3.801  0.2238 -0.9390 -1.0822
  159SAPE   C3617746   3.130   3.171   3.713  0.1825 -0.2558  0.0475
  159SAPE   H6X17747   3.024   3.163   3.681 -0.0868 -0.3675  0.9299
  159SAPE   H6Y17748   3.179   3.245   3.647  0.8439  0.1726  0.9839
  159SAPE   C3717749   3.122   3.214   3.865 -0.2059  0.0126  0.5095
  159SAPE   H7X17750   3.076   3.128   3.918 -2.7334  0.8209 -0.2755
  159SAPE   H7Y17751   3.058   3.302   3.885  0.6464  0.4269  1.5414
  159SAPE   C3817752   3.262   3.248   3.916  0.5552 -0.1283  0.1048
  159SAPE   H8X17753   3.322   3.277   3.827  0.4080  2.9873  0.8987
  159SAPE   H8Y17754   3.309   3.168   3.976 -2.2923  0.3666  3.2930
  159SAPE   C3917755   3.254   3.375   3.997 -0.6054  0.2749  0.1334
  159SAPE   H9X17756   3.205   3.357   4.095  1.0045  1.1672  1.1509
  159SAPE   H9Y17757   3.196   3.450   3.940  0.3468  3.3060  2.8908
  159SAPE  C31017758   3.399   3.428   4.028 -0.7280 -0.4273 -0.7693
  159SAPE  H10X17759   3.390   3.536   4.055 -0.4345 -0.3532 -0.9605
  159SAPE  H10Y17760   3.460   3.432   3.935 -1.5890 -0.1648 -1.3349
  159SAPE  C31117761   3.475   3.350   4.134 -0.0017  0.6229 -0.2536
  159SAPE  H11X17762   3.583   3.365   4.110  0.8585 -0.4663  2.5301
  159SAPE  H11Y17763   3.466   3.240   4.123  0.8751  0.3487  1.4516
  159SAPE  C31217764   3.451   3.408   4.269  0.6729 -0.5671  0.0736
  159SAPE  H12X17765   3.343   3.415   4.294  0.5727  1.3597 -0.7709
  159SAPE  H12Y17766   3.480   3.514   4.255  1.4559 -0.4613  2.0812
  159SAPE  C31317767   3.531   3.332   4.369 -0.5539  0.0080 -0.0104
  159SAPE  H13X17768   3.638   3.356   4.352 -0.9555  1.0052 -1.2658
  159SAPE  H13Y17769   3.517   3.223   4.350 -0.2255 -0.1117  0.4106
  159SAPE  C31417770   3.501   3.376   4.515 -0.0087 -0.0813 -0.0581
  159SAPE  H14X17771   3.545   3.299   4.582 -3.5460 -1.1891  1.1881
  159SAPE  H14Y17772   3.390   3.377   4.524 -0.0763  0.5593 -0.9010
  159SAPE  C31517773   3.548   3.520   4.556  0.3240  0.7473  0.9649
  159SAPE  H15X17774   3.490   3.567   4.638  0.5992 -0.5837  1.9512
  159SAPE  H15Y17775   3.525   3.598   4.480  0.9244  1.8693  1.8877
  159SAPE  C31617776   3.696   3.514   4.586 -0.8112 -0.3911 -0.2198
  159SAPE  H16X17777   3.754   3.462   4.507  1.6073 -0.7593  1.6693
  159SAPE  H16Y17778   3.703   3.455   4.680  1.6694 -1.6834 -1.1291
  159SAPE  C31717779   3.748   3.662   4.625  0.3945  0.4596  0.3921
  159SAPE  H17X17780   3.698   3.697   4.718  1.5572 -2.9566  2.4755
  159SAPE  H17Y17781   3.720   3.709   4.528  0.0215 -1.1628 -0.3155
  159SAPE  C31817782   3.902   3.687   4.649 -0.4300 -0.2736 -0.1654
  159SAPE  H18X17783   3.964   3.669   4.558 -2.1699 -3.3859 -0.8589
  159SAPE  H18Y17784   3.941   3.617   4.726 -0.4337  1.4446  1.4836
  159SAPE  H18Z17785   3.907   3.793   4.682 -4.1742 -0.3208  0.9797
  160SAPE     N17786   0.153   5.495   3.508 -0.1180 -0.2680  0.4991
  160SAPE   HN117787   0.140   5.509   3.406 -0.4515  1.2750  0.7339
  160SAPE   HN217788   0.254   5.500   3.533 -0.0938  2.7726  0.1578
  160SAPE   HN317789   0.113   5.405   3.543  0.6762 -0.0974  1.9125
  160SAPE   C1217790   0.086   5.597   3.599 -0.1188 -0.0760 -0.4281
  160SAPE  H12A17791   0.051   5.543   3.689  1.0717  0.3669  0.3362
  160SAPE  H12B17792  -0.003   5.638   3.547 -0.1883 -1.0040 -1.0750
  160SAPE   C1117793   0.189   5.705   3.627 -0.1423 -0.0955  0.4683
  160SAPE  H11A17794   0.259   5.654   3.696  1.0791 -1.1534 -1.4617
  160SAPE  H11B17795   0.160   5.801   3.674  2.6528  0.6491  0.8756
  160SAPE     P17796   0.228   5.845   3.401  0.0911 -0.2798 -0.4670
  160SAPE   O1317797   0.230   5.788   3.269  0.0529 -0.1489 -0.1733
  160SAPE   O1417798   0.102   5.906   3.443  0.9022  0.2341  0.1021
  160SAPE   O1217799   0.267   5.737   3.511 -0.2057  0.3104  0.0796
  160SAPE   O1117800   0.344   5.953   3.427  0.3302 -0.1591  0.3184
  160SAPE    C117801   0.478   5.920   3.429  0.5159 -0.6757  0.3965
  160SAPE    HA17802   0.493   5.825   3.483  0.2286 -1.0184 -0.1170
  160SAPE    HB17803   0.511   5.905   3.324 -2.9227 -0.1309 -0.9336
  160SAPE    C217804   0.553   6.027   3.516  0.1443 -0.3335  0.0819
  160SAPE    HS17805   0.656   5.986   3.525  0.2588 -0.0469  0.0990
  160SAPE   O2117806   0.501   6.054   3.650  0.1579 -0.4768 -0.1820
  160SAPE   C2117807   0.480   5.945   3.726 -0.0828  0.9139  1.1219
  160SAPE   O2217808   0.545   5.844   3.723  0.1399 -0.1820 -0.4490
  160SAPE   C2217809   0.385   5.985   3.847  0.1654 -0.8259 -0.3179
  160SAPE   H2R17810   0.424   6.080   3.889  0.9016 -0.9057 -0.8068
  160SAPE   H2S17811   0.284   6.019   3.814 -0.5908  1.1670  3.5122
  160SAPE    C317812   0.582   6.167   3.441  0.2286  0.1475  0.0804
  160SAPE    HX17813   0.485   6.220   3.437 -0.3690 -0.8865  0.6387
  160SAPE    HY17814   0.612   6.156   3.335 -3.4159 -1.6097 -0.9195
  160SAPE   O3117815   0.676   6.242   3.524 -0.0153  0.0971  0.2645
  160SAPE   C3117816   0.644   6.373   3.544 -0.2686  0.3027  0.7580
  160SAPE   O3217817   0.548   6.428   3.495 -0.8887 -0.3451  0.0633
  160SAPE   C3217818   0.731   6.440   3.650 -1.2449  0.3318  0.0151
  160SAPE   H2X17819   0.773   6.531   3.602  4.1791 -0.3187  2.7688
  160SAPE   H2Y17820   0.805   6.362   3.677 -0.4885  1.0601  0.0594
  160SAPE   C2317821   0.356   5.877   3.953  0.0942  0.1799  0.4370
  160SAPE   H3R17822   0.446   5.851   4.013 -0.9277 -1.9138  1.1873
  160SAPE   H3S17823   0.357   5.778   3.901 -0.1188  0.5771 -0.3317
  160SAPE   C2417824   0.233   5.909   4.037 -0.1463  0.4723  0.1810
  160SAPE   H4R17825   0.216   5.822   4.103 -1.7421  1.5309  1.2426
  160SAPE   H4S17826   0.139   5.899   3.980 -0.9520  0.0209  1.5343
  160SAPE   C2517827   0.237   6.029   4.122  0.0690  0.0240 -0.2212
  160SAPE   H5R17828   0.215   6.123   4.069  3.2351  0.4862 -0.9785
  160SAPE   C2617829   0.254   6.038   4.259 -0.0931 -0.2688  0.8476
  160SAPE   H6R17830   0.258   6.138   4.305 -1.7482 -0.4258  1.3842
  160SAPE   C2717831   0.258   5.926   4.359 -0.1349  0.3494 -0.1591
  160SAPE   H7R17832   0.280   5.829   4.310 -0.8592  1.2911 -2.4895
  160SAPE   H7S17833   0.154   5.920   4.399  0.7783 -2.7385  2.1569
  160SAPE   C2817834   0.350   5.929   4.477  0.4675 -0.4378 -0.5667
  160SAPE   H8R17835   0.442   5.987   4.464 -0.4452  1.5672  1.3411
  160SAPE   C2917836   0.339   5.860   4.597 -0.0935 -0.3692  0.5789
  160SAPE   H9R17837   0.415   5.865   4.677  1.0827  0.4791 -0.5554
  160SAPE  C21017838   0.228   5.760   4.622  0.0071  0.0937 -0.3483
  160SAPE  H10R17839   0.245   5.674   4.554  1.0099 -0.0577  0.0708
  160SAPE  H10S17840   0.133   5.807   4.590  1.0357  1.8967 -0.8892
  160SAPE  C21117841   0.223   5.707   4.768  0.7863  0.0752  0.6986
  160SAPE  H11R17842   0.271   5.763   4.850  0.1346 -2.4723  2.9435
  160SAPE  C21217843   0.174   5.580   4.795  0.1952 -0.2489  0.4737
  160SAPE  H12R17844   0.156   5.544   4.897 -1.1564 -0.3921  0.2059
  160SAPE  C21317845   0.112   5.480   4.694 -0.1629 -0.8036  0.2813
  160SAPE  H13R17846   0.192   5.432   4.634  0.6131  2.1445 -1.2830
  160SAPE  H13S17847   0.071   5.541   4.611  3.3609  0.6375 -0.6137
  160SAPE  C21417848   0.009   5.382   4.745  0.0313 -0.8110  0.1484
  160SAPE  H14R17849  -0.022   5.406   4.848 -0.0959  0.2299 -0.1228
  160SAPE  C21517850  -0.037   5.276   4.677  0.0140 -0.6321  0.1429
  160SAPE  H15R17851  -0.107   5.210   4.731  1.1778 -3.1991 -1.3005
  160SAPE  C21617852  -0.010   5.235   4.533 -0.3326 -0.4099  0.4698
  160SAPE  H16R17853   0.045   5.138   4.526 -0.9566 -0.6514 -2.0325
  160SAPE  H16S17854   0.058   5.311   4.489 -1.7828  0.3125 -0.5799
  160SAPE  C21717855  -0.140   5.229   4.442  0.2328 -0.7935  0.0719
  160SAPE  H17R17856  -0.194   5.326   4.439  2.6988  0.6521 -0.1535
  160SAPE  H17S17857  -0.203   5.145   4.478 -1.4101  1.1577  2.0297
  160SAPE  C21817858  -0.102   5.188   4.301  0.4617 -0.2774 -0.5678
  160SAPE  H18R17859  -0.188   5.135   4.256 -0.2894 -0.9858  1.5910
  160SAPE  H18S17860  -0.025   5.108   4.303  2.1432  1.2566 -0.0552
  160SAPE  C21917861  -0.045   5.296   4.211 -0.4689  0.9705  0.2354
  160SAPE  H19R17862   0.054   5.326   4.252 -0.7731  0.8724  1.0705
  160SAPE  H19S17863  -0.111   5.384   4.223  1.2224  2.3490 -0.1989
  160SAPE  C22017864  -0.021   5.271   4.062 -0.1280  0.4948 -0.7062
  160SAPE  H20R17865   0.004   5.368   4.015 -1.9900  1.3726  0.0204
  160SAPE  H20S17866  -0.109   5.230   4.008  0.4960 -2.2256  0.1791
  160SAPE  H20T17867   0.064   5.201   4.045  0.6921  1.0996  0.7385
  160SAPE   C3317868   0.645   6.470   3.780  0.1874 -0.0084  0.2146
  160SAPE   H3X17869   0.538   6.499   3.765 -0.2852 -1.3786  0.7024
  160SAPE   H3Y17870   0.702   6.543   3.841  1.0009 -0.5783  0.1522
  160SAPE   C3417871   0.644   6.345   3.873 -0.8319  0.0823 -0.1250
  160SAPE   H4X17872   0.750   6.312   3.866 -0.9509 -0.1367 -1.0491
  160SAPE   H4Y17873   0.575   6.264   3.843 -0.3480 -1.3649  2.4065
  160SAPE   C3517874   0.602   6.376   4.014  0.4649  0.4449  0.8735
  160SAPE   H5X17875   0.547   6.286   4.049 -0.4500  0.8738  0.5753
  160SAPE   H5Y17876   0.519   6.447   3.991  0.9338  0.8712  0.4858
  160SAPE   C3617877   0.695   6.439   4.109 -0.4461 -0.5101  0.2875
  160SAPE   H6X17878   0.743   6.529   4.066  0.2008 -1.1563 -0.3659
  160SAPE   H6Y17879   0.778   6.369   4.128 -0.0145  0.0358  0.4408
  160SAPE   C3717880   0.615   6.480   4.235  0.4169 -0.4770 -0.1470
  160SAPE   H7X17881   0.570   6.388   4.277 -3.2899  1.1290 -0.2048
  160SAPE   H7Y17882   0.547   6.567   4.219  2.0796  1.0624  0.7529
  160SAPE   C3817883   0.709   6.528   4.348  0.4779  0.3502 -0.3017
  160SAPE   H8X17884   0.761   6.624   4.327 -0.0472  0.9966  1.2277
  160SAPE   H8Y17885   0.781   6.444   4.360 -1.4023 -1.3707 -0.3211
  160SAPE   C3917886   0.626   6.538   4.475  0.5184 -0.2472 -0.7366
  160SAPE   H9X17887   0.554   6.454   4.470  0.2162 -0.0668  0.3837
  160SAPE   H9Y17888   0.567   6.632   4.472 -0.6019 -0.8417  1.1734
  160SAPE  C31017889   0.713   6.532   4.602 -0.1355 -0.3224  0.4995
  160SAPE  H10X17890   0.782   6.617   4.584  1.6150 -1.7018  0.3371
  160SAPE  H10Y17891   0.773   6.438   4.599 -1.6079 -1.3017  0.5477
  160SAPE  C31117892   0.638   6.519   4.731 -0.2440  0.2969 -0.3260
  160SAPE  H11X17893   0.698   6.465   4.806  1.2114 -1.6011 -2.7157
  160SAPE  H11Y17894   0.545   6.462   4.710 -0.8035  1.3912 -0.8970
  160SAPE  C31217895   0.594   6.656   4.780 -0.7429 -0.2553  0.1530
  160SAPE  H12X17896   0.535   6.708   4.702  0.7458  1.8774  0.3499
  160SAPE  H12Y17897   0.686   6.715   4.801 -0.1825 -0.0457 -2.6023
  160SAPE  C31317898   0.498   6.646   4.895 -0.8140  0.5378 -0.6602
  160SAPE  H13X17899   0.472   6.753   4.909 -2.2721  0.1149  0.0423
  160SAPE  H13Y17900   0.537   6.594   4.986  0.5017  0.5910 -1.1658
  160SAPE  C31417901   0.365   6.591   4.845 -0.2692 -0.4090 -0.2478
  160SAPE  H14X17902   0.377   6.482   4.825  1.4769 -0.6412  1.6888
  160SAPE  H14Y17903   0.333   6.641   4.751  1.9180  0.3298 -0.6584
  160SAPE  C31517904   0.248   6.608   4.948  0.6696  0.0713 -0.2929
  160SAPE  H15X17905   0.155   6.560   4.912  1.5806 -0.1178 -2.5788
  160SAPE  H15Y17906   0.236   6.718   4.939  2.7521  0.2939 -0.9826
  160SAPE  C31617907   0.279   6.565   5.096  0.9178 -0.4503  0.3487
  160SAPE  H16X17908   0.374   6.618   5.120  1.3000 -0.5858 -0.7992
  160SAPE  H16Y17909   0.297   6.455   5.092  0.9991 -0.4341  0.2391
  160SAPE  C31717910   0.188   6.615   5.206  0.3647 -0.2486  0.0013
  160SAPE  H17X17911   0.225   6.716   5.234 -1.5057  0.5559 -0.2619
  160SAPE  H17Y17912   0.186   6.542   5.289 -0.9802 -1.3865 -0.9969
  160SAPE  C31817913   0.042   6.626   5.163  0.8453 -0.1814  0.0176
  160SAPE  H18X17914  -0.019   6.536   5.142 -0.6976  0.5955  0.9759
  160SAPE  H18Y17915   0.032   6.698   5.079 -2.2246  0.3844  0.7604
  160SAPE  H18Z17916  -0.019   6.680   5.239 -1.4550 -1.6635 -0.6899
  161SAPE     N17917   4.935   0.346   3.184 -0.0204  0.0542  0.5330
  161SAPE   HN117918   4.853   0.369   3.243  0.2605 -1.0319  1.3807
  161SAPE   HN217919   4.997   0.274   3.227 -1.4663 -0.9125  1.0622
  161SAPE   HN317920   4.991   0.432   3.167 -1.1750  0.4401 -1.7217
  161SAPE   C1217921   4.902   0.286   3.056  0.3405 -0.1411  1.1511
  161SAPE  H12A17922   4.999   0.245   3.020 -0.9769 -0.7647 -1.9987
  161SAPE  H12B17923   4.856   0.371   3.001  1.0437  0.0868  0.9022
  161SAPE   C1117924   4.807   0.161   3.076  0.0432 -0.0399  0.9133
  161SAPE  H11A17925   4.802   0.116   2.975  2.5148 -2.0906  1.5855
  161SAPE  H11B17926   4.704   0.191   3.104 -0.3731  0.4265 -1.0008
  161SAPE     P17927   4.819  -0.076   3.191  0.0327 -0.3797 -0.3643
  161SAPE   O1317928   4.677  -0.077   3.224  0.7813  0.4419 -0.3120
  161SAPE   O1417929   4.864  -0.150   3.070 -0.2598  0.4521  0.0222
  161SAPE   O1217930   4.870   0.075   3.176 -0.1132  0.2718 -0.6712
  161SAPE   O1117931   4.894  -0.127   3.313 -0.3229  0.0952  0.4234
  161SAPE    C117932   5.005  -0.067   3.380 -0.1715  0.1562 -0.3592
  161SAPE    HA17933   5.093  -0.134   3.392 -1.5576 -1.4875  1.2555
  161SAPE    HB17934   5.045   0.008   3.309 -0.5141  1.2024  0.5103
  161SAPE    C217935   4.966  -0.003   3.515  0.1859 -0.4474  0.7002
  161SAPE    HS17936   5.050   0.053   3.563  0.2336 -0.7719  1.0011
  161SAPE   O2117937   4.914  -0.103   3.607 -0.0488  0.3609 -0.5061
  161SAPE   C2117938   5.007  -0.183   3.650 -0.3687 -0.4952  0.3209
  161SAPE   O2217939   5.128  -0.157   3.656 -0.1811  0.4397 -0.2452
  161SAPE   C2217940   4.942  -0.304   3.714 -0.0222  0.4266  0.5054
  161SAPE   H2R17941   4.850  -0.284   3.772 -0.4372 -0.4725  0.1742
  161SAPE   H2S17942   4.918  -0.373   3.630  0.1229  1.2630 -0.2496
  161SAPE    C317943   4.844   0.091   3.497 -0.2440  0.3897 -0.4757
  161SAPE    HX17944   4.764   0.021   3.467  0.6997 -0.4938 -0.9916
  161SAPE    HY17945   4.861   0.165   3.417 -2.9060  1.7299  0.0941
  161SAPE   O3117946   4.827   0.156   3.627 -0.1363 -0.6872 -0.0226
  161SAPE   C3117947   4.723   0.231   3.636  0.1040  0.3387 -0.3332
  161SAPE   O3217948   4.628   0.234   3.555 -0.4741 -0.7177 -0.2197
  161SAPE   C3217949   4.729   0.304   3.772  0.0884  0.2753  0.6469
  161SAPE   H2X17950   4.832   0.317   3.811 -0.0184  1.7291  0.5087
  161SAPE   H2Y17951   4.668   0.241   3.840 -0.8234 -0.8819 -1.1881
  161SAPE   C2317952   5.045  -0.367   3.813 -0.1602 -0.2061 -0.9530
  161SAPE   H3R17953   5.057  -0.288   3.890  0.3361  1.7118 -2.9039
  161SAPE   H3S17954   5.144  -0.387   3.767 -0.6840 -0.3968 -2.0316
  161SAPE   C2417955   4.984  -0.495   3.878  0.0669 -0.4698  0.1862
  161SAPE   H4R17956   5.067  -0.556   3.921  2.3611  0.4711 -2.6018
  161SAPE   H4S17957   4.947  -0.552   3.790 -2.6963  1.8652 -0.3085
  161SAPE   C2517958   4.865  -0.472   3.969 -0.9607  0.2879  0.0458
  161SAPE   H5R17959   4.766  -0.469   3.920 -0.6404 -2.0304 -0.8304
  161SAPE   C2617960   4.879  -0.444   4.100 -0.0995  0.4953 -0.7047
  161SAPE   H6R17961   4.790  -0.455   4.163 -0.0548 -1.3366 -0.8861
  161SAPE   C2717962   5.012  -0.413   4.168 -0.2443 -0.0157 -0.4587
  161SAPE   H7R17963   5.011  -0.304   4.186  1.0007  0.2583 -1.8811
  161SAPE   H7S17964   5.102  -0.435   4.107  0.2062  0.5791 -0.0176
  161SAPE   C2817965   5.016  -0.496   4.292  0.5505 -0.0961  0.1911
  161SAPE   H8R17966   5.047  -0.600   4.272 -2.5503 -1.5707  2.1889
  161SAPE   C2917967   4.980  -0.465   4.423  0.6353  0.3175 -0.1237
  161SAPE   H9R17968   4.981  -0.543   4.500  0.6547 -0.6812 -1.1143
  161SAPE  C21017969   4.921  -0.334   4.462 -0.3209  0.8280 -0.0956
  161SAPE  H10R17970   4.819  -0.348   4.504 -0.1301 -0.6912 -0.0787
  161SAPE  H10S17971   4.906  -0.268   4.375  0.4306 -0.2357 -1.0623
  161SAPE  C21117972   5.005  -0.262   4.574  0.7079  0.5044  0.7631
  161SAPE  H11R17973   5.114  -0.266   4.562  0.4131 -1.8822 -2.1305
  161SAPE  C21217974   4.948  -0.219   4.689  0.0850 -0.2138  0.1091
  161SAPE  H12R17975   5.005  -0.159   4.761 -0.7439 -1.1728  1.6254
  161SAPE  C21317976   4.800  -0.205   4.719 -0.0228 -0.4718 -0.6136
  161SAPE  H13R17977   4.798  -0.209   4.830 -0.8411 -0.2601 -0.6160
  161SAPE  H13S17978   4.751  -0.296   4.677 -1.3128 -0.4979  0.8691
  161SAPE  C21417979   4.736  -0.084   4.659  0.0662 -0.1635 -0.8021
  161SAPE  H14R17980   4.767  -0.046   4.561 -0.8734 -0.9306 -1.4116
  161SAPE  C21517981   4.668   0.011   4.732 -0.2726  0.0316  0.7709
  161SAPE  H15R17982   4.625   0.099   4.682 -1.1126  0.3502  2.0076
  161SAPE  C21617983   4.629  -0.002   4.874  0.0575 -0.0272  0.3551
  161SAPE  H16R17984   4.720   0.028   4.930  1.1087 -1.9540 -0.2334
  161SAPE  H16S17985   4.621  -0.108   4.903  2.3989 -0.4283 -0.2411
  161SAPE  C21717986   4.507   0.083   4.906 -0.4593  1.0216 -0.8668
  161SAPE  H17R17987   4.413   0.030   4.878 -0.3798 -0.7864  2.0015
  161SAPE  H17S17988   4.497   0.179   4.850 -2.0939  0.7876 -1.0376
  161SAPE  C21817989   4.501   0.120   5.058 -0.6429  0.8479  0.0397
  161SAPE  H18R17990   4.590   0.179   5.089 -1.4075  1.1310  1.8732
  161SAPE  H18S17991   4.508   0.023   5.111 -0.1078  0.9110  0.0899
  161SAPE  C21917992   4.373   0.198   5.081 -0.4436 -0.9220  0.4634
  161SAPE  H19R17993   4.297   0.159   5.010 -1.3754 -0.6032  1.2684
  161SAPE  H19S17994   4.386   0.301   5.040 -1.6227 -1.0765 -0.3521
  161SAPE  C22017995   4.327   0.185   5.226 -0.0596  0.3544  0.1397
  161SAPE  H20R17996   4.315   0.077   5.246  0.2251 -0.2635 -2.5914
  161SAPE  H20S17997   4.235   0.244   5.242 -0.9490 -0.0244 -2.8720
  161SAPE  H20T17998   4.406   0.217   5.298  1.1184 -0.1177 -0.9041
  161SAPE   C3317999   4.664   0.449   3.772 -0.0744  0.3992  0.5828
  161SAPE   H3X18000   4.564   0.438   3.725  1.3225  0.3342 -2.6338
  161SAPE   H3Y18001   4.719   0.505   3.693 -0.2015 -0.1439  0.1082
  161SAPE   C3418002   4.641   0.528   3.910 -0.0020 -0.3827  0.0075
  161SAPE   H4X18003   4.581   0.466   3.979 -1.4055  1.5723  0.6401
  161SAPE   H4Y18004   4.585   0.622   3.894  1.1321  0.1727 -0.9143
  161SAPE   C3518005   4.776   0.560   3.981  0.4335  0.7673 -0.2496
  161SAPE   H5X18006   4.854   0.602   3.915  1.6554  0.1724  0.7621
  161SAPE   H5Y18007   4.814   0.463   4.020 -2.6900 -2.1030 -3.7032
  161SAPE   C3618008   4.750   0.651   4.105 -0.0342 -0.5314 -0.0559
  161SAPE   H6X18009   4.703   0.750   4.084  0.6140 -0.6107 -2.0331
  161SAPE   H6Y18010   4.848   0.681   4.148 -1.2378  0.7504  1.9776
  161SAPE   C3718011   4.683   0.586   4.226  0.1191  0.3304  0.4921
  161SAPE   H7X18012   4.736   0.490   4.245 -0.6522 -0.0958  0.5261
  161SAPE   H7Y18013   4.581   0.549   4.205  0.5490 -1.1004  0.7796
  161SAPE   C3818014   4.682   0.669   4.349 -0.8048  0.2129  0.4006
  161SAPE   H8X18015   4.646   0.772   4.329  0.4815  0.6393  0.2268
  161SAPE   H8Y18016   4.786   0.681   4.385 -0.2711 -0.1493 -0.9711
  161SAPE   C3918017   4.596   0.604   4.458  0.5112 -0.4115  0.6520
  161SAPE   H9X18018   4.620   0.499   4.483 -3.3829 -1.7137 -0.4612
  161SAPE   H9Y18019   4.489   0.615   4.434  0.9473 -0.3531 -1.3999
  161SAPE  C31018020   4.620   0.683   4.590  0.0051 -0.0600 -0.0215
  161SAPE  H10X18021   4.621   0.791   4.563 -1.0970 -0.1351 -0.4042
  161SAPE  H10Y18022   4.727   0.673   4.617  0.5201  1.0813 -1.5456
  161SAPE  C31118023   4.551   0.631   4.713  0.4468  0.4829 -0.5830
  161SAPE  H11X18024   4.571   0.521   4.716 -2.4008 -0.2436  5.0479
  161SAPE  H11Y18025   4.444   0.651   4.692  0.1155 -1.1014 -0.5423
  161SAPE  C31218026   4.580   0.715   4.837  0.5843  0.3367  0.0332
  161SAPE  H12X18027   4.546   0.818   4.813  0.5162  0.2736 -0.1421
  161SAPE  H12Y18028   4.690   0.714   4.850  0.5942 -0.1446 -0.0574
  161SAPE  C31318029   4.518   0.650   4.963 -0.1782  0.4046 -1.0627
  161SAPE  H13X18030   4.578   0.649   5.056  1.5447 -3.1052 -2.0122
  161SAPE  H13Y18031   4.512   0.540   4.950  1.4106 -0.2526  2.6290
  161SAPE  C31418032   4.372   0.708   4.990  0.0814  0.0827  0.6404
  161SAPE  H14X18033   4.330   0.646   5.073  0.0478 -2.3510 -1.0938
  161SAPE  H14Y18034   4.317   0.715   4.893 -0.7612  0.3714  1.1227
  161SAPE  C31518035   4.365   0.860   5.028  0.2951  0.3249  0.4330
  161SAPE  H15X18036   4.428   0.929   4.968  2.7743 -1.0248  1.3402
  161SAPE  H15Y18037   4.410   0.865   5.130 -0.9080 -0.8340  1.0480
  161SAPE  C31618038   4.219   0.906   5.043 -0.3331  0.5731  0.4727
  161SAPE  H16X18039   4.149   0.870   4.965  0.4211  0.1074  0.0025
  161SAPE  H16Y18040   4.221   1.017   5.036 -1.8484  0.5725 -0.3845
  161SAPE  C31718041   4.159   0.868   5.175  0.6228  0.6668 -0.3411
  161SAPE  H17X18042   4.224   0.916   5.251  0.6096 -0.8926  0.6934
  161SAPE  H17Y18043   4.168   0.758   5.187  3.3577  0.8345 -0.2137
  161SAPE  C31818044   4.014   0.917   5.184  0.5438 -0.5346 -0.3334
  161SAPE  H18X18045   3.961   0.892   5.278  0.2546 -0.4459 -0.4720
  161SAPE  H18Y18046   3.949   0.887   5.100 -1.4128  0.0450  0.8973
  161SAPE  H18Z18047   4.003   1.027   5.174 -3.7978 -0.6751  0.8491
  162SAPE     N18048   5.519   4.370   2.995  1.0461 -0.8425  0.8363
  162SAPE   HN118049   5.582   4.324   2.926 -1.4661 -1.5947 -1.0801
  162SAPE   HN218050   5.481   4.451   2.942 -1.6380 -2.8493 -0.5318
  162SAPE   HN318051   5.579   4.398   3.075 -0.0387  0.0924  1.3435
  162SAPE   C1218052   5.408   4.274   3.031  0.1598  0.8194  0.0072
  162SAPE  H12A18053   5.336   4.333   3.092  1.4810 -0.4584  3.0005
  162SAPE  H12B18054   5.463   4.202   3.095  1.5941  1.6460 -0.2574
  162SAPE   C1118055   5.340   4.214   2.909  0.8170  0.1317 -0.0555
  162SAPE  H11A18056   5.272   4.140   2.956  0.4657 -0.0664 -0.8598
  162SAPE  H11B18057   5.405   4.158   2.838 -2.0049 -3.0443 -0.3742
  162SAPE     P18058   5.109   4.332   2.842 -0.0885 -0.1392 -0.1208
  162SAPE   O1318059   5.068   4.474   2.818 -0.3214  0.4816 -0.2971
  162SAPE   O1418060   5.053   4.234   2.746  0.0226  0.5843 -0.4076
  162SAPE   O1218061   5.263   4.316   2.838  0.6963 -0.0892 -0.3981
  162SAPE   O1118062   5.058   4.296   2.985 -0.2552 -0.0782 -0.2634
  162SAPE    C118063   4.944   4.219   3.007  0.1920 -0.2800  0.3910
  162SAPE    HA18064   4.939   4.133   2.937  1.9852 -0.4682  0.4387
  162SAPE    HB18065   4.943   4.167   3.105 -1.8887 -0.7210  0.1778
  162SAPE    C218066   4.813   4.297   2.983  0.1847 -0.5814  0.1208
  162SAPE    HS18067   4.808   4.343   2.882 -2.0745 -0.4535  0.2388
  162SAPE   O2118068   4.784   4.399   3.087 -1.3327  0.4884 -0.4598
  162SAPE   C2118069   4.700   4.491   3.057  0.3405  0.0631  0.3574
  162SAPE   O2218070   4.650   4.507   2.947  0.1154  0.6371 -0.1216
  162SAPE   C2218071   4.672   4.575   3.179  0.7218 -0.7428  0.3761
  162SAPE   H2R18072   4.663   4.685   3.161  0.1593 -0.3191  2.8080
  162SAPE   H2S18073   4.571   4.546   3.213  0.0237  0.1200 -0.8720
  162SAPE    C318074   4.690   4.200   2.987  0.2323  0.3288  0.2392
  162SAPE    HX18075   4.700   4.114   2.918  0.1968  0.4128  0.1285
  162SAPE    HY18076   4.602   4.250   2.941 -0.1976 -0.2655  0.4025
  162SAPE   O3118077   4.664   4.153   3.123  0.7719 -0.1939  0.0531
  162SAPE   C3118078   4.553   4.205   3.188  0.4208 -0.1417 -0.0390
  162SAPE   O3218079   4.480   4.294   3.145 -0.3189 -0.0401  0.3073
  162SAPE   C3218080   4.539   4.142   3.324  1.0358 -0.2010  1.0710
  162SAPE   H2X18081   4.609   4.059   3.349 -0.8288 -1.7947  1.2860
  162SAPE   H2Y18082   4.435   4.102   3.321  1.4943 -1.4379 -2.0850
  162SAPE   C2318083   4.769   4.558   3.298  0.8050 -0.0697  0.3138
  162SAPE   H3R18084   4.866   4.568   3.244 -1.4972  2.0201 -3.9193
  162SAPE   H3S18085   4.753   4.457   3.343 -1.2107 -0.5256 -1.2783
  162SAPE   C2418086   4.755   4.672   3.394 -0.1707 -0.1893 -0.7754
  162SAPE   H4R18087   4.770   4.765   3.336 -0.2707 -1.0072 -2.1544
  162SAPE   H4S18088   4.842   4.674   3.463  1.3785 -1.7221 -2.5741
  162SAPE   C2518089   4.621   4.671   3.464  1.0638 -0.3210 -0.9505
  162SAPE   H5R18090   4.536   4.662   3.395  0.6200  2.3592 -0.8405
  162SAPE   C2618091   4.592   4.680   3.598 -0.0798 -0.0026 -0.5212
  162SAPE   H6R18092   4.487   4.673   3.631  1.0481 -2.3371  3.1724
  162SAPE   C2718093   4.690   4.705   3.711  0.2417  0.9444 -0.0881
  162SAPE   H7R18094   4.686   4.814   3.734  3.0654  0.5442  3.1263
  162SAPE   H7S18095   4.792   4.687   3.672 -0.1744  0.6543 -1.0568
  162SAPE   C2818096   4.656   4.616   3.830  0.3292  0.1982 -0.6153
  162SAPE   H8R18097   4.657   4.510   3.802  1.7516  0.0846 -0.2394
  162SAPE   C2918098   4.605   4.647   3.947  0.3674 -0.1767  0.6271
  162SAPE   H9R18099   4.580   4.566   4.016  0.7199 -0.1627  0.7719
  162SAPE  C21018100   4.582   4.786   4.000  0.3966  0.0270  0.3129
  162SAPE  H10R18101   4.493   4.833   3.952  0.7990  1.3881  0.8472
  162SAPE  H10S18102   4.665   4.851   3.964  1.0641 -0.8873  0.1700
  162SAPE  C21118103   4.577   4.804   4.149 -0.2545  0.3674 -0.3704
  162SAPE  H11R18104   4.599   4.721   4.219  0.9913 -0.7583 -2.0099
  162SAPE  C21218105   4.545   4.923   4.204 -0.1723 -0.2522  0.2415
  162SAPE  H12R18106   4.553   4.940   4.312  3.1696  0.3975 -0.0086
  162SAPE  C21318107   4.534   5.046   4.127 -0.5760  0.5018  0.3630
  162SAPE  H13R18108   4.530   5.021   4.019 -0.7790  0.5114  0.3673
  162SAPE  H13S18109   4.628   5.103   4.136 -0.0235 -0.2241 -0.6241
  162SAPE  C21418110   4.418   5.132   4.171 -0.1052  0.4817 -0.1711
  162SAPE  H14R18111   4.384   5.104   4.271  4.3089 -4.2598  0.4621
  162SAPE  C21518112   4.363   5.240   4.110 -0.1868  0.9514 -0.2636
  162SAPE  H15R18113   4.274   5.285   4.156  0.1522  0.1134  1.2768
  162SAPE  C21618114   4.416   5.307   3.986  0.3248 -0.2351  0.2450
  162SAPE  H16R18115   4.348   5.283   3.902 -0.7036  1.6964  0.4701
  162SAPE  H16S18116   4.515   5.273   3.949  0.1447  0.9986 -1.4719
  162SAPE  C21718117   4.428   5.460   4.019  0.1427  0.9456 -0.4511
  162SAPE  H17R18118   4.334   5.502   4.061 -1.3626 -1.7857 -0.8559
  162SAPE  H17S18119   4.427   5.515   3.922 -4.1555 -1.3354 -1.9563
  162SAPE  C21818120   4.539   5.491   4.118 -0.1265 -0.8718 -0.0830
  162SAPE  H18R18121   4.629   5.463   4.058  1.4143 -1.3170  2.3129
  162SAPE  H18S18122   4.527   5.440   4.216 -0.9053  1.1916  0.9601
  162SAPE  C21918123   4.545   5.646   4.155  0.1093  0.0749  0.3416
  162SAPE  H19R18124   4.444   5.680   4.187  0.1658  0.8277 -0.2464
  162SAPE  H19S18125   4.573   5.702   4.063 -0.7708  0.8666  0.5408
  162SAPE  C22018126   4.632   5.679   4.280  0.3966  0.5162 -0.7839
  162SAPE  H20R18127   4.738   5.694   4.251  0.6370 -0.0763 -0.2459
  162SAPE  H20S18128   4.624   5.599   4.357 -1.4320  2.6973  1.4592
  162SAPE  H20T18129   4.598   5.770   4.333  1.2003  1.1820 -1.3900
  162SAPE   C3318130   4.562   4.250   3.434 -0.0218  0.0875 -0.2459
  162SAPE   H3X18131   4.484   4.329   3.427 -0.6750 -0.6348 -1.2629
  162SAPE   H3Y18132   4.667   4.286   3.423 -0.5322  1.6112 -0.3351
  162SAPE   C3418133   4.545   4.190   3.573 -0.2285  0.5791 -0.1035
  162SAPE   H4X18134   4.637   4.134   3.599  0.0154  0.2476 -1.6114
  162SAPE   H4Y18135   4.468   4.110   3.567 -0.2395  0.4569  1.2905
  162SAPE   C3518136   4.519   4.290   3.688  0.0465 -0.4879  0.0976
  162SAPE   H5X18137   4.459   4.370   3.640  0.2938 -0.2229  0.2332
  162SAPE   H5Y18138   4.617   4.328   3.722 -1.1566  0.7922  2.3424
  162SAPE   C3618139   4.447   4.226   3.802 -0.3945 -0.3344  0.9115
  162SAPE   H6X18140   4.505   4.141   3.844  0.8368 -0.3362 -0.6610
  162SAPE   H6Y18141   4.350   4.192   3.760 -1.0616  1.4088  0.9771
  162SAPE   C3718142   4.427   4.320   3.919  0.0406 -0.3988 -0.0070
  162SAPE   H7X18143   4.364   4.406   3.887 -1.3894 -1.0719  0.8835
  162SAPE   H7Y18144   4.524   4.362   3.953  1.3418 -2.9220 -0.3712
  162SAPE   C3818145   4.370   4.253   4.039  0.0087  0.4174  0.2607
  162SAPE   H8X18146   4.457   4.196   4.078  1.1643  1.5976 -0.5482
  162SAPE   H8Y18147   4.297   4.180   3.997  0.6402 -1.3312  2.0049
  162SAPE   C3918148   4.300   4.348   4.139  0.3179  0.4301 -0.0660
  162SAPE   H9X18149   4.230   4.292   4.205 -1.5521  1.6962 -0.9164
  162SAPE   H9Y18150   4.234   4.424   4.094 -1.3353 -1.6266 -1.3032
  162SAPE  C31018151   4.388   4.436   4.237 -0.7132  0.0170  0.0901
  162SAPE  H10X18152   4.323   4.479   4.316 -1.9358 -0.9837 -0.3378
  162SAPE  H10Y18153   4.440   4.519   4.186  1.7773 -1.4414  0.0942
  162SAPE  C31118154   4.496   4.363   4.314 -0.2703  0.6261 -0.2747
  162SAPE  H11X18155   4.575   4.335   4.242  1.8743  0.0607  2.1338
  162SAPE  H11Y18156   4.463   4.266   4.357  2.0379 -0.4949 -0.8784
  162SAPE  C31218157   4.574   4.440   4.414 -0.1193 -0.5591  0.5199
  162SAPE  H12X18158   4.602   4.530   4.356 -1.1444  0.9101  2.1892
  162SAPE  H12Y18159   4.663   4.391   4.459 -0.7860  0.0511  2.6256
  162SAPE  C31318160   4.487   4.486   4.527 -0.0032 -0.0138 -1.0509
  162SAPE  H13X18161   4.425   4.396   4.541 -0.2938  0.3954  0.4406
  162SAPE  H13Y18162   4.420   4.568   4.491 -3.0554 -0.6001  2.6884
  162SAPE  C31418163   4.573   4.535   4.651  0.3476  0.4588 -0.6366
  162SAPE  H14X18164   4.650   4.457   4.671  1.9183  1.6396 -1.8242
  162SAPE  H14Y18165   4.502   4.532   4.736  1.0786 -0.4544 -0.0357
  162SAPE  C31518166   4.616   4.676   4.647 -0.4650 -0.0439 -0.4114
  162SAPE  H15X18167   4.532   4.739   4.610 -0.2762 -0.5441 -1.7474
  162SAPE  H15Y18168   4.702   4.690   4.579  0.0643 -2.5771 -0.3581
  162SAPE  C31618169   4.645   4.722   4.792  0.0811  0.3555 -0.4991
  162SAPE  H16X18170   4.567   4.707   4.869  2.7636  1.9371  2.7929
  162SAPE  H16Y18171   4.648   4.833   4.783 -2.4016  0.3990 -1.3566
  162SAPE  C31718172   4.782   4.685   4.841 -0.6459 -0.4306  0.3498
  162SAPE  H17X18173   4.799   4.576   4.833 -0.8630 -0.3931 -0.8956
  162SAPE  H17Y18174   4.800   4.719   4.945 -0.6888  0.4644  0.0767
  162SAPE  C31818175   4.897   4.741   4.756 -0.0381 -0.2047 -0.9005
  162SAPE  H18X18176   4.883   4.718   4.649  2.2874 -2.0898 -0.8614
  162SAPE  H18Y18177   4.991   4.687   4.777 -0.4688 -1.0629 -1.1287
  162SAPE  H18Z18178   4.908   4.852   4.759  1.3331 -0.3112 -1.4065
  163SAPE     N18179   0.859   2.385   2.848 -0.3332  0.0282 -0.1657
  163SAPE   HN118180   0.839   2.486   2.834  2.7869  1.0400  1.6708
  163SAPE   HN218181   0.929   2.389   2.924 -0.3140 -1.0915 -0.0999
  163SAPE   HN318182   0.905   2.351   2.761  2.8980 -0.7575  1.6893
  163SAPE   C1218183   0.730   2.323   2.913 -0.5907  1.1383  0.2327
  163SAPE  H12A18184   0.729   2.215   2.888 -0.3381  0.8352  1.5135
  163SAPE  H12B18185   0.638   2.354   2.858 -0.6008  1.8331  0.6333
  163SAPE   C1118186   0.727   2.351   3.065 -0.2864 -0.1943  0.0020
  163SAPE  H11A18187   0.631   2.333   3.119 -0.0185 -0.3502  0.4337
  163SAPE  H11B18188   0.749   2.460   3.072  1.0394 -0.3494 -1.3639
  163SAPE     P18189   0.981   2.330   3.171  0.1160 -0.1514 -0.1584
  163SAPE   O1318190   1.055   2.215   3.225  0.5728  0.0294 -0.3696
  163SAPE   O1418191   1.042   2.391   3.049  0.7119  0.3282  0.3494
  163SAPE   O1218192   0.831   2.284   3.140  0.0656 -0.0622  0.9896
  163SAPE   O1118193   0.968   2.433   3.282  0.6178 -0.5651  0.2395
  163SAPE    C118194   0.922   2.406   3.417  0.1619  0.2654  0.0830
  163SAPE    HA18195   0.859   2.484   3.466 -0.8772 -1.4703  1.6346
  163SAPE    HB18196   0.852   2.321   3.413  2.3240 -1.5575 -0.9103
  163SAPE    C218197   1.047   2.376   3.503 -0.4991  0.4127  0.1722
  163SAPE    HS18198   1.112   2.294   3.464 -0.0032  0.4013  1.0052
  163SAPE   O2118199   1.013   2.349   3.640 -0.2426 -0.0186 -0.2665
  163SAPE   C2118200   0.962   2.233   3.666  0.1280  1.2120  0.4253
  163SAPE   O2218201   0.947   2.131   3.595 -0.3337 -0.2884 -0.3410
  163SAPE   C2218202   0.927   2.233   3.815  0.1894 -0.2930  0.2549
  163SAPE   H2R18203   0.866   2.320   3.847  0.0432 -0.0656 -0.5970
  163SAPE   H2S18204   0.874   2.137   3.831  0.3022 -0.6038 -1.0961
  163SAPE    C318205   1.150   2.496   3.500  0.0495  0.2022  0.1671
  163SAPE    HX18206   1.088   2.582   3.531 -0.7571  0.6059 -2.3611
  163SAPE    HY18207   1.180   2.507   3.393 -1.4895 -0.0706 -0.3147
  163SAPE   O3118208   1.255   2.483   3.595 -0.1378 -0.3556  0.7535
  163SAPE   C3118209   1.334   2.589   3.611  0.6584  0.2573 -0.3219
  163SAPE   O3218210   1.306   2.703   3.579  0.6249 -0.1090 -0.0122
  163SAPE   C3218211   1.457   2.539   3.689  0.1549 -0.0950 -0.0132
  163SAPE   H2X18212   1.476   2.434   3.658  0.4046 -0.1623  0.3589
  163SAPE   H2Y18213   1.438   2.521   3.797  0.7468  0.4501  0.1877
  163SAPE   C2318214   1.052   2.231   3.898 -0.2626  0.1165 -0.4874
  163SAPE   H3R18215   1.102   2.329   3.913 -0.8419  0.5169 -1.1061
  163SAPE   H3S18216   1.129   2.162   3.856  0.5242 -0.4513  1.7632
  163SAPE   C2418217   1.032   2.164   4.042  0.1972 -0.7771 -0.1237
  163SAPE   H4R18218   1.136   2.135   4.072  0.2301 -1.4528 -0.8510
  163SAPE   H4S18219   0.971   2.071   4.033 -2.6152  1.0279 -0.8089
  163SAPE   C2518220   0.950   2.249   4.136  0.2930  0.0429 -0.2372
  163SAPE   H5R18221   0.879   2.320   4.092 -0.9080  0.9806  2.9332
  163SAPE   C2618222   0.971   2.257   4.267 -0.5531  0.2490 -1.0888
  163SAPE   H6R18223   0.932   2.345   4.320  4.2378  3.1516 -1.7379
  163SAPE   C2718224   1.074   2.189   4.354  0.0500 -0.0598  0.1304
  163SAPE   H7R18225   1.152   2.259   4.391 -0.1495 -0.9347  2.3313
  163SAPE   H7S18226   1.124   2.104   4.303  0.0534 -0.6978  1.1803
  163SAPE   C2818227   0.991   2.117   4.467 -0.4872 -0.5806  0.3512
  163SAPE   H8R18228   0.916   2.054   4.416 -1.0775  0.0748  0.3951
  163SAPE   C2918229   1.002   2.124   4.600  0.3983  0.6821 -0.5043
  163SAPE   H9R18230   0.933   2.053   4.648 -0.5521 -0.0100 -2.7770
  163SAPE  C21018231   1.098   2.200   4.690 -0.0421  0.0067 -0.2736
  163SAPE  H10R18232   1.083   2.155   4.791 -1.6431 -2.5505 -1.5559
  163SAPE  H10S18233   1.073   2.308   4.699  0.6886  0.2051 -0.5603
  163SAPE  C21118234   1.245   2.174   4.661  1.0526 -0.0662 -0.1113
  163SAPE  H11R18235   1.273   2.206   4.559  2.5394  1.1860  0.6348
  163SAPE  C21218236   1.336   2.137   4.752 -0.2589  0.4008  0.5823
  163SAPE  H12R18237   1.440   2.130   4.716 -0.1212 -1.1406  1.2402
  163SAPE  C21318238   1.320   2.114   4.903 -0.0720 -0.4666  0.0509
  163SAPE  H13R18239   1.298   2.010   4.935 -1.3985 -0.1629  0.1850
  163SAPE  H13S18240   1.235   2.172   4.946 -2.0087 -1.1599 -2.5897
  163SAPE  C21418241   1.442   2.168   4.977  0.6165  0.1429  0.5665
  163SAPE  H14R18242   1.444   2.278   4.982 -2.1631  0.2947 -0.0673
  163SAPE  C21518243   1.540   2.090   5.016 -0.1058  0.7661 -0.2253
  163SAPE  H15R18244   1.629   2.134   5.065 -0.3343 -0.2934  1.1868
  163SAPE  C21618245   1.550   1.937   5.012  0.6434 -0.4779  0.3749
  163SAPE  H16R18246   1.648   1.899   4.977  0.1530 -0.5781 -0.9510
  163SAPE  H16S18247   1.469   1.892   4.950  0.0155 -0.7161  1.3593
  163SAPE  C21718248   1.543   1.876   5.151  0.1900 -0.1849  0.4016
  163SAPE  H17R18249   1.449   1.897   5.206  0.4070  0.4118  0.5559
  163SAPE  H17S18250   1.620   1.901   5.227  1.0460 -1.8074  0.1265
  163SAPE  C21818251   1.553   1.722   5.139  0.2775  0.1252  0.2250
  163SAPE  H18R18252   1.640   1.701   5.073  1.3563  2.1843  0.9077
  163SAPE  H18S18253   1.467   1.677   5.086  0.9478 -1.1437  0.1845
  163SAPE  C21918254   1.575   1.652   5.278 -0.4651 -0.0698  0.0407
  163SAPE  H19R18255   1.673   1.683   5.321 -0.3986 -0.0964 -0.0893
  163SAPE  H19S18256   1.594   1.544   5.262  0.2552 -1.0187  5.3932
  163SAPE  C22018257   1.458   1.661   5.372  0.2020 -0.6504  0.3111
  163SAPE  H20R18258   1.429   1.766   5.399 -0.9464 -0.9088  0.1517
  163SAPE  H20S18259   1.475   1.600   5.463  0.6101  2.2727  2.3681
  163SAPE  H20T18260   1.367   1.615   5.329 -1.6248  1.8656  1.1686
  163SAPE   C3318261   1.577   2.638   3.664  0.1262 -0.1245  1.1344
  163SAPE   H3X18262   1.554   2.744   3.685  0.1903  0.2709 -0.6038
  163SAPE   H3Y18263   1.612   2.625   3.559  1.8468 -0.9707  1.7807
  163SAPE   C3418264   1.695   2.596   3.758 -0.0296 -0.6201  0.0367
  163SAPE   H4X18265   1.725   2.493   3.732 -0.3900 -1.0392  1.2262
  163SAPE   H4Y18266   1.657   2.591   3.862  1.4268  0.3965  0.6715
  163SAPE   C3518267   1.805   2.696   3.768 -0.5951 -0.4084  0.2190
  163SAPE   H5X18268   1.838   2.711   3.663 -1.1186  1.3102  0.2684
  163SAPE   H5Y18269   1.893   2.649   3.817 -1.0470 -0.7956  0.6764
  163SAPE   C3618270   1.776   2.834   3.827 -0.3896  0.6134 -0.5142
  163SAPE   H6X18271   1.684   2.888   3.795 -1.4512 -0.3455  0.8224
  163SAPE   H6Y18272   1.858   2.902   3.796 -0.7410  0.8050 -1.0467
  163SAPE   C3718273   1.786   2.815   3.980  0.7561  0.0115 -0.2288
  163SAPE   H7X18274   1.887   2.775   4.006 -0.6277 -2.2269  2.2075
  163SAPE   H7Y18275   1.709   2.752   4.028  1.8768 -0.9100  0.4291
  163SAPE   C3818276   1.772   2.949   4.046  0.4206 -0.1167  0.1436
  163SAPE   H8X18277   1.689   3.008   4.005  0.3795 -0.8761 -0.8983
  163SAPE   H8Y18278   1.863   3.006   4.016  0.2811 -1.4570 -3.1459
  163SAPE   C3918279   1.776   2.951   4.199  0.1370  0.4285  0.2718
  163SAPE   H9X18280   1.678   2.905   4.222 -0.7890  0.7521 -2.6456
  163SAPE   H9Y18281   1.775   3.056   4.234 -1.6982  0.7338 -0.6098
  163SAPE  C31018282   1.887   2.883   4.272  0.8390  0.0733  0.0091
  163SAPE  H10X18283   1.978   2.944   4.256  0.2802  1.3544  1.4628
  163SAPE  H10Y18284   1.901   2.781   4.230 -2.5063  0.3096 -2.0585
  163SAPE  C31118285   1.857   2.881   4.422  0.0885  0.5228 -0.6606
  163SAPE  H11X18286   1.764   2.828   4.453 -0.2685  1.0481 -0.8228
  163SAPE  H11Y18287   1.828   2.985   4.449 -0.8909  0.5254 -1.6459
  163SAPE  C31218288   1.977   2.840   4.506 -0.9000  0.4055  0.3417
  163SAPE  H12X18289   1.996   2.894   4.601  1.1375 -0.3704  0.4228
  163SAPE  H12Y18290   2.060   2.863   4.436 -0.6676 -0.3896  0.3480
  163SAPE  C31318291   1.987   2.685   4.539  0.4724 -0.3662  0.6864
  163SAPE  H13X18292   1.959   2.621   4.452 -1.0786  0.7062  0.3768
  163SAPE  H13Y18293   1.918   2.653   4.620 -1.2980  0.2198 -0.5528
  163SAPE  C31418294   2.128   2.639   4.587  0.0224 -0.1729  0.2572
  163SAPE  H14X18295   2.171   2.718   4.651 -0.2809 -0.7067  1.1364
  163SAPE  H14Y18296   2.193   2.640   4.496 -0.2967  2.0953  0.0047
  163SAPE  C31518297   2.125   2.502   4.662 -0.2246 -0.0499 -0.1119
  163SAPE  H15X18298   2.076   2.429   4.594  0.0029 -0.1597 -0.1601
  163SAPE  H15Y18299   2.055   2.497   4.748 -0.2276 -4.7109 -0.1041
  163SAPE  C31618300   2.259   2.448   4.706 -0.5948  0.3297  0.1192
  163SAPE  H16X18301   2.308   2.532   4.760  0.5124 -0.2489  0.0192
  163SAPE  H16Y18302   2.322   2.414   4.622  0.1077  0.0713  0.7422
  163SAPE  C31718303   2.238   2.332   4.817 -0.5860 -0.2659 -0.1733
  163SAPE  H17X18304   2.152   2.268   4.788  0.5070 -3.3650  2.7180
  163SAPE  H17Y18305   2.204   2.381   4.910  0.9876  0.8490 -0.1537
  163SAPE  C31818306   2.355   2.243   4.834 -0.2929  0.0989 -0.2150
  163SAPE  H18X18307   2.389   2.201   4.737 -1.9388  0.0995 -0.8288
  163SAPE  H18Y18308   2.336   2.155   4.899  0.0032  1.7752  2.3109
  163SAPE  H18Z18309   2.450   2.286   4.872  0.1240  0.1800 -1.3225
  164SAPE     N18310   3.884   3.484   2.967  0.0602 -0.3270  0.5139
  164SAPE   HN118311   3.794   3.493   3.019 -0.9664 -1.5083 -0.9664
  164SAPE   HN218312   3.901   3.576   2.921 -1.4526  0.4616  1.4325
  164SAPE   HN318313   3.871   3.421   2.886 -0.4889 -0.6159  0.8212
  164SAPE   C1218314   3.996   3.430   3.055 -0.3305 -0.0104  0.3557
  164SAPE  H12A18315   3.949   3.344   3.107 -0.3743 -0.2189 -0.0308
  164SAPE  H12B18316   4.021   3.507   3.131 -0.0251  1.2187 -0.9637
  164SAPE   C1118317   4.112   3.382   2.975 -0.4780 -0.2389  0.8247
  164SAPE  H11A18318   4.082   3.309   2.897  1.3501 -0.5356  0.3497
  164SAPE  H11B18319   4.175   3.321   3.043  0.7913 -0.4493 -0.4830
  164SAPE     P18320   4.292   3.574   2.983  0.9737 -0.0821  0.1688
  164SAPE   O1318321   4.414   3.484   2.976  0.1857 -0.4739  0.3985
  164SAPE   O1418322   4.309   3.711   2.931 -0.1519  0.1906  0.3201
  164SAPE   O1218323   4.179   3.495   2.911  0.0979  0.2242 -0.1644
  164SAPE   O1118324   4.247   3.591   3.131 -1.1669  0.0441  0.2891
  164SAPE    C118325   4.357   3.575   3.227  0.4786 -0.0613  0.0914
  164SAPE    HA18326   4.455   3.567   3.176  0.6555 -1.8073  0.6196
  164SAPE    HB18327   4.353   3.668   3.287  1.3010 -0.3549  0.6318
  164SAPE    C218328   4.335   3.454   3.308  0.4205  0.5126 -0.4096
  164SAPE    HS18329   4.352   3.366   3.243  2.6662 -2.6720  3.9926
  164SAPE   O2118330   4.203   3.449   3.357  0.0465  0.8717  0.3942
  164SAPE   C2118331   4.163   3.337   3.408  0.5501 -0.1771  0.2680
  164SAPE   O2218332   4.225   3.230   3.402 -0.2080  0.5636 -0.1055
  164SAPE   C2218333   4.021   3.361   3.458  0.4291 -0.1243 -0.1517
  164SAPE   H2R18334   3.979   3.452   3.411 -0.9267 -0.9130 -0.5110
  164SAPE   H2S18335   3.964   3.277   3.414  0.3874 -0.6649  0.8961
  164SAPE    C318336   4.435   3.433   3.427 -0.3863 -0.1003  0.7630
  164SAPE    HX18337   4.537   3.451   3.388 -0.9493 -0.4279 -0.9640
  164SAPE    HY18338   4.430   3.323   3.445 -1.7064 -0.3915 -1.0396
  164SAPE   O3118339   4.401   3.496   3.547  0.4379 -0.6344  0.5965
  164SAPE   C3118340   4.442   3.616   3.548  0.1778 -0.7163 -0.1041
  164SAPE   O3218341   4.495   3.684   3.458  0.0930  0.3793 -0.3735
  164SAPE   C3218342   4.410   3.675   3.689  0.3429  0.4931 -0.1127
  164SAPE   H2X18343   4.506   3.653   3.741  0.2440  0.4990  0.0748
  164SAPE   H2Y18344   4.326   3.618   3.734 -0.5991 -1.1030 -3.5888
  164SAPE   C2318345   3.994   3.371   3.612  0.0001 -0.3600 -0.7429
  164SAPE   H3R18346   4.026   3.280   3.667 -0.4596 -0.4998 -0.6995
  164SAPE   H3S18347   3.886   3.395   3.619  0.7653  3.1431  1.6038
  164SAPE   C2418348   4.069   3.490   3.679 -0.4111 -0.0229 -0.3704
  164SAPE   H4R18349   4.085   3.567   3.600 -1.1238 -0.8376 -1.3310
  164SAPE   H4S18350   4.169   3.454   3.710 -0.8098  1.8798  3.7729
  164SAPE   C2518351   4.011   3.548   3.800  0.2548 -0.0947 -0.0104
  164SAPE   H5R18352   3.966   3.648   3.787  1.9039  0.7940  0.6617
  164SAPE   C2618353   3.990   3.491   3.922 -0.6361  0.2570 -0.5554
  164SAPE   H6R18354   3.945   3.554   4.000 -1.4362  2.0206 -2.3548
  164SAPE   C2718355   4.036   3.349   3.959  0.3006 -0.2304  0.8385
  164SAPE   H7R18356   4.060   3.286   3.870  1.9248  2.2892 -0.6494
  164SAPE   H7S18357   3.951   3.294   4.005 -0.0722  0.6448  1.2149
  164SAPE   C2818358   4.159   3.364   4.052  0.3264  0.5008  0.0559
  164SAPE   H8R18359   4.262   3.350   4.016  0.2158  1.8143 -0.8274
  164SAPE   C2918360   4.150   3.391   4.188  0.0665 -0.6042  1.0017
  164SAPE   H9R18361   4.246   3.405   4.241  0.9172  2.6931 -1.0733
  164SAPE  C21018362   4.021   3.408   4.264  0.1279 -0.0328  0.0246
  164SAPE  H10R18363   3.931   3.364   4.215 -0.5549 -1.1610  2.1633
  164SAPE  H10S18364   3.995   3.516   4.265 -0.8100 -0.2322 -1.0355
  164SAPE  C21118365   4.014   3.369   4.411 -0.5400 -0.1780  0.5782
  164SAPE  H11R18366   4.022   3.449   4.486 -1.3457 -0.6700  1.2094
  164SAPE  C21218367   3.990   3.243   4.445 -0.2812  0.1689  0.5672
  164SAPE  H12R18368   3.991   3.216   4.552  0.5616 -1.2053  0.2382
  164SAPE  C21318369   3.965   3.130   4.346 -0.7735 -0.1703  0.3899
  164SAPE  H13R18370   3.995   3.031   4.387 -2.0538 -1.1654 -0.9642
  164SAPE  H13S18371   4.032   3.141   4.258 -0.8716  0.1035  0.3485
  164SAPE  C21418372   3.819   3.110   4.309 -0.6031 -0.0207 -0.4679
  164SAPE  H14R18373   3.757   3.187   4.261 -1.2538 -0.8574 -0.9965
  164SAPE  C21518374   3.757   2.990   4.328 -0.0393 -0.1747  0.0281
  164SAPE  H15R18375   3.649   2.975   4.309 -0.0581  1.1323 -1.1113
  164SAPE  C21618376   3.810   2.869   4.393 -0.0831  0.3102 -0.1350
  164SAPE  H16R18377   3.830   2.898   4.498 -1.4705  1.2318 -0.1005
  164SAPE  H16S18378   3.910   2.837   4.357 -0.0765  0.6848 -0.4659
  164SAPE  C21718379   3.729   2.739   4.390  0.6854 -0.0601 -0.9275
  164SAPE  H17R18380   3.692   2.734   4.286 -1.2957 -0.9950 -0.2335
  164SAPE  H17S18381   3.642   2.756   4.457  1.1648 -1.6767  0.1677
  164SAPE  C21818382   3.800   2.606   4.418  0.8099  0.0450  0.0503
  164SAPE  H18R18383   3.836   2.593   4.522 -2.9559 -1.1248  1.3781
  164SAPE  H18S18384   3.888   2.595   4.351 -1.0068  0.7906 -2.6407
  164SAPE  C21918385   3.701   2.485   4.403 -0.1432 -0.0824 -0.2512
  164SAPE  H19R18386   3.678   2.472   4.295 -0.0463 -0.4960 -0.2230
  164SAPE  H19S18387   3.613   2.518   4.462  0.7361  2.0350 -0.0074
  164SAPE  C22018388   3.744   2.352   4.458  0.0948 -0.3453 -0.3940
  164SAPE  H20R18389   3.843   2.318   4.421  1.1201  1.8680  0.1466
  164SAPE  H20S18390   3.677   2.272   4.422  1.2475 -0.6906 -1.8764
  164SAPE  H20T18391   3.753   2.358   4.569 -2.8579  1.6076 -0.1649
  164SAPE   C3318392   4.381   3.830   3.689  0.5607 -0.0001  0.2129
  164SAPE   H3X18393   4.339   3.872   3.594 -0.7497  1.0258  1.1899
  164SAPE   H3Y18394   4.475   3.884   3.710  0.6871  0.7742 -2.0276
  164SAPE   C3418395   4.275   3.874   3.797 -0.5179  0.3410  0.3187
  164SAPE   H4X18396   4.182   3.818   3.774  0.0429 -0.6484  0.3878
  164SAPE   H4Y18397   4.262   3.984   3.791  1.0677  0.5362 -0.0755
  164SAPE   C3518398   4.319   3.844   3.943  0.5992  0.1328  0.0362
  164SAPE   H5X18399   4.406   3.908   3.966 -0.1823  1.9043 -1.6295
  164SAPE   H5Y18400   4.357   3.740   3.955  3.4101  1.2304  1.5868
  164SAPE   C3618401   4.199   3.874   4.035 -0.0332  0.7977 -0.1101
  164SAPE   H6X18402   4.116   3.805   4.006 -0.3607  0.4553  1.5567
  164SAPE   H6Y18403   4.153   3.974   4.023 -2.3910 -0.4221 -2.0865
  164SAPE   C3718404   4.228   3.841   4.183 -0.1579 -0.0964  0.3423
  164SAPE   H7X18405   4.295   3.752   4.181  0.1742  0.1640 -0.7012
  164SAPE   H7Y18406   4.133   3.809   4.230 -1.9837  2.9519 -0.9934
  164SAPE   C3818407   4.289   3.958   4.265 -0.5131  0.0941 -0.5245
  164SAPE   H8X18408   4.229   4.045   4.233 -0.0902  1.1523  1.4517
  164SAPE   H8Y18409   4.397   3.975   4.244 -0.6990  3.7395  0.9360
  164SAPE   C3918410   4.264   3.946   4.418 -0.4608 -0.0119  0.4370
  164SAPE   H9X18411   4.157   3.929   4.438 -0.4879 -0.5359 -0.1456
  164SAPE   H9Y18412   4.288   4.049   4.454 -1.2430  0.1390  0.5368
  164SAPE  C31018413   4.349   3.835   4.480 -0.8775  0.4953  0.4166
  164SAPE  H10X18414   4.451   3.879   4.486 -0.7004  0.2639 -0.5726
  164SAPE  H10Y18415   4.355   3.748   4.411 -1.3548  1.6427 -1.1248
  164SAPE  C31118416   4.314   3.798   4.622  0.1275  0.1437 -0.1826
  164SAPE  H11X18417   4.222   3.738   4.633  1.0334 -1.0426  1.4057
  164SAPE  H11Y18418   4.299   3.895   4.674 -1.2029  0.9812 -2.0421
  164SAPE  C31218419   4.419   3.706   4.686  0.6422 -0.2654  0.6687
  164SAPE  H12X18420   4.518   3.756   4.680 -0.2390  1.7441  1.6765
  164SAPE  H12Y18421   4.418   3.608   4.634 -0.0754 -1.4748  2.8254
  164SAPE  C31318422   4.395   3.684   4.835  0.0792 -0.3736  0.3737
  164SAPE  H13X18423   4.311   3.613   4.849 -2.1948  1.7807 -1.4834
  164SAPE  H13Y18424   4.359   3.771   4.892  1.6848 -0.7375  2.0653
  164SAPE  C31418425   4.516   3.633   4.909  0.2931 -0.5573 -0.6861
  164SAPE  H14X18426   4.606   3.683   4.867 -0.6094  3.5277  1.6621
  164SAPE  H14Y18427   4.526   3.523   4.904 -1.8359 -0.9712  1.9719
  164SAPE  C31518428   4.502   3.668   5.058 -0.0480 -0.2096  0.0997
  164SAPE  H15X18429   4.418   3.606   5.096 -0.4421  0.1717 -0.1342
  164SAPE  H15Y18430   4.473   3.775   5.068  0.2527 -0.0004 -1.0817
  164SAPE  C31618431   4.630   3.634   5.134 -0.2084 -0.1018 -0.1047
  164SAPE  H16X18432   4.717   3.703   5.120  0.5497 -0.8369  0.8164
  164SAPE  H16Y18433   4.667   3.533   5.107 -2.1350 -0.3125 -2.2009
  164SAPE  C31718434   4.612   3.625   5.284 -0.4100  0.5690  0.0106
  164SAPE  H17X18435   4.537   3.548   5.313  0.5058  0.6467  2.8445
  164SAPE  H17Y18436   4.562   3.718   5.321 -0.6744  0.9291 -1.1887
  164SAPE  C31818437   4.736   3.589   5.359  0.8789 -0.1869 -0.1007
  164SAPE  H18X18438   4.716   3.592   5.468 -0.6315  1.1832 -0.3912
  164SAPE  H18Y18439   4.829   3.650   5.348  1.0063 -0.2666  0.5305
  164SAPE  H18Z18440   4.765   3.485   5.333  0.8300 -0.3001  0.3020
  165SAPE     N18441   5.755   5.874   3.349 -0.1496 -0.1785 -0.3690
  165SAPE   HN118442   5.701   5.881   3.260  0.9204  2.7458 -0.8835
  165SAPE   HN218443   5.717   5.941   3.418 -1.0476  1.3049 -2.2069
  165SAPE   HN318444   5.852   5.901   3.324  1.3475 -2.5256  2.3526
  165SAPE   C1218445   5.751   5.744   3.424  0.0469 -0.6103  0.2854
  165SAPE  H12A18446   5.661   5.680   3.414  1.2497 -2.3051 -0.0424
  165SAPE  H12B18447   5.761   5.770   3.532  1.6972 -1.3299  0.3342
  165SAPE   C1118448   5.861   5.645   3.394 -0.6693  0.6695  0.0054
  165SAPE  H11A18449   5.826   5.603   3.297 -0.2208  4.4308 -1.9639
  165SAPE  H11B18450   5.842   5.572   3.475 -3.0131 -1.7687 -2.5032
  165SAPE     P18451   6.093   5.667   3.270  0.0692 -0.5952 -0.0601
  165SAPE   O1318452   6.052   5.551   3.196  0.3504 -0.3106 -0.2451
  165SAPE   O1418453   6.106   5.795   3.200 -0.1376  0.5169  0.1028
  165SAPE   O1218454   5.989   5.704   3.387  0.5030  0.0269  0.1231
  165SAPE   O1118455   6.226   5.642   3.341 -0.1293  0.2175  0.0204
  165SAPE    C118456   6.302   5.731   3.425 -0.1171  0.1655  0.3897
  165SAPE    HA18457   6.389   5.778   3.374 -1.6069  2.6785  0.0112
  165SAPE    HB18458   6.237   5.816   3.455  0.4087  0.8607 -0.4068
  165SAPE    C218459   6.353   5.657   3.547  0.4020 -0.2552  0.7610
  165SAPE    HS18460   6.423   5.580   3.507  1.8606  2.6441 -2.7485
  165SAPE   O2118461   6.242   5.601   3.622 -0.0334 -0.0303 -0.3565
  165SAPE   C2118462   6.218   5.470   3.596 -0.4961  0.3722 -0.2292
  165SAPE   O2218463   6.285   5.399   3.525 -0.3895  0.3514 -0.7780
  165SAPE   C2218464   6.104   5.422   3.686 -0.3533  0.0824 -0.0033
  165SAPE   H2R18465   6.019   5.492   3.676  0.3813  0.9588 -0.2742
  165SAPE   H2S18466   6.078   5.324   3.639 -0.3793 -0.1586  0.5015
  165SAPE    C318467   6.435   5.749   3.638  0.0419 -0.5418  0.3120
  165SAPE    HX18468   6.366   5.813   3.697  1.9028 -0.1316  2.1567
  165SAPE    HY18469   6.494   5.814   3.569 -0.7257 -1.5070 -1.3194
  165SAPE   O3118470   6.520   5.672   3.719  0.7310  0.2107 -0.3636
  165SAPE   C3118471   6.595   5.745   3.804  0.5494 -0.3673 -0.2766
  165SAPE   O3218472   6.600   5.866   3.814  0.1382 -0.1199  0.4362
  165SAPE   C3218473   6.657   5.647   3.906 -0.4841 -1.1242 -0.4986
  165SAPE   H2X18474   6.692   5.561   3.844 -1.3653 -1.3041 -0.7659
  165SAPE   H2Y18475   6.571   5.610   3.966 -0.2974  1.0586  1.2171
  165SAPE   C2318476   6.147   5.420   3.832 -0.1107  0.1542 -0.3612
  165SAPE   H3R18477   6.053   5.395   3.886 -0.6700  1.0742 -0.8666
  165SAPE   H3S18478   6.184   5.518   3.869  1.5998 -1.1259  1.5140
  165SAPE   C2418479   6.243   5.307   3.867 -0.4457 -0.3461  0.1480
  165SAPE   H4R18480   6.215   5.220   3.804 -0.6247  0.4934 -0.9728
  165SAPE   H4S18481   6.231   5.287   3.975  3.5315  1.0213  1.0470
  165SAPE   C2518482   6.390   5.339   3.837  0.4374  0.0906  0.4389
  165SAPE   H5R18483   6.417   5.341   3.730 -2.5475 -0.6520 -0.4014
  165SAPE   C2618484   6.491   5.352   3.921  0.2544 -0.2937 -0.1714
  165SAPE   H6R18485   6.589   5.377   3.878 -0.4992  0.5909 -1.4447
  165SAPE   C2718486   6.483   5.356   4.073 -0.4302 -0.6166 -0.3421
  165SAPE   H7R18487   6.376   5.366   4.103 -0.1836  0.4902  0.2091
  165SAPE   H7S18488   6.549   5.436   4.112 -0.9786 -1.3444  2.3376
  165SAPE   C2818489   6.534   5.226   4.123  0.7050  0.6703  0.5351
  165SAPE   H8R18490   6.586   5.165   4.048 -1.3692  0.6180 -0.9581
  165SAPE   C2918491   6.512   5.175   4.242 -0.1641  0.1751  1.2531
  165SAPE   H9R18492   6.561   5.077   4.254 -1.8066 -1.0115 -0.8449
  165SAPE  C21018493   6.422   5.215   4.353 -0.0787 -0.1837 -0.0211
  165SAPE  H10R18494   6.445   5.151   4.441  0.3207 -0.1255 -0.0804
  165SAPE  H10S18495   6.317   5.182   4.338 -0.2388 -0.4530  1.5746
  165SAPE  C21118496   6.431   5.361   4.397 -0.1590  1.6737 -0.3532
  165SAPE  H11R18497   6.520   5.390   4.457 -0.7090  0.6948  0.9917
  165SAPE  C21218498   6.334   5.446   4.389 -1.3958 -0.4280  0.5580
  165SAPE  H12R18499   6.351   5.552   4.414 -0.6061 -0.3893 -0.1214
  165SAPE  C21318500   6.196   5.430   4.333  0.5286  0.1736  0.0180
  165SAPE  H13R18501   6.158   5.331   4.368 -0.8770  0.8573  0.5050
  165SAPE  H13S18502   6.192   5.430   4.222  1.4009  2.7149 -0.0653
  165SAPE  C21418503   6.096   5.532   4.383 -0.7206 -1.0349 -0.1912
  165SAPE  H14R18504   6.108   5.592   4.475 -1.4654  0.1852 -0.8530
  165SAPE  C21518505   5.970   5.557   4.330  0.5253 -0.4751  0.3438
  165SAPE  H15R18506   5.909   5.635   4.377 -0.2766 -0.8658 -0.0275
  165SAPE  C21618507   5.913   5.498   4.201 -0.0056 -0.0263 -0.3230
  165SAPE  H16R18508   5.965   5.411   4.156 -0.2605 -1.5161  2.0925
  165SAPE  H16S18509   5.888   5.574   4.124 -0.0763 -1.2070 -1.5092
  165SAPE  C21718510   5.770   5.428   4.232  0.0565  0.3610 -0.2665
  165SAPE  H17R18511   5.782   5.349   4.309 -2.4802  1.3097  1.2386
  165SAPE  H17S18512   5.716   5.373   4.152 -2.2959 -0.4832  1.7733
  165SAPE  C21818513   5.667   5.525   4.302 -0.3014 -0.3345  0.5865
  165SAPE  H18R18514   5.656   5.620   4.245  3.2602 -0.3662 -0.3935
  165SAPE  H18S18515   5.702   5.551   4.404  0.3060  1.0390  0.0621
  165SAPE  C21918516   5.531   5.454   4.335 -0.0292  0.2154 -0.2334
  165SAPE  H19R18517   5.560   5.347   4.337 -1.7632 -0.2715 -0.2043
  165SAPE  H19S18518   5.456   5.476   4.256 -3.7032  0.1957  2.9925
  165SAPE  C22018519   5.475   5.496   4.468 -0.2038 -0.1185 -0.2352
  165SAPE  H20R18520   5.479   5.606   4.481  2.9721 -0.0102 -1.1129
  165SAPE  H20S18521   5.529   5.449   4.554  1.5606  0.9064 -0.7351
  165SAPE  H20T18522   5.370   5.464   4.486  0.4693 -1.9787  0.7188
  165SAPE   C3318523   6.769   5.707   3.995 -0.5787  0.0617 -0.1580
  165SAPE   H3X18524   6.719   5.785   4.057 -0.1362  0.0695  0.1935
  165SAPE   H3Y18525   6.841   5.765   3.934 -0.1734 -0.3370 -0.0596
  165SAPE   C3418526   6.846   5.607   4.072 -0.1323 -0.5369 -0.2746
  165SAPE   H4X18527   6.902   5.536   4.007  1.4091 -0.3745  0.8020
  165SAPE   H4Y18528   6.775   5.548   4.134  0.3906 -0.4609  0.4179
  165SAPE   C3518529   6.937   5.679   4.170  0.3595  0.2582 -0.0327
  165SAPE   H5X18530   6.998   5.751   4.112  0.8987 -0.9749 -1.0527
  165SAPE   H5Y18531   7.008   5.601   4.204 -0.0735  0.1153  0.5456
  165SAPE   C3618532   6.871   5.723   4.300  0.0511 -0.1889  0.2912
  165SAPE   H6X18533   6.782   5.778   4.262  0.5391  0.8916  0.6716
  165SAPE   H6Y18534   6.940   5.799   4.344  0.9342 -1.2694  0.8211
  165SAPE   C3718535   6.846   5.608   4.392  0.1943 -0.8714 -0.6222
  165SAPE   H7X18536   6.938   5.555   4.423  0.1346 -2.5183 -2.9848
  165SAPE   H7Y18537   6.775   5.531   4.354 -0.4777 -0.3996 -0.3558
  165SAPE   C3818538   6.791   5.652   4.529  0.3558  0.2910 -0.8872
  165SAPE   H8X18539   6.863   5.731   4.559  1.0895 -0.7718  0.2554
  165SAPE   H8Y18540   6.800   5.568   4.601  2.0721  1.0688 -0.1197
  165SAPE   C3918541   6.643   5.704   4.525 -0.6303  0.0156  0.3878
  165SAPE   H9X18542   6.582   5.639   4.459  2.0299 -2.2692 -0.0037
  165SAPE   H9Y18543   6.646   5.807   4.484  1.4244  0.4645  1.5199
  165SAPE  C31018544   6.572   5.720   4.663 -0.3102  0.1892  0.4696
  165SAPE  H10X18545   6.619   5.791   4.734  0.9929  0.5965 -0.7602
  165SAPE  H10Y18546   6.582   5.619   4.708 -1.3220 -1.6607 -3.1083
  165SAPE  C31118547   6.424   5.753   4.649  0.2100  0.2833 -0.5264
  165SAPE  H11X18548   6.373   5.675   4.589 -0.5550 -1.0358  1.7159
  165SAPE  H11Y18549   6.422   5.845   4.587  1.8204 -0.2872 -1.4881
  165SAPE  C31218550   6.361   5.753   4.789 -0.3313 -0.1378 -0.6339
  165SAPE  H12X18551   6.415   5.819   4.861 -2.3137  0.5615  0.2937
  165SAPE  H12Y18552   6.366   5.647   4.820  1.6460  0.1738  0.2571
  165SAPE  C31318553   6.208   5.796   4.780  0.2896 -0.2240 -0.1023
  165SAPE  H13X18554   6.131   5.732   4.731 -0.6921  1.3494 -0.6888
  165SAPE  H13Y18555   6.208   5.892   4.724  0.9959 -0.8670 -1.2473
  165SAPE  C31418556   6.157   5.825   4.922 -0.2565  0.3929 -0.0841
  165SAPE  H14X18557   6.066   5.888   4.913 -1.9167 -2.0379 -1.9011
  165SAPE  H14Y18558   6.233   5.890   4.969  1.5272 -1.3379 -0.4437
  165SAPE  C31518559   6.123   5.708   5.019 -0.1273 -0.5624 -0.4652
  165SAPE  H15X18560   6.221   5.666   5.048  1.1305  1.2579 -1.7704
  165SAPE  H15Y18561   6.055   5.634   4.973 -1.1071 -0.3521  0.6109
  165SAPE  C31618562   6.048   5.758   5.144  0.2894 -0.3634 -0.1790
  165SAPE  H16X18563   5.957   5.817   5.117  0.7412 -0.0898 -1.1619
  165SAPE  H16Y18564   6.121   5.823   5.197  1.3807  0.4606 -2.5511
  165SAPE  C31718565   5.995   5.646   5.236  0.3237 -0.1174 -0.2666
  165SAPE  H17X18566   5.917   5.586   5.184  0.2204 -0.4679  0.2901
  165SAPE  H17Y18567   5.954   5.685   5.331  0.0914 -1.3214  0.1418
  165SAPE  C31818568   6.095   5.536   5.270  0.5255  0.1077  0.1403
  165SAPE  H18X18569   6.181   5.577   5.327  0.6646  2.6944 -1.7517
  165SAPE  H18Y18570   6.139   5.482   5.184  1.5270 -0.4105  0.9532
  165SAPE  H18Z18571   6.053   5.454   5.333  2.2200 -0.6587  0.3231
  166SAPE     N18572   1.451   4.123   2.820 -0.6946 -0.5399 -0.4542
  166SAPE   HN118573   1.494   4.043   2.769  1.6176  0.5697 -0.3695
  166SAPE   HN218574   1.348   4.125   2.811 -0.8268  2.5059  0.7915
  166SAPE   HN318575   1.477   4.212   2.774  0.3700  0.0290  1.1592
  166SAPE   C1218576   1.475   4.110   2.968 -0.1453 -0.0735  0.0102
  166SAPE  H12A18577   1.423   4.195   3.019 -1.4427 -1.3241  0.8380
  166SAPE  H12B18578   1.585   4.118   2.979 -0.3431  1.8896  1.1084
  166SAPE   C1118579   1.417   3.988   3.036 -1.1862  0.6961 -0.7561
  166SAPE  H11A18580   1.307   3.984   3.030 -1.3903 -1.6630  2.3353
  166SAPE  H11B18581   1.432   3.998   3.146  0.2815  2.2252 -1.0469
  166SAPE     P18582   1.405   3.726   2.997  0.1758 -0.0459  0.0856
  166SAPE   O1318583   1.265   3.736   2.946  0.1061  0.2319  0.3156
  166SAPE   O1418584   1.497   3.626   2.942 -0.6049  0.4586 -0.0853
  166SAPE   O1218585   1.487   3.868   2.996  0.3143 -0.1153  0.5975
  166SAPE   O1118586   1.387   3.698   3.159 -0.5978 -0.0538 -0.0973
  166SAPE    C118587   1.487   3.739   3.249 -0.1903  0.8836  0.5209
  166SAPE    HA18588   1.588   3.747   3.202 -0.6231 -1.0106 -0.8414
  166SAPE    HB18589   1.471   3.845   3.279 -0.6114  1.8499 -2.6923
  166SAPE    C218590   1.493   3.633   3.361 -0.1039 -0.0612  0.4143
  166SAPE    HS18591   1.506   3.531   3.319  1.8763 -0.2504  1.3715
  166SAPE   O2118592   1.383   3.642   3.451 -0.7071 -0.8314  0.3637
  166SAPE   C2118593   1.366   3.538   3.527  0.0456  0.2237 -0.5428
  166SAPE   O2218594   1.422   3.431   3.524  0.1969  0.2803  0.0365
  166SAPE   C2218595   1.256   3.565   3.631 -1.3791  0.8256 -0.1395
  166SAPE   H2R18596   1.217   3.669   3.627 -1.2571  0.9234  0.8726
  166SAPE   H2S18597   1.168   3.504   3.601 -0.6228  0.7079 -2.2765
  166SAPE    C318598   1.629   3.648   3.442 -0.3017  0.7002  0.0159
  166SAPE    HX18599   1.707   3.622   3.367  0.3906 -0.7908  1.1849
  166SAPE    HY18600   1.629   3.570   3.520 -0.3498  0.0183 -0.6541
  166SAPE   O3118601   1.649   3.780   3.488 -0.0237 -0.8136 -0.0439
  166SAPE   C3118602   1.630   3.798   3.624  0.0044 -0.0594  0.2812
  166SAPE   O3218603   1.604   3.707   3.696 -0.5061 -0.3466 -0.2464
  166SAPE   C3218604   1.640   3.944   3.665  1.1644 -0.1493  0.1517
  166SAPE   H2X18605   1.559   4.009   3.626  1.4679  2.8246  3.9335
  166SAPE   H2Y18606   1.729   3.984   3.614  1.0656 -0.5484 -0.3462
  166SAPE   C2318607   1.306   3.523   3.781  0.2227 -0.5873  1.6217
  166SAPE   H3R18608   1.416   3.528   3.794  0.4520 -1.6874  0.3660
  166SAPE   H3S18609   1.278   3.415   3.785 -0.9040 -0.4122 -0.3059
  166SAPE   C2418610   1.246   3.603   3.897  0.0963  0.3049 -0.1119
  166SAPE   H4R18611   1.270   3.535   3.982 -0.8922 -0.5398 -0.4896
  166SAPE   H4S18612   1.136   3.601   3.877 -0.0220 -1.7677  0.5213
  166SAPE   C2518613   1.296   3.743   3.923 -0.5828  0.1645  0.3832
  166SAPE   H5R18614   1.347   3.794   3.840 -2.9987  0.4627 -0.9869
  166SAPE   C2618615   1.307   3.812   4.044 -0.7804 -0.3037  0.0084
  166SAPE   H6R18616   1.328   3.918   4.028 -0.8368 -0.3756 -0.5741
  166SAPE   C2718617   1.244   3.784   4.179 -0.6507  1.2818  0.5190
  166SAPE   H7R18618   1.143   3.749   4.149 -0.1135  0.6138 -0.5604
  166SAPE   H7S18619   1.232   3.871   4.248 -2.4906  0.3899  1.3877
  166SAPE   C2818620   1.306   3.660   4.236 -0.4305  0.2534 -0.3967
  166SAPE   H8R18621   1.340   3.587   4.161  2.6263 -1.3332  2.2859
  166SAPE   C2918622   1.335   3.644   4.371 -0.3824 -0.4014  0.1352
  166SAPE   H9R18623   1.390   3.556   4.408  0.2976 -0.1085 -0.1740
  166SAPE  C21018624   1.287   3.743   4.484 -0.3624  0.9985  0.2335
  166SAPE  H10R18625   1.176   3.752   4.487 -0.5473 -0.0783 -1.8117
  166SAPE  H10S18626   1.343   3.839   4.475 -0.1670  0.7428 -1.5258
  166SAPE  C21118627   1.355   3.694   4.608  0.0362  0.1782 -0.0787
  166SAPE  H11R18628   1.464   3.697   4.598 -0.0132  1.9715 -0.3085
  166SAPE  C21218629   1.296   3.642   4.723 -0.3751  0.1401  0.3660
  166SAPE  H12R18630   1.361   3.591   4.795  0.4363 -0.1472 -0.5411
  166SAPE  C21318631   1.149   3.639   4.743  0.3689  0.0168  0.6182
  166SAPE  H13R18632   1.092   3.609   4.652 -2.2630  0.3911  2.0353
  166SAPE  H13S18633   1.122   3.742   4.775 -0.7088 -0.7188  2.2271
  166SAPE  C21418634   1.112   3.555   4.866 -0.1219 -0.6641 -0.2948
  166SAPE  H14R18635   1.111   3.614   4.959  0.8493 -1.9414  0.5710
  166SAPE  C21518636   1.058   3.434   4.870 -0.1740  0.2662  0.0863
  166SAPE  H15R18637   1.037   3.387   4.967 -0.5326  0.0211 -0.1080
  166SAPE  C21618638   1.010   3.350   4.749  0.1542  0.2684  0.1174
  166SAPE  H16R18639   1.001   3.406   4.654  0.0214 -0.0332 -0.0509
  166SAPE  H16S18640   0.908   3.317   4.776  1.5157 -2.3814  2.6561
  166SAPE  C21718641   1.101   3.220   4.729 -0.4156 -0.4290  0.0016
  166SAPE  H17R18642   1.205   3.251   4.709 -0.5588  0.0271 -0.0602
  166SAPE  H17S18643   1.067   3.166   4.639  0.2640 -4.0516  1.7350
  166SAPE  C21818644   1.103   3.132   4.851  0.0117  0.1357  0.0959
  166SAPE  H18R18645   0.997   3.116   4.882 -0.3791  1.9580 -0.1767
  166SAPE  H18S18646   1.150   3.185   4.936  0.1526  1.5783 -0.8434
  166SAPE  C21918647   1.183   3.000   4.830 -0.8322 -0.1060  0.2641
  166SAPE  H19R18648   1.210   2.951   4.926  0.5612  2.9082  1.5406
  166SAPE  H19S18649   1.282   3.022   4.784 -0.7346 -0.8763  0.1031
  166SAPE  C22018650   1.135   2.898   4.726  0.3901 -0.4298  0.3943
  166SAPE  H20R18651   1.089   2.815   4.784 -1.4947  0.5054  0.3297
  166SAPE  H20S18652   1.220   2.856   4.668  0.5738 -0.2402  0.5282
  166SAPE  H20T18653   1.062   2.930   4.648  0.7173  0.1197  0.3089
  166SAPE   C3318654   1.663   3.980   3.808  0.0076  0.2906 -0.9396
  166SAPE   H3X18655   1.750   3.924   3.847 -1.5608 -2.2882 -0.9190
  166SAPE   H3Y18656   1.583   3.930   3.865  0.5643 -1.1637 -1.3715
  166SAPE   C3418657   1.672   4.129   3.843  0.0960  0.1480  0.1068
  166SAPE   H4X18658   1.583   4.184   3.805 -0.9694 -2.0546 -0.7481
  166SAPE   H4Y18659   1.762   4.180   3.801  0.7517 -1.3014 -0.3177
  166SAPE   C3518660   1.685   4.140   3.999  0.9511  0.4909  0.4982
  166SAPE   H5X18661   1.681   4.249   4.023 -1.2079  0.3837  0.8900
  166SAPE   H5Y18662   1.791   4.113   4.013  1.0228  0.6704  0.3034
  166SAPE   C3618663   1.597   4.055   4.100  0.8817  0.3186 -0.1146
  166SAPE   H6X18664   1.636   3.951   4.099 -0.8194 -0.5588  3.7846
  166SAPE   H6Y18665   1.492   4.044   4.064  0.9401  2.3917 -0.9970
  166SAPE   C3718666   1.608   4.106   4.242  0.1809  0.0543 -0.8466
  166SAPE   H7X18667   1.559   4.206   4.244 -0.9171 -0.4788 -0.4480
  166SAPE   H7Y18668   1.712   4.120   4.279 -0.4348 -0.9108  1.3872
  166SAPE   C3818669   1.535   4.009   4.344 -0.5570  0.1180 -0.4407
  166SAPE   H8X18670   1.592   3.914   4.349  0.0667  0.5555  1.4221
  166SAPE   H8Y18671   1.435   3.985   4.302 -0.0962 -0.3865 -1.2912
  166SAPE   C3918672   1.530   4.059   4.485 -0.0332  0.1899  0.2226
  166SAPE   H9X18673   1.472   3.990   4.551  0.7065 -0.8866 -0.2314
  166SAPE   H9Y18674   1.473   4.154   4.490 -0.6957 -0.2508  1.7034
  166SAPE  C31018675   1.675   4.080   4.550  0.5237  0.3820  0.0592
  166SAPE  H10X18676   1.717   4.181   4.526  2.1889 -0.1303  0.6845
  166SAPE  H10Y18677   1.738   4.001   4.505 -0.6376  0.1189 -1.1740
  166SAPE  C31118678   1.677   4.056   4.700  0.6565 -0.1640  0.7157
  166SAPE  H11X18679   1.636   3.956   4.725 -0.1002 -0.0840 -0.1474
  166SAPE  H11Y18680   1.602   4.124   4.744  0.2944 -0.8131  1.1138
  166SAPE  C31218681   1.819   4.074   4.761 -0.4621 -0.4028  0.0851
  166SAPE  H12X18682   1.858   4.170   4.721 -2.2362  0.4097  0.2253
  166SAPE  H12Y18683   1.891   3.996   4.727 -0.1554 -0.2219  0.3118
  166SAPE  C31318684   1.821   4.091   4.911  0.1099  0.3977  0.1394
  166SAPE  H13X18685   1.759   4.017   4.966 -0.8935  1.2954  0.2487
  166SAPE  H13Y18686   1.759   4.182   4.922  0.0387  0.4192 -0.3978
  166SAPE  C31418687   1.960   4.120   4.961 -0.7220 -0.7987 -0.1600
  166SAPE  H14X18688   2.025   4.173   4.888  0.3523 -0.2941  1.1294
  166SAPE  H14Y18689   2.003   4.018   4.965  0.2705 -0.6290 -3.4170
  166SAPE  C31518690   1.976   4.200   5.084 -0.1803 -0.8228  0.0722
  166SAPE  H15X18691   1.908   4.180   5.169  1.5840  0.2207  1.8321
  166SAPE  H15Y18692   1.960   4.307   5.060  1.1074 -0.8424 -0.9865
  166SAPE  C31618693   2.114   4.194   5.154 -0.4465  0.2055  0.4920
  166SAPE  H16X18694   2.194   4.212   5.079 -0.5411  0.5151  0.4664
  166SAPE  H16Y18695   2.119   4.090   5.193  0.0577  0.4095  0.9673
  166SAPE  C31718696   2.132   4.292   5.272 -0.3434  0.4989  0.3410
  166SAPE  H17X18697   2.042   4.286   5.337 -1.0342 -1.2031 -0.7288
  166SAPE  H17Y18698   2.122   4.395   5.230 -0.2081  0.5315  0.3867
  166SAPE  C31818699   2.265   4.279   5.354  0.5144  0.7701  0.1415
  166SAPE  H18X18700   2.353   4.290   5.287  2.2546  0.1024  2.2192
  166SAPE  H18Y18701   2.265   4.181   5.406 -0.0065  0.5332 -0.2913
  166SAPE  H18Z18702   2.280   4.358   5.431 -0.1937 -0.2256  1.3512
  167SAPE     N18703   2.588   5.921   2.858 -0.0625  0.0788  0.5054
  167SAPE   HN118704   2.578   6.023   2.844 -0.3048  0.0312  0.3353
  167SAPE   HN218705   2.686   5.888   2.849  0.4143  1.6165 -0.1892
  167SAPE   HN318706   2.545   5.870   2.779  0.9709 -2.0041  1.2137
  167SAPE   C1218707   2.538   5.874   2.994 -0.1487 -0.0243 -0.3206
  167SAPE  H12A18708   2.586   5.775   3.007  2.7534  1.0393 -2.0706
  167SAPE  H12B18709   2.428   5.860   2.983 -0.1959  1.0322 -1.3253
  167SAPE   C1118710   2.571   5.980   3.108  0.3948  0.0092 -0.1422
  167SAPE  H11A18711   2.682   5.978   3.114  0.4263 -3.4838 -0.0348
  167SAPE  H11B18712   2.539   5.946   3.209 -1.0270  1.9657  0.1418
  167SAPE     P18713   2.521   6.222   3.177  0.2109  0.2718 -0.1735
  167SAPE   O1318714   2.655   6.278   3.146 -0.2140 -0.8371 -0.3276
  167SAPE   O1418715   2.409   6.319   3.163  0.2362  0.8777 -0.0712
  167SAPE   O1218716   2.502   6.098   3.082  0.4193 -0.0761  0.0716
  167SAPE   O1118717   2.521   6.156   3.317 -0.2018 -0.5177 -0.1029
  167SAPE    C118718   2.406   6.106   3.383  0.7383  0.6253 -0.5387
  167SAPE    HA18719   2.322   6.178   3.389 -0.7963 -1.1420 -0.0158
  167SAPE    HB18720   2.368   6.018   3.327 -2.8459  2.2011 -0.8184
  167SAPE    C218721   2.429   6.045   3.530 -0.5385 -0.0639  0.1647
  167SAPE    HS18722   2.327   6.042   3.574  0.0257  4.8953  2.4689
  167SAPE   O2118723   2.518   6.122   3.613  0.3597 -1.0859 -0.3621
  167SAPE   C2118724   2.464   6.234   3.656 -0.0541  0.2626 -0.8225
  167SAPE   O2218725   2.352   6.277   3.633 -0.1512  0.0511 -0.4993
  167SAPE   C2218726   2.566   6.306   3.744  0.4820  0.4161  0.4754
  167SAPE   H2R18727   2.614   6.376   3.672 -0.6706 -0.1386 -0.8616
  167SAPE   H2S18728   2.499   6.361   3.814  0.3098  2.2771 -1.0612
  167SAPE    C318729   2.486   5.904   3.533  0.0370  0.0615 -0.1560
  167SAPE    HX18730   2.585   5.903   3.483 -1.3793 -3.1814 -3.3447
  167SAPE    HY18731   2.427   5.829   3.477  2.0125 -1.0434 -0.8569
  167SAPE   O3118732   2.488   5.860   3.673 -0.7734  0.7598  0.5099
  167SAPE   C3118733   2.484   5.740   3.709  0.3744  0.1955  0.6158
  167SAPE   O3218734   2.482   5.638   3.639  0.8507 -0.4696  0.4326
  167SAPE   C3218735   2.496   5.744   3.862  0.4878  0.0968  0.1106
  167SAPE   H2X18736   2.449   5.836   3.903  0.2358  0.2523 -0.5260
  167SAPE   H2Y18737   2.605   5.737   3.884  0.2504 -1.4582  0.9861
  167SAPE   C2318738   2.679   6.228   3.804  0.0489 -0.1129 -1.1310
  167SAPE   H3R18739   2.744   6.198   3.720 -0.4493  0.6887 -1.8093
  167SAPE   H3S18740   2.639   6.136   3.854 -0.5690  0.5787 -0.3176
  167SAPE   C2418741   2.758   6.319   3.908  0.0268  0.2278  0.0337
  167SAPE   H4R18742   2.819   6.402   3.867 -0.3778 -0.3198 -1.7607
  167SAPE   H4S18743   2.849   6.269   3.948  0.6455  1.1647 -0.1742
  167SAPE   C2518744   2.673   6.378   4.012  0.8653 -0.2334  0.5833
  167SAPE   H5R18745   2.579   6.421   3.975  0.2330 -0.9257  1.3376
  167SAPE   C2618746   2.687   6.358   4.143 -0.0198 -0.1756  0.1840
  167SAPE   H6R18747   2.614   6.403   4.212  0.2881 -1.4349  1.3610
  167SAPE   C2718748   2.780   6.277   4.220 -0.0939  0.2590 -0.6666
  167SAPE   H7R18749   2.809   6.184   4.167 -0.2322 -0.4913  0.5192
  167SAPE   H7S18750   2.725   6.237   4.308  1.7348 -1.3578 -0.1894
  167SAPE   C2818751   2.907   6.345   4.269  0.4516 -0.2717 -0.4992
  167SAPE   H8R18752   2.958   6.417   4.203 -1.3555  1.4199 -0.1280
  167SAPE   C2918753   2.946   6.352   4.399 -0.4568  0.9127  0.3202
  167SAPE   H9R18754   3.020   6.428   4.427 -0.9844  1.8547 -0.7846
  167SAPE  C21018755   2.890   6.281   4.516 -0.4264  0.1122  0.7353
  167SAPE  H10R18756   2.946   6.186   4.532 -0.9487 -0.3615 -0.1753
  167SAPE  H10S18757   2.787   6.247   4.492  0.2079 -0.3410 -1.5908
  167SAPE  C21118758   2.872   6.372   4.634  0.3460 -0.2727  0.1298
  167SAPE  H11R18759   2.821   6.467   4.610 -2.0756 -1.5412 -0.0812
  167SAPE  C21218760   2.892   6.341   4.761  0.1962  0.3702 -0.8600
  167SAPE  H12R18761   2.861   6.410   4.841  0.6620  0.1694 -0.5009
  167SAPE  C21318762   2.932   6.209   4.816  0.6295  0.4284  0.1419
  167SAPE  H13R18763   2.953   6.139   4.732  2.0883  1.9979 -0.8631
  167SAPE  H13S18764   2.847   6.172   4.878 -0.5427  1.4986 -0.7963
  167SAPE  C21418765   3.051   6.197   4.900  0.0740 -0.6533  0.2608
  167SAPE  H14R18766   3.079   6.284   4.963 -1.1669 -1.9105  2.6819
  167SAPE  C21518767   3.127   6.086   4.915  0.6231  0.6536 -0.2106
  167SAPE  H15R18768   3.226   6.085   4.964  1.3101  0.5632 -1.5338
  167SAPE  C21618769   3.099   5.945   4.862 -0.4603  0.2305 -0.1344
  167SAPE  H16R18770   3.171   5.917   4.782 -1.8537  0.7835 -1.6523
  167SAPE  H16S18771   2.994   5.934   4.829  0.4703 -0.2027 -3.3190
  167SAPE  C21718772   3.115   5.842   4.971  0.2707 -0.0040  0.2499
  167SAPE  H17R18773   3.072   5.745   4.940 -0.7903  0.5544 -0.0530
  167SAPE  H17S18774   3.063   5.873   5.064 -0.0993 -0.4361  0.1886
  167SAPE  C21818775   3.258   5.798   5.020 -0.0962  0.3093 -0.0658
  167SAPE  H18R18776   3.241   5.721   5.099 -3.1434  0.4112 -0.5109
  167SAPE  H18S18777   3.309   5.889   5.060  1.9089 -0.8618  0.1821
  167SAPE  C21918778   3.332   5.737   4.896  0.2247 -0.6261 -0.2474
  167SAPE  H19R18779   3.380   5.824   4.847 -2.2284  0.5204 -0.7754
  167SAPE  H19S18780   3.257   5.688   4.830 -0.3330  0.9164 -0.8140
  167SAPE  C22018781   3.442   5.631   4.933  0.2656  0.0001 -0.2271
  167SAPE  H20R18782   3.403   5.549   4.998  0.2549 -0.7665 -1.1769
  167SAPE  H20S18783   3.525   5.682   4.986  2.0165 -2.2567 -0.6350
  167SAPE  H20T18784   3.490   5.582   4.846 -0.8915 -0.2277 -0.7553
  167SAPE   C3318785   2.415   5.627   3.926  0.0556 -0.7171  0.1368
  167SAPE   H3X18786   2.458   5.529   3.896 -0.2937 -1.0148  0.5803
  167SAPE   H3Y18787   2.314   5.630   3.880  0.4976  0.1016 -0.8032
  167SAPE   C3418788   2.413   5.627   4.075 -0.1807  0.1735  0.1301
  167SAPE   H4X18789   2.401   5.730   4.114 -2.4138  0.0437 -0.1296
  167SAPE   H4Y18790   2.511   5.598   4.119 -1.2082  0.7002  2.9091
  167SAPE   C3518791   2.304   5.530   4.125 -0.1161  0.0570 -0.0033
  167SAPE   H5X18792   2.326   5.439   4.065 -0.0869  0.3562 -0.4501
  167SAPE   H5Y18793   2.198   5.561   4.113 -0.3146  0.6810  2.7355
  167SAPE   C3618794   2.323   5.481   4.272 -0.2371  0.4947 -0.2019
  167SAPE   H6X18795   2.328   5.560   4.351  0.1008 -1.5103  1.9051
  167SAPE   H6Y18796   2.427   5.442   4.272  0.2484  1.4781  2.7371
  167SAPE   C3718797   2.222   5.375   4.319 -0.6688 -1.0677  0.3175
  167SAPE   H7X18798   2.238   5.294   4.246  1.0997  0.1465 -0.7138
  167SAPE   H7Y18799   2.115   5.402   4.302  0.2137  1.3213 -1.9997
  167SAPE   C3818800   2.233   5.338   4.467 -0.9721 -0.0718 -0.0376
  167SAPE   H8X18801   2.154   5.264   4.492  0.1229 -1.0449  0.6220
  167SAPE   H8Y18802   2.221   5.424   4.537  0.5827 -0.9588  1.3834
  167SAPE   C3918803   2.373   5.280   4.510 -0.3154  0.6251  0.2110
  167SAPE   H9X18804   2.456   5.345   4.476  0.5086  0.5496  1.9818
  167SAPE   H9Y18805   2.389   5.184   4.458 -2.1661 -0.1234  0.9219
  167SAPE  C31018806   2.403   5.262   4.653  0.0759 -0.2582 -0.0022
  167SAPE  H10X18807   2.323   5.190   4.680 -0.1440 -0.7229 -1.7854
  167SAPE  H10Y18808   2.407   5.351   4.720  1.5803 -0.8199  0.6883
  167SAPE  C31118809   2.538   5.189   4.677 -0.6162 -0.5026  0.5752
  167SAPE  H11X18810   2.624   5.252   4.644 -1.9845  0.0587 -2.2127
  167SAPE  H11Y18811   2.544   5.099   4.612  0.0807  1.6035 -2.4918
  167SAPE  C31218812   2.542   5.141   4.831  0.3611 -0.2298 -0.1573
  167SAPE  H12X18813   2.490   5.046   4.853 -1.4833  1.1133  1.7021
  167SAPE  H12Y18814   2.480   5.211   4.890  1.4828  1.9389 -1.4023
  167SAPE  C31318815   2.682   5.129   4.895 -0.1097  0.2219  0.4757
  167SAPE  H13X18816   2.668   5.087   4.997 -0.7165  0.3073  0.4273
  167SAPE  H13Y18817   2.715   5.234   4.907 -0.6800  0.6420 -1.2861
  167SAPE  C31418818   2.796   5.042   4.825  0.2473  0.4834 -0.0256
  167SAPE  H14X18819   2.842   5.091   4.737  1.0193  0.3993  0.3262
  167SAPE  H14Y18820   2.737   4.955   4.788 -0.4527  0.1309  1.8068
  167SAPE  C31518821   2.918   5.018   4.917  0.0924 -0.6898  0.2404
  167SAPE  H15X18822   2.869   5.008   5.016  0.7470 -0.3407  0.6033
  167SAPE  H15Y18823   2.982   5.108   4.919  1.2199 -1.4316 -1.0803
  167SAPE  C31618824   2.999   4.888   4.892 -0.1400 -0.6625 -0.2751
  167SAPE  H16X18825   3.047   4.912   4.794  0.9649  0.5572  0.5366
  167SAPE  H16Y18826   2.935   4.799   4.872 -2.7514  1.3336 -1.4620
  167SAPE  C31718827   3.105   4.856   4.993 -0.4893 -0.1747  0.3648
  167SAPE  H17X18828   3.180   4.938   4.990  0.9796 -1.5060 -0.3881
  167SAPE  H17Y18829   3.165   4.766   4.970 -0.0704  0.2694 -0.3002
  167SAPE  C31818830   3.071   4.840   5.146  0.6270  0.2981  0.4518
  167SAPE  H18X18831   3.003   4.754   5.164  1.8937 -0.8758 -0.1532
  167SAPE  H18Y18832   3.028   4.937   5.179  0.8072  0.4893  0.1356
  167SAPE  H18Z18833   3.171   4.825   5.192  0.5803 -0.1400  0.4103
  168SAPE     N18834   5.609   3.690   2.896  0.5187  0.1343 -0.4350
  168SAPE   HN118835   5.657   3.720   2.809  2.0079 -0.3232  0.2091
  168SAPE   HN218836   5.506   3.708   2.897  0.8333  2.2077  0.9228
  168SAPE   HN318837   5.627   3.750   2.979 -0.9096  0.9479 -0.6794
  168SAPE   C1218838   5.627   3.547   2.945  0.4148  0.0732  1.3044
  168SAPE  H12A18839   5.607   3.540   3.054  0.1425 -0.0094  1.2505
  168SAPE  H12B18840   5.728   3.510   2.918 -0.2107 -1.2989  0.7960
  168SAPE   C1118841   5.525   3.463   2.865 -0.5916  0.1655 -0.3225
  168SAPE  H11A18842   5.551   3.359   2.892  1.4115  0.0414 -2.4397
  168SAPE  H11B18843   5.549   3.476   2.757 -0.7453  1.7587 -0.1892
  168SAPE     P18844   5.269   3.393   2.877  0.0535  0.3134 -0.1350
  168SAPE   O1318845   5.151   3.456   2.812  0.6025  0.0329  0.0365
  168SAPE   O1418846   5.318   3.275   2.803  0.2889 -0.3485 -0.3794
  168SAPE   O1218847   5.389   3.502   2.896 -0.7781  0.2325  0.0802
  168SAPE   O1118848   5.224   3.347   3.022 -0.1948  0.0559 -0.0784
  168SAPE    C118849   5.184   3.453   3.109 -0.5464  0.1568 -0.7838
  168SAPE    HA18850   5.247   3.544   3.098 -1.1382  1.1362  2.7788
  168SAPE    HB18851   5.075   3.470   3.097 -1.2106 -1.8657  1.4300
  168SAPE    C218852   5.206   3.427   3.260 -0.6679 -0.0764 -0.7097
  168SAPE    HS18853   5.135   3.350   3.298 -1.9531  1.8515  0.9963
  168SAPE   O2118854   5.204   3.547   3.341  0.1688 -0.0332  0.5580
  168SAPE   C2118855   5.080   3.593   3.359 -0.0746  0.1399 -0.0887
  168SAPE   O2218856   4.979   3.534   3.325 -0.7506  0.7696 -0.6154
  168SAPE   C2218857   5.082   3.730   3.423  0.2689 -0.0458 -0.0314
  168SAPE   H2R18858   5.143   3.729   3.516 -1.7175 -1.2348  1.3529
  168SAPE   H2S18859   5.115   3.802   3.345  0.2970 -1.2222 -1.1308
  168SAPE    C318860   5.347   3.368   3.280 -0.0399 -0.0601 -0.4680
  168SAPE    HX18861   5.425   3.438   3.243  0.9048 -0.6143  0.4312
  168SAPE    HY18862   5.353   3.275   3.220 -0.9110  1.5581 -3.2478
  168SAPE   O3118863   5.380   3.349   3.421 -0.3029 -0.1522 -0.1521
  168SAPE   C3118864   5.368   3.229   3.477  0.0341 -0.4265 -0.0737
  168SAPE   O3218865   5.316   3.130   3.427 -0.0158 -0.1435 -0.4792
  168SAPE   C3218866   5.414   3.252   3.614  0.5984 -0.6171 -0.2864
  168SAPE   H2X18867   5.364   3.340   3.659 -2.3649 -1.6251 -1.4260
  168SAPE   H2Y18868   5.523   3.276   3.611  0.7895 -1.4199 -0.0641
  168SAPE   C2318869   4.937   3.765   3.464 -0.3758 -0.1654  0.1029
  168SAPE   H3R18870   4.881   3.679   3.506 -1.9071  0.5914 -0.3120
  168SAPE   H3S18871   4.888   3.792   3.368  1.1368  0.9771 -0.3923
  168SAPE   C2418872   4.918   3.893   3.557  0.3501 -0.1940 -0.3442
  168SAPE   H4R18873   4.810   3.918   3.558  0.7081  1.5843  2.0837
  168SAPE   H4S18874   4.982   3.970   3.509  0.7712 -0.9182 -0.9516
  168SAPE   C2518875   4.960   3.868   3.695 -0.3678  0.0192 -0.1420
  168SAPE   H5R18876   5.069   3.866   3.706 -0.3573  0.2981 -0.1881
  168SAPE   C2618877   4.892   3.858   3.809 -0.3074 -0.3628 -0.3357
  168SAPE   H6R18878   4.950   3.836   3.900 -0.8861 -0.9666 -0.1103
  168SAPE   C2718879   4.744   3.881   3.833  0.3817  0.4273  0.0110
  168SAPE   H7R18880   4.684   3.841   3.749 -0.9333 -0.8721  1.5175
  168SAPE   H7S18881   4.729   3.990   3.840 -0.6145  0.1791  2.4050
  168SAPE   C2818882   4.682   3.816   3.961  0.2468 -0.3967  0.5709
  168SAPE   H8R18883   4.653   3.712   3.937  0.3935  0.0218 -1.6422
  168SAPE   C2918884   4.649   3.874   4.078  0.0263  0.3741 -0.1780
  168SAPE   H9R18885   4.613   3.816   4.164  0.3069  1.8883  1.0082
  168SAPE  C21018886   4.682   4.013   4.124 -0.0523 -0.1142  0.0257
  168SAPE  H10R18887   4.611   4.052   4.200  0.8684  1.7102  0.0075
  168SAPE  H10S18888   4.650   4.078   4.040 -3.0643 -0.4784  0.7839
  168SAPE  C21118889   4.825   4.039   4.162  0.0597 -0.7088 -0.0074
  168SAPE  H11R18890   4.880   4.085   4.079 -0.6359  0.9024  0.3685
  168SAPE  C21218891   4.881   4.008   4.282  0.3438 -0.7481  0.9746
  168SAPE  H12R18892   4.979   4.050   4.309  0.7851 -0.7257 -0.5728
  168SAPE  C21318893   4.806   3.948   4.395  0.3858 -0.0327 -1.0837
  168SAPE  H13R18894   4.701   3.917   4.376  0.1791  0.7604 -1.3008
  168SAPE  H13S18895   4.805   4.017   4.483 -0.5863 -1.6595  0.2414
  168SAPE  C21418896   4.875   3.828   4.452  0.2442 -0.3089  0.3679
  168SAPE  H14R18897   4.913   3.757   4.377 -1.3457  0.9721 -1.7307
  168SAPE  C21518898   4.914   3.803   4.577  0.0483  0.5757 -0.2443
  168SAPE  H15R18899   4.966   3.708   4.597 -2.2149 -1.2794 -2.3640
  168SAPE  C21618900   4.883   3.879   4.700  0.3635  0.4730 -0.6899
  168SAPE  H16R18901   4.809   3.825   4.763  0.2693  1.8183  0.4165
  168SAPE  H16S18902   4.838   3.978   4.674 -2.4655 -0.6039 -0.2658
  168SAPE  C21718903   4.998   3.905   4.791 -0.3788 -0.1384  0.0001
  168SAPE  H17R18904   5.071   3.975   4.745 -2.7856  2.7019  0.1842
  168SAPE  H17S18905   5.058   3.816   4.819 -1.0630 -0.0037  2.0425
  168SAPE  C21818906   4.964   3.952   4.930  0.4506 -0.4800 -0.3684
  168SAPE  H18R18907   4.902   3.876   4.982 -0.9090  0.4389 -0.5850
  168SAPE  H18S18908   4.888   4.031   4.915 -0.8728 -1.3822  1.3561
  168SAPE  C21918909   5.091   3.962   5.015 -0.7241  0.4968  0.0132
  168SAPE  H19R18910   5.088   4.057   5.073 -0.4425  0.4594  0.0904
  168SAPE  H19S18911   5.178   3.961   4.946 -1.2365 -0.7298 -0.6327
  168SAPE  C22018912   5.111   3.840   5.106 -0.6525 -0.0191 -0.5610
  168SAPE  H20R18913   5.126   3.746   5.050 -2.7740  0.6949 -2.5185
  168SAPE  H20S18914   5.026   3.828   5.178  0.6109  2.4557  1.5358
  168SAPE  H20T18915   5.203   3.862   5.164 -0.9258  0.9749 -0.4745
  168SAPE   C3318916   5.404   3.125   3.697 -1.0255  0.3515  0.4431
  168SAPE   H3X18917   5.476   3.051   3.655 -1.9143 -0.4988  0.3599
  168SAPE   H3Y18918   5.300   3.085   3.696 -1.5039  1.5020 -1.5702
  168SAPE   C3418919   5.436   3.146   3.848 -0.4417 -0.5317  0.5281
  168SAPE   H4X18920   5.404   3.247   3.883  0.4867 -0.0694  0.1046
  168SAPE   H4Y18921   5.544   3.131   3.867 -0.1999 -0.5142 -0.7170
  168SAPE   C3518922   5.347   3.053   3.934  0.5712  0.3976  0.5375
  168SAPE   H5X18923   5.345   2.950   3.892  1.1570  0.2560  0.8525
  168SAPE   H5Y18924   5.244   3.096   3.936  0.0012 -0.7609  4.4799
  168SAPE   C3618925   5.385   3.052   4.088 -0.0872 -0.1999  0.0598
  168SAPE   H6X18926   5.405   3.160   4.107  0.8197  0.1091 -2.3239
  168SAPE   H6Y18927   5.485   3.003   4.090 -0.1527 -0.3208  0.6265
  168SAPE   C3718928   5.285   2.970   4.171 -0.0453  0.1750  0.1798
  168SAPE   H7X18929   5.303   2.862   4.153  2.8991  0.9049 -1.9845
  168SAPE   H7Y18930   5.186   3.000   4.130  0.5630  1.3235 -0.5038
  168SAPE   C3818931   5.295   3.023   4.314 -0.3138  0.1317 -0.2298
  168SAPE   H8X18932   5.247   3.122   4.327  0.9480  0.9583 -1.5311
  168SAPE   H8Y18933   5.401   3.045   4.337 -0.9511  1.5411  1.5705
  168SAPE   C3918934   5.230   2.926   4.408 -0.8041  0.1993 -0.4417
  168SAPE   H9X18935   5.263   2.822   4.390 -0.9578 -0.0197  0.4738
  168SAPE   H9Y18936   5.120   2.918   4.389 -1.1364  1.4401  0.7461
  168SAPE  C31018937   5.239   2.958   4.561 -0.0226 -0.2260  0.0369
  168SAPE  H10X18938   5.192   3.057   4.578 -2.4228 -0.9238 -1.8721
  168SAPE  H10Y18939   5.346   2.947   4.588  0.1071 -0.9830 -0.7157
  168SAPE  C31118940   5.154   2.860   4.649 -0.2735  0.6337 -0.2721
  168SAPE  H11X18941   5.183   2.754   4.636  1.3267  0.5850  2.6869
  168SAPE  H11Y18942   5.047   2.864   4.619 -0.5044  1.1268  0.5883
  168SAPE  C31218943   5.177   2.872   4.800 -0.0812 -0.7280  0.2608
  168SAPE  H12X18944   5.286   2.881   4.820  0.1044  2.1859 -1.4171
  168SAPE  H12Y18945   5.139   2.787   4.860 -2.9970  1.8188  2.3828
  168SAPE  C31318946   5.112   2.986   4.867  0.2145 -0.1964 -0.2734
  168SAPE  H13X18947   5.007   2.997   4.832  0.6443 -0.6895 -1.7887
  168SAPE  H13Y18948   5.164   3.080   4.838 -1.3298  1.1045  0.9737
  168SAPE  C31418949   5.108   2.964   5.028 -0.8133 -0.0731 -0.2208
  168SAPE  H14X18950   5.043   2.877   5.049 -0.3143 -0.6875 -1.1531
  168SAPE  H14Y18951   5.059   3.054   5.071 -2.1981 -0.5323 -0.7813
  168SAPE  C31518952   5.244   2.945   5.101  0.4671  0.7434 -0.7458
  168SAPE  H15X18953   5.303   3.039   5.100  2.9746 -0.7478 -2.0935
  168SAPE  H15Y18954   5.301   2.868   5.045  1.2458  1.6121 -1.1811
  168SAPE  C31618955   5.213   2.896   5.249  0.5052 -0.1865  0.1022
  168SAPE  H16X18956   5.107   2.910   5.280  0.6256 -0.4872  0.6630
  168SAPE  H16Y18957   5.272   2.962   5.316 -1.6230 -0.0706  1.9886
  168SAPE  C31718958   5.238   2.750   5.279 -0.2414 -1.2125  0.2983
  168SAPE  H17X18959   5.212   2.728   5.385  1.6874 -1.2233  0.8031
  168SAPE  H17Y18960   5.348   2.741   5.274  0.0771  1.9432 -1.0650
  168SAPE  C31818961   5.163   2.644   5.193 -0.2489 -0.0672 -0.2526
  168SAPE  H18X18962   5.199   2.660   5.089 -1.0303 -0.2782 -0.5607
  168SAPE  H18Y18963   5.053   2.656   5.198 -0.2250  0.1290 -0.1971
  168SAPE  H18Z18964   5.201   2.547   5.233 -2.1850 -0.3135  1.1251
  169SAPE     N18965   1.838   1.922   3.168  0.2038 -0.2614 -0.5993
  169SAPE   HN118966   1.929   1.970   3.152 -0.2657  0.4054 -1.2987
  169SAPE   HN218967   1.842   1.859   3.086 -2.4520 -1.2741 -0.0579
  169SAPE   HN318968   1.762   1.991   3.155  1.4983  2.3019  3.4616
  169SAPE   C1218969   1.815   1.850   3.297  0.6704 -0.3253 -0.0189
  169SAPE  H12A18970   1.717   1.800   3.280  0.4964  0.4197 -1.2864
  169SAPE  H12B18971   1.814   1.928   3.377 -1.6707  1.2789 -1.5043
  169SAPE   C1118972   1.911   1.735   3.325  0.8213 -0.0999 -0.1675
  169SAPE  H11A18973   1.875   1.688   3.419 -1.6913 -2.4744 -2.1614
  169SAPE  H11B18974   2.010   1.786   3.330 -0.0140  1.5557  0.4670
  169SAPE     P18975   2.012   1.534   3.191  0.3331  0.1245 -0.0528
  169SAPE   O1318976   1.962   1.463   3.074  0.3546  0.0714 -0.0091
  169SAPE   O1418977   2.136   1.601   3.181  0.6069  0.9547  0.3886
  169SAPE   O1218978   1.900   1.638   3.219  0.5180 -0.1541 -0.4693
  169SAPE   O1118979   2.016   1.441   3.322 -0.1260 -0.2778  0.3581
  169SAPE    C118980   1.898   1.363   3.338 -0.2461  0.1041 -0.1518
  169SAPE    HA18981   1.809   1.424   3.314  0.0877 -0.0247 -1.8504
  169SAPE    HB18982   1.898   1.276   3.268  1.5333 -0.1988  0.1788
  169SAPE    C218983   1.889   1.320   3.488  0.0165  0.6035  0.5867
  169SAPE    HS18984   1.786   1.279   3.493  0.5755 -0.8441  0.8674
  169SAPE   O2118985   1.913   1.431   3.575 -0.4775  0.2448 -0.0121
  169SAPE   C2118986   1.813   1.499   3.621  0.0818  0.5024 -0.1654
  169SAPE   O2218987   1.694   1.487   3.595 -0.5886 -0.4345  0.2416
  169SAPE   C2218988   1.879   1.587   3.727 -0.9653 -0.5082  0.4873
  169SAPE   H2R18989   1.940   1.526   3.796  1.6986 -0.4420 -1.6526
  169SAPE   H2S18990   1.947   1.655   3.672 -0.3883  1.1913  3.0955
  169SAPE    C318991   2.000   1.206   3.514 -0.0974  0.0526 -0.3619
  169SAPE    HX18992   2.098   1.217   3.462  1.1355  0.2871  1.8830
  169SAPE    HY18993   1.955   1.112   3.476 -1.4944 -0.3012  1.9434
  169SAPE   O3118994   2.020   1.173   3.661  0.4132  0.1108  0.0638
  169SAPE   C3118995   2.145   1.198   3.708  0.2537  0.5025  0.5137
  169SAPE   O3218996   2.239   1.233   3.643  0.3336 -0.4229  0.0776
  169SAPE   C3218997   2.149   1.161   3.854  0.0219 -0.0865  1.1288
  169SAPE   H2X18998   2.240   1.198   3.905 -0.8848  0.1096  2.6595
  169SAPE   H2Y18999   2.144   1.050   3.855  1.8823 -0.2884 -1.5765
  169SAPE   C2319000   1.784   1.670   3.815 -0.0725  0.1903  0.0752
  169SAPE   H3R19001   1.713   1.726   3.750 -0.3763  0.3331  0.5251
  169SAPE   H3S19002   1.851   1.734   3.876 -0.2872 -0.9482  1.5838
  169SAPE   C2419003   1.710   1.577   3.915 -0.0129  0.4638  0.8143
  169SAPE   H4R19004   1.784   1.535   3.986  1.3822  0.9980 -0.2715
  169SAPE   H4S19005   1.678   1.488   3.857 -0.3449  0.7708  0.5297
  169SAPE   C2519006   1.607   1.652   3.992 -0.2618  0.2192  0.4008
  169SAPE   H5R19007   1.504   1.668   3.956  0.4423 -0.8453 -2.4341
  169SAPE   C2619008   1.631   1.722   4.102  0.1967 -0.2136  0.0035
  169SAPE   H6R19009   1.547   1.772   4.152 -0.0331 -0.0808 -0.5125
  169SAPE   C2719010   1.764   1.721   4.175  0.3854  0.2691 -0.2977
  169SAPE   H7R19011   1.844   1.755   4.105  0.0216 -0.7121 -1.2285
  169SAPE   H7S19012   1.800   1.618   4.198 -0.2761 -0.2451 -1.4836
  169SAPE   C2819013   1.760   1.802   4.303  0.1376  0.5078 -0.3396
  169SAPE   H8R19014   1.784   1.909   4.289  0.3326  0.7876  1.7804
  169SAPE   C2919015   1.714   1.770   4.428 -0.0179  0.1077  0.1995
  169SAPE   H9R19016   1.718   1.848   4.505 -1.1707  0.3234  0.0666
  169SAPE  C21019017   1.662   1.632   4.462  0.1911 -0.0822  0.0171
  169SAPE  H10R19018   1.751   1.568   4.480  0.4646  0.2943  0.0139
  169SAPE  H10S19019   1.604   1.590   4.377 -0.4283  1.7077 -0.4806
  169SAPE  C21119020   1.577   1.631   4.592 -0.2365  0.2954 -0.8356
  169SAPE  H11R19021   1.568   1.728   4.643 -0.7375  0.3547 -1.0263
  169SAPE  C21219022   1.523   1.529   4.656  0.5879 -0.5098 -0.2639
  169SAPE  H12R19023   1.466   1.540   4.750 -1.2289  1.9392 -1.5438
  169SAPE  C21319024   1.538   1.382   4.624  0.1341  0.3425  0.5562
  169SAPE  H13R19025   1.579   1.342   4.720  2.4625  0.9183 -0.1255
  169SAPE  H13S19026   1.615   1.371   4.544  0.0187 -0.0109  0.4916
  169SAPE  C21419027   1.412   1.304   4.594  0.5419  0.2168 -0.0203
  169SAPE  H14R19028   1.333   1.304   4.670  2.1641 -0.5345  1.7599
  169SAPE  C21519029   1.373   1.261   4.469 -0.2763  0.5051 -0.4735
  169SAPE  H15R19030   1.280   1.202   4.462  0.4210 -0.5929 -0.7380
  169SAPE  C21619031   1.456   1.258   4.345  0.2413  0.4014  0.0223
  169SAPE  H16R19032   1.492   1.155   4.322 -1.3072  0.0348 -0.8495
  169SAPE  H16S19033   1.544   1.325   4.356 -1.4153  2.4598  1.2639
  169SAPE  C21719034   1.367   1.313   4.236  0.5434 -0.5507 -0.0760
  169SAPE  H17R19035   1.328   1.415   4.260 -1.1392 -0.4283 -2.8777
  169SAPE  H17S19036   1.272   1.255   4.230 -0.6868  1.2920  0.6014
  169SAPE  C21819037   1.419   1.306   4.094  0.1548  0.4171 -0.1765
  169SAPE  H18R19038   1.512   1.367   4.084 -0.7891  1.9697  0.1142
  169SAPE  H18S19039   1.340   1.359   4.037  2.5660  2.8421 -1.5436
  169SAPE  C21919040   1.445   1.156   4.048  0.3466  0.0539  0.0822
  169SAPE  H19R19041   1.358   1.095   4.082 -0.7715  1.6911  0.2765
  169SAPE  H19S19042   1.535   1.121   4.102  1.5307  2.1670 -0.4117
  169SAPE  C22019043   1.460   1.137   3.890 -0.6002 -0.5088 -0.3357
  169SAPE  H20R19044   1.460   1.029   3.864 -0.9041 -0.6067  0.0605
  169SAPE  H20S19045   1.554   1.180   3.851 -1.0953  1.6525  0.7000
  169SAPE  H20T19046   1.372   1.190   3.848 -2.2542  0.0826  3.3808
  169SAPE   C3319047   2.027   1.220   3.931  0.3205  0.1303  0.1654
  169SAPE   H3X19048   1.934   1.186   3.881 -0.0637 -0.9839  1.5842
  169SAPE   H3Y19049   2.038   1.330   3.938 -0.5942  0.1473  1.6762
  169SAPE   C3419050   2.013   1.169   4.073 -0.2598  0.3186 -0.0664
  169SAPE   H4X19051   2.095   1.220   4.128  0.2375 -0.6530  0.1011
  169SAPE   H4Y19052   2.033   1.061   4.089 -1.1760  0.2689  0.8903
  169SAPE   C3519053   1.878   1.212   4.135 -0.0885  0.3119 -0.3712
  169SAPE   H5X19054   1.796   1.145   4.100  0.3798  0.6351 -2.1875
  169SAPE   H5Y19055   1.854   1.315   4.102 -0.3336  0.6415  0.7893
  169SAPE   C3619056   1.881   1.207   4.289  0.3302 -0.6816 -0.6464
  169SAPE   H6X19057   1.803   1.276   4.328  1.3039  0.9356 -1.4719
  169SAPE   H6Y19058   1.976   1.239   4.336  0.0055 -0.6953  0.0430
  169SAPE   C3719059   1.856   1.069   4.351  0.1370  0.6212  0.5262
  169SAPE   H7X19060   1.928   0.995   4.310  1.1968  0.6692  2.1939
  169SAPE   H7Y19061   1.748   1.050   4.333  0.2824  1.6619 -1.8574
  169SAPE   C3819062   1.851   1.089   4.503  0.2124  0.3755  0.5055
  169SAPE   H8X19063   1.773   1.164   4.528 -1.3413  0.1520 -3.0702
  169SAPE   H8Y19064   1.948   1.138   4.525  0.3823 -0.2042  1.1109
  169SAPE   C3919065   1.835   0.955   4.575  0.3039 -0.5408  1.1923
  169SAPE   H9X19066   1.902   0.885   4.519 -0.5957  1.0191 -2.1146
  169SAPE   H9Y19067   1.733   0.914   4.558 -0.4466  1.6370  0.1648
  169SAPE  C31019068   1.873   0.972   4.723  0.0750  0.0274 -0.5079
  169SAPE  H10X19069   1.794   1.027   4.777 -1.7206 -2.5538 -0.3459
  169SAPE  H10Y19070   1.968   1.031   4.726  0.1084 -0.0477 -0.1104
  169SAPE  C31119071   1.903   0.833   4.783  0.4292 -0.1617 -0.0980
  169SAPE  H11X19072   1.993   0.786   4.738  0.4209  2.5771 -3.4929
  169SAPE  H11Y19073   1.820   0.767   4.753  0.2184  1.1989 -2.8160
  169SAPE  C31219074   1.905   0.837   4.935 -0.2258 -0.1406  0.1303
  169SAPE  H12X19075   1.804   0.873   4.960 -0.3207 -0.6739  0.5312
  169SAPE  H12Y19076   1.971   0.916   4.977 -0.3210  1.4650 -2.4792
  169SAPE  C31319077   1.941   0.702   4.991  1.2537  0.2474 -0.5285
  169SAPE  H13X19078   1.866   0.634   4.945  1.3477  1.2670 -2.2730
  169SAPE  H13Y19079   1.919   0.695   5.100 -0.9749  0.7678 -0.8965
  169SAPE  C31419080   2.085   0.655   4.967  0.2300  0.0905 -0.4675
  169SAPE  H14X19081   2.161   0.729   4.998  2.1460 -0.9505 -2.3945
  169SAPE  H14Y19082   2.118   0.628   4.864  1.5885  0.1432 -0.0647
  169SAPE  C31519083   2.124   0.527   5.056  0.1566 -0.2901  0.5527
  169SAPE  H15X19084   2.092   0.435   5.001 -1.3432  0.8991 -0.6693
  169SAPE  H15Y19085   2.080   0.529   5.158  1.0410  0.7903  0.9223
  169SAPE  C31619086   2.280   0.523   5.069  0.6214 -0.1958  0.2126
  169SAPE  H16X19087   2.316   0.627   5.081 -2.6939  1.3918 -2.0583
  169SAPE  H16Y19088   2.318   0.496   4.968 -0.3029  0.9751 -0.4733
  169SAPE  C31719089   2.332   0.438   5.180 -0.0300 -0.3638  0.1954
  169SAPE  H17X19090   2.295   0.475   5.278 -0.1812  0.1568 -0.0545
  169SAPE  H17Y19091   2.442   0.454   5.177 -0.0862  0.2253  1.0407
  169SAPE  C31819092   2.317   0.290   5.161  0.5752 -0.1240 -0.0502
  169SAPE  H18X19093   2.211   0.259   5.170 -0.3931  2.9581  0.1488
  169SAPE  H18Y19094   2.368   0.241   5.247  2.7841  1.3882 -0.4114
  169SAPE  H18Z19095   2.363   0.261   5.064  0.2479  0.4255 -0.3759
  170SAPE     N19096   3.324   3.032   2.892  0.5333 -0.6450 -0.5246
  170SAPE   HN119097   3.333   3.081   2.801  2.7497 -2.8037 -1.5713
  170SAPE   HN219098   3.272   2.942   2.883 -0.0919 -0.0931 -3.9309
  170SAPE   HN319099   3.287   3.099   2.963 -0.7600 -0.5131 -1.2886
  170SAPE   C1219100   3.470   3.010   2.934 -0.4470  0.5366 -0.1867
  170SAPE  H12A19101   3.527   2.988   2.840 -2.3184  1.0185 -1.4953
  170SAPE  H12B19102   3.468   2.920   2.999  0.4217  0.3637 -0.3849
  170SAPE   C1119103   3.518   3.136   3.011  0.2100 -0.0946  0.8143
  170SAPE  H11A19104   3.629   3.132   3.010  0.1863 -0.8481 -0.2430
  170SAPE  H11B19105   3.485   3.132   3.117  0.8188 -0.1923  1.0054
  170SAPE     P19106   3.550   3.365   2.876 -0.1449  0.0597 -0.0464
  170SAPE   O1319107   3.645   3.299   2.780 -0.2252 -0.2528  0.1916
  170SAPE   O1419108   3.462   3.470   2.815  0.2722  0.4738 -0.1957
  170SAPE   O1219109   3.463   3.253   2.946  0.3201 -0.0101 -0.1171
  170SAPE   O1119110   3.630   3.420   3.001  0.3246  0.0776 -0.0071
  170SAPE    C119111   3.573   3.444   3.131  0.3515  0.3069  0.1616
  170SAPE    HA19112   3.467   3.413   3.145  0.3275  0.4280  0.2518
  170SAPE    HB19113   3.638   3.390   3.203  1.6258  0.0717 -1.1230
  170SAPE    C219114   3.583   3.599   3.162  0.5632  0.8793  0.3329
  170SAPE    HS19115   3.525   3.646   3.080 -0.4156  0.2733  0.6587
  170SAPE   O2119116   3.721   3.640   3.165  0.1635  0.2183  0.0420
  170SAPE   C2119117   3.741   3.763   3.171  0.7614  0.6159 -0.4004
  170SAPE   O2219118   3.662   3.849   3.137 -0.4611 -0.8562  0.6853
  170SAPE   C2219119   3.880   3.791   3.218  0.6927 -0.2672 -0.2724
  170SAPE   H2R19120   3.955   3.721   3.175  1.0282 -0.0940  0.0207
  170SAPE   H2S19121   3.908   3.886   3.168 -1.6461  0.2931 -0.6412
  170SAPE    C319122   3.504   3.630   3.295 -1.2455 -0.0117  0.5191
  170SAPE    HX19123   3.397   3.600   3.300 -0.7786 -1.5263  4.0996
  170SAPE    HY19124   3.503   3.740   3.312 -2.5880 -0.2591  2.2507
  170SAPE   O3119125   3.574   3.576   3.416  0.1891  0.3793  0.0591
  170SAPE   C3119126   3.514   3.478   3.476  0.2923  0.7149  1.0352
  170SAPE   O3219127   3.404   3.428   3.446  0.2204 -0.2438  0.1495
  170SAPE   C3219128   3.598   3.418   3.590  0.5525 -0.5832  0.3585
  170SAPE   H2X19129   3.575   3.489   3.672  1.5184 -1.0515  1.0555
  170SAPE   H2Y19130   3.707   3.438   3.575  0.7177 -1.6844  0.0198
  170SAPE   C2319131   3.897   3.786   3.371 -0.0328 -0.4014  0.2232
  170SAPE   H3R19132   3.853   3.694   3.414  0.5103 -1.0464 -0.5479
  170SAPE   H3S19133   3.846   3.875   3.414 -1.7115 -2.0387  1.8123
  170SAPE   C2419134   4.043   3.796   3.424  0.6893 -0.1768  0.0469
  170SAPE   H4R19135   4.081   3.693   3.406  1.7999  0.5594 -2.2311
  170SAPE   H4S19136   4.030   3.806   3.533 -0.8766 -1.2093 -0.0042
  170SAPE   C2519137   4.140   3.894   3.362  1.1130 -0.0005  0.1889
  170SAPE   H5R19138   4.219   3.847   3.302  0.9616 -0.9956  0.7493
  170SAPE   C2619139   4.155   4.025   3.380  0.1747 -0.8947 -0.0227
  170SAPE   H6R19140   4.235   4.076   3.326  0.8466 -1.0815  0.7755
  170SAPE   C2719141   4.081   4.114   3.469 -0.9073  0.2470 -1.2996
  170SAPE   H7R19142   4.146   4.162   3.545 -1.9707 -0.1992 -0.0849
  170SAPE   H7S19143   3.996   4.059   3.515 -0.3501  0.3816 -0.0725
  170SAPE   C2819144   4.020   4.233   3.398 -0.9443 -0.5848  0.2614
  170SAPE   H8R19145   3.916   4.215   3.370 -0.3569 -0.3093 -2.3446
  170SAPE   C2919146   4.064   4.359   3.363  0.2817  0.6484  0.5193
  170SAPE   H9R19147   3.995   4.429   3.313 -0.0573  2.1479  2.9027
  170SAPE  C21019148   4.204   4.410   3.372 -0.5062 -0.4271 -0.7185
  170SAPE  H10R19149   4.224   4.436   3.266  0.9069  0.0057 -0.3616
  170SAPE  H10S19150   4.281   4.332   3.394 -0.4381  0.4302  2.6493
  170SAPE  C21119151   4.244   4.535   3.451 -0.8125  0.1849  0.1841
  170SAPE  H11R19152   4.314   4.606   3.405 -1.4614  0.3174 -0.6218
  170SAPE  C21219153   4.201   4.568   3.570  0.2106  0.7456 -0.6348
  170SAPE  H12R19154   4.252   4.647   3.627  0.1770 -1.4440  2.6852
  170SAPE  C21319155   4.115   4.492   3.669 -0.0080 -0.1165  0.1848
  170SAPE  H13R19156   4.174   4.488   3.763 -2.3723 -1.3021  1.7327
  170SAPE  H13S19157   4.111   4.384   3.645  2.0034  0.1563 -1.6736
  170SAPE  C21419158   3.970   4.538   3.692  0.5229 -0.8265 -0.8988
  170SAPE  H14R19159   3.928   4.609   3.619 -1.0829  0.3491  1.0697
  170SAPE  C21519160   3.890   4.512   3.796  0.8054 -0.2187 -0.4949
  170SAPE  H15R19161   3.785   4.542   3.802  1.3387  1.6352  0.6950
  170SAPE  C21619162   3.925   4.423   3.915  0.0465 -0.6480  0.0359
  170SAPE  H16R19163   3.957   4.487   4.000 -0.0187 -0.1857 -0.2849
  170SAPE  H16S19164   4.022   4.369   3.905  0.5421  0.3467 -0.6529
  170SAPE  C21719165   3.819   4.327   3.964 -0.3242 -0.3021  0.3682
  170SAPE  H17R19166   3.724   4.384   3.962 -1.0799 -1.4994  0.7874
  170SAPE  H17S19167   3.839   4.299   4.070 -1.4924 -1.8359  0.2099
  170SAPE  C21819168   3.811   4.206   3.871 -0.6566  0.1125  0.0125
  170SAPE  H18R19169   3.747   4.223   3.782  0.1568  1.0752 -0.4093
  170SAPE  H18S19170   3.752   4.123   3.916 -1.5244 -0.3633 -1.8697
  170SAPE  C21919171   3.940   4.137   3.846 -0.6342  0.5641  0.8664
  170SAPE  H19R19172   4.008   4.136   3.933 -1.9691  0.7654  1.9423
  170SAPE  H19S19173   3.998   4.195   3.770  1.3631 -2.9323 -0.4888
  170SAPE  C22019174   3.924   3.997   3.783  0.6418 -0.5557  0.1433
  170SAPE  H20R19175   3.909   3.923   3.865  0.9738 -0.0749  0.6406
  170SAPE  H20S19176   4.004   3.974   3.709  1.2309 -1.0982  0.9386
  170SAPE  H20T19177   3.827   4.002   3.729  0.5962  0.8787  0.3162
  170SAPE   C3319178   3.578   3.270   3.636  0.2360 -0.7235 -0.2591
  170SAPE   H3X19179   3.618   3.202   3.558  0.6605  0.5766 -1.2091
  170SAPE   H3Y19180   3.470   3.251   3.651  0.0443  1.1965  1.2068
  170SAPE   C3419181   3.658   3.251   3.765 -0.5230  0.4937  0.5295
  170SAPE   H4X19182   3.619   3.328   3.835 -0.5089  0.4781  0.5540
  170SAPE   H4Y19183   3.762   3.264   3.728 -0.2629 -1.0522  0.6495
  170SAPE   C3519184   3.649   3.105   3.822  0.4971 -0.3358 -0.9967
  170SAPE   H5X19185   3.659   3.038   3.734 -2.9114 -1.0724 -0.9418
  170SAPE   H5Y19186   3.552   3.097   3.875  0.2507  1.9817 -1.0091
  170SAPE   C3619187   3.756   3.069   3.927 -0.2654  0.0295 -0.3066
  170SAPE   H6X19188   3.714   2.996   3.999  1.2747 -0.8291 -0.2448
  170SAPE   H6Y19189   3.771   3.162   3.986 -0.4642  0.5483 -1.0642
  170SAPE   C3719190   3.881   3.017   3.861  0.0027  0.6659  0.3059
  170SAPE   H7X19191   3.926   3.098   3.799  0.0952  0.7791  0.5185
  170SAPE   H7Y19192   3.860   2.938   3.786 -3.1399  0.2912  1.4163
  170SAPE   C3819193   3.987   2.952   3.952 -0.1000  0.2201 -0.1641
  170SAPE   H8X19194   3.945   2.876   4.022  2.9352 -0.6345  0.8928
  170SAPE   H8Y19195   4.027   3.035   4.014 -1.2364  1.4568 -1.0507
  170SAPE   C3919196   4.104   2.882   3.883 -0.4229  0.5826 -0.6420
  170SAPE   H9X19197   4.161   2.949   3.814  3.2138 -2.3018 -0.7552
  170SAPE   H9Y19198   4.051   2.813   3.814 -3.0803  0.0800  1.7263
  170SAPE  C31019199   4.196   2.811   3.979 -0.1594  0.7819 -0.4777
  170SAPE  H10X19200   4.285   2.762   3.933  2.2443  2.7454  1.8015
  170SAPE  H10Y19201   4.123   2.756   4.043 -1.8801 -0.4018 -3.2879
  170SAPE  C31119202   4.266   2.908   4.078  0.1964 -0.3404  0.0383
  170SAPE  H11X19203   4.189   2.944   4.150  0.8269  0.0360  0.5315
  170SAPE  H11Y19204   4.318   2.991   4.025 -2.0595  0.7220 -0.6211
  170SAPE  C31219205   4.364   2.846   4.178 -0.1882 -0.3192 -0.2473
  170SAPE  H12X19206   4.400   2.936   4.234  0.3192 -1.0823  0.6924
  170SAPE  H12Y19207   4.455   2.816   4.123 -0.6916 -3.7553  0.5757
  170SAPE  C31319208   4.308   2.730   4.267  0.2512 -0.9105  0.5547
  170SAPE  H13X19209   4.385   2.679   4.330  0.6319 -1.1197 -0.0758
  170SAPE  H13Y19210   4.274   2.652   4.196 -0.5095 -1.2017  1.2268
  170SAPE  C31419211   4.196   2.774   4.355 -0.1422 -0.1599  0.0877
  170SAPE  H14X19212   4.115   2.801   4.284 -0.2056 -0.8335 -0.1083
  170SAPE  H14Y19213   4.218   2.867   4.411 -0.6636 -0.3518  0.6303
  170SAPE  C31519214   4.150   2.668   4.457 -0.1186  0.6546 -0.4125
  170SAPE  H15X19215   4.144   2.577   4.393  1.5993 -0.4320  0.8559
  170SAPE  H15Y19216   4.053   2.700   4.500  0.5015  1.3158  0.5240
  170SAPE  C31619217   4.257   2.636   4.569 -0.2829 -0.0014  0.3225
  170SAPE  H16X19218   4.306   2.724   4.615  0.9117  0.3738 -1.5394
  170SAPE  H16Y19219   4.337   2.579   4.518  0.6807  0.4114  1.3225
  170SAPE  C31719220   4.200   2.535   4.672  0.5324 -0.5604  0.2674
  170SAPE  H17X19221   4.168   2.440   4.626 -1.3041  0.8690 -1.6116
  170SAPE  H17Y19222   4.103   2.573   4.710 -0.3238 -2.2857 -0.1213
  170SAPE  C31819223   4.304   2.498   4.779  0.1889  0.2787  0.1779
  170SAPE  H18X19224   4.361   2.585   4.817 -1.3223  1.9264 -1.1654
  170SAPE  H18Y19225   4.377   2.430   4.731  0.5677  0.7593  0.0638
  170SAPE  H18Z19226   4.257   2.449   4.867  0.4400  0.4888  0.4321
  171SAPE     N19227   4.024   2.751   3.079  0.0572  0.0277  0.4000
  171SAPE   HN119228   4.119   2.792   3.081 -1.2771  3.3935  1.3022
  171SAPE   HN219229   4.015   2.675   3.008 -3.1184 -1.8159  2.4983
  171SAPE   HN319230   3.964   2.828   3.042  2.8686  1.2250 -2.0702
  171SAPE   C1219231   3.992   2.706   3.213 -1.0190 -0.3079  0.8997
  171SAPE  H12A19232   3.888   2.665   3.211 -0.2519 -2.4759 -2.7958
  171SAPE  H12B19233   3.996   2.797   3.277 -1.7778  1.3432 -1.2856
  171SAPE   C1119234   4.084   2.606   3.279  0.1555 -0.2166  0.3759
  171SAPE  H11A19235   4.045   2.577   3.379 -0.5666 -1.6191 -0.2907
  171SAPE  H11B19236   4.188   2.646   3.289 -0.2463  1.1880 -0.6665
  171SAPE     P19237   3.985   2.370   3.214 -0.1439  0.3513  0.3414
  171SAPE   O1319238   3.848   2.413   3.228 -0.0613  0.6334 -0.2640
  171SAPE   O1419239   4.012   2.264   3.108 -0.0308  0.4180  0.3096
  171SAPE   O1219240   4.079   2.497   3.194  0.2116  0.5286  0.0311
  171SAPE   O1119241   4.027   2.329   3.353  0.0408  0.1908  0.7737
  171SAPE    C119242   3.938   2.292   3.453  0.1859  0.3418  0.1362
  171SAPE    HA19243   3.835   2.276   3.413  0.8300  0.1755 -1.5490
  171SAPE    HB19244   3.972   2.196   3.499 -0.6804 -0.0279  0.0270
  171SAPE    C219245   3.930   2.392   3.579  0.2996 -0.8508 -0.0904
  171SAPE    HS19246   3.922   2.497   3.544  1.9071 -0.7465 -0.1995
  171SAPE   O2119247   4.039   2.376   3.668 -0.1512  0.3053 -0.0678
  171SAPE   C2119248   4.068   2.483   3.746  0.1725  0.4306  0.0137
  171SAPE   O2219249   4.002   2.585   3.745  0.1048 -0.2762 -0.0941
  171SAPE   C2219250   4.188   2.441   3.829 -0.3765 -0.3437 -0.2370
  171SAPE   H2R19251   4.240   2.347   3.799 -0.2439 -1.1717  2.3562
  171SAPE   H2S19252   4.263   2.523   3.825 -1.7965  0.9783 -0.3610
  171SAPE    C319253   3.793   2.357   3.655  0.9031 -0.4569  0.2384
  171SAPE    HX19254   3.777   2.247   3.654 -1.5363 -0.1894  0.8927
  171SAPE    HY19255   3.715   2.392   3.584  0.5952 -1.3629  0.1165
  171SAPE   O3119256   3.770   2.408   3.787 -0.6317  0.6087 -0.3245
  171SAPE   C3119257   3.716   2.535   3.794 -1.2400 -0.2940 -1.4032
  171SAPE   O3219258   3.677   2.598   3.701  0.2844 -0.3738 -0.2873
  171SAPE   C3219259   3.730   2.584   3.937 -0.1991 -0.0351  0.2941
  171SAPE   H2X19260   3.823   2.645   3.943 -0.9929  1.0555  3.2086
  171SAPE   H2Y19261   3.745   2.505   4.013  2.3315 -1.2564 -1.3395
  171SAPE   C2319262   4.148   2.439   3.982 -0.0467  0.4095  0.3619
  171SAPE   H3R19263   4.071   2.516   4.002 -0.0695  0.8635 -1.2924
  171SAPE   H3S19264   4.229   2.452   4.057 -1.2630 -1.4279  2.1014
  171SAPE   C2419265   4.097   2.302   4.032 -0.2444  0.4030  0.3398
  171SAPE   H4R19266   4.180   2.233   4.007 -0.3491  0.2672  0.3601
  171SAPE   H4S19267   4.011   2.287   3.962  0.7176 -0.6717 -0.6773
  171SAPE   C2519268   4.054   2.295   4.179 -0.1319  0.5388 -0.0978
  171SAPE   H5R19269   3.958   2.337   4.211 -0.4247 -0.9379  1.0846
  171SAPE   C2619270   4.134   2.270   4.282 -0.1985 -0.4039 -0.1496
  171SAPE   H6R19271   4.082   2.261   4.378 -1.5647  0.0874 -0.8210
  171SAPE   C2719272   4.274   2.217   4.281  0.6175  0.5215  0.1566
  171SAPE   H7R19273   4.341   2.290   4.333 -0.0331 -0.4541  2.4954
  171SAPE   H7S19274   4.321   2.214   4.180 -1.5876  2.5373 -1.0160
  171SAPE   C2819275   4.287   2.078   4.344 -0.1842 -0.2566 -0.9453
  171SAPE   H8R19276   4.311   2.001   4.269 -0.4517 -1.6001  0.2934
  171SAPE   C2919277   4.273   2.041   4.474  0.0411  0.1790 -0.4350
  171SAPE   H9R19278   4.274   1.936   4.504 -3.8523 -0.0388 -0.4918
  171SAPE  C21019279   4.245   2.134   4.582 -0.1847 -0.0103 -0.2247
  171SAPE  H10R19280   4.154   2.111   4.641 -0.1181  2.1027  0.8012
  171SAPE  H10S19281   4.221   2.237   4.548 -0.3039 -0.2576 -0.9104
  171SAPE  C21119282   4.366   2.137   4.668 -0.4151  0.1291 -0.9238
  171SAPE  H11R19283   4.457   2.151   4.608 -1.0964 -0.6768 -2.2239
  171SAPE  C21219284   4.376   2.140   4.802 -0.0321 -0.9881  0.1492
  171SAPE  H12R19285   4.471   2.151   4.856  0.0736  1.9114 -0.4869
  171SAPE  C21319286   4.260   2.139   4.903 -0.2518 -0.2906  0.5921
  171SAPE  H13R19287   4.204   2.044   4.893  0.9012 -1.0624  1.2609
  171SAPE  H13S19288   4.190   2.220   4.873  1.7904  1.2299 -0.3266
  171SAPE  C21419289   4.290   2.142   5.051  0.2704  0.7314 -0.4682
  171SAPE  H14R19290   4.366   2.069   5.080  0.7563  1.8484  1.2544
  171SAPE  C21519291   4.232   2.220   5.145 -0.3167  0.4998  0.7309
  171SAPE  H15R19292   4.259   2.202   5.250  0.3122  1.3510  0.7204
  171SAPE  C21619293   4.137   2.340   5.126 -0.0258 -0.5773 -0.0215
  171SAPE  H16R19294   4.042   2.322   5.181  0.4543  0.2630  1.1306
  171SAPE  H16S19295   4.105   2.341   5.020  1.8606 -0.1550 -0.6225
  171SAPE  C21719296   4.213   2.474   5.161 -0.0862 -0.4588 -0.3108
  171SAPE  H17R19297   4.305   2.489   5.101  0.0887  1.5173  0.3524
  171SAPE  H17S19298   4.244   2.475   5.268  0.0324 -1.8002 -0.3183
  171SAPE  C21819299   4.119   2.592   5.143 -0.0336 -0.2652  0.0038
  171SAPE  H18R19300   4.034   2.577   5.213  0.8663  0.2199  1.2379
  171SAPE  H18S19301   4.082   2.590   5.038 -0.3826 -1.5947  0.1281
  171SAPE  C21919302   4.189   2.731   5.174  0.3001 -0.0210 -0.6396
  171SAPE  H19R19303   4.123   2.816   5.148 -0.7859 -0.5913  0.1952
  171SAPE  H19S19304   4.271   2.735   5.099 -1.2496  0.9061 -2.3877
  171SAPE  C22019305   4.242   2.757   5.318 -0.0170 -0.1087  0.1302
  171SAPE  H20R19306   4.243   2.867   5.335  0.9581  0.3888 -2.7174
  171SAPE  H20S19307   4.340   2.715   5.351 -0.2906 -0.7852  0.1097
  171SAPE  H20T19308   4.170   2.726   5.397  1.5263 -0.7552  1.3723
  171SAPE   C3319309   3.619   2.684   3.985 -0.2722  0.2004  0.6926
  171SAPE   H3X19310   3.606   2.775   3.923  0.0156 -1.7851 -2.5115
  171SAPE   H3Y19311   3.641   2.731   4.083  1.1264  0.5850  0.2196
  171SAPE   C3419312   3.485   2.612   4.006  0.5214 -0.5775  0.7776
  171SAPE   H4X19313   3.462   2.587   4.111 -0.4310  0.6048  0.8697
  171SAPE   H4Y19314   3.473   2.518   3.947  0.8271  0.8860 -1.7682
  171SAPE   C3519315   3.367   2.698   3.956 -0.3560 -0.6621  0.2139
  171SAPE   H5X19316   3.275   2.635   3.957 -0.4050 -0.7324 -1.9361
  171SAPE   H5Y19317   3.391   2.713   3.848  0.1945 -0.3219  0.3816
  171SAPE   C3619318   3.354   2.837   4.027 -0.1717  0.7086  0.1329
  171SAPE   H6X19319   3.266   2.896   3.992 -1.9061 -0.1163  2.7820
  171SAPE   H6Y19320   3.445   2.901   4.030 -0.9359  1.8702 -0.5811
  171SAPE   C3719321   3.304   2.824   4.173 -0.4943 -0.3775  0.7562
  171SAPE   H7X19322   3.351   2.742   4.230 -0.3460 -1.9978 -1.5665
  171SAPE   H7Y19323   3.201   2.784   4.164  1.0287 -4.7774  0.5323
  171SAPE   C3819324   3.331   2.952   4.249  0.1189  0.5584  0.7144
  171SAPE   H8X19325   3.259   3.031   4.217  1.1570  0.4783 -2.1896
  171SAPE   H8Y19326   3.432   2.998   4.242 -0.2814  1.4711  0.7250
  171SAPE   C3919327   3.306   2.924   4.400  0.6660  0.3139 -0.5508
  171SAPE   H9X19328   3.368   2.840   4.435 -1.3885 -0.4936  1.3989
  171SAPE   H9Y19329   3.196   2.911   4.400  0.6121  0.6210  0.7542
  171SAPE  C31019330   3.332   3.042   4.493  0.2633 -0.3081  0.2073
  171SAPE  H10X19331   3.299   3.139   4.449  0.2675  0.2581  1.4157
  171SAPE  H10Y19332   3.441   3.043   4.518  0.5540  1.0213 -0.9761
  171SAPE  C31119333   3.253   3.014   4.626  0.4076  0.3749 -0.1250
  171SAPE  H11X19334   3.265   2.913   4.671 -0.5651 -0.4253 -1.6131
  171SAPE  H11Y19335   3.146   3.042   4.615  0.2385  0.5578  1.6631
  171SAPE  C31219336   3.306   3.115   4.730  0.2055  0.1204 -0.4828
  171SAPE  H12X19337   3.222   3.131   4.800  0.0902 -2.1260 -0.0429
  171SAPE  H12Y19338   3.321   3.215   4.683  0.6331  0.0210 -0.5644
  171SAPE  C31319339   3.430   3.074   4.810 -0.3329 -0.2684 -0.1683
  171SAPE  H13X19340   3.518   3.117   4.758 -0.0593  1.3124  1.5023
  171SAPE  H13Y19341   3.443   2.965   4.796 -0.3290 -0.1814 -0.8774
  171SAPE  C31419342   3.432   3.105   4.959  0.1769 -0.1544  0.7128
  171SAPE  H14X19343   3.341   3.058   5.000 -0.2639 -2.1163 -2.1849
  171SAPE  H14Y19344   3.434   3.215   4.976 -1.4378 -0.1729  1.0918
  171SAPE  C31519345   3.547   3.037   5.024 -1.4128  0.7046  0.3639
  171SAPE  H15X19346   3.541   2.928   5.006 -1.8299  0.5150  1.5134
  171SAPE  H15Y19347   3.550   3.061   5.133 -1.2693  2.1694  0.0562
  171SAPE  C31619348   3.685   3.083   4.977 -0.4359 -0.2746 -0.1804
  171SAPE  H16X19349   3.701   3.192   4.991 -1.5153 -0.1216 -0.0368
  171SAPE  H16Y19350   3.692   3.074   4.867 -0.8186 -1.8294 -0.0913
  171SAPE  C31719351   3.813   3.012   5.029 -0.2869  0.4785 -0.0873
  171SAPE  H17X19352   3.836   3.040   5.134 -1.6030  1.1610  0.0373
  171SAPE  H17Y19353   3.899   3.060   4.977  0.7011 -4.1527 -3.3835
  171SAPE  C31819354   3.820   2.859   5.019  0.2972  0.2574 -0.2140
  171SAPE  H18X19355   3.899   2.812   5.082  0.3414 -0.2725 -0.6548
  171SAPE  H18Y19356   3.840   2.834   4.913 -0.2111  1.1929 -0.5391
  171SAPE  H18Z19357   3.729   2.814   5.064  0.1722  1.6420  0.9785
  172SAPE     N19358   2.747   0.949   3.220 -0.2880  0.0908 -0.5297
  172SAPE   HN119359   2.647   0.942   3.250 -0.4776  0.4813 -1.0589
  172SAPE   HN219360   2.743   0.911   3.124 -0.7284  0.0152 -0.4842
  172SAPE   HN319361   2.806   0.892   3.284 -1.6473  0.0871  0.7762
  172SAPE   C1219362   2.797   1.090   3.202 -0.7344  0.2728 -0.0544
  172SAPE  H12A19363   2.759   1.142   3.292  0.0055 -3.4219  2.6286
  172SAPE  H12B19364   2.758   1.136   3.109 -0.6035  1.3648  0.4242
  172SAPE   C1119365   2.954   1.087   3.199 -0.2768  0.4461 -0.1653
  172SAPE  H11A19366   2.991   1.192   3.201  3.5501 -0.7447  2.4195
  172SAPE  H11B19367   2.985   1.041   3.102  0.2703  0.3813  0.0363
  172SAPE     P19368   3.096   1.097   3.423 -0.0034 -0.3076 -0.2542
  172SAPE   O1319369   3.139   0.998   3.523  0.4314  0.0111  0.2063
  172SAPE   O1419370   3.195   1.177   3.350  0.2150  0.5046  0.3105
  172SAPE   O1219371   3.016   1.015   3.310  0.5077 -0.0654  0.1034
  172SAPE   O1119372   2.981   1.196   3.484 -0.4182 -1.2191 -0.3803
  172SAPE    C119373   2.881   1.138   3.561  0.2399 -0.1141 -0.4845
  172SAPE    HA19374   2.841   1.052   3.504 -0.1738  1.4030 -2.6147
  172SAPE    HB19375   2.911   1.092   3.658 -0.3137  1.2254  0.3620
  172SAPE    C219376   2.763   1.232   3.580  0.0114  0.4157 -0.4206
  172SAPE    HS19377   2.749   1.261   3.474  0.0445 -1.4587 -0.9822
  172SAPE   O2119378   2.781   1.343   3.670 -0.1601  0.3211  0.1791
  172SAPE   C2119379   2.775   1.462   3.612 -0.0407  0.0790  0.3887
  172SAPE   O2219380   2.743   1.483   3.495  0.4767 -0.1500  0.0484
  172SAPE   C2219381   2.827   1.572   3.709 -0.6393 -0.5610  0.3614
  172SAPE   H2R19382   2.930   1.589   3.672 -2.2342  3.1259 -3.1844
  172SAPE   H2S19383   2.782   1.668   3.677 -0.4801 -0.4725  0.4024
  172SAPE    C319384   2.638   1.160   3.632 -0.3505  0.6101  0.6273
  172SAPE    HX19385   2.636   1.066   3.573  0.2925  1.1178 -0.2415
  172SAPE    HY19386   2.554   1.226   3.602 -1.2282 -0.5400  0.4992
  172SAPE   O3119387   2.651   1.122   3.774  0.2684  0.1387 -0.1145
  172SAPE   C3119388   2.589   1.205   3.862 -0.3894  0.2747  0.4618
  172SAPE   O3219389   2.509   1.292   3.832  0.2911  0.4666  0.2035
  172SAPE   C3219390   2.633   1.174   4.006 -0.0075  0.8459 -0.1033
  172SAPE   H2X19391   2.716   1.244   4.032  1.6413 -0.9712 -0.2417
  172SAPE   H2Y19392   2.679   1.074   3.995  0.0213  0.8670 -0.1737
  172SAPE   C2319393   2.804   1.556   3.864 -0.0376  0.1225 -0.1109
  172SAPE   H3R19394   2.893   1.609   3.905  0.1298 -0.8250  0.7972
  172SAPE   H3S19395   2.800   1.453   3.905 -2.5049  0.1301 -0.2402
  172SAPE   C2419396   2.683   1.636   3.914  0.4005  0.5347 -0.6082
  172SAPE   H4R19397   2.606   1.616   3.836 -0.3890  0.7649  0.1004
  172SAPE   H4S19398   2.701   1.745   3.921  1.5533  0.3010  0.4528
  172SAPE   C2519399   2.628   1.579   4.046 -0.2177 -0.4045  0.0335
  172SAPE   H5R19400   2.556   1.497   4.031 -0.0617 -0.4289 -0.6034
  172SAPE   C2619401   2.683   1.598   4.167  0.1153 -0.4588 -0.3292
  172SAPE   H6R19402   2.649   1.545   4.258  0.1164  0.5148  0.2482
  172SAPE   C2719403   2.786   1.701   4.213  0.4690  0.3992 -0.9181
  172SAPE   H7R19404   2.740   1.769   4.288 -1.0543 -0.7021 -0.8169
  172SAPE   H7S19405   2.800   1.761   4.120 -3.7776  1.5631 -0.9976
  172SAPE   C2819406   2.924   1.650   4.238  0.1765  0.4762  0.0439
  172SAPE   H8R19407   2.975   1.609   4.149 -1.0371  2.4829 -1.6794
  172SAPE   C2919408   2.984   1.624   4.357 -0.1621 -0.4935 -0.0025
  172SAPE   H9R19409   3.087   1.587   4.369 -1.2286 -2.8049  3.5055
  172SAPE  C21019410   2.920   1.636   4.494  0.0533 -0.1032 -0.9749
  172SAPE  H10R19411   2.918   1.533   4.535 -2.9086  0.4355  0.5069
  172SAPE  H10S19412   2.813   1.666   4.489  0.0247 -0.1761 -0.8077
  172SAPE  C21119413   2.998   1.712   4.604  0.0499  0.4970  0.4822
  172SAPE  H11R19414   2.961   1.813   4.628  3.3664  1.6318  1.3681
  172SAPE  C21219415   3.107   1.666   4.678  1.2725  0.4592 -0.1948
  172SAPE  H12R19416   3.150   1.732   4.755  1.3521 -0.2342  0.3586
  172SAPE  C21319417   3.163   1.522   4.676 -0.1056 -0.1256 -0.4604
  172SAPE  H13R19418   3.239   1.514   4.595  1.6236 -1.9304  1.2088
  172SAPE  H13S19419   3.088   1.443   4.657  0.8971 -0.8236 -1.6651
  172SAPE  C21419420   3.237   1.481   4.803  0.1375 -0.7303  0.1447
  172SAPE  H14R19421   3.346   1.488   4.793  0.1212  1.0940  0.7311
  172SAPE  C21519422   3.182   1.460   4.924  0.0878 -0.1270  0.3595
  172SAPE  H15R19423   3.247   1.440   5.010 -0.1183 -0.0372  0.5390
  172SAPE  C21619424   3.037   1.461   4.966 -0.5028  0.5246  0.4545
  172SAPE  H16R19425   3.002   1.360   4.999 -0.5746 -0.1248 -1.4725
  172SAPE  H16S19426   2.972   1.496   4.884  1.2403  0.6337 -0.9445
  172SAPE  C21719427   3.010   1.550   5.086  0.3810  0.0382  0.1363
  172SAPE  H17R19428   3.080   1.533   5.170 -0.4578  1.2084  1.1090
  172SAPE  H17S19429   2.919   1.515   5.139  1.5495 -0.8898  1.5709
  172SAPE  C21819430   3.007   1.703   5.060 -0.0271  0.1149  0.2914
  172SAPE  H18R19431   2.932   1.738   4.987  1.2965 -0.7146 -1.5473
  172SAPE  H18S19432   3.099   1.732   5.005 -0.2946  1.2192  0.4008
  172SAPE  C21919433   3.003   1.791   5.184  0.8723  0.4150  1.1351
  172SAPE  H19R19434   3.099   1.793   5.242  2.0535 -0.1185 -0.7290
  172SAPE  H19S19435   2.928   1.745   5.252  0.1199 -0.3470 -0.1825
  172SAPE  C22019436   2.961   1.933   5.143  0.6426  0.2084 -0.3078
  172SAPE  H20R19437   2.864   1.931   5.089  1.5135 -1.6294 -1.9248
  172SAPE  H20S19438   3.037   1.961   5.068  1.8726  1.7662  1.4332
  172SAPE  H20T19439   2.949   2.008   5.224  0.5242 -2.6213  2.4980
  172SAPE   C3319440   2.515   1.201   4.104  0.3977 -0.2352 -0.4431
  172SAPE   H3X19441   2.421   1.157   4.065  0.0103 -0.2778  0.5137
  172SAPE   H3Y19442   2.512   1.312   4.106  0.7804 -0.1459  3.2565
  172SAPE   C3419443   2.544   1.152   4.253 -0.4482  0.0962  0.3156
  172SAPE   H4X19444   2.623   1.203   4.311  0.8221 -2.9275  1.4358
  172SAPE   H4Y19445   2.568   1.044   4.245 -0.8182 -0.0122  0.6154
  172SAPE   C3519446   2.426   1.179   4.350 -0.2416 -0.6582  1.0753
  172SAPE   H5X19447   2.402   1.287   4.341 -0.7770 -0.7645  1.2406
  172SAPE   H5Y19448   2.458   1.157   4.454 -0.6406  0.3323  1.4126
  172SAPE   C3619449   2.292   1.109   4.311  0.5061 -0.8149 -0.4251
  172SAPE   H6X19450   2.262   1.132   4.207  0.7799 -0.0242 -0.3428
  172SAPE   H6Y19451   2.209   1.156   4.369 -0.2860 -1.3284 -1.1163
  172SAPE   C3719452   2.274   0.960   4.341 -0.1967  0.2139  0.0112
  172SAPE   H7X19453   2.331   0.906   4.262  1.3728 -0.2234  1.3961
  172SAPE   H7Y19454   2.167   0.932   4.333 -0.4319  0.8264  0.9046
  172SAPE   C3819455   2.319   0.905   4.475 -0.1945 -0.1000 -0.6405
  172SAPE   H8X19456   2.427   0.925   4.488  0.0855 -2.2291  0.8337
  172SAPE   H8Y19457   2.316   0.794   4.483  1.8475 -0.2481 -1.4256
  172SAPE   C3919458   2.237   0.975   4.582  0.0103 -0.3901  0.2638
  172SAPE   H9X19459   2.132   0.956   4.551 -0.1339  0.7979 -0.0259
  172SAPE   H9Y19460   2.248   1.086   4.581  1.4353 -0.4791  1.8751
  172SAPE  C31019461   2.248   0.928   4.725  0.2472  0.2790 -0.5705
  172SAPE  H10X19462   2.229   0.819   4.740  1.8430  0.1679  0.9002
  172SAPE  H10Y19463   2.184   0.992   4.790  0.9076  1.0769 -0.7028
  172SAPE  C31119464   2.382   0.958   4.786 -0.5027 -0.2798 -0.5944
  172SAPE  H11X19465   2.394   1.068   4.783  1.3597 -0.4456 -0.4665
  172SAPE  H11Y19466   2.448   0.902   4.716 -1.1716  1.0594 -2.3624
  172SAPE  C31219467   2.391   0.894   4.928 -0.5509 -0.2286 -0.1223
  172SAPE  H12X19468   2.374   0.785   4.916 -0.2943 -0.3963  0.9464
  172SAPE  H12Y19469   2.302   0.924   4.988 -0.0275 -1.0418  1.0956
  172SAPE  C31319470   2.514   0.925   5.009  0.1804  0.4784  0.3287
  172SAPE  H13X19471   2.610   0.884   4.970  1.1329  1.7917  1.2332
  172SAPE  H13Y19472   2.497   0.872   5.105 -1.2106  1.3172  0.5787
  172SAPE  C31419473   2.538   1.069   5.031 -0.6498 -0.1471  0.1564
  172SAPE  H14X19474   2.445   1.109   5.077 -1.0258 -0.0496 -0.6633
  172SAPE  H14Y19475   2.548   1.119   4.932  1.1903 -0.2556  0.2509
  172SAPE  C31519476   2.666   1.100   5.109 -0.1154  0.0373 -0.1480
  172SAPE  H15X19477   2.678   1.210   5.106 -0.3920  0.3140  3.6279
  172SAPE  H15Y19478   2.750   1.044   5.063 -1.0163 -1.4409 -0.0768
  172SAPE  C31619479   2.650   1.066   5.257 -0.0227 -0.9425 -0.4702
  172SAPE  H16X19480   2.658   0.956   5.270  2.2684 -0.6205  1.6587
  172SAPE  H16Y19481   2.551   1.102   5.294  0.6292  2.2525 -1.5111
  172SAPE  C31719482   2.770   1.121   5.340  0.2606  0.7187 -0.1154
  172SAPE  H17X19483   2.761   1.101   5.449 -1.2617 -2.6863 -0.7420
  172SAPE  H17Y19484   2.779   1.230   5.320  0.6967  0.2580 -2.9037
  172SAPE  C31819485   2.901   1.068   5.279 -0.2383  0.6131  0.7600
  172SAPE  H18X19486   2.898   0.962   5.244 -2.1448  1.7618 -3.0245
  172SAPE  H18Y19487   2.985   1.082   5.351  0.5171  0.7467 -0.1368
  172SAPE  H18Z19488   2.924   1.131   5.192 -0.4628  0.9168  0.9181
  173SLPC     N19489   4.849   4.638   7.483  0.4775  0.4174  0.2554
  173SLPC   C1319490   4.822   4.634   7.627  0.0945  0.4348  0.0046
  173SLPC  H13A19491   4.906   4.604   7.689 -0.4253 -1.3897 -0.0961
  173SLPC  H13B19492   4.783   4.724   7.672 -1.8901 -0.6052  0.5062
  173SLPC  H13C19493   4.749   4.557   7.649 -0.8869  1.6640  1.2762
  173SLPC   C1419494   4.965   4.741   7.470 -0.0090 -0.0437  0.2316
  173SLPC  H14A19495   4.947   4.828   7.532 -0.6232 -2.0714  3.1013
  173SLPC  H14B19496   5.057   4.697   7.506  0.2008  1.0577  1.1014
  173SLPC  H14C19497   4.986   4.769   7.368  0.3957  1.2527  0.6567
  173SLPC   C1519498   4.730   4.689   7.408  0.3531 -0.1649  0.5081
  173SLPC  H15A19499   4.640   4.643   7.446  0.2298  0.8324  1.4604
  173SLPC  H15B19500   4.709   4.794   7.422  2.8962  0.3400  0.9958
  173SLPC  H15C19501   4.729   4.664   7.303  2.3764  3.8959 -0.6868
  173SLPC   C1219502   4.886   4.495   7.428  0.4071  0.6059  0.3156
  173SLPC  H12A19503   4.800   4.432   7.447  0.4852 -0.0545 -1.3340
  173SLPC  H12B19504   4.963   4.454   7.492  1.5774  2.1916 -0.0334
  173SLPC   C1119505   4.926   4.472   7.274 -0.4583 -0.1046  0.1475
  173SLPC  H11A19506   4.953   4.364   7.264  0.5112  0.1816 -0.4800
  173SLPC  H11B19507   5.022   4.528   7.262 -1.5395  1.5181 -1.4610
  173SLPC     P19508   4.696   4.436   7.153 -0.1791  0.2220  0.7834
  173SLPC   O1319509   4.684   4.331   7.256 -0.0894 -0.2832  0.0485
  173SLPC   O1419510   4.588   4.535   7.121 -0.2229  0.0234 -0.5943
  173SLPC   O1219511   4.828   4.519   7.183  0.2324 -0.5797  0.4563
  173SLPC   O1119512   4.726   4.357   7.026  0.3820  0.6274  0.4372
  173SLPC    C119513   4.791   4.404   6.907 -0.0853  0.0446 -0.3401
  173SLPC    HA19514   4.803   4.514   6.907 -1.4503  0.2246 -1.2100
  173SLPC    HB19515   4.891   4.357   6.898 -0.7148 -0.9445 -2.9198
  173SLPC    C219516   4.712   4.378   6.777 -0.2262 -0.3332  0.2822
  173SLPC    HS19517   4.778   4.387   6.688 -0.5857 -0.2047  0.0297
  173SLPC   O2119518   4.599   4.461   6.760  0.2561  0.0051 -0.2140
  173SLPC   C2119519   4.600   4.555   6.667  0.3847  0.0424 -0.2812
  173SLPC   O2219520   4.685   4.567   6.582  0.5687  0.9346  1.0250
  173SLPC   C2219521   4.490   4.657   6.669 -0.0032  0.5924  0.0475
  173SLPC   H2R19522   4.400   4.608   6.625 -0.7630  0.5591  1.5617
  173SLPC   H2S19523   4.460   4.669   6.775 -0.2243  0.1514  0.0384
  173SLPC    C319524   4.676   4.225   6.774  0.7417  0.6940  0.3911
  173SLPC    HX19525   4.623   4.205   6.870  0.2714 -1.1009 -0.2050
  173SLPC    HY19526   4.765   4.160   6.787  1.4874  1.4805 -0.6014
  173SLPC   O3119527   4.603   4.188   6.654  0.5347 -0.3652 -0.3134
  173SLPC   C3119528   4.470   4.198   6.665  0.1686  0.5663 -0.9509
  173SLPC   O3219529   4.410   4.246   6.761 -0.0587  0.5977  0.1806
  173SLPC   C3219530   4.405   4.136   6.541  0.1757  0.2010 -0.3522
  173SLPC   H2X19531   4.349   4.043   6.564 -1.2008  1.2445  0.7061
  173SLPC   H2Y19532   4.485   4.111   6.468  0.5986  1.1307 -0.2220
  173SLPC   C2319533   4.520   4.794   6.621  0.4875 -0.2834  0.0574
  173SLPC   H3R19534   4.553   4.787   6.515  1.7304 -0.3113  0.4192
  173SLPC   H3S19535   4.606   4.829   6.683 -0.2834  0.1905  0.8839
  173SLPC   C2419536   4.407   4.894   6.643 -0.2701 -0.9830 -0.0230
  173SLPC   H4R19537   4.345   4.873   6.733 -0.3798 -0.1190  0.1158
  173SLPC   H4S19538   4.332   4.888   6.562 -0.4779  2.1368 -0.1866
  173SLPC   C2519539   4.473   5.036   6.629  0.2479  0.3323 -0.0640
  173SLPC   H5R19540   4.550   5.053   6.707 -0.8570  3.1017  0.5181
  173SLPC   H5S19541   4.382   5.094   6.654  0.1548 -1.3504  4.4087
  173SLPC   C2619542   4.531   5.072   6.495 -0.5235 -0.1420  0.1786
  173SLPC   H6R19543   4.600   4.996   6.453 -1.8876 -1.5643  0.4351
  173SLPC   H6S19544   4.580   5.171   6.509  1.3834 -1.0633  0.4305
  173SLPC   C2719545   4.417   5.093   6.398  0.0441  0.0441  0.6153
  173SLPC   H7R19546   4.352   5.166   6.451  2.4828  1.0178  2.4597
  173SLPC   H7S19547   4.363   4.997   6.384 -1.7567  1.2471 -1.3743
  173SLPC   C2819548   4.469   5.164   6.268 -0.4728  0.2522 -0.1341
  173SLPC   H8R19549   4.555   5.223   6.306  0.3933  0.0140 -1.6597
  173SLPC   H8S19550   4.384   5.215   6.218 -0.1944  0.4144 -0.4345
  173SLPC   C2919551   4.530   5.044   6.193  0.3508 -0.6831 -0.5417
  173SLPC   H9R19552   4.548   4.953   6.252  1.0736 -1.2657 -1.6258
  173SLPC  C21019553   4.537   5.028   6.059 -0.6005 -0.1966  0.2587
  173SLPC  H10R19554   4.585   4.940   6.015  1.4703  0.0370  1.8904
  173SLPC  C21119555   4.495   5.114   5.949  0.2039  0.8756 -0.2659
  173SLPC  H11R19556   4.544   5.082   5.855  0.7681  3.0263 -0.7511
  173SLPC  H11S19557   4.537   5.213   5.976 -1.2628  0.3896  5.0086
  173SLPC  C21219558   4.345   5.126   5.931 -0.1129 -0.2343 -0.6872
  173SLPC  H12R19559   4.292   5.124   6.028  0.7481 -2.1662 -0.2020
  173SLPC  C21319560   4.282   5.126   5.812 -0.1273 -0.1373 -0.4826
  173SLPC  H13R19561   4.172   5.132   5.811 -0.2226 -1.5932 -0.9504
  173SLPC  C21419562   4.343   5.130   5.676 -0.6193 -0.5364  0.2431
  173SLPC  H14R19563   4.356   5.029   5.631 -1.8110 -0.1271 -1.0873
  173SLPC  H14S19564   4.443   5.180   5.677  0.0180 -1.7232 -0.7933
  173SLPC  C21519565   4.257   5.207   5.565 -0.7599  0.7593 -0.1008
  173SLPC  H15R19566   4.245   5.313   5.597 -1.9069  0.5040  0.3506
  173SLPC  H15S19567   4.157   5.159   5.560 -0.0907 -0.7892  0.4923
  173SLPC  C21619568   4.328   5.211   5.427 -0.3665 -0.1063 -0.2055
  173SLPC  H16R19569   4.363   5.109   5.400 -0.0264 -0.1841  0.4969
  173SLPC  H16S19570   4.414   5.279   5.444 -1.0643  0.5876  0.6252
  173SLPC  C21719571   4.243   5.279   5.320  0.0188  0.2091  0.5221
  173SLPC  H17R19572   4.309   5.314   5.238 -0.8749 -1.4410 -0.9748
  173SLPC  H17S19573   4.197   5.372   5.359  0.0838 -0.4346  2.2480
  173SLPC  C21819574   4.128   5.192   5.261 -0.1206 -0.3752 -0.9184
  173SLPC  H18R19575   4.167   5.096   5.221 -1.7759 -1.0352 -1.0232
  173SLPC  H18S19576   4.081   5.245   5.176 -0.7028 -1.9455 -1.6020
  173SLPC  H18T19577   4.051   5.166   5.337  1.1145  1.2008  1.0117
  173SLPC   C3319578   4.308   4.238   6.468 -0.4238 -0.0066  0.3835
  173SLPC   H3X19579   4.222   4.255   6.536  0.1260 -1.1222  1.3821
  173SLPC   H3Y19580   4.270   4.166   6.392 -1.2506 -0.9136  1.6211
  173SLPC   C3419581   4.380   4.354   6.390  0.3735  0.5760 -0.2837
  173SLPC   H4X19582   4.446   4.416   6.455  1.0643 -0.2400 -0.1806
  173SLPC   H4Y19583   4.298   4.414   6.345 -0.3631 -0.6758 -0.6709
  173SLPC   C3519584   4.468   4.311   6.266 -0.1567 -0.2826  0.2134
  173SLPC   H5X19585   4.509   4.209   6.284  2.5612  0.8628  1.1247
  173SLPC   H5Y19586   4.554   4.381   6.277 -0.4637 -0.1456  2.1128
  173SLPC   C3619587   4.397   4.327   6.130  0.4302  0.5542  0.4197
  173SLPC   H6X19588   4.382   4.435   6.109  2.9627  1.0176  0.6132
  173SLPC   H6Y19589   4.292   4.291   6.132  0.4179  0.3339 -1.6769
  173SLPC   C3719590   4.482   4.269   6.014  0.1582  0.0384  0.6025
  173SLPC   H7X19591   4.503   4.160   6.015 -0.2304 -0.0376  1.7904
  173SLPC   H7Y19592   4.580   4.320   6.027  1.0948 -1.3267 -0.8816
  173SLPC   C3819593   4.426   4.325   5.879 -0.1977  0.0896 -0.2137
  173SLPC   H8X19594   4.416   4.434   5.896  3.0694  0.3069  1.0799
  173SLPC   H8Y19595   4.328   4.278   5.858 -0.6674 -0.5701  2.8998
  173SLPC   C3919596   4.514   4.301   5.747  0.1113  0.1456 -0.4342
  173SLPC   H9X19597   4.617   4.298   5.789  0.8022  0.4946 -2.0379
  173SLPC   H9Y19598   4.498   4.386   5.678 -0.8327  0.1422 -0.2258
  173SLPC  C31019599   4.486   4.178   5.667 -0.3077 -0.3208  0.1856
  173SLPC  H10X19600   4.377   4.161   5.661 -0.2308 -0.6307 -0.3654
  173SLPC  H10Y19601   4.529   4.093   5.725  1.1861 -0.0336 -0.4421
  173SLPC  C31119602   4.525   4.177   5.521 -0.4020 -0.0487  0.2293
  173SLPC  H11X19603   4.623   4.217   5.487 -0.2606 -1.8901 -1.7322
  173SLPC  H11Y19604   4.452   4.249   5.475 -0.3411  1.0269  1.7523
  173SLPC  C31219605   4.495   4.035   5.464 -0.2590 -0.0513 -0.5965
  173SLPC  H12X19606   4.416   3.989   5.527  0.7195  0.0089  0.7002
  173SLPC  H12Y19607   4.583   3.969   5.485 -1.1439 -1.4286 -1.0733
  173SLPC  C31319608   4.455   4.052   5.313 -0.6848  0.5602 -0.1666
  173SLPC  H13X19609   4.367   4.112   5.281  1.1146  1.7342 -3.4044
  173SLPC  H13Y19610   4.440   3.945   5.285  2.4196  0.2959 -1.1443
  173SLPC  C31419611   4.575   4.104   5.234 -0.8972 -0.0254 -0.5041
  173SLPC  H14X19612   4.651   4.026   5.256 -2.8288 -1.7599  0.3604
  173SLPC  H14Y19613   4.615   4.200   5.272 -1.9553 -0.6985  2.6091
  173SLPC  C31519614   4.552   4.109   5.080  0.0284 -0.0752  0.7985
  173SLPC  H15X19615   4.451   4.149   5.057  0.2992 -0.1126 -0.4800
  173SLPC  H15Y19616   4.556   4.005   5.040  1.3564 -0.1197  1.0038
  173SLPC  C31619617   4.655   4.180   4.998  0.1097 -0.0245  0.5093
  173SLPC  H16X19618   4.747   4.124   5.026 -1.3788 -1.9046  1.9480
  173SLPC  H16Y19619   4.661   4.288   5.023  2.2818 -0.3323  1.5056
  173SLPC  C31719620   4.617   4.169   4.847  0.0016 -0.2583  0.5658
  173SLPC  H17X19621   4.716   4.185   4.801  0.6312  1.2344  2.3381
  173SLPC  H17Y19622   4.551   4.249   4.806 -1.7019 -2.3353 -1.0042
  173SLPC  C31819623   4.564   4.030   4.795  0.6544  0.3020 -0.0171
  173SLPC  H18X19624   4.546   4.019   4.686 -0.3328 -0.5584  0.2215
  173SLPC  H18Y19625   4.467   4.009   4.845  0.3514 -0.9436 -1.0560
  173SLPC  H18Z19626   4.647   3.958   4.816  1.1582  0.9570  0.2671
  174SLPC     N19627   6.064   6.137   7.824 -0.1689  0.1658  0.0621
  174SLPC   C1319628   6.208   6.113   7.797  0.7446  0.0048 -0.3294
  174SLPC  H13A19629   6.264   6.205   7.787  0.6704  0.2244  1.1042
  174SLPC  H13B19630   6.264   6.060   7.873 -1.1695 -0.8527  0.5424
  174SLPC  H13C19631   6.215   6.059   7.704 -1.7947 -1.0065 -0.0129
  174SLPC   C1419632   6.055   6.279   7.871 -0.1352  0.0356  0.1381
  174SLPC  H14A19633   6.109   6.345   7.805  2.2927 -2.6807 -0.7745
  174SLPC  H14B19634   5.950   6.305   7.859  0.2260  1.4243 -0.2387
  174SLPC  H14C19635   6.069   6.297   7.977 -2.5950 -0.4184  0.6013
  174SLPC   C1519636   6.013   6.030   7.924 -0.1442 -0.3865 -0.2595
  174SLPC  H15A19637   5.905   6.031   7.925 -0.1298  0.7841  0.6676
  174SLPC  H15B19638   6.051   5.935   7.888 -0.8408 -0.3230 -1.2286
  174SLPC  H15C19639   6.056   6.050   8.021 -3.3071 -2.4523  1.7744
  174SLPC   C1219640   5.987   6.127   7.691  0.1846  0.5537  0.2597
  174SLPC  H12A19641   6.036   6.200   7.628  2.3177 -2.0426 -1.3075
  174SLPC  H12B19642   5.888   6.168   7.704 -0.5096 -0.5102 -1.2960
  174SLPC   C1119643   5.985   5.989   7.620  0.0641 -0.0435 -0.2095
  174SLPC  H11A19644   5.915   5.990   7.533  0.0788 -0.0236 -0.2213
  174SLPC  H11B19645   5.948   5.920   7.698  3.4136 -1.1130  0.5829
  174SLPC     P19646   6.180   5.997   7.438 -0.0764  0.1031  0.2611
  174SLPC   O1319647   6.210   6.139   7.435  0.1713 -0.2193 -0.3114
  174SLPC   O1419648   6.291   5.905   7.400  0.0048  0.0893  0.6356
  174SLPC   O1219649   6.118   5.950   7.574  0.1401 -0.4222 -0.3999
  174SLPC   O1119650   6.057   5.979   7.343  0.6798  0.1591  0.6639
  174SLPC    C119651   6.029   5.843   7.288 -0.3994  0.2597 -0.5498
  174SLPC    HA19652   6.082   5.759   7.337 -0.7897  1.1939  1.5837
  174SLPC    HB19653   5.921   5.823   7.308 -0.6689  2.0344 -0.0801
  174SLPC    C219654   6.058   5.833   7.138 -0.1492 -0.5639 -0.1138
  174SLPC    HS19655   6.166   5.859   7.133 -0.0665 -0.3329  1.8937
  174SLPC   O2119656   5.987   5.934   7.064 -0.2578  0.2964 -0.1474
  174SLPC   C2119657   6.045   6.030   7.012 -0.6431  0.9758 -0.1146
  174SLPC   O2219658   6.166   6.057   7.023 -0.1268 -0.4725  0.0925
  174SLPC   C2219659   5.950   6.096   6.919 -0.1167 -0.1698 -0.3176
  174SLPC   H2R19660   5.908   6.014   6.858 -1.2541 -0.1338  0.3808
  174SLPC   H2S19661   5.866   6.144   6.973  0.3442 -0.6432  0.8489
  174SLPC    C319662   6.043   5.691   7.079 -0.5614 -0.5062  0.0609
  174SLPC    HX19663   5.941   5.695   7.033 -0.4190  0.1412 -0.2127
  174SLPC    HY19664   6.044   5.605   7.149  0.1268 -0.2300  0.3928
  174SLPC   O3119665   6.136   5.677   6.968 -0.4695  0.1526  0.0862
  174SLPC   C3119666   6.250   5.605   6.977  0.3147 -0.8822  0.5386
  174SLPC   O3219667   6.290   5.551   7.075 -0.1035 -0.2496 -0.3674
  174SLPC   C3219668   6.328   5.618   6.849 -0.5890  0.3874 -0.3420
  174SLPC   H2X19669   6.391   5.709   6.855  0.9598 -0.7276  1.7264
  174SLPC   H2Y19670   6.253   5.632   6.769  0.8862  0.4919 -1.7424
  174SLPC   C2319671   6.031   6.196   6.826  0.7574 -0.3554  0.0680
  174SLPC   H3R19672   6.127   6.155   6.788  0.2113 -0.0759 -1.6659
  174SLPC   H3S19673   6.061   6.279   6.893  1.5808 -0.1017 -0.6023
  174SLPC   C2419674   5.945   6.256   6.716 -0.0996 -0.2357 -0.4589
  174SLPC   H4R19675   5.999   6.348   6.683 -0.5941  0.3384  0.2945
  174SLPC   H4S19676   5.848   6.296   6.753  0.7885  1.2725  0.3330
  174SLPC   C2519677   5.915   6.163   6.596  0.9409  0.2394  0.9488
  174SLPC   H5R19678   5.843   6.216   6.529  0.1142 -1.9315  0.0236
  174SLPC   H5S19679   5.851   6.085   6.642 -0.3350  1.3839  1.1655
  174SLPC   C2619680   6.043   6.130   6.521  0.3554  0.2031 -0.0584
  174SLPC   H6R19681   6.008   6.063   6.440 -3.5494  0.9984  0.7636
  174SLPC   H6S19682   6.111   6.078   6.592 -1.2887 -2.0536 -0.0311
  174SLPC   C2719683   6.127   6.247   6.459 -0.3187 -0.3083  0.5319
  174SLPC   H7R19684   6.227   6.204   6.435 -0.9285 -0.2686 -2.3521
  174SLPC   H7S19685   6.139   6.331   6.530 -0.5311  1.1565 -1.1063
  174SLPC   C2819686   6.065   6.311   6.334  0.6037  0.4022 -0.1128
  174SLPC   H8R19687   5.973   6.351   6.381  0.0927 -0.4934 -0.3218
  174SLPC   H8S19688   6.049   6.236   6.253  2.7632 -0.4079  0.1433
  174SLPC   C2919689   6.140   6.429   6.285  0.6597  0.9744  0.2385
  174SLPC   H9R19690   6.160   6.499   6.367 -2.9973 -0.9995  3.1680
  174SLPC  C21019691   6.181   6.457   6.163  0.0045  0.6822 -0.0353
  174SLPC  H10R19692   6.253   6.540   6.156 -1.2352  1.8599  0.4890
  174SLPC  C21119693   6.169   6.369   6.038  0.1380 -0.1896  0.0399
  174SLPC  H11R19694   6.140   6.263   6.053  1.0423 -0.8177 -2.1913
  174SLPC  H11S19695   6.270   6.357   5.993 -0.5671 -1.1329 -1.3411
  174SLPC  C21219696   6.107   6.447   5.922  0.1085 -0.1833 -0.5087
  174SLPC  H12R19697   6.023   6.510   5.955  0.3599 -0.2388  0.2364
  174SLPC  C21319698   6.143   6.448   5.797 -0.0300  0.3224 -0.0198
  174SLPC  H13R19699   6.082   6.508   5.728  1.0339  0.7782 -0.5729
  174SLPC  C21419700   6.261   6.379   5.738  0.2819 -0.1941 -0.2443
  174SLPC  H14R19701   6.245   6.377   5.628 -0.6983  2.1754 -0.1958
  174SLPC  H14S19702   6.271   6.276   5.778  1.0163  0.8825  2.5382
  174SLPC  C21519703   6.392   6.461   5.740 -0.1436  0.3663 -0.1726
  174SLPC  H15R19704   6.419   6.477   5.847 -0.0639  1.1281 -0.2995
  174SLPC  H15S19705   6.383   6.563   5.697  1.1896  1.7729  2.5801
  174SLPC  C21619706   6.516   6.397   5.663 -0.1808 -0.2897 -0.7545
  174SLPC  H16R19707   6.484   6.373   5.559  0.8648  0.0321 -1.1567
  174SLPC  H16S19708   6.533   6.299   5.712 -1.0830 -1.3735 -2.4900
  174SLPC  C21719709   6.636   6.483   5.679 -0.0738  0.2987  0.0192
  174SLPC  H17R19710   6.630   6.499   5.789  1.9812 -1.7123  0.5068
  174SLPC  H17S19711   6.607   6.583   5.640 -3.1816 -0.0230  1.1966
  174SLPC  C21819712   6.771   6.434   5.640  0.1633 -0.7825 -0.2950
  174SLPC  H18R19713   6.843   6.514   5.668 -2.9818  2.7173 -1.4644
  174SLPC  H18S19714   6.766   6.424   5.529  2.2274 -0.9276 -0.4281
  174SLPC  H18T19715   6.787   6.332   5.681  0.8954 -0.2790  0.7072
  174SLPC   C3319716   6.409   5.490   6.816 -0.1466 -0.1978  0.6987
  174SLPC   H3X19717   6.341   5.402   6.816  1.1143 -1.3084 -2.2424
  174SLPC   H3Y19718   6.484   5.484   6.898 -0.3717  3.7050  1.3614
  174SLPC   C3419719   6.473   5.486   6.683 -0.6523 -0.7666  0.2617
  174SLPC   H4X19720   6.521   5.582   6.654 -1.9883 -0.2668 -0.4010
  174SLPC   H4Y19721   6.386   5.469   6.616 -0.9548 -0.8057  0.6577
  174SLPC   C3519722   6.576   5.373   6.655  0.2254 -0.3336 -0.3186
  174SLPC   H5X19723   6.551   5.270   6.688 -0.4424 -0.2270 -0.4880
  174SLPC   H5Y19724   6.670   5.408   6.704 -0.3853 -0.8855  1.3084
  174SLPC   C3619725   6.591   5.346   6.504 -0.0090 -0.1101  0.4060
  174SLPC   H6X19726   6.645   5.250   6.510 -3.0513 -1.8708  3.1065
  174SLPC   H6Y19727   6.653   5.420   6.450  0.7289 -0.4765  0.7473
  174SLPC   C3719728   6.461   5.318   6.425  0.0247 -0.1679 -0.6510
  174SLPC   H7X19729   6.400   5.407   6.398  0.6587  0.1556 -1.0166
  174SLPC   H7Y19730   6.394   5.253   6.487  2.0128 -0.4479  1.3292
  174SLPC   C3819731   6.484   5.243   6.296  0.1035  0.1774 -0.2312
  174SLPC   H8X19732   6.547   5.156   6.323 -0.2609 -0.3590 -1.0420
  174SLPC   H8Y19733   6.545   5.302   6.224  1.1613 -0.6513 -0.0237
  174SLPC   C3919734   6.351   5.200   6.232 -0.1787  0.1381  0.2722
  174SLPC   H9X19735   6.294   5.148   6.312  1.9991 -2.2414  0.4551
  174SLPC   H9Y19736   6.376   5.123   6.156  2.6221  2.0454 -0.8796
  174SLPC  C31019737   6.285   5.322   6.158 -0.1554 -0.3430  0.2778
  174SLPC  H10X19738   6.352   5.348   6.073 -2.4901  1.8486 -1.0396
  174SLPC  H10Y19739   6.274   5.405   6.230  1.1708 -1.8179  2.2938
  174SLPC  C31119740   6.138   5.291   6.108 -0.1774  0.1837 -0.2473
  174SLPC  H11X19741   6.068   5.270   6.192  0.1959  3.0593  0.8938
  174SLPC  H11Y19742   6.148   5.209   6.033  0.9994 -0.9726  1.1183
  174SLPC  C31219743   6.085   5.405   6.021  0.0360 -0.5866  0.5232
  174SLPC  H12X19744   6.160   5.428   5.942 -0.6123 -0.1874  0.0100
  174SLPC  H12Y19745   6.070   5.493   6.086 -0.4788  1.3298 -2.0327
  174SLPC  C31319746   5.940   5.387   5.951 -0.3566 -0.3606 -0.8647
  174SLPC  H13X19747   5.864   5.386   6.031  0.3461 -0.8299 -0.1859
  174SLPC  H13Y19748   5.927   5.294   5.893  1.5578 -1.3783  0.2133
  174SLPC  C31419749   5.916   5.506   5.859 -0.7093  0.3795  0.1290
  174SLPC  H14X19750   5.997   5.516   5.784 -0.9445  1.1357 -0.0299
  174SLPC  H14Y19751   5.908   5.602   5.913  2.2024  0.4014  0.6801
  174SLPC  C31519752   5.783   5.482   5.778 -0.0040 -0.2763  0.2725
  174SLPC  H15X19753   5.696   5.498   5.845 -0.0641  0.2336  0.0803
  174SLPC  H15Y19754   5.784   5.377   5.742  1.6933  0.6103 -2.5882
  174SLPC  C31619755   5.778   5.578   5.662 -0.3790  0.0202 -0.0809
  174SLPC  H16X19756   5.872   5.577   5.603 -1.5475  0.2617 -2.0248
  174SLPC  H16Y19757   5.773   5.680   5.706 -0.0270 -0.2809  0.6739
  174SLPC  C31719758   5.656   5.562   5.563 -0.4882  0.2414  0.1197
  174SLPC  H17X19759   5.563   5.561   5.623  0.3075 -0.7141  1.4130
  174SLPC  H17Y19760   5.669   5.466   5.510 -0.7494  1.2998 -1.9430
  174SLPC  C31819761   5.640   5.671   5.451 -0.2969 -0.5608  0.1591
  174SLPC  H18X19762   5.539   5.660   5.408  0.1136  1.3142 -1.4243
  174SLPC  H18Y19763   5.727   5.672   5.381  0.9427  0.4487  1.6295
  174SLPC  H18Z19764   5.636   5.769   5.503 -0.8647 -1.1989  1.3409
  175SLPC     N19765   0.325   6.921   7.145 -0.1313 -0.2770 -0.0371
  175SLPC   C1319766   0.357   6.787   7.094  0.3102  0.6384 -0.3834
  175SLPC  H13A19767   0.403   6.792   6.996  0.1761  0.2286 -0.4728
  175SLPC  H13B19768   0.430   6.739   7.157 -0.4543 -2.0100 -1.3498
  175SLPC  H13C19769   0.277   6.717   7.070  1.0992 -0.0734 -1.0225
  175SLPC   C1419770   0.249   6.908   7.274 -0.2775 -0.4665 -0.5443
  175SLPC  H14A19771   0.244   7.009   7.313  2.1559 -0.6700  0.4699
  175SLPC  H14B19772   0.147   6.875   7.259 -0.1096 -1.9995  1.2360
  175SLPC  H14C19773   0.289   6.840   7.349 -0.4385  0.6834  0.6293
  175SLPC   C1519774   0.218   6.980   7.062  0.2166  0.1565 -0.5491
  175SLPC  H15A19775   0.248   6.999   6.960  1.8874  2.5860  0.3159
  175SLPC  H15B19776   0.133   6.915   7.075  0.6996 -0.1198  1.5217
  175SLPC  H15C19777   0.191   7.079   7.093 -1.1250  0.3674 -2.2642
  175SLPC   C1219778   0.448   7.009   7.153 -0.0172 -0.1594 -0.1707
  175SLPC  H12A19779   0.410   7.099   7.197  1.4017  0.6792 -0.5843
  175SLPC  H12B19780   0.486   7.033   7.054 -0.2277  3.9251  0.5823
  175SLPC   C1119781   0.565   6.964   7.242  0.9275 -1.1983  0.5409
  175SLPC  H11A19782   0.544   6.962   7.351  1.0360 -1.4054  0.5583
  175SLPC  H11B19783   0.637   7.049   7.235  0.7989 -1.2253 -2.9078
  175SLPC     P19784   0.741   6.788   7.282 -0.5932  0.1749  0.1026
  175SLPC   O1319785   0.858   6.874   7.275  0.3813 -0.0259  0.6645
  175SLPC   O1419786   0.691   6.749   7.416  0.0916 -0.6553 -0.2207
  175SLPC   O1219787   0.620   6.847   7.189 -0.4784 -0.0623 -0.2060
  175SLPC   O1119788   0.780   6.660   7.197  0.1586 -0.4532  0.0233
  175SLPC    C119789   0.680   6.582   7.136 -0.3381 -0.0720  0.7944
  175SLPC    HA19790   0.718   6.478   7.130 -0.0679  0.0838 -0.3851
  175SLPC    HB19791   0.582   6.591   7.187 -0.5622 -1.7825  0.7000
  175SLPC    C219792   0.658   6.615   6.985 -0.1909  0.0919 -0.2997
  175SLPC    HS19793   0.608   6.714   6.988 -1.0457 -0.2004 -2.7378
  175SLPC   O2119794   0.565   6.520   6.931  0.0209  0.2186 -0.0407
  175SLPC   C2119795   0.476   6.565   6.854  0.2935 -0.3649 -0.0669
  175SLPC   O2219796   0.463   6.683   6.813  1.4913  0.2188 -0.3419
  175SLPC   C2219797   0.383   6.448   6.822  0.4077  0.3916 -0.6085
  175SLPC   H2R19798   0.351   6.405   6.919  2.2285  1.8134  0.6959
  175SLPC   H2S19799   0.298   6.496   6.768  1.1418  2.8604  0.3097
  175SLPC    C319800   0.791   6.626   6.911 -0.5676  0.1007 -0.0586
  175SLPC    HX19801   0.837   6.526   6.928 -0.4215  0.3305  0.9768
  175SLPC    HY19802   0.865   6.700   6.949 -1.9413  1.6049 -0.2344
  175SLPC   O3119803   0.774   6.643   6.768 -0.1600 -0.1669  0.2061
  175SLPC   C3119804   0.885   6.610   6.704  0.3383 -0.3112 -0.4025
  175SLPC   O3219805   0.989   6.569   6.760  0.2599  0.0677  0.7537
  175SLPC   C3219806   0.860   6.630   6.558  0.5367 -0.0665  0.7701
  175SLPC   H2X19807   0.857   6.741   6.549  1.0152 -0.1231 -0.1726
  175SLPC   H2Y19808   0.759   6.593   6.528 -0.0599  2.2166 -0.3353
  175SLPC   C2319809   0.442   6.346   6.714  0.7832  0.5509 -0.2603
  175SLPC   H3R19810   0.386   6.252   6.732  0.9424  0.3493 -0.8141
  175SLPC   H3S19811   0.550   6.328   6.727  0.9294  0.7551 -1.1464
  175SLPC   C2419812   0.385   6.384   6.574  0.0343 -0.0231  0.0037
  175SLPC   H4R19813   0.390   6.493   6.557 -1.2661 -0.2273 -2.0153
  175SLPC   H4S19814   0.276   6.364   6.582 -0.5332  3.0233  1.2428
  175SLPC   C2519815   0.450   6.299   6.468  0.1763  0.7505 -0.3839
  175SLPC   H5R19816   0.373   6.267   6.395 -0.1030 -2.1291  1.0321
  175SLPC   H5S19817   0.486   6.202   6.509 -2.0148 -0.1621 -0.4907
  175SLPC   C2619818   0.565   6.368   6.392 -0.2500  0.1415 -0.1786
  175SLPC   H6R19819   0.645   6.388   6.468 -1.3062 -2.1298  1.6756
  175SLPC   H6S19820   0.537   6.469   6.355  1.9187  0.8198 -0.1200
  175SLPC   C2719821   0.610   6.278   6.280 -0.6098 -0.5030  0.0101
  175SLPC   H7R19822   0.588   6.177   6.322 -2.6677 -0.3617 -0.5974
  175SLPC   H7S19823   0.717   6.288   6.253 -1.3141 -0.1376 -2.9807
  175SLPC   C2819824   0.527   6.268   6.148 -0.1990  0.5705  0.2682
  175SLPC   H8R19825   0.426   6.240   6.187 -0.4729  1.0484 -0.1023
  175SLPC   H8S19826   0.581   6.192   6.088  0.9601  0.9708  0.7745
  175SLPC   C2919827   0.516   6.395   6.074 -0.0702 -0.0609 -0.0545
  175SLPC   H9R19828   0.477   6.482   6.129  1.3677  0.7507 -0.2628
  175SLPC  C21019829   0.542   6.414   5.945  0.0082 -0.3075 -0.1141
  175SLPC  H10R19830   0.516   6.515   5.908 -0.2043  0.0019  0.8482
  175SLPC  C21119831   0.580   6.303   5.841  0.6430 -0.0631 -0.2673
  175SLPC  H11R19832   0.509   6.312   5.756  1.4636  0.5377 -0.9049
  175SLPC  H11S19833   0.547   6.205   5.881 -0.2527  0.8417  1.3168
  175SLPC  C21219834   0.721   6.313   5.795 -0.1928  0.2851  0.4157
  175SLPC  H12R19835   0.789   6.332   5.879  0.4277  0.1350 -0.0416
  175SLPC  C21319836   0.771   6.292   5.669  0.6181  0.6765 -0.2366
  175SLPC  H13R19837   0.879   6.297   5.647  0.8899  0.3200  0.9622
  175SLPC  C21419838   0.692   6.260   5.542  0.3172 -0.5584  0.3254
  175SLPC  H14R19839   0.584   6.248   5.562  0.6166 -0.0404  2.5758
  175SLPC  H14S19840   0.717   6.158   5.507 -3.6981 -0.9418 -2.0026
  175SLPC  C21519841   0.697   6.359   5.426  0.1707  0.3833 -0.0833
  175SLPC  H15R19842   0.795   6.410   5.423 -0.2674  1.2619  0.0904
  175SLPC  H15S19843   0.616   6.434   5.444 -1.1521 -0.6096 -1.5930
  175SLPC  C21619844   0.662   6.281   5.301  0.1494 -0.9406  0.0487
  175SLPC  H16R19845   0.564   6.229   5.312 -0.6518  0.3746 -0.5881
  175SLPC  H16S19846   0.738   6.201   5.285  1.0109 -0.6249  2.2013
  175SLPC  C21719847   0.648   6.379   5.178  1.0054  0.0560 -0.4529
  175SLPC  H17R19848   0.585   6.466   5.208 -0.3822 -0.3035 -2.1225
  175SLPC  H17S19849   0.599   6.337   5.087  1.2191  0.8689 -0.9571
  175SLPC  C21819850   0.785   6.424   5.132 -0.3791  0.1659 -0.0953
  175SLPC  H18R19851   0.842   6.460   5.220 -2.7719 -1.3889  2.2491
  175SLPC  H18S19852   0.778   6.512   5.064  0.8632  0.2208 -0.1803
  175SLPC  H18T19853   0.841   6.339   5.087 -0.9943  0.0100 -0.5723
  175SLPC   C3319854   0.981   6.578   6.478  0.8563 -0.0874  0.9531
  175SLPC   H3X19855   0.985   6.468   6.495 -4.5045 -0.3789  2.1773
  175SLPC   H3Y19856   1.076   6.615   6.522  1.2535 -1.3645  1.2100
  175SLPC   C3419857   0.981   6.613   6.327  0.3888  0.0144 -0.0091
  175SLPC   H4X19858   1.079   6.586   6.281  1.1842  1.1343  0.9626
  175SLPC   H4Y19859   0.960   6.720   6.306  1.6055  0.1469 -0.7057
  175SLPC   C3519860   0.862   6.539   6.251  0.3728  0.1643 -0.2844
  175SLPC   H5X19861   0.763   6.573   6.288  1.0891  0.6524  1.2866
  175SLPC   H5Y19862   0.879   6.434   6.283  0.4703  0.4487  0.6230
  175SLPC   C3619863   0.871   6.568   6.102  0.0493  0.1785  0.3828
  175SLPC   H6X19864   0.889   6.670   6.062  1.7875 -0.4358 -0.5158
  175SLPC   H6Y19865   0.773   6.541   6.058 -1.5372  1.4244  2.9202
  175SLPC   C3719866   0.978   6.478   6.024 -0.2157 -0.2217 -0.6916
  175SLPC   H7X19867   0.929   6.378   6.021 -4.0310  1.4095  0.9095
  175SLPC   H7Y19868   1.074   6.477   6.079 -0.4490  2.7000 -0.0598
  175SLPC   C3819869   1.004   6.539   5.886  0.1013 -0.1853  0.0846
  175SLPC   H8X19870   1.047   6.641   5.898  2.3119 -0.8492 -1.6183
  175SLPC   H8Y19871   0.907   6.551   5.834 -1.3032 -2.1754  2.0703
  175SLPC   C3919872   1.095   6.453   5.796  0.2255 -0.0710 -0.4384
  175SLPC   H9X19873   1.061   6.347   5.797  0.8309 -0.2730  0.0185
  175SLPC   H9Y19874   1.196   6.451   5.843 -0.5091  0.5251  1.2435
  175SLPC  C31019875   1.091   6.502   5.647  0.2068  0.0384 -0.5878
  175SLPC  H10X19876   1.135   6.603   5.632 -2.1415  0.9399 -1.9241
  175SLPC  H10Y19877   0.985   6.507   5.616  0.8888  1.7296 -2.8716
  175SLPC  C31119878   1.162   6.401   5.553  0.2282  0.3174  0.2236
  175SLPC  H11X19879   1.120   6.300   5.572  2.3744 -0.9362 -1.2202
  175SLPC  H11Y19880   1.270   6.396   5.579  0.1246  1.6092  0.9562
  175SLPC  C31219881   1.152   6.424   5.399 -0.1645 -0.0298 -0.7457
  175SLPC  H12X19882   1.196   6.522   5.370  0.1483  0.1300  0.1991
  175SLPC  H12Y19883   1.042   6.430   5.388 -0.4114  0.1481  1.3077
  175SLPC  C31319884   1.210   6.313   5.313  0.0869  0.2126  0.2037
  175SLPC  H13X19885   1.150   6.220   5.319  2.9532 -2.0516 -2.7251
  175SLPC  H13Y19886   1.315   6.295   5.346  0.4843 -0.9820 -1.6054
  175SLPC  C31419887   1.209   6.357   5.166  0.5732  0.2063  0.1866
  175SLPC  H14X19888   1.265   6.453   5.166 -0.7590  1.0394 -1.2386
  175SLPC  H14Y19889   1.103   6.373   5.137  0.7469  1.7379  0.3466
  175SLPC  C31519890   1.279   6.262   5.076 -0.7037  0.8430  0.0598
  175SLPC  H15X19891   1.264   6.158   5.110 -0.2488  0.6883 -0.1972
  175SLPC  H15Y19892   1.389   6.282   5.077 -0.5933  0.6156  3.3813
  175SLPC  C31619893   1.230   6.269   4.925 -0.0748 -0.3843  0.3358
  175SLPC  H16X19894   1.237   6.375   4.892  1.4518 -0.6921 -0.4246
  175SLPC  H16Y19895   1.120   6.254   4.923 -0.2975  0.9915  1.2989
  175SLPC  C31719896   1.302   6.180   4.816  0.0806 -0.3444 -0.6370
  175SLPC  H17X19897   1.388   6.241   4.779  0.9042 -0.7283  0.5741
  175SLPC  H17Y19898   1.232   6.173   4.730  0.5796 -4.5021 -0.9122
  175SLPC  C31819899   1.337   6.039   4.863 -0.2970  0.2187 -0.1321
  175SLPC  H18X19900   1.247   5.988   4.904  0.7023  0.6273  2.7779
  175SLPC  H18Y19901   1.414   6.049   4.942 -1.3013  1.4823  0.7277
  175SLPC  H18Z19902   1.378   5.977   4.780  0.0814  1.5572 -0.9819
  176SLPC     N19903   1.902   5.606   7.980  0.4321 -0.2040 -0.3324
  176SLPC   C1319904   1.977   5.494   7.927 -0.2499 -0.3354  0.3219
  176SLPC  H13A19905   1.996   5.508   7.822 -0.2949  0.8570  0.4677
  176SLPC  H13B19906   2.070   5.490   7.982 -0.7532 -0.7377  1.1657
  176SLPC  H13C19907   1.938   5.394   7.942  2.0674 -1.0354  2.3510
  176SLPC   C1419908   1.983   5.733   7.956  0.0064  0.0485  0.2421
  176SLPC  H14A19909   1.949   5.823   8.004  3.5089  1.2368  0.8362
  176SLPC  H14B19910   2.090   5.721   7.971  0.1695 -3.0640 -2.2127
  176SLPC  H14C19911   1.985   5.754   7.850 -0.3657  0.7375  0.3684
  176SLPC   C1519912   1.888   5.585   8.132  0.1022  0.6268  1.0431
  176SLPC  H15A19913   1.979   5.561   8.185  0.4614  1.6337  0.8995
  176SLPC  H15B19914   1.849   5.671   8.184 -0.9489 -0.6259  2.4021
  176SLPC  H15C19915   1.821   5.500   8.140 -1.0926  1.5956  1.5617
  176SLPC   C1219916   1.758   5.615   7.913 -0.2608  0.1904 -0.1000
  176SLPC  H12A19917   1.715   5.701   7.961  0.1307 -0.6371  1.8170
  176SLPC  H12B19918   1.702   5.526   7.939  2.5958 -1.5804  0.4919
  176SLPC   C1119919   1.763   5.624   7.758 -1.1527  0.2280  0.4851
  176SLPC  H11A19920   1.663   5.622   7.711 -1.1686  1.0976  0.4583
  176SLPC  H11B19921   1.819   5.534   7.724 -2.2898 -1.6106  3.2072
  176SLPC     P19922   1.891   5.762   7.571  0.3247 -0.0470 -0.3196
  176SLPC   O1319923   1.963   5.892   7.559 -0.6205 -0.0719 -0.2862
  176SLPC   O1419924   1.971   5.642   7.543  0.2916  0.2271 -0.0590
  176SLPC   O1219925   1.825   5.744   7.720  0.1047  0.1480 -0.0918
  176SLPC   O1119926   1.766   5.770   7.481 -0.4932  0.1256  0.2447
  176SLPC    C119927   1.701   5.668   7.408 -0.0024 -0.0913  0.0978
  176SLPC    HA19928   1.699   5.571   7.463  1.5610 -0.9185 -1.2278
  176SLPC    HB19929   1.599   5.701   7.380  0.9287  0.0634 -3.5605
  176SLPC    C219930   1.780   5.616   7.274 -0.3963  0.1743  0.2930
  176SLPC    HS19931   1.873   5.570   7.315 -1.6557 -0.8253  2.1829
  176SLPC   O2119932   1.812   5.730   7.187  0.2938  0.0515 -0.9818
  176SLPC   C2119933   1.707   5.779   7.125 -0.5176  0.7163  0.5163
  176SLPC   O2219934   1.590   5.765   7.153  0.1111  0.6315 -0.2123
  176SLPC   C2219935   1.774   5.859   7.009  0.1868  0.2062 -0.2774
  176SLPC   H2R19936   1.700   5.928   6.964 -0.4540  1.1733  2.1191
  176SLPC   H2S19937   1.862   5.918   7.043  1.6903  0.1755 -3.6960
  176SLPC    C319938   1.705   5.501   7.202  0.5763 -0.0398  0.4185
  176SLPC    HX19939   1.603   5.543   7.210  0.7966  0.4228  0.8684
  176SLPC    HY19940   1.714   5.409   7.263 -0.3977  1.0037  2.2250
  176SLPC   O3119941   1.751   5.492   7.066  0.0279 -0.1142 -0.1101
  176SLPC   C3119942   1.798   5.375   7.030  0.3890 -0.2451  0.8895
  176SLPC   O3219943   1.769   5.272   7.083  0.3343 -0.0974 -0.8213
  176SLPC   C3219944   1.880   5.398   6.904  0.0834  0.9740 -0.3856
  176SLPC   H2X19945   1.960   5.472   6.926  2.9603 -1.6681 -1.0903
  176SLPC   H2Y19946   1.809   5.436   6.827  0.0460  0.0016 -0.8527
  176SLPC   C2319947   1.828   5.754   6.907 -0.4504 -0.3254 -0.5102
  176SLPC   H3R19948   1.758   5.670   6.886  0.2211 -0.3198 -3.1936
  176SLPC   H3S19949   1.918   5.709   6.953 -1.4476  0.2651  2.1907
  176SLPC   C2419950   1.842   5.819   6.771 -0.3286  0.3734 -0.7641
  176SLPC   H4R19951   1.921   5.894   6.794 -0.9207  0.9351 -0.5515
  176SLPC   H4S19952   1.756   5.880   6.736 -2.1312 -1.3211  0.4929
  176SLPC   C2519953   1.880   5.714   6.667 -0.7430  0.5302 -0.0260
  176SLPC   H5R19954   1.791   5.659   6.629 -1.0804  2.2184 -1.8508
  176SLPC   H5S19955   1.938   5.634   6.718  1.7688  1.9394 -0.4953
  176SLPC   C2619956   1.977   5.764   6.563 -0.0232 -0.6230 -0.0771
  176SLPC   H6R19957   2.024   5.673   6.520  0.0833 -0.2191 -0.8326
  176SLPC   H6S19958   2.061   5.816   6.614 -0.2496 -0.1709 -0.1582
  176SLPC   C2719959   1.917   5.845   6.441 -0.2086  0.2546 -0.3981
  176SLPC   H7R19960   1.992   5.866   6.362 -1.3866  2.5184 -1.0202
  176SLPC   H7S19961   1.886   5.945   6.480 -0.8203  0.6062 -1.7343
  176SLPC   C2819962   1.799   5.772   6.365 -0.1224  0.8186 -0.0215
  176SLPC   H8R19963   1.757   5.840   6.288 -1.2793 -0.8503 -0.9344
  176SLPC   H8S19964   1.716   5.751   6.436 -1.1220  0.6632 -1.2002
  176SLPC   C2919965   1.840   5.644   6.300 -0.1174  0.0707  0.4780
  176SLPC   H9R19966   1.860   5.560   6.368 -1.3134  0.0370  0.8115
  176SLPC  C21019967   1.841   5.611   6.168 -0.0759  0.5914  0.2691
  176SLPC  H10R19968   1.886   5.517   6.131 -0.8722  0.3415 -0.0910
  176SLPC  C21119969   1.829   5.700   6.051  0.6704  0.5448  0.0240
  176SLPC  H11R19970   1.932   5.729   6.018  0.6964 -1.4229 -1.8654
  176SLPC  H11S19971   1.781   5.797   6.078  1.0501  0.1929  2.1496
  176SLPC  C21219972   1.744   5.637   5.938  0.0037  0.6833 -0.0217
  176SLPC  H12R19973   1.649   5.590   5.965  0.8430 -1.2685 -0.2867
  176SLPC  C21319974   1.775   5.633   5.806  0.5946 -0.1109 -0.8475
  176SLPC  H13R19975   1.706   5.578   5.741  0.9983 -0.6812 -0.8014
  176SLPC  C21419976   1.894   5.690   5.743 -0.6413  1.3074  0.0379
  176SLPC  H14R19977   1.937   5.603   5.689 -2.8841 -0.6735  1.2067
  176SLPC  H14S19978   1.967   5.726   5.818 -0.3658 -1.1240  1.0403
  176SLPC  C21519979   1.870   5.797   5.642 -0.4998  0.8020 -0.6010
  176SLPC  H15R19980   1.838   5.892   5.690 -0.0877  0.4897  0.3110
  176SLPC  H15S19981   1.798   5.755   5.569 -0.1522  0.3184 -0.6673
  176SLPC  C21619982   1.995   5.844   5.561 -0.2368  0.3866 -0.0914
  176SLPC  H16R19983   2.070   5.871   5.639  0.9089  0.0321 -1.0442
  176SLPC  H16S19984   1.972   5.937   5.505  0.5763  0.7110  0.0946
  176SLPC  C21719985   2.050   5.731   5.478  0.0680 -0.0114 -0.0997
  176SLPC  H17R19986   1.980   5.706   5.396  0.0533 -2.4134  0.5726
  176SLPC  H17S19987   2.049   5.635   5.535 -1.2220  1.0508  1.7440
  176SLPC  C21819988   2.189   5.746   5.421 -0.8200 -1.0231  0.3950
  176SLPC  H18R19989   2.204   5.689   5.327  0.8841  0.7156 -0.4609
  176SLPC  H18S19990   2.265   5.701   5.488 -0.1405 -1.2733 -0.5150
  176SLPC  H18T19991   2.208   5.855   5.416  0.1338 -1.2335 -1.2644
  176SLPC   C3319992   1.940   5.264   6.848  0.1630  0.1527 -0.3871
  176SLPC   H3X19993   1.849   5.205   6.824  0.2912 -0.9266  1.5457
  176SLPC   H3Y19994   1.993   5.209   6.929  0.5836 -2.6535 -2.4225
  176SLPC   C3419995   2.022   5.267   6.718  0.5203  0.6519  0.1738
  176SLPC   H4X19996   2.094   5.183   6.721 -0.9372 -0.9174 -3.4480
  176SLPC   H4Y19997   2.081   5.361   6.707  0.9700  0.1506 -1.9863
  176SLPC   C3519998   1.935   5.258   6.597 -0.3573  0.5372 -0.7123
  176SLPC   H5X19999   1.853   5.332   6.588 -1.6272 -0.5817  1.0151
  176SLPC   H5Y20000   1.880   5.165   6.622  0.8451  0.7719  3.7055
  176SLPC   C3620001   2.019   5.240   6.464 -0.0468 -0.3072 -0.1308
  176SLPC   H6X20002   2.086   5.156   6.492  3.1278  1.5331 -1.6263
  176SLPC   H6Y20003   2.071   5.338   6.458  0.4026 -0.5194  0.1771
  176SLPC   C3720004   1.939   5.215   6.338  0.0840 -0.1998 -0.3000
  176SLPC   H7X20005   1.862   5.293   6.322 -0.4557 -0.5270  0.5972
  176SLPC   H7Y20006   1.885   5.117   6.338 -0.6084  0.1492 -1.9360
  176SLPC   C3820007   2.032   5.210   6.216 -0.2035 -0.6250  0.2490
  176SLPC   H8X20008   2.115   5.139   6.236  1.4856  0.2399 -3.0979
  176SLPC   H8Y20009   2.076   5.310   6.196 -0.9179 -0.7748 -2.4517
  176SLPC   C3920010   1.964   5.162   6.087  0.1485  0.0164  0.2102
  176SLPC   H9X20011   1.869   5.213   6.060 -0.3858 -1.0533 -0.0032
  176SLPC   H9Y20012   1.939   5.056   6.109  1.1897 -0.7268 -1.9331
  176SLPC  C31020013   2.053   5.184   5.962  0.0032 -0.6740 -0.1696
  176SLPC  H10X20014   2.158   5.155   5.983  0.2268 -1.2920 -2.0109
  176SLPC  H10Y20015   2.050   5.292   5.937 -0.3766 -0.2931  1.3872
  176SLPC  C31120016   1.993   5.102   5.849  0.2893 -0.5022  0.1580
  176SLPC  H11X20017   1.888   5.137   5.849  0.5856  0.5606  2.1654
  176SLPC  H11Y20018   1.999   4.993   5.872 -0.8205 -0.6004  0.0333
  176SLPC  C31220019   2.055   5.127   5.717  0.0823 -0.0971 -0.3430
  176SLPC  H12X20020   2.161   5.094   5.707  0.0713 -0.6956  1.2345
  176SLPC  H12Y20021   2.064   5.237   5.708 -0.0075 -0.1777 -1.7517
  176SLPC  C31320022   1.987   5.080   5.591  0.0313 -0.2411 -0.2480
  176SLPC  H13X20023   1.881   5.063   5.618 -0.1727 -0.0531 -0.9050
  176SLPC  H13Y20024   2.021   4.978   5.563 -0.1575  0.0506 -1.5861
  176SLPC  C31420025   1.986   5.185   5.482 -0.6457  0.2726 -1.0228
  176SLPC  H14X20026   2.086   5.232   5.475 -0.2853 -0.6032 -1.8994
  176SLPC  H14Y20027   1.915   5.263   5.519 -1.7901 -0.7334 -1.0114
  176SLPC  C31520028   1.955   5.124   5.343 -0.6396  0.1138  0.0712
  176SLPC  H15X20029   1.857   5.071   5.345  0.1310 -1.4561 -0.8963
  176SLPC  H15Y20030   2.037   5.055   5.315  1.0604  1.4895  1.4526
  176SLPC  C31620031   1.944   5.228   5.235  0.6755 -0.0451  0.2576
  176SLPC  H16X20032   1.862   5.299   5.259  0.2994  0.4044 -2.1063
  176SLPC  H16Y20033   1.906   5.176   5.145  0.3530 -3.0825  1.9959
  176SLPC  C31720034   2.070   5.308   5.198 -0.6174  0.5300  0.1896
  176SLPC  H17X20035   2.137   5.222   5.174 -1.7310 -0.2748 -0.1233
  176SLPC  H17Y20036   2.112   5.359   5.287  0.9035  0.7903 -0.6517
  176SLPC  C31820037   2.053   5.417   5.087 -0.0923  0.0513  0.3768
  176SLPC  H18X20038   2.009   5.370   4.996  1.8954 -1.1764  0.0009
  176SLPC  H18Y20039   2.154   5.455   5.061  0.0916  0.5440  1.7326
  176SLPC  H18Z20040   1.992   5.504   5.118  1.6004  0.7847  1.8381
  177SLPC     N20041   3.258   4.376   7.440  0.0972 -0.2532 -0.1278
  177SLPC   C1320042   3.324   4.490   7.508  0.9994  0.2202 -0.1111
  177SLPC  H13A20043   3.256   4.574   7.515  0.4304 -0.3774  2.3598
  177SLPC  H13B20044   3.357   4.457   7.605  0.6494 -2.1825 -0.7443
  177SLPC  H13C20045   3.414   4.508   7.451  1.3432 -1.0829 -0.0093
  177SLPC   C1420046   3.238   4.413   7.293 -0.0158 -0.2487 -0.3401
  177SLPC  H14A20047   3.221   4.321   7.239  2.2486 -0.2683 -1.1099
  177SLPC  H14B20048   3.145   4.466   7.278 -1.2630 -2.3901 -0.7368
  177SLPC  H14C20049   3.321   4.466   7.249 -0.5695  1.0323  0.1086
  177SLPC   C1520050   3.119   4.354   7.500 -0.5999 -0.9482  0.2401
  177SLPC  H15A20051   3.056   4.438   7.476 -0.7103 -0.4048  2.2419
  177SLPC  H15B20052   3.068   4.270   7.455 -1.7264 -0.4800  0.6038
  177SLPC  H15C20053   3.134   4.339   7.606  2.5126 -1.7355 -0.2077
  177SLPC   C1220054   3.349   4.265   7.459 -0.5937  0.1786 -0.1997
  177SLPC  H12A20055   3.378   4.263   7.563  0.1626  0.5578 -0.4015
  177SLPC  H12B20056   3.434   4.291   7.398 -1.3181  1.3445 -0.7545
  177SLPC   C1120057   3.323   4.120   7.409 -0.1569 -0.5825  0.8509
  177SLPC  H11A20058   3.409   4.061   7.447  0.4655 -0.6581 -0.6242
  177SLPC  H11B20059   3.314   4.124   7.298  1.3976  0.4831  0.7431
  177SLPC     P20060   3.170   3.921   7.423  0.0748 -0.1786 -0.5228
  177SLPC   O1320061   3.287   3.836   7.440 -0.1241 -0.6372 -0.0453
  177SLPC   O1420062   3.045   3.876   7.484 -0.4501  0.3726  0.7194
  177SLPC   O1220063   3.205   4.067   7.468  0.4651  0.4577 -0.6201
  177SLPC   O1120064   3.153   3.929   7.263  0.4083 -0.4701 -0.6580
  177SLPC    C120065   3.090   4.043   7.208 -0.0278  0.3629  0.5197
  177SLPC    HA20066   3.085   4.131   7.276  0.0468  1.3661 -0.7521
  177SLPC    HB20067   3.158   4.085   7.132  1.7634 -2.4609  0.4017
  177SLPC    C220068   2.960   3.989   7.152  0.4803  0.2114 -0.5418
  177SLPC    HS20069   2.902   3.939   7.232  0.6468  0.2111 -0.4214
  177SLPC   O2120070   3.003   3.891   7.060 -0.1514 -0.1988 -0.6323
  177SLPC   C2120071   2.908   3.805   7.021 -0.3142 -0.0609  0.7550
  177SLPC   O2220072   2.798   3.795   7.076  0.1204  0.6811 -0.2773
  177SLPC   C2220073   2.955   3.716   6.905  0.2014  0.3100  1.0655
  177SLPC   H2R20074   2.995   3.788   6.831 -0.4233 -0.6847 -0.2833
  177SLPC   H2S20075   3.032   3.649   6.949 -0.1131 -0.3825  0.5786
  177SLPC    C320076   2.860   4.095   7.092  0.4532 -0.6317 -0.3783
  177SLPC    HX20077   2.838   4.165   7.176  0.2053  0.2584 -1.1670
  177SLPC    HY20078   2.763   4.050   7.063  0.0741  1.1054 -2.0584
  177SLPC   O3120079   2.911   4.160   6.978 -0.5718  0.4362  0.0593
  177SLPC   C3120080   2.972   4.273   6.999 -0.3820  0.6421  0.1989
  177SLPC   O3220081   2.986   4.334   7.100  0.6634 -0.2577 -0.2153
  177SLPC   C3220082   3.032   4.329   6.867 -0.0427  0.2815  0.3486
  177SLPC   H2X20083   2.955   4.365   6.796 -0.1926  0.7844  0.7661
  177SLPC   H2Y20084   3.076   4.239   6.818 -2.7967 -2.2985  2.2798
  177SLPC   C2320085   2.836   3.633   6.849 -0.6509 -0.0519  0.2459
  177SLPC   H3R20086   2.752   3.695   6.811  0.2976  0.5485 -0.9372
  177SLPC   H3S20087   2.790   3.567   6.925 -2.3027  0.1601 -0.5439
  177SLPC   C2420088   2.881   3.563   6.723  0.1454  0.1301  0.5594
  177SLPC   H4R20089   2.932   3.469   6.754 -1.2891 -1.2562 -0.9986
  177SLPC   H4S20090   2.950   3.630   6.668 -0.0136  0.5149  0.8263
  177SLPC   C2520091   2.779   3.529   6.620 -0.2748  0.0075 -0.5546
  177SLPC   H5R20092   2.826   3.498   6.525 -0.9259  0.9041 -1.1832
  177SLPC   H5S20093   2.730   3.622   6.585 -2.0924 -0.2471  1.1395
  177SLPC   C2620094   2.690   3.418   6.664  0.3513 -0.3662  0.0805
  177SLPC   H6R20095   2.659   3.442   6.768  0.8252 -2.9858  0.9197
  177SLPC   H6S20096   2.750   3.324   6.674 -1.3595 -1.2937  2.7158
  177SLPC   C2720097   2.569   3.395   6.576  0.0488 -0.1032  0.0944
  177SLPC   H7R20098   2.529   3.296   6.605 -0.4903  0.0638 -0.0547
  177SLPC   H7S20099   2.600   3.388   6.469  1.8467  0.0120  0.5897
  177SLPC   C2820100   2.457   3.500   6.585 -0.1229 -0.5558 -0.0971
  177SLPC   H8R20101   2.381   3.457   6.516 -0.5499  1.3392 -0.8746
  177SLPC   H8S20102   2.494   3.594   6.538  3.3464 -1.5091  0.3911
  177SLPC   C2920103   2.390   3.515   6.721 -0.2254 -0.2772  0.2518
  177SLPC   H9R20104   2.344   3.419   6.749 -0.0467 -1.2005 -2.3366
  177SLPC  C21020105   2.402   3.624   6.799  0.6514  1.0257  0.2872
  177SLPC  H10R20106   2.349   3.629   6.896 -1.5203  0.9629 -0.8375
  177SLPC  C21120107   2.469   3.751   6.755  0.3444 -0.0355 -0.1600
  177SLPC  H11R20108   2.414   3.791   6.668 -0.2238 -1.2188 -0.3553
  177SLPC  H11S20109   2.569   3.720   6.717 -0.2998 -0.5616 -1.4969
  177SLPC  C21220110   2.489   3.856   6.864  0.1749  0.4482 -0.1683
  177SLPC  H12R20111   2.477   3.830   6.971  0.0971  0.9804 -0.0440
  177SLPC  C21320112   2.527   3.981   6.842 -0.1122 -0.6518 -0.3223
  177SLPC  H13R20113   2.524   4.048   6.929 -0.8729  0.5534 -1.2318
  177SLPC  C21420114   2.542   4.058   6.710 -0.1054 -0.2669 -0.4605
  177SLPC  H14R20115   2.537   4.167   6.731 -0.1488 -0.3426 -0.0510
  177SLPC  H14S20116   2.454   4.043   6.645 -1.2100  0.5003  0.8165
  177SLPC  C21520117   2.673   4.029   6.630  0.0209  0.3709  0.5130
  177SLPC  H15R20118   2.677   4.094   6.540  2.4652 -0.1412  0.1786
  177SLPC  H15S20119   2.678   3.922   6.601  0.1355  1.2483 -3.2352
  177SLPC  C21620120   2.795   4.067   6.707  0.3911  0.8402  0.3377
  177SLPC  H16R20121   2.810   3.987   6.782 -2.5350 -0.1234  0.0254
  177SLPC  H16S20122   2.786   4.170   6.746 -3.2758 -0.2112  2.7590
  177SLPC  C21720123   2.924   4.069   6.624 -0.9220 -0.2096 -0.3378
  177SLPC  H17R20124   3.003   4.094   6.698 -0.5288  0.6201 -1.0193
  177SLPC  H17S20125   2.925   4.161   6.562 -0.1018 -1.4477 -2.2622
  177SLPC  C21820126   2.959   3.945   6.544  0.4894  0.6723  0.3013
  177SLPC  H18R20127   2.874   3.937   6.473  1.0989 -0.7458 -0.3106
  177SLPC  H18S20128   2.968   3.856   6.611  0.3907  0.4206 -0.0170
  177SLPC  H18T20129   3.050   3.948   6.480  0.8137  1.9608  0.7823
  177SLPC   C3320130   3.155   4.430   6.886  0.3610 -0.0325 -0.4317
  177SLPC   H3X20131   3.240   4.389   6.945  0.6228 -2.3129 -2.2743
  177SLPC   H3Y20132   3.108   4.502   6.958 -0.0846  0.2985 -1.0436
  177SLPC   C3420133   3.183   4.486   6.751  0.1047  0.2512  0.1472
  177SLPC   H4X20134   3.215   4.591   6.768  0.0670  0.0941  1.2377
  177SLPC   H4Y20135   3.087   4.480   6.696  0.7694 -1.1255 -0.9287
  177SLPC   C3520136   3.287   4.417   6.656  0.1223 -0.0915  0.1770
  177SLPC   H5X20137   3.253   4.314   6.635  1.4178 -0.3044 -1.0311
  177SLPC   H5Y20138   3.385   4.427   6.708 -1.4412  1.4375  3.0973
  177SLPC   C3620139   3.289   4.482   6.519  0.2186  0.1370  0.2243
  177SLPC   H6X20140   3.376   4.437   6.466  0.6072  2.0895 -0.9115
  177SLPC   H6Y20141   3.295   4.593   6.516  0.8829  0.0945 -0.5317
  177SLPC   C3720142   3.173   4.440   6.420  0.3981  0.0337 -0.0794
  177SLPC   H7X20143   3.076   4.455   6.471 -0.2823 -1.8381 -0.7209
  177SLPC   H7Y20144   3.181   4.334   6.388  0.6185  0.5179 -1.6915
  177SLPC   C3820145   3.170   4.525   6.290  0.2989 -0.6282 -0.3448
  177SLPC   H8X20146   3.257   4.500   6.226 -0.5246  1.5393 -2.4881
  177SLPC   H8Y20147   3.192   4.632   6.312  0.5049 -0.3935 -1.5940
  177SLPC   C3920148   3.037   4.507   6.217 -0.1450  0.4568  0.6124
  177SLPC   H9X20149   3.025   4.587   6.140  1.4330 -0.8109 -1.0486
  177SLPC   H9Y20150   2.955   4.514   6.292  0.6768 -0.3027  1.5920
  177SLPC  C31020151   3.015   4.375   6.139  0.2533 -0.5686 -0.3918
  177SLPC  H10X20152   2.909   4.380   6.105  0.4216  1.0158 -0.7258
  177SLPC  H10Y20153   3.032   4.284   6.201 -1.6421 -1.2712 -0.8165
  177SLPC  C31120154   3.108   4.377   6.012 -0.1194 -0.3079 -0.4822
  177SLPC  H11X20155   3.207   4.330   6.034  0.2006 -0.0133 -1.2835
  177SLPC  H11Y20156   3.132   4.478   5.974 -0.4572 -0.0479 -0.0074
  177SLPC  C31220157   3.050   4.285   5.903  0.0292  0.6231  0.7752
  177SLPC  H12X20158   2.939   4.286   5.902 -0.0749 -2.2069 -1.0628
  177SLPC  H12Y20159   3.067   4.178   5.928 -3.1429  0.4966  3.0587
  177SLPC  C31320160   3.101   4.317   5.769  0.2829 -0.8112  1.1967
  177SLPC  H13X20161   3.126   4.424   5.753 -0.1875 -0.9624 -0.8768
  177SLPC  H13Y20162   3.032   4.294   5.685 -0.9334  1.2958  1.5288
  177SLPC  C31420163   3.230   4.226   5.736 -0.1109  0.1018 -0.0754
  177SLPC  H14X20164   3.194   4.124   5.759 -3.2239  0.9657 -0.5342
  177SLPC  H14Y20165   3.304   4.247   5.816  0.5053  1.0613 -0.8780
  177SLPC  C31520166   3.299   4.259   5.608  0.0080  0.0173  0.5097
  177SLPC  H15X20167   3.388   4.192   5.599  0.1055  0.3467 -1.5074
  177SLPC  H15Y20168   3.337   4.363   5.608 -3.6929  1.6481 -3.0334
  177SLPC  C31620169   3.199   4.235   5.489 -0.2820  0.2795 -0.7309
  177SLPC  H16X20170   3.240   4.260   5.389 -0.7878  1.2744 -0.7028
  177SLPC  H16Y20171   3.108   4.297   5.501  0.8048  2.3589 -2.4683
  177SLPC  C31720172   3.172   4.078   5.491  0.7040  0.3105  0.0372
  177SLPC  H17X20173   3.078   4.059   5.435 -0.0085 -0.0633  1.3237
  177SLPC  H17Y20174   3.141   4.036   5.589  1.9158 -1.8121 -0.4249
  177SLPC  C31820175   3.288   4.009   5.424  0.3157 -0.3657  0.5049
  177SLPC  H18X20176   3.310   4.044   5.321  1.0827 -0.8060  0.5052
  177SLPC  H18Y20177   3.270   3.899   5.421  0.6948 -0.4405  0.8538
  177SLPC  H18Z20178   3.383   4.036   5.475  0.8474  0.5708 -0.8996
  178SLPC     N20179   0.459   4.078   7.534  0.3059 -0.3449 -0.2224
  178SLPC   C1320180   0.494   3.943   7.485  0.1175  0.7703  0.2646
  178SLPC  H13A20181   0.435   3.915   7.399 -0.1516  1.3327  0.2661
  178SLPC  H13B20182   0.596   3.943   7.450 -0.2647  1.4180 -0.9003
  178SLPC  H13C20183   0.492   3.871   7.565  1.4920  1.0311  0.5544
  178SLPC   C1420184   0.312   4.074   7.565  0.0547 -0.2591  0.6162
  178SLPC  H14A20185   0.271   4.164   7.607  0.4340 -0.2992  1.0806
  178SLPC  H14B20186   0.269   4.040   7.471  4.2934 -3.6573 -0.4503
  178SLPC  H14C20187   0.285   3.994   7.632 -1.8650 -0.7813 -0.6885
  178SLPC   C1520188   0.496   4.186   7.432  0.1703  0.6830  0.2076
  178SLPC  H15A20189   0.599   4.174   7.401 -0.2200 -0.4402 -0.7276
  178SLPC  H15B20190   0.437   4.173   7.343  0.9089  1.1556 -0.3614
  178SLPC  H15C20191   0.482   4.287   7.468 -0.1491  0.7875 -0.2030
  178SLPC   C1220192   0.533   4.114   7.664  0.9701 -0.7804  0.7285
  178SLPC  H12A20193   0.493   4.048   7.739 -2.3597  0.8406  0.5983
  178SLPC  H12B20194   0.506   4.215   7.691  2.3361 -0.7289  1.9750
  178SLPC   C1120195   0.688   4.088   7.661  0.4128 -0.2336  0.2239
  178SLPC  H11A20196   0.707   3.978   7.670 -0.1068 -0.2289  1.7105
  178SLPC  H11B20197   0.723   4.128   7.759  2.4425 -4.2847  1.3863
  178SLPC     P20198   0.858   4.098   7.457 -0.5610 -0.0528 -0.3549
  178SLPC   O1320199   0.845   4.169   7.328  0.2821 -0.5112 -0.2711
  178SLPC   O1420200   0.996   4.084   7.511 -0.3323  0.4519 -0.0090
  178SLPC   O1220201   0.760   4.157   7.564  0.2304 -0.0260 -0.1481
  178SLPC   O1120202   0.810   3.952   7.441  0.0794 -0.6198  0.3602
  178SLPC    C120203   0.884   3.859   7.354 -0.4720 -0.3919 -0.8164
  178SLPC    HA20204   0.993   3.879   7.358 -0.2449 -1.7433  1.7168
  178SLPC    HB20205   0.875   3.758   7.400 -0.3735 -0.1171 -0.1807
  178SLPC    C220206   0.839   3.841   7.207 -0.5947  0.7775 -0.0696
  178SLPC    HS20207   0.897   3.757   7.163 -1.5918  1.0742 -2.0464
  178SLPC   O2120208   0.839   3.960   7.123 -0.3033  0.2699  0.4010
  178SLPC   C2120209   0.965   3.993   7.081 -0.1927 -0.0544  0.1218
  178SLPC   O2220210   1.064   3.937   7.126  0.3986 -0.5799  0.4994
  178SLPC   C2220211   0.953   4.099   6.976 -0.2441  0.0573  0.1996
  178SLPC   H2R20212   0.853   4.103   6.929 -0.3625  3.1284  0.5300
  178SLPC   H2S20213   0.963   4.196   7.028 -1.1923 -0.7722  2.0352
  178SLPC    C320214   0.691   3.792   7.206 -0.5901  0.1119  0.4406
  178SLPC    HX20215   0.623   3.872   7.242  0.3664  1.4320 -0.5777
  178SLPC    HY20216   0.678   3.706   7.275  2.0789  0.3079  1.2792
  178SLPC   O3120217   0.657   3.757   7.072  0.5499 -0.1566  0.6534
  178SLPC   C3120218   0.599   3.844   6.993 -0.3011  0.3253  0.7211
  178SLPC   O3220219   0.568   3.957   7.029  0.3204 -0.1578 -0.1485
  178SLPC   C3220220   0.573   3.781   6.854 -0.1797 -0.2498  0.6635
  178SLPC   H2X20221   0.536   3.677   6.866  1.1377 -0.6357  1.5297
  178SLPC   H2Y20222   0.673   3.768   6.809 -0.4973 -2.3373  0.4553
  178SLPC   C2320223   1.053   4.076   6.861 -0.2615 -0.0138 -0.2113
  178SLPC   H3R20224   1.160   4.068   6.889  0.1184  0.6345 -1.4097
  178SLPC   H3S20225   1.053   4.172   6.805  0.2606  0.1104 -0.0060
  178SLPC   C2420226   1.034   3.960   6.764  0.1745  0.2977  0.4014
  178SLPC   H4R20227   1.047   3.874   6.834 -3.2695  0.9427  2.0579
  178SLPC   H4S20228   1.122   3.973   6.697  0.2650  0.9702  0.6415
  178SLPC   C2520229   0.907   3.957   6.676 -0.8603 -0.1049 -0.3418
  178SLPC   H5R20230   0.819   3.983   6.738  0.2385  2.2407  0.3091
  178SLPC   H5S20231   0.898   3.854   6.633 -1.0410 -0.5929  0.8361
  178SLPC   C2620232   0.909   4.060   6.566  0.3544 -0.3606  0.1777
  178SLPC   H6R20233   1.009   4.070   6.518  0.4129  0.5651  0.4645
  178SLPC   H6S20234   0.883   4.166   6.590  0.1196 -0.9267  2.6558
  178SLPC   C2720235   0.804   4.022   6.450 -0.6580  0.2743 -0.3244
  178SLPC   H7R20236   0.707   4.035   6.504 -1.0996 -0.6759 -0.8775
  178SLPC   H7S20237   0.826   3.916   6.427  0.4244  0.6602 -1.1655
  178SLPC   C2820238   0.807   4.119   6.329 -0.3812  0.1829 -0.1855
  178SLPC   H8R20239   0.908   4.110   6.284 -1.2130  1.5920 -2.5114
  178SLPC   H8S20240   0.795   4.225   6.360 -1.6986 -0.3666  1.3410
  178SLPC   C2920241   0.689   4.093   6.242 -0.0898  0.0785  0.1698
  178SLPC   H9R20242   0.597   4.063   6.295  1.9739 -2.8967  2.4235
  178SLPC  C21020243   0.680   4.116   6.106 -0.1744  1.5422 -0.3275
  178SLPC  H10R20244   0.588   4.079   6.058 -0.4248  0.7912  0.6994
  178SLPC  C21120245   0.790   4.153   6.013 -0.1373  0.1722  0.4049
  178SLPC  H11R20246   0.826   4.061   5.962  1.0601  0.9079 -0.1194
  178SLPC  H11S20247   0.878   4.182   6.074  1.1347  0.2337 -1.3736
  178SLPC  C21220248   0.736   4.264   5.924 -0.4774 -0.2930  0.1192
  178SLPC  H12R20249   0.674   4.242   5.836 -1.3873  1.8520  0.1627
  178SLPC  C21320250   0.748   4.400   5.956 -0.4816 -0.0611  1.5666
  178SLPC  H13R20251   0.679   4.464   5.899 -1.4765 -2.3835 -0.0486
  178SLPC  C21420252   0.834   4.464   6.065  0.0655 -0.2083 -0.0841
  178SLPC  H14R20253   0.894   4.551   6.031  2.3328 -1.8379 -0.4687
  178SLPC  H14S20254   0.915   4.397   6.099  3.0676  3.0390 -0.3140
  178SLPC  C21520255   0.765   4.499   6.201 -0.3512  0.4526  0.1028
  178SLPC  H15R20256   0.726   4.408   6.249 -1.1055  0.3268 -0.7300
  178SLPC  H15S20257   0.689   4.575   6.174  0.7975  1.0048 -1.8010
  178SLPC  C21620258   0.865   4.563   6.300  0.5750 -0.2550  0.6723
  178SLPC  H16R20259   0.881   4.665   6.258  1.2665 -1.3626 -1.9473
  178SLPC  H16S20260   0.951   4.495   6.286  0.3419 -0.0684 -2.5907
  178SLPC  C21720261   0.817   4.558   6.443  0.2176 -0.7888 -0.2071
  178SLPC  H17R20262   0.804   4.451   6.472 -0.9808 -1.2672 -2.2639
  178SLPC  H17S20263   0.724   4.616   6.460  1.4318  0.6462  1.9775
  178SLPC  C21820264   0.917   4.628   6.539  0.9188 -0.2583  0.0874
  178SLPC  H18R20265   0.935   4.736   6.517 -0.7542 -0.2912 -1.7410
  178SLPC  H18S20266   1.020   4.589   6.532  0.8178 -1.0793  2.3350
  178SLPC  H18T20267   0.890   4.611   6.645 -0.3791 -2.2874 -0.5201
  178SLPC   C3320268   0.466   3.843   6.760  0.3650 -0.5950 -0.1658
  178SLPC   H3X20269   0.473   3.788   6.664  0.2677 -0.0679 -0.4807
  178SLPC   H3Y20270   0.506   3.944   6.738  0.2792 -0.5348 -0.0477
  178SLPC   C3420271   0.325   3.859   6.825  0.5895 -0.4097 -0.5321
  178SLPC   H4X20272   0.330   3.908   6.925  1.3821 -0.6905 -0.4288
  178SLPC   H4Y20273   0.294   3.753   6.839 -1.5610  0.3075  0.7559
  178SLPC   C3520274   0.230   3.932   6.734 -0.3638  0.0092  0.3500
  178SLPC   H5X20275   0.250   4.041   6.745 -0.5079  0.2678 -1.6711
  178SLPC   H5Y20276   0.129   3.922   6.779  0.3945  1.3300  2.4977
  178SLPC   C3620277   0.242   3.893   6.584  0.0018  0.3623  0.4175
  178SLPC   H6X20278   0.215   3.787   6.566 -0.5501  0.8328 -1.8328
  178SLPC   H6Y20279   0.346   3.910   6.551  0.6864 -3.8466 -0.0795
  178SLPC   C3720280   0.151   3.979   6.491 -0.0149 -0.4338 -0.6211
  178SLPC   H7X20281   0.168   4.088   6.507 -0.5277 -0.3245 -0.7688
  178SLPC   H7Y20282   0.043   3.970   6.518  0.7334 -2.2076  2.1342
  178SLPC   C3820283   0.172   3.947   6.342  0.2812  0.4461  0.3600
  178SLPC   H8X20284   0.151   3.839   6.333 -2.5068  0.9589 -0.3544
  178SLPC   H8Y20285   0.279   3.972   6.325  0.2307 -0.8088 -2.3451
  178SLPC   C3920286   0.068   4.010   6.249 -0.5010  0.0382 -0.5508
  178SLPC   H9X20287   0.037   4.111   6.284  2.1973  0.5325  0.7210
  178SLPC   H9Y20288  -0.024   3.949   6.237 -1.3140  1.5704 -2.5941
  178SLPC  C31020289   0.126   4.024   6.106  0.6377  0.2969  0.2692
  178SLPC  H10X20290   0.125   3.921   6.065 -2.2682  0.2497  0.2879
  178SLPC  H10Y20291   0.226   4.072   6.109  0.5355  0.4655  1.6589
  178SLPC  C31120292   0.036   4.103   6.008  0.5195  0.0877 -0.6432
  178SLPC  H11X20293   0.069   4.204   6.038  0.9300 -0.3875  0.6009
  178SLPC  H11Y20294  -0.071   4.077   6.022  1.1117 -1.3024  1.9956
  178SLPC  C31220295   0.083   4.091   5.866  0.0808  0.0405 -0.5028
  178SLPC  H12X20296   0.097   3.985   5.837 -0.4837 -0.4111  0.8081
  178SLPC  H12Y20297   0.183   4.137   5.851 -0.0477  1.8988  3.1636
  178SLPC  C31320298  -0.012   4.146   5.757  0.3461 -0.3223  0.9787
  178SLPC  H13X20299   0.046   4.114   5.668  0.6815 -1.0069  1.4405
  178SLPC  H13Y20300  -0.007   4.257   5.749 -1.1139 -0.1725  1.8548
  178SLPC  C31420301  -0.153   4.090   5.744 -0.1919 -0.3414  0.0935
  178SLPC  H14X20302  -0.185   4.114   5.640 -0.0960 -0.0810  0.1225
  178SLPC  H14Y20303  -0.223   4.145   5.810 -0.4221  1.3489 -1.4567
  178SLPC  C31520304  -0.169   3.940   5.750 -0.7226 -0.0029 -0.7698
  178SLPC  H15X20305  -0.081   3.896   5.802 -0.3210  0.0214 -1.4186
  178SLPC  H15Y20306  -0.157   3.891   5.651  0.7236 -1.7465  0.2002
  178SLPC  C31620307  -0.297   3.910   5.828  0.2973 -0.0179  0.1353
  178SLPC  H16X20308  -0.332   3.967   5.916 -0.7950 -2.3373  1.3132
  178SLPC  H16Y20309  -0.284   3.804   5.861  0.4102 -0.5774 -1.5943
  178SLPC  C31720310  -0.414   3.920   5.725  0.2680 -0.1028 -0.0150
  178SLPC  H17X20311  -0.419   4.022   5.681 -2.5511 -0.8090 -1.5435
  178SLPC  H17Y20312  -0.514   3.908   5.771  0.6799 -2.7832  0.3395
  178SLPC  C31820313  -0.414   3.822   5.603  0.2378  0.0477 -0.0945
  178SLPC  H18X20314  -0.402   3.720   5.645 -0.8738 -0.2342 -0.4360
  178SLPC  H18Y20315  -0.328   3.849   5.538  2.1296  0.5153  2.4253
  178SLPC  H18Z20316  -0.506   3.824   5.541  0.8103  0.0273 -0.9566
  179SLPC     N20317   5.372   2.369   3.060 -0.4502  0.3827 -0.0994
  179SLPC   C1320318   5.415   2.491   2.986 -0.0002  0.0828  0.1399
  179SLPC  H13A20319   5.382   2.492   2.884 -1.3180  3.0639  0.5012
  179SLPC  H13B20320   5.374   2.581   3.030 -0.2171  1.0704 -1.9743
  179SLPC  H13C20321   5.523   2.496   2.989  0.1061 -0.5577 -1.6503
  179SLPC   C1420322   5.412   2.245   2.982  0.0320  0.0024 -0.1097
  179SLPC  H14A20323   5.353   2.247   2.891  0.8608  3.1598 -0.6996
  179SLPC  H14B20324   5.515   2.245   2.951 -0.3011  1.6828 -1.3538
  179SLPC  H14C20325   5.412   2.159   3.047 -1.4674 -0.3761 -0.5582
  179SLPC   C1520326   5.219   2.376   3.079 -0.2722 -0.0601 -0.3089
  179SLPC  H15A20327   5.171   2.382   2.982 -0.1043 -0.5732 -0.4243
  179SLPC  H15B20328   5.171   2.302   3.142  0.9965 -0.1008  0.6515
  179SLPC  H15C20329   5.206   2.466   3.137  0.4160 -0.8573  1.1530
  179SLPC   C1220330   5.431   2.365   3.203 -0.2004 -0.2783  0.5088
  179SLPC  H12A20331   5.387   2.280   3.252 -0.1755 -1.4707 -1.4498
  179SLPC  H12B20332   5.405   2.456   3.256 -1.7068 -0.7531  0.6340
  179SLPC   C1120333   5.588   2.360   3.209  0.6886  0.0579 -0.3687
  179SLPC  H11A20334   5.625   2.264   3.167  0.6651 -1.0551  1.9605
  179SLPC  H11B20335   5.609   2.354   3.318 -1.2233 -1.4577 -0.0312
  179SLPC     P20336   5.666   2.613   3.195 -0.2940  0.1827  0.2447
  179SLPC   O1320337   5.608   2.709   3.100 -0.5084 -0.4376  0.6542
  179SLPC   O1420338   5.614   2.621   3.337  0.2094  0.2165  0.7043
  179SLPC   O1220339   5.644   2.466   3.143 -0.3678 -0.1011  0.0213
  179SLPC   O1120340   5.822   2.624   3.203  0.3136 -0.0366 -0.2406
  179SLPC    C120341   5.896   2.520   3.271 -0.1406 -0.2526  0.1506
  179SLPC    HA20342   5.855   2.422   3.236 -0.1948 -0.0333 -0.4117
  179SLPC    HB20343   6.001   2.528   3.235  0.2390 -0.5447  1.1634
  179SLPC    C220344   5.887   2.530   3.433 -0.2605 -0.3084  0.1163
  179SLPC    HS20345   5.781   2.501   3.452  0.0382 -1.1233  0.6213
  179SLPC   O2120346   5.911   2.663   3.467 -0.1440 -0.6645  0.3269
  179SLPC   C2120347   5.843   2.706   3.573  0.2076  0.6158  0.2184
  179SLPC   O2220348   5.761   2.640   3.636 -0.3622  0.1671  0.1284
  179SLPC   C2220349   5.893   2.844   3.619 -0.5990  0.6439  0.2394
  179SLPC   H2R20350   5.998   2.841   3.656 -0.8555  0.1360  0.9455
  179SLPC   H2S20351   5.888   2.915   3.534  0.1183  0.2367 -0.1514
  179SLPC    C320352   5.999   2.440   3.493 -0.2431  0.2267  0.1620
  179SLPC    HX20353   6.097   2.468   3.450  0.4822 -0.2346  1.4689
  179SLPC    HY20354   5.978   2.342   3.445 -2.5705  0.6470  0.2128
  179SLPC   O3120355   5.994   2.436   3.641 -0.4897 -0.2999 -0.5964
  179SLPC   C3120356   6.086   2.517   3.696  0.0183  0.0609 -0.3752
  179SLPC   O3220357   6.156   2.599   3.636  0.1741 -0.1483  0.0311
  179SLPC   C3220358   6.072   2.506   3.854 -1.1076  0.0982  0.3500
  179SLPC   H2X20359   6.127   2.412   3.876  0.5996  1.3512  1.7777
  179SLPC   H2Y20360   5.963   2.503   3.875 -1.5634  4.0972 -0.7417
  179SLPC   C2320361   5.799   2.903   3.724 -0.9458 -0.1405  0.8273
  179SLPC   H3R20362   5.695   2.901   3.685 -0.2922 -0.1144 -1.0286
  179SLPC   H3S20363   5.828   3.009   3.741  1.6110 -0.3540 -1.4416
  179SLPC   C2420364   5.809   2.832   3.856 -0.3345  0.8472 -0.2943
  179SLPC   H4R20365   5.907   2.856   3.902  0.5312 -2.1757 -0.3518
  179SLPC   H4S20366   5.808   2.722   3.848 -0.0374  0.8864 -0.9774
  179SLPC   C2520367   5.697   2.874   3.946  0.3045 -0.0029 -0.4708
  179SLPC   H5R20368   5.611   2.901   3.881 -0.9901 -2.9249 -0.1248
  179SLPC   H5S20369   5.729   2.962   4.005  0.4096 -0.9221  0.8780
  179SLPC   C2620370   5.637   2.761   4.037 -0.0445 -0.6480  0.2209
  179SLPC   H6R20371   5.614   2.675   3.970  3.4795 -0.2145 -1.7842
  179SLPC   H6S20372   5.541   2.790   4.085 -0.4106  0.3932 -1.0895
  179SLPC   C2720373   5.736   2.710   4.142  0.1078  0.1400  0.0769
  179SLPC   H7R20374   5.833   2.694   4.091  0.4804  1.6075  0.2774
  179SLPC   H7S20375   5.714   2.608   4.181  0.4680  0.2491  0.5692
  179SLPC   C2820376   5.752   2.808   4.262  0.4212  0.4320 -0.0488
  179SLPC   H8R20377   5.797   2.907   4.236 -1.4348  1.2924 -0.1057
  179SLPC   H8S20378   5.835   2.766   4.323  1.3010  0.1474 -1.4089
  179SLPC   C2920379   5.632   2.819   4.353 -0.3297  0.5550 -0.8109
  179SLPC   H9R20380   5.533   2.855   4.321 -1.1577  1.3446  2.3160
  179SLPC  C21020381   5.622   2.776   4.483  0.3692  0.0643  0.4989
  179SLPC  H10R20382   5.522   2.786   4.527 -0.5472  1.3697 -1.7431
  179SLPC  C21120383   5.734   2.730   4.575  0.7938 -0.0796 -0.2213
  179SLPC  H11R20384   5.830   2.714   4.522  1.0287  2.0003 -0.4932
  179SLPC  H11S20385   5.705   2.635   4.624  0.5262  0.9350  1.6977
  179SLPC  C21220386   5.768   2.837   4.671  0.1294 -0.3185  0.5378
  179SLPC  H12R20387   5.862   2.888   4.644  0.4603 -1.1436  0.1173
  179SLPC  C21320388   5.702   2.863   4.783 -0.0834 -0.2589  0.2210
  179SLPC  H13R20389   5.741   2.941   4.849 -1.6147 -0.1203  1.0064
  179SLPC  C21420390   5.570   2.818   4.838  0.1067 -0.0603  0.0230
  179SLPC  H14R20391   5.509   2.753   4.771 -0.1583  0.4394 -0.2275
  179SLPC  H14S20392   5.507   2.905   4.866  0.9602  0.9576 -1.0919
  179SLPC  C21520393   5.583   2.744   4.971  0.3098  0.1174 -0.8278
  179SLPC  H15R20394   5.482   2.717   5.008 -0.2990 -0.7818 -2.9579
  179SLPC  H15S20395   5.635   2.806   5.046 -1.6437  1.0482 -0.1903
  179SLPC  C21620396   5.671   2.615   4.969 -0.2360 -0.0159 -0.0981
  179SLPC  H16R20397   5.774   2.638   4.936 -0.2787  0.5195  0.1263
  179SLPC  H16S20398   5.617   2.551   4.896  0.0672 -0.7282  0.2899
  179SLPC  C21720399   5.672   2.546   5.107 -0.0514  0.2495 -0.0205
  179SLPC  H17R20400   5.571   2.523   5.148  0.5958 -0.9472  0.9615
  179SLPC  H17S20401   5.715   2.621   5.176 -1.2267  0.9112  0.0178
  179SLPC  C21820402   5.762   2.423   5.107 -0.1812  0.1497 -0.8140
  179SLPC  H18R20403   5.713   2.332   5.067 -0.1371 -0.2778  0.0859
  179SLPC  H18S20404   5.794   2.402   5.211 -2.3260  1.6292  0.2170
  179SLPC  H18T20405   5.848   2.437   5.037 -1.3014 -0.7330 -2.4385
  179SLPC   C3320406   6.143   2.611   3.929  0.1168 -1.2321 -0.5035
  179SLPC   H3X20407   6.092   2.710   3.920 -0.6571 -1.6744 -1.1602
  179SLPC   H3Y20408   6.244   2.621   3.886  0.4964  3.3817  0.9242
  179SLPC   C3420409   6.140   2.575   4.078 -0.3278 -0.4346  0.2876
  179SLPC   H4X20410   6.218   2.498   4.096  1.7059  1.1556 -1.2198
  179SLPC   H4Y20411   6.053   2.510   4.100  0.5309 -2.0970 -0.9835
  179SLPC   C3520412   6.155   2.695   4.177 -0.0823 -1.0498 -0.5124
  179SLPC   H5X20413   6.230   2.772   4.149  1.0304 -2.2168 -0.7894
  179SLPC   H5Y20414   6.059   2.751   4.177 -0.0686 -0.9935 -1.6949
  179SLPC   C3620415   6.183   2.643   4.324  0.4346 -0.4508  0.4418
  179SLPC   H6X20416   6.289   2.611   4.317  0.1845 -1.0112 -1.9215
  179SLPC   H6Y20417   6.118   2.558   4.355  0.2975 -0.8249 -0.7952
  179SLPC   C3720418   6.170   2.750   4.432  0.1466  0.3247 -0.1739
  179SLPC   H7X20419   6.067   2.792   4.435  0.3521  1.0134 -1.7330
  179SLPC   H7Y20420   6.230   2.843   4.424  0.3357  0.1409 -0.9426
  179SLPC   C3820421   6.193   2.696   4.577 -0.0922 -0.1176 -0.8701
  179SLPC   H8X20422   6.280   2.626   4.568 -0.4295 -0.7331  0.3326
  179SLPC   H8Y20423   6.098   2.640   4.592  0.1298 -0.0242  1.2659
  179SLPC   C3920424   6.212   2.792   4.693  0.0374 -0.3613  0.1118
  179SLPC   H9X20425   6.113   2.843   4.701 -0.7143 -1.1670 -2.8207
  179SLPC   H9Y20426   6.296   2.857   4.662  2.0767 -2.9884 -0.2059
  179SLPC  C31020427   6.255   2.724   4.823  0.0143  0.0509 -0.3986
  179SLPC  H10X20428   6.352   2.672   4.807  1.8448  3.1625 -0.2619
  179SLPC  H10Y20429   6.175   2.649   4.840 -1.2457  1.7847  1.9479
  179SLPC  C31120430   6.263   2.821   4.951 -0.2030  0.0213 -0.4241
  179SLPC  H11X20431   6.298   2.923   4.923 -3.1526  1.5900  1.1450
  179SLPC  H11Y20432   6.345   2.792   5.020 -0.1520  1.7205  0.2895
  179SLPC  C31220433   6.131   2.844   5.020  0.1978  0.2660  0.1083
  179SLPC  H12X20434   6.048   2.819   4.951  0.1242  1.1282 -0.1285
  179SLPC  H12Y20435   6.123   2.953   5.037 -1.2209  0.8423 -3.4067
  179SLPC  C31320436   6.120   2.756   5.153  0.0585  0.1329 -0.1430
  179SLPC  H13X20437   6.215   2.754   5.210 -0.8989 -1.5615  1.5053
  179SLPC  H13Y20438   6.101   2.650   5.124 -2.9413 -0.1880  2.4365
  179SLPC  C31420439   6.001   2.794   5.242  0.0794  0.1629  0.3116
  179SLPC  H14X20440   5.986   2.715   5.319  0.1218 -0.0449  0.1081
  179SLPC  H14Y20441   5.915   2.794   5.171 -0.0679 -3.7263  0.2655
  179SLPC  C31520442   6.020   2.922   5.324  0.9197 -1.0502  0.4426
  179SLPC  H15X20443   5.918   2.951   5.356  0.8565 -0.4046 -0.3043
  179SLPC  H15Y20444   6.067   3.007   5.270  0.4813 -0.3011  1.2139
  179SLPC  C31620445   6.117   2.903   5.440  0.1085  0.9293 -0.2189
  179SLPC  H16X20446   6.220   2.874   5.411  1.3037 -0.1797  4.2832
  179SLPC  H16Y20447   6.068   2.823   5.500 -0.0437  0.7961 -0.5177
  179SLPC  C31720448   6.135   3.026   5.533 -0.2613 -0.4618 -0.3754
  179SLPC  H17X20449   6.159   2.987   5.634 -1.3487 -1.7777 -0.5942
  179SLPC  H17Y20450   6.046   3.092   5.537  0.1960  0.1131  1.0220
  179SLPC  C31820451   6.251   3.116   5.500 -0.6179  0.2089  0.0900
  179SLPC  H18X20452   6.334   3.044   5.515  0.2289  1.3298  1.0222
  179SLPC  H18Y20453   6.259   3.203   5.569  1.0298 -0.5785  0.9492
  179SLPC  H18Z20454   6.241   3.151   5.395 -0.7492  2.7656  0.8921
  180SLPC     N20455   4.148   5.543   3.078  0.4085  0.4221  0.0048
  180SLPC   C1320456   4.224   5.425   3.134 -0.2717 -0.3028  0.2369
  180SLPC  H13A20457   4.288   5.448   3.218 -2.2330  3.2875  0.9681
  180SLPC  H13B20458   4.152   5.364   3.187  0.1269 -0.4091  0.6639
  180SLPC  H13C20459   4.275   5.361   3.064 -1.7397 -3.2429  1.6754
  180SLPC   C1420460   4.050   5.497   2.966 -0.0397 -0.2439 -0.3456
  180SLPC  H14A20461   4.000   5.576   2.913 -1.4820 -1.7052 -1.2899
  180SLPC  H14B20462   4.114   5.470   2.884  0.5294  0.4321 -0.1277
  180SLPC  H14C20463   3.985   5.420   3.007  1.4085 -0.7042  1.2078
  180SLPC   C1520464   4.240   5.641   3.011 -0.2150  0.3567  0.3002
  180SLPC  H15A20465   4.280   5.703   3.090  2.5561 -2.4170  1.2766
  180SLPC  H15B20466   4.332   5.603   2.969 -0.1361  1.2878 -0.3973
  180SLPC  H15C20467   4.198   5.706   2.935 -0.8088  0.3448  0.6110
  180SLPC   C1220468   4.058   5.602   3.181  0.1119 -0.4930 -0.6106
  180SLPC  H12A20469   3.984   5.531   3.214 -0.0381 -0.3169 -0.5656
  180SLPC  H12B20470   4.007   5.684   3.133  1.1828  0.5552 -0.0078
  180SLPC   C1120471   4.118   5.666   3.306  0.1678  0.1694 -0.3079
  180SLPC  H11A20472   4.188   5.596   3.356 -0.5838 -0.5576 -0.2667
  180SLPC  H11B20473   4.035   5.692   3.374  0.6825 -2.4856  1.4794
  180SLPC     P20474   4.097   5.919   3.247  0.4268 -0.0532  0.2595
  180SLPC   O1320475   4.187   6.033   3.209  0.0819  0.1931  0.1586
  180SLPC   O1420476   3.988   5.885   3.153  0.3196  0.6402  0.2124
  180SLPC   O1220477   4.179   5.784   3.271 -0.4946 -0.4978 -0.6888
  180SLPC   O1120478   4.029   5.951   3.388 -0.3099 -0.2947  0.0779
  180SLPC    C120479   4.015   6.085   3.432 -0.0504 -0.2698 -1.1365
  180SLPC    HA20480   4.037   6.163   3.356 -1.1706  1.9971  0.7531
  180SLPC    HB20481   3.908   6.095   3.457 -0.1804 -0.5512 -1.5732
  180SLPC    C220482   4.111   6.117   3.551  0.1465 -0.7008  0.0494
  180SLPC    HS20483   4.218   6.089   3.538 -0.7720 -3.8947 -1.6508
  180SLPC   O2120484   4.065   6.045   3.665  0.1244 -0.2803  0.0978
  180SLPC   C2120485   4.146   5.952   3.711  0.0730 -0.6219 -0.2984
  180SLPC   O2220486   4.252   5.917   3.663 -0.5108  0.2616  0.1436
  180SLPC   C2220487   4.101   5.905   3.847 -0.3305 -0.1833 -0.0017
  180SLPC   H2R20488   4.090   6.000   3.905 -1.5591 -0.7112  0.6834
  180SLPC   H2S20489   4.002   5.855   3.841  0.0841 -1.4655  2.4286
  180SLPC    C320490   4.106   6.267   3.593  1.0048 -0.8061  0.2948
  180SLPC    HX20491   3.998   6.294   3.594  0.2732 -3.3638 -0.0646
  180SLPC    HY20492   4.141   6.322   3.503  2.1009 -1.6694  0.1734
  180SLPC   O3120493   4.164   6.294   3.730  0.0878  0.5190 -0.8293
  180SLPC   C3120494   4.290   6.314   3.725  0.5810 -0.4759 -0.1906
  180SLPC   O3220495   4.350   6.353   3.624  0.2874 -0.0171 -0.2265
  180SLPC   C3220496   4.355   6.300   3.860 -0.1882  0.1340 -0.2967
  180SLPC   H2X20497   4.462   6.275   3.846 -0.6644 -2.0098 -0.3589
  180SLPC   H2Y20498   4.318   6.208   3.911 -0.2131  0.7750  0.8735
  180SLPC   C2320499   4.207   5.819   3.918 -0.8997 -0.0590 -0.8918
  180SLPC   H3R20500   4.298   5.880   3.932 -2.9405  2.4452  4.3813
  180SLPC   H3S20501   4.221   5.721   3.868  1.6161 -0.7770  1.0138
  180SLPC   C2420502   4.157   5.771   4.053 -0.1382 -0.4826 -0.3036
  180SLPC   H4R20503   4.111   5.866   4.089  0.2687 -0.2263 -0.4518
  180SLPC   H4S20504   4.239   5.745   4.123 -0.9390  1.0324  1.2867
  180SLPC   C2520505   4.047   5.659   4.042 -0.5382 -0.1531  0.1786
  180SLPC   H5R20506   4.108   5.567   4.029 -0.0103  0.2457 -0.2197
  180SLPC   H5S20507   3.972   5.680   3.963  1.2456  1.3359 -1.2219
  180SLPC   C2620508   3.953   5.628   4.158 -0.5425 -0.4530 -0.5015
  180SLPC   H6R20509   4.025   5.590   4.233 -2.5123 -3.1272  0.2185
  180SLPC   H6S20510   3.893   5.536   4.139  1.9494 -2.6153  1.4628
  180SLPC   C2720511   3.873   5.744   4.223 -0.6882 -0.5790 -0.0093
  180SLPC   H7R20512   3.800   5.793   4.156 -1.2981 -1.9107 -0.3441
  180SLPC   H7S20513   3.945   5.817   4.267  0.9624 -2.4190  0.5220
  180SLPC   C2820514   3.791   5.696   4.345  0.2893  0.0138 -0.3421
  180SLPC   H8R20515   3.869   5.661   4.416 -0.5019 -0.0221  0.5355
  180SLPC   H8S20516   3.724   5.609   4.326  2.3704 -1.7862  0.1242
  180SLPC   C2920517   3.722   5.799   4.419  0.0036 -0.0416  0.2762
  180SLPC   H9R20518   3.795   5.876   4.450  0.5419 -0.9342  1.2756
  180SLPC  C21020519   3.593   5.838   4.421  0.6734  0.5608  0.4776
  180SLPC  H10R20520   3.552   5.922   4.479 -0.7451 -0.0546  0.4136
  180SLPC  C21120521   3.477   5.748   4.379 -0.2895 -0.2023  0.3956
  180SLPC  H11R20522   3.506   5.641   4.389 -0.3561 -0.1565  1.1322
  180SLPC  H11S20523   3.464   5.759   4.270  0.7352  1.1275  0.3932
  180SLPC  C21220524   3.345   5.773   4.446 -0.2719 -0.7995 -0.4766
  180SLPC  H12R20525   3.305   5.875   4.448  2.5019  0.3947 -1.5698
  180SLPC  C21320526   3.272   5.673   4.498 -0.1589 -0.0819  0.1839
  180SLPC  H13R20527   3.182   5.704   4.554 -0.0106 -0.7094  0.7870
  180SLPC  C21420528   3.305   5.519   4.508  0.2700 -0.2574  0.0737
  180SLPC  H14R20529   3.412   5.511   4.538  0.7134 -0.1493 -1.3926
  180SLPC  H14S20530   3.283   5.466   4.413 -2.6335 -0.1286  0.5901
  180SLPC  C21520531   3.217   5.450   4.618 -0.1812  0.0682  0.3528
  180SLPC  H15R20532   3.119   5.424   4.572 -0.6101  2.0470  0.0877
  180SLPC  H15S20533   3.202   5.526   4.697  3.3880 -0.8018  2.0492
  180SLPC  C21620534   3.292   5.333   4.685 -0.1934  0.0309 -0.2321
  180SLPC  H16R20535   3.391   5.367   4.722 -0.4271 -0.6771  1.0664
  180SLPC  H16S20536   3.308   5.251   4.611  0.9109 -0.1593  0.2003
  180SLPC  C21720537   3.219   5.285   4.803 -0.0547 -0.0654 -0.0276
  180SLPC  H17R20538   3.116   5.252   4.779  0.2065 -0.5553 -0.4962
  180SLPC  H17S20539   3.204   5.355   4.887 -1.8923 -1.4559  0.8679
  180SLPC  C21820540   3.296   5.167   4.868  0.5071  0.1696 -0.5621
  180SLPC  H18R20541   3.292   5.077   4.803  0.5464 -0.2037 -0.0527
  180SLPC  H18S20542   3.253   5.144   4.968 -0.0298 -1.8372 -1.1913
  180SLPC  H18T20543   3.401   5.197   4.887 -0.0632  2.3481 -0.5754
  180SLPC   C3320544   4.333   6.423   3.950 -0.0425 -0.9556 -0.1660
  180SLPC   H3X20545   4.231   6.458   3.922  0.2163 -1.0000 -1.2025
  180SLPC   H3Y20546   4.400   6.507   3.921  0.2717 -1.1766 -0.0851
  180SLPC   C3420547   4.334   6.392   4.100  0.3119  0.1877 -0.1458
  180SLPC   H4X20548   4.426   6.332   4.122 -0.4667 -2.0543 -2.4836
  180SLPC   H4Y20549   4.250   6.322   4.119  0.9273 -0.3068  0.9077
  180SLPC   C3520550   4.305   6.517   4.183 -0.2507  0.3847  0.5806
  180SLPC   H5X20551   4.198   6.545   4.168 -0.8040 -1.2001  1.3326
  180SLPC   H5Y20552   4.371   6.601   4.152  1.7789 -1.4396 -0.2948
  180SLPC   C3620553   4.339   6.489   4.329 -0.7171 -0.8608 -0.4497
  180SLPC   H6X20554   4.273   6.414   4.379 -1.1308  0.0903  0.4875
  180SLPC   H6Y20555   4.317   6.586   4.378  1.2150 -0.5169 -0.1920
  180SLPC   C3720556   4.489   6.461   4.346 -0.6552  0.1955  0.4928
  180SLPC   H7X20557   4.542   6.508   4.261  0.3313  1.2529  1.6395
  180SLPC   H7Y20558   4.487   6.352   4.325 -0.0650  0.0519  1.1263
  180SLPC   C3820559   4.555   6.491   4.479 -0.1023 -0.1869 -0.0323
  180SLPC   H8X20560   4.548   6.601   4.488 -0.0585 -0.2490  0.8492
  180SLPC   H8Y20561   4.663   6.464   4.483 -0.0811  0.0863  2.3958
  180SLPC   C3920562   4.477   6.422   4.593  0.1022  0.1597 -0.2016
  180SLPC   H9X20563   4.459   6.313   4.579  4.6483 -0.6508 -1.3051
  180SLPC   H9Y20564   4.379   6.475   4.594 -0.0280  0.0157 -1.8283
  180SLPC  C31020565   4.547   6.432   4.729 -0.4928 -0.3113 -0.1256
  180SLPC  H10X20566   4.479   6.396   4.810  0.3002  1.4077  1.3776
  180SLPC  H10Y20567   4.586   6.531   4.762  0.5512 -1.1030  1.0974
  180SLPC  C31120568   4.672   6.347   4.757 -0.0842 -0.5283  0.3248
  180SLPC  H11X20569   4.750   6.380   4.685 -0.8351  1.0531  0.1964
  180SLPC  H11Y20570   4.669   6.237   4.739  2.6166 -0.2994 -2.4049
  180SLPC  C31220571   4.723   6.371   4.899 -0.1746 -0.1492 -0.6243
  180SLPC  H12X20572   4.657   6.317   4.970 -2.6644 -2.4418 -4.3521
  180SLPC  H12Y20573   4.703   6.475   4.933 -1.5242 -0.5991  0.0070
  180SLPC  C31320574   4.867   6.323   4.927  0.0204  0.6751 -0.6629
  180SLPC  H13X20575   4.941   6.371   4.860  1.1169 -0.5655 -0.3883
  180SLPC  H13Y20576   4.869   6.212   4.917  0.9129  0.0577  3.8165
  180SLPC  C31420577   4.912   6.350   5.069  0.1043 -0.2045  0.4743
  180SLPC  H14X20578   4.878   6.452   5.098 -1.2279  0.0383 -1.7810
  180SLPC  H14Y20579   5.023   6.348   5.058  0.2542  0.7587  1.5271
  180SLPC  C31520580   4.873   6.245   5.167 -0.0232  0.3618  0.7708
  180SLPC  H15X20581   4.901   6.144   5.132  0.1188 -0.6829  3.6317
  180SLPC  H15Y20582   4.763   6.261   5.166  0.2642  2.8455 -1.0364
  180SLPC  C31620583   4.929   6.268   5.303 -0.1732 -0.1495 -0.2770
  180SLPC  H16X20584   5.030   6.313   5.292 -0.0666 -0.8151 -2.7049
  180SLPC  H16Y20585   4.938   6.172   5.359 -0.1832 -0.0443 -0.0948
  180SLPC  C31720586   4.842   6.365   5.390  0.4641 -0.3676  0.6197
  180SLPC  H17X20587   4.746   6.313   5.409  0.7562 -0.7937  0.9514
  180SLPC  H17Y20588   4.818   6.455   5.329 -1.4429 -2.4766 -1.9687
  180SLPC  C31820589   4.912   6.410   5.519 -0.5506 -0.1186 -0.1028
  180SLPC  H18X20590   4.853   6.468   5.593 -1.4011 -2.1663  0.8882
  180SLPC  H18Y20591   4.990   6.484   5.491 -1.3785  0.6066 -0.5492
  180SLPC  H18Z20592   4.954   6.323   5.574  1.0532  1.5116  1.3678
  181SLPC     N20593   2.930   6.973   2.866 -0.0541  0.1609  0.2553
  181SLPC   C1320594   2.956   7.114   2.826 -0.1889 -0.1207  0.2451
  181SLPC  H13A20595   2.955   7.116   2.718  2.5584 -2.4758  0.0690
  181SLPC  H13B20596   2.882   7.171   2.880 -0.0303 -0.4763  0.8400
  181SLPC  H13C20597   3.054   7.155   2.845 -0.3513  0.4642 -0.1267
  181SLPC   C1420598   3.007   6.890   2.779 -0.4509 -0.2700  0.4493
  181SLPC  H14A20599   2.968   6.789   2.772 -1.2380  0.0875 -0.6722
  181SLPC  H14B20600   3.011   6.934   2.680 -1.1255  0.0004  0.5397
  181SLPC  H14C20601   3.113   6.893   2.797 -0.6050 -0.7509  1.5265
  181SLPC   C1520602   2.782   6.945   2.849 -0.0519  0.3573 -0.3632
  181SLPC  H15A20603   2.731   7.012   2.917  1.1488 -0.1872  1.1178
  181SLPC  H15B20604   2.742   6.959   2.750  0.5271  2.2813 -0.3606
  181SLPC  H15C20605   2.760   6.843   2.877  0.2266  0.4894  0.3573
  181SLPC   C1220606   2.983   6.956   3.011 -0.0578  0.0036 -0.3454
  181SLPC  H12A20607   3.091   6.955   3.012 -0.0508  0.4137  0.5848
  181SLPC  H12B20608   2.952   6.857   3.041  0.2385 -0.0823 -0.3104
  181SLPC   C1120609   2.933   7.055   3.121 -0.3003 -0.0544 -0.1936
  181SLPC  H11A20610   2.962   7.147   3.067  1.7241 -0.8604 -0.5671
  181SLPC  H11B20611   2.987   7.055   3.218  1.3225 -0.4021 -1.0706
  181SLPC     P20612   2.730   6.941   3.221  0.4730 -0.2547  0.0474
  181SLPC   O1320613   2.586   6.941   3.187 -0.3984 -0.6972  1.0428
  181SLPC   O1420614   2.799   6.815   3.198 -0.0314 -0.0391  0.4254
  181SLPC   O1220615   2.793   7.052   3.127  0.1750 -0.6398 -0.1853
  181SLPC   O1120616   2.758   6.994   3.373 -0.5103 -0.1430  0.0762
  181SLPC    C120617   2.827   6.912   3.465  1.0303 -0.5661 -0.6519
  181SLPC    HA20618   2.923   6.880   3.418  1.6427  1.1280 -0.6275
  181SLPC    HB20619   2.838   6.972   3.558  0.6130 -0.8585 -0.4149
  181SLPC    C220620   2.734   6.789   3.505 -0.5408 -0.1927 -0.2055
  181SLPC    HS20621   2.753   6.711   3.428 -0.6066 -0.2650 -0.1486
  181SLPC   O2120622   2.596   6.819   3.521 -0.1003  0.0576  0.4032
  181SLPC   C2120623   2.520   6.713   3.519  0.0099  1.0103 -1.0855
  181SLPC   O2220624   2.550   6.600   3.481 -0.0271  0.6877 -0.2882
  181SLPC   C2220625   2.374   6.742   3.570  0.0336  0.5243 -0.2190
  181SLPC   H2R20626   2.386   6.835   3.630 -1.2324 -0.4755  1.7066
  181SLPC   H2S20627   2.311   6.770   3.483 -1.2983 -0.9290  0.2337
  181SLPC    C320628   2.797   6.735   3.633  0.5344  0.0834  0.1686
  181SLPC    HX20629   2.906   6.722   3.613  0.6890 -3.3929  2.4516
  181SLPC    HY20630   2.756   6.634   3.651 -0.2038 -0.0654 -2.0321
  181SLPC   O3120631   2.797   6.814   3.751  0.1815 -0.2373  0.0031
  181SLPC   C3120632   2.723   6.771   3.856  0.6277  0.1969 -0.5989
  181SLPC   O3220633   2.639   6.685   3.851 -0.0221  0.3475 -0.7995
  181SLPC   C3220634   2.749   6.872   3.974  0.0500  0.5423 -0.0782
  181SLPC   H2X20635   2.698   6.965   3.940  2.5736  2.0372 -0.0357
  181SLPC   H2Y20636   2.856   6.900   3.981  0.1729  0.3865 -1.1567
  181SLPC   C2320637   2.314   6.614   3.636  0.3028 -0.9029  0.3765
  181SLPC   H3R20638   2.346   6.512   3.603  0.2067 -0.9863  0.5363
  181SLPC   H3S20639   2.206   6.621   3.611  0.1283  1.9687  1.6412
  181SLPC   C2420640   2.332   6.620   3.788 -0.2565  0.7566  0.5805
  181SLPC   H4R20641   2.336   6.721   3.833  0.3518  0.6823  0.7012
  181SLPC   H4S20642   2.433   6.583   3.816 -0.6110 -0.5096  0.2766
  181SLPC   C2520643   2.233   6.530   3.865  0.6020  0.3361 -0.0908
  181SLPC   H5R20644   2.265   6.425   3.846 -2.3831 -0.5149 -0.9665
  181SLPC   H5S20645   2.134   6.534   3.815  0.8369  0.3112 -0.5652
  181SLPC   C2620646   2.234   6.541   4.019 -0.0333 -0.2245  1.0857
  181SLPC   H6R20647   2.189   6.639   4.041 -1.3119 -0.9246  1.6707
  181SLPC   H6S20648   2.339   6.554   4.054  0.4978  0.9351 -0.7669
  181SLPC   C2720649   2.157   6.430   4.089 -0.0484 -0.3482  0.5728
  181SLPC   H7R20650   2.210   6.334   4.070 -0.2457 -0.3463 -0.0224
  181SLPC   H7S20651   2.056   6.432   4.042  0.0811  0.9508  0.3243
  181SLPC   C2820652   2.136   6.459   4.236  0.2704  0.6594  0.6433
  181SLPC   H8R20653   2.055   6.392   4.272 -2.8345  3.2349 -1.0610
  181SLPC   H8S20654   2.085   6.557   4.252  0.3520  0.6641  0.8818
  181SLPC   C2920655   2.250   6.453   4.329  0.0607  0.0578 -0.2638
  181SLPC   H9R20656   2.348   6.452   4.279  1.5480  0.3780  2.4414
  181SLPC  C21020657   2.251   6.435   4.465 -0.1073 -0.7017  0.0283
  181SLPC  H10R20658   2.353   6.453   4.502 -0.6098  1.9040  0.3865
  181SLPC  C21120659   2.144   6.418   4.569  1.0125 -0.5782 -0.0797
  181SLPC  H11R20660   2.165   6.326   4.628  0.9127 -1.7276 -1.7822
  181SLPC  H11S20661   2.043   6.407   4.524  0.6613 -2.7604  1.1076
  181SLPC  C21220662   2.139   6.535   4.660 -0.0148  0.4828 -0.7032
  181SLPC  H12R20663   2.130   6.631   4.609  1.2160  1.4780  0.8540
  181SLPC  C21320664   2.159   6.536   4.798 -0.0132  0.3719 -0.3187
  181SLPC  H13R20665   2.139   6.629   4.853 -0.4059  0.6366 -0.8935
  181SLPC  C21420666   2.182   6.417   4.884  0.7119 -0.2301 -0.4620
  181SLPC  H14R20667   2.261   6.435   4.961  0.3384  0.6455 -0.2767
  181SLPC  H14S20668   2.223   6.330   4.829  2.2715 -1.2925  2.1811
  181SLPC  C21520669   2.056   6.370   4.965 -0.9099 -0.0372  0.2546
  181SLPC  H15R20670   2.086   6.291   5.036  0.8560  2.3571  2.3883
  181SLPC  H15S20671   1.974   6.330   4.902 -1.1446  2.0412 -0.8625
  181SLPC  C21620672   2.009   6.471   5.069  0.8178 -0.5734  0.1874
  181SLPC  H16R20673   1.931   6.545   5.041  3.3373  2.5750  0.8632
  181SLPC  H16S20674   2.091   6.535   5.106 -1.7258  1.2885  3.0485
  181SLPC  C21720675   1.945   6.388   5.182 -0.1764 -0.3946 -0.2964
  181SLPC  H17R20676   2.027   6.337   5.237 -0.2589  0.4485  0.6349
  181SLPC  H17S20677   1.886   6.306   5.135 -0.9642 -1.0073  1.6486
  181SLPC  C21820678   1.851   6.470   5.271 -0.2002  0.5156  0.5079
  181SLPC  H18R20679   1.908   6.521   5.352  2.0776 -1.3267  0.1760
  181SLPC  H18S20680   1.765   6.407   5.302  3.1268 -4.5935  0.4361
  181SLPC  H18T20681   1.811   6.547   5.201 -1.8850 -0.1689  0.6778
  181SLPC   C3320682   2.677   6.834   4.106  0.4601  0.0779 -0.6675
  181SLPC   H3X20683   2.578   6.784   4.093 -0.2264  0.6583  1.7910
  181SLPC   H3Y20684   2.662   6.932   4.156  1.6610  1.7313 -3.3759
  181SLPC   C3420685   2.760   6.739   4.195 -0.4223 -0.2874  0.7559
  181SLPC   H4X20686   2.863   6.753   4.157 -0.9615 -1.5110 -1.3136
  181SLPC   H4Y20687   2.740   6.636   4.160  1.3425 -0.9448  1.5914
  181SLPC   C3520688   2.754   6.745   4.346  0.3161  0.9513  0.2340
  181SLPC   H5X20689   2.783   6.846   4.384  0.0649  0.8626  0.6765
  181SLPC   H5Y20690   2.831   6.674   4.383 -1.8766 -1.7872 -0.1207
  181SLPC   C3620691   2.617   6.710   4.417 -0.7075  0.5468 -0.1482
  181SLPC   H6X20692   2.604   6.600   4.411  2.2721 -0.1276  2.7170
  181SLPC   H6Y20693   2.522   6.758   4.384 -0.2567  0.6632 -1.3301
  181SLPC   C3720694   2.626   6.732   4.571  0.1058 -0.1391  0.1115
  181SLPC   H7X20695   2.676   6.828   4.594 -0.2319  0.0370  0.1273
  181SLPC   H7Y20696   2.699   6.657   4.607  1.4782  0.2841 -1.6432
  181SLPC   C3820697   2.493   6.704   4.649  0.1839 -0.2495  0.1304
  181SLPC   H8X20698   2.465   6.601   4.621  0.7531 -0.4775  0.3807
  181SLPC   H8Y20699   2.412   6.771   4.613 -1.1893 -1.0841  1.5598
  181SLPC   C3920700   2.496   6.710   4.806  0.4898 -0.5640 -0.4217
  181SLPC   H9X20701   2.391   6.705   4.841  0.7248 -1.4541  0.1855
  181SLPC   H9Y20702   2.531   6.809   4.843 -1.5071  0.2342 -0.5207
  181SLPC  C31020703   2.580   6.597   4.870  0.3371 -0.4203  0.2539
  181SLPC  H10X20704   2.686   6.630   4.858 -0.0280  0.1529 -1.7964
  181SLPC  H10Y20705   2.569   6.513   4.799 -3.2458  0.2963 -0.2360
  181SLPC  C31120706   2.550   6.547   5.009 -0.3762  0.2793  0.1908
  181SLPC  H11X20707   2.570   6.438   5.017 -0.2462  0.2788 -0.1169
  181SLPC  H11Y20708   2.446   6.559   5.045 -0.5751 -0.9516  0.0685
  181SLPC  C31220709   2.633   6.620   5.120  0.5224 -0.1307 -0.5466
  181SLPC  H12X20710   2.596   6.725   5.126  0.4896 -0.1558 -0.2945
  181SLPC  H12Y20711   2.743   6.627   5.108  0.5132  0.5348 -0.2665
  181SLPC  C31320712   2.602   6.556   5.255  0.1505  0.8586  0.2835
  181SLPC  H13X20713   2.581   6.449   5.237  3.4948 -0.4347  3.0123
  181SLPC  H13Y20714   2.501   6.585   5.291 -0.6032 -2.2166  0.9176
  181SLPC  C31420715   2.702   6.582   5.367 -0.5504  1.0658  0.4094
  181SLPC  H14X20716   2.791   6.531   5.325 -0.8253 -0.3279  1.4599
  181SLPC  H14Y20717   2.680   6.517   5.454  0.3843 -0.5129 -0.4861
  181SLPC  C31520718   2.729   6.729   5.401  0.6574  0.0756 -0.5471
  181SLPC  H15X20719   2.633   6.783   5.385  0.3738 -0.4810 -0.7372
  181SLPC  H15Y20720   2.800   6.774   5.329  0.8203 -1.2646 -1.2508
  181SLPC  C31620721   2.775   6.743   5.553  0.6983 -0.6776 -0.7403
  181SLPC  H16X20722   2.846   6.660   5.569  0.3931 -0.6604  0.7740
  181SLPC  H16Y20723   2.683   6.737   5.615  0.8412  1.9518 -0.1294
  181SLPC  C31720724   2.844   6.879   5.566 -0.4022  0.1923 -0.6320
  181SLPC  H17X20725   2.777   6.968   5.563  0.1280  0.5794 -1.2276
  181SLPC  H17Y20726   2.908   6.898   5.477 -0.6397 -0.5601 -0.9780
  181SLPC  C31820727   2.924   6.885   5.696 -0.0172 -0.1891 -0.3901
  181SLPC  H18X20728   3.012   6.817   5.699 -1.0869 -1.6172 -0.5781
  181SLPC  H18Y20729   2.862   6.885   5.788 -1.4931  2.8666 -1.2281
  181SLPC  H18Z20730   2.961   6.990   5.702 -1.1621  0.4612 -3.2390
  182SLPC     N20731   1.386   0.384   2.595  0.2203 -0.0959 -0.5309
  182SLPC   C1320732   1.238   0.373   2.619 -0.2575 -0.0756  0.2927
  182SLPC  H13A20733   1.197   0.274   2.609  1.1790 -0.6492 -0.1097
  182SLPC  H13B20734   1.216   0.414   2.717  0.2082 -2.0039  1.2652
  182SLPC  H13C20735   1.193   0.439   2.546  1.5687 -0.5119 -1.3103
  182SLPC   C1420736   1.435   0.522   2.623 -0.2104 -0.1448 -0.1306
  182SLPC  H14A20737   1.398   0.591   2.549  2.4872  0.0545 -1.4151
  182SLPC  H14B20738   1.403   0.544   2.724 -1.8844 -2.1808 -0.1320
  182SLPC  H14C20739   1.543   0.518   2.625 -0.1397  0.9811 -0.8534
  182SLPC   C1520740   1.418   0.351   2.446  0.6420  0.4631  0.3105
  182SLPC  H15A20741   1.523   0.333   2.432  0.6351 -0.6106  1.5514
  182SLPC  H15B20742   1.367   0.261   2.414  2.1044 -0.7283  1.2459
  182SLPC  H15C20743   1.384   0.431   2.381  0.8013  2.7446  2.8378
  182SLPC   C1220744   1.459   0.284   2.689  0.5505  0.5419  0.8229
  182SLPC  H12A20745   1.565   0.301   2.683  1.1583 -3.0006 -0.2946
  182SLPC  H12B20746   1.439   0.185   2.652  2.2562  0.6772 -0.5993
  182SLPC   C1120747   1.408   0.275   2.831  0.9633 -0.2265 -0.0258
  182SLPC  H11A20748   1.454   0.196   2.894  0.7556 -0.6524 -0.4090
  182SLPC  H11B20749   1.301   0.246   2.819  0.5077  1.1475  0.4685
  182SLPC     P20750   1.313   0.475   2.981 -0.1523 -0.2309  0.0289
  182SLPC   O1320751   1.386   0.585   3.044 -0.0052  0.1498 -0.2301
  182SLPC   O1420752   1.198   0.510   2.892  0.2735 -0.1316 -0.5799
  182SLPC   O1220753   1.418   0.407   2.894 -0.6223  0.0544  0.6243
  182SLPC   O1120754   1.271   0.355   3.076 -0.1825 -0.9454  0.8096
  182SLPC    C120755   1.300   0.359   3.213  0.6360 -0.3389 -0.8509
  182SLPC    HA20756   1.330   0.260   3.253  0.4296  0.4375  1.3962
  182SLPC    HB20757   1.382   0.432   3.232  0.8254 -0.8374  0.3640
  182SLPC    C220758   1.177   0.400   3.292  0.4818 -0.7978 -0.6387
  182SLPC    HS20759   1.095   0.327   3.272 -0.2208  0.4005 -2.3888
  182SLPC   O2120760   1.133   0.531   3.260  0.0340  0.3101  0.4150
  182SLPC   C2120761   1.000   0.551   3.251  0.5104 -0.2835  0.0366
  182SLPC   O2220762   0.911   0.472   3.277  0.3385 -0.2869 -0.6120
  182SLPC   C2220763   0.973   0.697   3.212  0.3466 -0.1174 -0.1502
  182SLPC   H2R20764   1.068   0.751   3.188  1.7907 -1.9731  1.1462
  182SLPC   H2S20765   0.896   0.703   3.133  0.4628  0.8447 -0.2062
  182SLPC    C320766   1.208   0.411   3.438  0.1438 -0.5016 -0.2325
  182SLPC    HX20767   1.282   0.494   3.440  0.3182 -0.6658  0.9881
  182SLPC    HY20768   1.250   0.315   3.476  1.3463 -1.7314 -4.2115
  182SLPC   O3120769   1.095   0.453   3.512 -0.0885 -0.2235  0.5582
  182SLPC   C3120770   1.019   0.366   3.574  0.3917  0.2227 -0.5300
  182SLPC   O3220771   1.029   0.244   3.574 -0.6297 -0.3943  0.7731
  182SLPC   C3220772   0.903   0.435   3.633  2.0924 -0.6196 -0.7053
  182SLPC   H2X20773   0.815   0.442   3.566  1.1495  0.1335  0.5509
  182SLPC   H2Y20774   0.934   0.541   3.650 -0.4470 -0.1957  2.1499
  182SLPC   C2320775   0.932   0.779   3.333  0.3326  0.6436 -0.6835
  182SLPC   H3R20776   0.934   0.886   3.305 -0.8138  0.2098 -2.5952
  182SLPC   H3S20777   0.992   0.752   3.422  0.4538  1.0554 -0.6391
  182SLPC   C2420778   0.786   0.747   3.377 -0.6820  0.0422  0.2670
  182SLPC   H4R20779   0.783   0.645   3.422 -2.7268 -0.5332 -1.0612
  182SLPC   H4S20780   0.720   0.755   3.288  3.8778  0.2274 -3.4924
  182SLPC   C2520781   0.723   0.830   3.484 -0.5362 -0.6568  0.2206
  182SLPC   H5R20782   0.697   0.930   3.443 -0.1109 -0.0475  1.3949
  182SLPC   H5S20783   0.791   0.847   3.569  0.5707  0.9600 -0.9334
  182SLPC   C2620784   0.593   0.777   3.540  0.3001  0.6431  0.2547
  182SLPC   H6R20785   0.624   0.688   3.598  1.5682  0.1517 -1.1067
  182SLPC   H6S20786   0.519   0.743   3.464  0.3577  0.3436  0.3309
  182SLPC   C2720787   0.524   0.875   3.639 -0.0619 -0.5373  0.7203
  182SLPC   H7R20788   0.473   0.952   3.576  1.8260  2.3808  2.4929
  182SLPC   H7S20789   0.598   0.933   3.698 -0.8296 -0.4215  1.5764
  182SLPC   C2820790   0.402   0.818   3.714 -0.0011 -0.9089  0.5573
  182SLPC   H8R20791   0.426   0.727   3.772  0.7883  0.5757  2.7177
  182SLPC   H8S20792   0.332   0.788   3.633 -0.1946  1.7323 -0.3536
  182SLPC   C2920793   0.338   0.925   3.807 -0.9914 -0.1235 -0.5552
  182SLPC   H9R20794   0.279   0.996   3.748  0.0240  1.4032  0.2066
  182SLPC  C21020795   0.343   0.940   3.938 -0.3519 -0.1959  0.3709
  182SLPC  H10R20796   0.303   1.034   3.979  1.0549  0.5274  0.1877
  182SLPC  C21120797   0.432   0.868   4.038 -0.4324  0.7159  0.2790
  182SLPC  H11R20798   0.521   0.816   3.997 -0.2463  1.1102  0.1856
  182SLPC  H11S20799   0.368   0.790   4.086 -0.0968  0.4953  0.3714
  182SLPC  C21220800   0.482   0.957   4.144  0.5440 -0.4334  0.1080
  182SLPC  H12R20801   0.586   0.989   4.126  0.5544 -0.2158  0.5322
  182SLPC  C21320802   0.424   0.993   4.264  0.0626 -0.3521 -0.1661
  182SLPC  H13R20803   0.472   1.055   4.342 -2.2533 -0.6711  1.6471
  182SLPC  C21420804   0.288   0.947   4.308 -0.1756 -0.0739  0.1756
  182SLPC  H14R20805   0.259   0.854   4.255 -0.0630 -0.4433  0.7656
  182SLPC  H14S20806   0.214   1.025   4.280 -0.1039 -1.0963 -3.3149
  182SLPC  C21520807   0.255   0.937   4.453 -0.1067  0.2834 -0.6757
  182SLPC  H15R20808   0.324   0.857   4.488  0.5290  0.6760 -1.0106
  182SLPC  H15S20809   0.146   0.920   4.451 -0.5235  2.6679 -0.6872
  182SLPC  C21620810   0.284   1.071   4.522  0.4567  0.4539 -0.6422
  182SLPC  H16R20811   0.200   1.139   4.499  0.5453 -0.0530 -2.6599
  182SLPC  H16S20812   0.373   1.127   4.487  0.7774  0.7150  0.5738
  182SLPC  C21720813   0.299   1.054   4.677 -0.6569  0.1251  0.5420
  182SLPC  H17R20814   0.342   0.953   4.693 -1.2798 -0.2012  0.1659
  182SLPC  H17S20815   0.193   1.055   4.709 -0.9355 -1.4594 -0.2469
  182SLPC  C21820816   0.376   1.162   4.747 -0.1891  0.1040 -1.0053
  182SLPC  H18R20817   0.486   1.146   4.749 -0.1008  0.7165 -1.0383
  182SLPC  H18S20818   0.340   1.151   4.851  0.0728  0.0010 -0.9249
  182SLPC  H18T20819   0.346   1.261   4.708  1.3464  0.5316 -1.1528
  182SLPC   C3320820   0.865   0.373   3.769  1.0362 -0.4715 -0.1562
  182SLPC   H3X20821   0.845   0.264   3.760 -0.3686 -0.3600  1.1681
  182SLPC   H3Y20822   0.766   0.412   3.800  0.3246 -0.3080 -2.4084
  182SLPC   C3420823   0.971   0.392   3.872 -0.2441 -0.4396  0.0878
  182SLPC   H4X20824   1.028   0.487   3.858  0.3846 -0.5383  1.6776
  182SLPC   H4Y20825   1.051   0.317   3.851 -0.2207 -1.0294  2.0447
  182SLPC   C3520826   0.937   0.366   4.022  0.2865  0.6429  0.2279
  182SLPC   H5X20827   0.915   0.258   4.035  2.3409 -0.0531 -1.5764
  182SLPC   H5Y20828   0.842   0.418   4.048 -1.2998 -2.1206  0.2587
  182SLPC   C3620829   1.049   0.392   4.123  0.2027 -0.5562  0.3133
  182SLPC   H6X20830   1.106   0.477   4.079  1.1401 -1.2950  0.0773
  182SLPC   H6Y20831   1.124   0.311   4.129  0.4151 -0.4252 -0.4583
  182SLPC   C3720832   1.000   0.428   4.257  0.4579 -0.4132 -0.4700
  182SLPC   H7X20833   0.934   0.355   4.307 -0.3145  0.1336 -0.6741
  182SLPC   H7Y20834   0.931   0.515   4.251 -0.6964 -1.1645  1.1894
  182SLPC   C3820835   1.108   0.469   4.361 -0.3608 -0.3357 -0.2267
  182SLPC   H8X20836   1.137   0.574   4.341  1.1150 -0.9075 -1.2555
  182SLPC   H8Y20837   1.188   0.400   4.326 -0.1876 -1.3013  1.9507
  182SLPC   C3920838   1.070   0.448   4.509 -0.6708  0.1666  0.2714
  182SLPC   H9X20839   1.036   0.343   4.523  0.5608 -0.2212  0.4671
  182SLPC   H9Y20840   0.977   0.504   4.532 -1.3496 -0.6808 -0.3066
  182SLPC  C31020841   1.201   0.469   4.588  0.4310  0.0272 -0.5103
  182SLPC  H10X20842   1.205   0.578   4.610 -1.0348  0.3397 -1.6449
  182SLPC  H10Y20843   1.288   0.425   4.537  0.1675 -0.8362 -0.2359
  182SLPC  C31120844   1.196   0.404   4.726  0.2734  0.1001 -0.0022
  182SLPC  H11X20845   1.292   0.415   4.781 -0.2256 -3.0919  1.7611
  182SLPC  H11Y20846   1.165   0.298   4.727  0.2891  0.0979  0.6239
  182SLPC  C31220847   1.068   0.461   4.801 -0.4424 -0.3925 -0.0840
  182SLPC  H12X20848   0.970   0.424   4.764 -0.4865  0.2976 -0.6976
  182SLPC  H12Y20849   1.051   0.570   4.788 -0.5573 -0.4495 -0.4464
  182SLPC  C31320850   1.082   0.430   4.950 -0.2579  0.3343 -0.7986
  182SLPC  H13X20851   1.185   0.456   4.984 -0.0005  0.1822 -1.4494
  182SLPC  H13Y20852   1.088   0.322   4.973  1.4389  0.1550 -1.9163
  182SLPC  C31420853   0.985   0.497   5.044 -0.7269 -0.2698 -0.1010
  182SLPC  H14X20854   0.981   0.608   5.048 -0.7889 -0.2806  0.1580
  182SLPC  H14Y20855   1.023   0.470   5.145 -0.1591 -1.0515 -0.5073
  182SLPC  C31520856   0.838   0.446   5.037  0.4830  0.3084  0.4186
  182SLPC  H15X20857   0.832   0.337   5.058 -0.6373  0.3407  0.3148
  182SLPC  H15Y20858   0.792   0.457   4.936  1.5199 -1.9453 -0.3622
  182SLPC  C31620859   0.758   0.512   5.143  0.1382 -0.1847 -0.1136
  182SLPC  H16X20860   0.809   0.503   5.241 -0.8560  2.4650  0.7210
  182SLPC  H16Y20861   0.666   0.452   5.158  0.6311 -1.2377 -1.0806
  182SLPC  C31720862   0.709   0.657   5.134 -0.1739  0.6551 -0.3144
  182SLPC  H17X20863   0.633   0.671   5.055 -1.5401  1.5253  1.1148
  182SLPC  H17Y20864   0.796   0.725   5.122 -1.2360  2.3356  1.1087
  182SLPC  C31820865   0.665   0.698   5.269  0.0469 -0.3347  0.5112
  182SLPC  H18X20866   0.623   0.801   5.265 -1.0341 -0.7021  1.6175
  182SLPC  H18Y20867   0.754   0.697   5.337  0.3536  1.1609  0.1658
  182SLPC  H18Z20868   0.586   0.634   5.315 -2.0662  0.9642 -1.1146
  183SLPC     N20869   3.030   4.591   2.541 -0.4033  0.0721 -0.1192
  183SLPC   C1320870   3.032   4.467   2.456  0.0503  0.6461  0.0598
  183SLPC  H13A20871   2.936   4.433   2.422  0.3177  0.2181 -0.2782
  183SLPC  H13B20872   3.098   4.478   2.371  3.1357 -1.9397  1.8828
  183SLPC  H13C20873   3.076   4.384   2.510 -1.4644  1.6503  3.0856
  183SLPC   C1420874   2.984   4.706   2.449  0.0511 -0.1770 -0.9915
  183SLPC  H14A20875   3.063   4.722   2.377  2.7998 -1.3605  1.5456
  183SLPC  H14B20876   2.890   4.672   2.410 -0.3026  0.9511 -1.1552
  183SLPC  H14C20877   2.964   4.796   2.506 -0.8642 -0.8713 -0.1755
  183SLPC   C1520878   3.173   4.627   2.583 -0.3183  0.0998  0.4401
  183SLPC  H15A20879   3.176   4.712   2.650  0.3225 -1.8279  3.0122
  183SLPC  H15B20880   3.213   4.542   2.636 -0.1595 -0.2243 -0.1846
  183SLPC  H15C20881   3.237   4.654   2.500  0.6412 -2.3261  0.2891
  183SLPC   C1220882   2.939   4.575   2.655  0.2352  0.2153 -0.0962
  183SLPC  H12A20883   2.957   4.476   2.695  1.4727  1.0805  1.5673
  183SLPC  H12B20884   2.837   4.576   2.618  0.3848 -0.6190 -0.5483
  183SLPC   C1120885   2.945   4.670   2.776 -0.1012  0.6786 -0.0255
  183SLPC  H11A20886   3.043   4.671   2.828 -0.3455  1.2775  0.4300
  183SLPC  H11B20887   2.882   4.626   2.856 -1.1028 -0.4543 -1.3677
  183SLPC     P20888   2.942   4.930   2.820 -0.1507 -0.1687 -0.3687
  183SLPC   O1320889   3.071   4.987   2.780  0.1882  0.5971  0.1111
  183SLPC   O1420890   2.826   5.024   2.816  0.7129 -0.1812  0.1576
  183SLPC   O1220891   2.907   4.796   2.739 -0.1377  0.2154  0.4888
  183SLPC   O1120892   2.950   4.875   2.968 -0.6347  0.3444  0.2553
  183SLPC    C120893   3.084   4.871   3.030  0.9404 -0.1005  0.0650
  183SLPC    HA20894   3.134   4.773   3.012  0.3289 -0.6450  1.2034
  183SLPC    HB20895   3.155   4.946   2.991 -0.0731  1.2191  0.6802
  183SLPC    C220896   3.072   4.879   3.178  1.0302 -0.2121  0.6396
  183SLPC    HS20897   3.165   4.922   3.221  1.6058 -1.6658  0.9094
  183SLPC   O2120898   3.046   4.746   3.224  0.2547 -0.5205  0.7656
  183SLPC   C2120899   3.152   4.689   3.283 -1.3042  0.1778 -0.3029
  183SLPC   O2220900   3.260   4.741   3.299  0.3595 -0.1208 -0.2170
  183SLPC   C2220901   3.119   4.545   3.322 -0.0871 -0.0069  0.9114
  183SLPC   H2R20902   3.017   4.546   3.365 -0.5110  2.0632 -0.0160
  183SLPC   H2S20903   3.122   4.477   3.235 -0.9313 -1.6726  2.1339
  183SLPC    C320904   2.952   4.971   3.224  0.2770  0.0200 -0.3500
  183SLPC    HX20905   2.854   4.945   3.179  0.2269  0.9300 -0.7772
  183SLPC    HY20906   2.966   5.078   3.201  1.7750 -0.0455  0.1515
  183SLPC   O3120907   2.947   4.966   3.365  0.0156  0.2112  0.1303
  183SLPC   C3120908   2.873   4.869   3.421 -0.3185 -0.7926  0.2805
  183SLPC   O3220909   2.802   4.794   3.356  0.2612 -0.7338 -0.3042
  183SLPC   C3220910   2.893   4.867   3.570 -0.2578 -0.4373 -0.2056
  183SLPC   H2X20911   2.842   4.958   3.609  0.1664 -0.9495  1.6707
  183SLPC   H2Y20912   2.999   4.875   3.603 -1.0948 -0.4414  2.8183
  183SLPC   C2320913   3.230   4.488   3.417 -0.8833 -0.0789 -0.0111
  183SLPC   H3R20914   3.319   4.511   3.355 -1.9048  0.1503 -1.4600
  183SLPC   H3S20915   3.219   4.377   3.423 -0.1985 -0.1583 -0.1427
  183SLPC   C2420916   3.250   4.539   3.562 -0.2545 -0.7818  0.2611
  183SLPC   H4R20917   3.158   4.515   3.619 -1.3648  0.0426 -1.0932
  183SLPC   H4S20918   3.262   4.650   3.555  0.8803 -0.8261  1.3143
  183SLPC   C2520919   3.373   4.477   3.631  0.4147  0.4146  0.2278
  183SLPC   H5R20920   3.399   4.540   3.718  1.5101  0.8794 -0.4072
  183SLPC   H5S20921   3.461   4.486   3.563  0.0805  1.1943 -0.1080
  183SLPC   C2620922   3.343   4.335   3.679 -0.2845  0.0088 -0.0661
  183SLPC   H6R20923   3.304   4.287   3.587 -1.0086  0.0560  0.2122
  183SLPC   H6S20924   3.253   4.337   3.744  0.3633 -2.4703  1.0014
  183SLPC   C2720925   3.458   4.256   3.739 -0.0412  0.3916  0.0658
  183SLPC   H7R20926   3.489   4.322   3.823 -1.7321  1.8014 -0.3855
  183SLPC   H7S20927   3.528   4.238   3.655 -0.4101 -0.5800 -0.0419
  183SLPC   C2820928   3.412   4.112   3.785 -0.2359 -0.3764  0.1212
  183SLPC   H8R20929   3.499   4.046   3.806  0.2515  0.7383  1.7990
  183SLPC   H8S20930   3.358   4.071   3.696 -0.2358 -0.3430  0.1061
  183SLPC   C2920931   3.315   4.110   3.899 -0.1938 -0.7652  0.1871
  183SLPC   H9R20932   3.209   4.103   3.871 -0.8859  0.7148  2.1082
  183SLPC  C21020933   3.344   4.133   4.032  0.1820  0.4065 -0.1634
  183SLPC  H10R20934   3.253   4.135   4.095 -1.3719 -1.3413 -2.1635
  183SLPC  C21120935   3.478   4.159   4.106  0.1700 -0.3169 -0.1979
  183SLPC  H11R20936   3.564   4.122   4.045  0.8335 -0.4668  0.8163
  183SLPC  H11S20937   3.475   4.101   4.200 -0.2940 -1.0924 -0.6745
  183SLPC  C21220938   3.499   4.306   4.138  0.2203  0.2469 -0.3733
  183SLPC  H12R20939   3.502   4.377   4.054 -0.1493  0.3106 -0.3361
  183SLPC  C21320940   3.517   4.367   4.258 -0.6476  0.4291  0.9097
  183SLPC  H13R20941   3.507   4.476   4.265 -1.6596  0.3802  0.3752
  183SLPC  C21420942   3.521   4.296   4.393  0.2434 -0.2353 -0.8290
  183SLPC  H14R20943   3.616   4.334   4.437  0.1903  0.2362 -1.1076
  183SLPC  H14S20944   3.546   4.188   4.392  1.3301 -0.1222  2.1865
  183SLPC  C21520945   3.394   4.317   4.484  0.2085 -0.3330  0.7419
  183SLPC  H15R20946   3.407   4.258   4.577  0.1262  2.4360  2.6606
  183SLPC  H15S20947   3.303   4.287   4.429  0.3328 -0.7093  0.7425
  183SLPC  C21620948   3.379   4.474   4.520  0.1920 -0.5597  0.3095
  183SLPC  H16R20949   3.351   4.531   4.429  0.4903  1.4917  1.4469
  183SLPC  H16S20950   3.482   4.507   4.542  1.0893 -3.6644  1.2872
  183SLPC  C21720951   3.266   4.515   4.617  0.1384  0.4799 -0.1108
  183SLPC  H17R20952   3.170   4.485   4.568 -0.1294  0.6839  0.2794
  183SLPC  H17S20953   3.282   4.623   4.638  2.7836 -0.1938  1.8298
  183SLPC  C21820954   3.280   4.461   4.757  0.2515  0.2711 -0.8299
  183SLPC  H18R20955   3.253   4.354   4.753  0.1901  0.2494 -0.0504
  183SLPC  H18S20956   3.210   4.513   4.825 -0.0899 -1.2773  0.0364
  183SLPC  H18T20957   3.385   4.473   4.793  1.1351 -2.2764 -2.2730
  183SLPC   C3320958   2.812   4.766   3.649  0.9115  0.4731  0.6389
  183SLPC   H3X20959   2.706   4.753   3.621  0.6998  1.2206  1.0716
  183SLPC   H3Y20960   2.815   4.804   3.753  0.2034  0.5312  0.6376
  183SLPC   C3420961   2.866   4.623   3.649 -0.1579  0.4451 -0.2437
  183SLPC   H4X20962   2.974   4.619   3.671 -0.3389 -0.2805  0.5767
  183SLPC   H4Y20963   2.843   4.584   3.548 -2.0101  0.2552  0.2122
  183SLPC   C3520964   2.808   4.531   3.755  0.1728  0.0925 -0.2918
  183SLPC   H5X20965   2.855   4.432   3.736  0.5407 -0.0199  1.1162
  183SLPC   H5Y20966   2.701   4.527   3.726 -0.1630  3.8436 -0.0910
  183SLPC   C3620967   2.834   4.583   3.895  0.6831  0.6348  0.2632
  183SLPC   H6X20968   2.790   4.681   3.924  0.5628  0.5207  0.4723
  183SLPC   H6Y20969   2.940   4.606   3.917  0.8439 -0.2001  0.3970
  183SLPC   C3720970   2.788   4.488   4.006 -0.2332  0.0298  0.3136
  183SLPC   H7X20971   2.726   4.407   3.963 -0.4825  1.4517 -2.2503
  183SLPC   H7Y20972   2.733   4.548   4.081 -0.7698  0.1338 -0.1482
  183SLPC   C3820973   2.908   4.424   4.076  0.0465 -0.2300  0.8680
  183SLPC   H8X20974   2.984   4.503   4.095  1.4070 -1.0363 -0.9397
  183SLPC   H8Y20975   2.959   4.351   4.010 -1.4774 -1.1641  0.6900
  183SLPC   C3920976   2.875   4.354   4.216 -0.3127  0.5960 -0.9456
  183SLPC   H9X20977   2.796   4.276   4.208  1.4547 -1.3410 -0.4229
  183SLPC   H9Y20978   2.830   4.436   4.276 -1.0621 -0.1986 -0.3868
  183SLPC  C31020979   2.998   4.298   4.290 -0.1586  0.1201  0.3267
  183SLPC  H10X20980   3.076   4.376   4.281  1.8109 -1.5910  1.5961
  183SLPC  H10Y20981   3.024   4.204   4.237 -2.2598  0.1288 -0.8529
  183SLPC  C31120982   2.980   4.281   4.444 -0.1444 -0.4902 -0.4618
  183SLPC  H11X20983   2.955   4.383   4.477 -0.2136 -0.1958 -1.3980
  183SLPC  H11Y20984   3.074   4.248   4.493 -1.4802 -1.1046  1.8672
  183SLPC  C31220985   2.868   4.184   4.481 -0.1654 -0.5199  0.2785
  183SLPC  H12X20986   2.877   4.097   4.413  1.8364  0.3991 -0.7328
  183SLPC  H12Y20987   2.771   4.235   4.468 -0.2170 -0.5046  0.7004
  183SLPC  C31320988   2.883   4.124   4.620  0.0516 -0.0177 -0.1681
  183SLPC  H13X20989   2.785   4.093   4.662 -0.6100  1.0303 -0.8743
  183SLPC  H13Y20990   2.921   4.204   4.688  1.0388  0.6007 -1.3838
  183SLPC  C31420991   2.985   4.006   4.629  0.0872 -0.1383 -0.2032
  183SLPC  H14X20992   3.082   4.051   4.599  1.9080 -1.5719  3.0148
  183SLPC  H14Y20993   2.967   3.916   4.568 -0.5121  0.1465 -0.4593
  183SLPC  C31520994   3.024   3.958   4.773 -0.2280 -0.6900 -0.7806
  183SLPC  H15X20995   3.059   4.044   4.834 -0.3347  0.2068 -1.9659
  183SLPC  H15Y20996   3.101   3.877   4.774 -0.3443 -0.8383  1.3657
  183SLPC  C31620997   2.918   3.884   4.849  0.0847  0.4209 -0.6244
  183SLPC  H16X20998   2.883   3.806   4.779 -1.2799  0.3731  0.0654
  183SLPC  H16Y20999   2.829   3.946   4.875 -1.7868 -1.2153 -2.7401
  183SLPC  C31721000   2.976   3.811   4.972  0.1829  0.0638 -0.4135
  183SLPC  H17X21001   3.044   3.885   5.019  1.8623 -1.8778  0.3677
  183SLPC  H17Y21002   3.046   3.726   4.956  1.2557  0.9381 -0.5108
  183SLPC  C31821003   2.865   3.763   5.063  0.2966  0.2811  0.1933
  183SLPC  H18X21004   2.790   3.705   5.005  1.6528 -1.1680 -0.1833
  183SLPC  H18Y21005   2.816   3.844   5.121 -2.1554 -1.5732  0.8366
  183SLPC  H18Z21006   2.912   3.690   5.132 -0.2997 -0.8471 -0.5646
  184SLPC     N21007   3.539   1.108   3.140  0.0118 -0.1399  0.2590
  184SLPC   C1321008   3.667   1.047   3.196  0.4426  0.1201 -0.6832
  184SLPC  H13A21009   3.680   1.074   3.300 -0.5871 -0.2867 -0.4343
  184SLPC  H13B21010   3.663   0.940   3.188 -1.6190  0.0887  0.2153
  184SLPC  H13C21011   3.756   1.087   3.149 -0.9028  0.8303 -2.7396
  184SLPC   C1421012   3.419   1.032   3.196 -0.1447  0.4375 -0.2274
  184SLPC  H14A21013   3.412   1.025   3.303 -1.8840 -0.7647 -0.3789
  184SLPC  H14B21014   3.327   1.075   3.159 -0.2180 -0.1902 -0.7917
  184SLPC  H14C21015   3.413   0.930   3.161 -0.1932 -0.5441  2.4072
  184SLPC   C1521016   3.533   1.090   2.994  0.0528  0.0978  0.6622
  184SLPC  H15A21017   3.526   0.983   2.979 -0.8554  0.2466 -0.1039
  184SLPC  H15B21018   3.448   1.131   2.940 -1.1544 -1.8399  0.9804
  184SLPC  H15C21019   3.621   1.127   2.944  1.2959 -1.2197  1.8034
  184SLPC   C1221020   3.526   1.256   3.173 -0.3026  0.3893  0.4043
  184SLPC  H12A21021   3.431   1.282   3.128 -0.4417  1.7162  1.3961
  184SLPC  H12B21022   3.605   1.312   3.127  0.1162  0.4546  1.1770
  184SLPC   C1121023   3.509   1.288   3.320 -0.5027  0.1393 -0.0586
  184SLPC  H11A21024   3.415   1.254   3.367  0.9168 -0.4432  2.5336
  184SLPC  H11B21025   3.498   1.399   3.320 -1.1162  0.2107 -3.6650
  184SLPC     P21026   3.747   1.332   3.430  0.2109  0.3640  0.2945
  184SLPC   O1321027   3.852   1.238   3.472  0.0684 -0.1661 -0.8397
  184SLPC   O1421028   3.773   1.421   3.315  0.0299 -0.2088  0.1978
  184SLPC   O1221029   3.618   1.248   3.402  0.0813  0.8325  0.1724
  184SLPC   O1121030   3.704   1.422   3.554  0.2391  0.7905  0.1861
  184SLPC    C121031   3.659   1.353   3.673  0.3873  0.4716 -0.5828
  184SLPC    HA21032   3.678   1.244   3.681  2.1608  0.8411  0.8909
  184SLPC    HB21033   3.717   1.394   3.758 -1.0938  1.3204  0.0690
  184SLPC    C221034   3.505   1.388   3.702  0.2981 -0.1441 -0.6057
  184SLPC    HS21035   3.446   1.340   3.621 -0.8344  0.6942 -0.2947
  184SLPC   O2121036   3.484   1.528   3.710 -0.3517 -0.1023  0.2961
  184SLPC   C2121037   3.362   1.572   3.673  0.2829  0.1881 -0.5946
  184SLPC   O2221038   3.276   1.497   3.627 -0.2285  0.9239 -0.1957
  184SLPC   C2221039   3.350   1.721   3.692 -0.0777 -0.3017  0.6625
  184SLPC   H2R21040   3.448   1.750   3.734  1.1121 -1.0672 -1.4029
  184SLPC   H2S21041   3.337   1.764   3.590  0.5908  0.9812  1.0965
  184SLPC    C321042   3.464   1.328   3.840 -0.2587 -0.0581  0.6175
  184SLPC    HX21043   3.533   1.365   3.919 -0.8436  0.4767  0.8847
  184SLPC    HY21044   3.471   1.217   3.841 -1.8119 -0.1984 -0.7829
  184SLPC   O3121045   3.327   1.372   3.876 -0.6630  0.5217  0.6143
  184SLPC   C3121046   3.234   1.282   3.841  0.0053  0.1615 -0.0195
  184SLPC   O3221047   3.253   1.176   3.789  0.4320 -0.4371  0.1158
  184SLPC   C3221048   3.098   1.341   3.870  0.3213  0.8916  0.2294
  184SLPC   H2X21049   3.060   1.376   3.771  1.4021  2.6509  0.3846
  184SLPC   H2Y21050   3.106   1.427   3.940 -1.2757  1.3057 -0.0576
  184SLPC   C2321051   3.230   1.767   3.782 -0.0495 -0.9313 -0.0530
  184SLPC   H3R21052   3.140   1.729   3.729 -0.8504  1.1123 -0.2503
  184SLPC   H3S21053   3.228   1.877   3.769  1.1339 -0.8525  0.3449
  184SLPC   C2421054   3.232   1.732   3.928  0.7025  0.1295 -0.1930
  184SLPC   H4R21055   3.228   1.622   3.939  0.2064  0.1674  0.0061
  184SLPC   H4S21056   3.145   1.763   3.990  0.8131  0.6016 -0.2669
  184SLPC   C2521057   3.363   1.773   3.998  0.0505  0.5183  0.0526
  184SLPC   H5R21058   3.361   1.882   4.016 -0.2909  0.3253  1.2569
  184SLPC   H5S21059   3.451   1.752   3.933  0.9111 -0.3850  1.4521
  184SLPC   C2621060   3.381   1.694   4.128  0.1160  0.0089 -0.3315
  184SLPC   H6R21061   3.386   1.587   4.098  0.5353  0.5610 -2.4514
  184SLPC   H6S21062   3.278   1.704   4.169 -0.9563  2.1884 -3.1854
  184SLPC   C2721063   3.495   1.732   4.219 -0.4032  0.6026 -0.0866
  184SLPC   H7R21064   3.585   1.727   4.154 -0.8691  0.1681 -0.7064
  184SLPC   H7S21065   3.522   1.663   4.302  1.4269  0.6068 -0.6330
  184SLPC   C2821066   3.482   1.865   4.286  0.4130 -0.2226 -0.0291
  184SLPC   H8R21067   3.395   1.854   4.353  0.6764 -1.7767  0.0762
  184SLPC   H8S21068   3.461   1.947   4.214  2.4390  0.2436 -0.1562
  184SLPC   C2921069   3.604   1.903   4.372  0.1510 -0.0499  0.0081
  184SLPC   H9R21070   3.697   1.905   4.313  0.4078  0.1863  0.4071
  184SLPC  C21021071   3.604   1.954   4.500 -0.3466  0.4983 -0.1935
  184SLPC  H10R21072   3.699   1.988   4.544  0.2650 -1.3209 -0.0438
  184SLPC  C21121073   3.483   1.963   4.592  0.4849 -0.5098  0.7102
  184SLPC  H11R21074   3.397   2.012   4.541  1.2254  1.8179  1.6131
  184SLPC  H11S21075   3.506   2.035   4.673  2.2153 -1.4585  1.1034
  184SLPC  C21221076   3.431   1.839   4.661 -0.1065  0.1776  0.5742
  184SLPC  H12R21077   3.363   1.781   4.598  0.6914 -0.8371  0.6339
  184SLPC  C21321078   3.470   1.798   4.776  0.6871  0.5147 -0.1870
  184SLPC  H13R21079   3.419   1.711   4.821  0.3219 -0.0579 -1.6679
  184SLPC  C21421080   3.558   1.873   4.875  1.0783 -0.3851 -0.3833
  184SLPC  H14R21081   3.521   1.976   4.891  0.5422 -0.7961  1.2822
  184SLPC  H14S21082   3.656   1.889   4.825  1.0124  0.5715 -0.2250
  184SLPC  C21521083   3.545   1.809   5.014  0.4302  0.5881  0.3137
  184SLPC  H15R21084   3.594   1.859   5.100 -1.3214  0.4198  1.4660
  184SLPC  H15S21085   3.598   1.712   5.021 -0.8801 -0.6474 -3.7039
  184SLPC  C21621086   3.399   1.789   5.066 -0.5101 -0.7284  0.2274
  184SLPC  H16R21087   3.348   1.718   4.998  1.3483 -0.8838 -1.0791
  184SLPC  H16S21088   3.353   1.890   5.055 -1.6488 -1.2345  0.2167
  184SLPC  C21721089   3.395   1.745   5.213 -0.1376  0.0368  0.0592
  184SLPC  H17R21090   3.458   1.656   5.235  0.3535  0.5796  0.8912
  184SLPC  H17S21091   3.289   1.718   5.230 -0.7604  1.9385 -0.5655
  184SLPC  C21821092   3.430   1.856   5.306 -0.6089  0.0183 -0.2075
  184SLPC  H18R21093   3.428   1.815   5.409 -0.0424 -1.4923 -0.7717
  184SLPC  H18S21094   3.375   1.952   5.301  0.9079  0.9086 -0.7730
  184SLPC  H18T21095   3.538   1.881   5.293 -0.3298  0.2337  2.1123
  184SLPC   C3321096   3.012   1.229   3.936 -0.0362  0.0198  0.9573
  184SLPC   H3X21097   3.013   1.137   3.875  1.1962  0.1539  0.7665
  184SLPC   H3Y21098   2.909   1.271   3.944  0.0910  0.6745 -0.5166
  184SLPC   C3421099   3.044   1.203   4.085 -0.1777 -0.5230 -0.1126
  184SLPC   H4X21100   3.135   1.139   4.084  0.4891  0.3926 -1.2540
  184SLPC   H4Y21101   2.956   1.142   4.111 -1.3501  1.3113  0.4104
  184SLPC   C3521102   3.047   1.318   4.185  0.3153 -0.1931  0.7447
  184SLPC   H5X21103   2.965   1.386   4.152  0.4997 -1.6028 -3.1537
  184SLPC   H5Y21104   3.144   1.369   4.166  0.6944 -0.3465  2.1824
  184SLPC   C3621105   3.043   1.287   4.336 -0.2838 -0.0873  0.3448
  184SLPC   H6X21106   3.064   1.387   4.378  1.7589 -0.8833  1.3553
  184SLPC   H6Y21107   3.127   1.216   4.352 -0.4135 -0.5556 -0.8877
  184SLPC   C3721108   2.908   1.236   4.370 -0.0910 -0.7543 -0.5990
  184SLPC   H7X21109   2.883   1.147   4.308  1.8548 -1.0332 -1.0605
  184SLPC   H7Y21110   2.824   1.304   4.344 -0.9942 -1.5964  0.0085
  184SLPC   C3821111   2.903   1.208   4.523  0.6065 -0.1462  1.3540
  184SLPC   H8X21112   2.934   1.300   4.576 -1.8724  0.4731  1.8683
  184SLPC   H8Y21113   2.977   1.130   4.551  1.4137 -0.4111 -1.2264
  184SLPC   C3921114   2.777   1.168   4.582  0.7150  0.0090  0.6101
  184SLPC   H9X21115   2.771   1.057   4.575  2.4155 -0.0285 -1.5826
  184SLPC   H9Y21116   2.687   1.209   4.532  0.2178 -0.1864  1.3396
  184SLPC  C31021117   2.769   1.213   4.729 -0.4568  1.1152 -0.3860
  184SLPC  H10X21118   2.862   1.172   4.774  0.2274  4.1425  1.2092
  184SLPC  H10Y21119   2.687   1.146   4.762  0.7519 -0.2766 -0.1014
  184SLPC  C31121120   2.757   1.366   4.753 -0.5097  0.7289  1.3226
  184SLPC  H11X21121   2.846   1.407   4.701 -1.4608  1.3575  0.1259
  184SLPC  H11Y21122   2.772   1.384   4.862 -0.7141  3.1962  1.0004
  184SLPC  C31221123   2.630   1.435   4.700 -0.6162 -0.6037 -0.5674
  184SLPC  H12X21124   2.533   1.391   4.732 -1.6902  2.4807  0.7335
  184SLPC  H12Y21125   2.640   1.414   4.591  1.3769 -3.0206 -0.0431
  184SLPC  C31321126   2.626   1.587   4.724 -0.4425 -0.0380 -1.0907
  184SLPC  H13X21127   2.556   1.622   4.646 -0.5533  0.0313 -0.9612
  184SLPC  H13Y21128   2.730   1.618   4.698  0.1285 -1.0524 -0.0998
  184SLPC  C31421129   2.582   1.625   4.868 -0.4193 -0.0394  0.7174
  184SLPC  H14X21130   2.654   1.611   4.952 -0.0222  2.2364  0.8300
  184SLPC  H14Y21131   2.488   1.569   4.886  0.9384 -2.7207 -0.0857
  184SLPC  C31521132   2.550   1.773   4.869 -0.1584  0.0525  0.5014
  184SLPC  H15X21133   2.490   1.793   4.961 -1.5189  0.9929 -0.5401
  184SLPC  H15Y21134   2.473   1.792   4.790 -1.9264  0.9491  2.3512
  184SLPC  C31621135   2.671   1.867   4.850  0.3426  0.0653  0.1727
  184SLPC  H16X21136   2.716   1.840   4.752  0.8427 -1.5227  0.8113
  184SLPC  H16Y21137   2.747   1.847   4.929 -0.1683  3.3691  1.6903
  184SLPC  C31721138   2.624   2.012   4.857 -0.0167 -0.7145 -0.0326
  184SLPC  H17X21139   2.559   2.026   4.946  0.1431 -2.2137  0.3463
  184SLPC  H17Y21140   2.563   2.035   4.767 -1.9893 -0.2831  1.3523
  184SLPC  C31821141   2.735   2.112   4.868  0.1397  0.6770  0.8672
  184SLPC  H18X21142   2.812   2.085   4.945  2.2370 -1.4852 -1.7787
  184SLPC  H18Y21143   2.685   2.204   4.903 -1.3958  0.4905 -0.7179
  184SLPC  H18Z21144   2.779   2.136   4.769  0.4090 -1.5883  0.3810
  185POPC     N21145   1.905   2.926   7.685  0.0191  0.0614 -1.3430
  185POPC   C1221146   1.811   2.967   7.568 -0.1502 -0.2043 -0.2548
  185POPC  H12A21147   1.713   2.931   7.596  0.2922 -0.4161  1.0581
  185POPC  H12B21148   1.847   2.916   7.479  1.7999 -0.7573  0.7869
  185POPC   C1321149   2.043   2.959   7.652  0.1382 -0.3176 -0.1017
  185POPC  H13A21150   2.071   2.903   7.564 -0.7082 -2.4251  0.8926
  185POPC  H13B21151   2.051   3.062   7.623 -1.9559 -0.1016 -0.0868
  185POPC  H13C21152   2.100   2.937   7.741 -1.5550  3.1074  2.0180
  185POPC   C1421153   1.864   2.982   7.819  0.1900 -0.6906  0.9251
  185POPC  H14A21154   1.866   3.090   7.813 -0.4436 -0.7245 -0.2290
  185POPC  H14B21155   1.761   2.951   7.830  0.0369 -0.7547 -0.5471
  185POPC  H14C21156   1.915   2.939   7.904  0.6224  0.4184  1.2503
  185POPC   C1521157   1.893   2.779   7.717  0.0024 -0.2494  0.5750
  185POPC  H15A21158   1.792   2.748   7.740 -0.1647  0.4260  0.7791
  185POPC  H15B21159   1.954   2.746   7.799 -0.2520  0.6430  1.1310
  185POPC  H15C21160   1.926   2.724   7.630  1.2918  1.7658 -0.2936
  185POPC   C1121161   1.806   3.120   7.530 -0.4757  0.0448  0.1061
  185POPC  H11A21162   1.773   3.172   7.622  1.3701 -0.2223  0.9707
  185POPC  H11B21163   1.734   3.139   7.447  2.7816  0.5198 -2.8505
  185POPC     P21164   1.994   3.142   7.354 -0.1384  0.4104  0.0692
  185POPC   O1321165   1.922   3.232   7.261  0.1990 -0.2946  1.0223
  185POPC   O1421166   1.979   2.999   7.319  0.1717  0.0325 -0.1464
  185POPC   O1221167   1.932   3.170   7.491  0.9227 -0.1419 -0.5466
  185POPC   O1121168   2.145   3.181   7.358  0.1370 -0.0629 -1.0082
  185POPC    C121169   2.248   3.086   7.329  0.8949 -0.3651 -0.1070
  185POPC    HA21170   2.217   2.982   7.353 -1.1560 -0.4887 -2.8398
  185POPC    HB21171   2.339   3.114   7.387  2.4590 -0.5234 -2.3527
  185POPC    C221172   2.289   3.100   7.183  0.2209 -0.2351  0.7670
  185POPC    HS21173   2.315   3.206   7.167  0.9958 -0.3088  1.4527
  185POPC   O2121174   2.190   3.057   7.089 -0.1817  0.2687  0.0353
  185POPC   C2121175   2.129   3.145   7.010  0.1771  0.2173  0.1199
  185POPC   O2221176   2.144   3.268   7.015  0.3309  0.2665 -0.5025
  185POPC   C2221177   2.034   3.064   6.918  0.4667 -0.2872  0.2063
  185POPC   H2R21178   1.938   3.043   6.970  0.3687 -0.6472 -0.1212
  185POPC   H2S21179   2.098   2.978   6.887 -0.0663 -0.8813  0.7347
  185POPC    C321180   2.409   3.004   7.158  0.8548  0.1563 -0.1570
  185POPC    HX21181   2.375   2.900   7.175  2.0166 -0.0105  1.2971
  185POPC    HY21182   2.495   3.019   7.227  1.4178  0.0091 -0.8113
  185POPC   O3121183   2.438   3.003   7.019 -0.0991 -0.1224  0.1474
  185POPC   C3121184   2.538   3.077   6.981 -0.3519 -0.8797  0.3257
  185POPC   O3221185   2.625   3.121   7.059  0.6936 -0.0045  0.4893
  185POPC   C3221186   2.544   3.093   6.829 -0.2895 -0.1376 -0.4739
  185POPC   H2X21187   2.649   3.126   6.812  0.1465 -0.6536  1.0917
  185POPC   H2Y21188   2.473   3.169   6.791 -0.8898 -1.1713 -1.4921
  185POPC   C2321189   1.990   3.143   6.794 -0.3955 -0.0175 -0.1570
  185POPC   H3R21190   1.956   3.247   6.813 -1.0123 -0.1970 -0.2859
  185POPC   H3S21191   1.902   3.093   6.748  0.2906 -1.6657  0.2536
  185POPC   C2421192   2.113   3.152   6.696  0.5892 -0.1531 -0.2537
  185POPC   H4R21193   2.204   3.201   6.736  0.1723 -0.1667  0.7394
  185POPC   H4S21194   2.070   3.226   6.625  0.1663 -0.4138 -0.2756
  185POPC   C2521195   2.140   3.024   6.618 -0.2693 -0.2088 -0.3355
  185POPC   H5R21196   2.052   2.957   6.613  0.4095 -1.0454 -1.6203
  185POPC   H5S21197   2.220   2.978   6.680  1.1102  1.9542 -0.3993
  185POPC   C2621198   2.181   3.050   6.467  0.2994 -0.0096  0.0606
  185POPC   H6R21199   2.237   2.963   6.427  0.7180 -0.6163  1.8867
  185POPC   H6S21200   2.258   3.129   6.465 -0.4683  0.7884  1.0744
  185POPC   C2721201   2.058   3.085   6.376 -0.9049 -0.1084 -0.1931
  185POPC   H7R21202   2.012   3.183   6.404 -0.7735 -0.1613  0.2125
  185POPC   H7S21203   1.976   3.012   6.388 -1.2753  0.1012 -1.2705
  185POPC   C2821204   2.098   3.092   6.224 -0.1732  0.1968 -0.0283
  185POPC   H8R21205   2.176   3.170   6.216  0.2257  0.0145  1.5457
  185POPC   H8S21206   2.012   3.125   6.163 -0.4396 -0.9807 -0.3170
  185POPC   C2921207   2.159   2.966   6.164  0.4878  0.2873 -0.8088
  185POPC   H9121208   2.192   2.890   6.236  2.1810 -0.2067 -2.0285
  185POPC  C21021209   2.178   2.940   6.037  0.7499 -0.4160  0.0282
  185POPC  H10121210   2.191   2.833   6.013 -0.9231 -0.5225 -0.5138
  185POPC  C21121211   2.142   3.027   5.913  0.7237  0.5880  0.8745
  185POPC  H11R21212   2.220   3.103   5.891 -1.3186  3.1007  1.7489
  185POPC  H11S21213   2.044   3.079   5.921  1.0873  1.5573 -0.5154
  185POPC  C21221214   2.126   2.919   5.802 -0.0996 -0.2383 -0.0304
  185POPC  H12R21215   2.043   2.846   5.814 -1.6523  1.2813 -1.1174
  185POPC  H12S21216   2.216   2.855   5.796  1.1397  1.5816 -3.1596
  185POPC  C21321217   2.117   2.974   5.661  0.1676 -0.1047 -0.5719
  185POPC  H13R21218   2.210   3.015   5.617  0.7261 -3.0626 -2.4418
  185POPC  H13S21219   2.048   3.061   5.659  0.6342  0.2587 -1.8047
  185POPC  C21421220   2.068   2.871   5.560  0.8016  0.1982 -0.3251
  185POPC  H14R21221   1.969   2.828   5.587  1.5231  0.4482  3.1374
  185POPC  H14S21222   2.143   2.794   5.531  1.9965  0.6530  1.4097
  185POPC  C21521223   2.010   2.944   5.432 -0.1511 -0.0950 -0.2859
  185POPC  H15R21224   2.092   2.998   5.379 -0.0551 -0.4218 -0.4691
  185POPC  H15S21225   1.937   3.021   5.465  0.4777 -0.0451  1.0371
  185POPC  C21621226   1.948   2.840   5.332  0.1731 -0.0296 -1.0449
  185POPC  H16R21227   1.886   2.763   5.382 -2.0861  1.7571 -0.9608
  185POPC  H16S21228   2.037   2.785   5.295  1.1637  1.0012 -0.2911
  185POPC  C21721229   1.877   2.892   5.209 -0.4212 -0.2481  0.1051
  185POPC  H17R21230   1.862   2.810   5.135  0.6700  0.6380 -1.1430
  185POPC  H17S21231   1.938   2.969   5.158  0.5432  0.1549  1.7992
  185POPC  C21821232   1.735   2.945   5.240 -0.5504  0.2970  0.1906
  185POPC  H18R21233   1.752   3.037   5.300  1.1397 -0.1554  0.4619
  185POPC  H18S21234   1.667   2.870   5.284  0.5028 -1.5323 -1.1559
  185POPC  H18T21235   1.699   2.975   5.139  1.8813 -2.8900 -1.8103
  185POPC   C3321236   2.525   2.956   6.754 -0.2245 -0.0307  0.3652
  185POPC   H3X21237   2.417   2.933   6.764 -0.6122  1.2801 -0.5669
  185POPC   H3Y21238   2.585   2.880   6.809 -1.3260 -0.9638  0.3218
  185POPC   C3421239   2.574   2.957   6.605  0.9128  0.2972 -0.5537
  185POPC   H4X21240   2.676   2.999   6.587  0.6962 -0.0055 -2.7985
  185POPC   H4Y21241   2.503   3.030   6.559 -0.1480 -1.4899 -1.8770
  185POPC   C3521242   2.572   2.817   6.535 -0.1990  0.0915  0.5597
  185POPC   H5X21243   2.490   2.753   6.575 -1.2465  0.1675 -1.3625
  185POPC   H5Y21244   2.667   2.763   6.553  0.0234 -0.2482 -1.4107
  185POPC   C3621245   2.552   2.820   6.378  0.3133 -0.4612 -0.1688
  185POPC   H6X21246   2.459   2.875   6.352  1.9607  1.0171 -3.4978
  185POPC   H6Y21247   2.546   2.715   6.342 -1.4696 -0.7372  0.7772
  185POPC   C3721248   2.671   2.884   6.313 -0.8358  0.5536 -0.5371
  185POPC   H7X21249   2.763   2.831   6.347 -0.6445  1.0761 -0.2278
  185POPC   H7Y21250   2.673   2.989   6.351 -0.4820  0.1079  0.7462
  185POPC   C3821251   2.674   2.887   6.158  0.0287  0.3609  0.8475
  185POPC   H8X21252   2.661   2.785   6.117 -3.1987  0.5085  1.2540
  185POPC   H8Y21253   2.775   2.919   6.122 -0.7041 -1.7951 -3.9074
  185POPC   C3921254   2.571   2.990   6.106 -0.5292  0.3006 -0.3462
  185POPC   H9X21255   2.593   3.085   6.160  0.1744 -1.3342  2.4476
  185POPC   H9Y21256   2.468   2.960   6.134 -0.8378  0.7608 -0.9492
  185POPC  C31021257   2.591   3.010   5.954 -1.1811  0.6735  0.1787
  185POPC  H10X21258   2.699   3.024   5.936 -1.4762  1.4543 -1.1028
  185POPC  H10Y21259   2.551   3.101   5.906  0.1200  0.0641 -2.2221
  185POPC  C31121260   2.539   2.894   5.861 -0.0289 -0.2688 -0.3743
  185POPC  H11X21261   2.429   2.891   5.873 -0.0558  0.0460 -0.5197
  185POPC  H11Y21262   2.603   2.806   5.882 -0.7714 -0.6326  0.4267
  185POPC  C31221263   2.557   2.914   5.710 -0.8888  0.2384  0.0571
  185POPC  H12X21264   2.664   2.901   5.685 -0.7797  2.2353 -0.7284
  185POPC  H12Y21265   2.544   3.020   5.680  0.4518 -0.0232 -1.5790
  185POPC  C31321266   2.461   2.823   5.620  0.4814  0.5481 -0.8342
  185POPC  H13X21267   2.360   2.826   5.667  2.0124 -0.2882  2.8685
  185POPC  H13Y21268   2.483   2.715   5.630 -1.4008  0.1067 -1.0839
  185POPC  C31421269   2.470   2.859   5.464 -0.0481  0.5791 -0.3347
  185POPC  H14X21270   2.443   2.965   5.450 -0.1464  0.3708 -1.8316
  185POPC  H14Y21271   2.404   2.793   5.404  1.2799 -1.7910  0.6473
  185POPC  C31521272   2.611   2.826   5.406 -0.1595  0.1562  0.3496
  185POPC  H15X21273   2.632   2.717   5.406 -0.7859  0.0345  0.3130
  185POPC  H15Y21274   2.688   2.877   5.468  0.0725  2.4312 -1.6698
  185POPC  C31621275   2.623   2.882   5.262  0.3044  0.2472 -0.4506
  185POPC  H16X21276   2.574   2.807   5.196 -0.2852 -0.0959  0.3491
  185POPC  H16Y21277   2.729   2.892   5.232  0.4133  1.9522  0.3954
  185POPC  H16Z21278   2.570   2.979   5.250  0.6415  0.5134  0.1828
  186POPC     N21279   0.773   2.617   7.739 -0.7306 -0.2145  0.0796
  186POPC   C1221280   0.807   2.522   7.625 -0.1039 -0.1353 -0.1650
  186POPC  H12A21281   0.811   2.422   7.666 -0.6753  0.2778  0.9409
  186POPC  H12B21282   0.903   2.540   7.579 -0.1049 -1.0697 -0.5487
  186POPC   C1321283   0.770   2.757   7.689  0.9565  0.0452  1.2565
  186POPC  H13A21284   0.689   2.763   7.617  0.8282 -1.7304  1.2113
  186POPC  H13B21285   0.749   2.828   7.767  1.6729  1.3324  0.3238
  186POPC  H13C21286   0.863   2.793   7.648 -0.8337  2.0484 -1.4356
  186POPC   C1421287   0.642   2.581   7.803  0.4864 -0.6155 -0.0217
  186POPC  H14A21288   0.627   2.649   7.887  1.2757 -0.0772 -0.2992
  186POPC  H14B21289   0.561   2.587   7.732  1.4339 -0.9648 -1.1519
  186POPC  H14C21290   0.640   2.482   7.846  0.6656 -0.5299  0.1913
  186POPC   C1521291   0.874   2.599   7.846  0.0523 -0.6818  0.4747
  186POPC  H15A21292   0.897   2.494   7.860  0.3359 -0.7622 -0.4855
  186POPC  H15B21293   0.836   2.640   7.938 -0.0281 -1.0995  0.6320
  186POPC  H15C21294   0.969   2.644   7.824  0.0744 -0.1279  1.6108
  186POPC   C1121295   0.714   2.510   7.500 -0.4992  0.0313 -0.8478
  186POPC  H11A21296   0.616   2.477   7.540 -0.7490  2.3053  0.6068
  186POPC  H11B21297   0.755   2.427   7.438 -1.4575 -0.8230 -0.3598
  186POPC     P21298   0.830   2.688   7.349 -0.2529  0.2049  0.3028
  186POPC   O1321299   0.955   2.643   7.412 -0.2354 -0.2617  0.3102
  186POPC   O1421300   0.808   2.830   7.317  0.1172  0.4348 -0.2385
  186POPC   O1221301   0.706   2.639   7.430 -0.1953 -0.4756  0.1955
  186POPC   O1121302   0.817   2.606   7.213  0.2320  0.4698 -0.9404
  186POPC    C121303   0.692   2.585   7.150 -0.1466 -0.0407 -1.1647
  186POPC    HA21304   0.614   2.651   7.193 -0.6965 -2.3921  1.8146
  186POPC    HB21305   0.658   2.481   7.174  0.9185  0.0148  0.7487
  186POPC    C221306   0.685   2.607   6.997 -0.8434 -0.3525  1.2167
  186POPC    HS21307   0.590   2.556   6.969 -1.1616  1.1010 -0.5602
  186POPC   O2121308   0.800   2.551   6.925  0.7815  0.2944  0.2028
  186POPC   C2121309   0.796   2.416   6.920  1.0716  0.8195 -0.7040
  186POPC   O2221310   0.703   2.343   6.945 -0.1269 -0.7748 -0.1722
  186POPC   C2221311   0.928   2.373   6.858 -0.7695  0.4018  0.6045
  186POPC   H2R21312   0.971   2.283   6.908 -2.0629  0.0913  1.2144
  186POPC   H2S21313   1.000   2.457   6.866 -0.2790 -0.0500  1.0490
  186POPC    C321314   0.669   2.756   6.955 -0.1381  0.8089 -0.4468
  186POPC    HX21315   0.765   2.807   6.975  0.8201 -0.9813 -0.2491
  186POPC    HY21316   0.583   2.792   7.016 -1.0278 -0.4426 -0.8987
  186POPC   O3121317   0.639   2.765   6.820  0.3728 -0.0850 -0.0161
  186POPC   C3121318   0.679   2.873   6.761 -0.6532  0.4776  0.3787
  186POPC   O3221319   0.737   2.967   6.810  0.1607  0.6671 -0.5321
  186POPC   C3221320   0.630   2.864   6.616 -0.1361 -0.1661  0.2560
  186POPC   H2X21321   0.532   2.813   6.623  1.1523 -2.8419 -0.1798
  186POPC   H2Y21322   0.698   2.791   6.569  0.3017 -0.3882  1.2085
  186POPC   C2321323   0.910   2.333   6.707 -0.1212 -0.2433 -0.0553
  186POPC   H3R21324   0.843   2.244   6.709 -0.1505 -0.2432  2.1198
  186POPC   H3S21325   1.003   2.289   6.664 -0.6821 -1.2932 -0.2192
  186POPC   C2421326   0.860   2.449   6.618  0.4391 -0.2559 -0.2615
  186POPC   H4R21327   0.924   2.538   6.631 -1.5764  0.9691  2.0450
  186POPC   H4S21328   0.758   2.482   6.646  0.8569  2.9425 -2.0089
  186POPC   C2521329   0.876   2.415   6.466  0.2816 -0.4853  0.4856
  186POPC   H5R21330   0.806   2.335   6.435 -1.1864  0.9878 -0.1360
  186POPC   H5S21331   0.978   2.385   6.433  0.3150 -0.7916  0.8612
  186POPC   C2621332   0.828   2.539   6.382 -0.6383 -0.5692 -0.3238
  186POPC   H6R21333   0.903   2.621   6.386 -1.9038  0.6934 -1.3315
  186POPC   H6S21334   0.739   2.582   6.433  0.2956  0.1179  0.7594
  186POPC   C2721335   0.800   2.503   6.229  0.1398 -0.6566 -0.4383
  186POPC   H7R21336   0.728   2.420   6.218  2.6772 -2.8761 -1.2848
  186POPC   H7S21337   0.903   2.472   6.202  0.0855 -2.8607  1.5867
  186POPC   C2821338   0.744   2.622   6.155 -0.6163 -0.8164 -0.1903
  186POPC   H8R21339   0.752   2.590   6.049  0.1092 -2.2702  0.2759
  186POPC   H8S21340   0.817   2.703   6.176 -0.9409 -0.8906  1.3673
  186POPC   C2921341   0.601   2.658   6.205 -0.7798 -0.0385 -0.1261
  186POPC   H9121342   0.608   2.652   6.315  2.3241 -2.3053 -0.3237
  186POPC  C21021343   0.486   2.694   6.149 -0.5422  0.1346  0.3025
  186POPC  H10121344   0.398   2.707   6.214  0.0597  2.4200  0.7222
  186POPC  C21121345   0.469   2.687   6.001  0.4422  0.1241  0.0601
  186POPC  H11R21346   0.539   2.610   5.964 -0.0404 -0.2240 -0.1405
  186POPC  H11S21347   0.489   2.786   5.955 -1.5329 -0.0851 -1.3644
  186POPC  C21221348   0.331   2.649   5.941  0.2379  0.0969  0.0021
  186POPC  H12R21349   0.251   2.725   5.956 -2.1754 -2.3682  0.7047
  186POPC  H12S21350   0.301   2.555   5.994  0.1738  0.6739  1.0120
  186POPC  C21321351   0.330   2.610   5.796  0.3606  0.1321 -0.1346
  186POPC  H13R21352   0.244   2.543   5.776 -2.0128  3.1439 -0.7942
  186POPC  H13S21353   0.423   2.554   5.772  1.4155  1.8986 -0.2850
  186POPC  C21421354   0.343   2.733   5.703  0.2706  0.3407  0.5255
  186POPC  H14R21355   0.428   2.797   5.733  1.7469 -0.7049 -1.2445
  186POPC  H14S21356   0.253   2.798   5.708  0.9063  1.4704 -1.5017
  186POPC  C21521357   0.374   2.693   5.558 -0.4506  0.9847 -0.5823
  186POPC  H15R21358   0.292   2.622   5.534 -0.6752  0.6502  1.0463
  186POPC  H15S21359   0.469   2.634   5.552 -0.4448  0.6757  1.7889
  186POPC  C21621360   0.389   2.801   5.453  0.3291  1.1101  0.3910
  186POPC  H16R21361   0.470   2.870   5.483  1.5744 -0.2278  0.2319
  186POPC  H16S21362   0.303   2.871   5.451 -2.1526 -1.7340  0.4229
  186POPC  C21721363   0.418   2.748   5.317  0.1416  0.0033 -0.1727
  186POPC  H17R21364   0.346   2.666   5.294  2.2646 -1.4489 -2.0013
  186POPC  H17S21365   0.522   2.711   5.303  1.2472  1.9628  2.2412
  186POPC  C21821366   0.405   2.847   5.205  0.1932  0.0505  0.7295
  186POPC  H18R21367   0.419   2.796   5.107  0.1668 -0.1185  0.8135
  186POPC  H18S21368   0.464   2.940   5.216 -0.3452  0.7813 -1.7320
  186POPC  H18T21369   0.302   2.889   5.201  0.6365  1.1151 -2.2611
  186POPC   C3321370   0.627   2.998   6.542  0.1972 -0.7340 -0.0477
  186POPC   H3X21371   0.727   3.045   6.554  0.5528 -2.0718  3.1870
  186POPC   H3Y21372   0.565   3.061   6.609  0.0471 -2.2972  1.3677
  186POPC   C3421373   0.569   2.994   6.394  0.3860 -0.4864 -0.1299
  186POPC   H4X21374   0.513   2.898   6.391 -0.6666  0.1491 -1.6060
  186POPC   H4Y21375   0.660   2.983   6.331  0.4516  1.2732 -0.4016
  186POPC   C3521376   0.467   3.108   6.348 -0.6064  0.4857  0.0803
  186POPC   H5X21377   0.508   3.210   6.360 -1.8022  0.9065  0.7239
  186POPC   H5Y21378   0.377   3.108   6.413 -0.2804  1.6587  0.5563
  186POPC   C3621379   0.410   3.082   6.212 -0.1675 -0.2670 -0.1086
  186POPC   H6X21380   0.306   3.121   6.214 -0.4386 -1.0031  1.9271
  186POPC   H6Y21381   0.400   2.973   6.195 -1.4378 -0.2497  0.3727
  186POPC   C3721382   0.476   3.158   6.093 -0.2714  0.2818  0.1568
  186POPC   H7X21383   0.469   3.263   6.129 -0.2094 -0.1765  1.5623
  186POPC   H7Y21384   0.412   3.129   6.008 -1.3387  1.4017  0.5458
  186POPC   C3821385   0.624   3.115   6.083  0.1080  0.1894 -0.1919
  186POPC   H8X21386   0.626   3.009   6.117 -4.1563  1.1060  4.0833
  186POPC   H8Y21387   0.676   3.174   6.162  1.2996 -0.7783 -0.2249
  186POPC   C3921388   0.677   3.125   5.943 -0.4316  0.1825 -0.2151
  186POPC   H9X21389   0.788   3.113   5.939 -0.6199 -2.9110  1.4149
  186POPC   H9Y21390   0.668   3.231   5.910  1.0898  0.3600 -0.1344
  186POPC  C31021391   0.624   3.037   5.833 -0.3059  0.5959  0.4532
  186POPC  H10X21392   0.515   3.042   5.852 -0.1957  0.6443  1.0848
  186POPC  H10Y21393   0.644   2.928   5.845 -0.0466  0.3725 -1.6277
  186POPC  C31121394   0.660   3.088   5.690  0.5870 -0.2802  0.4792
  186POPC  H11X21395   0.655   3.008   5.614 -0.0875  1.3421 -1.2514
  186POPC  H11Y21396   0.764   3.125   5.677  1.6442 -3.2300 -0.1500
  186POPC  C31221397   0.554   3.184   5.630  0.5034 -0.7118  0.6474
  186POPC  H12X21398   0.548   3.273   5.697  0.5361  0.3614 -0.7230
  186POPC  H12Y21399   0.458   3.128   5.621  0.0759  0.0559  0.2320
  186POPC  C31321400   0.580   3.249   5.485  0.5065 -0.0023 -0.0790
  186POPC  H13X21401   0.491   3.295   5.438  1.2854  0.0162 -1.5890
  186POPC  H13Y21402   0.610   3.168   5.416 -0.2501 -1.1235  0.8741
  186POPC  C31421403   0.701   3.346   5.508  0.6663  0.3954  0.0076
  186POPC  H14X21404   0.784   3.293   5.558  0.8397 -0.0623 -0.7433
  186POPC  H14Y21405   0.676   3.434   5.571  0.7614  0.4678 -0.0550
  186POPC  C31521406   0.752   3.405   5.384 -0.6976 -0.1001  0.0142
  186POPC  H15X21407   0.684   3.480   5.339  0.4325 -0.7998 -3.1203
  186POPC  H15Y21408   0.753   3.323   5.309  1.7371  0.5546 -0.7565
  186POPC  C31621409   0.893   3.459   5.397  0.0230 -0.1515 -0.5774
  186POPC  H16X21410   0.950   3.365   5.409 -0.0107 -0.1943 -0.7438
  186POPC  H16Y21411   0.906   3.539   5.472  0.6392 -1.3462  0.6226
  186POPC  H16Z21412   0.937   3.509   5.308  2.7981 -0.8929  0.2813
  187POPC     N21413   2.031   3.302   2.918  0.1196  0.2645  0.6984
  187POPC   C1221414   2.054   3.150   2.906 -0.0140 -0.1692  0.0598
  187POPC  H12A21415   2.122   3.141   2.822  1.8064  2.8090  1.0541
  187POPC  H12B21416   1.960   3.106   2.875 -0.5198  0.6290  0.4203
  187POPC   C1321417   1.971   3.355   2.794  0.4408  0.2073  0.0551
  187POPC  H13A21418   2.022   3.318   2.706  0.1307  0.5592 -0.2739
  187POPC  H13B21419   1.868   3.321   2.794  0.5967 -0.2693  0.3368
  187POPC  H13C21420   1.971   3.463   2.798 -3.1734  0.3081  0.4526
  187POPC   C1421421   1.933   3.328   3.033 -1.0116  0.2345  0.4508
  187POPC  H14A21422   1.986   3.331   3.127  0.8756 -0.0143 -0.5580
  187POPC  H14B21423   1.878   3.420   3.016  1.6706  2.2489  1.9187
  187POPC  H14C21424   1.868   3.242   3.044 -0.8538 -0.1374 -1.2929
  187POPC   C1521425   2.163   3.381   2.938  0.2550 -0.1416  0.4100
  187POPC  H15A21426   2.203   3.366   3.037 -0.0113  2.6578  1.0153
  187POPC  H15B21427   2.125   3.481   2.943  1.1609  0.2819 -0.7177
  187POPC  H15C21428   2.233   3.355   2.860  0.9534  3.1305 -0.1937
  187POPC   C1121429   2.120   3.079   3.018 -0.6822  0.7366 -0.7076
  187POPC  H11A21430   2.068   3.099   3.113 -0.3563 -1.7656  0.0710
  187POPC  H11B21431   2.222   3.121   3.027  0.1785 -1.4148  0.3097
  187POPC     P21432   2.234   2.843   2.994 -0.3579  0.4138 -0.2120
  187POPC   O1321433   2.339   2.865   2.894 -0.0711  0.2548 -1.1846
  187POPC   O1421434   2.174   2.710   2.988 -0.2373 -0.4337 -0.5587
  187POPC   O1221435   2.121   2.949   2.975  0.1275  0.5429  0.0614
  187POPC   O1121436   2.292   2.871   3.139  0.1412  0.2156  0.1550
  187POPC    C121437   2.223   2.813   3.248 -0.4274 -0.0228 -0.1467
  187POPC    HA21438   2.176   2.713   3.237  0.6725 -0.4993 -0.7187
  187POPC    HB21439   2.140   2.877   3.285  2.4476  2.9511  1.7024
  187POPC    C221440   2.320   2.804   3.369 -0.2371  0.0256 -0.5789
  187POPC    HS21441   2.410   2.743   3.349  0.3109  0.4547  0.5026
  187POPC   O2121442   2.252   2.764   3.486 -0.8279 -0.1569 -0.5006
  187POPC   C2121443   2.258   2.636   3.511  0.1460  1.2902 -0.2081
  187POPC   O2221444   2.319   2.552   3.444  0.6613  0.6503 -0.1372
  187POPC   C2221445   2.198   2.611   3.643 -0.5855 -0.2553 -0.1464
  187POPC   H2R21446   2.087   2.615   3.632 -0.2884  2.0125 -4.4622
  187POPC   H2S21447   2.227   2.692   3.714  0.3278 -2.5869  2.3159
  187POPC    C321448   2.375   2.941   3.406  0.1481 -0.6259  0.1067
  187POPC    HX21449   2.289   3.010   3.420 -0.8456 -1.9162  0.5702
  187POPC    HY21450   2.433   2.982   3.321 -0.5211 -2.0075 -1.0576
  187POPC   O3121451   2.458   2.935   3.523  0.3993 -0.1218 -0.4983
  187POPC   C3121452   2.578   2.881   3.514 -0.3496 -0.7964 -0.1851
  187POPC   O3221453   2.645   2.850   3.415  0.4667 -0.4990 -0.2082
  187POPC   C3221454   2.631   2.882   3.661 -0.4938 -0.5356  0.3636
  187POPC   H2X21455   2.606   2.786   3.710  0.2780  0.5356  3.0237
  187POPC   H2Y21456   2.581   2.973   3.702 -1.0503  1.0418 -3.3927
  187POPC   C2321457   2.233   2.479   3.715  0.1910  0.1618 -1.1549
  187POPC   H3R21458   2.329   2.487   3.771  0.1325 -1.7127 -0.7207
  187POPC   H3S21459   2.247   2.392   3.648 -2.7782 -1.9112  0.6531
  187POPC   C2421460   2.124   2.447   3.824 -0.1716 -0.3472  0.0836
  187POPC   H4R21461   2.028   2.434   3.769 -1.2105 -2.2647  2.1618
  187POPC   H4S21462   2.120   2.532   3.896  2.1236  2.1889 -2.5448
  187POPC   C2521463   2.156   2.326   3.913 -0.0409 -0.0158  0.1101
  187POPC   H5R21464   2.192   2.348   4.016 -0.0284  0.7789 -0.0533
  187POPC   H5S21465   2.240   2.276   3.860  1.3560  0.4812  1.7493
  187POPC   C2621466   2.035   2.230   3.926 -0.0335 -0.2238 -0.0386
  187POPC   H6R21467   2.009   2.194   3.824 -0.8998  0.9155 -0.2386
  187POPC   H6S21468   1.942   2.271   3.971 -2.4045 -4.8226 -0.0697
  187POPC   C2721469   2.070   2.102   4.012 -0.1408  0.3996  0.0701
  187POPC   H7R21470   2.165   2.064   3.969 -0.5459  0.9604 -1.3678
  187POPC   H7S21471   1.992   2.025   3.996 -1.9533  1.2718  3.6357
  187POPC   C2821472   2.084   2.142   4.158  0.3043  0.0929  0.2940
  187POPC   H8R21473   1.999   2.202   4.197 -0.0716  0.7646 -1.4655
  187POPC   H8S21474   2.168   2.215   4.157 -1.1475  1.9424  2.3338
  187POPC   C2921475   2.096   2.027   4.255  0.2150 -0.3098 -0.2502
  187POPC   H9121476   2.006   1.964   4.263 -1.5269  2.0962  0.3392
  187POPC  C21021477   2.193   2.015   4.345 -0.1253 -0.3073  0.0620
  187POPC  H10121478   2.191   1.922   4.403 -3.4462 -1.6674 -1.9446
  187POPC  C21121479   2.319   2.101   4.367  0.7361 -0.4106  0.1317
  187POPC  H11R21480   2.315   2.142   4.470 -0.8418  1.1179 -0.4958
  187POPC  H11S21481   2.317   2.186   4.296 -1.0149 -0.8124 -0.3675
  187POPC  C21221482   2.456   2.024   4.359  0.5122  0.0987 -0.5253
  187POPC  H12R21483   2.454   1.956   4.447  0.4836  1.7060  0.7681
  187POPC  H12S21484   2.549   2.084   4.369  0.7018 -0.2116 -0.4280
  187POPC  C21321485   2.487   1.951   4.217 -0.5693 -0.2227 -0.1253
  187POPC  H13R21486   2.416   1.867   4.201 -0.3397 -0.2195 -1.2860
  187POPC  H13S21487   2.590   1.909   4.224 -0.5124  0.1589  2.5784
  187POPC  C21421488   2.479   2.049   4.106  1.0474  0.2579  0.4303
  187POPC  H14R21489   2.378   2.096   4.103  1.4378  1.1961  1.4519
  187POPC  H14S21490   2.482   1.990   4.012  1.8969  0.4634  0.3212
  187POPC  C21521491   2.588   2.164   4.097 -0.1518  0.3728  0.0174
  187POPC  H15R21492   2.691   2.130   4.071  0.3714  0.9229  1.2688
  187POPC  H15S21493   2.598   2.195   4.203  0.8064 -1.0700  0.3836
  187POPC  C21621494   2.545   2.288   4.010 -0.2711  0.3877  0.5226
  187POPC  H16R21495   2.462   2.343   4.060  0.1739 -1.6638  3.8288
  187POPC  H16S21496   2.497   2.255   3.916 -0.2229  0.9252  0.3074
  187POPC  C21721497   2.657   2.388   3.995 -0.0945  0.0924  0.3548
  187POPC  H17R21498   2.749   2.343   3.952  1.1078  2.0728  0.7462
  187POPC  H17S21499   2.689   2.431   4.092 -0.5149 -0.8202  0.9162
  187POPC  C21821500   2.621   2.493   3.891 -0.6502 -0.1883  0.3280
  187POPC  H18R21501   2.618   2.452   3.788  1.6300  0.1449  0.0623
  187POPC  H18S21502   2.687   2.583   3.886 -0.0073 -0.6921 -0.4541
  187POPC  H18T21503   2.523   2.533   3.924 -1.2333 -1.3578  0.0740
  187POPC   C3321504   2.789   2.899   3.680  0.0567  0.0043 -0.1165
  187POPC   H3X21505   2.814   3.007   3.675  0.0601 -0.0363 -1.3635
  187POPC   H3Y21506   2.834   2.851   3.590  1.5023 -1.6649  1.4284
  187POPC   C3421507   2.831   2.826   3.807  0.3500  0.5390  0.3975
  187POPC   H4X21508   2.939   2.848   3.822  0.2930 -0.5083  2.8226
  187POPC   H4Y21509   2.840   2.715   3.796 -1.2006  0.3140  1.1140
  187POPC   C3521510   2.749   2.862   3.924 -0.2054 -0.2508 -1.0301
  187POPC   H5X21511   2.648   2.817   3.920 -2.0924  3.6552 -2.4960
  187POPC   H5Y21512   2.721   2.970   3.923 -0.9327 -0.4232 -0.1421
  187POPC   C3621513   2.807   2.815   4.059  0.0345 -0.3350 -0.4430
  187POPC   H6X21514   2.850   2.713   4.046  1.9768  0.1929  1.2675
  187POPC   H6Y21515   2.736   2.802   4.143 -0.7226 -0.3902 -1.0872
  187POPC   C3721516   2.924   2.905   4.113  0.2778  0.7587  0.0117
  187POPC   H7X21517   2.995   2.937   4.034 -0.2452 -0.2785 -0.9043
  187POPC   H7Y21518   2.985   2.843   4.183 -0.6313 -0.4495 -0.2353
  187POPC   C3821519   2.874   3.026   4.195  0.2177 -0.8045 -0.1873
  187POPC   H8X21520   2.814   2.992   4.282  1.4384 -0.4508  0.8174
  187POPC   H8Y21521   2.815   3.092   4.128 -1.9655 -1.2724  1.1676
  187POPC   C3921522   2.983   3.116   4.256  0.2729  0.5365 -0.3851
  187POPC   H9X21523   3.022   3.174   4.170 -1.9674  3.0967  0.2041
  187POPC   H9Y21524   3.064   3.053   4.299 -2.0637  0.1071  3.9133
  187POPC  C31021525   2.908   3.205   4.360 -0.2001 -0.2125  0.2761
  187POPC  H10X21526   2.874   3.133   4.437 -0.1985 -1.0896 -0.5166
  187POPC  H10Y21527   2.823   3.261   4.315  0.7073  1.2513  0.3087
  187POPC  C31121528   2.997   3.316   4.427  0.1485 -0.0232 -0.0203
  187POPC  H11X21529   3.019   3.399   4.355 -0.4285  1.5362  1.5307
  187POPC  H11Y21530   3.094   3.269   4.453  0.7500  0.2420 -1.6483
  187POPC  C31221531   2.920   3.381   4.537 -0.5316  0.0568  0.1979
  187POPC  H12X21532   2.903   3.302   4.613  2.1443  1.1447  2.1238
  187POPC  H12Y21533   2.820   3.417   4.505  0.2130  0.8237 -1.3809
  187POPC  C31321534   2.989   3.500   4.597  0.3655 -0.2340  0.4020
  187POPC  H13X21535   2.927   3.531   4.683  1.5828 -1.3481  1.7255
  187POPC  H13Y21536   3.003   3.584   4.525 -1.0453 -0.8167 -0.5949
  187POPC  C31421537   3.124   3.463   4.655  0.3679  0.4667  0.5549
  187POPC  H14X21538   3.186   3.432   4.567 -0.1306  0.1981  0.2903
  187POPC  H14Y21539   3.109   3.367   4.710  1.0279  1.1373  1.9525
  187POPC  C31521540   3.188   3.564   4.747 -0.1626 -0.2027  0.3038
  187POPC  H15X21541   3.107   3.628   4.790  0.0398  0.1299  0.1917
  187POPC  H15Y21542   3.255   3.633   4.692 -1.2318  0.8064  0.2313
  187POPC  C31621543   3.263   3.505   4.864  0.6259 -0.2220  0.5214
  187POPC  H16X21544   3.184   3.445   4.913 -0.7936 -1.1340 -2.6262
  187POPC  H16Y21545   3.299   3.590   4.925 -0.4644 -0.4216  1.4695
  187POPC  H16Z21546   3.349   3.441   4.833  1.1475  0.7369 -0.0619
  188POPC     N21547   1.732   2.094   2.589  0.2877 -0.2578 -0.1781
  188POPC   C1221548   1.641   2.009   2.671  0.3904  0.1062 -0.1313
  188POPC  H12A21549   1.664   1.906   2.648 -1.0877  0.1888 -2.3106
  188POPC  H12B21550   1.542   2.017   2.627 -0.5090 -0.5761  1.6773
  188POPC   C1321551   1.860   2.115   2.650 -0.0427  0.0220 -0.1679
  188POPC  H13A21552   1.896   2.023   2.694 -3.0651 -1.7337 -1.1153
  188POPC  H13B21553   1.927   2.159   2.577 -1.5250 -2.7504 -3.5129
  188POPC  H13C21554   1.858   2.160   2.748  0.1174  0.7256 -0.4816
  188POPC   C1421555   1.746   2.027   2.448  0.2163  0.2313 -0.5348
  188POPC  H14A21556   1.803   1.936   2.458  0.5692  0.4628 -0.4192
  188POPC  H14B21557   1.646   2.012   2.411 -0.1449  1.7141 -0.1996
  188POPC  H14C21558   1.796   2.098   2.385 -1.5265  1.4176 -0.6315
  188POPC   C1521559   1.658   2.225   2.581 -0.1099 -0.1977 -0.1416
  188POPC  H15A21560   1.569   2.218   2.520 -0.8342 -1.6078  1.0144
  188POPC  H15B21561   1.727   2.297   2.541  0.5927 -0.2884  0.8760
  188POPC  H15C21562   1.636   2.254   2.683  1.6674 -0.1044  0.2330
  188POPC   C1121563   1.628   2.027   2.819 -0.3312 -0.6913 -0.5211
  188POPC  H11A21564   1.712   1.983   2.876 -0.0313 -0.9085 -1.1250
  188POPC  H11B21565   1.534   1.978   2.854  0.4866 -2.4609 -0.6697
  188POPC     P21566   1.686   2.237   2.978 -0.4449 -0.5027 -0.2331
  188POPC   O1321567   1.605   2.351   3.027 -0.0416  0.1708 -0.7491
  188POPC   O1421568   1.829   2.264   2.955  0.3012 -0.1190  0.3971
  188POPC   O1221569   1.613   2.166   2.851 -0.2065  0.1323 -0.2384
  188POPC   O1121570   1.678   2.114   3.085  0.2074  0.2015 -0.3076
  188POPC    C121571   1.555   2.084   3.148  0.0551  0.2452 -0.3887
  188POPC    HA21572   1.550   1.981   3.188  0.5147  1.1519  2.2180
  188POPC    HB21573   1.470   2.098   3.077 -0.4052 -4.0573 -0.9325
  188POPC    C221574   1.544   2.169   3.273  0.5855  0.4865 -0.2536
  188POPC    HS21575   1.533   2.274   3.239 -0.5438  1.4901  2.8802
  188POPC   O2121576   1.665   2.152   3.350 -0.0580  0.4848 -0.3958
  188POPC   C2121577   1.687   2.243   3.453  0.1007 -0.5376 -0.6468
  188POPC   O2221578   1.622   2.349   3.459  0.0239  0.0793 -0.1304
  188POPC   C2221579   1.784   2.193   3.555 -0.0769 -0.8593 -0.2999
  188POPC   H2R21580   1.814   2.275   3.625  0.0646 -1.4110  0.2931
  188POPC   H2S21581   1.885   2.173   3.513  0.3409 -0.5171  0.5092
  188POPC    C321582   1.417   2.137   3.348  0.1995  0.0882  0.0564
  188POPC    HX21583   1.326   2.142   3.284  1.0027  1.8603 -1.0271
  188POPC    HY21584   1.412   2.215   3.427 -0.7460  0.4529 -0.3496
  188POPC   O3121585   1.428   2.009   3.415  0.3007 -0.2762  0.3795
  188POPC   C3121586   1.323   1.963   3.477 -0.7694  0.1728  0.3017
  188POPC   O3221587   1.213   2.008   3.458  0.2700 -0.6762 -0.5085
  188POPC   C3221588   1.364   1.857   3.578  0.1014  0.1158  0.1567
  188POPC   H2X21589   1.465   1.871   3.622  0.0392 -1.6667  0.9695
  188POPC   H2Y21590   1.361   1.760   3.523  2.6680 -0.4929  0.9418
  188POPC   C2321591   1.734   2.064   3.625  0.4522 -0.2413  0.0754
  188POPC   H3R21592   1.826   2.013   3.660 -0.2861 -1.0628  0.8595
  188POPC   H3S21593   1.692   1.998   3.545  0.3845 -0.1213  0.0115
  188POPC   C2421594   1.633   2.085   3.739 -0.5325  0.6011 -0.3310
  188POPC   H4R21595   1.600   1.991   3.789 -1.1998  2.2545  2.5386
  188POPC   H4S21596   1.537   2.131   3.707 -1.0534  0.0534  0.4077
  188POPC   C2521597   1.693   2.172   3.847  0.1213 -0.2905 -0.3090
  188POPC   H5R21598   1.700   2.274   3.802  2.1629 -0.2630 -0.0073
  188POPC   H5S21599   1.796   2.141   3.872  0.1899  1.6023  2.0525
  188POPC   C2621600   1.624   2.179   3.978 -1.1376 -0.0203 -0.0057
  188POPC   H6R21601   1.666   2.270   4.026  0.5504  0.4018 -2.0890
  188POPC   H6S21602   1.641   2.091   4.044  1.5799 -0.8197 -1.6030
  188POPC   C2721603   1.475   2.215   3.969 -0.1171 -0.2306 -0.1135
  188POPC   H7R21604   1.412   2.125   3.948 -1.7674  0.9435 -0.3960
  188POPC   H7S21605   1.466   2.285   3.883  0.8931  0.3786  0.2604
  188POPC   C2821606   1.426   2.292   4.095 -0.2024 -0.2160  0.5422
  188POPC   H8R21607   1.329   2.321   4.048  0.1666  2.4223  1.2199
  188POPC   H8S21608   1.483   2.387   4.102 -0.8383  0.6759 -3.5503
  188POPC   C2921609   1.419   2.199   4.209  0.5174  0.0658  0.1735
  188POPC   H9121610   1.332   2.131   4.206  0.6325 -0.0503 -1.6361
  188POPC  C21021611   1.493   2.216   4.324  0.2536 -0.0469  0.1803
  188POPC  H10121612   1.490   2.132   4.394  3.9933 -1.2891 -0.9023
  188POPC  C21121613   1.604   2.318   4.352 -0.0946 -0.1383 -0.7668
  188POPC  H11R21614   1.592   2.368   4.451  1.2308  3.9784 -2.4805
  188POPC  H11S21615   1.604   2.397   4.274  1.8022 -0.6165 -1.2917
  188POPC  C21221616   1.748   2.258   4.363  0.5737  1.2337 -0.0281
  188POPC  H12R21617   1.826   2.337   4.361  0.0530  1.7808  0.5989
  188POPC  H12S21618   1.768   2.208   4.266 -2.7581 -0.7414  0.1262
  188POPC  C21321619   1.760   2.146   4.478 -0.4602  0.0664  0.2116
  188POPC  H13R21620   1.856   2.092   4.463  0.1125  1.2350 -0.5132
  188POPC  H13S21621   1.674   2.077   4.465  0.7193 -2.0206  2.6034
  188POPC  C21421622   1.747   2.185   4.626 -0.3223  0.5231 -0.1378
  188POPC  H14R21623   1.650   2.235   4.645  0.9342  2.0555  3.1469
  188POPC  H14S21624   1.819   2.269   4.644 -0.3914  1.1364 -2.3875
  188POPC  C21521625   1.776   2.068   4.721  0.3706  0.0431 -0.5868
  188POPC  H15R21626   1.704   1.987   4.693 -2.0177  2.0565 -0.6284
  188POPC  H15S21627   1.761   2.099   4.827 -0.8794  1.1501 -1.0533
  188POPC  C21621628   1.921   2.018   4.715  0.1151 -0.0500  0.3816
  188POPC  H16R21629   1.996   2.100   4.724 -0.2715  0.4550 -0.8934
  188POPC  H16S21630   1.940   1.958   4.623  1.6980  0.9868 -0.0149
  188POPC  C21721631   1.948   1.922   4.834 -0.1056  0.1463  0.2674
  188POPC  H17R21632   1.869   1.845   4.822 -2.6029  2.7415 -1.1032
  188POPC  H17S21633   1.923   1.973   4.930  3.6996 -0.9209  2.0568
  188POPC  C21821634   2.088   1.862   4.830  0.0491 -0.0566 -0.2556
  188POPC  H18R21635   2.112   1.815   4.927 -0.7663 -1.3464 -0.6477
  188POPC  H18S21636   2.165   1.934   4.795  0.6979 -1.3509 -1.6372
  188POPC  H18T21637   2.090   1.787   4.747 -1.3260 -0.5844  0.1695
  188POPC   C3321638   1.263   1.866   3.692 -0.0883  0.0296 -0.6765
  188POPC   H3X21639   1.161   1.837   3.660 -0.5559  2.1913 -1.2861
  188POPC   H3Y21640   1.267   1.967   3.737  0.0603 -0.3840  0.2617
  188POPC   C3421641   1.276   1.769   3.807 -0.0424 -0.2055 -0.1074
  188POPC   H4X21642   1.375   1.781   3.855 -0.4479 -0.6534  0.8614
  188POPC   H4Y21643   1.271   1.668   3.761  0.6322 -0.9444  1.3868
  188POPC   C3521644   1.162   1.790   3.912 -0.1306 -0.4318 -0.3602
  188POPC   H5X21645   1.069   1.768   3.856  0.1210 -0.8941 -0.6116
  188POPC   H5Y21646   1.153   1.897   3.938  0.3652 -0.0372 -1.7289
  188POPC   C3621647   1.173   1.693   4.035 -0.1531 -0.5354 -0.3075
  188POPC   H6X21648   1.275   1.672   4.072 -0.1230  1.3785  0.7576
  188POPC   H6Y21649   1.125   1.596   4.006 -0.0209 -0.6180 -0.2488
  188POPC   C3721650   1.075   1.735   4.147  0.5890  0.1173  0.6706
  188POPC   H7X21651   1.063   1.652   4.220 -1.1314 -1.0239 -0.7983
  188POPC   H7Y21652   0.976   1.756   4.101  1.2401  0.6351 -0.5287
  188POPC   C3821653   1.126   1.860   4.224  0.1544 -0.1472 -0.3003
  188POPC   H8X21654   1.037   1.918   4.254  0.1588  0.0967 -0.7489
  188POPC   H8Y21655   1.173   1.925   4.147 -1.0573 -0.3894 -1.2687
  188POPC   C3921656   1.226   1.828   4.329  0.2272  0.3788 -0.0773
  188POPC   H9X21657   1.301   1.907   4.350 -1.1368  1.0425  2.6155
  188POPC   H9Y21658   1.280   1.733   4.307 -1.3426 -0.3904 -0.7260
  188POPC  C31021659   1.150   1.795   4.462  0.4752  0.0869  1.0527
  188POPC  H10X21660   1.073   1.724   4.426  1.2179  0.5816 -1.7445
  188POPC  H10Y21661   1.089   1.874   4.511 -1.8095 -1.3240  0.5926
  188POPC  C31121662   1.234   1.726   4.564 -0.1039 -0.0375  0.2070
  188POPC  H11X21663   1.319   1.790   4.597  1.0582 -2.8113  3.2153
  188POPC  H11Y21664   1.280   1.638   4.514 -0.0082  1.0776 -1.7525
  188POPC  C31221665   1.151   1.686   4.684 -0.4484 -0.2076  0.1613
  188POPC  H12X21666   1.180   1.581   4.703 -0.4010 -0.2681 -0.2399
  188POPC  H12Y21667   1.043   1.698   4.662 -1.1413 -1.0830  2.6520
  188POPC  C31321668   1.172   1.777   4.805  0.1103 -0.3508  0.5160
  188POPC  H13X21669   1.170   1.881   4.767 -0.9785 -0.7302 -0.5575
  188POPC  H13Y21670   1.275   1.754   4.839  1.1044  1.6407 -0.9494
  188POPC  C31421671   1.064   1.760   4.908 -0.1764 -0.6048  0.8876
  188POPC  H14X21672   1.064   1.654   4.940 -0.9591 -0.0010  3.0626
  188POPC  H14Y21673   0.968   1.770   4.851  0.0137 -2.5646  0.1275
  188POPC  C31521674   1.065   1.853   5.027 -0.4224  0.1206 -0.1969
  188POPC  H15X21675   0.961   1.846   5.063 -0.0406 -1.0018  0.7648
  188POPC  H15Y21676   1.070   1.955   4.983 -1.0285 -0.1361 -0.8751
  188POPC  C31621677   1.184   1.831   5.124 -0.1903 -0.3350  0.0162
  188POPC  H16X21678   1.193   1.729   5.167  2.3141 -0.8008 -1.4208
  188POPC  H16Y21679   1.193   1.913   5.199 -0.1894 -0.8695  0.6148
  188POPC  H16Z21680   1.282   1.830   5.073  0.4307  2.6981  0.9322
  189SAPI   C1221681   4.272   5.746   7.820  0.1710  0.3700  0.3721
  189SAPI    H221682   4.208   5.744   7.729 -0.1658  0.8398  0.5960
  189SAPI    O221683   4.390   5.821   7.796  0.4184 -0.3116 -0.5520
  189SAPI   HO221684   4.374   5.882   7.723 -0.3417  0.3020  0.1016
  189SAPI   C1321685   4.185   5.796   7.931 -0.2230  0.6432  0.6649
  189SAPI    H321686   4.102   5.724   7.947  1.3710 -1.4286  0.0813
  189SAPI    O321687   4.120   5.915   7.883 -0.1123 -0.1213 -0.0934
  189SAPI   HO321688   4.081   5.961   7.958  0.7168  0.4425  0.0099
  189SAPI   C1421689   4.265   5.802   8.063  0.2964 -0.0214 -0.0698
  189SAPI    H421690   4.336   5.887   8.055 -0.1302  0.5374  1.6881
  189SAPI    O421691   4.174   5.831   8.170 -0.3580  0.5795 -0.2522
  189SAPI   HO421692   4.118   5.901   8.135 -0.8524  0.1512 -0.3354
  189SAPI   C1521693   4.346   5.676   8.089 -0.1240 -0.2744 -0.3474
  189SAPI    H521694   4.276   5.619   8.153 -1.7098  3.0552  1.1010
  189SAPI    O521695   4.455   5.698   8.180  0.2093 -0.2155  0.1487
  189SAPI   HO521696   4.433   5.679   8.272  0.3939 -0.9487  0.0453
  189SAPI   C1621697   4.385   5.586   7.972  0.2592 -0.4986  0.2570
  189SAPI    H621698   4.489   5.610   7.944  0.3218 -3.1300 -2.2241
  189SAPI    O621699   4.386   5.451   8.006 -0.0883 -0.2431  0.4135
  189SAPI   HO621700   4.433   5.402   7.938 -0.3608  0.9275 -0.6672
  189SAPI   C1121701   4.304   5.602   7.838  0.5258  0.8659 -1.1119
  189SAPI    H121702   4.213   5.541   7.857  1.7473 -1.6366 -2.7731
  189SAPI     P21703   4.330   5.492   7.590  0.7002 -0.1174 -0.2700
  189SAPI   O1321704   4.190   5.456   7.594  0.0624 -0.4014 -0.1806
  189SAPI   O1421705   4.421   5.394   7.529 -0.1411 -0.2987 -0.7129
  189SAPI   O1221706   4.381   5.543   7.735  0.3371  0.4252 -0.3672
  189SAPI   O1121707   4.326   5.623   7.506 -0.3232 -0.0061  0.2374
  189SAPI    C121708   4.446   5.683   7.462 -0.0398 -0.5940 -0.1436
  189SAPI    HA21709   4.485   5.753   7.539  1.5169 -0.0767 -1.3487
  189SAPI    HB21710   4.529   5.611   7.442  0.6981  0.2329 -0.1394
  189SAPI    C221711   4.426   5.756   7.323  0.1598  0.3073 -0.0771
  189SAPI    HS21712   4.369   5.849   7.342 -0.5606 -0.1432  0.0015
  189SAPI   O2121713   4.361   5.667   7.228  1.1678  0.3336  0.1675
  189SAPI   C2121714   4.233   5.692   7.201  0.1361 -0.1396 -0.3367
  189SAPI   O2221715   4.174   5.784   7.261 -0.3275  1.0121 -0.0730
  189SAPI   C2221716   4.186   5.616   7.081  0.4603  0.4434  0.4939
  189SAPI   H2R21717   4.269   5.616   7.008  0.2256  0.4684  0.2235
  189SAPI   H2S21718   4.171   5.512   7.117 -1.6300  0.8138  0.8597
  189SAPI    C321719   4.564   5.806   7.268 -0.4493  0.6530  0.0669
  189SAPI    HX21720   4.638   5.723   7.260 -2.0636 -0.9398  0.8857
  189SAPI    HY21721   4.593   5.869   7.355 -1.0563 -0.8313  1.3912
  189SAPI   O3121722   4.557   5.892   7.155 -0.4092  0.5199 -0.6209
  189SAPI   C3121723   4.599   5.840   7.038  0.0314 -0.8588 -0.8207
  189SAPI   O3221724   4.649   5.731   7.028 -0.4172 -0.6428  1.0568
  189SAPI   C3221725   4.574   5.938   6.927 -0.0336  0.0046  0.1284
  189SAPI   H2X21726   4.649   5.922   6.846 -0.3311 -0.2054 -0.1082
  189SAPI   H2Y21727   4.607   6.036   6.968 -0.5766  0.1388  0.2511
  189SAPI   C2321728   4.061   5.675   7.008  0.5559 -0.1559  1.1042
  189SAPI   H3R21729   4.079   5.784   6.992 -1.4402 -0.0567 -0.9233
  189SAPI   H3S21730   3.970   5.669   7.072 -0.9104  2.4612 -0.5430
  189SAPI   C2421731   4.041   5.597   6.877 -0.3490  0.1586  0.7715
  189SAPI   H4R21732   3.933   5.616   6.857  0.0222  0.7956 -0.7792
  189SAPI   H4S21733   4.056   5.488   6.887  3.5343  0.6266  1.4875
  189SAPI   C2521734   4.124   5.645   6.764 -0.6909  0.0622  0.0174
  189SAPI   H5R21735   4.210   5.707   6.796 -2.0396  2.7230 -1.1915
  189SAPI   C2621736   4.103   5.632   6.630  0.5814 -1.8280  0.3606
  189SAPI   H6R21737   4.177   5.672   6.559 -0.7442  2.0582  0.9481
  189SAPI   C2721738   3.992   5.562   6.567  0.2339 -0.4068 -0.1647
  189SAPI   H7R21739   3.949   5.626   6.487 -1.0806  0.8633  1.4895
  189SAPI   H7S21740   3.907   5.549   6.636  0.7711 -0.3360  0.5177
  189SAPI   C2821741   4.037   5.424   6.528 -0.3666  1.2112 -0.0595
  189SAPI   H8R21742   4.058   5.345   6.602  1.2717 -0.6246 -2.3363
  189SAPI   C2921743   4.085   5.395   6.410 -0.4935 -0.1626  0.9356
  189SAPI   H9R21744   4.120   5.292   6.398  0.4587  0.0307  1.8901
  189SAPI  C21021745   4.099   5.478   6.285 -0.0366 -0.4626 -0.6940
  189SAPI  H10R21746   4.183   5.548   6.307 -1.3851  0.5523  1.5635
  189SAPI  H10S21747   4.003   5.530   6.269 -0.0523 -0.8229 -1.9121
  189SAPI  C21121748   4.139   5.389   6.170  0.0102  0.2059  0.6189
  189SAPI  H11R21749   4.154   5.282   6.191  0.9980  0.3136  0.5005
  189SAPI  C21221750   4.148   5.434   6.045  0.3869  0.2656  1.2369
  189SAPI  H12R21751   4.173   5.356   5.972  0.0191  0.7236  0.6152
  189SAPI  C21321752   4.114   5.574   6.005 -0.6224 -0.3967 -0.1987
  189SAPI  H13R21753   4.184   5.597   5.923  0.7786 -0.0774  1.0384
  189SAPI  H13S21754   4.145   5.646   6.083  2.0905 -1.6950  0.0513
  189SAPI  C21421755   3.965   5.598   5.984  0.0471 -0.3083  0.1140
  189SAPI  H14R21756   3.903   5.623   6.072 -0.2811 -2.4519  0.5633
  189SAPI  C21521757   3.899   5.565   5.868  0.5203  0.4913 -0.7083
  189SAPI  H15R21758   3.790   5.581   5.865  0.5323  1.5660  1.8636
  189SAPI  C21621759   3.950   5.510   5.738  0.4989  0.1487 -0.6381
  189SAPI  H16R21760   3.894   5.418   5.709  1.3966 -0.6686  0.1488
  189SAPI  H16S21761   4.056   5.479   5.751  1.1956  2.4370 -0.4891
  189SAPI  C21721762   3.947   5.605   5.622  0.2755  0.8133  0.2740
  189SAPI  H17R21763   4.004   5.698   5.641  1.5256 -0.0971  1.1192
  189SAPI  H17S21764   3.842   5.637   5.607  0.6245  2.9592  1.8605
  189SAPI  C21821765   3.993   5.540   5.492  0.3762  0.0303 -0.0710
  189SAPI  H18R21766   3.944   5.442   5.478 -1.1605  0.6594  0.7266
  189SAPI  H18S21767   4.099   5.509   5.508  1.1395  0.9252 -2.7598
  189SAPI  C21921768   3.980   5.621   5.371  0.4638 -0.1492  0.1242
  189SAPI  H19R21769   3.874   5.645   5.348  0.6405  0.5541  0.0144
  189SAPI  H19S21770   4.008   5.547   5.293 -0.3663 -0.4140  0.0719
  189SAPI  C22021771   4.069   5.748   5.366 -0.0078 -0.1010  0.1323
  189SAPI  H20R21772   4.053   5.813   5.277 -0.3977 -0.0853  0.2124
  189SAPI  H20S21773   4.175   5.716   5.379 -0.6427 -2.2730  0.4549
  189SAPI  H20T21774   4.037   5.810   5.453 -1.2744  0.6290 -0.8176
  189SAPI   C3321775   4.426   5.949   6.883  0.4290 -0.2852  0.7422
  189SAPI   H3X21776   4.376   5.985   6.975 -0.0717 -1.5260  0.9762
  189SAPI   H3Y21777   4.390   5.845   6.863  0.4409 -0.0348 -0.6782
  189SAPI   C3421778   4.410   6.035   6.753 -0.1542  0.9030 -0.3714
  189SAPI   H4X21779   4.492   6.109   6.740 -1.2162  1.7321 -3.1930
  189SAPI   H4Y21780   4.310   6.084   6.743 -1.4919 -1.6462 -0.3184
  189SAPI   C3521781   4.413   5.944   6.630 -0.8276  0.5856  0.4383
  189SAPI   H5X21782   4.323   5.879   6.638 -0.9787  0.4694 -1.6212
  189SAPI   H5Y21783   4.509   5.891   6.614 -0.2323  1.5257  0.8062
  189SAPI   C3621784   4.377   6.020   6.503 -0.2164 -0.7994  0.2344
  189SAPI   H6X21785   4.456   6.097   6.489  0.2517 -0.9584  1.7849
  189SAPI   H6Y21786   4.287   6.082   6.524 -0.3559 -1.1521  0.7083
  189SAPI   C3721787   4.365   5.934   6.385  0.2576 -0.5484  0.2739
  189SAPI   H7X21788   4.287   5.863   6.420 -0.7930 -0.2723 -1.3873
  189SAPI   H7Y21789   4.453   5.867   6.375  1.4413  0.3142  3.7418
  189SAPI   C3821790   4.319   5.998   6.256 -0.7118 -0.6936 -0.7201
  189SAPI   H8X21791   4.393   6.077   6.229  0.3483 -0.8254  1.5641
  189SAPI   H8Y21792   4.215   6.036   6.268 -1.5209 -2.8126 -0.6791
  189SAPI   C3921793   4.304   5.912   6.133 -0.0481  0.0108  0.0061
  189SAPI   H9X21794   4.231   5.834   6.160  0.1645  0.4524  1.9450
  189SAPI   H9Y21795   4.407   5.873   6.115  0.2333  1.8188 -3.1312
  189SAPI  C31021796   4.254   5.986   6.005 -0.2850 -0.1534  0.2909
  189SAPI  H10X21797   4.326   6.060   5.963 -0.6314 -0.0012 -0.0401
  189SAPI  H10Y21798   4.177   6.056   6.043 -0.4612  0.5499 -1.2589
  189SAPI  C31121799   4.220   5.892   5.893  0.0655 -0.2602 -0.5475
  189SAPI  H11X21800   4.129   5.834   5.918  0.2579  0.5586  2.4551
  189SAPI  H11Y21801   4.297   5.815   5.870 -0.3458 -0.4204 -1.4315
  189SAPI  C31221802   4.190   5.975   5.770 -0.8389 -0.6293  0.3337
  189SAPI  H12X21803   4.154   5.908   5.689 -1.1465  1.0722 -0.9921
  189SAPI  H12Y21804   4.280   6.017   5.720 -1.2591 -0.3715 -0.2215
  189SAPI  C31321805   4.079   6.091   5.785  0.6278  0.5179  0.4930
  189SAPI  H13X21806   4.108   6.159   5.869 -0.2510 -1.0296  2.1174
  189SAPI  H13Y21807   3.981   6.048   5.814  0.9768 -0.7430 -0.1421
  189SAPI  C31421808   4.055   6.174   5.656 -0.1756  0.2840  0.4651
  189SAPI  H14X21809   4.044   6.114   5.563  1.1258  0.3743  0.2409
  189SAPI  H14Y21810   4.144   6.239   5.643  0.6438 -1.1375 -1.5037
  189SAPI  C31521811   3.935   6.268   5.674 -0.7513 -0.0948  0.3892
  189SAPI  H15X21812   3.935   6.312   5.776  0.3491 -1.0993  0.8487
  189SAPI  H15Y21813   3.850   6.196   5.675  0.0097 -1.0337 -0.1657
  189SAPI  C31621814   3.937   6.386   5.572  0.0981 -0.6818  0.1183
  189SAPI  H16X21815   3.932   6.334   5.474 -0.4013 -0.3053 -0.0611
  189SAPI  H16Y21816   4.023   6.454   5.588 -0.8917  0.8466 -0.7367
  189SAPI  C31721817   3.825   6.480   5.597  0.2225 -0.5272 -0.2058
  189SAPI  H17X21818   3.729   6.427   5.616  0.0086 -0.5091 -1.1845
  189SAPI  H17Y21819   3.814   6.547   5.508 -2.7383 -1.8504 -0.9696
  189SAPI  C31821820   3.839   6.571   5.722 -0.3176 -0.1430 -0.0622
  189SAPI  H18X21821   3.775   6.662   5.721 -0.7349 -0.4229 -1.5274
  189SAPI  H18Y21822   3.941   6.613   5.729 -0.3713  0.1410 -0.8847
  189SAPI  H18Z21823   3.821   6.522   5.820 -2.6914 -1.5826 -1.1154
  190SAPI   C1221824   5.109   6.068   7.484 -0.2218 -0.4153  0.4259
  190SAPI    H221825   5.151   6.137   7.560 -2.1447  2.1113 -0.6443
  190SAPI    O221826   5.217   5.991   7.427 -0.3102  0.5158  0.4538
  190SAPI   HO221827   5.262   6.051   7.367 -0.8940 -0.2635 -0.8027
  190SAPI   C1321828   4.996   5.987   7.542  0.0066  0.0516 -0.0094
  190SAPI    H321829   4.910   6.054   7.564  0.2758  0.9294 -1.4879
  190SAPI    O321830   5.037   5.926   7.666  0.5209  0.5901  0.1045
  190SAPI   HO321831   5.107   5.863   7.648  2.1747  3.0412 -3.2556
  190SAPI   C1421832   4.948   5.884   7.441  0.4622  0.4072  0.1945
  190SAPI    H421833   5.031   5.811   7.426  1.0040  0.6508  1.8332
  190SAPI    O421834   4.836   5.810   7.491  0.2578  0.3539  0.0338
  190SAPI   HO421835   4.872   5.727   7.521  2.0358  0.9451 -0.3515
  190SAPI   C1521836   4.915   5.942   7.303  0.0943  0.1746 -0.3640
  190SAPI    H521837   4.807   5.966   7.297 -0.1470 -0.9329 -0.6946
  190SAPI    O521838   4.928   5.836   7.208  0.1314 -0.4108  0.0203
  190SAPI   HO521839   5.013   5.792   7.215 -0.7350 -1.8175  3.6215
  190SAPI   C1621840   4.981   6.079   7.269 -0.7961  0.7797 -0.2087
  190SAPI    H621841   5.059   6.055   7.193 -0.1409  1.0250  0.3757
  190SAPI    O621842   4.902   6.166   7.196  0.8727  0.0481 -0.3773
  190SAPI   HO621843   4.930   6.257   7.197 -0.8010  0.6184 -0.8359
  190SAPI   C1121844   5.039   6.157   7.386 -0.2668 -0.0296  0.2692
  190SAPI    H121845   4.957   6.212   7.436 -0.5083  1.4545 -1.6474
  190SAPI     P21846   5.099   6.416   7.329 -0.2146 -0.0064 -0.5040
  190SAPI   O1321847   5.225   6.494   7.312  0.2583  0.0403 -0.1902
  190SAPI   O1421848   5.008   6.453   7.438  0.0997  0.0849 -0.6409
  190SAPI   O1221849   5.140   6.256   7.344  0.1721 -0.6109  0.0197
  190SAPI   O1121850   5.013   6.407   7.196  0.7010 -0.8432  1.0286
  190SAPI    C121851   4.952   6.523   7.141 -0.5624  0.0761 -0.4126
  190SAPI    HA21852   4.894   6.572   7.222  0.5057  0.6450  0.0317
  190SAPI    HB21853   5.032   6.591   7.105  2.5111 -1.9181  2.0337
  190SAPI    C221854   4.862   6.485   7.019 -0.7615 -0.0776 -0.0049
  190SAPI    HS21855   4.806   6.574   6.982 -0.6874 -0.9238 -2.3121
  190SAPI   O2121856   4.773   6.375   7.044 -0.2542 -0.9469 -0.5417
  190SAPI   C2121857   4.676   6.410   7.134 -1.3851 -0.3334  0.4011
  190SAPI   O2221858   4.653   6.526   7.169 -0.3486  0.1425 -0.2619
  190SAPI   C2221859   4.611   6.281   7.171  0.0525  0.0687 -0.3015
  190SAPI   H2R21860   4.591   6.213   7.086  1.9374  0.1131 -0.8147
  190SAPI   H2S21861   4.685   6.237   7.241  0.0569 -0.9763 -0.9459
  190SAPI    C321862   4.951   6.458   6.895 -0.0472 -0.2486  0.3554
  190SAPI    HX21863   4.998   6.360   6.919  0.0153 -0.3101 -0.0097
  190SAPI    HY21864   5.030   6.534   6.881 -0.1579  0.2442  2.1746
  190SAPI   O3121865   4.888   6.452   6.765  0.0698  0.4578 -0.3982
  190SAPI   C3121866   4.853   6.342   6.714 -0.3979  0.5599 -0.2520
  190SAPI   O3221867   4.890   6.230   6.754  0.3094 -0.6327  0.6274
  190SAPI   C3221868   4.765   6.358   6.591 -0.1940  0.0109 -0.0028
  190SAPI   H2X21869   4.730   6.463   6.581  0.1200  0.0625 -0.5893
  190SAPI   H2Y21870   4.675   6.294   6.598 -0.8853  1.0351  0.7569
  190SAPI   C2321871   4.474   6.299   7.244 -0.0506  0.3825  0.8399
  190SAPI   H3R21872   4.467   6.378   7.322 -1.6728  0.0050  1.1004
  190SAPI   H3S21873   4.455   6.204   7.299  0.0164 -0.6258 -0.7988
  190SAPI   C2421874   4.362   6.318   7.142 -0.1581 -0.6229 -0.2771
  190SAPI   H4R21875   4.385   6.241   7.066 -0.7217 -2.7247  1.5737
  190SAPI   H4S21876   4.371   6.419   7.096 -1.9309 -0.1635  0.3169
  190SAPI   C2521877   4.224   6.300   7.207 -0.4259  0.3501  0.2990
  190SAPI   H5R21878   4.219   6.210   7.269 -2.9205 -0.4023 -0.8431
  190SAPI   C2621879   4.119   6.378   7.204  1.0608  0.2333  0.3207
  190SAPI   H6R21880   4.032   6.333   7.255  0.3627 -1.1066 -1.8879
  190SAPI   C2721881   4.105   6.502   7.123 -0.1911  0.2472  0.1223
  190SAPI   H7R21882   4.025   6.504   7.045  0.6707  2.3907 -0.7898
  190SAPI   H7S21883   4.200   6.530   7.073  0.5622 -0.1709  1.3027
  190SAPI   C2821884   4.071   6.617   7.215  0.5660  0.9458 -0.3679
  190SAPI   H8R21885   4.037   6.599   7.318  2.2965 -1.8976 -0.1848
  190SAPI   C2921886   4.064   6.742   7.180  0.4540  1.0070  0.6713
  190SAPI   H9R21887   4.023   6.824   7.241  0.9729  3.8926 -2.4763
  190SAPI  C21021888   4.097   6.809   7.043  0.3286  0.0757 -1.1465
  190SAPI  H10R21889   4.068   6.739   6.962  0.8060 -1.2734 -0.1914
  190SAPI  H10S21890   4.208   6.811   7.044  0.3591 -0.3119  1.1305
  190SAPI  C21121891   4.077   6.964   7.019 -0.8247  0.4079 -0.1967
  190SAPI  H11R21892   4.095   7.029   7.105  0.5334  2.6489 -2.0824
  190SAPI  C21221893   4.047   7.028   6.908  0.3016  0.1620 -0.1406
  190SAPI  H12R21894   4.022   7.135   6.920 -0.6933 -0.1728  1.0094
  190SAPI  C21321895   4.023   6.968   6.768  0.1082 -1.0972 -0.7987
  190SAPI  H13R21896   3.917   6.989   6.740  0.9392  1.3551 -2.4470
  190SAPI  H13S21897   4.035   6.858   6.775  3.1470 -0.7388  1.7426
  190SAPI  C21421898   4.124   7.013   6.660 -0.1795 -0.5326 -0.9357
  190SAPI  H14R21899   4.208   7.076   6.692  1.7964 -2.0012 -2.8775
  190SAPI  C21521900   4.118   6.956   6.542 -0.0331 -0.4796  0.3881
  190SAPI  H15R21901   4.185   6.992   6.461 -1.1080 -1.4127 -0.9623
  190SAPI  C21621902   4.007   6.869   6.496 -0.2912 -0.1322 -0.1749
  190SAPI  H16R21903   3.913   6.928   6.510 -0.5839 -1.0205  2.1330
  190SAPI  H16S21904   4.002   6.780   6.562  1.2546  0.9061  1.4443
  190SAPI  C21721905   4.015   6.803   6.359 -0.5333 -0.9998 -0.2335
  190SAPI  H17R21906   3.931   6.730   6.358 -1.1135 -0.3864  1.1924
  190SAPI  H17S21907   4.109   6.747   6.340  0.1907 -0.7802  2.4024
  190SAPI  C21821908   3.994   6.905   6.240 -0.6422 -0.0064 -0.7999
  190SAPI  H18R21909   4.071   6.984   6.254 -0.5117 -0.0868 -1.0429
  190SAPI  H18S21910   3.886   6.931   6.250 -0.7389 -0.8352  0.5021
  190SAPI  C21921911   4.023   6.836   6.109  0.0308  0.4856 -0.3050
  190SAPI  H19R21912   3.955   6.748   6.116  0.0137  0.5804  0.9065
  190SAPI  H19S21913   4.125   6.793   6.108 -0.7428 -1.4557 -0.7808
  190SAPI  C22021914   3.995   6.923   5.989 -0.5376 -0.1964  0.2270
  190SAPI  H20R21915   3.890   6.957   5.985 -1.4881 -2.9612 -1.7664
  190SAPI  H20S21916   4.020   6.872   5.893 -1.3692 -0.0183 -0.0902
  190SAPI  H20T21917   4.048   7.018   6.010 -1.9224  0.4247  1.0158
  190SAPI   C3321918   4.838   6.323   6.457  0.0304 -0.2105 -0.2715
  190SAPI   H3X21919   4.914   6.243   6.471 -0.3307 -0.6813 -0.9201
  190SAPI   H3Y21920   4.903   6.411   6.440  0.7929 -0.2624  2.0483
  190SAPI   C3421921   4.746   6.309   6.336 -0.3280  0.1321  0.5231
  190SAPI   H4X21922   4.683   6.219   6.325 -1.8357  1.3906 -2.5024
  190SAPI   H4Y21923   4.821   6.307   6.254 -1.1091 -2.8689 -0.2299
  190SAPI   C3521924   4.656   6.429   6.294  0.3330  0.2999  0.0484
  190SAPI   H5X21925   4.719   6.519   6.282 -0.0197  0.7859  1.7052
  190SAPI   H5Y21926   4.575   6.453   6.366  1.1605  3.2742  0.1163
  190SAPI   C3621927   4.585   6.378   6.163  0.4316 -0.4364  0.2760
  190SAPI   H6X21928   4.508   6.457   6.144  3.2412  1.8065 -2.9208
  190SAPI   H6Y21929   4.536   6.282   6.190 -1.2379  0.6931  1.5469
  190SAPI   C3721930   4.651   6.370   6.029 -0.7705 -0.5720 -1.1493
  190SAPI   H7X21931   4.707   6.274   6.020  1.7197  0.5403  1.0899
  190SAPI   H7Y21932   4.720   6.456   6.020  1.0560 -2.0918 -2.4598
  190SAPI   C3821933   4.543   6.377   5.914  0.2188  0.4360  0.6109
  190SAPI   H8X21934   4.465   6.448   5.949 -1.0729 -0.1835 -0.9060
  190SAPI   H8Y21935   4.481   6.289   5.890  0.2888  0.4966  0.2105
  190SAPI   C3921936   4.611   6.426   5.789  0.2385 -0.7753  0.6972
  190SAPI   H9X21937   4.675   6.340   5.760 -0.7576 -1.3763  0.2515
  190SAPI   H9Y21938   4.674   6.517   5.800 -0.3123  0.1183 -2.5207
  190SAPI  C31021939   4.512   6.460   5.673 -0.5894 -0.4462 -0.3275
  190SAPI  H10X21940   4.574   6.502   5.592  3.7248 -3.4641  1.0525
  190SAPI  H10Y21941   4.443   6.536   5.717  1.3386  0.9751  0.3825
  190SAPI  C31121942   4.433   6.342   5.616 -0.6164  0.1001 -0.1738
  190SAPI  H11X21943   4.354   6.294   5.677 -0.8635  1.7402  0.8623
  190SAPI  H11Y21944   4.514   6.271   5.589 -0.9890 -0.5970  0.5215
  190SAPI  C31221945   4.365   6.384   5.480 -0.4635  0.4033  0.1115
  190SAPI  H12X21946   4.445   6.435   5.422 -0.9220  0.8103 -0.1733
  190SAPI  H12Y21947   4.295   6.462   5.517 -3.3837 -3.0265  2.4208
  190SAPI  C31321948   4.312   6.280   5.385  0.2123 -0.1371  0.7988
  190SAPI  H13X21949   4.232   6.334   5.330  2.8791  1.5254 -1.7717
  190SAPI  H13Y21950   4.265   6.204   5.451 -0.6244 -1.0539 -0.7931
  190SAPI  C31421951   4.419   6.215   5.291  0.5149 -0.1860 -0.0609
  190SAPI  H14X21952   4.488   6.167   5.364  1.2860  0.0856 -0.6017
  190SAPI  H14Y21953   4.470   6.288   5.225  1.2600 -0.6328  0.0035
  190SAPI  C31521954   4.367   6.096   5.194 -0.0108 -0.1122 -0.4622
  190SAPI  H15X21955   4.288   6.142   5.131 -1.6542 -1.7258  0.3680
  190SAPI  H15Y21956   4.314   6.018   5.251 -2.9181  0.9839 -1.4855
  190SAPI  C31621957   4.480   6.031   5.114 -0.6716  0.2177  0.8958
  190SAPI  H16X21958   4.575   6.032   5.172  1.0662  1.4111 -1.7320
  190SAPI  H16Y21959   4.502   6.084   5.018 -1.0458 -2.9341 -1.0665
  190SAPI  C31721960   4.462   5.887   5.068 -0.4772  1.4393  0.0140
  190SAPI  H17X21961   4.449   5.821   5.156 -0.0611 -1.7902 -2.1914
  190SAPI  H17Y21962   4.562   5.850   5.036 -0.2636 -0.4889  2.5768
  190SAPI  C31821963   4.346   5.856   4.977  0.2676  0.2219  0.1072
  190SAPI  H18X21964   4.358   5.913   4.882  2.6554 -0.0121  0.2112
  190SAPI  H18Y21965   4.249   5.896   5.012  0.4369  0.9508 -0.2261
  190SAPI  H18Z21966   4.339   5.749   4.948 -1.4589  0.1015  0.8420
  191SAPI   C1221967   2.037   3.737   2.979 -0.5244  0.1176  0.1367
  191SAPI    H221968   2.106   3.669   3.034 -0.5466 -1.1770 -1.3598
  191SAPI    O221969   1.990   3.664   2.867 -0.5170  0.4140  0.2095
  191SAPI   HO221970   2.061   3.643   2.807  1.4524  4.1306  0.8908
  191SAPI   C1321971   1.927   3.781   3.073 -0.1059 -1.2156  0.6247
  191SAPI    H321972   1.982   3.845   3.145 -0.3845 -0.2604  0.0052
  191SAPI    O321973   1.865   3.677   3.144  0.7872 -0.1548 -0.0968
  191SAPI   HO321974   1.822   3.620   3.080  0.7768 -0.8394  0.5025
  191SAPI   C1421975   1.832   3.875   2.994 -0.4551  0.0223  0.5800
  191SAPI    H421976   1.767   3.817   2.926  1.2538 -1.1544 -0.1181
  191SAPI    O421977   1.735   3.934   3.079  0.4299 -0.0694 -0.5429
  191SAPI   HO421978   1.649   3.917   3.041  1.0270 -0.1371 -1.9130
  191SAPI   C1521979   1.894   3.977   2.907  0.2777 -0.1944  0.4343
  191SAPI    H521980   1.921   4.063   2.973  0.4277  0.2327 -0.1778
  191SAPI    O521981   1.803   4.032   2.808 -0.4093  0.2740 -0.5179
  191SAPI   HO521982   1.776   4.122   2.828 -2.5412 -0.3580 -0.3707
  191SAPI   C1621983   2.030   3.944   2.838 -0.0371 -0.3689  0.8824
  191SAPI    H621984   2.016   3.870   2.757  0.7428  1.1898 -0.7419
  191SAPI    O621985   2.099   4.061   2.795 -0.0427  0.5940  0.7808
  191SAPI   HO621986   2.139   4.104   2.871 -0.4988  2.7142 -0.0913
  191SAPI   C1121987   2.118   3.868   2.935  0.3726 -0.3152 -0.6581
  191SAPI    H121988   2.123   3.927   3.029 -0.2872 -2.0295  0.4895
  191SAPI     P21989   2.385   3.887   2.953 -0.1600 -0.2686 -0.1406
  191SAPI   O1321990   2.385   4.032   2.968 -0.4045 -0.7659  0.2698
  191SAPI   O1421991   2.486   3.834   2.863  0.0870 -0.6075  0.5246
  191SAPI   O1221992   2.244   3.821   2.891  0.0641 -0.0691  0.1193
  191SAPI   O1121993   2.398   3.823   3.094 -0.3984 -0.2029  0.6901
  191SAPI    C121994   2.448   3.691   3.106 -0.5427 -0.4453  0.8389
  191SAPI    HA21995   2.387   3.616   3.051 -0.2965 -0.7208  0.9328
  191SAPI    HB21996   2.555   3.685   3.076 -0.3027  1.0694  1.3038
  191SAPI    C221997   2.471   3.658   3.255  0.0294 -0.1314 -0.0266
  191SAPI    HS21998   2.519   3.560   3.276 -1.6390 -0.4850  2.5576
  191SAPI   O2121999   2.341   3.684   3.322 -0.7759  0.0161  0.3663
  191SAPI   C2122000   2.262   3.579   3.306  0.2826  0.1640  0.7348
  191SAPI   O2222001   2.292   3.470   3.260  0.4801 -0.0899  0.0307
  191SAPI   C2222002   2.136   3.605   3.384  0.1523  0.0005  0.3101
  191SAPI   H2R22003   2.091   3.696   3.338 -2.1804 -0.7203  1.0142
  191SAPI   H2S22004   2.063   3.521   3.377 -1.7228  1.5817 -0.0469
  191SAPI    C322005   2.564   3.765   3.316 -0.0819  0.4649  1.0833
  191SAPI    HX22006   2.519   3.865   3.299 -0.5549  0.4122  1.9816
  191SAPI    HY22007   2.668   3.757   3.277 -0.5761 -1.1640 -0.0328
  191SAPI   O3122008   2.585   3.733   3.452  0.0596 -0.2602 -0.1210
  191SAPI   C3122009   2.504   3.800   3.539  0.1372  0.9405 -0.0354
  191SAPI   O3222010   2.436   3.900   3.521 -0.4016  0.5651 -0.5694
  191SAPI   C3222011   2.519   3.722   3.668  0.1107  0.2586  0.6715
  191SAPI   H2X22012   2.626   3.694   3.679 -0.2602 -1.0500  1.2377
  191SAPI   H2Y22013   2.474   3.621   3.659 -1.2702  0.9276 -0.3379
  191SAPI   C2322014   2.153   3.643   3.536 -0.1107  0.7729 -0.8546
  191SAPI   H3R22015   2.239   3.714   3.533 -0.6342  1.4244 -0.6971
  191SAPI   H3S22016   2.184   3.562   3.604 -1.9323  0.5059 -0.3062
  191SAPI   C2422017   2.034   3.713   3.599  0.2995 -0.2514 -0.4671
  191SAPI   H4R22018   2.068   3.710   3.705  0.9200  1.3908 -0.5957
  191SAPI   H4S22019   1.949   3.644   3.581 -1.7501  2.6268 -3.0653
  191SAPI   C2522020   1.998   3.860   3.580 -0.1795 -0.2705 -0.3022
  191SAPI   H5R22021   1.920   3.867   3.502  0.0817 -2.7774 -0.8781
  191SAPI   C2622022   2.039   3.970   3.643 -0.0354  0.5963  0.0669
  191SAPI   H6R22023   2.002   4.071   3.619  3.7892  2.2825  0.4677
  191SAPI   C2722024   2.141   3.980   3.755 -0.0859 -0.0063 -1.2825
  191SAPI   H7R22025   2.237   4.009   3.707  0.7855 -2.3251 -1.0454
  191SAPI   H7S22026   2.146   3.884   3.810 -0.0792  0.0442 -1.1954
  191SAPI   C2822027   2.104   4.088   3.848 -0.8952 -0.1633 -0.0174
  191SAPI   H8R22028   2.060   4.176   3.800 -2.4496  0.2472  2.0422
  191SAPI   C2922029   2.076   4.073   3.982  0.3592  0.2322  0.1586
  191SAPI   H9R22030   2.029   4.163   4.024 -1.5783 -0.8802  0.4958
  191SAPI  C21022031   2.083   3.949   4.072  0.1703  0.1016 -0.1778
  191SAPI  H10R22032   2.175   3.951   4.134  1.9575 -1.4322 -2.5806
  191SAPI  H10S22033   2.082   3.858   4.008 -1.3972  0.2319 -0.3728
  191SAPI  C21122034   1.957   3.924   4.147 -0.3083 -0.6206  0.3454
  191SAPI  H11R22035   1.870   3.872   4.104 -0.3327 -1.0785  0.9380
  191SAPI  C21222036   1.945   3.962   4.279 -0.1646 -0.6505  0.7637
  191SAPI  H12R22037   1.846   3.945   4.323 -0.7770 -0.6734 -0.5775
  191SAPI  C21322038   2.048   4.031   4.367 -0.5642 -0.1996  0.4182
  191SAPI  H13R22039   2.001   4.120   4.415 -0.3209 -0.4259  1.0888
  191SAPI  H13S22040   2.130   4.079   4.309  0.5528  1.6674  3.3244
  191SAPI  C21422041   2.105   3.948   4.477 -0.4242  0.5787  0.0183
  191SAPI  H14R22042   2.061   3.849   4.492  2.5816 -0.6906  1.2845
  191SAPI  C21522043   2.207   3.986   4.554 -1.1008 -0.5139  0.5876
  191SAPI  H15R22044   2.264   3.912   4.612  1.5048  0.5274 -0.4822
  191SAPI  C21622045   2.279   4.119   4.540 -0.3242 -0.4711  0.2075
  191SAPI  H16R22046   2.247   4.187   4.458 -0.4201  0.9297  1.3781
  191SAPI  H16S22047   2.387   4.105   4.518 -0.0282  1.3014  0.4438
  191SAPI  C21722048   2.265   4.218   4.661  0.0435  0.2805 -0.4529
  191SAPI  H17R22049   2.157   4.227   4.687 -0.1978 -1.5783 -0.7201
  191SAPI  H17S22050   2.308   4.319   4.644 -1.3565  1.0230  0.2505
  191SAPI  C21822051   2.326   4.167   4.792  0.3800  0.1637  0.2397
  191SAPI  H18R22052   2.296   4.063   4.815 -0.3948 -0.2427 -2.2569
  191SAPI  H18S22053   2.292   4.237   4.870  0.1023 -0.3048  0.5390
  191SAPI  C21922054   2.479   4.184   4.788 -0.2364 -0.2540 -0.0382
  191SAPI  H19R22055   2.500   4.292   4.801 -1.0249  0.0257 -1.0132
  191SAPI  H19S22056   2.522   4.150   4.691  0.3212  1.7301 -0.5292
  191SAPI  C22022057   2.537   4.119   4.907  0.2096  0.0569  0.0639
  191SAPI  H20R22058   2.552   4.011   4.890 -2.3720 -0.4641  0.7237
  191SAPI  H20S22059   2.469   4.124   4.995  1.2275  2.7974  0.8119
  191SAPI  H20T22060   2.637   4.164   4.928  0.8637 -0.9234 -0.8619
  191SAPI   C3322061   2.458   3.790   3.793 -0.0260 -0.2435  0.4552
  191SAPI   H3X22062   2.373   3.852   3.758 -1.0836 -0.4757  2.4633
  191SAPI   H3Y22063   2.532   3.868   3.823 -1.0687  2.6463 -3.6183
  191SAPI   C3422064   2.413   3.693   3.910  0.4056 -0.4882  0.5753
  191SAPI   H4X22065   2.482   3.606   3.908 -0.1278 -0.9030 -1.3476
  191SAPI   H4Y22066   2.307   3.663   3.894  0.3604 -0.7359  1.2951
  191SAPI   C3522067   2.424   3.766   4.050 -0.2394  0.0931  0.2061
  191SAPI   H5X22068   2.373   3.864   4.037 -1.9296 -1.0365 -2.4945
  191SAPI   H5Y22069   2.535   3.770   4.060 -0.2600 -0.1737  0.5450
  191SAPI   C3622070   2.338   3.692   4.155 -0.3310  0.7384  0.5513
  191SAPI   H6X22071   2.242   3.666   4.105  0.7316 -2.1514 -0.1788
  191SAPI   H6Y22072   2.316   3.751   4.246 -1.2931 -2.6551  2.7158
  191SAPI   C3722073   2.402   3.551   4.197  0.6355  0.2236  0.0446
  191SAPI   H7X22074   2.509   3.572   4.219  0.4792 -1.0479  2.2737
  191SAPI   H7Y22075   2.405   3.470   4.121  0.1963 -0.0904  0.3593
  191SAPI   C3822076   2.357   3.495   4.333  0.4534  0.3306  0.4478
  191SAPI   H8X22077   2.248   3.474   4.329  0.0514  2.2062  0.8894
  191SAPI   H8Y22078   2.364   3.571   4.413 -1.9648  3.1584 -1.8098
  191SAPI   C3922079   2.416   3.358   4.370 -0.2070  0.4574 -0.3253
  191SAPI   H9X22080   2.526   3.347   4.362 -0.3982 -0.2101 -2.9863
  191SAPI   H9Y22081   2.363   3.284   4.306  0.9209 -0.4726 -0.2196
  191SAPI  C31022082   2.388   3.321   4.521 -0.6294  0.5261  0.2633
  191SAPI  H10X22083   2.287   3.354   4.554 -0.4910 -0.3779  1.6954
  191SAPI  H10Y22084   2.453   3.381   4.589 -0.0109  0.2166 -0.0437
  191SAPI  C31122085   2.393   3.169   4.553  0.4920  0.4106 -0.2096
  191SAPI  H11X22086   2.479   3.127   4.496 -0.2971  0.5513 -1.5479
  191SAPI  H11Y22087   2.307   3.118   4.504 -0.8921  3.0907 -0.7653
  191SAPI  C31222088   2.403   3.135   4.701 -0.2972  0.1777  0.3763
  191SAPI  H12X22089   2.313   3.180   4.749 -0.6402 -2.1720  2.1155
  191SAPI  H12Y22090   2.494   3.190   4.734  0.0528  0.6409 -1.2938
  191SAPI  C31322091   2.408   2.984   4.737  0.0399  0.6939  0.0231
  191SAPI  H13X22092   2.505   2.946   4.699 -0.9214 -2.4655  0.4096
  191SAPI  H13Y22093   2.322   2.938   4.682  1.8112  0.3996 -2.6837
  191SAPI  C31422094   2.392   2.957   4.880  0.1899 -0.3505 -0.2937
  191SAPI  H14X22095   2.465   3.014   4.942 -2.4934  2.0361  0.8985
  191SAPI  H14Y22096   2.427   2.854   4.900  0.0859 -0.3168  0.0598
  191SAPI  C31522097   2.248   2.965   4.931 -0.3768  0.0319 -0.2526
  191SAPI  H15X22098   2.176   2.918   4.861 -0.4977 -2.1186  1.2367
  191SAPI  H15Y22099   2.212   3.070   4.929 -1.2342 -0.2530 -1.5779
  191SAPI  C31622100   2.239   2.915   5.078 -0.0944 -0.1226 -0.0268
  191SAPI  H16X22101   2.141   2.943   5.123  0.1870  2.4699 -0.8440
  191SAPI  H16Y22102   2.324   2.962   5.132  0.0971  0.2178 -0.6226
  191SAPI  C31722103   2.257   2.763   5.097 -0.2220 -0.3566 -0.3315
  191SAPI  H17X22104   2.248   2.742   5.206 -1.9985  1.1538 -0.1366
  191SAPI  H17Y22105   2.356   2.749   5.049  0.1913  0.3425  0.2963
  191SAPI  C31822106   2.143   2.686   5.029  0.3330 -0.5539 -0.3478
  191SAPI  H18X22107   2.143   2.577   5.052  0.6010 -0.7632 -1.2747
  191SAPI  H18Y22108   2.157   2.699   4.920  0.2496 -0.2705 -0.3247
  191SAPI  H18Z22109   2.051   2.740   5.060  0.5742  0.0784 -0.7276
  192SAPI   C1222110   3.479   5.613   3.468 -0.4313 -0.4682  0.7941
  192SAPI    H222111   3.562   5.661   3.525  0.2507  0.4907 -0.9344
  192SAPI    O222112   3.415   5.526   3.551  0.5733 -0.3776  0.0210
  192SAPI   HO222113   3.471   5.512   3.628 -0.9864  2.0744  1.7211
  192SAPI   C1322114   3.387   5.721   3.424  0.5026  0.1367  0.0098
  192SAPI    H322115   3.449   5.778   3.352  1.2839 -0.9274 -0.1780
  192SAPI    O322116   3.359   5.817   3.526 -0.1001  0.5307 -0.0402
  192SAPI   HO322117   3.281   5.784   3.572 -0.2615 -0.4765 -0.9944
  192SAPI   C1422118   3.266   5.663   3.342 -0.6767 -0.5661 -0.4878
  192SAPI    H422119   3.218   5.593   3.414  1.5511 -1.9605 -0.2566
  192SAPI    O422120   3.175   5.766   3.302  0.1476 -0.8358 -0.3240
  192SAPI   HO422121   3.103   5.717   3.261  0.2967 -1.7103  0.4125
  192SAPI   C1522122   3.303   5.570   3.225 -0.0331  0.3000  0.3626
  192SAPI    H522123   3.332   5.651   3.155 -0.2767  1.4384  1.5561
  192SAPI    O522124   3.194   5.503   3.164 -0.0479  0.3784  0.6176
  192SAPI   HO522125   3.231   5.456   3.088  0.2478 -0.7816  1.4511
  192SAPI   C1622126   3.418   5.481   3.251 -0.8953  0.2160 -1.2760
  192SAPI    H622127   3.380   5.395   3.310 -0.3139  0.4524 -0.5557
  192SAPI    O622128   3.474   5.435   3.128 -0.8295 -0.6197 -0.6873
  192SAPI   HO622129   3.511   5.350   3.155 -1.5126 -0.4526  0.8187
  192SAPI   C1122130   3.528   5.545   3.341 -0.0055 -0.0608 -0.3644
  192SAPI    H122131   3.571   5.625   3.277  0.3595  1.1309  1.3128
  192SAPI     P22132   3.781   5.489   3.418  0.0657  0.4685 -0.3956
  192SAPI   O1322133   3.808   5.632   3.385  0.8494  0.5660  0.0196
  192SAPI   O1422134   3.877   5.391   3.360  0.1579  0.2275  0.1571
  192SAPI   O1222135   3.628   5.447   3.376 -0.6036  0.9389  0.0131
  192SAPI   O1122136   3.791   5.475   3.577 -0.0968  0.5965 -0.1015
  192SAPI    C122137   3.748   5.353   3.638 -0.1890 -0.1024 -1.1905
  192SAPI    HA22138   3.638   5.340   3.631 -0.3041  0.9014 -1.3738
  192SAPI    HB22139   3.782   5.259   3.589 -1.8103 -1.9347  1.0011
  192SAPI    C222140   3.786   5.336   3.791 -0.0238 -0.4263  0.1549
  192SAPI    HS22141   3.708   5.264   3.825 -0.0532  0.3158  1.7307
  192SAPI   O2122142   3.767   5.451   3.861 -0.2215  0.0059 -0.2274
  192SAPI   C2122143   3.654   5.525   3.836  0.8284  0.2661  0.5848
  192SAPI   O2222144   3.557   5.492   3.771  0.0533 -0.4510 -0.5162
  192SAPI   C2222145   3.675   5.656   3.908 -0.5002  0.5699 -0.0102
  192SAPI   H2R22146   3.671   5.654   4.019  1.7747  3.8865  0.2881
  192SAPI   H2S22147   3.784   5.677   3.897 -0.2881  0.1279  1.1085
  192SAPI    C322148   3.930   5.276   3.815  1.3197  0.1881 -0.2619
  192SAPI    HX22149   3.952   5.302   3.921 -1.7023 -1.7147  0.9565
  192SAPI    HY22150   4.002   5.333   3.752  3.0709 -0.1129  1.3591
  192SAPI   O3122151   3.939   5.125   3.799  0.1948 -0.0446 -0.6668
  192SAPI   C3122152   4.035   5.079   3.718  0.3554  0.2004  0.9437
  192SAPI   O3222153   4.103   5.151   3.640  0.1094  0.4097 -0.1931
  192SAPI   C3222154   4.031   4.925   3.721 -0.6699 -1.4056 -0.3147
  192SAPI   H2X22155   4.111   4.900   3.648 -0.7367  0.5684 -1.1243
  192SAPI   H2Y22156   3.932   4.901   3.676 -0.6018  1.5605 -2.3128
  192SAPI   C2322157   3.591   5.768   3.863 -0.7868 -0.4195 -0.5345
  192SAPI   H3R22158   3.487   5.734   3.884 -0.2833 -1.3642  0.4489
  192SAPI   H3S22159   3.599   5.779   3.752  0.7233  1.5073 -0.2998
  192SAPI   C2422160   3.611   5.904   3.941 -0.1825  0.5016 -0.1583
  192SAPI   H4R22161   3.717   5.931   3.922  0.1519 -0.8253 -0.2800
  192SAPI   H4S22162   3.599   5.888   4.050 -1.8060 -1.5117 -0.5696
  192SAPI   C2522163   3.503   5.997   3.888  0.7259  0.0544  0.0482
  192SAPI   H5R22164   3.518   6.044   3.789 -0.7796 -3.2517 -1.9080
  192SAPI   C2622165   3.391   6.033   3.950  0.0009  0.2113  0.2984
  192SAPI   H6R22166   3.332   6.116   3.910  1.3525  1.2040  0.3117
  192SAPI   C2722167   3.352   5.979   4.085  0.0786  0.2954  0.9529
  192SAPI   H7R22168   3.434   6.006   4.156  1.1526 -0.4092  0.0315
  192SAPI   H7S22169   3.343   5.868   4.081 -2.3778  0.4898 -0.4376
  192SAPI   C2822170   3.213   6.023   4.134 -0.3877  0.3819 -0.0471
  192SAPI   H8R22171   3.130   5.981   4.075  1.2574 -1.6593 -1.0608
  192SAPI   C2922172   3.192   6.094   4.245  0.0249 -1.4409  0.4726
  192SAPI   H9R22173   3.086   6.116   4.265  0.3538  1.5744 -0.4629
  192SAPI  C21022174   3.292   6.150   4.345  0.2114 -0.0124  0.6275
  192SAPI  H10R22175   3.290   6.261   4.337  0.4369 -0.1571 -2.9847
  192SAPI  H10S22176   3.395   6.109   4.338 -0.5731 -2.1193  0.8290
  192SAPI  C21122177   3.239   6.122   4.485 -0.0776  0.0438  0.3891
  192SAPI  H11R22178   3.136   6.085   4.481 -0.3656  0.9065 -1.0523
  192SAPI  C21222179   3.305   6.144   4.601 -0.1708  0.1102 -0.1091
  192SAPI  H12R22180   3.245   6.125   4.691 -0.7115  2.3754  0.0703
  192SAPI  C21322181   3.441   6.196   4.622 -1.3619 -0.3181  0.6552
  192SAPI  H13R22182   3.426   6.290   4.679 -3.4087 -0.0242 -0.2870
  192SAPI  H13S22183   3.488   6.229   4.527 -0.6361  0.2279  1.2024
  192SAPI  C21422184   3.515   6.094   4.705 -0.0251  0.5313  0.1004
  192SAPI  H14R22185   3.527   5.993   4.664  1.3514  0.0354  1.6379
  192SAPI  C21522186   3.579   6.123   4.820 -0.6172  0.1792  0.2242
  192SAPI  H15R22187   3.635   6.043   4.871 -0.3124  1.0698  1.3199
  192SAPI  C21622188   3.588   6.249   4.894  0.8306  0.3911 -0.4702
  192SAPI  H16R22189   3.533   6.330   4.841  0.7452 -0.2958 -1.4485
  192SAPI  H16S22190   3.689   6.286   4.920  1.0536 -1.6427  2.0267
  192SAPI  C21722191   3.510   6.237   5.026 -0.1644 -0.2515 -0.4834
  192SAPI  H17R22192   3.523   6.140   5.078  0.3752 -0.5279 -1.1233
  192SAPI  H17S22193   3.400   6.240   5.014 -0.5489 -1.1415  2.1122
  192SAPI  C21822194   3.535   6.360   5.124 -0.2192 -0.7243  0.1108
  192SAPI  H18R22195   3.485   6.452   5.086  0.7086  0.0208  0.6438
  192SAPI  H18S22196   3.642   6.390   5.136 -0.0419 -2.0288  2.2835
  192SAPI  C21922197   3.487   6.330   5.270  0.2670  0.0790  0.2762
  192SAPI  H19R22198   3.390   6.275   5.272 -0.5032  1.3779  1.9065
  192SAPI  H19S22199   3.462   6.424   5.325 -3.4854 -0.7801  0.2975
  192SAPI  C22022200   3.588   6.257   5.351 -0.0405 -0.1856  0.5467
  192SAPI  H20R22201   3.619   6.163   5.301 -0.1107  1.5034 -2.9680
  192SAPI  H20S22202   3.542   6.228   5.448 -0.0004  0.7392  0.8543
  192SAPI  H20T22203   3.674   6.325   5.374 -0.5242  0.7844 -0.4214
  192SAPI   C3322204   4.038   4.872   3.863 -0.3729 -0.7622  0.2064
  192SAPI   H3X22205   3.977   4.780   3.865 -2.4077  0.4953 -1.2400
  192SAPI   H3Y22206   3.991   4.946   3.931 -1.0253 -1.4820  0.5542
  192SAPI   C3422207   4.181   4.851   3.913 -0.0132  0.5923 -0.0129
  192SAPI   H4X22208   4.245   4.938   3.887  1.9401 -0.3404  1.4788
  192SAPI   H4Y22209   4.220   4.764   3.855 -1.2192 -0.4647  0.6969
  192SAPI   C3522210   4.189   4.838   4.060  0.4586 -0.3529  0.2650
  192SAPI   H5X22211   4.158   4.935   4.105  0.2847  0.5942 -1.7913
  192SAPI   H5Y22212   4.294   4.808   4.083  0.0628 -0.3298  2.3608
  192SAPI   C3622213   4.089   4.733   4.120 -0.3429 -0.5854  0.1656
  192SAPI   H6X22214   4.104   4.643   4.057 -0.1818  1.0597 -2.2793
  192SAPI   H6Y22215   3.992   4.777   4.090  1.0934  2.3352 -0.6480
  192SAPI   C3722216   4.107   4.704   4.272 -0.2575 -0.3675  0.5211
  192SAPI   H7X22217   4.198   4.644   4.288 -0.2499 -0.2695  0.8583
  192SAPI   H7Y22218   4.025   4.635   4.302 -1.7425  1.0225 -0.1478
  192SAPI   C3822219   4.111   4.833   4.358 -0.3839  0.4367 -0.6570
  192SAPI   H8X22220   4.035   4.904   4.319 -1.5591 -0.6128 -0.3446
  192SAPI   H8Y22221   4.205   4.891   4.346  0.1344 -0.5428 -1.4235
  192SAPI   C3922222   4.078   4.801   4.503 -0.2907 -0.1600  0.2199
  192SAPI   H9X22223   4.008   4.715   4.495  1.2084 -1.3582 -0.5906
  192SAPI   H9Y22224   4.016   4.883   4.545  0.3126 -0.3190  1.4713
  192SAPI  C31022225   4.199   4.776   4.590  0.3152 -0.2868  0.1174
  192SAPI  H10X22226   4.281   4.835   4.544  1.3571 -1.1913  0.7551
  192SAPI  H10Y22227   4.227   4.668   4.587  1.2777 -0.1556  2.3171
  192SAPI  C31122228   4.177   4.836   4.735 -0.0214 -0.0203 -0.6887
  192SAPI  H11X22229   4.090   4.784   4.783 -0.8363  2.3636  0.5838
  192SAPI  H11Y22230   4.153   4.944   4.726 -2.8848 -0.2679  1.9720
  192SAPI  C31222231   4.294   4.813   4.834 -0.2077  0.0939  0.3768
  192SAPI  H12X22232   4.389   4.866   4.812 -0.1849 -0.3707 -0.7168
  192SAPI  H12Y22233   4.315   4.706   4.816 -0.7878 -0.3279  2.0124
  192SAPI  C31322234   4.254   4.816   4.981  0.3100 -0.1421 -0.2799
  192SAPI  H13X22235   4.195   4.724   5.002 -0.5936  0.2517 -0.9883
  192SAPI  H13Y22236   4.182   4.901   4.992  1.2155  0.4678  1.2042
  192SAPI  C31422237   4.381   4.827   5.068 -0.2315 -0.2589  0.2549
  192SAPI  H14X22238   4.453   4.754   5.026  0.7537 -0.6207  2.4032
  192SAPI  H14Y22239   4.354   4.781   5.166 -3.0997 -1.0167 -0.8092
  192SAPI  C31522240   4.433   4.966   5.087  0.7403  0.0480 -0.4898
  192SAPI  H15X22241   4.356   5.030   5.137  1.4634  0.7469 -0.2382
  192SAPI  H15Y22242   4.455   5.009   4.987  0.1365  0.0472 -0.6265
  192SAPI  C31622243   4.550   4.973   5.181 -0.0006  0.0490 -0.3651
  192SAPI  H16X22244   4.634   4.904   5.156  0.1241  0.2041 -0.3730
  192SAPI  H16Y22245   4.525   4.944   5.286  1.8343 -1.1639 -0.2146
  192SAPI  C31722246   4.612   5.115   5.188  0.5648 -0.3246  0.4801
  192SAPI  H17X22247   4.524   5.180   5.204 -0.0166 -0.9658 -0.0562
  192SAPI  H17Y22248   4.645   5.139   5.085  1.4100  1.5805  1.1420
  192SAPI  C31822249   4.720   5.138   5.297  0.3101 -0.7221  0.2770
  192SAPI  H18X22250   4.813   5.077   5.288 -0.6361 -2.3813  1.1964
  192SAPI  H18Y22251   4.667   5.113   5.391 -2.7676 -1.0041 -1.4080
  192SAPI  H18Z22252   4.745   5.246   5.293 -2.3321 -0.0455 -3.1671
  193SOD    SOD22253   2.075   5.461   1.213  0.1819  0.4656  0.5034
  194SOD    SOD22254   0.389   3.012   0.104  0.0918 -0.3119  0.1064
  195SOD    SOD22255   6.041   5.920   2.272 -0.0148 -0.5229 -0.2644
  196SOD    SOD22256   1.298   3.951   7.185 -0.1114 -0.0127  0.0157
  197SOD    SOD22257   3.832   3.788   1.272 -0.1552 -0.6615 -0.3792
  198SOD    SOD22258   6.292   4.445   1.623 -0.3566  0.0141  0.1555
  199SOD    SOD22259   5.880   2.083   2.496 -0.3987  0.1231  0.8104
  200SOD    SOD22260   6.776   5.763   2.317  0.3128 -0.5734  0.3611
  201SOD    SOD22261   1.853   4.313   2.410  0.1814 -0.1057 -0.1026
  202SOD    SOD22262   1.756   0.258   0.491 -0.3553 -0.1941  0.0808
  203SOD    SOD22263   0.118   3.252   7.477  0.1599 -0.0121 -0.1143
  204SOD    SOD22264   4.433   2.734   7.740  0.1310  0.0742  0.5489
  205SOD    SOD22265   3.547   1.971   2.135 -0.5051 -0.4636 -0.4292
  206SOD    SOD22266   3.635   5.771   2.463  0.5179  0.0041  0.5459
  207SOD    SOD22267   2.457   6.542   2.266  0.0501  0.2923 -0.6154
  208SOD    SOD22268   4.343   5.993   0.111  0.8363 -0.1395 -0.1884
  209SOD    SOD22269   0.136   0.936   1.232 -0.4651 -0.0537 -0.4008
  210SOD    SOD22270   0.991   2.044   3.383 -0.2090  0.1329  0.0704
  211SOD    SOD22271   0.025   4.555   8.092  0.5229 -0.1659  0.7109
  212SOD    SOD22272   3.871   6.715   7.670 -0.2154  0.4860  0.2511
  213SOD    SOD22273   5.224   0.746   2.568  0.2034  0.4396  0.1272
  214SOD    SOD22274   1.432   0.710   2.155 -0.1473  0.0367  0.3510
  215SOD    SOD22275   0.173   2.029   0.428  0.1886  0.3430  0.0637
  216SOD    SOD22276   0.061   3.794   2.592  0.0303  0.1365 -0.1977
  217SOD    SOD22277   0.260   5.519   3.055 -0.5206  0.0773 -0.1391
  218SOD    SOD22278   1.909   0.327   2.992 -0.4414  0.1071  0.2212
  219SOD    SOD22279   4.627   1.504   0.364  0.2890  0.0649  0.3674
  220SOD    SOD22280   0.842   1.532   1.838 -0.0377  0.0402 -0.1737
  221SOD    SOD22281   5.252   3.140   7.324 -0.2112  0.4615  0.4889
  222SOD    SOD22282   4.595   4.561   0.705  0.5495 -0.2338 -0.5303
  223SOD    SOD22283   1.687   2.701   0.402 -0.3072  0.0061  0.0675
  224SOD    SOD22284   2.590   2.109   7.105  0.1645 -0.4428 -0.2789
  225SOD    SOD22285   5.048   5.391   2.886 -0.0554 -0.1567 -0.1302
  226SOD    SOD22286   4.644   3.492   2.912 -0.0485 -0.3171  0.1185
  227SOD    SOD22287   5.547   2.161   1.403  0.2105 -0.3941  0.3192
  228SOD    SOD22288   3.349   1.748   3.004  0.0617  0.3934 -0.1377
  229SOD    SOD22289   6.063   0.270   3.277 -0.4467 -0.0705  0.4692
  230SOD    SOD22290   6.687   0.415   7.160 -0.1568 -0.2577 -0.5838
  231SOD    SOD22291   0.386   1.580   8.202  0.0655  0.0705 -0.0935
  232SOD    SOD22292   3.413   5.323   0.303 -0.1631 -0.5538 -0.0148
  233SOD    SOD22293   6.491   5.757   8.054 -0.4846 -0.0872  0.0572
  234CLA    CLA22294   2.501   4.667   1.660  0.1050 -0.3476  0.2535
  235CLA    CLA22295   0.850   2.337   1.113  0.0118 -0.1703 -0.3018
  236CLA    CLA22296   1.869   3.621   1.285  0.0384  0.3866 -0.3073
  237CLA    CLA22297   0.950   6.561   8.138  0.1411 -0.1836  0.0294
  238CLA    CLA22298   4.422   4.667   7.852 -0.0110  0.5388 -0.0821
  239CLA    CLA22299   4.166   4.026   2.464  0.1699  0.0120 -0.0082
  240CLA    CLA22300   5.647   4.031   1.071  0.4130  0.0029  0.2200
  241CLA    CLA22301   6.091   5.339   2.223  0.1748 -0.0894  0.0483
  242CLA    CLA22302   6.126   6.248   1.850 -0.2383 -0.0779 -0.0380
  243CLA    CLA22303   6.900   6.125   0.149  0.5863  0.0905  0.1662
  244CLA    CLA22304   5.566   5.079   8.337 -0.2371 -0.6027 -0.4144
  245CLA    CLA22305   2.521   1.245   1.953  0.2529 -0.3983  0.0829
  246CLA    CLA22306   2.038   0.245   1.667 -0.0030  0.3135 -0.1944
  247CLA    CLA22307   6.443   5.927   2.043  0.1341 -0.1628 -0.3270
  248CLA    CLA22308   3.207   2.639   1.304  0.0788  0.4622 -0.0901
  249CLA    CLA22309   1.245   1.415   8.068 -0.4420 -0.1434 -0.6672
  250CLA    CLA22310   1.182   3.689   0.977 -0.4828 -0.6110  0.2726
  251TIP3   OH222311   6.137   0.307   2.133  0.3583 -0.0496 -0.1778
  251TIP3    H122312   6.130   0.384   2.190 -0.2937  0.1726 -0.5460
  251TIP3    H222313   6.141   0.233   2.193 -1.4213  0.0967  0.1744
  252TIP3   OH222314   4.941   0.685   8.079 -0.1490 -0.2047  0.3423
  252TIP3    H122315   4.942   0.626   8.155  0.0636 -1.2122 -0.4149
  252TIP3    H222316   4.875   0.751   8.101 -0.5067 -0.8104  1.1580
  253TIP3   OH222317   4.222   2.731   1.561  0.0762  0.1209 -0.0717
  253TIP3    H122318   4.272   2.656   1.592 -0.6308 -0.0633  0.6652
  253TIP3    H222319   4.266   2.758   1.481  1.1035 -0.2841  0.3394
  254TIP3   OH222320   0.323   6.340   0.680  0.5295  0.2292 -0.0986
  254TIP3    H122321   0.400   6.324   0.735  0.8745  2.1584  0.0496
  254TIP3    H222322   0.268   6.399   0.732 -1.0806 -1.0978 -0.2108
  255TIP3   OH222323   3.164   3.689   7.790  0.3431  0.8498 -0.1926
  255TIP3    H122324   3.102   3.657   7.725 -0.6169 -0.0968  1.1591
  255TIP3    H222325   3.110   3.731   7.857  1.3279  1.9918 -0.0715
  256TIP3   OH222326   5.766   5.620   2.812  0.1471  0.9507 -0.1324
  256TIP3    H122327   5.704   5.675   2.861  0.1797 -0.0999  1.1367
  256TIP3    H222328   5.804   5.563   2.878  1.9490  1.0660 -1.0231
  257TIP3   OH222329   5.285   2.272   0.509 -0.2090  0.1509  0.2460
  257TIP3    H122330   5.308   2.193   0.462  0.1129 -0.2414  1.0364
  257TIP3    H222331   5.359   2.332   0.494 -0.2533  0.1449  0.0029
  258TIP3   OH222332   0.982   1.828   3.475  0.0862  0.4730  0.0589
  258TIP3    H122333   1.052   1.793   3.419 -0.3854  1.8894 -1.5079
  258TIP3    H222334   0.912   1.763   3.468  0.4766  0.0590 -0.0581
  259TIP3   OH222335   6.149   4.846   2.892  0.2872 -0.0515 -0.1733
  259TIP3    H122336   6.218   4.780   2.904  0.1521 -0.6861 -2.3814
  259TIP3    H222337   6.173   4.890   2.810 -0.7928  1.1745  0.1460
  260TIP3   OH222338   2.189   5.996   0.073  0.0503  0.1637 -0.3471
  260TIP3    H122339   2.184   6.081   0.029  0.8641 -0.5541 -1.8894
  260TIP3    H222340   2.272   5.998   0.121 -0.1093  0.3637 -0.0724
  261TIP3   OH222341   2.940   2.749   1.983 -0.2870  0.0505 -0.0132
  261TIP3    H122342   2.947   2.799   1.902 -0.4232 -0.2802 -0.2281
  261TIP3    H222343   2.884   2.675   1.961  0.9286 -0.8838 -0.0272
  262TIP3   OH222344   5.847   2.031   1.124  0.4306  0.4317  0.4440
  262TIP3    H122345   5.913   2.078   1.175 -0.0995  0.0597  1.4849
  262TIP3    H222346   5.895   1.959   1.083  1.3202  1.9625 -1.3935
  263TIP3   OH222347   3.026   5.130   2.183 -0.3686 -0.0651 -0.3974
  263TIP3    H122348   3.055   5.196   2.247 -0.3684 -0.8344  0.4122
  263TIP3    H222349   3.094   5.063   2.184 -0.4585 -0.1763 -1.0854
  264TIP3   OH222350   1.039   0.746   2.152  0.3572  0.2321  0.1872
  264TIP3    H122351   1.046   0.840   2.132  1.8872  0.1725  0.3541
  264TIP3    H222352   0.963   0.717   2.101  0.0508  1.4961 -0.1165
  265TIP3   OH222353   5.503   5.630   7.463  0.1388  0.1342 -0.6805
  265TIP3    H122354   5.423   5.645   7.414 -0.4678 -0.1190  0.1986
  265TIP3    H222355   5.557   5.707   7.445 -1.3378  1.5729  0.6821
  266TIP3   OH222356   3.337   0.377   0.465 -0.0620  0.0045 -0.3550
  266TIP3    H122357   3.394   0.410   0.534 -0.9173  3.1852 -0.9637
  266TIP3    H222358   3.252   0.366   0.507  0.0683 -0.8538 -0.3048
  267TIP3   OH222359   6.687   3.479   0.631 -0.0038  0.2845  0.7013
  267TIP3    H122360   6.737   3.398   0.619 -0.1105  0.2344  0.5984
  267TIP3    H222361   6.722   3.516   0.712  0.3079  0.3274  0.5474
  268TIP3   OH222362   4.137   2.227   0.228  0.1417  0.2570  0.4192
  268TIP3    H122363   4.224   2.263   0.245 -0.7696  3.5988 -1.2332
  268TIP3    H222364   4.128   2.230   0.132 -1.9535  0.4249  0.5726
  269TIP3   OH222365   2.585   2.397   0.621 -0.0933  0.1397 -0.2823
  269TIP3    H122366   2.521   2.325   0.622 -0.2493  0.2884  0.1645
  269TIP3    H222367   2.640   2.382   0.697 -0.2508  0.6122 -0.0728
  270TIP3   OH222368   3.128   6.817   8.296  0.2428  0.0957  0.5679
  270TIP3    H122369   3.150   6.856   8.211 -1.4020 -1.1880 -0.5172
  270TIP3    H222370   3.191   6.855   8.357  1.9262  0.5594 -1.3461
  271TIP3   OH222371   4.504   6.250   7.553  0.1964  0.4764 -0.0726
  271TIP3    H122372   4.587   6.275   7.513 -0.4475 -0.5918 -2.2338
  271TIP3    H222373   4.498   6.304   7.632  3.7695 -0.6643  1.2128
  272TIP3   OH222374   5.384   0.177   2.094  0.3441  0.4014 -0.0881
  272TIP3    H122375   5.474   0.162   2.063  0.4577 -0.0664  0.4681
  272TIP3    H222376   5.384   0.268   2.124 -0.0030  1.1891 -2.2485
  273TIP3   OH222377   1.470   4.670   1.035  0.7642  0.3726 -0.0642
  273TIP3    H122378   1.397   4.615   1.063  0.9963  0.1095  0.0260
  273TIP3    H222379   1.457   4.752   1.083  0.6127  0.2754  0.0652
  274TIP3   OH222380   0.509   0.687   0.245  0.2001  0.9909 -0.2336
  274TIP3    H122381   0.516   0.705   0.151  1.0234 -0.0888 -0.4108
  274TIP3    H222382   0.465   0.602   0.249  1.1888  0.4771  0.2792
  275TIP3   OH222383   5.568   6.666   0.519  0.0516 -0.5403 -0.4055
  275TIP3    H122384   5.581   6.582   0.562 -0.7530 -1.3578 -1.6737
  275TIP3    H222385   5.656   6.702   0.509  0.4579 -1.4774 -0.3078
  276TIP3   OH222386   4.430   6.352   0.088 -0.0883  0.6253 -0.5741
  276TIP3    H122387   4.425   6.433   0.138  0.2891  0.8290 -0.8562
  276TIP3    H222388   4.340   6.319   0.086  0.1005 -0.1251  1.4087
  277TIP3   OH222389   3.270   1.437   0.214  0.1929  0.5750  0.0136
  277TIP3    H122390   3.211   1.406   0.282  0.6379 -0.0675  0.1153
  277TIP3    H222391   3.267   1.371   0.146 -0.0708  1.1014 -0.4933
  278TIP3   OH222392   6.792   1.444   0.402  0.4517 -0.5911 -0.6687
  278TIP3    H122393   6.838   1.506   0.345 -3.0081  2.1947 -0.7578
  278TIP3    H222394   6.729   1.401   0.345 -0.3334 -0.7257  0.2629
  279TIP3   OH222395   6.474   6.458   2.890 -0.6352 -0.1227  0.3885
  279TIP3    H122396   6.419   6.465   2.968  0.4265 -0.6089  1.2186
  279TIP3    H222397   6.473   6.545   2.851 -0.9728  0.2025  1.1010
  280TIP3   OH222398   4.173   4.406   7.130 -0.1349  0.8086  0.3064
  280TIP3    H122399   4.261   4.441   7.117  0.3285 -0.0080  1.1184
  280TIP3    H222400   4.173   4.376   7.221 -0.3726 -1.5935 -0.4201
  281TIP3   OH222401   0.721   6.023   0.999  0.3066 -0.1671 -0.2371
  281TIP3    H122402   0.652   6.065   1.050  0.7347  0.9433 -0.5419
  281TIP3    H222403   0.680   6.002   0.916  0.7164  2.0030 -1.0518
  282TIP3   OH222404   5.709   0.181   0.754  0.4339  0.1832 -0.7739
  282TIP3    H122405   5.751   0.226   0.681  1.0293  0.5900 -0.1864
  282TIP3    H222406   5.636   0.134   0.714  0.3486  0.9401 -1.5250
  283TIP3   OH222407   1.449   0.942   2.261 -0.0540 -0.1188 -0.4198
  283TIP3    H122408   1.520   1.002   2.239 -0.8824  0.5535 -1.3586
  283TIP3    H222409   1.399   0.987   2.330  0.6810 -0.8042  0.5929
  284TIP3   OH222410   6.975   2.789   8.080  0.2946 -0.2723  0.2664
  284TIP3    H122411   6.907   2.781   8.146 -2.3875  1.7293 -2.0083
  284TIP3    H222412   6.985   2.700   8.044 -0.7455 -0.6879  0.9710
  285TIP3   OH222413   3.120   1.760   3.444 -0.4396  0.0600 -0.2436
  285TIP3    H122414   3.136   1.671   3.477 -2.7403 -0.4656 -0.3117
  285TIP3    H222415   3.031   1.755   3.407 -0.1434  2.0928 -1.3527
  286TIP3   OH222416   1.938   1.409   8.113 -0.0799 -0.1358  0.2801
  286TIP3    H122417   1.895   1.486   8.077  1.2301  0.1914 -0.6682
  286TIP3    H222418   2.000   1.443   8.177  1.0796 -0.2960 -0.7163
  287TIP3   OH222419   5.703   3.141   8.003  0.3764 -0.7655 -0.1679
  287TIP3    H122420   5.700   3.068   7.941  0.3169  0.5912 -1.8476
  287TIP3    H222421   5.768   3.201   7.966 -0.4438  0.5916  0.5000
  288TIP3   OH222422   1.254   0.700   2.013  0.1472  0.0083  0.8968
  288TIP3    H122423   1.172   0.744   2.036  0.6216  2.2953 -1.2976
  288TIP3    H222424   1.226   0.620   1.969 -0.7978 -0.8484  2.9292
  289TIP3   OH222425   2.165   1.398   0.234  0.1530  0.5837  0.3214
  289TIP3    H122426   2.129   1.485   0.215 -1.2807  0.0918  0.6024
  289TIP3    H222427   2.147   1.385   0.327  0.0559 -0.1278  0.2131
  290TIP3   OH222428   6.038   1.374   8.169  0.5115 -0.1736 -0.3603
  290TIP3    H122429   6.097   1.341   8.236  1.1404  1.1495 -0.2277
  290TIP3    H222430   6.035   1.469   8.184 -0.1129  0.0270 -1.5847
  291TIP3   OH222431   5.672   0.408   8.270 -0.5731  0.1335  0.3947
  291TIP3    H122432   5.681   0.333   8.212 -3.3508 -0.4890  0.6425
  291TIP3    H222433   5.638   0.477   8.214 -2.1636 -0.1245  1.0068
  292TIP3   OH222434   5.352   0.063   0.329 -0.2226  0.0634 -0.0948
  292TIP3    H122435   5.445   0.044   0.318 -0.1815 -1.0268  1.7305
  292TIP3    H222436   5.316  -0.014   0.373 -1.8503  0.7533 -0.1221
  293TIP3   OH222437   6.180   1.077   2.004 -0.3952  0.0526 -0.6837
  293TIP3    H122438   6.108   1.016   2.018 -0.5396  0.3850  0.0467
  293TIP3    H222439   6.145   1.162   2.031 -0.1345  0.4345 -1.5054
  294TIP3   OH222440   6.181   6.845   2.806  0.1713  0.4934  0.3842
  294TIP3    H122441   6.164   6.772   2.746  1.4341 -0.1289  0.7530
  294TIP3    H222442   6.143   6.816   2.889  0.6463  0.2560  0.5231
  295TIP3   OH222443   3.592   6.332   0.165  0.0896  0.7043 -0.7270
  295TIP3    H122444   3.527   6.392   0.202 -0.0092  0.0619  0.1917
  295TIP3    H222445   3.554   6.304   0.082  0.0889  1.8119 -1.1276
  296TIP3   OH222446   5.947   0.157   0.458 -0.1045  0.5615  0.0449
  296TIP3    H122447   5.919   0.067   0.473 -0.0603  0.5858  0.2806
  296TIP3    H222448   6.035   0.162   0.496  0.5752  0.2666 -1.4195
  297TIP3   OH222449   6.816   1.962   1.145  0.6365 -0.2186  0.2025
  297TIP3    H122450   6.843   2.054   1.138  1.7024 -0.6330 -2.9202
  297TIP3    H222451   6.898   1.913   1.152  0.0862 -0.9713  1.7615
  298TIP3   OH222452   2.189   0.580   8.401  0.1739 -0.0009  0.9513
  298TIP3    H122453   2.240   0.655   8.371  2.6374 -1.5467  1.0086
  298TIP3    H222454   2.183   0.522   8.325 -2.2031  0.4193  0.7341
  299TIP3   OH222455   1.431   5.459   0.384  0.2185  0.3730  0.3430
  299TIP3    H122456   1.367   5.502   0.441 -1.1850 -0.0991 -0.7924
  299TIP3    H222457   1.507   5.517   0.384 -1.0405  2.0961  0.0372
  300TIP3   OH222458   0.847   3.506   1.426 -0.2779  0.2963  0.5350
  300TIP3    H122459   0.855   3.583   1.370  0.4699  1.3424  2.0219
  300TIP3    H222460   0.757   3.510   1.459 -0.9741 -0.7359 -1.0873
  301TIP3   OH222461   1.318   0.896   7.915  0.4124 -0.4254  0.5835
  301TIP3    H122462   1.335   0.989   7.899 -2.1191  0.1226  0.6696
  301TIP3    H222463   1.288   0.893   8.006 -0.6740 -1.1173  0.2270
  302TIP3   OH222464   1.011   4.614   1.446 -0.6699 -0.2839  0.0780
  302TIP3    H122465   1.005   4.619   1.542 -0.2708 -1.5020  0.1820
  302TIP3    H222466   1.096   4.653   1.425 -0.4504 -0.6526  0.2798
  303TIP3   OH222467   2.340   1.389   7.193  0.2082 -0.3037 -0.2074
  303TIP3    H122468   2.259   1.410   7.147  1.5937  0.6684 -2.3741
  303TIP3    H222469   2.394   1.468   7.185  0.9694 -0.4773  2.2341
  304TIP3   OH222470   2.460   5.034   8.325  0.3987 -0.1777  0.1957
  304TIP3    H122471   2.437   5.127   8.335  1.9707  0.1988  0.6342
  304TIP3    H222472   2.405   5.003   8.253 -0.4036  0.9954  0.2761
  305TIP3   OH222473   6.366   5.837   1.756 -0.3702  0.3585  0.3439
  305TIP3    H122474   6.389   5.864   1.845 -0.6877 -0.6451  0.7384
  305TIP3    H222475   6.300   5.901   1.728  0.1868  1.0447  0.5922
  306TIP3   OH222476   5.177   4.236   0.367  0.1140  0.0572  0.1944
  306TIP3    H122477   5.101   4.253   0.422 -1.7118  0.4741 -2.2881
  306TIP3    H222478   5.240   4.193   0.425 -1.2861  1.2896  2.7817
  307TIP3   OH222479   6.884   6.526   2.049  0.1583 -0.6884  0.2980
  307TIP3    H122480   6.953   6.460   2.055  0.2925 -0.7003 -0.9637
  307TIP3    H222481   6.834   6.500   1.971 -0.5545 -0.0163  0.5234
  308TIP3   OH222482   5.200   5.353   7.825 -0.2768  0.5006  0.2220
  308TIP3    H122483   5.164   5.368   7.738 -1.3640 -1.6315  0.2351
  308TIP3    H222484   5.282   5.306   7.809 -1.1734 -1.1752  0.3205
  309TIP3   OH222485   3.934   1.282   2.534  0.2889 -0.3897 -0.0651
  309TIP3    H122486   3.881   1.309   2.459  1.0593  0.3312 -0.3592
  309TIP3    H222487   3.872   1.280   2.607 -0.0617  0.8809 -0.3059
  310TIP3   OH222488   5.365   2.609   0.090 -0.0092  0.2810  0.2894
  310TIP3    H122489   5.389   2.701   0.078  2.2697 -0.4646 -1.6170
  310TIP3    H222490   5.443   2.560   0.065 -1.5540 -2.2489  0.0333
  311TIP3   OH222491   3.620   5.435   0.324  0.4884 -0.1922 -0.0089
  311TIP3    H122492   3.673   5.457   0.247 -1.3222 -0.4492 -1.3842
  311TIP3    H222493   3.621   5.515   0.377 -1.9089  1.6743 -2.5364
  312TIP3   OH222494   6.685   5.646   8.012 -0.7185 -0.7259 -0.1715
  312TIP3    H122495   6.653   5.556   8.008 -1.1473 -0.5675 -0.3880
  312TIP3    H222496   6.701   5.671   7.921  1.3991 -1.2714  0.0010
  313TIP3   OH222497   0.098   2.538   3.090  0.1960 -0.0233 -0.0048
  313TIP3    H122498   0.016   2.579   3.061 -0.8682  0.7121  3.6032
  313TIP3    H222499   0.074   2.447   3.108  0.3516  0.0156  0.3980
  314TIP3   OH222500   0.566   5.273   1.754 -0.1883 -0.0019  0.0991
  314TIP3    H122501   0.656   5.292   1.780 -0.5550  0.9389  0.7341
  314TIP3    H222502   0.537   5.352   1.708 -1.4169  0.6638  1.8905
  315TIP3   OH222503   0.027   6.704   2.571 -0.1650  0.3657 -0.2115
  315TIP3    H122504  -0.055   6.749   2.596 -0.6526 -0.7768  0.3189
  315TIP3    H222505   0.058   6.665   2.653 -0.3380 -1.1684 -0.8438
  316TIP3   OH222506   1.180   3.571   2.767 -0.1171  0.2844 -0.2132
  316TIP3    H122507   1.209   3.638   2.829  3.1320  0.0395 -1.2981
  316TIP3    H222508   1.236   3.496   2.784  0.0506 -0.2141 -2.6251
  317TIP3   OH222509   5.295   0.501   8.279 -0.2985 -0.3967 -0.4505
  317TIP3    H122510   5.382   0.532   8.255 -0.4895  0.0974 -0.5114
  317TIP3    H222511   5.269   0.444   8.205 -1.2072  1.7444 -1.8720
  318TIP3   OH222512   0.147   5.813   2.756 -0.3483  0.1707 -0.2799
  318TIP3    H122513   0.184   5.794   2.842  2.1610  0.1796 -1.2714
  318TIP3    H222514   0.056   5.835   2.773 -0.4448 -1.6989  2.1423
  319TIP3   OH222515   4.756   0.892   8.119  0.2735  0.4024 -0.2844
  319TIP3    H122516   4.730   0.954   8.051  4.0011  0.8171 -1.5569
  319TIP3    H222517   4.741   0.938   8.201 -0.6302  1.4409 -1.0037
  320TIP3   OH222518   3.159   2.719   2.141 -0.4711 -0.5823 -0.1373
  320TIP3    H122519   3.082   2.746   2.091 -0.5570 -0.5955 -0.0128
  320TIP3    H222520   3.231   2.719   2.078 -0.8345 -1.9310 -0.5768
  321TIP3   OH222521   6.658   4.657   1.307 -0.2570 -0.0818 -0.0752
  321TIP3    H122522   6.564   4.673   1.304 -0.3392 -0.6524 -1.0103
  321TIP3    H222523   6.688   4.675   1.218  0.3821 -0.7118  0.0007
  322TIP3   OH222524   0.015   1.790   7.128  0.0809 -0.3769 -0.4062
  322TIP3    H122525   0.108   1.787   7.149  0.2440 -0.3917 -1.0935
  322TIP3    H222526  -0.016   1.701   7.145 -0.5105  0.3106  2.7556
  323TIP3   OH222527   1.074   1.611   1.926  0.3221 -0.1338  0.4629
  323TIP3    H122528   1.095   1.580   2.013 -0.4595 -0.5467  0.5218
  323TIP3    H222529   1.152   1.593   1.874  0.0497 -1.8922  0.5857
  324TIP3   OH222530   3.821   1.994   3.591  0.1418  0.1967  0.4077
  324TIP3    H122531   3.851   1.957   3.507  0.8112 -1.7560  1.4347
  324TIP3    H222532   3.900   1.995   3.646 -0.3247  1.2812  1.0891
  325TIP3   OH222533   2.206   2.063   0.717  0.4699  0.4461  0.0458
  325TIP3    H122534   2.133   2.100   0.668  0.1116 -0.6391 -0.2711
  325TIP3    H222535   2.275   2.052   0.653 -0.7905 -3.2649 -0.9316
  326TIP3   OH222536   4.252   3.106   2.898  0.0578  0.0293  0.2190
  326TIP3    H122537   4.242   3.104   2.803  0.1471 -0.5129  0.2216
  326TIP3    H222538   4.323   3.045   2.916  0.6402  0.7922  0.5576
  327TIP3   OH222539   0.666   4.628   1.972  0.2850 -0.0694 -0.0775
  327TIP3    H122540   0.624   4.542   1.971 -0.3860  0.1933  1.7945
  327TIP3    H222541   0.613   4.681   1.912 -1.4982 -0.0367  1.4224
  328TIP3   OH222542   5.852   2.333   7.798  0.4343 -0.6998 -0.2545
  328TIP3    H122543   5.919   2.337   7.730  1.7510 -1.2961  0.9726
  328TIP3    H222544   5.805   2.252   7.780  0.9801 -1.0162 -0.2690
  329TIP3   OH222545   1.369   1.429   2.289  0.5880  0.1567 -0.3063
  329TIP3    H122546   1.334   1.489   2.354 -0.1769 -0.9080  0.3022
  329TIP3    H222547   1.304   1.359   2.284  0.9898 -0.1537 -1.6848
  330TIP3   OH222548   4.296   1.172   1.445  0.3074 -0.1591 -0.3285
  330TIP3    H122549   4.301   1.082   1.476  0.6113  0.2054  0.6982
  330TIP3    H222550   4.345   1.223   1.509 -1.1607  0.9487 -0.0384
  331TIP3   OH222551   2.889   4.932   0.686 -0.6081 -0.0999  0.3002
  331TIP3    H122552   2.920   4.858   0.739 -1.3406 -0.2601  0.5100
  331TIP3    H222553   2.805   4.904   0.652  1.0160 -1.1310 -3.3006
  332TIP3   OH222554   2.925   6.429   2.119  0.0014  0.3821  0.2864
  332TIP3    H122555   2.949   6.384   2.200 -2.4026  0.2455  1.0090
  332TIP3    H222556   2.916   6.360   2.054  0.8493  0.3703  0.1719
  333TIP3   OH222557   6.466   5.335   0.177  0.1114  0.2362  0.5968
  333TIP3    H122558   6.553   5.328   0.216 -0.0756 -3.0727  0.7551
  333TIP3    H222559   6.409   5.366   0.247  0.8957  0.8437  0.9619
  334TIP3   OH222560   3.990   5.586   3.694 -0.0105 -0.3111 -0.5064
  334TIP3    H122561   3.951   5.661   3.650  0.4991  0.2790  0.0187
  334TIP3    H222562   3.928   5.514   3.679 -1.4904  0.6749  0.6305
  335TIP3   OH222563   2.577   1.939   2.148  0.5429  0.3082 -0.2443
  335TIP3    H122564   2.659   1.978   2.178  0.6229  0.6511 -0.8807
  335TIP3    H222565   2.513   1.963   2.215  0.3418  2.5377 -1.1334
  336TIP3   OH222566   1.615   6.505   7.842 -1.3198 -0.3942  0.0979
  336TIP3    H122567   1.661   6.511   7.926  1.2461 -0.7109 -1.1709
  336TIP3    H222568   1.591   6.595   7.822 -0.3499 -0.0503  0.3821
  337TIP3   OH222569   2.341   4.287   2.526  0.9737 -0.2330  0.0321
  337TIP3    H122570   2.325   4.332   2.609 -0.2650  0.5080 -0.5840
  337TIP3    H222571   2.429   4.314   2.501  1.3540 -0.4522  1.0899
  338TIP3   OH222572   6.172   1.233   7.249  0.5081  0.3931 -0.4054
  338TIP3    H122573   6.165   1.147   7.209  1.7645  0.2508 -0.3599
  338TIP3    H222574   6.083   1.268   7.248  0.1194 -0.5942 -1.1045
  339TIP3   OH222575   1.825   3.958   2.531 -0.3639 -0.3709  0.1115
  339TIP3    H122576   1.860   3.869   2.538  3.4580  0.9441  0.3283
  339TIP3    H222577   1.801   3.982   2.620 -0.1224 -0.7275  0.2708
  340TIP3   OH222578   4.055   6.818   1.211 -0.2908 -0.3759 -0.1868
  340TIP3    H122579   4.147   6.796   1.193 -0.6786 -1.4200 -0.9858
  340TIP3    H222580   4.025   6.862   1.132 -0.5170 -0.1368  0.0299
  341TIP3   OH222581   4.587   2.291   1.123  0.4912  0.3861  0.4588
  341TIP3    H122582   4.668   2.314   1.077 -0.0317  2.1684  0.3525
  341TIP3    H222583   4.614   2.224   1.186  1.3760 -1.4751 -1.7965
  342TIP3   OH222584   6.794   3.264   0.517  0.4518 -0.2656 -0.1299
  342TIP3    H122585   6.807   3.253   0.423  0.4160 -0.8313 -0.0735
  342TIP3    H222586   6.799   3.175   0.552 -3.5437 -0.6856 -0.1073
  343TIP3   OH222587   1.546   1.216   2.229 -1.2197 -0.1480 -0.1827
  343TIP3    H122588   1.602   1.290   2.207 -1.2365  0.0158  0.3129
  343TIP3    H222589   1.512   1.236   2.316 -0.5301 -1.1346  0.3411
  344TIP3   OH222590   2.874   2.677   2.342  0.3593  0.0165  0.2559
  344TIP3    H122591   2.929   2.740   2.388  1.5962 -0.8305  0.0203
  344TIP3    H222592   2.935   2.631   2.284 -1.0492  0.7144 -1.8947
  345TIP3   OH222593   0.169   1.078   7.302 -0.3493  0.0891  0.3499
  345TIP3    H122594   0.264   1.085   7.289  0.0407 -1.5919  1.9441
  345TIP3    H222595   0.136   1.045   7.218  0.8192 -1.5570  0.4849
  346TIP3   OH222596   1.885   0.973   2.438 -0.3455 -0.0024  0.1904
  346TIP3    H122597   1.888   1.047   2.377 -0.1420  0.2146  0.4626
  346TIP3    H222598   1.792   0.953   2.447 -0.3326 -0.6693 -0.9525
  347TIP3   OH222599   0.313   2.447   1.319  0.1860  0.1995 -0.2560
  347TIP3    H122600   0.375   2.518   1.300  0.1804  0.1269 -0.5615
  347TIP3    H222601   0.278   2.423   1.233 -0.4419  0.3964 -0.0562
  348TIP3   OH222602   3.831   4.366   1.625 -0.3548  0.4430 -0.1003
  348TIP3    H122603   3.884   4.414   1.689  1.8965 -0.8045 -0.9315
  348TIP3    H222604   3.803   4.287   1.671 -0.5573  0.5598 -0.0190
  349TIP3   OH222605   6.439   6.586   8.193  0.5074  0.1270  0.0070
  349TIP3    H122606   6.417   6.506   8.242  0.7080  0.8415  1.3278
  349TIP3    H222607   6.355   6.628   8.176  0.5111  0.7299  1.3046
  350TIP3   OH222608   6.864   2.233   1.069  0.1548 -0.4361  0.6703
  350TIP3    H122609   6.930   2.230   1.000  1.2682  0.2185  1.6673
  350TIP3    H222610   6.899   2.295   1.133 -1.6371  0.2604  1.0349
  351TIP3   OH222611   3.902   1.147   1.800 -0.2131  0.5233  0.0724
  351TIP3    H122612   3.979   1.201   1.780  0.2208 -0.4131 -0.9262
  351TIP3    H222613   3.829   1.209   1.799  0.3762  1.2392 -0.1461
  352TIP3   OH222614   1.922   5.160   0.073  0.7483 -0.0719 -0.9647
  352TIP3    H122615   1.902   5.124   0.159  2.0959 -0.3794 -0.7565
  352TIP3    H222616   1.897   5.253   0.079 -0.3558 -0.3789 -0.6761
  353TIP3   OH222617   2.781   0.531   0.474  0.6528  0.3369 -0.3138
  353TIP3    H122618   2.700   0.562   0.515  0.0549 -4.5815  3.0810
  353TIP3    H222619   2.847   0.594   0.502 -1.1307  1.4353  1.7679
  354TIP3   OH222620   2.210   3.320   8.153 -0.3341  0.1972  0.0488
  354TIP3    H122621   2.190   3.386   8.087 -1.0811 -0.2252 -0.1640
  354TIP3    H222622   2.128   3.270   8.162 -0.9205  1.4530  2.6995
  355TIP3   OH222623   2.282   1.098   2.071  0.0990  0.2812 -0.8024
  355TIP3    H122624   2.364   1.127   2.033  1.2775 -2.7717 -0.8659
  355TIP3    H222625   2.237   1.052   2.000 -0.5987 -0.0338 -0.1697
  356TIP3   OH222626   0.312   0.164   2.528  0.3212 -0.1212 -0.3308
  356TIP3    H122627   0.240   0.193   2.584  1.6542  0.5733  1.0732
  356TIP3    H222628   0.357   0.244   2.503  0.6772 -0.5599 -1.1173
  357TIP3   OH222629   5.207   3.688   2.331  0.0927  0.0215  0.1158
  357TIP3    H122630   5.294   3.727   2.340  0.0126  0.0737  0.7009
  357TIP3    H222631   5.221   3.609   2.279  0.0058  1.6778 -2.5605
  358TIP3   OH222632   3.492   0.808   2.246 -0.1844 -0.1860  0.1790
  358TIP3    H122633   3.487   0.888   2.194  1.0107  0.5457  1.1282
  358TIP3    H222634   3.584   0.781   2.239 -0.8101 -2.2685 -1.2106
  359TIP3   OH222635   1.548   3.478   0.807  0.1328  0.0082 -0.0523
  359TIP3    H122636   1.563   3.462   0.900 -0.6840  1.4327  0.3598
  359TIP3    H222637   1.631   3.513   0.775 -0.1244  1.2740  0.5992
  360TIP3   OH222638   1.966   2.549   1.602 -0.1990 -0.0686  0.4177
  360TIP3    H122639   1.873   2.564   1.621 -0.2976 -0.5558  0.3362
  360TIP3    H222640   1.967   2.476   1.540  0.1591  1.0336 -0.9340
  361TIP3   OH222641   2.932   6.611   0.134  0.4157  0.3154  0.6035
  361TIP3    H122642   2.847   6.576   0.108 -0.5448  0.9184  2.6722
  361TIP3    H222643   2.920   6.706   0.136  2.0675  0.6669 -1.9339
  362TIP3   OH222644   4.447   1.928   1.671 -0.6277  0.5074 -0.2126
  362TIP3    H122645   4.406   2.014   1.685 -1.7765 -0.0311 -0.1104
  362TIP3    H222646   4.381   1.865   1.702 -0.2992 -0.4625 -1.4073
  363TIP3   OH222647   4.668   2.740   2.432  0.8889  0.4417  0.3569
  363TIP3    H122648   4.596   2.749   2.494 -0.2634  1.5016 -1.0817
  363TIP3    H222649   4.679   2.827   2.394  0.7638 -0.4072 -1.7638
  364TIP3   OH222650   5.689   3.446   7.747  0.0526 -0.1287 -0.2697
  364TIP3    H122651   5.653   3.420   7.662 -0.4896 -1.2030  0.2660
  364TIP3    H222652   5.763   3.387   7.761  1.3211  1.2800 -0.8184
  365TIP3   OH222653   6.402   5.367   1.302  0.2261 -0.0224  0.1201
  365TIP3    H122654   6.465   5.323   1.358  0.7359 -0.3277 -0.6768
  365TIP3    H222655   6.423   5.337   1.214 -0.1215  0.9624 -0.3183
  366TIP3   OH222656   5.038   2.179   2.592 -0.2329 -0.2047 -0.1780
  366TIP3    H122657   4.974   2.177   2.521  0.6374  0.3263 -1.0080
  366TIP3    H222658   5.033   2.092   2.632  0.2609 -1.0355 -1.8305
  367TIP3   OH222659   1.587   0.644   8.266  0.4162  0.7741  0.0037
  367TIP3    H122660   1.555   0.707   8.331 -0.7665 -0.6621  0.8503
  367TIP3    H222661   1.523   0.648   8.195 -0.3858 -0.3869  0.6408
  368TIP3   OH222662   0.477   0.556   7.591 -0.2285 -0.6427 -0.3234
  368TIP3    H122663   0.563   0.517   7.574 -0.8065 -1.4711 -1.4115
  368TIP3    H222664   0.492   0.650   7.581  0.8718 -0.6382  0.9890
  369TIP3   OH222665   4.402   6.132   2.406 -0.0361  0.2883  0.2401
  369TIP3    H122666   4.411   6.042   2.437 -0.8550  0.1834  0.2001
  369TIP3    H222667   4.403   6.185   2.486  2.5978  0.4775  0.1701
  370TIP3   OH222668   6.411   1.363   7.275 -0.4281  0.3996 -0.4047
  370TIP3    H122669   6.363   1.426   7.329 -1.6847 -1.1890  0.4095
  370TIP3    H222670   6.345   1.301   7.245  0.6796 -0.2198 -1.6622
  371TIP3   OH222671   6.717   6.941   8.047  0.0435  0.0581  0.2859
  371TIP3    H122672   6.797   6.986   8.020 -0.4032  0.5789 -0.1951
  371TIP3    H222673   6.652   7.010   8.055 -0.0698 -0.1791  1.9159
  372TIP3   OH222674   3.051   2.284   2.572 -0.3212 -0.1252 -0.2753
  372TIP3    H122675   3.066   2.365   2.622 -0.8772  0.3069 -0.7873
  372TIP3    H222676   2.956   2.274   2.572 -0.2301 -2.9434  3.1325
  373TIP3   OH222677   5.894   1.220   0.417 -0.2469 -0.1711 -0.1928
  373TIP3    H122678   5.849   1.181   0.492 -0.7633 -0.5364 -0.6859
  373TIP3    H222679   5.888   1.153   0.348 -2.1251  1.1870 -1.4218
  374TIP3   OH222680   2.027   4.816   3.336  0.4013 -0.1241 -0.5126
  374TIP3    H122681   1.994   4.845   3.251  1.2200 -0.9269 -1.1292
  374TIP3    H222682   1.950   4.785   3.383 -0.4398  2.5261 -0.0022
  375TIP3   OH222683   1.700   2.667   0.640 -0.4416 -0.2672 -0.2523
  375TIP3    H122684   1.694   2.723   0.718  1.0337 -0.2092 -0.1650
  375TIP3    H222685   1.787   2.628   0.644 -0.2026 -0.0098 -2.0545
  376TIP3   OH222686   4.285   1.887   1.370  0.3267 -0.1675  0.0235
  376TIP3    H122687   4.239   1.955   1.322  0.1892  0.8150  1.4952
  376TIP3    H222688   4.351   1.934   1.422  1.1854 -1.2924 -0.0065
  377TIP3   OH222689   2.421   4.054   1.262 -0.1765  0.2942 -0.2886
  377TIP3    H122690   2.410   4.001   1.341  0.3802  0.2315 -0.2509
  377TIP3    H222691   2.471   3.998   1.202 -0.4966  0.3844 -0.6428
  378TIP3   OH222692   3.902   5.323   0.771 -0.3624 -0.1758 -0.1094
  378TIP3    H122693   3.977   5.267   0.792  0.8015  1.2476 -0.2998
  378TIP3    H222694   3.862   5.281   0.695 -0.4110 -1.5315  0.6276
  379TIP3   OH222695   0.652   1.939   7.438 -0.4086 -0.0497  0.5002
  379TIP3    H122696   0.655   2.021   7.390 -0.9809 -0.1485  0.2813
  379TIP3    H222697   0.744   1.915   7.452 -0.2348  0.1079 -0.3272
  380TIP3   OH222698   5.281   4.866   7.447  0.2758 -0.0733  0.2494
  380TIP3    H122699   5.221   4.892   7.377 -0.4474  1.0234  1.2256
  380TIP3    H222700   5.282   4.771   7.445 -0.9642 -0.0865 -0.2399
  381TIP3   OH222701   6.724   5.593   3.225 -0.0380 -0.2696 -0.2642
  381TIP3    H122702   6.716   5.558   3.314  0.6001 -0.0554 -0.1209
  381TIP3    H222703   6.670   5.535   3.171 -2.6262  1.1164  0.6582
  382TIP3   OH222704   1.271   6.145   2.951 -0.2804 -0.0305  0.6400
  382TIP3    H122705   1.357   6.110   2.975 -0.4563 -0.7209  0.2880
  382TIP3    H222706   1.208   6.082   2.987 -0.6299  0.3635  0.7236
  383TIP3   OH222707   2.738   4.492   0.647 -0.6466 -0.3513 -0.6783
  383TIP3    H122708   2.784   4.542   0.580 -1.2894  0.4985 -0.4934
  383TIP3    H222709   2.669   4.445   0.600  0.5970 -1.9529 -1.0240
  384TIP3   OH222710   0.680   6.601   3.022  0.2574  0.3715 -0.1614
  384TIP3    H122711   0.756   6.634   3.070  0.7179 -0.8672  0.0122
  384TIP3    H222712   0.646   6.677   2.976 -0.3854  1.6844  2.3295
  385TIP3   OH222713   2.658   0.757   1.184  0.3414  0.0141 -0.0372
  385TIP3    H122714   2.708   0.787   1.259  1.5761  1.2545 -1.2921
  385TIP3    H222715   2.718   0.699   1.137 -0.8572 -1.7865  0.5565
  386TIP3   OH222716   3.541   2.481   8.310 -0.0085 -0.0487 -0.1675
  386TIP3    H122717   3.491   2.545   8.360  1.8444  1.7079 -0.3997
  386TIP3    H222718   3.577   2.531   8.236  0.2705 -1.7300 -1.2369
  387TIP3   OH222719   3.332   3.414   7.178 -0.2654 -0.1216  0.3616
  387TIP3    H122720   3.423   3.388   7.163 -0.3770  0.0389 -0.6504
  387TIP3    H222721   3.281   3.340   7.145 -0.5060 -0.6350  1.8030
  388TIP3   OH222722   5.380   2.049   3.287  0.7815  0.2903  0.2968
  388TIP3    H122723   5.366   2.075   3.378  1.8201  1.3332  0.1893
  388TIP3    H222724   5.401   1.956   3.291 -1.0039 -0.1137  0.9144
  389TIP3   OH222725   2.079   0.041   8.417 -0.1824 -0.2150  0.7763
  389TIP3    H122726   2.145   0.103   8.448 -1.4621  1.2460  0.6909
  389TIP3    H222727   1.997   0.088   8.424 -1.3140 -2.1537  1.3401
  390TIP3   OH222728   4.982   1.012   7.433  0.2991  0.2553 -0.1917
  390TIP3    H122729   5.066   1.008   7.385  0.0343  1.0216 -0.7439
  390TIP3    H222730   4.942   1.094   7.403 -0.1634  0.4392  0.8890
  391TIP3   OH222731   3.362   4.639   0.287  0.2654  0.7829 -0.4380
  391TIP3    H122732   3.288   4.697   0.271 -0.0282  1.0466  1.5395
  391TIP3    H222733   3.375   4.643   0.382  1.3718 -1.0148 -0.4564
  392TIP3   OH222734   2.412   2.198   0.508  0.3560 -0.3414 -0.2987
  392TIP3    H122735   2.414   2.238   0.421  2.4274 -0.8924 -0.5455
  392TIP3    H222736   2.459   2.115   0.497  1.1997 -0.1337  1.4776
  393TIP3   OH222737   2.804   5.440   1.433 -0.7758 -0.1287  0.2138
  393TIP3    H122738   2.871   5.487   1.385 -0.4919 -0.3671  0.3749
  393TIP3    H222739   2.723   5.456   1.384 -0.4594 -0.5218 -0.4431
  394TIP3   OH222740   4.595   1.355   7.886  0.4407 -0.4387  0.1505
  394TIP3    H122741   4.547   1.387   7.962  1.8448  0.3306  0.7600
  394TIP3    H222742   4.531   1.355   7.814 -0.5777  0.0264  1.0407
  395TIP3   OH222743   6.759   2.756   1.692 -0.1206 -0.1325 -0.5868
  395TIP3    H122744   6.848   2.771   1.661 -0.6021  1.7129 -1.1856
  395TIP3    H222745   6.706   2.751   1.613 -0.9862  1.9851 -0.2006
  396TIP3   OH222746   4.952   4.331   1.448  1.1474  0.5228  0.7474
  396TIP3    H122747   5.001   4.282   1.382 -2.6865 -0.2791 -1.8552
  396TIP3    H222748   4.952   4.421   1.415  0.1721  0.3322  0.1729
  397TIP3   OH222749   0.843   3.221   0.924 -0.7286 -0.2168  0.0080
  397TIP3    H122750   0.879   3.217   0.836  0.7054  1.4915  0.4499
  397TIP3    H222751   0.794   3.303   0.927  1.0891  0.9303  1.3517
  398TIP3   OH222752   5.754   1.009   7.701  0.7823 -0.2833 -0.4577
  398TIP3    H122753   5.702   0.953   7.644 -0.1802  0.0777  0.0457
  398TIP3    H222754   5.840   0.965   7.705  0.7774 -0.4831 -1.8970
  399TIP3   OH222755   3.547   4.491   1.195  0.5037 -0.2057 -0.5595
  399TIP3    H122756   3.616   4.556   1.182  1.0788 -0.5485  0.6441
  399TIP3    H222757   3.477   4.540   1.239  0.7452 -0.2944 -0.0779
  400TIP3   OH222758   1.258   0.619   0.200  0.1992 -0.3256  0.2963
  400TIP3    H122759   1.286   0.607   0.290 -1.2561 -2.0037  0.5946
  400TIP3    H222760   1.281   0.536   0.156 -0.7575 -0.2619 -0.3742
  401TIP3   OH222761   3.834   1.160   0.716  0.1324 -0.4889 -0.5471
  401TIP3    H122762   3.868   1.190   0.800 -1.8317 -1.0072  0.4719
  401TIP3    H222763   3.875   1.074   0.703 -0.0811 -0.7113  0.2233
  402TIP3   OH222764   0.441   1.757   8.068 -0.5413  0.2607  0.5705
  402TIP3    H122765   0.532   1.769   8.042 -0.7118 -3.7649 -3.1525
  402TIP3    H222766   0.390   1.798   7.998 -1.3780 -1.6044  0.0136
  403TIP3   OH222767   0.809   2.901   2.703 -0.4640  0.3969  0.3664
  403TIP3    H122768   0.828   2.951   2.782 -0.3437  1.1906 -0.1417
  403TIP3    H222769   0.895   2.874   2.670 -0.4834  0.4494  0.2719
  404TIP3   OH222770   0.391   3.957   1.044 -0.1342  0.7501  0.3174
  404TIP3    H122771   0.425   3.952   1.133  0.8737  0.8570 -0.0567
  404TIP3    H222772   0.402   4.049   1.019  1.3545  0.3399 -0.5947
  405TIP3   OH222773   2.750   4.641   8.432  0.1428 -0.0210  0.0946
  405TIP3    H122774   2.659   4.635   8.462  0.7847  0.1642  2.2315
  405TIP3    H222775   2.762   4.564   8.377 -0.7079 -1.2399  1.5495
  406TIP3   OH222776   4.262   4.861   7.692  0.3301  0.1577  0.0820
  406TIP3    H122777   4.248   4.820   7.607  0.8321  0.6405 -0.2370
  406TIP3    H222778   4.330   4.808   7.733  1.0892  0.7510 -0.3932
  407TIP3   OH222779   6.571   3.744   2.204 -0.0114 -0.3388 -0.5627
  407TIP3    H122780   6.597   3.725   2.294  1.9156 -0.0718 -1.0150
  407TIP3    H222781   6.556   3.838   2.202  1.1098 -0.1536 -0.7679
  408TIP3   OH222782   5.708   6.212   2.182  0.1090  0.3512  0.1171
  408TIP3    H122783   5.690   6.257   2.264  0.6076  1.1330 -0.1955
  408TIP3    H222784   5.738   6.280   2.122 -1.6269  0.0284 -1.1786
  409TIP3   OH222785   6.750   3.802   2.806  0.0399  0.0411  0.3742
  409TIP3    H122786   6.819   3.806   2.871 -0.4134 -1.2818  0.9714
  409TIP3    H222787   6.783   3.852   2.732  1.8241 -0.9496  0.4658
  410TIP3   OH222788   4.127   3.012   3.533  0.4836  0.3179 -0.0992
  410TIP3    H122789   4.146   3.095   3.490  1.3221  0.8767  1.2957
  410TIP3    H222790   4.208   2.962   3.526  0.2060 -0.1077 -0.3113
  411TIP3   OH222791   0.872   2.066   1.330  0.2746  0.0097  0.5027
  411TIP3    H122792   0.893   2.146   1.283 -0.5521  0.6693  1.2259
  411TIP3    H222793   0.785   2.082   1.367  0.5675 -0.7971  1.5869
  412TIP3   OH222794   4.315   4.281   0.618 -0.4144 -0.0656 -0.5254
  412TIP3    H122795   4.309   4.291   0.713  1.4435 -0.4743 -0.3181
  412TIP3    H222796   4.408   4.291   0.599 -0.7119 -0.2917 -2.2828
  413TIP3   OH222797   1.787   4.665   0.769 -0.0535  0.6839 -0.2314
  413TIP3    H122798   1.877   4.649   0.742  0.2204  0.9487  0.5073
  413TIP3    H222799   1.779   4.618   0.852 -0.6181  0.6123 -0.3220
  414TIP3   OH222800   3.506   6.962   8.013  0.2347  0.1227 -0.0096
  414TIP3    H122801   3.595   6.983   8.041 -0.7373  2.0288  2.0184
  414TIP3    H222802   3.499   7.001   7.926  1.0743  0.9634  0.2731
  415TIP3   OH222803   2.162   2.376   1.456  0.1798 -0.2018 -0.1860
  415TIP3    H122804   2.169   2.380   1.551  0.4443 -0.0877 -0.2096
  415TIP3    H222805   2.175   2.283   1.435 -2.9836 -0.8221  0.1232
  416TIP3   OH222806   5.380   0.546   0.143  0.2758  0.2014  0.3168
  416TIP3    H122807   5.334   0.510   0.068 -0.5827  0.5864  0.6392
  416TIP3    H222808   5.453   0.595   0.106 -1.2506  2.0396 -0.4228
  417TIP3   OH222809   0.186   2.143   1.907  0.1915 -0.5467 -0.0634
  417TIP3    H122810   0.140   2.180   1.983 -0.6123  0.4977 -1.0202
  417TIP3    H222811   0.240   2.215   1.874  1.7300 -1.4440  0.3979
  418TIP3   OH222812   1.945   5.647   1.282  0.1801  0.3064 -0.3035
  418TIP3    H122813   1.861   5.664   1.239  0.8316  0.1884 -1.6718
  418TIP3    H222814   1.941   5.698   1.363 -1.7529 -0.7645  0.3512
  419TIP3   OH222815   0.500   1.075   3.348 -0.3103 -0.1513  0.3141
  419TIP3    H122816   0.498   0.981   3.363 -0.5235  0.0325  1.5652
  419TIP3    H222817   0.591   1.101   3.365 -0.0508 -0.2303 -0.8380
  420TIP3   OH222818   4.919   6.523   7.878  0.4131 -0.0832 -0.0841
  420TIP3    H122819   4.909   6.583   7.804 -2.3140  0.4225  0.6064
  420TIP3    H222820   4.950   6.578   7.949  0.2921  0.0106 -0.1030
  421TIP3   OH222821   4.965   0.338   1.269 -0.0242 -0.0163  0.1081
  421TIP3    H122822   4.894   0.284   1.303  0.3758 -0.8033 -0.2905
  421TIP3    H222823   4.929   0.427   1.269 -0.1930 -0.0422  2.1410
  422TIP3   OH222824   2.437   3.139   2.215  0.2237  0.0918 -0.0705
  422TIP3    H122825   2.343   3.133   2.229  0.2461 -0.0510  0.0130
  422TIP3    H222826   2.446   3.154   2.121  0.2083 -1.9147 -0.4237
  423TIP3   OH222827   4.351   6.344   0.630  0.0752  0.1182 -0.3328
  423TIP3    H122828   4.411   6.273   0.655 -1.0010 -0.8500 -0.4102
  423TIP3    H222829   4.371   6.360   0.538  0.1426 -0.2681 -0.3888
  424TIP3   OH222830   5.921   2.987   0.928 -0.0201 -0.2112  0.0549
  424TIP3    H122831   5.922   3.082   0.941  0.7464 -0.0251 -1.1911
  424TIP3    H222832   5.828   2.963   0.929 -0.3150  0.8030 -1.1854
  425TIP3   OH222833   0.716   6.205   7.797 -0.1430 -0.2595 -0.7666
  425TIP3    H122834   0.772   6.221   7.872  0.7026 -0.1185 -1.4088
  425TIP3    H222835   0.757   6.131   7.752 -0.8212 -0.5548 -0.9111
  426TIP3   OH222836   3.867   0.450   2.803  0.0330 -0.0488  0.0086
  426TIP3    H122837   3.950   0.467   2.846  0.1645  0.2758 -0.3640
  426TIP3    H222838   3.848   0.358   2.823 -0.7143  0.5019  2.1016
  427TIP3   OH222839   2.865   4.584   7.459  0.3248 -0.3229 -0.4457
  427TIP3    H122840   2.792   4.638   7.486 -0.1915 -0.9983 -0.4733
  427TIP3    H222841   2.828   4.496   7.449  0.8478 -0.4198 -1.7153
  428TIP3   OH222842   6.586   3.624   8.114 -0.5215  0.3521  0.0029
  428TIP3    H122843   6.625   3.612   8.027 -0.3147  1.3709 -0.0602
  428TIP3    H222844   6.606   3.543   8.160  1.3367  0.6507 -0.1725
  429TIP3   OH222845   4.712   4.171   8.055 -0.3635 -0.7541  0.1683
  429TIP3    H122846   4.628   4.173   8.009 -1.1012  0.0995  1.4692
  429TIP3    H222847   4.765   4.237   8.011 -0.6567 -0.7457 -0.1758
  430TIP3   OH222848   5.652   2.634   2.803  1.0276  0.6528 -0.2419
  430TIP3    H122849   5.568   2.593   2.782  1.3093 -0.3951  0.5626
  430TIP3    H222850   5.635   2.683   2.884  1.4995 -0.7455  0.7491
  431TIP3   OH222851   1.182   1.355   1.491  0.0537 -0.7713 -0.0840
  431TIP3    H122852   1.243   1.413   1.446 -1.0531  0.6516  0.1668
  431TIP3    H222853   1.234   1.312   1.559  1.6649 -2.6582 -2.3575
  432TIP3   OH222854   4.436   4.864   2.410  0.2689 -0.2869 -0.4023
  432TIP3    H122855   4.445   4.948   2.455  0.9761  0.2752 -1.5377
  432TIP3    H222856   4.403   4.887   2.323  1.0695 -1.1135 -0.9436
  433TIP3   OH222857   5.586   3.543   0.074 -0.2060 -0.7545 -0.2104
  433TIP3    H122858   5.497   3.508   0.084  0.4605 -3.0538 -1.6294
  433TIP3    H222859   5.635   3.502   0.145 -0.0621 -0.1798  0.0275
  434TIP3   OH222860   1.585   3.268   2.572  0.3401 -0.9302  0.4763
  434TIP3    H122861   1.588   3.174   2.551 -2.0588 -1.4484  1.9549
  434TIP3    H222862   1.591   3.270   2.668  1.0761  0.4973  0.4136
  435TIP3   OH222863   0.505   1.881   1.088  0.2482  0.0888 -0.9475
  435TIP3    H122864   0.596   1.860   1.110 -0.6992 -2.5365  1.1406
  435TIP3    H222865   0.481   1.950   1.150  1.1718  1.8804 -2.5108
  436TIP3   OH222866   5.993   0.288   3.060 -0.4557  0.3219  0.3479
  436TIP3    H122867   5.929   0.219   3.043 -0.2151 -0.2074  1.4813
  436TIP3    H222868   6.017   0.321   2.974  0.9249 -2.3846 -0.3931
  437TIP3   OH222869   4.395   5.784   3.458  0.5850  0.6615 -0.2353
  437TIP3    H122870   4.363   5.811   3.544  1.8997 -0.9614  0.8236
  437TIP3    H222871   4.321   5.797   3.399 -0.9596  0.0276  1.4938
  438TIP3   OH222872   2.163   1.248   7.992 -0.2564 -0.1141  0.3267
  438TIP3    H122873   2.088   1.307   8.002 -0.1421  0.2623 -0.9593
  438TIP3    H222874   2.158   1.192   8.070 -1.4995  0.3187  0.5952
  439TIP3   OH222875   4.545   4.603   1.464 -0.0142  0.3004 -0.1989
  439TIP3    H122876   4.599   4.529   1.494 -0.3401 -0.1158 -0.6294
  439TIP3    H222877   4.588   4.633   1.384 -0.7128 -0.3764 -0.8412
  440TIP3   OH222878   2.498   3.380   8.163 -0.2795  0.2604 -0.3473
  440TIP3    H122879   2.425   3.326   8.133  0.9751 -1.3321 -0.7305
  440TIP3    H222880   2.508   3.447   8.095  0.4312 -1.3097 -1.8953
  441TIP3   OH222881   0.742   3.031   1.827 -0.0187 -0.1014  0.3574
  441TIP3    H122882   0.681   3.014   1.755 -1.7423 -1.4589  2.0224
  441TIP3    H222883   0.764   3.124   1.818 -0.1125 -0.2466 -1.9215
  442TIP3   OH222884   4.981   6.009   1.568 -0.3854  0.3971 -0.4227
  442TIP3    H122885   5.003   6.032   1.478  0.6626 -0.7965 -0.5053
  442TIP3    H222886   5.048   5.945   1.593 -2.7703 -2.1329 -0.0665
  443TIP3   OH222887   4.264   4.069   1.656  0.1584  0.0342  0.0016
  443TIP3    H122888   4.220   4.020   1.725 -0.6394 -0.4878 -0.8526
  443TIP3    H222889   4.355   4.074   1.684  0.4447 -2.5932 -0.2182
  444TIP3   OH222890   5.017   5.768   1.778 -0.2713  0.2695 -0.0539
  444TIP3    H122891   4.930   5.760   1.739 -0.3776  0.9248  0.0264
  444TIP3    H222892   5.069   5.699   1.737 -0.7456  0.0760 -0.3333
  445TIP3   OH222893   1.758   3.224   0.971  0.6183 -0.5607 -0.5990
  445TIP3    H122894   1.666   3.202   0.962  0.8058 -1.4712 -0.3516
  445TIP3    H222895   1.758   3.318   0.991 -0.2342 -0.4953 -0.8698
  446TIP3   OH222896   2.719   1.414   2.907 -0.8506  0.3326 -0.2718
  446TIP3    H122897   2.797   1.359   2.897 -0.3060  0.5512  2.2907
  446TIP3    H222898   2.652   1.354   2.941 -0.7729  0.8398  0.8136
  447TIP3   OH222899   3.290   0.551   2.865 -0.4932  0.4112  0.0379
  447TIP3    H122900   3.248   0.583   2.945 -1.4378  0.9735 -0.6637
  447TIP3    H222901   3.236   0.476   2.838  0.7806 -0.8278  0.7984
  448TIP3   OH222902   5.730   6.561   1.320  0.0422 -0.4146  0.1274
  448TIP3    H122903   5.816   6.602   1.332 -0.5737  1.7628 -2.0222
  448TIP3    H222904   5.698   6.597   1.238 -2.6582 -1.7103  0.5083
  449TIP3   OH222905   1.287   2.384   7.743 -0.1789 -0.1868 -0.1864
  449TIP3    H122906   1.325   2.297   7.755  0.0939  0.1859  2.2841
  449TIP3    H222907   1.353   2.435   7.697 -0.1527 -1.1378 -1.2236
  450TIP3   OH222908   3.976   3.843   0.641  0.3193 -0.0592 -0.8464
  450TIP3    H122909   4.008   3.910   0.702 -1.3462 -1.3985  1.6929
  450TIP3    H222910   4.014   3.761   0.674  0.1803 -0.7300 -2.2753
  451TIP3   OH222911   2.439   1.726   1.115 -0.2957 -0.4832 -0.6880
  451TIP3    H122912   2.449   1.783   1.192 -1.7618 -1.3126  0.1632
  451TIP3    H222913   2.375   1.660   1.142 -0.9110 -0.7581 -2.6526
  452TIP3   OH222914   0.015   6.274   1.969  0.3223 -0.3287  0.3841
  452TIP3    H122915  -0.014   6.184   1.956 -2.0107  0.5755 -1.5225
  452TIP3    H222916   0.066   6.272   2.050  0.1557 -3.2914  0.5098
  453TIP3   OH222917   5.176   4.704   3.155 -0.2270  0.3074  0.1786
  453TIP3    H122918   5.216   4.641   3.214  0.1823 -0.3877 -0.8106
  453TIP3    H222919   5.247   4.736   3.100 -0.7196  0.3795 -0.4378
  454TIP3   OH222920   1.465   1.229   2.619 -0.3813  0.0726 -0.3153
  454TIP3    H122921   1.382   1.266   2.649 -0.3031  0.9688 -1.1279
  454TIP3    H222922   1.528   1.254   2.686 -0.8925 -1.3209  0.7286
  455TIP3   OH222923   6.647   3.125   0.217  0.1364  0.0303  0.1901
  455TIP3    H122924   6.595   3.131   0.137  0.6992  1.8159 -0.0710
  455TIP3    H222925   6.689   3.038   0.212 -2.3311 -1.2453  0.1586
  456TIP3   OH222926   6.497   5.848   2.650  0.1516 -0.1235  0.1578
  456TIP3    H122927   6.447   5.923   2.680  0.3273  1.4511 -2.9937
  456TIP3    H222928   6.436   5.800   2.593  0.7361 -1.0264  0.2761
  457TIP3   OH222929   1.422   5.655   1.546 -0.4539 -1.0707 -0.1872
  457TIP3    H122930   1.374   5.674   1.626  0.7937  1.9038 -0.0190
  457TIP3    H222931   1.361   5.679   1.475  0.0448  0.9689  0.0063
  458TIP3   OH222932   5.463   6.777   7.022  0.0770 -0.2023 -0.3273
  458TIP3    H122933   5.415   6.737   7.095 -0.2800 -0.7605 -0.8658
  458TIP3    H222934   5.553   6.746   7.032  0.1290  0.0712  0.1194
  459TIP3   OH222935   1.622   0.421   8.082  0.3413  0.6134 -0.4977
  459TIP3    H122936   1.632   0.485   8.153  1.0324 -0.4853  0.4297
  459TIP3    H222937   1.620   0.474   8.002 -0.8908  1.9159  0.3437
  460TIP3   OH222938   3.172   2.028   3.393 -0.1520  0.7181 -0.5281
  460TIP3    H122939   3.084   2.065   3.386 -0.0368  1.1192  0.0211
  460TIP3    H222940   3.159   1.944   3.437 -0.1803  1.1676  0.3467
  461TIP3   OH222941   1.411   5.430   3.383 -0.0195 -0.4625 -0.8554
  461TIP3    H122942   1.430   5.484   3.459  0.3280 -0.5847 -0.8540
  461TIP3    H222943   1.317   5.415   3.387  0.0985 -1.0469 -0.0549
  462TIP3   OH222944   4.167   6.429   1.397  0.5486  0.2611  0.7322
  462TIP3    H122945   4.133   6.415   1.485 -0.6358 -0.2889  0.2130
  462TIP3    H222946   4.089   6.446   1.344  1.1094 -0.6503 -0.4272
  463TIP3   OH222947   5.644   3.108   0.809 -0.2033 -0.3867  0.0361
  463TIP3    H122948   5.629   3.163   0.885 -0.9167 -0.2114 -0.2253
  463TIP3    H222949   5.573   3.128   0.749  0.2087 -0.7007 -0.5820
  464TIP3   OH222950   5.930   3.319   2.714  0.8558  0.0565 -0.6419
  464TIP3    H122951   5.913   3.413   2.722 -1.1799 -0.2926 -0.2914
  464TIP3    H222952   5.976   3.296   2.794  0.6492  0.6043 -0.3633
  465TIP3   OH222953   0.258   1.951   2.144  0.4085 -0.0450 -0.3889
  465TIP3    H122954   0.276   1.864   2.180 -1.8420 -1.1992 -1.7930
  465TIP3    H222955   0.177   1.940   2.094  0.2041  2.8173 -0.8692
  466TIP3   OH222956   5.041   1.967   2.965  0.4450  0.7007  0.1779
  466TIP3    H122957   5.083   1.989   3.048  2.9278  2.3392 -1.3838
  466TIP3    H222958   4.978   2.037   2.950 -1.5049 -0.6655  1.5424
  467TIP3   OH222959   0.205   6.797   2.375 -0.7177  0.1169  0.3679
  467TIP3    H122960   0.154   6.759   2.447 -0.1654  0.8312  1.1562
  467TIP3    H222961   0.227   6.722   2.320 -2.7826 -0.1686 -0.1124
  468TIP3   OH222962   1.586   2.476   1.243  0.4504 -0.1900  0.1369
  468TIP3    H122963   1.639   2.398   1.228 -0.6049 -1.1285  1.0594
  468TIP3    H222964   1.546   2.461   1.329 -0.7783  0.7708 -0.2326
  469TIP3   OH222965   2.983   6.654   2.264 -0.2705 -0.0728 -0.2475
  469TIP3    H122966   3.017   6.732   2.221  1.8754 -0.4026  0.7212
  469TIP3    H222967   2.949   6.600   2.192  3.7375 -0.8814 -1.8072
  470TIP3   OH222968   6.080   1.737   1.748  0.0603 -0.7480 -0.1224
  470TIP3    H122969   6.102   1.656   1.703  1.9870  0.3471 -1.3153
  470TIP3    H222970   6.003   1.770   1.702  1.4530 -0.1152 -2.1787
  471TIP3   OH222971   5.814   4.746   8.254  0.2833  0.4747  0.0909
  471TIP3    H122972   5.732   4.782   8.220  1.4590  1.9128 -1.4065
  471TIP3    H222973   5.849   4.816   8.309 -0.5177 -0.9960  2.6210
  472TIP3   OH222974   3.174   1.861   1.997 -0.6933  0.2624  0.3650
  472TIP3    H122975   3.192   1.776   1.956 -1.6449  0.0238  0.4072
  472TIP3    H222976   3.259   1.905   2.000 -0.2307 -0.5921  0.1251
  473TIP3   OH222977   4.668   5.740   0.821 -0.4560  0.2365  0.1816
  473TIP3    H122978   4.591   5.779   0.778 -1.0926 -0.3742  0.7456
  473TIP3    H222979   4.739   5.802   0.804 -0.3244 -0.5774 -2.9297
  474TIP3   OH222980   6.854   2.600   0.756 -0.2996  0.2623 -0.6570
  474TIP3    H122981   6.845   2.513   0.718  0.3769 -1.4367  2.6832
  474TIP3    H222982   6.917   2.645   0.701  1.0314 -2.1874 -1.2428
  475TIP3   OH222983   3.988   5.005   7.415  0.1182  0.0869 -0.0246
  475TIP3    H122984   4.076   5.033   7.442 -0.7996  1.6726  1.5768
  475TIP3    H222985   3.974   5.049   7.331  1.3008 -1.2171 -0.9447
  476TIP3   OH222986   5.253   3.272   0.717  0.0640  0.2183 -0.2782
  476TIP3    H122987   5.322   3.224   0.672 -0.7821  0.3212 -1.7188
  476TIP3    H222988   5.301   3.334   0.773  1.1367 -0.5907 -0.2570
  477TIP3   OH222989   5.493   2.577   1.707  0.2184  0.1636 -0.5387
  477TIP3    H122990   5.434   2.550   1.637 -1.5711  1.0573  0.5772
  477TIP3    H222991   5.549   2.643   1.667  0.9526 -1.1403 -1.7810
  478TIP3   OH222992   3.084   5.352   2.366  0.1664 -0.2993 -0.8044
  478TIP3    H122993   3.123   5.438   2.349 -1.2885  0.9106  1.4373
  478TIP3    H222994   2.989   5.367   2.360 -0.1000 -2.1423 -1.9272
  479TIP3   OH222995   3.701   5.719   2.676  0.0768 -0.0073 -0.1968
  479TIP3    H122996   3.613   5.683   2.667  0.9784 -1.9606 -2.2900
  479TIP3    H222997   3.727   5.697   2.766  0.0144 -3.5012 -0.8947
  480TIP3   OH222998   1.768   2.916   1.001 -0.3921 -0.2339  0.3428
  480TIP3    H122999   1.764   2.876   1.088  0.2095  0.2385  0.5908
  480TIP3    H223000   1.740   3.006   1.014 -0.6661 -0.2620 -0.0232
  481TIP3   OH223001   5.887   6.353   2.040 -0.0240  0.0336 -0.0634
  481TIP3    H123002   5.909   6.381   1.951  1.0403 -0.9682 -0.1390
  481TIP3    H223003   5.954   6.288   2.062  0.3078  0.9388  1.8233
  482TIP3   OH223004   2.318   5.794   1.283 -0.6438 -0.1605  0.5274
  482TIP3    H123005   2.361   5.879   1.275  2.4982 -1.6233  0.3739
  482TIP3    H223006   2.342   5.763   1.370 -1.6205 -0.9887  0.5156
  483TIP3   OH223007   3.697   2.376   6.986 -0.6737 -0.2958 -0.4221
  483TIP3    H123008   3.685   2.404   6.895  1.2926 -0.9115 -0.9136
  483TIP3    H223009   3.738   2.451   7.029 -0.1364 -0.5819 -0.4389
  484TIP3   OH223010   2.683   0.208   2.163 -0.5009  0.0930 -0.2517
  484TIP3    H123011   2.715   0.295   2.189 -0.2393  0.7649 -2.5568
  484TIP3    H223012   2.762   0.160   2.139 -0.8242  0.3147 -1.9085
  485TIP3   OH223013   2.959   6.570   2.846  0.0599 -0.1555 -0.1122
  485TIP3    H123014   2.943   6.592   2.938 -1.9987  0.4834 -0.5614
  485TIP3    H223015   3.054   6.578   2.835  0.1532  1.6965  1.4896
  486TIP3   OH223016   2.256   3.995   2.594  0.6143  0.4513  0.1810
  486TIP3    H123017   2.279   4.081   2.560 -2.1674  0.4170 -2.1564
  486TIP3    H223018   2.188   4.012   2.660 -0.0956  0.0477 -0.4410
  487TIP3   OH223019   0.923   1.492   8.326 -0.3412  0.1284 -0.1520
  487TIP3    H123020   0.972   1.571   8.307  0.1600 -0.0443  0.3811
  487TIP3    H223021   0.989   1.424   8.338 -0.7404 -0.2633 -0.1155
  488TIP3   OH223022   5.100   0.144   8.303 -0.4528  0.2065  0.3407
  488TIP3    H123023   5.121   0.212   8.368  1.4087 -0.0590  0.0556
  488TIP3    H223024   5.120   0.062   8.348 -1.1019 -0.0808  0.1110
  489TIP3   OH223025   4.601   6.166   8.179  0.3666  0.4204  0.7596
  489TIP3    H123026   4.557   6.208   8.105 -1.0584 -1.9991  0.1385
  489TIP3    H223027   4.687   6.143   8.146 -0.3564 -0.8971 -0.3254
  490TIP3   OH223028   6.544   0.599   2.365  0.0968  0.1143  0.1417
  490TIP3    H123029   6.580   0.680   2.401  1.4894  0.3422 -1.6197
  490TIP3    H223030   6.468   0.628   2.314 -1.5875 -0.1566  2.3620
  491TIP3   OH223031   4.352   0.369   8.108 -1.0032 -0.2431  1.0481
  491TIP3    H123032   4.403   0.436   8.061 -0.7269  0.2819  2.0591
  491TIP3    H223033   4.308   0.319   8.039  0.8730 -0.7136  0.1329
  492TIP3   OH223034   2.452   3.175   0.780  0.4233 -0.2106 -0.2323
  492TIP3    H123035   2.361   3.155   0.761  0.7213 -1.8139 -0.1009
  492TIP3    H223036   2.449   3.229   0.859 -0.4688  1.0683 -1.0990
  493TIP3   OH223037   1.614   4.208   1.973 -0.5071  0.2071 -0.6152
  493TIP3    H123038   1.562   4.212   1.893 -1.4144 -0.0963 -0.0544
  493TIP3    H223039   1.703   4.193   1.943 -1.1193 -1.9664 -1.5097
  494TIP3   OH223040   5.732   2.042   7.779  0.0175  0.3415 -0.2333
  494TIP3    H123041   5.810   2.000   7.743  0.3672  1.1922 -0.4948
  494TIP3    H223042   5.687   1.972   7.826  1.7011  0.1336  1.2070
  495TIP3   OH223043   5.270   0.927   1.657 -0.6802  0.0027  0.0343
  495TIP3    H123044   5.175   0.935   1.650 -0.9494 -2.4273  0.1513
  495TIP3    H223045   5.289   0.838   1.627  1.5898  0.4945 -0.1566
  496TIP3   OH223046   6.633   3.540   7.847 -0.0695 -0.6776  0.2271
  496TIP3    H123047   6.561   3.504   7.797  0.3168 -0.6916 -0.3267
  496TIP3    H223048   6.686   3.588   7.783  1.7497 -2.6930  0.1141
  497TIP3   OH223049   4.698   4.143   0.560 -0.6423  0.2113 -0.1966
  497TIP3    H123050   4.787   4.148   0.597 -0.6307  0.9893 -0.3135
  497TIP3    H223051   4.709   4.100   0.476 -0.5024 -0.4911  0.1696
  498TIP3   OH223052   6.361   4.130   1.456  0.2481 -0.0151 -0.0322
  498TIP3    H123053   6.446   4.096   1.484 -1.1173 -1.8066  2.3623
  498TIP3    H223054   6.353   4.101   1.365  1.7166 -0.8491  0.0690
  499TIP3   OH223055   6.761   5.366   1.226 -0.3742 -0.0682  0.2540
  499TIP3    H123056   6.710   5.301   1.176  0.5778 -0.6611  0.0244
  499TIP3    H223057   6.706   5.387   1.301 -1.3565 -0.0008 -0.4645
  500TIP3   OH223058   3.719   5.496   8.198 -0.2439  0.6671 -0.0803
  500TIP3    H123059   3.740   5.518   8.107 -1.1754  0.9971 -0.2231
  500TIP3    H223060   3.627   5.519   8.208 -0.4355 -0.3461  0.6528
  501TIP3   OH223061   5.534   2.832   1.911  0.3555  0.4031  0.2251
  501TIP3    H123062   5.477   2.769   1.955 -0.6466 -0.0356 -1.6336
  501TIP3    H223063   5.477   2.877   1.849  1.9545  0.1414 -1.5022
  502TIP3   OH223064   2.166   2.720   8.407 -0.1672  0.1617  0.3948
  502TIP3    H123065   2.176   2.814   8.393  0.5450 -0.1425 -1.4427
  502TIP3    H223066   2.205   2.704   8.493 -2.7209  1.8839  2.0002
  503TIP3   OH223067   0.010   6.750   7.113  0.3257  0.1350  0.4753
  503TIP3    H123068  -0.005   6.826   7.170 -0.0930  0.4672 -0.0627
  503TIP3    H223069   0.028   6.678   7.173 -1.3537  0.1888  1.1032
  504TIP3   OH223070   4.792   0.599   1.395  0.4608  0.1423  0.4553
  504TIP3    H123071   4.757   0.683   1.364 -1.2356 -0.0027  1.7816
  504TIP3    H223072   4.870   0.623   1.446  0.3393  0.8580  0.3200
  505TIP3   OH223073   3.981   2.774   3.574 -0.6411 -0.4845 -0.2037
  505TIP3    H123074   3.994   2.727   3.657 -0.4099 -0.2661 -0.1147
  505TIP3    H223075   4.051   2.840   3.573  0.5172 -1.6637 -1.4339
  506TIP3   OH223076   4.339   1.205   8.417 -0.5125 -0.5424 -0.1896
  506TIP3    H123077   4.270   1.269   8.435 -0.7015 -0.6725 -0.4536
  506TIP3    H223078   4.302   1.121   8.444 -0.8334 -0.7541 -1.2465
  507TIP3   OH223079   2.337   1.482   0.898  0.0400 -0.1632  0.0052
  507TIP3    H123080   2.332   1.432   0.980  0.1362  1.4519  1.0430
  507TIP3    H223081   2.425   1.520   0.899 -0.9650  2.2917  0.6732
  508TIP3   OH223082   2.972   6.483   0.408  0.4521  0.5718 -0.3071
  508TIP3    H123083   2.970   6.536   0.328  0.2154  0.4373 -0.3921
  508TIP3    H223084   2.924   6.404   0.385  2.5756 -0.6320 -0.8515
  509TIP3   OH223085   2.926   2.372   1.033 -0.4507  0.1522 -0.1038
  509TIP3    H123086   2.840   2.392   1.069 -0.9244 -1.1048 -0.5030
  509TIP3    H223087   2.939   2.438   0.965 -0.9150  0.5837  0.2111
  510TIP3   OH223088   6.760   3.308   7.695 -0.2897  0.4730  0.0254
  510TIP3    H123089   6.786   3.228   7.649 -0.9468 -0.5271  1.3325
  510TIP3    H223090   6.666   3.315   7.680 -0.1681  1.2224 -0.4053
  511TIP3   OH223091   3.226   6.558   0.070  0.0284  0.1446 -0.4874
  511TIP3    H123092   3.168   6.541  -0.005 -3.8184 -0.7273  2.3603
  511TIP3    H223093   3.204   6.646   0.098 -1.4529 -0.8150  1.6922
  512TIP3   OH223094   6.472   6.411   1.584  0.1667  0.0024 -0.2255
  512TIP3    H123095   6.490   6.399   1.491  0.5371  1.0929 -0.3177
  512TIP3    H223096   6.507   6.333   1.626 -2.1088 -1.6379 -1.1978
  513TIP3   OH223097   3.131   5.048   0.922  0.2044  0.1096  0.3394
  513TIP3    H123098   3.137   5.108   0.996 -0.5934 -0.6348  1.0280
  513TIP3    H223099   3.050   5.072   0.878  0.8779  0.8122 -0.5451
  514TIP3   OH223100   6.876   2.663   8.291 -0.0605 -0.4969 -0.6832
  514TIP3    H123101   6.873   2.569   8.308  0.4483 -0.2620  0.8635
  514TIP3    H223102   6.838   2.703   8.369  1.7546  0.6421 -0.3098
  515TIP3   OH223103   2.672   2.308   7.196  0.1125  0.1761 -0.3898
  515TIP3    H123104   2.613   2.383   7.186 -3.1077 -1.8924  1.3271
  515TIP3    H223105   2.708   2.318   7.285  0.7012  0.3099 -0.6373
  516TIP3   OH223106   0.659   6.280   1.102 -0.4435  0.2317  0.0306
  516TIP3    H123107   0.750   6.307   1.114 -0.6065  0.4769  0.7729
  516TIP3    H223108   0.608   6.357   1.128 -0.8876 -0.3709  1.0261
  517TIP3   OH223109   1.123   0.935   2.374  0.0832 -1.1592 -0.2635
  517TIP3    H123110   1.039   0.933   2.420  0.7303  3.4686  1.6463
  517TIP3    H223111   1.099   0.952   2.283 -1.0896 -0.7470  0.1004
  518TIP3   OH223112   5.232   1.107   7.882 -0.0960  0.2247 -0.3958
  518TIP3    H123113   5.170   1.044   7.917  0.8193 -0.1746  0.5638
  518TIP3    H223114   5.255   1.162   7.957  1.0097  0.1011 -0.6262
  519TIP3   OH223115   1.386   1.913   0.313  0.2665  0.2110 -0.6738
  519TIP3    H123116   1.386   1.859   0.234 -1.4094 -0.2852 -0.3627
  519TIP3    H223117   1.350   1.997   0.284  0.2141  0.2266 -0.5654
  520TIP3   OH223118   0.643   4.129   0.747  0.2440 -0.3505 -0.0644
  520TIP3    H123119   0.621   4.049   0.700 -3.1298  0.6897 -0.5053
  520TIP3    H223120   0.721   4.162   0.703  0.3905 -2.2058 -1.3166
  521TIP3   OH223121   0.501   1.669   0.375  0.1806 -0.0081 -0.2382
  521TIP3    H123122   0.516   1.755   0.337  0.1430 -0.3758 -1.0967
  521TIP3    H223123   0.479   1.687   0.467  0.9795  0.8384 -0.1988
  522TIP3   OH223124   1.115   2.206   8.254  0.3943 -0.2247 -0.4897
  522TIP3    H123125   1.192   2.262   8.237 -2.0604  3.2274 -1.4625
  522TIP3    H223126   1.112   2.147   8.179  1.6226  0.2008 -0.9084
  523TIP3   OH223127   5.193   0.977   1.016  0.7219  0.0898  0.3000
  523TIP3    H123128   5.279   0.977   0.972  0.7692 -0.4171  0.3856
  523TIP3    H223129   5.208   0.927   1.096  0.1194 -0.8045 -0.1356
  524TIP3   OH223130   6.876   5.968   2.254 -0.2129  0.4666 -0.7077
  524TIP3    H123131   6.966   6.002   2.260  0.3680 -1.0021 -0.5408
  524TIP3    H223132   6.821   6.042   2.278  0.9079  1.6239 -1.5338
  525TIP3   OH223133   1.054   3.087   2.396 -0.2080  0.7323 -0.4675
  525TIP3    H123134   1.025   3.002   2.431 -1.1223  0.8799 -0.8625
  525TIP3    H223135   1.107   3.065   2.320 -0.1315  0.5059 -0.3502
  526TIP3   OH223136   5.774   6.372   1.032  0.2609 -0.2282  0.0152
  526TIP3    H123137   5.739   6.459   1.013  2.1816  0.4313 -0.8057
  526TIP3    H223138   5.722   6.313   0.979  0.4862  0.7340 -1.3456
  527TIP3   OH223139   3.824   3.413   1.655  0.2945 -0.2049  0.5515
  527TIP3    H123140   3.745   3.467   1.656 -0.7583 -1.6978  1.4007
  527TIP3    H223141   3.855   3.416   1.746 -1.3393 -3.1106  1.3483
  528TIP3   OH223142   4.825   1.813   2.087  0.7618  1.0987  0.2076
  528TIP3    H123143   4.743   1.851   2.118  0.4164 -0.8113  1.8306
  528TIP3    H223144   4.810   1.798   1.994 -0.3721  1.6976  0.2707
  529TIP3   OH223145   5.024   6.090   2.342 -0.6438 -0.9160  0.5590
  529TIP3    H123146   4.967   6.073   2.417  0.8414  0.0208  1.9634
  529TIP3    H223147   5.106   6.121   2.381  0.0123  0.0589 -1.4823
  530TIP3   OH223148   5.672   4.204   0.611 -0.2696  0.1497 -0.2634
  530TIP3    H123149   5.687   4.135   0.546 -2.3131 -1.2876  0.6829
  530TIP3    H223150   5.739   4.270   0.592 -0.5441 -0.3671 -3.5595
  531TIP3   OH223151   0.514   4.926   2.978 -0.0475  0.4363  0.3203
  531TIP3    H123152   0.609   4.936   2.989 -0.0277 -1.2914  2.6361
  531TIP3    H223153   0.477   4.962   3.059 -1.3919  1.1011 -0.5571
  532TIP3   OH223154   4.249   5.302   0.866 -0.0201 -0.5150  0.3238
  532TIP3    H123155   4.203   5.311   0.949  0.0640 -1.0687  0.4349
  532TIP3    H223156   4.283   5.213   0.867 -0.9030 -0.8937 -0.7502
  533TIP3   OH223157   6.062   0.878   1.637  0.4565  0.2695 -0.4927
  533TIP3    H123158   6.058   0.783   1.625  0.6374  0.2105 -0.1118
  533TIP3    H223159   5.994   0.898   1.700 -1.0276  0.6849 -2.1524
  534TIP3   OH223160   4.269   0.378   1.028 -0.2848 -0.3699 -0.1726
  534TIP3    H123161   4.224   0.461   1.008  0.6969 -0.2563 -2.2356
  534TIP3    H223162   4.339   0.403   1.087  0.7295  0.5504 -1.6771
  535TIP3   OH223163   0.753   0.079   3.009 -0.4194  0.2722 -0.3193
  535TIP3    H123164   0.674   0.085   3.064 -1.4532 -1.0859 -1.5650
  535TIP3    H223165   0.812   0.146   3.044 -0.4121 -1.3985  3.3586
  536TIP3   OH223166   0.723   5.562   0.600  0.2395 -0.3740  0.3330
  536TIP3    H123167   0.759   5.540   0.514 -0.3267 -0.5568  0.1434
  536TIP3    H223168   0.640   5.515   0.605  0.9821 -1.6372  1.6141
  537TIP3   OH223169   1.489   4.956   3.127  0.4196  0.5640  0.3516
  537TIP3    H123170   1.576   4.947   3.089  0.3101  0.7448  0.0567
  537TIP3    H223171   1.491   5.039   3.174  0.9111 -0.1902  1.6971
  538TIP3   OH223172   6.181   1.445   0.507 -0.3565  0.3104  0.3845
  538TIP3    H123173   6.223   1.359   0.508 -0.1780  0.3703 -0.8706
  538TIP3    H223174   6.094   1.429   0.544 -0.7469 -0.6533 -0.8797
  539TIP3   OH223175   2.347   3.852   8.409 -1.5962  0.6131  0.0097
  539TIP3    H123176   2.416   3.917   8.418 -0.5677 -0.4735  0.1867
  539TIP3    H223177   2.312   3.865   8.321  0.7533 -0.6328 -1.1776
  540TIP3   OH223178   4.933   4.854   2.528 -0.2794 -0.1800  0.7342
  540TIP3    H123179   4.928   4.902   2.611  0.4449 -1.1289  1.3376
  540TIP3    H223180   4.841   4.844   2.501 -0.4366  2.0974  0.2350
  541TIP3   OH223181   2.949   6.210   8.165  0.6071  0.4063 -0.3069
  541TIP3    H123182   2.939   6.204   8.070 -0.7158  1.1563 -0.2358
  541TIP3    H223183   2.912   6.295   8.188 -0.7724 -0.5031  1.0686
  542TIP3   OH223184   4.185   2.870   7.728  0.6384 -0.2379  0.0337
  542TIP3    H123185   4.108   2.915   7.695 -0.5626 -1.4214  1.1232
  542TIP3    H223186   4.205   2.914   7.811  0.5743 -0.5276  0.2035
  543TIP3   OH223187   3.287   1.713   7.876  0.5181 -0.3536  0.3916
  543TIP3    H123188   3.370   1.690   7.834  1.0318 -0.1089  1.2546
  543TIP3    H223189   3.257   1.632   7.915  0.5304 -0.3663  0.3745
  544TIP3   OH223190   2.619   2.915   2.605  0.2790  0.2845  0.6681
  544TIP3    H123191   2.644   2.952   2.520  1.4211 -1.6943  0.0739
  544TIP3    H223192   2.535   2.872   2.588  0.8330 -0.6981  0.3233
  545TIP3   OH223193   3.141   5.887   0.953  0.5007  0.1027  0.1230
  545TIP3    H123194   3.051   5.874   0.921  0.5241 -0.2229  0.1845
  545TIP3    H223195   3.196   5.859   0.880  0.5523  0.0748  0.1727
  546TIP3   OH223196   4.457   1.603   1.499 -0.1624  0.3900 -0.1309
  546TIP3    H123197   4.400   1.655   1.555 -0.2055  2.7031 -2.1851
  546TIP3    H223198   4.398   1.541   1.456 -0.3010 -0.5953  1.4016
  547TIP3   OH223199   1.062   3.199   2.811  0.4910  0.3730 -0.0062
  547TIP3    H123200   0.992   3.136   2.829  1.2722 -0.5634 -0.1432
  547TIP3    H223201   1.057   3.262   2.883 -0.0333 -0.0839  0.3659
  548TIP3   OH223202   4.687   3.385   1.526 -0.4346  0.4153  0.0115
  548TIP3    H123203   4.647   3.371   1.440 -0.8313  2.0591 -0.1075
  548TIP3    H223204   4.643   3.323   1.583 -1.9238  0.9467 -0.4974
  549TIP3   OH223205   5.260   4.761   1.880 -0.1722  0.1104  0.1827
  549TIP3    H123206   5.291   4.733   1.966  0.3267 -1.5496 -0.5044
  549TIP3    H223207   5.329   4.734   1.819  0.7791  3.6294 -0.5226
  550TIP3   OH223208   5.396   4.232   0.747 -0.1514  0.6916  0.4344
  550TIP3    H123209   5.486   4.239   0.715 -0.5618  0.5599 -0.8140
  550TIP3    H223210   5.405   4.212   0.840  1.1053  0.7669  0.3479
  551TIP3   OH223211   3.737   3.545   7.607 -0.1744 -0.1880 -0.5735
  551TIP3    H123212   3.679   3.566   7.681  0.0121 -0.1411 -0.4392
  551TIP3    H223213   3.729   3.450   7.598 -4.2174  0.1813 -3.8138
  552TIP3   OH223214   0.810   5.834   3.437  0.0772 -0.1855  0.1591
  552TIP3    H123215   0.810   5.930   3.432  0.4965 -0.2072 -0.2514
  552TIP3    H223216   0.834   5.815   3.528 -1.5973  0.1117  0.7071
  553TIP3   OH223217   0.196   1.164   8.368  0.5098 -0.0104  0.0606
  553TIP3    H123218   0.227   1.092   8.422  0.6326 -0.1173 -0.1486
  553TIP3    H223219   0.127   1.124   8.314 -0.7892  0.4756  1.2975
  554TIP3   OH223220   2.129   0.207   3.034 -0.1618 -0.2555  0.3161
  554TIP3    H123221   2.094   0.134   2.983  0.9090 -0.6176  0.0880
  554TIP3    H223222   2.168   0.166   3.111 -0.0428  0.1278  0.4614
  555TIP3   OH223223   1.174   4.344   1.592  0.1668  0.7125  0.5684
  555TIP3    H123224   1.137   4.280   1.654  1.4986 -0.1055  0.5557
  555TIP3    H223225   1.183   4.296   1.510  0.1583  1.2587  0.2388
  556TIP3   OH223226   5.901   2.233   7.191 -0.0597 -0.1814  0.1042
  556TIP3    H123227   5.894   2.314   7.242  0.4498  0.0460 -0.1852
  556TIP3    H223228   5.855   2.168   7.243 -3.8545  1.0598 -1.3313
  557TIP3   OH223229   1.614   5.537   0.650 -0.1136 -0.0979  0.7050
  557TIP3    H123230   1.555   5.483   0.597 -0.3571 -0.5167  1.3956
  557TIP3    H223231   1.573   5.624   0.650  0.1385  0.0319 -0.1827
  558TIP3   OH223232   1.533   6.430   0.889 -0.1873 -1.3337  0.3124
  558TIP3    H123233   1.459   6.431   0.828 -0.1206  0.5017  0.2073
  558TIP3    H223234   1.495   6.404   0.972 -0.8579 -0.9340  0.1402
  559TIP3   OH223235   6.882   4.881   7.886 -0.1038  0.7303 -0.2517
  559TIP3    H123236   6.926   4.920   7.811  1.2800 -1.4039 -0.6188
  559TIP3    H223237   6.939   4.900   7.960  0.5301 -0.4524 -0.4178
  560TIP3   OH223238   4.235   1.877   2.409  0.4106 -0.2247 -0.2922
  560TIP3    H123239   4.291   1.822   2.463  0.2251  0.3607  0.5140
  560TIP3    H223240   4.292   1.947   2.377  0.7801 -1.1640 -1.7816
  561TIP3   OH223241   2.082   4.111   0.750 -0.5614  0.4644  0.0359
  561TIP3    H123242   1.989   4.127   0.767 -0.7867 -0.4815 -0.2497
  561TIP3    H223243   2.111   4.058   0.825 -0.0771  1.3276  0.4707
  562TIP3   OH223244   3.909   6.470   2.230 -0.0761  0.6373 -0.1003
  562TIP3    H123245   3.921   6.486   2.137  0.6678  0.0497 -0.1147
  562TIP3    H223246   3.827   6.515   2.252 -1.1996 -0.6665 -1.3946
  563TIP3   OH223247   5.495   2.517   3.547 -0.2152 -0.7943  0.0186
  563TIP3    H123248   5.546   2.436   3.554  1.0622 -0.0659 -0.6239
  563TIP3    H223249   5.546   2.573   3.489 -0.9068  0.6122  0.7200
  564TIP3   OH223250   4.019   4.273   7.579 -0.2952 -0.2122 -0.0044
  564TIP3    H123251   3.992   4.353   7.534  3.0875  1.9293  1.3599
  564TIP3    H223252   4.002   4.292   7.672  2.5834 -0.0083  0.5713
  565TIP3   OH223253   3.444   1.397   7.887 -0.2261 -0.4676  0.2346
  565TIP3    H123254   3.483   1.449   7.818  0.2920 -0.0857  0.8074
  565TIP3    H223255   3.354   1.431   7.895  0.5434  1.4338  1.6351
  566TIP3   OH223256   5.117   0.146   0.177 -0.2220 -0.8503 -0.2188
  566TIP3    H123257   5.054   0.081   0.208 -0.1268 -1.2476 -0.8608
  566TIP3    H223258   5.199   0.122   0.219 -0.4824 -0.3356  0.6163
  567TIP3   OH223259   1.601   0.241   0.104  0.1898  0.4077 -0.4505
  567TIP3    H123260   1.554   0.196   0.033  0.1281  0.8130 -0.6678
  567TIP3    H223261   1.557   0.326   0.112  0.6549  0.6464 -0.4088
  568TIP3   OH223262   3.855   4.935   0.683 -0.1061  0.0968  0.1094
  568TIP3    H123263   3.805   5.014   0.665 -0.2233 -0.1057 -0.4679
  568TIP3    H223264   3.946   4.964   0.685 -0.2526  0.5141  1.4394
  569TIP3   OH223265   0.382   2.177   0.435  0.1871  0.5339 -0.1453
  569TIP3    H123266   0.476   2.163   0.426  0.1394 -0.4848  0.7275
  569TIP3    H223267   0.370   2.196   0.528 -0.3396  1.8205 -0.4641
  570TIP3   OH223268   6.471   5.603   1.048 -0.3202  0.9642  0.0398
  570TIP3    H123269   6.566   5.601   1.035 -0.5573  1.3779 -2.0075
  570TIP3    H223270   6.439   5.525   1.003 -0.9607  0.6672  0.9656
  571TIP3   OH223271   3.136   0.312   3.062  0.4734 -0.8315  0.0799
  571TIP3    H123272   3.208   0.252   3.081  0.0952 -2.5463 -3.1508
  571TIP3    H223273   3.141   0.326   2.967 -2.0162  0.9115  0.1082
  572TIP3   OH223274   6.320   0.250   1.497  0.3987 -0.2025 -0.1575
  572TIP3    H123275   6.279   0.202   1.568  1.1810 -1.2898 -0.4039
  572TIP3    H223276   6.325   0.186   1.425  1.1035  0.3705 -0.6302
  573TIP3   OH223277   4.193   2.442   7.664  0.3576 -0.0364  0.4550
  573TIP3    H123278   4.177   2.511   7.600  1.0713 -1.1680 -1.0039
  573TIP3    H223279   4.186   2.361   7.614  0.1784 -1.0029  1.9854
  574TIP3   OH223280   6.462   5.596   0.536  0.2741 -0.2193  0.0313
  574TIP3    H123281   6.418   5.669   0.581  0.9132  1.0594 -1.3241
  574TIP3    H223282   6.391   5.546   0.496 -0.0882  1.2902 -1.3418
  575TIP3   OH223283   4.255   0.711   0.023  0.1851  0.1702  0.0673
  575TIP3    H123284   4.182   0.667  -0.021  0.5273  0.6236 -0.9713
  575TIP3    H223285   4.266   0.661   0.104  0.9594 -2.1256 -1.3348
  576TIP3   OH223286   1.409   0.447   2.102  0.2588  0.3328 -0.1627
  576TIP3    H123287   1.329   0.408   2.069  0.7630  0.2923 -1.4055
  576TIP3    H223288   1.452   0.378   2.152 -0.7125  0.5129  0.9470
  577TIP3   OH223289   4.659   6.489   0.291 -0.1538 -0.2142  0.2269
  577TIP3    H123290   4.680   6.560   0.352  1.3768 -0.2727 -0.1860
  577TIP3    H223291   4.612   6.532   0.220  0.1672  0.2867  0.3082
  578TIP3   OH223292   6.505   2.046   0.069 -0.5872 -0.1507 -0.3975
  578TIP3    H123293   6.483   2.139   0.072 -3.0338 -0.6377 -1.3289
  578TIP3    H223294   6.470   2.010   0.150 -0.9947 -0.5116 -0.7283
  579TIP3   OH223295   0.583   3.791   1.563 -0.1017  0.0413  0.3012
  579TIP3    H123296   0.647   3.833   1.506 -0.6613  0.0652 -0.3204
  579TIP3    H223297   0.629   3.779   1.647  0.8753 -0.3912 -0.2820
  580TIP3   OH223298   6.544   5.187   2.258 -0.1509  0.0162  0.6153
  580TIP3    H123299   6.627   5.143   2.240 -0.0020  0.1497  0.9684
  580TIP3    H223300   6.484   5.117   2.285 -0.6523 -0.3297 -1.2681
  581TIP3   OH223301   5.541   5.792   1.680 -0.2119 -0.2567 -0.1596
  581TIP3    H123302   5.512   5.806   1.770  0.8867  1.7532 -0.0817
  581TIP3    H223303   5.509   5.868   1.632  1.1321 -0.1887 -0.9881
  582TIP3   OH223304   0.462   1.928   0.803  0.1605  0.3506  0.5093
  582TIP3    H123305   0.459   1.937   0.899  0.8528  0.9093  0.4952
  582TIP3    H223306   0.532   1.989   0.777 -0.4584  0.6764 -0.4128
  583TIP3   OH223307   0.434   4.820   3.348 -0.4497  0.1897  0.0401
  583TIP3    H123308   0.352   4.787   3.385 -0.2660 -0.2021  0.1105
  583TIP3    H223309   0.441   4.777   3.263 -0.9710  1.2447 -0.5437
  584TIP3   OH223310   3.204   5.131   1.255  0.1690 -0.2637 -0.0928
  584TIP3    H123311   3.175   5.046   1.288 -0.9045 -0.1817 -0.7896
  584TIP3    H223312   3.131   5.162   1.201  1.6727 -0.1626 -2.1396
  585TIP3   OH223313   4.532   0.704   7.419  0.4727  0.1511  0.5595
  585TIP3    H123314   4.573   0.750   7.346 -0.0894 -1.7136 -0.9844
  585TIP3    H223315   4.475   0.770   7.460  0.1541  1.0035 -1.1771
  586TIP3   OH223316   4.154   6.507   1.043  0.2070  0.3707 -0.0246
  586TIP3    H123317   4.078   6.466   1.085  1.4291 -0.1465  1.7583
  586TIP3    H223318   4.195   6.435   0.994  0.9546  0.0208  1.0865
  587TIP3   OH223319   3.398   5.255   8.019 -0.2985  0.0801 -0.2700
  587TIP3    H123320   3.317   5.233   7.973  0.2633  0.9198 -1.7375
  587TIP3    H223321   3.458   5.283   7.950  1.4289 -0.9889  0.7179
  588TIP3   OH223322   1.945   2.649   2.609  0.1752  0.1508 -0.1551
  588TIP3    H123323   2.009   2.716   2.633  0.2199 -0.0344  0.2453
  588TIP3    H223324   1.945   2.588   2.683  0.4648 -0.5376 -0.7022
  589TIP3   OH223325   0.351   6.078   0.971 -0.3373  0.2303  0.1192
  589TIP3    H123326   0.404   6.148   0.930 -0.8495  0.8507  0.4969
  589TIP3    H223327   0.269   6.121   0.993 -2.3354 -1.4159 -3.3287
  590TIP3   OH223328   2.140   6.850   0.315 -0.4415 -0.0498 -0.3563
  590TIP3    H123329   2.105   6.771   0.356  0.2304 -0.0773  0.1602
  590TIP3    H223330   2.073   6.875   0.251 -0.7742 -0.8865 -0.3402
  591TIP3   OH223331   4.478   3.788   1.849 -0.2075  0.1670  0.1320
  591TIP3    H123332   4.538   3.861   1.833 -0.6397  0.5145  0.0778
  591TIP3    H223333   4.535   3.715   1.875  0.2166  0.5593  0.3124
  592TIP3   OH223334   1.840   3.892   1.688  0.1438  0.2038 -0.4460
  592TIP3    H123335   1.765   3.834   1.699  1.2990 -1.1544  0.4944
  592TIP3    H223336   1.858   3.891   1.594  0.9402 -2.0592 -0.3286
  593TIP3   OH223337   0.958   4.248   8.232 -0.4128  0.8744 -0.5503
  593TIP3    H123338   1.024   4.318   8.233  1.1453 -0.5394 -0.6253
  593TIP3    H223339   0.913   4.256   8.316  2.1271 -0.1760  0.9847
  594TIP3   OH223340   3.865   5.185   8.250  0.6645  0.3461 -0.3562
  594TIP3    H123341   3.937   5.130   8.218  2.1055  1.8895  0.1539
  594TIP3    H223342   3.898   5.274   8.246 -0.6883  0.9829  1.2983
  595TIP3   OH223343   0.391   1.972   7.886 -0.0149 -0.3174 -0.2510
  595TIP3    H123344   0.407   1.949   7.795  1.0579 -1.2178  0.1452
  595TIP3    H223345   0.448   2.047   7.903 -0.7562  0.3115 -0.5164
  596TIP3   OH223346   6.424   4.145   1.916 -0.5071 -0.1414 -0.4555
  596TIP3    H123347   6.367   4.188   1.853 -0.2468  3.2390  1.4248
  596TIP3    H223348   6.506   4.131   1.869 -1.1212 -0.0250 -1.5856
  597TIP3   OH223349   0.395   5.975   1.566 -0.3687 -0.5340  0.0152
  597TIP3    H123350   0.307   6.001   1.593  0.4180  2.4490  0.0314
  597TIP3    H223351   0.398   5.994   1.472  0.6676  0.8233  0.2938
  598TIP3   OH223352   5.153   2.345   1.290  0.1024  0.0857 -0.3021
  598TIP3    H123353   5.192   2.395   1.218  1.3321 -1.9110 -1.1161
  598TIP3    H223354   5.136   2.410   1.358  2.3569  1.5033 -0.9856
  599TIP3   OH223355   6.778   4.568   2.249 -0.0291 -0.7630  0.8146
  599TIP3    H123356   6.781   4.659   2.280 -2.1232 -0.4360  0.2669
  599TIP3    H223357   6.720   4.523   2.310 -0.6434 -1.1983 -0.0536
  600TIP3   OH223358   3.313   1.343   0.510  0.3066 -0.1596 -0.3074
  600TIP3    H123359   3.273   1.298   0.585 -0.5618  0.5935 -0.2951
  600TIP3    H223360   3.264   1.312   0.434  1.1119 -0.8340 -0.5710
  601TIP3   OH223361   5.206   3.417   1.584 -0.7719 -0.0441 -0.1507
  601TIP3    H123362   5.257   3.497   1.595  0.8119 -0.8754 -1.1240
  601TIP3    H223363   5.160   3.429   1.501 -1.7054  0.4418  0.4198
  602TIP3   OH223364   6.967   1.534   1.928 -0.0491 -0.1690  0.1370
  602TIP3    H123365   6.965   1.628   1.910 -1.2710 -0.0996  0.5143
  602TIP3    H223366   6.908   1.496   1.863 -1.5912 -0.3392  1.5531
  603TIP3   OH223367   0.179   4.825   0.643  0.6161 -0.1171  0.4931
  603TIP3    H123368   0.261   4.776   0.633  0.6300  0.0607 -0.3325
  603TIP3    H223369   0.195   4.884   0.716  1.2517 -0.0315  0.2920
  604TIP3   OH223370   6.683   6.557   8.316  0.2813 -0.0005  0.2593
  604TIP3    H123371   6.605   6.519   8.274 -0.3329  0.6398  0.7907
  604TIP3    H223372   6.730   6.481   8.352  0.6586 -0.5236 -1.2919
  605TIP3   OH223373   0.733   2.585   1.610 -0.2179  0.3816  0.3780
  605TIP3    H123374   0.796   2.517   1.584  0.0475  0.6685  0.2643
  605TIP3    H223375   0.779   2.634   1.679 -1.0111 -0.5411  1.6231
  606TIP3   OH223376   4.786   4.933   0.623  0.9336 -0.0875  0.4728
  606TIP3    H123377   4.711   4.968   0.671  1.2028  1.1784  0.0128
  606TIP3    H223378   4.858   4.993   0.643  0.8513  1.0094 -2.1583
  607TIP3   OH223379   5.776   3.632   7.378  0.6333 -0.0962 -0.2687
  607TIP3    H123380   5.713   3.568   7.411  0.1014  0.6949  0.2841
  607TIP3    H223381   5.723   3.707   7.353  1.3650  0.6396  0.3282
  608TIP3   OH223382   5.619   6.495   1.994 -0.0511  0.0857  0.0433
  608TIP3    H123383   5.697   6.450   1.962 -0.0057 -0.2337  0.5932
  608TIP3    H223384   5.547   6.459   1.941  0.4531  2.3372 -2.4210
  609TIP3   OH223385   6.061   0.683   8.277  0.1561 -0.2085  0.0347
  609TIP3    H123386   6.083   0.750   8.341  1.1630  1.5509 -2.0050
  609TIP3    H223387   5.967   0.693   8.263  0.4766  1.6701 -1.0881
  610TIP3   OH223388   5.737   3.422   3.224 -0.2912 -0.4270  0.2225
  610TIP3    H123389   5.829   3.406   3.203 -0.2977  0.4327 -0.5166
  610TIP3    H223390   5.734   3.514   3.247 -0.7374 -0.7783  1.6394
  611TIP3   OH223391   4.893   0.111   0.785  0.7399  0.1817  0.3957
  611TIP3    H123392   4.802   0.103   0.758  0.3160 -0.2893  1.8512
  611TIP3    H223393   4.943   0.103   0.704 -0.5284  1.2271 -0.5419
  612TIP3   OH223394   4.993   6.588   3.003 -0.8023 -0.5618  0.4504
  612TIP3    H123395   4.945   6.665   3.033  0.8098  0.2000  1.2197
  612TIP3    H223396   5.035   6.553   3.082  0.0183 -1.0972 -0.1990
  613TIP3   OH223397   2.857   5.534   1.915 -0.2066 -0.1045 -0.2758
  613TIP3    H123398   2.774   5.530   1.963 -0.7008 -0.7340 -1.1571
  613TIP3    H223399   2.837   5.494   1.830  1.1883 -0.9769 -0.2166
  614TIP3   OH223400   4.874   5.170   7.700 -0.5804 -0.8084  0.3340
  614TIP3    H123401   4.961   5.192   7.668  0.0234 -0.9527  1.7886
  614TIP3    H223402   4.834   5.119   7.629 -0.1856  0.7783 -1.0816
  615TIP3   OH223403   5.976   4.158   8.351  0.7601 -0.3517  0.0333
  615TIP3    H123404   6.065   4.188   8.368  0.4218  0.9735 -0.4132
  615TIP3    H223405   5.934   4.231   8.304 -1.2885  0.0813  2.3119
  616TIP3   OH223406   2.720   5.237   2.690 -0.2835 -0.6383 -0.5582
  616TIP3    H123407   2.744   5.145   2.705  1.8047 -0.3047 -1.5102
  616TIP3    H223408   2.801   5.278   2.662 -1.3717  1.3463 -0.9424
  617TIP3   OH223409   0.860   3.012   7.520  0.2094 -0.6440  0.5504
  617TIP3    H123410   0.825   2.949   7.457  0.5295 -2.1513  1.8362
  617TIP3    H223411   0.782   3.053   7.558  0.0052 -0.0634 -0.4511
  618TIP3   OH223412   3.532   1.866   3.074 -0.7427  0.2044  0.0330
  618TIP3    H123413   3.596   1.853   3.145 -1.8211  1.9882  1.4323
  618TIP3    H223414   3.574   1.929   3.016  0.6654 -2.1785 -1.7206
  619TIP3   OH223415   5.169   1.897   1.126 -0.0365 -0.4781 -0.2872
  619TIP3    H123416   5.143   1.984   1.096  1.5001 -0.1664 -0.8040
  619TIP3    H223417   5.106   1.838   1.085 -3.4207  0.5326  2.9111
  620TIP3   OH223418   0.175   4.704   7.946 -0.1190  0.7560  0.0604
  620TIP3    H123419   0.252   4.648   7.948 -0.6999 -0.2300 -2.4011
  620TIP3    H223420   0.194   4.769   7.878 -1.5309  0.3567 -0.7453
  621TIP3   OH223421   2.007   5.812   1.515  0.1560  0.1559  0.3228
  621TIP3    H123422   2.012   5.903   1.487  2.2120 -0.3909 -1.3503
  621TIP3    H223423   2.063   5.807   1.592  0.1610  0.2677  0.3262
  622TIP3   OH223424   1.723   1.985   1.625  0.0543 -0.3339  0.2837
  622TIP3    H123425   1.726   2.032   1.542  2.0502  0.3834  0.7044
  622TIP3    H223426   1.630   1.969   1.640 -0.5369  1.5880 -0.9277
  623TIP3   OH223427   4.565   4.903   7.630  0.0981 -0.1179  0.4077
  623TIP3    H123428   4.529   4.976   7.680 -0.7234 -0.9155  1.0252
  623TIP3    H223429   4.522   4.909   7.544  1.5999  1.3228 -0.2980
  624TIP3   OH223430   3.463   2.658   3.047 -0.3519 -0.1145 -0.3053
  624TIP3    H123431   3.544   2.608   3.052 -0.2851 -0.2223 -1.8647
  624TIP3    H223432   3.441   2.658   2.954  0.1121  3.4907 -0.5454
  625TIP3   OH223433   5.669   2.634   0.916 -0.2004  0.4390 -0.3988
  625TIP3    H123434   5.577   2.633   0.890 -0.6416  0.8690  1.0564
  625TIP3    H223435   5.682   2.720   0.956  1.0746  0.7214 -1.3515
  626TIP3   OH223436   4.550   1.338   1.584  0.2464  0.5568 -0.4032
  626TIP3    H123437   4.478   1.302   1.636  0.8460 -0.4088 -0.2064
  626TIP3    H223438   4.577   1.417   1.631  0.1767  0.1980  0.2425
  627TIP3   OH223439   6.048   0.870   7.730  0.1364  0.3326 -0.0026
  627TIP3    H123440   6.065   0.779   7.753  1.5103  0.2095 -1.3384
  627TIP3    H223441   6.083   0.920   7.804 -0.8218 -0.1971  0.8377
  628TIP3   OH223442   3.493   6.150   2.658 -0.2145 -0.0366 -0.2125
  628TIP3    H123443   3.573   6.165   2.708  0.7617 -0.1547 -1.6810
  628TIP3    H223444   3.460   6.238   2.639 -0.2686  0.0182  0.1290
  629TIP3   OH223445   0.181   6.243   1.457 -0.5388  0.2182  0.6309
  629TIP3    H123446   0.088   6.239   1.480 -0.7327  0.4219 -0.0910
  629TIP3    H223447   0.217   6.312   1.512 -1.0592  0.9161  0.1160
  630TIP3   OH223448   1.374   0.065   0.408  0.1848 -0.1058  0.0324
  630TIP3    H123449   1.303   0.055   0.344 -0.4400 -1.6583  0.9188
  630TIP3    H223450   1.331   0.097   0.487  0.8774  1.3259 -0.1470
  631TIP3   OH223451   5.183   2.716   1.288  0.0303  0.1817 -0.2135
  631TIP3    H123452   5.238   2.774   1.237  0.2746 -1.9621 -2.6110
  631TIP3    H223453   5.093   2.738   1.262  0.1479 -0.8130 -1.5587
  632TIP3   OH223454   6.510   0.435   8.203 -1.0860 -0.6585  0.0396
  632TIP3    H123455   6.477   0.367   8.261 -2.1012  0.3228  0.6569
  632TIP3    H223456   6.443   0.503   8.206  1.0942  1.5960  1.6073
  633TIP3   OH223457   2.158   0.110   7.790  0.0011  0.1144 -0.2397
  633TIP3    H123458   2.192   0.149   7.871 -0.7771 -1.2279  0.7762
  633TIP3    H223459   2.233   0.108   7.731  0.5261  1.3450  0.3375
  634TIP3   OH223460   5.767   5.396   0.675  0.2091  0.0772 -0.1368
  634TIP3    H123461   5.856   5.403   0.710  0.7286  1.2878 -1.5779
  634TIP3    H223462   5.779   5.381   0.582 -1.1271 -0.9564 -0.1737
  635TIP3   OH223463   0.835   3.292   2.452  0.2090  0.6316  0.0159
  635TIP3    H123464   0.830   3.326   2.363  0.5825  0.4032 -0.0937
  635TIP3    H223465   0.886   3.211   2.444  0.6936  0.8820  0.5126
  636TIP3   OH223466   1.407   3.411   1.043  0.2878  0.0838 -0.0504
  636TIP3    H123467   1.387   3.499   1.010 -0.3306 -0.4034 -1.0159
  636TIP3    H223468   1.361   3.352   0.983  1.9448 -0.9629 -0.3535
  637TIP3   OH223469   4.623   4.645   2.732  0.1272 -0.3581  0.0446
  637TIP3    H123470   4.613   4.602   2.817  1.3073 -1.6064 -0.4108
  637TIP3    H223471   4.713   4.626   2.706 -0.0806  0.3763 -1.2831
  638TIP3   OH223472   3.237   0.176   7.786  0.4524  0.0875 -0.7122
  638TIP3    H123473   3.194   0.101   7.743 -0.2709 -0.5555  1.0171
  638TIP3    H223474   3.330   0.156   7.781  0.2436 -1.3025  0.2998
  639TIP3   OH223475   6.571   5.465   7.722  0.6946 -0.6587 -0.4215
  639TIP3    H123476   6.518   5.389   7.749  0.1425 -0.1916 -0.1753
  639TIP3    H223477   6.529   5.540   7.764  2.6753 -0.4807  1.4347
  640TIP3   OH223478   6.127   2.333   2.662  0.0705  0.4312 -0.3581
  640TIP3    H123479   6.192   2.287   2.609  1.2041  0.9106  0.5441
  640TIP3    H223480   6.048   2.280   2.657  0.5472 -0.1905 -1.4697
  641TIP3   OH223481   0.644   0.842   1.686 -0.6052  0.0329  0.2010
  641TIP3    H123482   0.716   0.805   1.635 -1.1682  0.5905 -1.0281
  641TIP3    H223483   0.565   0.802   1.650 -1.1092  1.3209 -0.1911
  642TIP3   OH223484   5.948   0.437   1.438  0.0063  0.4014 -0.3389
  642TIP3    H123485   5.971   0.350   1.407 -1.9340 -0.9148  1.5857
  642TIP3    H223486   5.890   0.472   1.371  3.0243  1.5522 -2.5700
  643TIP3   OH223487   0.937   4.793   7.802 -0.4512 -0.0069 -0.0895
  643TIP3    H123488   0.939   4.718   7.743 -0.0014 -1.7558  2.0473
  643TIP3    H223489   1.001   4.854   7.765  0.9843 -1.7227 -0.5504
  644TIP3   OH223490   6.599   1.881   0.647  0.1800  0.0724 -0.9781
  644TIP3    H123491   6.623   1.836   0.728 -2.3663  0.4605  0.0701
  644TIP3    H223492   6.525   1.830   0.612 -0.4140  1.3600 -1.6748
  645TIP3   OH223493   6.354   4.629   2.948  0.4057  0.2523 -0.4035
  645TIP3    H123494   6.407   4.708   2.957 -0.6584  0.8440  1.2393
  645TIP3    H223495   6.417   4.557   2.945  1.3444  0.9039  1.7513
  646TIP3   OH223496   3.482   3.675   8.082  0.1969 -0.5306 -0.1286
  646TIP3    H123497   3.413   3.612   8.062  1.0492 -1.3368 -0.6557
  646TIP3    H223498   3.562   3.634   8.048  1.1728 -0.3072  1.7682
  647TIP3   OH223499   5.939   3.966   0.984  0.0365  0.2328 -0.0695
  647TIP3    H123500   5.850   3.998   0.995 -0.9733 -1.5233 -2.2634
  647TIP3    H223501   5.941   3.885   1.035 -0.8727 -1.6086 -2.7245
  648TIP3   OH223502   2.397   6.196   1.014  0.3351  0.0556  0.4433
  648TIP3    H123503   2.431   6.272   1.061  2.1375 -1.1139  1.1330
  648TIP3    H223504   2.392   6.127   1.080  1.4707 -1.2073 -0.7328
  649TIP3   OH223505   1.028   1.322   7.105 -0.0759 -0.7231  0.5328
  649TIP3    H123506   1.043   1.246   7.049 -1.9353 -0.1354 -0.8845
  649TIP3    H223507   0.944   1.357   7.076  0.9297  2.1912  0.7425
  650TIP3   OH223508   6.310   1.686   2.810 -0.1882  0.3353  0.0487
  650TIP3    H123509   6.318   1.728   2.725  1.0664  0.4610  0.2072
  650TIP3    H223510   6.302   1.593   2.791 -0.2270  0.3955 -0.2247
  651TIP3   OH223511   3.508   6.747   7.695 -0.0481 -0.0150 -0.3897
  651TIP3    H123512   3.437   6.734   7.758  0.3217 -0.2645 -0.0195
  651TIP3    H223513   3.582   6.776   7.749  0.6162 -1.3683 -0.5482
  652TIP3   OH223514   5.419   4.678   0.861 -0.0298 -0.5841  0.0812
  652TIP3    H123515   5.498   4.653   0.812 -0.8021  0.4313 -1.7764
  652TIP3    H223516   5.360   4.713   0.795 -0.5145  2.4619  1.9570
  653TIP3   OH223517   6.076   2.005   1.859  0.2944 -0.0317  0.0182
  653TIP3    H123518   6.035   1.975   1.778  0.2855  0.1589 -0.0482
  653TIP3    H223519   6.027   2.083   1.884 -0.0032 -0.3562  0.4625
  654TIP3   OH223520   5.929   0.074   1.969 -0.4865  0.0142  0.2688
  654TIP3    H123521   5.964   0.074   2.058  1.2648 -0.7047 -0.3943
  654TIP3    H223522   5.899  -0.016   1.955 -2.5570  0.5628  0.7541
  655TIP3   OH223523   2.987   5.227   1.125  0.0699  0.5183  1.0058
  655TIP3    H123524   2.989   5.322   1.137  2.5583  0.4816  1.5156
  655TIP3    H223525   2.930   5.213   1.050 -1.6440  2.2627  1.8927
  656TIP3   OH223526   6.008   6.936   8.124  0.2388 -0.3090  0.8040
  656TIP3    H123527   6.083   6.931   8.064 -1.9986 -0.0106 -2.3072
  656TIP3    H223528   6.038   6.993   8.195  2.7917  0.1879 -0.5302
  657TIP3   OH223529   3.860   0.897   1.749  0.0350  0.2196  0.3431
  657TIP3    H123530   3.875   0.988   1.776 -1.0001  0.4788  0.1043
  657TIP3    H223531   3.765   0.888   1.747  0.1207 -0.7801  0.0423
  658TIP3   OH223532   3.864   4.929   1.416  0.1349  0.1364 -0.3976
  658TIP3    H123533   3.808   4.871   1.469  0.0136  1.7923  1.4039
  658TIP3    H223534   3.804   4.996   1.382  0.4838 -0.0105 -1.3294
  659TIP3   OH223535   0.387   5.065   7.283 -0.2097 -0.2973 -0.0794
  659TIP3    H123536   0.424   5.139   7.331  1.0766  1.6007 -3.5727
  659TIP3    H223537   0.461   5.006   7.270  0.2268  0.5731 -1.9311
  660TIP3   OH223538   0.390   0.652   7.863  0.1569  0.6099  0.2151
  660TIP3    H123539   0.482   0.666   7.839  0.1419 -1.3377 -1.2742
  660TIP3    H223540   0.394   0.594   7.939  0.2720 -2.1294 -1.7232
  661TIP3   OH223541   0.297   5.381   2.257 -0.1283  0.1512  0.3417
  661TIP3    H123542   0.202   5.393   2.260 -0.1667 -0.0482 -0.0543
  661TIP3    H223543   0.332   5.470   2.260 -0.3107  0.2091  0.9291
  662TIP3   OH223544   5.829   6.852   3.770  0.0347  0.2307  0.5483
  662TIP3    H123545   5.891   6.903   3.718 -1.1782  0.9303 -0.2640
  662TIP3    H223546   5.743   6.888   3.747 -0.7371 -1.1617  1.1127
  663TIP3   OH223547   1.767   6.279   0.162 -0.2057 -0.3772 -0.3782
  663TIP3    H123548   1.703   6.244   0.225 -1.4014  0.0355 -1.3134
  663TIP3    H223549   1.713   6.326   0.098  1.1658  1.4664 -0.2638
  664TIP3   OH223550   6.028   4.616   7.619  0.0608 -0.1313  0.2145
  664TIP3    H123551   5.945   4.656   7.646 -0.4101 -0.9940  0.0810
  664TIP3    H223552   6.074   4.599   7.701  0.0645  0.2420  0.2945
  665TIP3   OH223553   5.477   2.370   1.452  0.4002 -0.6828 -0.8871
  665TIP3    H123554   5.553   2.427   1.442 -0.2862  0.6284  0.9428
  665TIP3    H223555   5.404   2.418   1.413 -0.2210 -0.1627  0.8317
  666TIP3   OH223556   4.212   4.661   0.588  0.1674 -0.2703 -0.1061
  666TIP3    H123557   4.180   4.599   0.523 -2.8885 -0.0373  0.9985
  666TIP3    H223558   4.239   4.737   0.537  2.3691 -1.7913 -1.3537
  667TIP3   OH223559   6.391   0.432   2.157  0.1999  0.5121 -0.4027
  667TIP3    H123560   6.335   0.371   2.109 -1.2901  1.1062  0.4964
  667TIP3    H223561   6.438   0.376   2.219 -0.0348  0.0879 -0.5998
  668TIP3   OH223562   3.523   6.949   0.827  0.0692  0.7760  0.4287
  668TIP3    H123563   3.438   6.917   0.858 -0.4297  0.5620 -1.1129
  668TIP3    H223564   3.573   6.963   0.908 -0.6899 -1.0891  1.2754
  669TIP3   OH223565   2.385   0.972   0.631  0.2213 -0.0875  0.2886
  669TIP3    H123566   2.447   0.998   0.699  0.3574  0.3208  0.0121
  669TIP3    H223567   2.421   0.890   0.596  0.1219 -0.3295  0.7379
  670TIP3   OH223568   2.902   4.409   8.352  0.3305 -0.6284  0.6985
  670TIP3    H123569   2.990   4.431   8.324  0.0946  1.5359  1.4500
  670TIP3    H223570   2.902   4.424   8.446 -0.5995 -1.5569  0.8736
  671TIP3   OH223571   5.136   6.491   1.805  0.1209  0.7123  0.8291
  671TIP3    H123572   5.088   6.453   1.732  1.4283 -0.0177  0.3132
  671TIP3    H223573   5.078   6.558   1.840 -0.6887  0.8068 -0.6249
  672TIP3   OH223574   3.897   0.902   0.676 -0.1670  0.2951  0.2822
  672TIP3    H123575   3.881   0.843   0.749 -0.7435 -0.1038 -0.1557
  672TIP3    H223576   3.971   0.863   0.629 -0.6255 -0.1598 -0.0770
  673TIP3   OH223577   1.654   4.928   2.005  0.1633  0.1299 -0.3621
  673TIP3    H123578   1.593   4.999   1.985  0.2024  0.2619 -0.0114
  673TIP3    H223579   1.603   4.848   1.996  0.7187 -0.0048 -3.3286
  674TIP3   OH223580   1.595   5.636   2.104  0.2515 -0.9864 -0.8362
  674TIP3    H123581   1.574   5.653   2.196  0.3158  1.6860 -1.2340
  674TIP3    H223582   1.602   5.723   2.065  3.9431 -1.8676 -2.5605
  675TIP3   OH223583   5.127   6.800   1.941  0.2036  0.3623 -0.4095
  675TIP3    H123584   5.219   6.779   1.961 -0.1135  0.9439  1.9895
  675TIP3    H223585   5.130   6.837   1.853  2.2011 -0.0523 -0.5810
  676TIP3   OH223586   3.987   1.379   0.158 -0.2318 -0.5345  0.7462
  676TIP3    H123587   3.929   1.404   0.230 -0.6963 -0.6945  0.4326
  676TIP3    H223588   4.072   1.414   0.183 -0.6837  0.6767  0.7075
  677TIP3   OH223589   6.494   5.551   1.827  0.1450  0.4702  0.4992
  677TIP3    H123590   6.464   5.637   1.799 -1.1422  0.0144  0.3964
  677TIP3    H223591   6.559   5.568   1.895  0.3160  1.5231  0.0795
  678TIP3   OH223592   4.504   4.109   7.904  0.7237 -0.2394  0.3464
  678TIP3    H123593   4.433   4.163   7.870  1.1086  0.2428  0.3025
  678TIP3    H223594   4.461   4.049   7.965  0.3578  0.4657  0.8017
  679TIP3   OH223595   6.360   0.202   7.264  0.4788  0.0785  0.1984
  679TIP3    H123596   6.290   0.144   7.235 -1.0060  2.2404 -0.7517
  679TIP3    H223597   6.392   0.161   7.345 -1.5994 -1.1733  0.4632
  680TIP3   OH223598   4.537   5.141   8.398 -0.2404 -0.2989  0.3121
  680TIP3    H123599   4.525   5.175   8.309  0.1208  0.5699  0.5862
  680TIP3    H223600   4.448   5.117   8.427 -0.0475 -3.9370 -1.5310
  681TIP3   OH223601   3.227   2.281   2.162  0.5148  0.1786  0.1290
  681TIP3    H123602   3.308   2.329   2.183  0.1584  0.2118  1.5493
  681TIP3    H223603   3.248   2.234   2.082  1.0571  2.2575 -1.0402
  682TIP3   OH223604   1.603   3.017   1.997  0.5683 -0.0514 -0.3032
  682TIP3    H123605   1.685   2.975   2.023  1.0212  1.0798  0.1364
  682TIP3    H223606   1.574   2.968   1.920  1.5690 -0.5538 -0.3718
  683TIP3   OH223607   1.477   3.340   0.579  0.3637 -0.7594 -0.2446
  683TIP3    H123608   1.481   3.376   0.668 -0.7181 -2.5704  0.5977
  683TIP3    H223609   1.556   3.285   0.572  0.4329 -0.6410 -0.3926
  684TIP3   OH223610   5.076   6.863   8.352  0.0592 -0.0112 -0.6892
  684TIP3    H123611   5.168   6.843   8.369 -0.3818 -2.4239 -0.7773
  684TIP3    H223612   5.054   6.809   8.275 -1.1718  1.3121 -1.3105
  685TIP3   OH223613   6.916   4.994   7.635 -0.5493 -0.3274  0.2679
  685TIP3    H123614   6.832   5.032   7.610 -0.2103  1.2105  1.3592
  685TIP3    H223615   6.961   4.979   7.551 -1.6340 -0.5650 -0.2899
  686TIP3   OH223616   5.056   2.759   1.620 -0.2717 -0.1614  0.3241
  686TIP3    H123617   4.977   2.706   1.608 -0.6608  0.3926  0.4218
  686TIP3    H223618   5.045   2.832   1.559  0.1203 -0.0327  0.4096
  687TIP3   OH223619   6.044   5.720   7.926  0.2782  0.7031 -0.2323
  687TIP3    H123620   5.952   5.716   7.949  0.1165 -0.6602 -0.9961
  687TIP3    H223621   6.049   5.676   7.841  1.6561  0.5549 -0.0981
  688TIP3   OH223622   4.183   2.620   7.455  0.1212  0.8209 -0.2110
  688TIP3    H123623   4.112   2.675   7.421 -1.0821 -1.2209 -1.2016
  688TIP3    H223624   4.257   2.637   7.396  0.4533  2.7884  0.6894
  689TIP3   OH223625   6.553   0.228   7.063  0.1029 -0.3899 -0.3254
  689TIP3    H123626   6.549   0.136   7.037 -0.3671 -0.4062 -0.2022
  689TIP3    H223627   6.483   0.238   7.127  2.8866 -1.0147  3.0848
  690TIP3   OH223628   4.707   1.476   8.306  0.1869 -0.0125 -0.3461
  690TIP3    H123629   4.623   1.518   8.323  0.8651  0.9508  0.7562
  690TIP3    H223630   4.725   1.497   8.214 -0.9157 -0.5390 -0.7095
  691TIP3   OH223631   3.360   5.247   7.476 -0.7061  0.0592  0.3243
  691TIP3    H123632   3.453   5.267   7.482 -0.9399  1.4183 -0.1434
  691TIP3    H223633   3.355   5.177   7.411 -0.0561  0.4275 -0.1334
  692TIP3   OH223634   6.978   4.090   7.614 -0.4090 -0.1901  0.5273
  692TIP3    H123635   7.015   4.016   7.566  2.8879  1.3122  0.4579
  692TIP3    H223636   6.900   4.114   7.565  0.9127 -0.8691 -2.1278
  693TIP3   OH223637   1.305   0.029   1.703  0.0210  0.2128  0.3908
  693TIP3    H123638   1.214   0.035   1.734 -1.3920  1.4479 -3.4842
  693TIP3    H223639   1.350   0.101   1.748 -0.3256 -1.3737  3.6099
  694TIP3   OH223640   4.360   6.318   2.610 -0.5630 -0.1085 -0.8965
  694TIP3    H123641   4.337   6.397   2.562 -0.0003  1.2588  0.9494
  694TIP3    H223642   4.406   6.350   2.688 -1.4345 -2.1737  0.5639
  695TIP3   OH223643   5.030   6.168   8.267 -0.7817 -0.6739 -0.0243
  695TIP3    H123644   5.011   6.261   8.284  0.4859 -0.6059  1.1451
  695TIP3    H223645   4.969   6.145   8.196 -0.9081  1.1372 -0.5845
  696TIP3   OH223646   5.602   5.419   7.580  0.0888  0.3415 -0.3511
  696TIP3    H123647   5.696   5.402   7.579  0.1993  0.6813 -2.9972
  696TIP3    H223648   5.588   5.484   7.510 -2.1700 -0.2244 -0.5118
  697TIP3   OH223649   0.581   6.316   1.707  0.1329  0.3724  0.3135
  697TIP3    H123650   0.491   6.299   1.733  0.4673 -0.3774  1.0376
  697TIP3    H223651   0.580   6.312   1.611 -0.9523  2.2927  0.1886
  698TIP3   OH223652   0.895   3.468   2.794 -0.4567 -0.5716  0.4957
  698TIP3    H123653   0.916   3.388   2.745  0.6728 -0.3875  0.6526
  698TIP3    H223654   0.976   3.490   2.838 -1.4372 -0.6975  2.4433
  699TIP3   OH223655   6.140   2.802   8.294 -0.3090  0.0801  0.1689
  699TIP3    H123656   6.153   2.810   8.200  1.9716  0.9039  0.4784
  699TIP3    H223657   6.084   2.726   8.305  1.8604 -1.9552 -1.7432
  700TIP3   OH223658   4.155   5.879   0.011 -0.0994  0.1079  0.4557
  700TIP3    H123659   4.134   5.881  -0.082 -0.4846 -0.5832  0.5165
  700TIP3    H223660   4.072   5.902   0.055 -0.3412 -1.0822  0.6572
  701TIP3   OH223661   5.430   5.069   2.853 -0.4956  0.0259 -0.0679
  701TIP3    H123662   5.337   5.048   2.860 -0.4398  0.2452  1.7766
  701TIP3    H223663   5.438   5.157   2.890  0.4210  0.0526 -0.2931
  702TIP3   OH223664   6.001   0.204   1.269  0.2629  0.0053 -0.0786
  702TIP3    H123665   6.078   0.190   1.214  0.4108 -1.9926  0.5696
  702TIP3    H223666   5.927   0.201   1.208  0.5423 -0.4142 -0.4024
  703TIP3   OH223667   4.469   2.545   7.603 -0.2464 -0.2700 -0.4365
  703TIP3    H123668   4.400   2.490   7.565  0.3283 -0.6800 -0.9001
  703TIP3    H223669   4.549   2.517   7.559  0.7852 -2.1042  2.3295
  704TIP3   OH223670   2.665   5.696   8.084 -0.2670 -0.0017  0.1905
  704TIP3    H123671   2.644   5.789   8.090 -2.0592 -0.1986 -1.6560
  704TIP3    H223672   2.614   5.666   8.008  3.3764 -1.6265 -1.8430
  705TIP3   OH223673   0.239   4.356   1.962 -0.1343  0.2448 -0.3969
  705TIP3    H123674   0.236   4.264   1.936  1.5523 -0.1160  0.5453
  705TIP3    H223675   0.212   4.356   2.054  0.0216  0.6679 -0.3467
  706TIP3   OH223676   1.923   1.762   7.068 -0.1994  0.2776 -0.2656
  706TIP3    H123677   1.993   1.816   7.104 -0.5865  0.2528  0.5440
  706TIP3    H223678   1.911   1.692   7.131  0.1389 -0.6382 -1.2000
  707TIP3   OH223679   4.091   4.987   1.599  0.1513  0.0201  0.2148
  707TIP3    H123680   4.021   4.967   1.537  2.6067 -1.2547 -2.3788
  707TIP3    H223681   4.046   5.030   1.672 -2.9710  1.7530 -2.4262
  708TIP3   OH223682   3.478   2.993   0.812 -0.2375  0.0673 -0.8120
  708TIP3    H123683   3.534   3.054   0.763 -2.5311  2.3689 -0.7664
  708TIP3    H223684   3.437   2.939   0.744  0.4574 -0.2484 -0.9928
  709TIP3   OH223685   1.580   1.504   7.941  0.2806  0.2069  0.3012
  709TIP3    H123686   1.602   1.519   7.849 -0.0892  2.3217  0.5168
  709TIP3    H223687   1.484   1.508   7.944  0.3328  1.1507  0.9203
  710TIP3   OH223688   0.776   2.310   8.314  0.1207 -0.3962 -0.4331
  710TIP3    H123689   0.697   2.319   8.262  0.2264  2.4979 -0.2035
  710TIP3    H223690   0.847   2.333   8.255  0.5525 -0.2891  0.1182
  711TIP3   OH223691   5.244   5.422   0.592 -0.1256 -0.4918 -0.2425
  711TIP3    H123692   5.307   5.454   0.528 -1.3259  0.4323 -1.0097
  711TIP3    H223693   5.297   5.375   0.657  1.4050  0.8400 -0.4759
  712TIP3   OH223694   5.450   2.313   1.790 -0.2756 -0.0033  0.0908
  712TIP3    H123695   5.520   2.310   1.855  0.5893  0.3037 -0.8016
  712TIP3    H223696   5.462   2.396   1.744 -0.0653 -0.7721 -1.3064
  713TIP3   OH223697   2.911   5.117   1.924  0.5278  0.2460 -0.0308
  713TIP3    H123698   2.816   5.125   1.916  0.3399 -0.9634  0.6874
  713TIP3    H223699   2.925   5.104   2.018  1.5839  2.2300  0.1461
  714TIP3   OH223700   3.113   4.068   0.048 -0.6665 -0.1605 -0.5991
  714TIP3    H123701   3.120   3.974   0.066 -2.4879 -0.0911  0.8078
  714TIP3    H223702   3.033   4.095   0.094  0.4865  2.3419  0.1267
  715TIP3   OH223703   6.943   3.860   1.092 -0.0068  0.1353  0.0848
  715TIP3    H123704   6.906   3.774   1.109  0.2594  0.0061 -0.0010
  715TIP3    H223705   6.867   3.919   1.097 -0.5782 -0.3427 -1.8818
  716TIP3   OH223706   3.640   3.890   8.166 -0.0423 -0.5467  0.5548
  716TIP3    H123707   3.584   3.813   8.150 -0.4695  0.0103 -0.7723
  716TIP3    H223708   3.671   3.878   8.255 -1.6089 -1.3208  1.0436
  717TIP3   OH223709   5.825   6.047   3.015 -0.0306 -0.5352 -0.1994
  717TIP3    H123710   5.916   6.018   3.006 -0.7446 -2.2481 -3.2974
  717TIP3    H223711   5.773   5.967   3.008 -1.8883  0.7067 -1.7482
  718TIP3   OH223712   6.211   6.279   2.433 -0.1509  0.8496 -0.3666
  718TIP3    H123713   6.238   6.371   2.425 -1.4465  1.1938 -1.0034
  718TIP3    H223714   6.289   6.230   2.405  0.3580  1.7647 -0.6221
  719TIP3   OH223715   2.901   2.184   0.600 -0.1068 -1.0799 -0.2919
  719TIP3    H123716   2.872   2.256   0.544 -0.3530  0.4128  1.6507
  719TIP3    H223717   2.985   2.213   0.636 -0.7309 -1.2237  1.3794
  720TIP3   OH223718   2.376   3.943   1.938  0.7134 -0.7662  0.6007
  720TIP3    H123719   2.290   3.979   1.963  1.4327  0.3167  1.6291
  720TIP3    H223720   2.439   4.005   1.973  1.9157 -0.6555 -1.5725
  721TIP3   OH223721   0.738   5.128   2.042 -0.0687  0.2503  0.4998
  721TIP3    H123722   0.714   5.035   2.038  0.8703 -0.1796  2.9863
  721TIP3    H223723   0.655   5.172   2.060 -0.3680 -0.2210  0.3149
  722TIP3   OH223724   3.657   2.085   1.077 -0.3258  0.6101 -0.2604
  722TIP3    H123725   3.596   2.153   1.105 -0.1645  1.0068 -0.8709
  722TIP3    H223726   3.602   2.018   1.037 -0.6463 -0.2905  1.5412
  723TIP3   OH223727   1.185   6.115   7.733  0.3420 -0.0975 -0.1013
  723TIP3    H123728   1.252   6.139   7.798  0.6648 -1.4784  0.1178
  723TIP3    H223729   1.195   6.180   7.663  0.8383  0.6611  0.6484
  724TIP3   OH223730   4.148   3.637   0.786  0.4283  0.0814  0.2257
  724TIP3    H123731   4.100   3.587   0.852  1.1561 -0.3339  0.4513
  724TIP3    H223732   4.215   3.683   0.836  0.5452  0.3108 -0.1442
  725TIP3   OH223733   1.793   4.476   1.275  0.0710  0.1663 -0.0101
  725TIP3    H123734   1.821   4.560   1.312 -0.7947  0.1101  0.7969
  725TIP3    H223735   1.698   4.477   1.282  0.1183 -1.7636  1.9625
  726TIP3   OH223736   2.784   6.703   0.681  0.2928 -0.5824  0.1503
  726TIP3    H123737   2.719   6.647   0.639  1.0472 -2.5866  1.5379
  726TIP3    H223738   2.751   6.716   0.770 -0.7495  2.7309 -0.5854
  727TIP3   OH223739   0.855   4.329   1.652 -0.7421 -0.1054  0.4511
  727TIP3    H123740   0.782   4.310   1.594 -2.5695 -0.4616  2.7101
  727TIP3    H223741   0.903   4.247   1.659 -0.9555 -0.2637  0.0760
  728TIP3   OH223742   5.344   2.010   0.777  0.4147  0.0101 -0.1339
  728TIP3    H123743   5.270   2.005   0.716  0.0532  0.3258  0.2663
  728TIP3    H223744   5.421   2.018   0.721  0.2777 -1.5244 -0.5965
  729TIP3   OH223745   3.262   3.160   2.651  0.3787  0.0330 -0.2061
  729TIP3    H123746   3.336   3.142   2.593  2.4484 -0.7450  2.4384
  729TIP3    H223747   3.249   3.255   2.645 -0.7887 -0.2197 -3.2457
  730TIP3   OH223748   1.281   4.191   7.185 -0.0785 -0.6382 -0.3079
  730TIP3    H123749   1.211   4.248   7.153  1.0075  0.3415 -1.0222
  730TIP3    H223750   1.330   4.244   7.248  0.4724 -1.0344 -0.3885
  731TIP3   OH223751   6.245   3.263   1.127  0.5962 -0.5718  0.0314
  731TIP3    H123752   6.332   3.253   1.089 -0.3679 -1.3889 -2.0941
  731TIP3    H223753   6.201   3.326   1.069 -0.9226 -1.8438 -0.2498
  732TIP3   OH223754   4.943   0.113   1.646 -0.5005 -0.1217  0.2722
  732TIP3    H123755   4.883   0.158   1.586 -0.3837 -0.5302 -0.1494
  732TIP3    H223756   5.001   0.063   1.590  1.3499  1.5604  0.5485
  733TIP3   OH223757   2.720   6.966   0.888  0.2399 -0.0931 -0.0470
  733TIP3    H123758   2.649   7.029   0.886 -0.8447 -1.2856 -0.3477
  733TIP3    H223759   2.768   6.981   0.807 -0.0493  0.2999 -0.1465
  734TIP3   OH223760   2.934   5.951   0.271 -0.7589 -0.1743 -0.0725
  734TIP3    H123761   3.014   5.954   0.324  0.3510 -0.0912 -1.6803
  734TIP3    H223762   2.874   5.896   0.322  0.0985  0.2145  1.4316
  735TIP3   OH223763   4.587   4.410   0.528 -0.0967 -0.0218  0.4084
  735TIP3    H123764   4.645   4.335   0.523  1.2693  1.0442 -0.3560
  735TIP3    H223765   4.550   4.418   0.440 -0.8507 -0.2448  0.6917
  736TIP3   OH223766   5.836   0.220   2.368  0.2972 -0.3466 -0.2459
  736TIP3    H123767   5.870   0.211   2.457  0.2933 -1.6594 -0.3532
  736TIP3    H223768   5.862   0.139   2.324  0.2937  0.2801 -1.4436
  737TIP3   OH223769   5.694   2.161   1.585 -0.0088 -1.1293 -0.2864
  737TIP3    H123770   5.699   2.243   1.634  1.2438  0.2562 -2.5259
  737TIP3    H223771   5.755   2.103   1.629 -1.1917 -1.0660  1.5666
  738TIP3   OH223772   6.222   0.437   7.065 -0.1199  0.1317  0.4772
  738TIP3    H123773   6.253   0.365   7.121  0.4449  2.2315  3.0695
  738TIP3    H223774   6.129   0.443   7.083 -0.2558 -0.2043 -0.0863
  739TIP3   OH223775   3.856   4.883   1.017 -0.6659  0.3096  0.3684
  739TIP3    H123776   3.917   4.948   1.051 -1.5952  1.0125  0.7231
  739TIP3    H223777   3.841   4.909   0.926  1.4646 -1.3097 -0.5459
  740TIP3   OH223778   2.165   3.289   1.075  0.2274  0.3792  0.0865
  740TIP3    H123779   2.237   3.332   1.029  0.3470  0.6947  0.5529
  740TIP3    H223780   2.163   3.332   1.161 -1.9348  1.9372 -0.6568
  741TIP3   OH223781   2.033   5.863   0.825 -0.3797 -0.1116 -0.6047
  741TIP3    H123782   2.025   5.959   0.825  0.1643 -0.0481 -1.6266
  741TIP3    H223783   2.067   5.841   0.911 -2.7409  0.3852  0.5494
  742TIP3   OH223784   6.979   4.552   1.092 -0.0551 -0.3441 -0.2439
  742TIP3    H123785   6.912   4.525   1.029 -0.0461  0.3976 -0.5802
  742TIP3    H223786   6.931   4.567   1.174  0.0302 -1.9905  0.1459
  743TIP3   OH223787   4.644   2.877   0.536 -0.5225 -0.2928  0.3821
  743TIP3    H123788   4.555   2.875   0.569 -0.4282 -2.0517  0.6126
  743TIP3    H223789   4.637   2.920   0.451 -1.4404  0.3371  0.7611
  744TIP3   OH223790   1.091   1.918   1.304 -0.3137 -1.0243 -0.6869
  744TIP3    H123791   1.013   1.969   1.284  3.0850  4.9009 -1.0532
  744TIP3    H223792   1.080   1.893   1.396 -3.9283 -3.7038 -1.6204
  745TIP3   OH223793   3.725   0.280   0.619  0.1235 -0.2612  0.6023
  745TIP3    H123794   3.709   0.187   0.605 -0.7861 -0.1294  0.7309
  745TIP3    H223795   3.814   0.294   0.585  0.0248 -1.0426 -0.0166
  746TIP3   OH223796   0.272   4.946   1.728 -0.0716 -0.6258 -0.3269
  746TIP3    H123797   0.265   5.032   1.769 -1.2792 -1.6975  1.8975
  746TIP3    H223798   0.298   4.964   1.638  0.2003  2.0163  0.2126
  747TIP3   OH223799   6.902   0.621   2.089 -0.0036 -0.0922 -0.0034
  747TIP3    H123800   6.969   0.556   2.071  1.0995  0.8093  0.6612
  747TIP3    H223801   6.905   0.633   2.184 -1.6741 -0.6058  0.1407
  748TIP3   OH223802   2.688   6.675   7.633 -0.3175 -0.0538  0.0316
  748TIP3    H123803   2.784   6.673   7.627 -0.2124  1.1322  0.9712
  748TIP3    H223804   2.665   6.764   7.606 -1.2594 -0.6454 -1.2079
  749TIP3   OH223805   1.396   6.464   7.676  0.0068 -0.9473 -0.5540
  749TIP3    H123806   1.323   6.503   7.723 -1.3732 -4.6703  0.7433
  749TIP3    H223807   1.470   6.470   7.737  0.7675  2.2395 -1.6172
  750TIP3   OH223808   4.949   5.025   0.086 -0.2961  0.0420 -0.1044
  750TIP3    H123809   4.922   4.977   0.007  1.0293 -1.3311  0.2348
  750TIP3    H223810   5.045   5.020   0.085 -0.0824  2.6787 -0.0060
  751TIP3   OH223811   5.769   5.685   1.591  0.0260 -0.0903  0.0042
  751TIP3    H123812   5.696   5.742   1.611  1.3402  1.3950  0.8315
  751TIP3    H223813   5.774   5.624   1.665  0.3105  0.5713  0.5471
  752TIP3   OH223814   0.443   1.958   3.138  0.5157  0.5723  0.2443
  752TIP3    H123815   0.535   1.935   3.132  0.6487  1.0223  0.5076
  752TIP3    H223816   0.398   1.874   3.148  0.7740  0.2481 -1.0961
  753TIP3   OH223817   2.474   2.420   8.354  0.0720  0.4716  0.5897
  753TIP3    H123818   2.450   2.472   8.277 -0.8709  0.1723  0.6677
  753TIP3    H223819   2.391   2.394   8.392  0.4573 -2.2496 -0.2214
  754TIP3   OH223820   1.645   1.739   1.896 -0.1545  0.1634 -0.0426
  754TIP3    H123821   1.560   1.705   1.868 -0.9403 -0.4622  2.8172
  754TIP3    H223822   1.708   1.676   1.861 -0.9588 -0.0942 -1.0963
  755TIP3   OH223823   5.259   2.295   2.709 -0.0401  0.1646 -0.3673
  755TIP3    H123824   5.266   2.386   2.737  2.5420  0.2973 -1.2428
  755TIP3    H223825   5.170   2.288   2.674 -0.5627  2.1131  0.4369
  756TIP3   OH223826   6.308   4.533   0.895  0.0745 -0.2543  0.0217
  756TIP3    H123827   6.258   4.550   0.975 -1.0380  1.4610 -0.9774
  756TIP3    H223828   6.252   4.564   0.824  1.1698 -1.4241 -1.4307
  757TIP3   OH223829   4.039   0.965   7.451  0.4704 -0.1897  0.6120
  757TIP3    H123830   4.021   1.058   7.433  0.7565 -0.0741  0.9198
  757TIP3    H223831   4.124   0.949   7.410  0.3048 -0.3868  0.3380
  758TIP3   OH223832   5.807   2.506   1.202 -0.1847  0.5388 -0.1875
  758TIP3    H123833   5.759   2.549   1.130 -0.7219 -0.3390 -0.3602
  758TIP3    H223834   5.750   2.518   1.278 -0.7219 -0.5419 -0.4022
  759TIP3   OH223835   2.999   2.714   6.962  0.6053 -0.8497 -0.2751
  759TIP3    H123836   2.927   2.778   6.952 -0.5592 -1.1827  4.0008
  759TIP3    H223837   2.956   2.629   6.956  0.2993 -1.0535  3.0999
  760TIP3   OH223838   2.284   5.588   1.117  0.2912 -0.0101 -0.5456
  760TIP3    H123839   2.360   5.588   1.059 -0.3648  0.0472 -1.4360
  760TIP3    H223840   2.308   5.648   1.188  0.7339  0.7361 -1.3019
  761TIP3   OH223841   0.414   5.139   1.937 -0.4817 -0.7748 -0.2655
  761TIP3    H123842   0.462   5.182   1.867 -0.6914 -0.5849 -0.2914
  761TIP3    H223843   0.322   5.149   1.914 -0.6988  1.3642  1.2130
  762TIP3   OH223844   6.131   3.344   7.223  0.4079 -0.3032  0.0782
  762TIP3    H123845   6.123   3.283   7.150  0.9024  0.7304 -0.8752
  762TIP3    H223846   6.222   3.375   7.218  1.3618 -2.2430  2.8198
  763TIP3   OH223847   6.891   1.810   2.509  0.1614  0.2758  0.2699
  763TIP3    H123848   6.969   1.792   2.563  0.2379 -0.4580 -0.0728
  763TIP3    H223849   6.830   1.852   2.569 -0.0559 -1.2251  1.1561
  764TIP3   OH223850   3.235   0.306   1.731 -0.2064  0.8205  0.0465
  764TIP3    H123851   3.211   0.215   1.749  0.4551  0.9229  1.5848
  764TIP3    H223852   3.325   0.313   1.762  0.2083  1.6839 -1.2456
  765TIP3   OH223853   5.354   1.721   2.216 -0.1066 -0.4288 -0.1324
  765TIP3    H123854   5.282   1.737   2.154  0.5347  0.0554 -0.7709
  765TIP3    H223855   5.312   1.681   2.292 -0.9225 -0.9844 -0.8626
  766TIP3   OH223856   6.384   6.878   8.285 -0.5907 -0.1389 -0.0881
  766TIP3    H123857   6.474   6.910   8.287 -0.8430  0.5348  1.0602
  766TIP3    H223858   6.349   6.911   8.202 -0.5868  1.8870  0.6698
  767TIP3   OH223859   4.740   0.451   1.739  0.4715 -0.2352  0.2490
  767TIP3    H123860   4.825   0.416   1.765  0.8679  1.1118  0.8396
  767TIP3    H223861   4.744   0.544   1.761 -1.5494 -0.3410  1.3152
  768TIP3   OH223862   0.265   6.894   0.077 -0.6129 -0.0210  0.6522
  768TIP3    H123863   0.227   6.826   0.022  0.7212 -0.6480  0.4814
  768TIP3    H223864   0.335   6.932   0.024  1.0456 -0.9839  2.0363
  769TIP3   OH223865   1.816   4.150   0.509  0.1470  0.0890 -0.0352
  769TIP3    H123866   1.748   4.184   0.451  1.2823  2.2850 -0.1918
  769TIP3    H223867   1.785   4.063   0.535 -3.1531  1.3624  0.6944
  770TIP3   OH223868   0.334   0.709   7.183  0.7480  0.4254  0.4755
  770TIP3    H123869   0.379   0.792   7.171  1.4988 -0.0277  0.0292
  770TIP3    H223870   0.278   0.701   7.106  1.1893  0.2084  0.1731
  771TIP3   OH223871   6.288   0.719   7.087 -0.3256  0.1734 -0.4256
  771TIP3    H123872   6.344   0.730   7.164  0.9172 -0.3124 -1.2330
  771TIP3    H223873   6.270   0.625   7.083 -0.3922  0.1969 -0.7201
  772TIP3   OH223874   2.762   6.752   1.088  0.4389  0.5538  0.0777
  772TIP3    H123875   2.758   6.826   1.149  2.6641  0.3053  0.5952
  772TIP3    H223876   2.699   6.774   1.019 -0.8833  1.6454  1.5660
  773TIP3   OH223877   0.167   0.054   1.344 -0.3844 -0.3702 -0.4553
  773TIP3    H123878   0.252   0.081   1.380  1.7707 -1.0153 -4.4818
  773TIP3    H223879   0.148   0.119   1.276 -0.6625 -2.7151 -2.7815
  774TIP3   OH223880   4.801   5.057   3.339  0.1533 -0.2441 -0.5156
  774TIP3    H123881   4.829   5.114   3.411  2.0012 -1.2054 -0.4379
  774TIP3    H223882   4.875   4.999   3.323 -0.4213 -0.4604 -2.8144
  775TIP3   OH223883   1.767   4.915   0.642 -0.1064 -0.6791  0.0631
  775TIP3    H123884   1.756   4.852   0.713  1.1676 -1.3417 -0.2837
  775TIP3    H223885   1.857   4.946   0.652 -0.8207  1.3850  0.4320
  776TIP3   OH223886   2.910   2.111   0.973 -1.1139  0.0952  0.1688
  776TIP3    H123887   2.836   2.099   0.914 -0.3539  0.1818 -0.8387
  776TIP3    H223888   2.932   2.204   0.966 -0.0633 -0.1885 -0.6298
  777TIP3   OH223889   3.546   4.613   7.637  0.7232 -0.1201  0.1165
  777TIP3    H123890   3.566   4.624   7.544  0.8157  0.5297  0.2071
  777TIP3    H223891   3.600   4.540   7.665  0.9474 -0.1027 -0.2672
  778TIP3   OH223892   5.317   2.025   2.752 -0.4507  0.1238  0.3453
  778TIP3    H123893   5.292   2.115   2.732 -0.3059  0.4580  1.5824
  778TIP3    H223894   5.234   1.976   2.748 -0.5103  0.2783 -0.4468
  779TIP3   OH223895   0.702   3.104   1.429 -0.4244 -0.2323  0.3607
  779TIP3    H123896   0.652   3.185   1.421  2.5954  1.8454  0.6402
  779TIP3    H223897   0.770   3.111   1.361  0.6183 -1.9974  1.1410
  780TIP3   OH223898   2.842   1.081   0.222 -0.4112  0.6096 -0.2043
  780TIP3    H123899   2.871   1.064   0.133  1.0196  1.0923  0.1424
  780TIP3    H223900   2.858   1.175   0.235  1.8962  0.0775  1.3797
  781TIP3   OH223901   3.153   3.463   1.971 -0.5616  0.4527 -0.0864
  781TIP3    H123902   3.070   3.429   2.004  0.3423 -0.5792  1.1861
  781TIP3    H223903   3.177   3.532   2.033  0.9079 -1.1796  1.2602
  782TIP3   OH223904   4.651   1.814   2.718  0.6563  0.1415 -0.1336
  782TIP3    H123905   4.582   1.863   2.764  0.0640 -0.0240 -0.8386
  782TIP3    H223906   4.644   1.725   2.752  1.2613  0.3559  0.6093
  783TIP3   OH223907   5.263   6.315   2.186 -0.2503 -0.1990  0.2146
  783TIP3    H123908   5.170   6.328   2.170 -0.1788 -0.1007 -0.1291
  783TIP3    H223909   5.273   6.220   2.198  0.3937 -1.2182 -5.3628
  784TIP3   OH223910   6.349   2.203   1.330 -0.1201  0.3733  0.7796
  784TIP3    H123911   6.368   2.155   1.411 -2.3898 -0.5532  0.8516
  784TIP3    H223912   6.398   2.157   1.262 -0.0144 -0.2814  1.2937
  785TIP3   OH223913   1.457   3.444   8.215  0.3210  0.0922  0.3699
  785TIP3    H123914   1.399   3.368   8.220  0.7982 -0.5066 -2.0735
  785TIP3    H223915   1.531   3.422   8.273  1.1721 -2.0435 -1.3835
  786TIP3   OH223916   0.175   5.106   0.354  0.0090 -0.1176  0.0031
  786TIP3    H123917   0.133   5.174   0.302 -0.2497 -0.0288  0.3236
  786TIP3    H223918   0.238   5.152   0.409  1.1267 -0.3417 -1.0618
  787TIP3   OH223919   1.692   0.089   1.212 -0.0983  0.2826  0.1333
  787TIP3    H123920   1.685   0.002   1.173  0.0415 -0.1589  1.0856
  787TIP3    H223921   1.604   0.125   1.206 -0.3890 -0.3310  0.6750
  788TIP3   OH223922   0.667   1.389   1.808 -0.2875  0.0089  0.2601
  788TIP3    H123923   0.580   1.355   1.787  0.2830  0.1003 -2.6865
  788TIP3    H223924   0.700   1.330   1.875 -1.6867 -1.5500 -0.3455
  789TIP3   OH223925   0.596   2.897   2.494 -0.5233  0.0888 -0.1785
  789TIP3    H123926   0.682   2.902   2.536 -1.0745  1.9750  0.8005
  789TIP3    H223927   0.534   2.892   2.567 -1.4414  2.5388 -0.7186
  790TIP3   OH223928   1.183   3.469   7.392 -0.1274  0.3188  1.1532
  790TIP3    H123929   1.249   3.531   7.421 -0.9617  0.9399  1.7500
  790TIP3    H223930   1.120   3.522   7.344 -1.6616  0.2253  2.9756
  791TIP3   OH223931   6.154   1.764   0.709 -0.1102 -0.0902  0.2742
  791TIP3    H123932   6.079   1.705   0.718 -0.1631 -0.3795 -1.6295
  791TIP3    H223933   6.230   1.709   0.730 -0.3428 -0.1181  1.0514
  792TIP3   OH223934   1.832   1.850   0.335  0.2340 -0.1690  0.5236
  792TIP3    H123935   1.773   1.896   0.276 -0.0649 -0.2499  0.7557
  792TIP3    H223936   1.822   1.895   0.419  0.4876 -0.1960  0.5692
  793TIP3   OH223937   5.530   0.980   7.404 -0.5244 -0.2502  0.4784
  793TIP3    H123938   5.563   0.902   7.448 -0.6275 -0.5838 -0.0220
  793TIP3    H223939   5.602   1.008   7.348 -0.8339 -0.5774 -0.0960
  794TIP3   OH223940   3.787   4.159   1.775 -0.5264  0.3541 -0.5732
  794TIP3    H123941   3.755   4.163   1.865 -0.4626  2.4717 -0.6149
  794TIP3    H223942   3.715   4.119   1.726 -1.2614  0.8039  0.1240
  795TIP3   OH223943   6.861   3.386   7.115 -0.4019 -0.2303 -0.6597
  795TIP3    H123944   6.838   3.473   7.082  0.3906  0.8892  1.5096
  795TIP3    H223945   6.955   3.393   7.135 -0.4529 -1.3990  0.0670
  796TIP3   OH223946   3.937   2.251   2.629  0.0605  0.6130 -0.3902
  796TIP3    H123947   3.924   2.290   2.542 -0.2200  0.9574 -0.1959
  796TIP3    H223948   3.960   2.160   2.611  0.5220  0.8143 -0.8433
  797TIP3   OH223949   4.618   4.373   7.842 -0.1262  0.2469 -0.4738
  797TIP3    H123950   4.631   4.448   7.900 -0.4638 -0.2430  0.2477
  797TIP3    H223951   4.528   4.383   7.811 -0.5574 -0.4540  0.5089
  798TIP3   OH223952   0.300   1.303   2.706 -0.3059 -0.4823 -0.0254
  798TIP3    H123953   0.304   1.327   2.798 -0.5301  2.2836 -0.6635
  798TIP3    H223954   0.388   1.272   2.685 -0.1378 -0.7215  1.0041
  799TIP3   OH223955   0.763   0.892   8.313 -0.4634 -0.5221 -0.4784
  799TIP3    H123956   0.817   0.944   8.252 -0.7172  0.8583  0.4144
  799TIP3    H223957   0.820   0.819   8.339 -0.2875 -1.0397 -2.1987
  800TIP3   OH223958   4.868   3.255   1.769  0.1009 -0.9319  0.0485
  800TIP3    H123959   4.928   3.296   1.831 -2.0110 -1.0778  2.3580
  800TIP3    H223960   4.821   3.328   1.729 -0.1019 -0.8887  0.3553
  801TIP3   OH223961   1.666   6.197   3.235 -0.2043 -0.3879  0.1772
  801TIP3    H123962   1.622   6.187   3.320  2.3897  0.7759  1.8115
  801TIP3    H223963   1.636   6.282   3.202  0.0953 -0.0141  0.8418
  802TIP3   OH223964   5.233   2.567   8.300  0.3107 -0.2817  0.2349
  802TIP3    H123965   5.200   2.485   8.338 -0.0157 -0.6270 -0.7574
  802TIP3    H223966   5.207   2.634   8.362 -2.0058 -0.5873 -0.3309
  803TIP3   OH223967   2.033   4.253   2.580 -0.0120 -0.1473  0.5691
  803TIP3    H123968   2.037   4.193   2.654  0.2399 -1.4665 -0.4734
  803TIP3    H223969   2.122   4.284   2.569  0.0088 -0.1779  0.6537
  804TIP3   OH223970   1.038   2.224   7.425 -0.1241  0.4337  0.2300
  804TIP3    H123971   1.031   2.265   7.339 -2.3955  0.2177  0.2544
  804TIP3    H223972   1.039   2.130   7.407 -1.4681  0.3605  0.4436
  805TIP3   OH223973   4.651   2.741   1.319 -0.5040 -0.0924  0.1521
  805TIP3    H123974   4.613   2.827   1.300 -1.3698 -0.0700  1.8349
  805TIP3    H223975   4.638   2.691   1.238  1.5113  1.7995 -1.4729
  806TIP3   OH223976   4.349   1.759   2.040  0.0383 -0.0023  0.1942
  806TIP3    H123977   4.305   1.688   1.992  3.0706 -2.3511  0.5481
  806TIP3    H223978   4.278   1.817   2.068 -2.5556 -2.3941 -0.9290
  807TIP3   OH223979   2.112   1.215   1.146 -0.1296  0.3479  0.0382
  807TIP3    H123980   2.168   1.153   1.193 -0.4921 -0.5043 -0.6349
  807TIP3    H223981   2.159   1.232   1.064  0.0880  1.1692  0.3225
  808TIP3   OH223982   6.215   1.812   7.963  0.1382 -0.7719 -0.6068
  808TIP3    H123983   6.258   1.785   8.044  1.3301 -2.5910 -1.7753
  808TIP3    H223984   6.287   1.841   7.907 -0.5900 -0.2806 -1.2985
  809TIP3   OH223985   0.665   3.981   2.158 -0.0696  0.2378 -0.0690
  809TIP3    H123986   0.730   4.034   2.203  0.2333 -0.0043 -0.2181
  809TIP3    H223987   0.716   3.918   2.107 -0.2923  1.9837 -2.6333
  810TIP3   OH223988   6.714   4.119   1.284 -0.4999 -0.4682 -0.2617
  810TIP3    H123989   6.725   4.055   1.355 -0.0368 -1.5160 -1.2453
  810TIP3    H223990   6.685   4.199   1.328 -1.4214 -1.4389  0.9791
  811TIP3   OH223991   6.165   3.183   0.559 -0.2988 -1.3029  0.0717
  811TIP3    H123992   6.176   3.196   0.465 -0.5622 -2.8649 -0.1993
  811TIP3    H223993   6.073   3.161   0.570 -0.0863 -1.9878  0.5650
  812TIP3   OH223994   0.760   3.784   1.774  0.1548  0.5133  0.2006
  812TIP3    H123995   0.762   3.826   1.860  1.4235  2.2271 -0.5953
  812TIP3    H223996   0.845   3.741   1.766 -0.1289 -0.0103 -0.0198
  813TIP3   OH223997   3.377   0.642   2.038  0.3503 -0.6760  0.1484
  813TIP3    H123998   3.416   0.641   2.125 -1.2627 -0.8060  0.9043
  813TIP3    H223999   3.448   0.615   1.979  1.4425 -0.6388  1.4122
  814TIP3   OH224000   3.539   6.204   2.202 -0.1362 -0.1908  0.4205
  814TIP3    H124001   3.616   6.173   2.250  0.6434  1.0839  0.0297
  814TIP3    H224002   3.479   6.234   2.270  0.3130  0.1639  0.6610
  815TIP3   OH224003   5.588   0.733   0.952  1.2199 -0.0681  0.1480
  815TIP3    H124004   5.546   0.742   1.038 -1.6873  0.8440 -1.2509
  815TIP3    H224005   5.555   0.651   0.917 -0.7145  1.3363 -1.5639
  816TIP3   OH224006   2.887   0.000   1.778  0.1010 -0.2992  0.1130
  816TIP3    H124007   2.843  -0.079   1.746  0.2957 -0.5726  0.5130
  816TIP3    H224008   2.879  -0.005   1.873  1.4602 -0.6341  0.2327
  817TIP3   OH224009   6.613   5.278   1.440  0.4639 -0.6866 -0.6820
  817TIP3    H124010   6.689   5.222   1.424 -0.1089 -1.6183 -0.2260
  817TIP3    H224011   6.612   5.288   1.535  0.8070  0.4752 -0.7845
  818TIP3   OH224012   2.563   5.506   0.612 -0.4551  0.0519 -0.0268
  818TIP3    H124013   2.502   5.579   0.605 -0.2188  0.1503 -1.2713
  818TIP3    H224014   2.595   5.493   0.523  2.5723  1.0487  0.8186
  819TIP3   OH224015   4.062   3.007   1.513  0.1985 -0.1700  0.2651
  819TIP3    H124016   4.008   2.976   1.587  1.0599 -0.4118  0.8131
  819TIP3    H224017   3.999   3.031   1.446 -0.5740 -2.0309  0.2563
  820TIP3   OH224018   0.413   3.517   3.461 -0.2905 -0.6350 -0.1833
  820TIP3    H124019   0.406   3.598   3.511  0.1063 -1.3040  0.9989
  820TIP3    H224020   0.499   3.482   3.484 -0.9725 -2.0449  0.3446
  821TIP3   OH224021   6.307   1.006   1.280 -0.0921  0.6667  0.2392
  821TIP3    H124022   6.393   0.988   1.320 -1.3375 -1.5947  2.1501
  821TIP3    H224023   6.310   0.963   1.195  0.5426  0.2963  0.4421
  822TIP3   OH224024   3.861   1.081   2.748 -0.2455 -0.5859 -0.2265
  822TIP3    H124025   3.869   1.141   2.822 -0.1233  0.0970 -0.7873
  822TIP3    H224026   3.858   0.994   2.788  1.0614 -0.3072  0.5262
  823TIP3   OH224027   6.326   6.980   0.814  0.3445 -0.2865  0.1405
  823TIP3    H124028   6.356   6.889   0.809 -1.7298 -1.0126 -0.3777
  823TIP3    H224029   6.406   7.032   0.817  1.6075 -2.1529  1.1025
  824TIP3   OH224030   6.413   4.113   7.861 -0.5226 -0.4054  0.3997
  824TIP3    H124031   6.489   4.138   7.913 -1.0655  0.5263  0.7744
  824TIP3    H224032   6.450   4.071   7.783  0.4697  1.5877 -0.2759
  825TIP3   OH224033   0.624   0.402   0.345  0.8989 -0.2119  0.2342
  825TIP3    H124034   0.648   0.484   0.389  1.5611 -0.2000 -0.1460
  825TIP3    H224035   0.598   0.344   0.416  2.5070 -0.3835  0.7208
  826TIP3   OH224036   0.818   1.218   2.343 -0.2305 -0.0350  1.1665
  826TIP3    H124037   0.847   1.287   2.403 -2.0985  0.7427  1.2379
  826TIP3    H224038   0.724   1.230   2.336 -0.1236 -0.2144 -1.7936
  827TIP3   OH224039   3.110   3.510   0.329  0.6263  0.1206 -0.2395
  827TIP3    H124040   3.134   3.427   0.370 -2.0789 -0.9002 -0.5425
  827TIP3    H224041   3.131   3.498   0.236 -0.0131 -0.3472 -0.3290
  828TIP3   OH224042   3.877   5.944   0.130 -0.0586  0.3598  0.3869
  828TIP3    H124043   3.790   5.910   0.112 -0.7818  2.2580 -0.0056
  828TIP3    H224044   3.864   6.039   0.136  2.0623  0.7380 -0.2376
  829TIP3   OH224045   5.062   5.129   2.619  0.4645  0.0090 -0.2977
  829TIP3    H124046   4.982   5.133   2.567  0.8305 -1.1970 -0.9877
  829TIP3    H224047   5.122   5.189   2.575 -0.2558  1.4919  0.6464
  830TIP3   OH224048   2.180   3.456   7.210 -0.4384 -0.1812 -0.4952
  830TIP3    H124049   2.114   3.407   7.258 -0.2356 -0.3184 -0.3545
  830TIP3    H224050   2.195   3.405   7.130 -1.6107  0.6398 -1.2629
  831TIP3   OH224051   2.614   5.541   2.057  0.0272  0.2822 -0.0084
  831TIP3    H124052   2.518   5.537   2.053  0.0258  1.0436 -0.9227
  831TIP3    H224053   2.632   5.587   2.139 -0.3603 -0.4683  0.5156
  832TIP3   OH224054   2.409   4.260   0.961  0.6580  0.1841  0.0774
  832TIP3    H124055   2.390   4.350   0.989 -1.7613 -0.9990  2.6943
  832TIP3    H224056   2.478   4.231   1.020  0.9938  0.0832 -0.3577
  833TIP3   OH224057   6.915   4.105   0.175 -0.5313 -0.5356  0.4434
  833TIP3    H124058   6.919   4.156   0.256  2.0386 -0.7569  0.5359
  833TIP3    H224059   6.949   4.019   0.199 -1.5950 -1.2313 -0.4654
  834TIP3   OH224060   6.874   4.444   1.716 -0.4497  0.0831 -0.6237
  834TIP3    H124061   6.891   4.438   1.810  1.6803  0.1957 -0.9570
  834TIP3    H224062   6.840   4.533   1.704 -2.8057 -0.6404  0.2798
  835TIP3   OH224063   3.356   6.134   1.501  0.5899 -0.2438  0.4391
  835TIP3    H124064   3.295   6.061   1.486  0.3451 -0.0246  0.3544
  835TIP3    H224065   3.300   6.212   1.500  0.6585 -0.1559  1.8384
  836TIP3   OH224066   4.284   0.178   3.038  0.1272 -0.2133 -0.2545
  836TIP3    H124067   4.276   0.113   3.107  0.0051 -0.4959 -0.5336
  836TIP3    H224068   4.194   0.204   3.018  0.1709 -0.0230 -0.2024
  837TIP3   OH224069   1.400   1.624   2.041 -0.6219  0.6176  0.2475
  837TIP3    H124070   1.472   1.642   2.101 -0.8815  1.8809  0.2268
  837TIP3    H224071   1.356   1.547   2.077 -0.8214  1.3959  1.7344
  838TIP3   OH224072   6.692   6.758   0.111 -0.1885  0.3262 -0.1396
  838TIP3    H124073   6.658   6.708   0.037  1.0751  1.8002 -1.8054
  838TIP3    H224074   6.787   6.749   0.104  0.0323  2.1992  0.0219
  839TIP3   OH224075   1.354   5.923   8.269 -0.3871 -0.1181  0.8092
  839TIP3    H124076   1.303   5.993   8.228  0.8461  0.1890 -0.2650
  839TIP3    H224077   1.291   5.875   8.322 -1.6579  0.6041 -0.0078
  840TIP3   OH224078   6.160   3.309   0.291  0.2388 -0.0089 -0.4683
  840TIP3    H124079   6.153   3.395   0.250  1.2927  1.0581  1.4581
  840TIP3    H224080   6.240   3.271   0.253  0.7759  0.6380  0.0001
  841TIP3   OH224081   6.852   0.623   2.366  0.3958  0.6045 -0.1032
  841TIP3    H124082   6.882   0.601   2.454 -1.7501 -0.0243  0.5093
  841TIP3    H224083   6.782   0.688   2.379  2.0037  2.8029 -1.5418
  842TIP3   OH224084   0.009   4.609   0.581 -0.5144 -0.3387  0.6148
  842TIP3    H124085   0.060   4.685   0.607  0.8186 -0.4217 -1.4823
  842TIP3    H224086   0.074   4.540   0.567 -1.2527 -0.7324 -1.2032
  843TIP3   OH224087   3.355   2.418   7.543 -0.7474  0.5977 -0.8429
  843TIP3    H124088   3.300   2.489   7.508 -2.7633 -0.8276 -0.7567
  843TIP3    H224089   3.361   2.356   7.470 -2.2599 -0.8866  0.2234
  844TIP3   OH224090   5.777   2.872   0.682 -0.4398 -0.1123  0.0838
  844TIP3    H124091   5.754   2.933   0.753 -1.0795  1.2688 -1.2384
  844TIP3    H224092   5.694   2.856   0.637  0.0239 -0.6519 -0.5912
  845TIP3   OH224093   0.842   1.257   1.559 -0.4173 -0.0185  0.2969
  845TIP3    H124094   0.776   1.231   1.494  1.6891 -2.0017 -1.1995
  845TIP3    H224095   0.791   1.287   1.634 -3.0397 -2.5749 -0.2956
  846TIP3   OH224096   6.261   4.691   2.510 -0.1957 -0.4308  0.1628
  846TIP3    H124097   6.324   4.625   2.538  1.3408  0.0151 -2.0035
  846TIP3    H224098   6.227   4.659   2.426 -0.9554  0.5627  0.0653
  847TIP3   OH224099   3.112   3.701   1.064 -0.2259 -0.2552  0.1768
  847TIP3    H124100   3.078   3.613   1.081  1.3005 -1.4276 -2.3153
  847TIP3    H224101   3.087   3.719   0.973  0.9390  1.1968  0.1083
  848TIP3   OH224102   2.386   3.662   7.969  0.3599 -0.1257 -0.0840
  848TIP3    H124103   2.343   3.744   7.948 -0.3845 -0.2663  0.8447
  848TIP3    H224104   2.366   3.605   7.894  0.2640  0.3118 -0.3922
  849TIP3   OH224105   6.046   4.197   8.004  0.1109 -0.4431  0.1596
  849TIP3    H124106   5.972   4.254   8.025 -0.6917 -1.9266  1.5050
  849TIP3    H224107   6.107   4.208   8.077 -1.2069 -3.1549  1.7813
  850TIP3   OH224108   5.204   2.260   2.372 -0.0898  0.0119  1.0200
  850TIP3    H124109   5.153   2.243   2.451  0.7287 -1.5111  1.2531
  850TIP3    H224110   5.288   2.293   2.404  0.2268 -0.5590  0.8019
  851TIP3   OH224111   3.686   0.833   7.998  0.1687  0.1824 -0.4056
  851TIP3    H124112   3.637   0.776   8.058  2.0879  2.0598  3.3538
  851TIP3    H224113   3.619   0.887   7.956 -1.2544 -0.2225  1.2271
  852TIP3   OH224114   2.601   6.060   0.102 -0.0653  0.1678 -0.4951
  852TIP3    H124115   2.544   6.115   0.048  0.2415 -0.6595 -1.7007
  852TIP3    H224116   2.686   6.062   0.057  0.6217  0.6254  0.7566
  853TIP3   OH224117   6.819   1.014   3.093 -0.2237  0.1915  0.1200
  853TIP3    H124118   6.867   1.096   3.098 -2.4839  1.5786  0.3502
  853TIP3    H224119   6.780   1.015   3.005 -1.0470 -0.1510  0.4722
  854TIP3   OH224120   0.198   4.919   7.136  0.0078 -0.1964  0.3048
  854TIP3    H124121   0.254   4.844   7.114 -0.3538  0.2937 -2.6002
  854TIP3    H224122   0.260   4.990   7.153  0.3105 -0.6466  1.1433
  855TIP3   OH224123   3.234   4.074   0.635  0.6609  0.2864 -0.3604
  855TIP3    H124124   3.205   4.152   0.683  0.9526 -0.9784  2.0667
  855TIP3    H224125   3.154   4.024   0.620  0.8724 -0.8422  1.8519
  856TIP3   OH224126   6.364   6.991   3.162  0.0396 -0.4223  0.6518
  856TIP3    H124127   6.437   7.051   3.144 -0.4422  0.5368  1.7445
  856TIP3    H224128   6.349   6.945   3.079  1.0435  0.2930  0.0551
  857TIP3   OH224129   1.208   5.701   1.716  0.0217  0.3307 -0.1272
  857TIP3    H124130   1.204   5.650   1.797 -0.8167 -1.7468 -1.3917
  857TIP3    H224131   1.274   5.768   1.732  1.0257 -1.0256  1.7124
  858TIP3   OH224132   1.677   6.892   1.892 -0.3873  0.0917 -0.5071
  858TIP3    H124133   1.759   6.941   1.884  1.0514 -1.6806  1.8972
  858TIP3    H224134   1.694   6.809   1.847 -0.1726 -0.9460  1.3700
  859TIP3   OH224135   0.068   0.499   6.450  0.1334 -0.4752  0.2968
  859TIP3    H124136   0.120   0.450   6.514  0.5490 -1.8782 -1.0320
  859TIP3    H224137   0.082   0.452   6.368  0.2825  1.7419 -1.0175
  860TIP3   OH224138   2.825   1.276   0.973  0.4365 -0.1277  0.1645
  860TIP3    H124139   2.815   1.183   0.993 -0.4501 -0.1669 -0.3902
  860TIP3    H224140   2.919   1.289   0.961  0.7278 -0.6303  1.7445
  861TIP3   OH224141   1.189   2.124   1.032 -0.3560 -0.2418 -0.3460
  861TIP3    H124142   1.150   2.162   1.111 -0.5434  0.5894 -0.8338
  861TIP3    H224143   1.264   2.074   1.064  0.4203  1.2485  0.2369
  862TIP3   OH224144   6.411   3.777   7.849 -0.2737  0.0488  0.1756
  862TIP3    H124145   6.430   3.829   7.771 -1.7618  1.3256  0.6300
  862TIP3    H224146   6.464   3.816   7.918  0.2993 -0.4660  0.0351
  863TIP3   OH224147   0.173   0.522   1.258  0.0382  0.1355 -0.2518
  863TIP3    H124148   0.247   0.581   1.272  1.5562 -1.8453  0.5293
  863TIP3    H224149   0.127   0.520   1.342 -0.7447  1.1059 -0.6386
  864TIP3   OH224150   2.017   5.995   1.878  0.8668 -0.7052  0.1040
  864TIP3    H124151   1.933   6.031   1.849 -0.9613 -1.3140  4.1126
  864TIP3    H224152   2.070   6.072   1.899 -1.3119 -0.0188  4.0209
  865TIP3   OH224153   2.912   4.960   7.968 -0.0365  0.3202  0.3228
  865TIP3    H124154   2.852   4.915   8.026 -0.7927 -0.2515 -0.8535
  865TIP3    H224155   2.869   5.043   7.949  0.7720  1.0423  1.4948
  866TIP3   OH224156   5.465   6.465   2.341  0.4945 -0.1314 -0.4432
  866TIP3    H124157   5.428   6.446   2.427 -1.4475  0.5640 -1.0619
  866TIP3    H224158   5.421   6.405   2.282 -0.6471  1.5259 -1.3845
  867TIP3   OH224159   3.389   0.612   2.634  0.2439  0.5684 -0.0434
  867TIP3    H124160   3.366   0.590   2.724  1.1037  0.8727  0.2668
  867TIP3    H224161   3.481   0.585   2.625  1.0130  2.8968  0.0062
  868TIP3   OH224162   5.227   4.230   1.212 -0.1631  0.0913 -0.2053
  868TIP3    H124163   5.131   4.222   1.209 -0.0703 -0.7116 -2.0890
  868TIP3    H224164   5.256   4.214   1.123  1.7101  1.0791  0.1606
  869TIP3   OH224165   2.929   0.478   7.997 -0.7791  0.2271  0.4979
  869TIP3    H124166   2.965   0.460   7.910  1.3148 -1.4534  1.6066
  869TIP3    H224167   2.866   0.548   7.983  2.1435  2.6912 -1.8432
  870TIP3   OH224168   0.900   0.364   2.088 -0.4901  0.0360 -0.0779
  870TIP3    H124169   0.903   0.318   2.004  0.2006 -1.2468  0.6257
  870TIP3    H224170   0.882   0.455   2.064  1.1237 -0.0101 -1.7452
  871TIP3   OH224171   6.300   2.231   7.416  0.4972  0.3037  0.3566
  871TIP3    H124172   6.232   2.213   7.351  0.7149 -0.3058  0.2907
  871TIP3    H224173   6.292   2.324   7.434  0.0547  0.3604 -0.1156
  872TIP3   OH224174   2.725   0.713   1.720  0.5685  0.1638  0.2238
  872TIP3    H124175   2.651   0.745   1.773  0.3840  0.8023 -0.4054
  872TIP3    H224176   2.798   0.770   1.744  0.7658 -0.2269  0.5660
  873TIP3   OH224177   6.394   3.695   8.288  0.1153  0.4051 -0.9016
  873TIP3    H124178   6.451   3.670   8.215  0.2743  1.1358 -1.0309
  873TIP3    H224179   6.320   3.741   8.247 -0.0628  0.3520 -0.6457
  874TIP3   OH224180   0.219   5.855   2.028 -0.3426 -0.6438 -0.0480
  874TIP3    H124181   0.271   5.794   2.079  2.4964  1.4492 -0.2076
  874TIP3    H224182   0.164   5.799   1.973  1.0502 -3.0154  0.8248
  875TIP3   OH224183   6.956   6.009   1.913 -0.5608 -0.3598 -0.4785
  875TIP3    H124184   6.864   5.997   1.936 -0.3578 -0.7664  0.1609
  875TIP3    H224185   6.990   5.921   1.904 -0.5287 -0.2102 -2.0059
  876TIP3   OH224186   4.006   4.116   2.956 -0.0260  0.2844  0.0923
  876TIP3    H124187   3.931   4.108   2.898  0.3304 -1.3584 -0.2135
  876TIP3    H224188   4.026   4.025   2.981  0.6787  0.8401  1.6872
  877TIP3   OH224189   1.038   3.342   3.043  0.1279 -0.2292  0.3089
  877TIP3    H124190   1.086   3.320   3.122 -0.5288 -0.8594  0.5411
  877TIP3    H224191   1.041   3.438   3.038  0.7224 -0.2237  0.7382
  878TIP3   OH224192   0.603   3.431   7.994 -0.4039  0.4058  0.2939
  878TIP3    H124193   0.527   3.414   7.938 -2.0310  2.2744  1.7737
  878TIP3    H224194   0.608   3.527   7.998  1.6781  0.3241  0.7417
  879TIP3   OH224195   2.055   6.742   8.258  0.2812  0.1563  0.1588
  879TIP3    H124196   2.044   6.772   8.348  0.6264  2.9936 -0.6505
  879TIP3    H224197   1.966   6.738   8.223 -0.0046 -2.4615  0.9728
  880TIP3   OH224198   3.916   5.725   7.622 -0.3623  0.8343 -0.5305
  880TIP3    H124199   3.823   5.742   7.605 -0.7414 -0.0460  0.5801
  880TIP3    H224200   3.920   5.633   7.647  0.8140  0.8775 -0.4816
  881TIP3   OH224201   0.478   5.502   7.264  0.0457  0.1685  0.4432
  881TIP3    H124202   0.450   5.571   7.323  0.5115  0.9629 -0.2429
  881TIP3    H224203   0.457   5.535   7.176  1.8580  0.2300 -0.0151
  882TIP3   OH224204   5.101   2.610   0.730  0.0308 -0.0036  0.0094
  882TIP3    H124205   5.182   2.657   0.747 -1.1420  1.7287  1.2352
  882TIP3    H224206   5.128   2.522   0.706  2.2586  0.5997  0.1142
  883TIP3   OH224207   1.334   1.531   1.344  0.2495 -0.1642  0.3299
  883TIP3    H124208   1.418   1.489   1.323  0.1198  0.5150 -1.7614
  883TIP3    H224209   1.322   1.597   1.276 -1.9354 -0.1615  0.6307
  884TIP3   OH224210   0.406   1.279   1.781  0.0611  0.3472 -0.7273
  884TIP3    H124211   0.447   1.205   1.825  0.9144  0.7361 -0.8416
  884TIP3    H224212   0.374   1.334   1.852  1.1845  0.8328 -0.5668
  885TIP3   OH224213   6.758   1.949   2.145 -0.1486  0.4108 -0.4277
  885TIP3    H124214   6.823   1.991   2.089 -1.0342  0.9303 -1.0937
  885TIP3    H224215   6.675   1.990   2.121 -0.7657 -0.3995  0.2390
  886TIP3   OH224216   3.091   2.169   7.680 -0.6718 -0.3536  0.0667
  886TIP3    H124217   3.140   2.217   7.747 -0.0446  0.5623 -1.0216
  886TIP3    H224218   3.113   2.077   7.697 -2.3663 -0.4109  2.5466
  887TIP3   OH224219   0.116   5.615   7.500  0.2058 -0.0771  0.2645
  887TIP3    H124220   0.026   5.647   7.502  0.0516 -0.5347  0.6876
  887TIP3    H224221   0.119   5.557   7.424  0.9688  2.2944 -1.6583
  888TIP3   OH224222   1.201   1.225   2.346 -0.1444 -0.0755  0.4662
  888TIP3    H124223   1.220   1.195   2.257  0.1009 -1.9337  1.0995
  888TIP3    H224224   1.114   1.189   2.365 -0.9030  1.6593  0.4383
  889TIP3   OH224225   5.809   2.495   8.049 -0.0379  0.4609  0.5063
  889TIP3    H124226   5.823   2.442   7.970 -2.2903 -0.2903  0.5177
  889TIP3    H224227   5.856   2.449   8.118  0.0622 -0.1636  0.0267
  890TIP3   OH224228   2.908   3.315   7.059 -0.1191 -0.3941 -0.7053
  890TIP3    H124229   2.955   3.234   7.080  0.5433  0.2791  0.5009
  890TIP3    H224230   2.869   3.298   6.973 -1.2906 -2.5658  0.1697
  891TIP3   OH224231   5.656   0.544   7.625 -0.4865 -0.3369 -0.2949
  891TIP3    H124232   5.729   0.488   7.600  0.5218  0.7682  0.0270
  891TIP3    H224233   5.578   0.492   7.608  0.3775 -1.5976 -0.5557
  892TIP3   OH224234   5.553   4.805   1.529 -0.4968 -0.1250 -0.5829
  892TIP3    H124235   5.463   4.774   1.521 -0.7960  0.9933 -1.9847
  892TIP3    H224236   5.549   4.896   1.499  0.5151  1.0110  2.2948
  893TIP3   OH224237   5.127   6.815   1.079  0.0009  0.7136  0.2741
  893TIP3    H124238   5.050   6.857   1.043 -0.7594  0.1077  1.1370
  893TIP3    H224239   5.103   6.794   1.170  1.6788  1.8005  1.0344
  894TIP3   OH224240   4.374   0.732   2.368  0.0511 -0.4659 -0.2672
  894TIP3    H124241   4.392   0.644   2.403 -0.4674 -0.7148 -0.6093
  894TIP3    H224242   4.281   0.745   2.383  0.3521  0.5386  0.8986
  895TIP3   OH224243   3.014   0.743   2.256  0.3601 -0.0229  0.1266
  895TIP3    H124244   2.954   0.778   2.322  0.2143 -0.5413  0.2785
  895TIP3    H224245   3.081   0.811   2.245 -0.7411  0.9590 -0.7112
  896TIP3   OH224246   2.960   5.908   1.812 -0.5444 -0.4427 -0.2028
  896TIP3    H124247   2.951   5.848   1.886 -0.5001 -0.2152 -0.0115
  896TIP3    H224248   3.052   5.934   1.813 -1.1707  2.0558  1.6377
  897TIP3   OH224249   4.119   4.164   0.162 -0.7660  0.2209  0.4230
  897TIP3    H124250   4.154   4.241   0.116  1.7134 -1.0463  0.0447
  897TIP3    H224251   4.080   4.200   0.242 -1.4380  2.0423 -0.6630
  898TIP3   OH224252   5.652   6.283   1.619 -0.1140 -0.1240  0.1282
  898TIP3    H124253   5.737   6.308   1.656 -0.0997  0.3876 -0.2394
  898TIP3    H224254   5.605   6.244   1.692  0.5280 -0.6481  0.2798
  899TIP3   OH224255   1.475   1.069   2.934  0.3846  0.0044  0.3179
  899TIP3    H124256   1.402   1.124   2.963  0.6739  0.2832  0.5164
  899TIP3    H224257   1.509   1.029   3.014  0.9205  0.4515  0.3147
  900TIP3   OH224258   1.702   5.314   8.161  0.6114  0.2328 -0.3452
  900TIP3    H124259   1.655   5.327   8.079  0.2262 -1.9330 -0.5158
  900TIP3    H224260   1.766   5.245   8.142 -0.2953 -1.1883  1.4491
  901TIP3   OH224261   2.056   3.499   0.676  0.2834 -0.5412  0.2663
  901TIP3    H124262   2.017   3.521   0.591 -0.8177  0.0056  0.8960
  901TIP3    H224263   2.098   3.414   0.661  0.2368 -0.3843 -0.8593
  902TIP3   OH224264   4.800   2.147   2.118 -0.6246 -0.4508  0.0605
  902TIP3    H124265   4.717   2.107   2.093 -1.3946  1.1388 -0.0653
  902TIP3    H224266   4.808   2.129   2.212 -0.9734 -0.8527  0.0160
  903TIP3   OH224267   6.093   6.875   0.438 -0.3966  0.2041 -0.2089
  903TIP3    H124268   6.137   6.945   0.487  0.3508  0.0474 -0.6382
  903TIP3    H224269   6.144   6.796   0.457  0.0825  0.1927 -1.4465
  904TIP3   OH224270   1.038   3.425   1.126 -0.3904 -0.3034  0.2908
  904TIP3    H124271   1.106   3.379   1.077  0.8592  1.6711  0.0472
  904TIP3    H224272   1.050   3.517   1.103 -1.6621  0.3684  2.0665
  905TIP3   OH224273   6.546   5.356   0.590  0.3528  0.1772 -0.1619
  905TIP3    H124274   6.496   5.437   0.579  0.0219 -0.1042 -0.8407
  905TIP3    H224275   6.635   5.378   0.561  0.8978  0.9392  1.9523
  906TIP3   OH224276   6.085   0.501   3.319  0.0938  0.6426 -0.4097
  906TIP3    H124277   6.154   0.559   3.289  1.2368  0.0807  0.9918
  906TIP3    H224278   6.010   0.559   3.336  1.4785  1.9388  1.8455
  907TIP3   OH224279   5.940   1.223   2.858 -0.5878 -0.0539 -0.1081
  907TIP3    H124280   5.952   1.132   2.830 -0.3732 -0.0076 -0.1730
  907TIP3    H224281   5.846   1.237   2.853 -0.5929 -0.1704 -0.4270
  908TIP3   OH224282   1.034   2.343   7.656 -0.4541  0.0286  0.0701
  908TIP3    H124283   1.049   2.290   7.578 -1.5897 -0.4253  0.1467
  908TIP3    H224284   1.114   2.395   7.666  0.9100 -2.0108  0.2644
  909TIP3   OH224285   3.792   6.717   0.734  0.0205 -0.1015 -0.0928
  909TIP3    H124286   3.870   6.702   0.787  1.3513 -0.8407 -2.1637
  909TIP3    H224287   3.726   6.658   0.771  1.0220 -0.8877  0.4754
  910TIP3   OH224288   4.226   0.201   1.349 -0.1113 -0.1427 -0.2802
  910TIP3    H124289   4.314   0.185   1.383 -0.2246  1.2948  0.7971
  910TIP3    H224290   4.226   0.161   1.263  0.7873 -2.3591  0.6710
  911TIP3   OH224291   6.955   4.453   2.991 -0.1305 -0.4135 -0.0097
  911TIP3    H124292   6.905   4.535   2.990  0.8699  0.2171  0.3756
  911TIP3    H224293   7.046   4.480   2.984  0.2782 -1.4483  0.9653
  912TIP3   OH224294   2.702   4.515   2.393 -0.3969 -0.1089 -0.6526
  912TIP3    H124295   2.661   4.536   2.309 -3.8347  0.2428  0.9487
  912TIP3    H224296   2.698   4.420   2.398 -1.1127 -0.0823 -0.5252
  913TIP3   OH224297   6.967   4.099   6.961 -0.4364  0.1541 -0.1903
  913TIP3    H124298   6.873   4.082   6.959 -0.6172  1.1184 -0.1019
  913TIP3    H224299   6.975   4.187   6.996  0.5833 -0.4516  1.1667
  914TIP3   OH224300   0.841   6.961   2.374  0.4738  0.4989 -0.4185
  914TIP3    H124301   0.777   6.942   2.442  0.1918  1.6959 -0.3162
  914TIP3    H224302   0.813   6.909   2.299  0.6058 -0.5900  0.2765
  915TIP3   OH224303   0.627   3.322   8.376  0.2940  0.4456  0.0732
  915TIP3    H124304   0.691   3.345   8.443  0.3792 -0.4432  0.3090
  915TIP3    H224305   0.569   3.398   8.371  1.2090  1.1483  0.0397
  916TIP3   OH224306   5.605   2.620   8.376 -0.0701  0.3512  0.3078
  916TIP3    H124307   5.578   2.618   8.285 -0.3185  0.3026  0.3832
  916TIP3    H224308   5.652   2.704   8.385  0.1544  0.2525  0.0833
  917TIP3   OH224309   1.371   0.903   2.536 -0.2265 -0.3163  0.0247
  917TIP3    H124310   1.379   0.998   2.544  1.3172 -0.4107 -0.1793
  917TIP3    H224311   1.279   0.885   2.558 -0.4590  1.1749  0.3876
  918TIP3   OH224312   0.613   6.837   2.236  0.3835  0.0132 -0.3437
  918TIP3    H124313   0.641   6.807   2.323  2.1810 -1.4099 -1.3339
  918TIP3    H224314   0.531   6.883   2.252  0.9591  0.3214  2.1790
  919TIP3   OH224315   1.029   0.112   1.042 -0.3729 -0.0532  0.0003
  919TIP3    H124316   1.122   0.106   1.062 -0.1154 -1.1851 -1.2952
  919TIP3    H224317   1.023   0.083   0.951 -1.9371  0.4975 -0.1005
  920TIP3   OH224318   4.063   0.425   0.795  0.0179  0.0715  0.5868
  920TIP3    H124319   4.007   0.409   0.719  1.8900 -2.4398 -0.3955
  920TIP3    H224320   4.006   0.407   0.870 -0.5370 -2.7936 -0.3790
  921TIP3   OH224321   6.053   2.479   0.394 -0.3172 -0.2172  0.1889
  921TIP3    H124322   6.110   2.528   0.453  0.2048 -0.3294 -0.2158
  921TIP3    H224323   6.042   2.394   0.436  0.9838 -0.7096 -0.4013
  922TIP3   OH224324   3.803   2.239   1.397 -0.0767  0.1895  0.9124
  922TIP3    H124325   3.770   2.308   1.454 -1.3439 -1.2067  1.9595
  922TIP3    H224326   3.853   2.285   1.330 -1.7976  2.2204  0.9102
  923TIP3   OH224327   1.023   5.408   2.673 -0.0974 -0.3147 -0.4895
  923TIP3    H124328   0.972   5.466   2.616 -2.3571 -0.6044  1.0759
  923TIP3    H224329   1.111   5.446   2.673 -0.6065  1.0234 -2.2710
  924TIP3   OH224330   2.326   1.598   1.855 -0.7875  0.0488 -0.0943
  924TIP3    H124331   2.309   1.513   1.815 -0.0663  0.5526 -1.5754
  924TIP3    H224332   2.419   1.595   1.880 -0.9051  0.2030  0.3771
  925TIP3   OH224333   0.465   5.050   7.685 -0.1410  0.5600  0.1317
  925TIP3    H124334   0.489   4.959   7.667  0.8996  0.9019 -0.2843
  925TIP3    H224335   0.545   5.100   7.668 -0.4995  1.4770  1.0300
  926TIP3   OH224336   0.209   4.229   8.271 -0.4386 -0.5096  0.6439
  926TIP3    H124337   0.254   4.250   8.190 -1.2712 -0.3077  0.2201
  926TIP3    H224338   0.175   4.141   8.258 -4.3565  1.0162 -1.0626
  927TIP3   OH224339   4.834   2.464   7.798  0.3611  0.4845  0.9435
  927TIP3    H124340   4.887   2.410   7.857  1.1937  0.3152  0.0784
  927TIP3    H224341   4.758   2.410   7.778 -0.5047  0.9836  2.7116
  928TIP3   OH224342   4.425   4.783   1.997 -0.0697  0.7894 -0.3064
  928TIP3    H124343   4.423   4.763   2.091  0.8094 -1.4748 -0.7041
  928TIP3    H224344   4.371   4.862   1.988 -2.3386 -0.3921  1.7568
  929TIP3   OH224345   1.451   6.811   0.341 -0.0726  0.0455 -0.3303
  929TIP3    H124346   1.408   6.886   0.383  1.0429  0.2659  0.4856
  929TIP3    H224347   1.456   6.835   0.249  1.9594  1.9276  0.1601
  930TIP3   OH224348   3.695   3.551   0.985  0.1757  0.6607 -0.0886
  930TIP3    H124349   3.719   3.632   0.940  2.4226 -0.5275 -1.1762
  930TIP3    H224350   3.652   3.498   0.917  1.5640 -0.2518 -0.3056
  931TIP3   OH224351   4.821   5.922   1.293 -0.1227  0.1931 -0.8443
  931TIP3    H124352   4.874   5.929   1.214 -1.5769  0.5538 -1.8249
  931TIP3    H224353   4.841   5.836   1.328  2.5649  1.0371 -0.0676
  932TIP3   OH224354   4.510   6.819   7.931 -0.0396  0.3124  0.0158
  932TIP3    H124355   4.595   6.810   7.973 -1.7882  2.0218  4.5569
  932TIP3    H224356   4.473   6.730   7.932  1.2319 -0.2577 -1.0817
  933TIP3   OH224357   1.509   6.440   7.320  0.2866 -0.0949  0.2807
  933TIP3    H124358   1.454   6.365   7.296  0.1956  0.0807 -0.0701
  933TIP3    H224359   1.539   6.421   7.409 -0.2902 -0.2211  0.4488
  934TIP3   OH224360   6.912   6.331   0.418 -0.2619 -0.2509 -0.0638
  934TIP3    H124361   6.882   6.256   0.367  0.9198 -1.1599  0.5204
  934TIP3    H224362   7.003   6.342   0.392  0.2530 -0.5005  1.5375
  935TIP3   OH224363   1.361   6.344   0.255 -0.5279  0.2018 -0.2234
  935TIP3    H124364   1.324   6.273   0.203 -0.7076  0.4697 -0.4621
  935TIP3    H224365   1.288   6.376   0.307 -0.2589 -0.3291  0.5029
  936TIP3   OH224366   6.447   5.274   8.351 -0.1640  0.6099 -0.2860
  936TIP3    H124367   6.522   5.220   8.326 -0.0534  0.9646 -0.7243
  936TIP3    H224368   6.469   5.305   8.439 -0.3599 -0.2888  0.0893
  937TIP3   OH224369   5.783   6.562   3.008  0.3286  0.4928 -0.5798
  937TIP3    H124370   5.760   6.483   2.959  1.3289 -0.5433  0.5392
  937TIP3    H224371   5.803   6.531   3.096 -0.4992  2.1819  0.2572
  938TIP3   OH224372   4.878   4.831   1.460 -0.1817  0.3407  0.1804
  938TIP3    H124373   4.809   4.856   1.522 -1.3198 -0.8682 -0.5293
  938TIP3    H224374   4.870   4.895   1.389 -1.8063 -0.8088 -0.7344
  939TIP3   OH224375   5.368   3.353   1.828  0.2363 -0.3644  0.3639
  939TIP3    H124376   5.388   3.446   1.816 -1.1169 -0.2637 -1.5857
  939TIP3    H224377   5.330   3.326   1.744 -0.5829 -2.3597  1.3225
  940TIP3   OH224378   0.352   0.884   2.055  0.0578  0.4232 -0.4467
  940TIP3    H124379   0.398   0.883   2.139 -1.6026 -0.4757  0.4846
  940TIP3    H224380   0.343   0.977   2.034  0.1891  0.6738  0.5469
  941TIP3   OH224381   2.296   6.603   1.302 -0.2268  0.1815  0.9227
  941TIP3    H124382   2.205   6.628   1.287 -1.0709  1.2858  6.0123
  941TIP3    H224383   2.345   6.685   1.294  0.5001 -0.4042 -1.7714
  942TIP3   OH224384   1.092   6.481   1.782 -0.5131 -0.2255 -0.2567
  942TIP3    H124385   1.024   6.417   1.799 -0.1391  0.1507  3.2818
  942TIP3    H224386   1.045   6.563   1.766 -0.9301 -0.2896  0.6216
  943TIP3   OH224387   5.158   4.114   1.573 -0.2539  0.1294  0.4810
  943TIP3    H124388   5.120   4.070   1.497 -1.5655 -1.9905  2.2528
  943TIP3    H224389   5.248   4.081   1.578 -0.5758 -0.7430  0.5863
  944TIP3   OH224390   2.245   5.144   0.951  0.1898  0.1782  0.5343
  944TIP3    H124391   2.322   5.178   0.905  0.0899  0.9172  0.9035
  944TIP3    H224392   2.234   5.202   1.026 -0.1313 -0.5364  1.0470
  945TIP3   OH224393   5.445   3.599   7.490  0.1462  0.4350 -0.0301
  945TIP3    H124394   5.372   3.539   7.505  0.5905 -0.5053 -1.4849
  945TIP3    H224395   5.515   3.543   7.457  0.3839  1.8124 -2.0092
  946TIP3   OH224396   6.075   4.429   0.402 -0.1693  0.4864  0.2715
  946TIP3    H124397   6.110   4.379   0.328 -3.0800  0.2960 -1.1067
  946TIP3    H224398   6.077   4.368   0.475 -2.4737 -1.3930 -1.0777
  947TIP3   OH224399   6.551   2.126   2.106 -0.6187 -0.4273 -0.1603
  947TIP3    H124400   6.607   2.204   2.098  0.6481 -1.2056  0.7645
  947TIP3    H224401   6.515   2.114   2.018  0.4432  0.2667 -0.7183
  948TIP3   OH224402   3.779   5.228   2.010  0.0531  0.5580  0.3786
  948TIP3    H124403   3.727   5.204   2.087 -2.1669  2.5403 -0.3923
  948TIP3    H224404   3.807   5.318   2.027 -0.7390  1.1447 -1.2146
  949TIP3   OH224405   4.004   2.226   2.190  0.0445  0.3352 -0.6146
  949TIP3    H124406   3.970   2.254   2.274 -1.1351  0.8923 -1.2609
  949TIP3    H224407   4.036   2.306   2.149 -0.5418  0.2701 -1.2119
  950TIP3   OH224408   4.692   5.646   1.088  0.4583 -0.4955  0.2894
  950TIP3    H124409   4.781   5.665   1.116  0.3926 -0.2598  0.3416
  950TIP3    H224410   4.689   5.673   0.996  0.2995 -0.0289  0.4278
  951TIP3   OH224411   4.349   3.654   1.666  0.3019 -0.3066  0.0366
  951TIP3    H124412   4.324   3.574   1.712 -1.0050 -0.7834 -1.4182
  951TIP3    H224413   4.404   3.701   1.728 -0.0798 -1.6577  1.4639
  952TIP3   OH224414   0.252   2.375   8.232  0.0743  0.0384  0.2408
  952TIP3    H124415   0.323   2.402   8.175 -2.6868  0.1868 -3.5370
  952TIP3    H224416   0.209   2.456   8.259  0.9069 -0.0728  2.0548
  953TIP3   OH224417   6.396   4.805   8.217  0.1587  0.6661 -0.8181
  953TIP3    H124418   6.303   4.825   8.229  0.6637  2.3555  0.6004
  953TIP3    H224419   6.440   4.890   8.219  2.0943 -0.2584  2.2956
  954TIP3   OH224420   2.415   1.130   8.137 -0.5285  0.4919  0.2389
  954TIP3    H124421   2.329   1.134   8.179  0.6838 -1.5612  3.2474
  954TIP3    H224422   2.417   1.045   8.093  0.0245  0.4571  0.3272
  955TIP3   OH224423   5.700   6.042   1.496  0.5284 -0.5391 -0.0391
  955TIP3    H124424   5.712   6.118   1.553 -0.5580 -0.5914  0.2784
  955TIP3    H224425   5.781   5.991   1.506  0.8839  0.1131  0.4444
  956TIP3   OH224426   0.039   4.624   1.998 -0.0125  0.2248 -0.1122
  956TIP3    H124427  -0.012   4.677   1.937  0.3496 -0.5287 -1.0982
  956TIP3    H224428   0.128   4.626   1.964 -0.4875 -3.6709 -2.2409
  957TIP3   OH224429   2.199   2.992   7.904  0.3443  0.2068  0.1299
  957TIP3    H124430   2.134   3.012   7.972 -0.3915 -2.9039  0.4823
  957TIP3    H224431   2.242   3.076   7.887 -0.1265  1.3467  3.6869
  958TIP3   OH224432   0.756   4.974   7.853  0.0137  0.4479 -0.1059
  958TIP3    H124433   0.829   4.917   7.828  1.5396  2.3851 -0.4126
  958TIP3    H224434   0.778   5.058   7.812 -3.4180  0.6484 -1.8559
  959TIP3   OH224435   0.378   5.087   0.974 -0.2469  0.1474  0.3077
  959TIP3    H124436   0.326   5.098   0.894 -2.6134 -2.2875  1.3817
  959TIP3    H224437   0.469   5.081   0.942 -1.2779 -4.0491 -2.7769
  960TIP3   OH224438   6.522   6.584   0.434 -0.4333 -0.3260 -0.3142
  960TIP3    H124439   6.613   6.582   0.407 -0.7325  0.6592 -1.4862
  960TIP3    H224440   6.524   6.567   0.528  0.9267 -0.4709 -0.3520
  961TIP3   OH224441   0.468   6.524   7.980  0.3406 -0.5882  0.3520
  961TIP3    H124442   0.401   6.456   7.973  0.2311 -0.3324 -2.2163
  961TIP3    H224443   0.509   6.510   8.065 -1.5614 -2.0693  1.0770
  962TIP3   OH224444   0.470   2.733   7.479 -0.4703 -0.1113  0.3853
  962TIP3    H124445   0.535   2.666   7.461 -0.7247 -0.3731  0.4296
  962TIP3    H224446   0.503   2.811   7.435  1.3326  0.5784  2.7426
  963TIP3   OH224447   0.703   6.148   0.570 -0.6139  0.0966  0.4595
  963TIP3    H124448   0.798   6.145   0.581 -0.4326  1.8873 -0.2226
  963TIP3    H224449   0.685   6.238   0.544 -2.5546 -0.1139  0.9194
  964TIP3   OH224450   2.067   3.501   2.096  0.0467  0.1039  0.2972
  964TIP3    H124451   2.050   3.549   2.015  1.4151  1.1538  0.6028
  964TIP3    H224452   2.161   3.487   2.096  0.5122  2.3885  2.8603
  965TIP3   OH224453   2.419   4.190   7.485  0.8904  0.0397 -0.1829
  965TIP3    H124454   2.366   4.111   7.474 -0.8373  1.0058  0.8511
  965TIP3    H224455   2.494   4.176   7.427 -1.5591 -0.4133 -3.5173
  966TIP3   OH224456   0.258   2.886   8.146 -0.4542  0.5355  0.6950
  966TIP3    H124457   0.166   2.900   8.124 -0.4964 -2.3887 -1.6905
  966TIP3    H224458   0.257   2.836   8.227 -0.8699  1.6824  1.4114
  967TIP3   OH224459   3.131   3.698   3.031  0.4452 -0.5354 -0.3716
  967TIP3    H124460   3.120   3.634   3.100 -0.2016  0.1556  0.1785
  967TIP3    H224461   3.226   3.704   3.018  0.5825 -0.5851  0.5427
  968TIP3   OH224462   0.391   0.070   1.071 -0.0014 -0.4629 -0.4871
  968TIP3    H124463   0.319   0.127   1.100  0.5152 -0.2182  0.3515
  968TIP3    H224464   0.363   0.038   0.985 -0.5993  0.5369 -0.6818
  969TIP3   OH224465   5.665   2.860   7.296  0.2860 -0.2448  0.2516
  969TIP3    H124466   5.660   2.775   7.251 -1.0639 -1.0075  1.7417
  969TIP3    H224467   5.574   2.889   7.303  0.7310  1.3888 -0.2852
  970TIP3   OH224468   1.036   3.604   2.528 -0.0948 -0.2318 -0.3565
  970TIP3    H124469   1.104   3.583   2.592  1.5191 -0.6115 -2.0798
  970TIP3    H224470   0.986   3.523   2.519  0.3178 -0.4989 -0.2989
  971TIP3   OH224471   4.693   1.722   0.355  0.6668 -0.2202  0.6773
  971TIP3    H124472   4.754   1.764   0.294 -0.2222  0.5391  0.2781
  971TIP3    H224473   4.701   1.773   0.435  1.6430 -1.0559  1.1286
  972TIP3   OH224474   4.130   4.566   7.745  0.9170 -0.1338  0.0199
  972TIP3    H124475   4.210   4.590   7.790  2.2676 -1.8317 -1.3074
  972TIP3    H224476   4.151   4.574   7.652 -1.2383  1.6519 -0.4030
  973TIP3   OH224477   6.966   3.673   2.387 -0.3923 -0.6177 -0.0805
  973TIP3    H124478   6.975   3.622   2.306 -2.4983 -0.8827 -0.2125
  973TIP3    H224479   6.881   3.646   2.422  0.7361 -0.9842  2.5851
  974TIP3   OH224480   3.816   4.610   1.453  0.2774 -0.3438 -0.4097
  974TIP3    H124481   3.757   4.669   1.499 -0.7605 -1.6553 -0.0198
  974TIP3    H224482   3.808   4.527   1.499  3.4174 -0.2825  0.5063
  975TIP3   OH224483   5.008   3.986   1.367  0.4744  0.0058  0.3496
  975TIP3    H124484   5.050   3.907   1.400  0.9974 -0.9133 -2.2866
  975TIP3    H224485   4.919   3.958   1.344  0.3652  0.4088  0.2673
  976TIP3   OH224486   3.950   1.592   8.337  0.3658 -0.2676  0.0508
  976TIP3    H124487   3.866   1.552   8.357  0.2356  0.9539  2.2889
  976TIP3    H224488   3.981   1.627   8.421  2.9770 -0.4201 -0.7551
  977TIP3   OH224489   1.405   6.125   0.857 -0.2748 -0.4575  0.1720
  977TIP3    H124490   1.396   6.178   0.937 -0.7699 -1.4171  0.7716
  977TIP3    H224491   1.499   6.119   0.843 -0.0808 -1.8947  1.8181
  978TIP3   OH224492   2.520   4.749   0.729  0.6124 -0.3095  0.3202
  978TIP3    H124493   2.581   4.687   0.770  1.3262  0.9607  1.2413
  978TIP3    H224494   2.552   4.758   0.639  1.9901  0.5381  0.8616
  979TIP3   OH224495   2.359   0.371   0.674 -0.1338 -0.0932 -0.4755
  979TIP3    H124496   2.381   0.464   0.683  0.5200 -0.2826  0.0395
  979TIP3    H224497   2.377   0.351   0.582 -1.1330  0.4937 -0.8048
  980TIP3   OH224498   6.633   2.731   2.088  0.3354  0.2997  0.9934
  980TIP3    H124499   6.562   2.705   2.146  1.0836  0.6652  2.1184
  980TIP3    H224500   6.634   2.666   2.018 -0.5625 -0.1705  1.4140
  981TIP3   OH224501   3.395   4.783   2.333 -0.2351  0.6937 -0.4852
  981TIP3    H124502   3.360   4.767   2.246  0.3843 -0.4595 -0.5502
  981TIP3    H224503   3.404   4.878   2.339 -0.1414  0.7773 -1.7248
  982TIP3   OH224504   1.379   2.751   1.525 -0.2057 -0.4468 -0.2595
  982TIP3    H124505   1.389   2.787   1.613 -0.2339 -1.8292  0.3267
  982TIP3    H224506   1.285   2.760   1.507 -0.2422 -0.3984 -0.0541
  983TIP3   OH224507   5.098   3.771   7.768  0.0113 -0.0154  0.4760
  983TIP3    H124508   5.186   3.746   7.737  0.1292 -0.2501  0.9971
  983TIP3    H224509   5.062   3.823   7.696  1.2213  1.5142  0.9055
  984TIP3   OH224510   3.300   3.395   1.726 -0.1924  0.3499 -0.5115
  984TIP3    H124511   3.262   3.422   1.809  0.2668  0.7608 -0.4300
  984TIP3    H224512   3.246   3.437   1.660  0.0801  0.8915 -0.3954
  985TIP3   OH224513   1.952   3.687   1.917  0.3186  0.1800  0.2337
  985TIP3    H124514   1.910   3.752   1.974 -0.7820 -1.4363  1.3413
  985TIP3    H224515   1.935   3.719   1.828 -0.2011  1.3938  0.7414
  986TIP3   OH224516   4.691   4.347   1.519 -0.1327  0.4205  0.1770
  986TIP3    H124517   4.656   4.316   1.435  0.7035  2.1549 -0.8686
  986TIP3    H224518   4.786   4.343   1.508 -0.0172  0.6832  1.0343
  987TIP3   OH224519   0.838   4.797   0.082  0.6075 -0.0409 -0.5981
  987TIP3    H124520   0.844   4.863   0.013 -1.4626  0.4518 -0.3833
  987TIP3    H224521   0.802   4.720   0.039 -1.2241  0.4427 -0.0435
  988TIP3   OH224522   2.693   6.941   2.369  0.0795 -0.1797 -0.0837
  988TIP3    H124523   2.750   6.875   2.408  0.0726  0.8637  1.8617
  988TIP3    H224524   2.747   7.020   2.367  0.4820 -0.4249 -3.4557
  989TIP3   OH224525   1.240   3.741   0.140 -0.6513 -0.4385 -1.0314
  989TIP3    H124526   1.183   3.799   0.088 -0.9574  0.1429 -0.0720
  989TIP3    H224527   1.181   3.702   0.205 -0.1621 -0.7007 -0.7423
  990TIP3   OH224528   5.508   6.290   2.727 -0.2633 -0.0068 -0.2275
  990TIP3    H124529   5.458   6.249   2.798 -0.6488  1.2525  0.2576
  990TIP3    H224530   5.457   6.367   2.704 -0.5386 -0.7718 -2.4210
  991TIP3   OH224531   5.571   3.147   1.062 -0.0780  0.2061  0.7189
  991TIP3    H124532   5.513   3.221   1.080  1.4281  1.8381 -0.6617
  991TIP3    H224533   5.616   3.131   1.145  0.2162  1.4697  0.8264
  992TIP3   OH224534   0.891   3.889   2.451  0.3160 -0.0963  0.2424
  992TIP3    H124535   0.854   3.933   2.374 -1.7400 -2.7784 -0.4589
  992TIP3    H224536   0.911   3.961   2.511 -0.9233  1.9195 -1.5651
  993TIP3   OH224537   0.294   1.483   1.953 -0.2062 -0.0537 -0.0713
  993TIP3    H124538   0.199   1.476   1.963 -0.1812  0.9624  1.1448
  993TIP3    H224539   0.327   1.487   2.043  1.0512 -1.0017 -0.4697
  994TIP3   OH224540   5.369   4.925   1.149  0.3643 -0.6702 -0.1303
  994TIP3    H124541   5.405   4.837   1.134  0.9167 -0.2447 -1.4215
  994TIP3    H224542   5.317   4.916   1.228 -1.0429 -2.6115 -1.1999
  995TIP3   OH224543   4.294   3.731   1.387 -0.1717  0.1725 -0.0567
  995TIP3    H124544   4.343   3.688   1.457 -0.6061 -0.3714 -0.0818
  995TIP3    H224545   4.291   3.666   1.317 -0.0660  0.5758 -0.4346
  996TIP3   OH224546   1.417   1.154   7.455 -0.2142 -0.3146 -0.2354
  996TIP3    H124547   1.421   1.249   7.462  0.0417 -0.3542  0.1856
  996TIP3    H224548   1.364   1.138   7.377 -1.1437  0.1679  0.2823
  997TIP3   OH224549   2.254   5.634   0.422  0.1183  0.2193  0.8423
  997TIP3    H124550   2.212   5.648   0.507 -1.2185 -0.0879  0.2714
  997TIP3    H224551   2.182   5.607   0.364  0.6186  2.1876 -0.8500
  998TIP3   OH224552   6.994   2.866   1.614 -0.5634  0.2047  0.2822
  998TIP3    H124553   7.058   2.931   1.643  0.4889 -0.4563 -0.4736
  998TIP3    H224554   7.047   2.793   1.584 -1.6588 -0.0440 -1.1360
  999TIP3   OH224555   6.450   0.100   7.685 -0.1422  0.7621 -0.3070
  999TIP3    H124556   6.362   0.125   7.712  0.0660  0.0271  1.1824
  999TIP3    H224557   6.436   0.038   7.613 -0.8873  0.1536  0.3358
 1000TIP3   OH224558   6.409   5.666   7.822 -1.0173  0.0705  0.6527
 1000TIP3    H124559   6.438   5.708   7.741 -1.1016 -0.5575  0.2932
 1000TIP3    H224560   6.317   5.646   7.806 -1.4747  1.3614  1.4970
 1001TIP3   OH224561   2.488   5.920   0.812 -0.3808  0.1988 -0.4848
 1001TIP3    H124562   2.461   5.981   0.881 -0.6751 -2.0844  1.5649
 1001TIP3    H224563   2.411   5.912   0.757 -0.7362  0.7798 -0.0902
 1002TIP3   OH224564   1.205   5.588   8.188  0.0618 -0.6397 -0.2573
 1002TIP3    H124565   1.209   5.667   8.134  2.2054 -0.3972  0.1589
 1002TIP3    H224566   1.190   5.517   8.125 -3.4023  0.1208 -0.5045
 1003TIP3   OH224567   6.088   3.750   2.126 -0.3926 -0.1486 -0.0897
 1003TIP3    H124568   6.153   3.684   2.151 -0.5293 -0.5185 -0.6884
 1003TIP3    H224569   6.005   3.715   2.156 -0.4465 -0.1815 -0.2737
 1004TIP3   OH224570   3.357   3.548   0.863  0.1144 -0.0555  0.5970
 1004TIP3    H124571   3.365   3.452   0.867 -2.0758 -0.2859  0.6332
 1004TIP3    H224572   3.285   3.563   0.801 -0.3247  1.5312  1.4463
 1005TIP3   OH224573   2.883   0.999   0.766 -0.7042  0.2696  0.1506
 1005TIP3    H124574   2.948   1.056   0.724 -0.5176  0.0309  0.1171
 1005TIP3    H224575   2.842   0.952   0.693 -1.6601  1.1925  0.0667
 1006TIP3   OH224576   5.739   2.966   2.674 -0.4234 -0.1061  0.1883
 1006TIP3    H124577   5.665   2.946   2.615 -1.0425  1.9627  0.1705
 1006TIP3    H224578   5.704   2.951   2.762 -0.9692  1.0753  0.1902
 1007TIP3   OH224579   3.981   3.884   0.114 -0.0759  0.0449 -0.4274
 1007TIP3    H124580   3.934   3.865   0.195 -0.6403 -0.6078 -0.8834
 1007TIP3    H224581   4.019   3.970   0.127  0.9170 -0.5711  1.0137
 1008TIP3   OH224582   3.899   1.311   1.524 -0.7920 -0.0022  0.2339
 1008TIP3    H124583   3.825   1.331   1.468 -2.1456  0.6853  2.1748
 1008TIP3    H224584   3.908   1.216   1.519 -1.5317 -0.0457 -0.3616
 1009TIP3   OH224585   1.158   0.912   7.372 -0.3670 -0.0715  0.1366
 1009TIP3    H124586   1.120   0.835   7.416  1.2393  0.3547  2.4636
 1009TIP3    H224587   1.245   0.882   7.343  0.4262  0.9134  1.4029
 1010TIP3   OH224588   4.627   5.993   0.412 -0.1746 -0.8257 -0.0749
 1010TIP3    H124589   4.565   5.951   0.472 -0.1734 -1.9030 -0.7914
 1010TIP3    H224590   4.630   6.084   0.440  0.2932 -1.3989  1.9538
 1011TIP3   OH224591   1.463   4.605   8.407 -0.2520 -0.2633 -0.0623
 1011TIP3    H124592   1.501   4.551   8.477 -0.9243 -0.3455  0.2510
 1011TIP3    H224593   1.388   4.649   8.448 -0.2373  0.2314 -0.5481
 1012TIP3   OH224594   0.482   3.863   2.827 -0.6273 -0.1471  0.4806
 1012TIP3    H124595   0.406   3.916   2.802 -1.1134 -0.9341  0.2483
 1012TIP3    H224596   0.547   3.880   2.759 -0.8987 -0.0975  0.2332
 1013TIP3   OH224597   4.072   0.224   2.589 -0.0430  0.5287  0.0144
 1013TIP3    H124598   4.111   0.231   2.676 -2.8581  2.1068  1.2995
 1013TIP3    H224599   4.122   0.285   2.535  0.7995  0.6652  0.9222
 1014TIP3   OH224600   4.141   1.396   2.110  0.1201  0.2923  0.2195
 1014TIP3    H124601   4.052   1.363   2.098 -0.0277  0.9390 -0.5844
 1014TIP3    H224602   4.164   1.373   2.200 -1.1348  0.7735  0.6797
 1015TIP3   OH224603   5.481   0.751   1.206  0.6823 -0.1422  0.1126
 1015TIP3    H124604   5.421   0.822   1.230 -0.5163 -1.7377  2.1924
 1015TIP3    H224605   5.488   0.699   1.285  2.3673 -1.7833 -1.0450
 1016TIP3   OH224606   3.431   6.461   8.072 -0.0564 -0.2888 -0.6789
 1016TIP3    H124607   3.489   6.386   8.058  0.6614 -0.5524  2.6901
 1016TIP3    H224608   3.371   6.433   8.141  0.4390  2.2077  0.9426
 1017TIP3   OH224609   0.105   0.409   2.126  0.2048  0.2033 -0.3469
 1017TIP3    H124610   0.154   0.330   2.102  0.4807  0.5294 -0.8516
 1017TIP3    H224611   0.136   0.430   2.214  0.9730  0.4002 -0.6535
 1018TIP3   OH224612   1.090   2.842   7.921 -0.4872  0.1863 -0.0624
 1018TIP3    H124613   1.114   2.816   7.832  1.1898  1.6783 -0.1018
 1018TIP3    H224614   1.142   2.784   7.977 -0.2223  0.4021 -0.0837
 1019TIP3   OH224615   6.930   0.565   1.762  0.0758  0.2532  0.5937
 1019TIP3    H124616   6.986   0.612   1.823 -0.1371 -0.5522  1.4301
 1019TIP3    H224617   6.841   0.587   1.789 -0.0491  1.3851 -0.6192
 1020TIP3   OH224618   0.014   1.943   1.981 -0.3061  0.0855 -0.2899
 1020TIP3    H124619   0.059   1.986   1.908 -0.8687 -1.3174 -1.5324
 1020TIP3    H224620  -0.061   1.899   1.940  1.1092 -3.4090  0.5381
 1021TIP3   OH224621   6.326   1.759   1.884 -0.0334 -0.2920  0.2747
 1021TIP3    H124622   6.378   1.720   1.814  0.0301 -1.2742  0.8520
 1021TIP3    H224623   6.240   1.773   1.845  0.0955 -0.5024 -0.0917
 1022TIP3   OH224624   6.201   4.574   7.817  0.0376  0.1194  0.0950
 1022TIP3    H124625   6.279   4.530   7.782 -0.3602 -0.1701 -0.4413
 1022TIP3    H224626   6.168   4.514   7.884 -0.9951 -0.8388 -1.2246
 1023TIP3   OH224627   0.188   4.900   7.721 -0.0709 -0.4335 -0.5322
 1023TIP3    H124628   0.225   4.891   7.634  2.0994  0.3297  0.2471
 1023TIP3    H224629   0.120   4.966   7.712  0.6196  0.1652 -1.5064
 1024TIP3   OH224630   0.927   2.315   2.590 -0.4075 -0.2316 -0.4858
 1024TIP3    H124631   1.018   2.303   2.563  0.1170  0.0733  1.0192
 1024TIP3    H224632   0.888   2.367   2.520  0.7642  0.2101 -0.8396
 1025TIP3   OH224633   0.540   4.391   0.097  0.8760  0.4775  0.3559
 1025TIP3    H124634   0.544   4.403   0.192  3.5956 -0.9324  0.5267
 1025TIP3    H224635   0.474   4.454   0.068 -0.5830  0.4473  3.2183
 1026TIP3   OH224636   5.292   3.618   8.163 -0.4736  0.8205  0.0830
 1026TIP3    H124637   5.325   3.637   8.075  1.1929  1.2806  0.7669
 1026TIP3    H224638   5.371   3.600   8.214 -1.4646 -0.0952  1.3381
 1027TIP3   OH224639   1.921   3.083   0.576  0.1219 -0.3310 -0.0569
 1027TIP3    H124640   1.990   3.149   0.567 -0.4283  0.3106  0.3851
 1027TIP3    H224641   1.944   3.035   0.655  0.4564 -0.5927 -0.3115
 1028TIP3   OH224642   1.546   6.428   0.057  0.2270  0.1596 -0.7847
 1028TIP3    H124643   1.503   6.391   0.135 -0.1531  1.7006 -0.2283
 1028TIP3    H224644   1.473   6.453  -0.000  0.5134 -1.6661 -2.0172
 1029TIP3   OH224645   3.583   5.938   0.856  0.3168 -0.3675  0.0726
 1029TIP3    H124646   3.640   5.949   0.780  0.2628 -1.4571 -0.1516
 1029TIP3    H224647   3.565   5.844   0.859 -2.1529  0.0220 -0.3782
 1030TIP3   OH224648   1.049   1.192   2.644  0.2215  0.7464 -0.1111
 1030TIP3    H124649   1.075   1.191   2.736  1.5649 -1.0759 -0.4603
 1030TIP3    H224650   1.100   1.263   2.605  0.6252  0.6870  0.3014
 1031TIP3   OH224651   2.511   4.182   1.951 -0.6499  0.4679 -0.1278
 1031TIP3    H124652   2.586   4.219   1.903 -0.3147 -0.9274 -0.7643
 1031TIP3    H224653   2.478   4.254   2.005 -0.1676  1.7118 -1.4285
 1032TIP3   OH224654   5.738   4.002   1.768  0.0510  0.0385  0.3374
 1032TIP3    H124655   5.798   3.956   1.827  0.0017 -0.9042 -0.3285
 1032TIP3    H224656   5.651   3.967   1.790  0.2271 -1.9293 -1.6454
 1033TIP3   OH224657   2.331   5.630   1.564 -0.2775  0.4289  0.3453
 1033TIP3    H124658   2.331   5.556   1.626  0.8937  0.0930 -0.0148
 1033TIP3    H224659   2.297   5.703   1.614  0.3185  0.0752  1.3052
 1034TIP3   OH224660   4.487   0.083   3.332 -0.1643 -0.0105 -0.1200
 1034TIP3    H124661   4.532   0.103   3.414  0.0433  0.3452 -0.3206
 1034TIP3    H224662   4.536   0.010   3.294  0.9255  1.0641 -0.8704
 1035TIP3   OH224663   3.034   0.782   7.849  0.2079 -0.1634 -0.3805
 1035TIP3    H124664   3.124   0.812   7.863  0.8994 -1.4063 -1.8023
 1035TIP3    H224665   3.044   0.693   7.813 -1.6129 -0.6363  0.1774
 1036TIP3   OH224666   4.244   4.033   1.079 -0.5887  0.0507 -0.1610
 1036TIP3    H124667   4.163   4.004   1.121 -0.2833  1.0325  1.1859
 1036TIP3    H224668   4.311   4.025   1.148 -0.3366  3.0562  0.0820
 1037TIP3   OH224669   4.965   2.246   7.631  0.1690  0.0437 -0.4911
 1037TIP3    H124670   4.975   2.288   7.545 -0.8840 -0.2195 -0.7604
 1037TIP3    H224671   4.894   2.295   7.673 -0.6310 -1.0277 -0.5486
 1038TIP3   OH224672   4.546   4.517   1.909  0.3154  0.8224  0.5891
 1038TIP3    H124673   4.545   4.613   1.909 -0.5847  0.8316  0.1266
 1038TIP3    H224674   4.485   4.494   1.839  2.3792 -0.0943 -1.0144
 1039TIP3   OH224675   3.318   3.245   0.049  0.6087 -0.2918  0.5168
 1039TIP3    H124676   3.248   3.200   0.003  0.1698  0.1840  0.7071
 1039TIP3    H224677   3.397   3.225  -0.002  0.3656 -0.9591  0.3947
 1040TIP3   OH224678   1.924   6.199   2.241 -0.3345 -0.0915 -0.1548
 1040TIP3    H124679   1.853   6.136   2.255  0.7647 -1.3898 -0.2650
 1040TIP3    H224680   2.004   6.151   2.264  0.5636  1.1716 -0.5354
 1041TIP3   OH224681   2.724   1.163   8.043 -0.1946 -0.1226  0.1295
 1041TIP3    H124682   2.720   1.126   7.955 -0.4879  1.6277 -0.6342
 1041TIP3    H224683   2.640   1.139   8.083 -0.6619  0.2822 -0.5893
 1042TIP3   OH224684   4.485   3.372   1.353  0.1575  0.5479 -0.0478
 1042TIP3    H124685   4.420   3.302   1.364  0.6274  0.1590  0.3149
 1042TIP3    H224686   4.438   3.452   1.377 -0.2980  0.3166 -0.1583
 1043TIP3   OH224687   6.225   3.543   1.254 -0.0483 -0.3774  0.0577
 1043TIP3    H124688   6.163   3.473   1.275  0.9901 -1.3108  0.0550
 1043TIP3    H224689   6.197   3.617   1.309 -1.2266 -0.7299 -0.0308
 1044TIP3   OH224690   2.112   6.942   8.027  0.4604 -0.1253 -0.2954
 1044TIP3    H124691   2.113   6.955   7.932  2.2696 -1.6867 -0.5580
 1044TIP3    H224692   2.070   6.856   8.039 -0.8153  0.5795  0.4285
 1045TIP3   OH224693   3.050   5.987   7.366  0.3768  0.0251 -0.8219
 1045TIP3    H124694   3.047   5.936   7.447 -0.1257  1.8108  0.3275
 1045TIP3    H224695   3.140   6.020   7.362  0.8341 -1.2249 -1.7984
 1046TIP3   OH224696   3.902   0.769   0.927 -0.6955  0.7998  0.1420
 1046TIP3    H124697   3.872   0.679   0.912  0.0269  0.2465  1.8611
 1046TIP3    H224698   3.942   0.767   1.013  1.6011  2.2143 -0.8193
 1047TIP3   OH224699   0.299   3.454   0.301  0.0713  0.3645  0.5040
 1047TIP3    H124700   0.225   3.428   0.245  0.6540  2.5397 -1.4313
 1047TIP3    H224701   0.261   3.517   0.362 -0.2652 -0.9403  1.7035
 1048TIP3   OH224702   2.071   2.612   0.911 -0.4097 -0.1183  0.0709
 1048TIP3    H124703   2.041   2.662   0.987 -1.2451 -0.6028  0.0707
 1048TIP3    H224704   2.100   2.529   0.947 -1.7982 -0.7632 -0.2271
 1049TIP3   OH224705   1.694   3.050   8.404  0.7113  0.3683 -0.4998
 1049TIP3    H124706   1.778   3.093   8.420 -0.2780  2.7346 -1.2096
 1049TIP3    H224707   1.650   3.050   8.489  0.7810  0.6531 -0.4636
 1050TIP3   OH224708   0.558   3.657   7.543  0.2497  0.2991 -0.4102
 1050TIP3    H124709   0.571   3.568   7.575  0.4595  0.7363  0.7588
 1050TIP3    H224710   0.500   3.647   7.468 -1.4104 -0.6456  0.9306
 1051TIP3   OH224711   0.204   4.687   1.038  0.0595  0.1869 -0.2258
 1051TIP3    H124712   0.187   4.770   1.081 -1.2581  0.6852 -1.6135
 1051TIP3    H224713   0.136   4.628   1.071 -0.3052  0.2769 -0.7942
 1052TIP3   OH224714   6.342   6.271   8.388  0.2536 -0.1735  0.4303
 1052TIP3    H124715   6.338   6.316   8.472  0.4078 -0.4690  0.5970
 1052TIP3    H224716   6.434   6.247   8.378  0.1726 -0.4541  0.3440
 1053TIP3   OH224717   2.122   1.821   7.331 -0.0130  0.3486  0.0717
 1053TIP3    H124718   2.050   1.881   7.352  0.0412 -0.0111  1.3930
 1053TIP3    H224719   2.199   1.861   7.372  0.4649  0.4818 -0.9179
 1054TIP3   OH224720   5.853   1.859   0.588 -0.0978  0.3064 -0.5011
 1054TIP3    H124721   5.773   1.808   0.574  0.7958 -2.0373  1.9700
 1054TIP3    H224722   5.853   1.879   0.682  1.1841  2.1915 -0.8299
 1055TIP3   OH224723   3.027   2.371   0.364  0.1220  0.1000 -0.0671
 1055TIP3    H124724   3.103   2.428   0.379  0.0462 -0.0823  1.0503
 1055TIP3    H224725   2.953   2.419   0.401 -0.4986  0.6863 -1.9445
 1056TIP3   OH224726   3.572   2.831   0.034 -0.0159 -0.0138  0.7510
 1056TIP3    H124727   3.556   2.814  -0.059 -1.6061 -0.9377  1.1441
 1056TIP3    H224728   3.630   2.907   0.036  1.5272 -1.0883 -1.0060
 1057TIP3   OH224729   2.031   3.714   8.179 -0.0198 -0.1984 -0.3977
 1057TIP3    H124730   2.054   3.806   8.193 -2.4140  0.4784 -0.5477
 1057TIP3    H224731   1.936   3.711   8.186 -0.1536 -2.3857 -1.9835
 1058TIP3   OH224732   4.187   3.549   2.595  0.1611  0.0695 -0.3192
 1058TIP3    H124733   4.207   3.469   2.545 -1.5651 -0.5764 -0.0354
 1058TIP3    H224734   4.227   3.533   2.681  0.1058 -0.3568 -0.3670
 1059TIP3   OH224735   3.362   5.198   7.035  0.3188  0.2309 -0.1874
 1059TIP3    H124736   3.391   5.129   6.976 -2.2618 -0.5007 -0.7092
 1059TIP3    H224737   3.337   5.152   7.115  2.2829  1.0525  0.9723
 1060TIP3   OH224738   2.378   4.320   2.135  0.4246 -0.0347  0.3049
 1060TIP3    H124739   2.321   4.397   2.135  1.6762  0.9555 -0.9765
 1060TIP3    H224740   2.338   4.260   2.197  0.0470  2.1304  2.2967
 1061TIP3   OH224741   6.358   2.109   1.595 -0.3774  0.0809 -0.0965
 1061TIP3    H124742   6.280   2.156   1.625 -1.6410 -0.8417 -1.7515
 1061TIP3    H224743   6.376   2.045   1.664  0.4986  1.9435  1.4916
 1062TIP3   OH224744   5.494   3.119   0.567  0.2596 -0.1245 -0.5754
 1062TIP3    H124745   5.551   3.195   0.561  2.0867 -1.3449  0.3495
 1062TIP3    H224746   5.522   3.062   0.495 -0.0006 -0.6044 -0.3075
 1063TIP3   OH224747   1.657   6.556   2.181  0.1515 -0.1050 -0.1250
 1063TIP3    H124748   1.725   6.506   2.226 -0.1952 -1.0861 -0.6622
 1063TIP3    H224749   1.698   6.640   2.161  0.2937  0.3930  2.0657
 1064TIP3   OH224750   6.120   2.724   1.591  0.4650 -0.4697 -0.1315
 1064TIP3    H124751   6.197   2.678   1.557 -1.2823 -3.1030 -0.7929
 1064TIP3    H224752   6.082   2.767   1.514 -0.2658 -1.5599 -0.3972
 1065TIP3   OH224753   3.237   2.303   7.865  0.3237 -0.1277 -0.3217
 1065TIP3    H124754   3.158   2.355   7.855 -0.0953 -1.0883 -2.7274
 1065TIP3    H224755   3.280   2.338   7.943 -1.6619  1.4459  0.1349
 1066TIP3   OH224756   1.335   1.991   2.645  0.0909 -0.3064 -0.2285
 1066TIP3    H124757   1.262   1.961   2.700 -0.2763 -0.3834 -0.7517
 1066TIP3    H224758   1.342   1.925   2.576 -1.3509  1.2501 -1.9616
 1067TIP3   OH224759   4.525   2.378   2.583  0.0700 -0.5788  0.6743
 1067TIP3    H124760   4.444   2.423   2.606  0.6163 -0.1444  1.8534
 1067TIP3    H224761   4.496   2.301   2.534 -0.9289  0.5441 -0.5759
 1068TIP3   OH224762   6.837   3.928   1.768 -0.1255  0.0386  0.3581
 1068TIP3    H124763   6.867   3.941   1.858  1.0393  0.5025 -0.0740
 1068TIP3    H224764   6.915   3.900   1.720 -1.0404 -1.6933 -0.2267
 1069TIP3   OH224765   5.762   3.422   0.827  0.3504  0.1884 -0.0365
 1069TIP3    H124766   5.839   3.467   0.794  0.8345 -0.4983  0.1436
 1069TIP3    H224767   5.714   3.396   0.748  1.1490 -0.8356 -0.1940
 1070TIP3   OH224768   6.544   6.543   3.354  0.0096  0.0785  0.2713
 1070TIP3    H124769   6.596   6.623   3.355 -0.0039  0.0925  0.0367
 1070TIP3    H224770   6.603   6.475   3.385  0.0124  0.1856  0.4993
 1071TIP3   OH224771   1.624   4.065   0.161  0.0160 -0.0781 -1.0345
 1071TIP3    H124772   1.605   4.073   0.254 -2.0452  0.9334 -1.4761
 1071TIP3    H224773   1.577   3.986   0.133  0.4867 -0.2856 -1.2467
 1072TIP3   OH224774   0.148   0.717   1.875  0.5892 -0.0887 -0.3837
 1072TIP3    H124775   0.192   0.742   1.956 -1.1015  0.6021  0.3798
 1072TIP3    H224776   0.194   0.766   1.806  2.1320 -0.7970  0.1020
 1073TIP3   OH224777   3.275   4.279   0.979  0.2565  0.3834 -0.0534
 1073TIP3    H124778   3.356   4.330   0.981  0.7776 -0.4239  0.1930
 1073TIP3    H224779   3.236   4.299   0.895 -0.3357  2.3556  0.6328
 1074TIP3   OH224780   0.961   1.837   8.318 -0.6386  0.0654  0.0071
 1074TIP3    H124781   1.020   1.767   8.345 -0.9392  0.4868  1.8562
 1074TIP3    H224782   0.943   1.886   8.398 -1.8606  1.1851 -0.9094
 1075TIP3   OH224783   1.337   3.072   1.174 -0.4390 -0.6341 -0.4910
 1075TIP3    H124784   1.297   3.074   1.261 -0.4324 -1.6257 -0.4621
 1075TIP3    H224785   1.412   3.132   1.180 -1.3736  0.5705 -0.2945
 1076TIP3   OH224786   6.959   5.445   1.388 -0.1208 -0.6795  0.0885
 1076TIP3    H124787   6.882   5.409   1.344 -0.1521  1.4027 -1.7862
 1076TIP3    H224788   7.033   5.422   1.331  0.0809  0.6190 -0.2124
 1077TIP3   OH224789   5.679   2.121   2.600 -0.0851 -0.2269 -0.3299
 1077TIP3    H124790   5.686   2.134   2.695  1.7116 -0.0195 -0.4670
 1077TIP3    H224791   5.671   2.209   2.564  1.4527 -0.1274 -0.4988
 1078TIP3   OH224792   1.265   3.082   0.125 -0.7906 -0.7119 -0.1007
 1078TIP3    H124793   1.299   3.118   0.207  0.9211 -0.4503 -0.8880
 1078TIP3    H224794   1.171   3.071   0.141 -0.2489 -2.4467  2.5505
 1079TIP3   OH224795   5.042   6.422   0.805 -0.4666 -0.0247 -0.0296
 1079TIP3    H124796   4.978   6.488   0.830  0.0151  0.5962 -0.3911
 1079TIP3    H224797   4.991   6.354   0.762 -1.0077 -0.0326  0.6036
 1080TIP3   OH224798   0.763   5.536   1.839  0.3263 -0.0659 -0.1408
 1080TIP3    H124799   0.829   5.586   1.885 -0.7125  0.7419  0.5308
 1080TIP3    H224800   0.749   5.584   1.757  0.9608 -0.5495 -0.5365
 1081TIP3   OH224801   6.391   0.203   8.310 -0.2005 -0.3136 -0.5708
 1081TIP3    H124802   6.297   0.194   8.297 -0.7767  2.3688  1.0174
 1081TIP3    H224803   6.414   0.133   8.371 -0.8069 -1.9093 -2.0926
 1082TIP3   OH224804   1.248   3.977   1.348 -0.5506  0.0819  0.2538
 1082TIP3    H124805   1.184   3.941   1.409 -1.5726  0.6281 -0.4605
 1082TIP3    H224806   1.266   3.905   1.287  0.8558 -0.6306  1.4430
 1083TIP3   OH224807   5.788   2.874   0.039  0.1684  0.5402  0.2013
 1083TIP3    H124808   5.741   2.957   0.031 -0.4542  0.2034  0.3001
 1083TIP3    H224809   5.852   2.889   0.109 -0.6154  0.6309  0.9132
 1084TIP3   OH224810   6.283   6.149   1.042  0.3013 -0.1759  0.1845
 1084TIP3    H124811   6.330   6.170   1.123 -1.1451 -0.1938  1.0587
 1084TIP3    H224812   6.310   6.059   1.022  0.3486 -0.3311  0.8956
 1085TIP3   OH224813   4.842   4.865   2.791  0.4357 -0.7290  0.2193
 1085TIP3    H124814   4.817   4.922   2.863 -0.4809 -0.3853 -0.3426
 1085TIP3    H224815   4.871   4.784   2.833  0.1849 -0.4342  0.9763
 1086TIP3   OH224816   0.321   4.287   1.456  0.2089 -0.5354 -0.0622
 1086TIP3    H124817   0.373   4.355   1.499  2.1431 -0.9748 -1.5675
 1086TIP3    H224818   0.234   4.326   1.447  0.5379  0.6776  1.5271
 1087TIP3   OH224819   0.454   3.921   3.295  0.0839  0.3311  0.3483
 1087TIP3    H124820   0.417   4.006   3.321 -1.5738 -0.3340  0.2893
 1087TIP3    H224821   0.472   3.877   3.379  0.0221  0.3482  0.3703
 1088TIP3   OH224822   6.982   5.558   0.611  0.0157  0.0486 -0.4105
 1088TIP3    H124823   6.913   5.609   0.568 -0.5292  3.0115  3.4408
 1088TIP3    H224824   7.064   5.593   0.576 -0.3929  2.8456  1.1209
 1089TIP3   OH224825   2.686   2.652   0.350  0.0038 -0.1467 -0.0629
 1089TIP3    H124826   2.632   2.649   0.272  0.5427 -3.2317 -0.4350
 1089TIP3    H224827   2.726   2.739   0.348 -1.9025  0.7663 -1.8358
 1090TIP3   OH224828   0.743   6.658   1.879  0.1150  0.2939 -0.0928
 1090TIP3    H124829   0.804   6.727   1.904 -0.4635  0.3242  1.3597
 1090TIP3    H224830   0.687   6.697   1.811  1.1903  0.5128 -0.8678
 1091TIP3   OH224831   0.960   3.598   1.715  0.1682  0.1911 -0.5452
 1091TIP3    H124832   1.041   3.556   1.744  0.8651  0.0946 -2.5022
 1091TIP3    H224833   0.940   3.557   1.631 -2.1586 -0.0628  0.0505
 1092TIP3   OH224834   5.720   5.257   0.132  0.1702  0.0322  0.0752
 1092TIP3    H124835   5.808   5.224   0.112  0.1784 -0.5669  1.0164
 1092TIP3    H224836   5.670   5.240   0.052  1.4864  2.7361 -1.4608
 1093TIP3   OH224837   1.207   6.798   0.651 -0.2933 -0.0753 -0.1362
 1093TIP3    H124838   1.278   6.825   0.709 -1.5953  4.4487 -0.2723
 1093TIP3    H224839   1.139   6.766   0.710 -0.0578  0.5364  0.4818
 1094TIP3   OH224840   6.668   2.700   2.748 -0.1500 -0.7551  0.0570
 1094TIP3    H124841   6.623   2.766   2.695 -0.3352 -0.8663  0.0736
 1094TIP3    H224842   6.614   2.621   2.738 -0.8025 -0.4913  1.2883
 1095TIP3   OH224843   2.125   4.816   2.965  0.2727  0.2567  0.1255
 1095TIP3    H124844   2.039   4.838   3.001 -1.5554 -2.6051 -2.0497
 1095TIP3    H224845   2.169   4.770   3.036 -1.1516 -0.7222  0.4115
 1096TIP3   OH224846   0.639   3.138   8.173  0.3710  0.1542 -0.4097
 1096TIP3    H124847   0.617   3.200   8.242  1.2335 -0.9545  0.8926
 1096TIP3    H224848   0.653   3.193   8.095  0.3207  1.5015  0.5048
 1097TIP3   OH224849   2.450   0.272   0.446 -0.1169  0.4315  0.1468
 1097TIP3    H124850   2.530   0.256   0.396  0.4055  1.5300  0.5928
 1097TIP3    H224851   2.406   0.187   0.449 -0.6423  0.4743 -2.9039
 1098TIP3   OH224852   5.426   2.103   0.366 -0.1471 -0.0081  0.1231
 1098TIP3    H124853   5.459   2.156   0.292  1.0691  2.3358  2.1893
 1098TIP3    H224854   5.468   2.018   0.355 -0.2643  0.1377 -2.0195
 1099TIP3   OH224855   2.547   1.522   1.545 -0.9998 -0.7946 -0.4643
 1099TIP3    H124856   2.635   1.494   1.520 -0.8269 -1.7473  1.0791
 1099TIP3    H224857   2.555   1.546   1.637 -1.8914  1.2741 -0.8654
 1100TIP3   OH224858   4.800   1.395   0.456  0.4798  0.7360  0.0055
 1100TIP3    H124859   4.890   1.388   0.426  0.3161 -0.1372 -0.3135
 1100TIP3    H224860   4.806   1.390   0.551  0.7102  0.0170 -0.0469
 1101TIP3   OH224861   6.332   3.954   1.675  0.4599 -0.1625 -0.3237
 1101TIP3    H124862   6.304   3.992   1.758 -0.4011 -2.0701  0.3108
 1101TIP3    H224863   6.427   3.956   1.678  0.4302  0.0852  0.5543
 1102TIP3   OH224864   0.057   1.745   7.997  0.2297  0.0941 -0.2551
 1102TIP3    H124865  -0.005   1.699   8.054 -0.5387  0.1342 -1.0436
 1102TIP3    H224866   0.122   1.679   7.973 -0.5955 -0.4719 -0.9920
 1103TIP3   OH224867   6.134   1.526   2.013 -0.4729 -0.4982  0.0511
 1103TIP3    H124868   6.120   1.619   2.028  1.1512 -0.2484  0.2608
 1103TIP3    H224869   6.129   1.516   1.918  1.8488  0.3247 -0.2271
 1104TIP3   OH224870   1.580   3.355   0.156 -0.1973 -0.0023 -0.2932
 1104TIP3    H124871   1.614   3.434   0.198 -2.4553  1.4771 -1.0421
 1104TIP3    H224872   1.539   3.306   0.227 -1.7657  1.2351 -0.2794
 1105TIP3   OH224873   6.607   4.393   7.443  0.0277 -0.1843 -0.4323
 1105TIP3    H124874   6.628   4.403   7.350  0.1893 -2.1031 -0.6428
 1105TIP3    H224875   6.653   4.313   7.470  1.9589  1.5299  1.9231
 1106TIP3   OH224876   3.646   5.799   7.575  0.2358  0.3580 -0.0203
 1106TIP3    H124877   3.640   5.819   7.482  1.4773  0.1031 -0.1780
 1106TIP3    H224878   3.592   5.721   7.587  0.3891  0.1575 -0.6086
 1107TIP3   OH224879   6.149   6.382   3.350  0.3286  0.5186 -0.0356
 1107TIP3    H124880   6.057   6.373   3.372  0.7802  0.3131  1.9291
 1107TIP3    H224881   6.182   6.292   3.344  0.1227  0.5412 -2.1952
 1108TIP3   OH224882   4.637   6.042   2.680  0.4105 -0.4980  0.1956
 1108TIP3    H124883   4.608   6.133   2.671 -0.4459 -0.8619 -1.1328
 1108TIP3    H224884   4.646   6.012   2.590 -0.3416 -2.0243  0.6012
 1109TIP3   OH224885   2.486   2.249   2.224 -0.1286 -0.0310 -0.2322
 1109TIP3    H124886   2.571   2.293   2.225 -0.6652  1.0511 -0.3866
 1109TIP3    H224887   2.493   2.179   2.289  2.2380 -2.6906 -3.0163
 1110TIP3   OH224888   3.320   6.050   0.024 -0.2952  0.1422  0.5138
 1110TIP3    H124889   3.248   6.110   0.006 -0.2384  0.0242 -0.1280
 1110TIP3    H224890   3.278   5.966   0.040 -0.2610 -0.1366 -0.7836
 1111TIP3   OH224891   3.052   5.550   0.309 -0.1408  0.0167 -0.1060
 1111TIP3    H124892   2.958   5.535   0.305 -0.5163  2.1251  0.1719
 1111TIP3    H224893   3.074   5.591   0.225  0.4940 -0.2152 -0.0619
 1112TIP3   OH224894   4.146   3.738   0.328 -0.2286  0.3263  0.0967
 1112TIP3    H124895   4.163   3.822   0.285 -0.9024  1.1089  1.3034
 1112TIP3    H224896   4.061   3.750   0.371 -0.7385 -1.2684 -0.4110
 1113TIP3   OH224897   0.458   0.320   1.687 -0.1431 -0.0418 -0.1440
 1113TIP3    H124898   0.468   0.226   1.700 -0.2305 -0.5464 -3.1096
 1113TIP3    H224899   0.372   0.340   1.724 -0.3683 -1.2549  0.0253
 1114TIP3   OH224900   4.248   3.804   7.679  0.1300 -0.3164 -0.3030
 1114TIP3    H124901   4.238   3.899   7.685  0.9438 -0.3231  1.9509
 1114TIP3    H224902   4.216   3.782   7.591 -1.4018  1.8370 -0.3543
 1115TIP3   OH224903   4.917   3.652   2.287 -0.1363  0.2089  0.6373
 1115TIP3    H124904   4.981   3.682   2.352  0.5201 -0.4415  0.3066
 1115TIP3    H224905   4.960   3.664   2.203 -1.0733  1.2725  0.2723
 1116TIP3   OH224906   1.820   0.168   8.306  0.0883 -0.4786 -0.1295
 1116TIP3    H124907   1.825   0.254   8.347  1.3044 -1.0425  0.9426
 1116TIP3    H224908   1.891   0.168   8.242  0.5395 -0.9282  0.3644
 1117TIP3   OH224909   2.325   1.091   2.566 -0.1721  0.0624 -0.0255
 1117TIP3    H124910   2.390   1.119   2.502  0.1272  0.0844  0.2908
 1117TIP3    H224911   2.277   1.020   2.522  1.5572 -1.5565  0.5683
 1118TIP3   OH224912   3.890   6.247   1.814 -0.1585 -0.3946 -0.5059
 1118TIP3    H124913   3.868   6.296   1.893 -1.5748 -0.6984 -0.6825
 1118TIP3    H224914   3.963   6.295   1.775  0.6684 -0.3277  1.0483
 1119TIP3   OH224915   6.079   2.229   0.532 -0.6958  0.4952 -0.7438
 1119TIP3    H124916   6.043   2.239   0.621 -0.4187 -1.5466 -0.3490
 1119TIP3    H224917   6.081   2.135   0.518 -2.0819  0.7723 -3.5147
 1120TIP3   OH224918   0.381   1.352   1.260  0.1425  0.3368  0.0816
 1120TIP3    H124919   0.384   1.438   1.216  1.6659 -0.2233 -0.9875
 1120TIP3    H224920   0.404   1.371   1.351 -0.4042  1.1594  0.0654
 1121TIP3   OH224921   3.422   6.508   0.256  0.2312  0.3033  0.2896
 1121TIP3    H124922   3.461   6.583   0.300  1.5324  0.9766 -1.9013
 1121TIP3    H224923   3.343   6.542   0.215 -0.7483 -0.2298  1.6511
 1122TIP3   OH224924   1.220   5.853   2.778  0.0762 -0.3924 -0.5893
 1122TIP3    H124925   1.173   5.859   2.861 -0.5911 -1.1232 -0.9038
 1122TIP3    H224926   1.206   5.763   2.748 -2.3749  0.6347 -3.0054
 1123TIP3   OH224927   2.492   3.253   2.947  0.0867 -0.0016  0.0423
 1123TIP3    H124928   2.519   3.207   2.867 -0.4756  0.2237 -0.2842
 1123TIP3    H224929   2.535   3.338   2.941  0.0624  0.0071 -0.0093
 1124TIP3   OH224930   6.328   1.922   0.269  0.4348  0.1398 -0.0604
 1124TIP3    H124931   6.249   1.956   0.311  0.5293  0.4699 -0.1428
 1124TIP3    H224932   6.301   1.839   0.229  0.2240  0.0684  0.2288
 1125TIP3   OH224933   0.267   2.442   1.037 -0.8126  0.2558 -0.5585
 1125TIP3    H124934   0.207   2.398   0.977 -1.6355 -0.8436  1.0331
 1125TIP3    H224935   0.296   2.520   0.988 -1.9256 -0.2679 -2.1289
 1126TIP3   OH224936   3.562   5.795   3.045 -0.1493  0.0708 -0.1177
 1126TIP3    H124937   3.630   5.806   3.111 -0.8320  1.1706  0.4301
 1126TIP3    H224938   3.522   5.882   3.037 -0.6413 -0.2505 -1.3631
 1127TIP3   OH224939   0.202   6.302   2.179 -0.3662  0.3242 -0.5294
 1127TIP3    H124940   0.273   6.346   2.133  0.0637  1.6401  1.2796
 1127TIP3    H224941   0.174   6.365   2.245 -1.7295 -1.0245  0.2361
 1128TIP3   OH224942   2.464   2.266   1.959  0.4410  0.5477 -0.3038
 1128TIP3    H124943   2.523   2.212   1.907 -2.3878 -2.0714 -1.0920
 1128TIP3    H224944   2.478   2.238   2.049 -0.2938 -0.8751 -0.6047
 1129TIP3   OH224945   3.962   1.744   3.708  0.1962 -0.3783 -0.9222
 1129TIP3    H124946   4.032   1.680   3.696 -2.2760 -3.6057  0.2456
 1129TIP3    H224947   3.967   1.767   3.801  1.2660  1.5680 -1.3929
 1130TIP3   OH224948   1.339   5.888   0.203 -0.3994  0.5013  0.7202
 1130TIP3    H124949   1.287   5.833   0.263  0.0957 -1.4025 -0.4882
 1130TIP3    H224950   1.338   5.840   0.121  2.1680  1.0675  0.2838
 1131TIP3   OH224951   1.371   5.049   3.602  0.2390  0.0356 -0.4267
 1131TIP3    H124952   1.328   5.129   3.630 -0.0284 -0.2614  0.0289
 1131TIP3    H224953   1.437   5.077   3.538  1.4680  0.8355  1.1382
 1132TIP3   OH224954   5.045   5.352   1.369  0.7120 -0.2291 -0.2264
 1132TIP3    H124955   5.070   5.405   1.293  3.4439 -3.5007 -1.8675
 1132TIP3    H224956   4.951   5.337   1.358  0.5831  1.2956 -1.6052
 1133TIP3   OH224957   1.192   0.031   2.105  0.3339  0.1489  0.5537
 1133TIP3    H124958   1.165   0.053   2.194  0.3917 -0.6912  0.7882
 1133TIP3    H224959   1.284   0.059   2.101 -0.2137  1.9873  0.1109
 1134TIP3   OH224960   1.533   2.569   7.286 -0.2257  0.0865 -0.4739
 1134TIP3    H124961   1.626   2.569   7.264  0.3488  0.1915  1.7062
 1134TIP3    H224962   1.505   2.478   7.276  0.2450 -0.0362 -0.6740
 1135TIP3   OH224963   5.264   1.210   1.671  0.2204 -0.2153 -0.3377
 1135TIP3    H124964   5.334   1.265   1.634 -0.4673  0.4276 -0.7183
 1135TIP3    H224965   5.281   1.123   1.637  1.8878 -0.4688  1.0335
 1136TIP3   OH224966   4.579   1.164   2.402 -0.8915 -0.2963 -0.3877
 1136TIP3    H124967   4.638   1.170   2.327 -0.3791  0.8822  0.0721
 1136TIP3    H224968   4.582   1.072   2.428  0.0314 -0.4383 -0.9408
 1137TIP3   OH224969   5.986   6.661   1.389  0.1126 -0.3323 -0.3894
 1137TIP3    H124970   5.952   6.650   1.478  0.5079 -1.7350 -0.3813
 1137TIP3    H224971   6.062   6.718   1.399 -0.4390  0.3304  0.0293
 1138TIP3   OH224972   2.452   6.215   1.488  0.0233  0.7303 -0.0342
 1138TIP3    H124973   2.516   6.234   1.557  0.8661  0.5479 -0.7474
 1138TIP3    H224974   2.384   6.281   1.499 -0.4263  0.0412  1.6585
 1139TIP3   OH224975   4.202   5.478   2.649 -0.0357 -0.1024  0.0282
 1139TIP3    H124976   4.222   5.490   2.556 -0.3913  0.9266  0.0769
 1139TIP3    H224977   4.131   5.539   2.667 -0.4418 -0.7796  0.8271
 1140TIP3   OH224978   5.375   1.057   0.710  0.4414  0.4420  0.1429
 1140TIP3    H124979   5.298   1.005   0.733  1.3271 -2.1326 -2.1512
 1140TIP3    H224980   5.405   1.094   0.793 -1.8462 -0.4600  1.4604
 1141TIP3   OH224981   1.097   3.222   3.480  0.1411  0.4328 -0.1401
 1141TIP3    H124982   1.019   3.275   3.492 -0.7658 -0.6540 -1.0750
 1141TIP3    H224983   1.150   3.271   3.417 -0.1365  0.7793 -0.1052
 1142TIP3   OH224984   5.799   0.957   7.976 -0.5155 -0.4027  0.4966
 1142TIP3    H124985   5.750   1.004   8.043 -0.9119  0.6751 -0.5111
 1142TIP3    H224986   5.757   0.982   7.894 -1.5295 -3.4875 -0.0327
 1143TIP3   OH224987   3.610   3.254   1.497  0.1755 -0.4293 -0.0368
 1143TIP3    H124988   3.585   3.321   1.561  1.8929 -0.1039  0.3449
 1143TIP3    H224989   3.658   3.301   1.429 -0.1886 -1.0194 -0.7192
 1144TIP3   OH224990   2.116   5.617   1.889 -0.1673  0.2500  0.3825
 1144TIP3    H124991   2.126   5.702   1.846 -1.2982  0.0099 -0.4010
 1144TIP3    H224992   2.032   5.585   1.859 -1.8480  0.7499  4.0038
 1145TIP3   OH224993   2.581   5.974   0.509 -0.1237 -0.3194 -0.2048
 1145TIP3    H124994   2.642   5.977   0.582  0.9734 -0.6823 -1.0859
 1145TIP3    H224995   2.604   6.050   0.455 -0.8580 -0.1072 -0.2279
 1146TIP3   OH224996   4.518   1.482   0.588 -0.0729  0.0381  0.0573
 1146TIP3    H124997   4.498   1.574   0.603  1.3268  0.7631 -1.9872
 1146TIP3    H224998   4.502   1.440   0.672 -0.7928  2.1209  1.0432
 1147TIP3   OH224999   3.910   2.720   0.282  0.4291  0.0031  0.0502
 1147TIP3    H125000   3.817   2.704   0.298  0.0534  0.5582 -1.3993
 1147TIP3    H225001   3.954   2.641   0.314 -0.2653  0.6407  2.8579
 1148TIP3   OH225002   5.906   3.577   0.333  0.3147  0.0876 -0.1046
 1148TIP3    H125003   5.812   3.580   0.347  0.3653  1.0078  0.0580
 1148TIP3    H225004   5.926   3.657   0.284  1.0851  0.1649  0.3251
 1149TIP3   OH225005   3.634   0.514   2.661  0.8448 -0.1322 -0.4323
 1149TIP3    H125006   3.686   0.473   2.730  0.1017 -0.5104 -0.0856
 1149TIP3    H225007   3.699   0.546   2.598  1.4422 -2.5950 -1.1651
 1150TIP3   OH225008   5.754   2.441   0.064  0.4502 -0.4527  0.0455
 1150TIP3    H125009   5.673   2.476   0.028  0.4692 -0.8296 -0.3651
 1150TIP3    H225010   5.775   2.500   0.137  1.0701  1.0562 -1.2867
 1151TIP3   OH225011   0.054   5.400   8.369 -0.0296  0.4858  0.5038
 1151TIP3    H125012   0.094   5.449   8.298  1.9735  1.9701  2.5187
 1151TIP3    H225013   0.117   5.330   8.389 -0.2792  0.4463  1.1896
 1152TIP3   OH225014   3.176   1.666   0.061 -0.3314 -0.5622  0.1669
 1152TIP3    H125015   3.220   1.612   0.126 -1.2851  0.7070  1.9488
 1152TIP3    H225016   3.248   1.711   0.016  0.3530 -1.5021  0.2982
 1153TIP3   OH225017   0.615   3.671   0.684  0.5522 -0.2136 -0.6466
 1153TIP3    H125018   0.547   3.730   0.717  1.2599  0.3187 -0.1228
 1153TIP3    H225019   0.598   3.665   0.590 -0.4236 -0.3579 -0.4678
 1154TIP3   OH225020   4.077   4.071   8.295 -0.8513 -0.2706  0.0785
 1154TIP3    H125021   4.035   4.152   8.323 -0.2994  0.8036 -1.9634
 1154TIP3    H225022   4.045   4.057   8.206  1.8967 -0.2064 -1.0211
 1155TIP3   OH225023   6.043   0.858   2.123 -0.0046  0.1599  0.0066
 1155TIP3    H125024   6.031   0.798   2.049  1.1555  0.1722 -0.1985
 1155TIP3    H225025   6.109   0.816   2.177 -0.0699  0.6765  0.4914
 1156TIP3   OH225026   6.853   6.327   3.112 -0.6706 -0.4552 -0.1405
 1156TIP3    H125027   6.829   6.401   3.167 -2.6512 -0.0419 -1.4625
 1156TIP3    H225028   6.889   6.263   3.173 -0.6896  0.8383  1.3012
 1157TIP3   OH225029   6.030   4.503   2.690  0.0443  0.9726 -0.0844
 1157TIP3    H125030   6.040   4.529   2.599 -0.5249  1.4168 -0.0284
 1157TIP3    H225031   6.002   4.583   2.735 -1.6116  0.3371  0.1120
 1158TIP3   OH225032   0.392   6.091   2.027  0.5758  0.3703 -0.2122
 1158TIP3    H125033   0.321   6.028   2.015  1.6153 -0.4366 -2.7989
 1158TIP3    H225034   0.348   6.176   2.022 -0.4303 -0.1247 -0.1231
 1159TIP3   OH225035   4.643   5.965   2.416 -0.0836  0.2515  0.6769
 1159TIP3    H125036   4.660   6.026   2.344  0.8857  0.1665  0.8243
 1159TIP3    H225037   4.697   5.889   2.395 -0.4352 -0.1065  1.0739
 1160TIP3   OH225038   0.091   1.285   1.906  0.1338  0.1653 -0.2545
 1160TIP3    H125039   0.025   1.353   1.916  0.2006  0.2272 -0.2357
 1160TIP3    H225040   0.106   1.279   1.811  1.3551  1.3573 -0.1705
 1161TIP3   OH225041   5.691   2.087   0.878 -0.0711  0.3123  0.2340
 1161TIP3    H125042   5.734   2.038   0.948 -0.0926 -1.9152 -1.2038
 1161TIP3    H225043   5.674   2.173   0.916  1.6851 -0.1511  2.2887
 1162TIP3   OH225044   3.436   4.447   2.208 -0.5031  0.2919  0.2094
 1162TIP3    H125045   3.431   4.501   2.129 -2.8895 -0.3107 -0.1367
 1162TIP3    H225046   3.361   4.388   2.201  1.1926 -2.1376  1.2636
 1163TIP3   OH225047   4.495   2.467   8.330  0.6201 -0.4019  0.2796
 1163TIP3    H125048   4.530   2.519   8.258  0.6859 -1.2499 -0.3141
 1163TIP3    H225049   4.437   2.527   8.377 -0.0096 -0.0403 -0.9089
 1164TIP3   OH225050   6.129   4.188   1.010 -0.4542 -0.2032 -0.4280
 1164TIP3    H125051   6.134   4.253   0.940  1.3736  1.7579  1.3665
 1164TIP3    H225052   6.045   4.145   0.997 -0.1499 -0.0428 -3.8490
 1165TIP3   OH225053   2.788   6.484   1.086 -0.3839  0.2484 -0.2686
 1165TIP3    H125054   2.790   6.459   0.994 -0.0395 -2.5048  0.3902
 1165TIP3    H225055   2.781   6.579   1.085  0.8962  0.4188 -3.1219
 1166TIP3   OH225056   1.192   4.013   0.909  0.1424 -0.7108 -0.4776
 1166TIP3    H125057   1.287   4.002   0.899  0.3676 -1.5507  2.0262
 1166TIP3    H225058   1.161   3.926   0.934 -1.1550 -0.2030 -0.2762
 1167TIP3   OH225059   1.333   3.335   7.769 -0.2653  0.3774 -0.0728
 1167TIP3    H125060   1.277   3.317   7.845 -0.6360 -0.5700 -0.5527
 1167TIP3    H225061   1.357   3.427   7.778  0.4321  0.0711  1.6915
 1168TIP3   OH225062   4.841   0.093   1.917 -0.5341 -0.5444 -0.4308
 1168TIP3    H125063   4.873   0.126   1.833 -1.1214  2.5838  0.4379
 1168TIP3    H225064   4.910   0.115   1.979 -1.2442 -0.3492  0.3050
 1169TIP3   OH225065   1.866   5.108   1.996 -0.4943  0.0836  0.1021
 1169TIP3    H125066   1.811   5.182   2.021 -1.1322 -0.4868  0.4434
 1169TIP3    H225067   1.803   5.038   1.977  0.0213  0.0870 -1.7618
 1170TIP3   OH225068   5.567   5.907   2.714  0.2993  0.1699 -0.0013
 1170TIP3    H125069   5.628   5.876   2.781 -1.1522  2.7285  2.7813
 1170TIP3    H225070   5.561   6.001   2.730 -1.3600  0.6246 -2.7819
 1171TIP3   OH225071   2.831   5.796   0.959 -0.1301 -0.2545 -0.3578
 1171TIP3    H125072   2.888   5.727   0.925  0.9188  0.5977 -0.3949
 1171TIP3    H225073   2.785   5.755   1.033  0.6611 -0.9176 -0.2195
 1172TIP3   OH225074   6.829   6.359   1.344 -0.0763 -0.4371  0.3569
 1172TIP3    H125075   6.776   6.285   1.315 -1.3005  0.5485  0.0199
 1172TIP3    H225076   6.814   6.363   1.439 -0.2579 -0.4421  0.3294
 1173TIP3   OH225077   1.639   6.239   7.839 -0.7628 -0.4214 -0.2103
 1173TIP3    H125078   1.720   6.275   7.804  1.0576 -3.2766  0.7012
 1173TIP3    H225079   1.584   6.315   7.856  2.0100  1.7263 -0.1468
 1174TIP3   OH225080   4.829   6.861   7.292 -0.4340 -0.2738 -0.0521
 1174TIP3    H125081   4.883   6.807   7.350  0.8574  2.6663  1.7841
 1174TIP3    H225082   4.892   6.903   7.233 -0.9870  1.1795  0.3451
 1175TIP3   OH225083   6.240   2.344   2.366 -0.4034 -0.0381  0.6709
 1175TIP3    H125084   6.268   2.263   2.324 -1.4533  0.0960 -0.3245
 1175TIP3    H225085   6.317   2.373   2.415  0.9235 -0.1188 -1.2826
 1176TIP3   OH225086   6.021   2.728   2.268  0.6485  0.0798 -0.2044
 1176TIP3    H125087   5.984   2.782   2.337  1.2242 -1.1444  1.1066
 1176TIP3    H225088   6.013   2.781   2.189 -1.3160  0.9468  0.5281
 1177TIP3   OH225089   6.506   0.566   0.950  0.1228  0.2359  0.1428
 1177TIP3    H125090   6.481   0.504   0.881  0.4202 -0.0046  0.2496
 1177TIP3    H225091   6.423   0.592   0.990 -0.2480  1.7957 -1.4926
 1178TIP3   OH225092   4.081   3.753   2.311 -0.4690 -0.1617  0.2249
 1178TIP3    H125093   4.124   3.705   2.382 -1.5561 -0.8363  0.4530
 1178TIP3    H225094   4.074   3.843   2.345  0.5886 -0.0753  0.2437
 1179TIP3   OH225095   6.809   1.559   0.896  0.1364 -0.0448 -0.4663
 1179TIP3    H125096   6.819   1.501   0.971  0.3221  0.2858 -0.2345
 1179TIP3    H225097   6.792   1.500   0.822 -2.2880 -0.2732  0.1919
 1180TIP3   OH225098   4.156   1.544   0.387 -0.1880 -0.5208 -0.5639
 1180TIP3    H125099   4.099   1.620   0.394 -0.2871 -0.3338 -2.8194
 1180TIP3    H225100   4.118   1.480   0.447 -0.3855  0.9959  1.0018
 1181TIP3   OH225101   3.020   0.983   1.565  0.0878 -0.2866 -0.2738
 1181TIP3    H125102   3.087   1.038   1.605 -0.9761  1.5849 -0.9552
 1181TIP3    H225103   2.975   0.943   1.640  0.2624  0.5160  0.2770
 1182TIP3   OH225104   6.699   6.775   2.584 -0.0989  0.0268 -0.5659
 1182TIP3    H125105   6.638   6.768   2.657  0.4465  1.2195  0.0163
 1182TIP3    H225106   6.762   6.841   2.611  0.2364  0.3393 -2.0257
 1183TIP3   OH225107   0.929   6.643   8.437 -0.0872  0.1007 -0.2737
 1183TIP3    H125108   0.933   6.621   8.344  1.1338 -2.7873  0.3688
 1183TIP3    H225109   0.932   6.739   8.439  0.3890  0.2268 -3.1626
 1184TIP3   OH225110   4.133   4.798   8.068  0.3851  0.1597  0.5613
 1184TIP3    H125111   4.199   4.754   8.015  0.7578  0.1082  1.0674
 1184TIP3    H225112   4.156   4.777   8.159  0.3920  1.1352  0.7954
 1185TIP3   OH225113   4.020   3.063   0.634 -0.1826 -0.2644 -0.6265
 1185TIP3    H125114   3.965   3.021   0.700  0.5203  1.3749  1.0845
 1185TIP3    H225115   3.981   3.037   0.551 -1.4180 -1.9783  0.4228
 1186TIP3   OH225116   0.726   5.522   2.211  0.4640  0.1440  0.6677
 1186TIP3    H125117   0.798   5.462   2.228  0.8484  1.1887  3.0833
 1186TIP3    H225118   0.694   5.497   2.124  1.9226 -2.1541  0.7139
 1187TIP3   OH225119   4.676   4.784   2.335 -0.9492  0.4509 -0.6515
 1187TIP3    H125120   4.585   4.765   2.358 -1.1313  0.9792 -0.9077
 1187TIP3    H225121   4.714   4.699   2.313 -1.3327  0.2057 -0.3794
 1188TIP3   OH225122   3.325   4.099   7.757 -0.6118 -0.0783  0.4477
 1188TIP3    H125123   3.241   4.101   7.713  0.0464  0.5001 -0.8092
 1188TIP3    H225124   3.320   4.022   7.815 -1.8783 -0.2061  0.1811
 1189TIP3   OH225125   2.451   5.025   0.692 -0.2974 -0.3810  0.0967
 1189TIP3    H125126   2.371   5.029   0.639 -1.8609  2.6019  2.3436
 1189TIP3    H225127   2.452   4.937   0.728 -3.4734 -0.1510  1.0620
 1190TIP3   OH225128   4.905   0.661   2.926 -0.3206 -0.0172 -0.5162
 1190TIP3    H125129   4.979   0.637   2.981 -0.1698 -1.9048 -1.4708
 1190TIP3    H225130   4.828   0.639   2.978 -0.1780 -0.8160 -0.6220
 1191TIP3   OH225131   2.586   3.169   7.512 -0.3374  0.2085 -0.3543
 1191TIP3    H125132   2.549   3.233   7.573 -2.4784 -0.8284 -0.4745
 1191TIP3    H225133   2.598   3.219   7.431  0.7951  1.1355  0.3444
 1192TIP3   OH225134   3.569   2.097   8.146 -0.5954  0.8477 -0.3302
 1192TIP3    H125135   3.608   2.045   8.216 -1.8525 -0.4962 -0.5725
 1192TIP3    H225136   3.621   2.075   8.068 -0.0904  1.2518 -0.1138
 1193TIP3   OH225137   2.482   0.113   2.851  0.0419 -0.4874  0.0894
 1193TIP3    H125138   2.421   0.186   2.862  2.3777  1.3050  2.1949
 1193TIP3    H225139   2.433   0.036   2.881 -1.7918  0.5266 -0.1745
 1194TIP3   OH225140   0.286   4.095   0.774 -0.0922 -0.4637 -0.4290
 1194TIP3    H125141   0.353   4.050   0.826 -0.2277  0.8515  0.9609
 1194TIP3    H225142   0.276   4.180   0.817 -3.1074 -0.8457 -0.1764
 1195TIP3   OH225143   5.307   5.493   0.100  0.4665 -0.0228 -0.0317
 1195TIP3    H125144   5.247   5.452   0.038  0.5988 -0.3977  0.0859
 1195TIP3    H225145   5.256   5.562   0.142 -0.0330 -0.6784  0.4407
 1196TIP3   OH225146   5.475   5.056   1.408  0.6465 -0.0910 -0.6209
 1196TIP3    H125147   5.398   5.106   1.435 -0.7831 -1.8854 -1.1756
 1196TIP3    H225148   5.536   5.122   1.375 -0.9451  1.3238 -0.8681
 1197TIP3   OH225149   5.832   0.589   3.415 -0.3603 -0.2564  0.4524
 1197TIP3    H125150   5.773   0.516   3.434 -0.1145 -1.3751 -2.4503
 1197TIP3    H225151   5.776   0.666   3.413 -1.2328 -0.8772  0.4630
 1198TIP3   OH225152   0.793   2.986   1.056  0.0276  0.1740  0.5373
 1198TIP3    H125153   0.811   3.067   1.008  0.1572  0.6325  1.3458
 1198TIP3    H225154   0.859   2.984   1.125  1.4341 -1.7188 -0.7548
 1199TIP3   OH225155   2.110   4.876   2.224  0.3831 -0.1056 -0.1660
 1199TIP3    H125156   2.148   4.788   2.223  1.5563  0.3586  0.8191
 1199TIP3    H225157   2.080   4.887   2.314  1.7049  1.0732  0.1628
 1200TIP3   OH225158   0.631   2.201   3.510  0.3221  0.7932  0.1870
 1200TIP3    H125159   0.601   2.127   3.564  0.6021  0.7795  0.3287
 1200TIP3    H225160   0.551   2.240   3.476  0.0181  1.8506  1.9997
 1201TIP3   OH225161   3.408   4.731   3.093  0.3334  0.3396  0.2541
 1201TIP3    H125162   3.490   4.769   3.124 -0.0909  0.3940  1.3536
 1201TIP3    H225163   3.345   4.751   3.162 -0.4833 -0.1653 -0.3299
 1202TIP3   OH225164   1.773   4.809   2.695  0.1123 -0.0606  0.0496
 1202TIP3    H125165   1.685   4.829   2.665 -0.3765 -3.1071 -0.8807
 1202TIP3    H225166   1.762   4.771   2.782  0.6403  0.4682  0.3606
 1203TIP3   OH225167   4.097   5.385   2.025  0.3780 -0.2225  0.6184
 1203TIP3    H125168   4.115   5.338   2.106 -0.8126 -2.0182 -0.1042
 1203TIP3    H225169   4.182   5.392   1.981  0.4672 -2.5522  0.3305
 1204TIP3   OH225170   2.577   3.087   0.055 -0.6438  0.8279  0.1720
 1204TIP3    H125171   2.632   3.016   0.022 -1.0094  0.0733  1.1389
 1204TIP3    H225172   2.612   3.166   0.014  1.6878  0.4817  1.3202
 1205TIP3   OH225173   4.075   6.423   1.652 -0.2963  0.5430  0.6808
 1205TIP3    H125174   4.045   6.513   1.635  0.8505  0.8436  0.1464
 1205TIP3    H225175   4.132   6.431   1.729  0.1761  0.3593  0.3535
 1206TIP3   OH225176   0.226   1.015   3.064  0.4156  0.2136 -0.3537
 1206TIP3    H125177   0.265   1.068   2.994 -0.6617 -0.3497 -1.4106
 1206TIP3    H225178   0.145   1.060   3.086  2.3687  2.4597  3.1744
 1207TIP3   OH225179   5.330   3.778   2.912  0.0126 -0.0890 -0.2250
 1207TIP3    H125180   5.264   3.739   2.854 -1.9719 -0.0453  1.8552
 1207TIP3    H225181   5.288   3.858   2.944  1.4070  0.3500  0.5632
 1208TIP3   OH225182   2.643   5.130   1.881 -0.5205 -0.2526  0.2733
 1208TIP3    H125183   2.647   5.036   1.863  0.0978  0.0085 -1.0298
 1208TIP3    H225184   2.589   5.136   1.960  0.8000 -1.8254  1.3877
 1209TIP3   OH225185   3.879   4.432   7.899  0.0473 -0.1514 -0.1316
 1209TIP3    H125186   3.955   4.482   7.871  0.8403 -0.7552  0.8515
 1209TIP3    H225187   3.878   4.440   7.995 -1.8001  0.7776 -0.1818
 1210TIP3   OH225188   1.428   2.807   1.843  0.6663 -0.2766  0.6469
 1210TIP3    H125189   1.379   2.782   1.922  0.0186 -0.7907  0.0950
 1210TIP3    H225190   1.488   2.734   1.829 -1.4413 -1.8069 -1.1457
 1211TIP3   OH225191   0.780   1.349   2.823 -0.5326  0.1381 -0.3324
 1211TIP3    H125192   0.691   1.343   2.858 -0.6533 -2.2747 -0.8882
 1211TIP3    H225193   0.827   1.278   2.867  0.7841  0.5714 -1.0115
 1212TIP3   OH225194   1.304   2.813   7.422  0.0050  0.1718 -0.0827
 1212TIP3    H125195   1.293   2.723   7.393  1.0490 -0.2812  0.8750
 1212TIP3    H225196   1.216   2.850   7.421 -0.4707 -0.9436 -0.1822
 1213TIP3   OH225197   3.481   3.489   0.300  0.6439  0.1580  0.3099
 1213TIP3    H125198   3.419   3.521   0.235 -0.4072 -0.8328  0.7833
 1213TIP3    H225199   3.476   3.552   0.371  1.5822  1.0867 -0.4203
 1214TIP3   OH225200   2.822   0.174   8.025  0.0003 -0.2203  0.1275
 1214TIP3    H125201   2.730   0.147   8.027  0.2320 -1.0637  2.3134
 1214TIP3    H225202   2.819   0.270   8.035 -0.6379 -0.3223  1.0158
 1215TIP3   OH225203   2.444   6.760   2.686 -0.7542  0.2330  0.0352
 1215TIP3    H125204   2.364   6.777   2.735  0.0348  2.8380  0.5485
 1215TIP3    H225205   2.512   6.809   2.732  0.6211  0.2630 -1.9002
 1216TIP3   OH225206   6.135   4.379   8.233  0.6924  0.8256 -0.4865
 1216TIP3    H125207   6.202   4.331   8.281 -0.1098  1.1767  1.0486
 1216TIP3    H225208   6.184   4.434   8.172  1.6700 -1.0919 -1.5153
 1217TIP3   OH225209   5.691   1.609   0.735 -0.5041 -0.3198  0.4070
 1217TIP3    H125210   5.709   1.551   0.661  1.2906 -0.8714  1.2166
 1217TIP3    H225211   5.596   1.622   0.733 -0.3364  1.4266 -3.2175
 1218TIP3   OH225212   5.047   2.187   0.777 -0.1487 -0.3453  0.1960
 1218TIP3    H125213   5.020   2.163   0.688 -1.2874 -0.1858  0.4887
 1218TIP3    H225214   5.009   2.119   0.832  1.0402 -0.7673  0.5221
 1219TIP3   OH225215   2.951   5.379   2.639 -0.2383  0.4195 -0.0053
 1219TIP3    H125216   2.967   5.473   2.652 -1.7098  0.5979  0.6514
 1219TIP3    H225217   3.029   5.337   2.676 -0.1358  1.3462  0.8944
 1220TIP3   OH225218   6.439   5.118   0.487  0.1149 -0.0571 -0.4909
 1220TIP3    H125219   6.464   5.205   0.517 -0.9780  0.4374 -0.9432
 1220TIP3    H225220   6.469   5.058   0.556  0.0478  0.7728  0.2725
 1221TIP3   OH225221   6.375   6.372   0.903  0.5851  0.2105 -0.6323
 1221TIP3    H125222   6.350   6.288   0.941  0.4689  0.8604  0.8304
 1221TIP3    H225223   6.357   6.435   0.973  2.4821  1.2102 -0.9758
 1222TIP3   OH225224   5.115   3.313   7.417 -0.4516 -0.4373 -0.7507
 1222TIP3    H125225   5.057   3.384   7.390  0.4773  0.9988  0.8234
 1222TIP3    H225226   5.096   3.300   7.510  2.8963  1.3807  0.3404
 1223TIP3   OH225227   0.630   3.350   3.475  0.1186 -0.4026 -0.1197
 1223TIP3    H125228   0.710   3.380   3.432 -0.2179 -0.6672 -0.9527
 1223TIP3    H225229   0.639   3.254   3.477  1.8976 -0.3440  3.8704
 1224TIP3   OH225230   1.628   1.588   7.676  0.3844 -0.8351 -0.0767
 1224TIP3    H125231   1.662   1.623   7.594  0.2731  0.1236  0.2676
 1224TIP3    H225232   1.550   1.538   7.651 -0.1230  0.1296 -0.4946
 1225TIP3   OH225233   4.106   6.103   2.391 -0.4517 -0.6789  0.0609
 1225TIP3    H125234   4.201   6.101   2.383 -0.4713 -0.2231 -0.3367
 1225TIP3    H225235   4.074   6.059   2.312 -0.5701 -1.0601  0.3169
 1226TIP3   OH225236   2.459   2.379   1.704 -0.0278  0.1920  0.2106
 1226TIP3    H125237   2.385   2.439   1.715  0.4164  0.8852 -0.4834
 1226TIP3    H225238   2.482   2.353   1.794  0.2289  1.6348  0.5865
 1227TIP3   OH225239   6.429   6.692   0.788 -0.4753 -0.0249 -0.4242
 1227TIP3    H125240   6.452   6.604   0.761  1.0800  0.8514 -2.1895
 1227TIP3    H225241   6.504   6.746   0.762 -1.9987  2.0542 -0.8216
 1228TIP3   OH225242   6.112   4.701   1.404 -0.0910 -0.5186  0.3835
 1228TIP3    H125243   6.046   4.768   1.417 -1.3264 -1.3856 -1.1115
 1228TIP3    H225244   6.111   4.651   1.486 -0.4896  0.1311  0.7859
 1229TIP3   OH225245   5.457   0.816   0.579  0.2121 -0.5058  0.4193
 1229TIP3    H125246   5.402   0.882   0.620  0.3618 -0.6020  0.7756
 1229TIP3    H225247   5.513   0.783   0.650  0.9736 -0.1589 -0.0060
 1230TIP3   OH225248   1.288   4.551   0.228 -0.2534 -0.2092  0.0498
 1230TIP3    H125249   1.206   4.575   0.185  0.0464  2.9865  0.9710
 1230TIP3    H225250   1.262   4.515   0.313 -0.7154 -0.3858 -0.1679
 1231TIP3   OH225251   0.935   6.326   1.455  0.2170  0.4539 -0.5314
 1231TIP3    H125252   1.031   6.333   1.455  0.3022 -0.6192 -0.9543
 1231TIP3    H225253   0.909   6.359   1.541  1.0768 -0.4505  0.1034
 1232TIP3   OH225254   6.741   6.697   2.189 -0.2543 -0.0194 -0.1738
 1232TIP3    H125255   6.791   6.630   2.142 -0.9874 -0.6550 -0.0614
 1232TIP3    H225256   6.797   6.775   2.186  0.0332 -0.2523 -1.4695
 1233TIP3   OH225257   3.730   4.767   2.446 -0.6953 -0.3992  0.1314
 1233TIP3    H125258   3.700   4.844   2.396 -1.5292 -1.2916 -0.7953
 1233TIP3    H225259   3.774   4.712   2.381  0.1143 -0.6106  0.8396
 1234TIP3   OH225260   3.859   1.216   2.987  0.0060 -0.0740  0.7204
 1234TIP3    H125261   3.910   1.136   3.001  2.1967  0.8137 -1.4555
 1234TIP3    H225262   3.917   1.287   3.017 -1.5551  0.8088  1.8072
 1235TIP3   OH225263   0.036   1.781   1.698 -0.8290  0.1513 -0.3105
 1235TIP3    H125264   0.005   1.795   1.609 -0.2105 -0.1982 -0.5808
 1235TIP3    H225265   0.085   1.861   1.719  0.7669 -0.5962 -1.0352
 1236TIP3   OH225266   0.014   0.958   0.439 -0.2381 -0.3473 -0.2736
 1236TIP3    H125267   0.008   1.046   0.401  3.2150  1.1576  2.0632
 1236TIP3    H225268  -0.073   0.940   0.473 -1.0281  2.2793 -0.6612
 1237TIP3   OH225269   3.671   3.733   1.743  0.3260 -0.6261 -0.8508
 1237TIP3    H125270   3.738   3.698   1.802  0.1528  1.2481  0.5316
 1237TIP3    H225271   3.588   3.704   1.781  0.2469 -0.3830 -0.8400
 1238TIP3   OH225272   6.293   0.514   0.193  0.0229 -0.3033 -0.7591
 1238TIP3    H125273   6.331   0.427   0.189  0.0276 -0.3113 -0.5628
 1238TIP3    H225274   6.199   0.501   0.181 -0.4222 -0.6924  2.3045
 1239TIP3   OH225275   4.633   0.529   0.361  0.6481 -0.7445  0.3030
 1239TIP3    H125276   4.551   0.546   0.314 -0.4109 -3.3902  0.9787
 1239TIP3    H225277   4.649   0.608   0.413 -1.3190 -0.0527 -0.0736
 1240TIP3   OH225278   6.801   1.032   0.792 -0.3328 -0.7175  0.2417
 1240TIP3    H125279   6.709   1.053   0.807  0.0779  1.8558 -0.3039
 1240TIP3    H225280   6.849   1.101   0.838  1.3026 -1.3379 -0.4511
 1241TIP3   OH225281   3.687   2.052   1.559  0.5093 -0.1534 -0.0817
 1241TIP3    H125282   3.738   2.091   1.488 -0.8546 -0.9031 -1.5407
 1241TIP3    H225283   3.620   2.118   1.580 -1.4349 -1.3067 -2.1549
 1242TIP3   OH225284   2.910   3.956   7.787  0.5128 -0.1191  0.1048
 1242TIP3    H125285   2.845   3.895   7.752 -0.9041  1.8854 -0.9441
 1242TIP3    H225286   2.941   3.915   7.868  1.1580 -3.1571 -1.5589
 1243TIP3   OH225287   2.694   2.141   8.061 -0.3802  0.5569 -0.0604
 1243TIP3    H125288   2.781   2.127   8.023 -0.9385 -0.8536 -0.9413
 1243TIP3    H225289   2.635   2.143   7.985 -1.2475  0.1978  0.5825
 1244TIP3   OH225290   5.875   3.472   1.173 -0.0342  0.1794 -0.1954
 1244TIP3    H125291   5.930   3.432   1.240  0.4438 -0.9074 -1.2083
 1244TIP3    H225292   5.887   3.566   1.185  0.0720  0.0041  1.2061
 1245TIP3   OH225293   6.822   5.334   8.137  0.2697  0.5340 -0.3864
 1245TIP3    H125294   6.776   5.341   8.220 -0.1263 -2.0202 -0.3279
 1245TIP3    H225295   6.867   5.249   8.140  0.3895  0.4368 -2.6894
 1246TIP3   OH225296   0.281   2.430   2.425  0.5073 -0.2263  0.1457
 1246TIP3    H125297   0.329   2.477   2.357  1.4698  0.6131  1.3436
 1246TIP3    H225298   0.300   2.338   2.409 -1.0671 -0.2391 -1.9976
 1247TIP3   OH225299   6.066   2.272   2.981 -0.6057  0.0007 -0.0550
 1247TIP3    H125300   5.987   2.312   3.017 -0.3940  0.7694 -0.4183
 1247TIP3    H225301   6.099   2.337   2.918 -1.1754 -1.4302 -1.9274
 1248TIP3   OH225302   4.304   0.226   2.780 -0.0482  0.0166 -0.1081
 1248TIP3    H125303   4.287   0.297   2.842 -2.3406 -1.2910  0.9346
 1248TIP3    H225304   4.358   0.164   2.829 -0.6662 -0.3590  0.1150
 1249TIP3   OH225305   5.211   2.876   2.290 -0.0367 -0.2072  0.4975
 1249TIP3    H125306   5.219   2.908   2.380  1.8982  3.7804 -0.8348
 1249TIP3    H225307   5.260   2.794   2.289 -0.3806 -0.5083  3.1126
 1250TIP3   OH225308   4.043   0.883   8.312 -0.1161  0.1126  0.2484
 1250TIP3    H125309   4.024   0.794   8.340  0.2701 -0.6335 -1.7439
 1250TIP3    H225310   3.980   0.937   8.361 -1.0851 -1.3456  0.6737
 1251TIP3   OH225311   2.414   5.472   2.949  0.0148 -0.1715 -0.2344
 1251TIP3    H125312   2.367   5.478   2.866  0.7676 -0.1359 -0.6678
 1251TIP3    H225313   2.423   5.378   2.965 -1.1567 -0.2003  0.4206
 1252TIP3   OH225314   3.517   2.815   1.033  0.3149  0.2245  0.2371
 1252TIP3    H125315   3.610   2.811   1.055  1.1927 -1.3049 -3.0328
 1252TIP3    H225316   3.516   2.859   0.948 -1.6468 -1.8095 -0.8923
 1253TIP3   OH225317   2.215   0.700   1.384 -0.4263 -0.2663  0.2854
 1253TIP3    H125318   2.169   0.615   1.380 -0.2320 -0.3242 -0.9345
 1253TIP3    H225319   2.293   0.688   1.330 -1.6230  1.4013 -1.9995
 1254TIP3   OH225320   5.516   5.029   1.804 -0.3385  0.2362 -0.0406
 1254TIP3    H125321   5.528   4.955   1.865 -0.7564 -0.8625 -1.2496
 1254TIP3    H225322   5.547   4.996   1.720 -0.0032  1.6519 -0.5000
 1255TIP3   OH225323   4.506   1.224   8.205 -0.0104  0.1521  0.2992
 1255TIP3    H125324   4.445   1.206   8.277  0.7617  0.7083  1.1266
 1255TIP3    H225325   4.591   1.231   8.248  1.0119 -2.5732 -1.0534
 1256TIP3   OH225326   6.200   2.919   0.949 -0.2857 -0.2712 -0.4285
 1256TIP3    H125327   6.111   2.955   0.944 -0.2572 -0.3041 -1.3773
 1256TIP3    H225328   6.255   2.988   0.911 -0.3453 -1.6501 -3.2417
 1257TIP3   OH225329   2.379   6.606   7.351 -0.1259  0.3626  0.5509
 1257TIP3    H125330   2.432   6.533   7.384  1.4560  0.9427 -0.5910
 1257TIP3    H225331   2.325   6.567   7.282 -0.0533  0.0562  0.6680
 1258TIP3   OH225332   4.238   4.140   1.970 -0.3554 -0.2979  0.4864
 1258TIP3    H125333   4.274   4.220   2.007  1.3547 -0.8018  0.0015
 1258TIP3    H225334   4.143   4.153   1.972 -0.1287  1.5396  0.8312
 1259TIP3   OH225335   3.572   1.191   1.703 -0.0497 -0.1384  0.3031
 1259TIP3    H125336   3.480   1.202   1.678  0.1207  1.4430  0.2632
 1259TIP3    H225337   3.590   1.099   1.687 -1.2623 -0.1934 -0.9807
 1260TIP3   OH225338   1.343   5.838   7.772  0.2930 -0.1353  0.1094
 1260TIP3    H125339   1.319   5.923   7.734 -0.4823 -0.8474 -1.0527
 1260TIP3    H225340   1.438   5.836   7.766  0.5003  1.4115  1.8768
 1261TIP3   OH225341   5.378   6.800   3.473  0.5594 -0.5606  0.7167
 1261TIP3    H125342   5.300   6.829   3.521  1.0211 -0.4383  1.4102
 1261TIP3    H225343   5.361   6.709   3.452  0.5183 -0.7375  1.4843
 1262TIP3   OH225344   5.651   6.008   0.300 -0.2977 -0.6042 -0.2635
 1262TIP3    H125345   5.616   6.038   0.217 -0.5222 -0.4287 -0.1076
 1262TIP3    H225346   5.621   5.917   0.308 -1.2553 -0.2727  0.1522
 1263TIP3   OH225347   6.219   0.995   0.108  0.2444  0.0787  0.2565
 1263TIP3    H125348   6.254   1.067   0.160  1.1501 -0.0622 -0.1504
 1263TIP3    H225349   6.170   1.038   0.037  1.5841  0.3365 -0.5479
 1264TIP3   OH225350   2.444   3.678   1.898  0.6155  0.5133 -0.2316
 1264TIP3    H125351   2.463   3.664   1.991  0.5941  0.3487 -0.2507
 1264TIP3    H225352   2.433   3.772   1.890 -0.7907  0.4082  0.2125
 1265TIP3   OH225353   5.133   3.058   1.813  0.3086  0.6422  0.2512
 1265TIP3    H125354   5.139   3.143   1.857 -0.3485  0.8801 -0.1173
 1265TIP3    H225355   5.073   3.007   1.867  0.6702  0.4220  0.4493
 1266TIP3   OH225356   0.314   3.926   1.513  0.4576 -0.0490  0.1494
 1266TIP3    H125357   0.396   3.968   1.540  1.1587 -0.2041 -1.6156
 1266TIP3    H225358   0.283   3.981   1.441 -1.4032  0.4272  1.2586
 1267TIP3   OH225359   6.332   0.976   8.060 -0.2316 -0.2212 -0.2797
 1267TIP3    H125360   6.332   1.066   8.027  0.5897  0.5482  1.6683
 1267TIP3    H225361   6.241   0.946   8.048 -1.1689  1.7577  1.2529
 1268TIP3   OH225362   1.505   2.617   2.338  0.4457 -0.3389  0.0240
 1268TIP3    H125363   1.524   2.710   2.339  1.3970 -0.4605 -1.7331
 1268TIP3    H225364   1.558   2.580   2.409  0.6475  0.3472  0.2325
 1269TIP3   OH225365   1.680   3.393   8.352  0.1781 -0.5848 -0.0866
 1269TIP3    H125366   1.634   3.384   8.436  1.7131  1.7292  1.1406
 1269TIP3    H225367   1.737   3.316   8.347  0.0085 -0.7923  0.9686
 1270TIP3   OH225368   4.486   6.241   0.981 -0.6867  0.2188  0.3653
 1270TIP3    H125369   4.405   6.246   1.033 -0.8375 -1.0863  0.2868
 1270TIP3    H225370   4.486   6.323   0.930 -2.1968  0.0515  0.0330
 1271TIP3   OH225371   1.749   6.797   2.160 -0.0850  0.2290  0.5084
 1271TIP3    H125372   1.657   6.805   2.182 -0.0917  1.1966  0.1705
 1271TIP3    H225373   1.761   6.855   2.085  0.8585  0.3153  0.7125
 1272TIP3   OH225374   2.737   2.908   1.180 -0.4607  0.7392 -0.1615
 1272TIP3    H125375   2.784   2.826   1.162  0.1911  1.3438 -1.3418
 1272TIP3    H225376   2.651   2.895   1.140 -0.2809  0.6981 -0.5452
 1273TIP3   OH225377   0.138   4.380   7.982  0.1607  0.7511 -0.1676
 1273TIP3    H125378   0.088   4.316   7.930 -2.0374  2.6634 -0.5695
 1273TIP3    H225379   0.219   4.334   8.004 -2.2977 -3.2394  1.8915
 1274TIP3   OH225380   2.276   0.318   2.783  0.2430  0.2007  0.3310
 1274TIP3    H125381   2.208   0.372   2.822  0.1295  0.2597  0.0531
 1274TIP3    H225382   2.228   0.250   2.735  0.2844  1.9498 -2.3863
 1275TIP3   OH225383   4.280   6.918   2.889  0.3989  0.3405  0.0745
 1275TIP3    H125384   4.355   6.967   2.922  0.3420  0.7576 -0.3929
 1275TIP3    H225385   4.308   6.827   2.889  0.0432  0.1747  2.2532
 1276TIP3   OH225386   2.596   3.435   0.673 -0.6749 -0.1677  0.9391
 1276TIP3    H125387   2.526   3.401   0.729 -0.3734 -0.6701  1.0146
 1276TIP3    H225388   2.671   3.378   0.691 -0.0855  0.6868  1.2446
 1277TIP3   OH225389   5.316   2.809   0.705  0.1506  0.3145 -0.3609
 1277TIP3    H125390   5.270   2.882   0.663  1.5162  1.5108  0.1290
 1277TIP3    H225391   5.342   2.844   0.791 -0.9223 -1.4440  0.7256
 1278TIP3   OH225392   5.431   0.872   8.253 -0.2624  0.5609  0.1064
 1278TIP3    H125393   5.370   0.872   8.327 -0.3654 -0.3825  0.0389
 1278TIP3    H225394   5.375   0.874   8.175 -0.1399  2.2919  0.0349
 1279TIP3   OH225395   1.003   1.050   1.061 -0.5694 -0.6765 -0.0820
 1279TIP3    H125396   0.978   1.103   0.985  3.1311 -1.1059 -1.7881
 1279TIP3    H225397   1.007   1.114   1.133  1.5761  1.0560 -1.5934
 1280TIP3   OH225398   2.817   3.803   0.246  0.0197  0.0750  0.4281
 1280TIP3    H125399   2.835   3.755   0.327  0.7120 -0.3858  0.0044
 1280TIP3    H225400   2.848   3.746   0.176  3.8152  2.3210  0.0088
 1281TIP3   OH225401   5.384   4.108   0.511  0.1980  0.1250  0.4921
 1281TIP3    H125402   5.476   4.080   0.517 -0.5885 -2.6804  1.0117
 1281TIP3    H225403   5.371   4.164   0.587  1.8573  1.9727 -0.4906
 1282TIP3   OH225404   3.016   4.883   0.068  0.2504 -0.4701  0.3789
 1282TIP3    H125405   2.988   4.972   0.043 -1.0770 -0.6012  1.2833
 1282TIP3    H225406   3.101   4.896   0.109  0.0929  0.3902  0.4618
 1283TIP3   OH225407   1.312   5.128   0.918  0.9027 -0.4365  0.2316
 1283TIP3    H125408   1.221   5.115   0.891  0.4189  0.8609  1.1168
 1283TIP3    H225409   1.360   5.058   0.875 -0.2154 -0.0435 -1.8018
 1284TIP3   OH225410   6.156   4.257   1.969 -0.6340  0.2988  0.3600
 1284TIP3    H125411   6.089   4.256   1.900 -0.6648  0.2483  0.3907
 1284TIP3    H225412   6.183   4.166   1.977  1.5423  0.6559 -1.7129
 1285TIP3   OH225413   3.681   3.090   0.109  0.4209 -0.3233 -0.1649
 1285TIP3    H125414   3.660   3.049   0.193 -0.8783 -0.3359 -0.4764
 1285TIP3    H225415   3.651   3.180   0.118  0.4929 -0.2611 -0.5288
 1286TIP3   OH225416   6.619   0.183   2.281  0.2774 -0.4705  0.2480
 1286TIP3    H125417   6.603   0.116   2.214  0.6121 -0.3341  0.0267
 1286TIP3    H225418   6.703   0.221   2.256 -0.9220  1.5585 -0.9256
 1287TIP3   OH225419   4.254   4.432   2.699 -0.3548  0.1807  0.2151
 1287TIP3    H125420   4.297   4.415   2.783 -2.1854  2.1175  1.6272
 1287TIP3    H225421   4.294   4.513   2.668 -1.7079  1.0677  0.7104
 1288TIP3   OH225422   5.782   0.834   1.395 -0.1345  0.1457 -0.2245
 1288TIP3    H125423   5.796   0.828   1.301  0.6795 -1.2798 -0.0422
 1288TIP3    H225424   5.858   0.881   1.428 -0.3166  0.4617 -0.2540
 1289TIP3   OH225425   5.957   5.570   0.378  0.5850 -0.1655  0.0730
 1289TIP3    H125426   5.972   5.477   0.394 -1.2176 -0.4569  0.2525
 1289TIP3    H225427   5.966   5.611   0.464 -1.3028 -0.6001  0.5210
 1290TIP3   OH225428   3.851   3.718   2.808 -0.6829  0.0830 -0.0742
 1290TIP3    H125429   3.795   3.792   2.785 -0.6038  1.0759  2.6248
 1290TIP3    H225430   3.932   3.734   2.758 -1.6113  0.3186 -1.5788
 1291TIP3   OH225431   2.851   3.713   2.986 -0.9771 -0.0792 -0.2701
 1291TIP3    H125432   2.941   3.707   3.020 -0.0864  0.6127 -2.3182
 1291TIP3    H225433   2.812   3.628   3.005 -0.2710 -0.0217  1.6174
 1292TIP3   OH225434   3.852   5.540   1.996 -0.8906  0.4303  0.4782
 1292TIP3    H125435   3.942   5.530   1.965 -0.7211  0.4959  0.9342
 1292TIP3    H225436   3.862   5.566   2.088 -1.3738 -3.0318  1.6467
 1293TIP3   OH225437   4.297   3.956   0.239  0.2559 -0.7309  0.1281
 1293TIP3    H125438   4.233   4.020   0.207  0.3304 -1.0146 -0.6181
 1293TIP3    H225439   4.295   3.965   0.334 -0.9516 -0.7912  0.1211
 1294TIP3   OH225440   1.474   6.375   8.113 -0.2666 -0.0810 -0.3121
 1294TIP3    H125441   1.390   6.407   8.080 -2.1207 -3.6062  0.4289
 1294TIP3    H225442   1.455   6.348   8.203  1.4445 -1.7460 -0.3953
 1295TIP3   OH225443   5.779   4.636   2.534 -0.0231 -0.9607  0.2980
 1295TIP3    H125444   5.827   4.683   2.602  1.4764 -1.1535 -0.5790
 1295TIP3    H225445   5.694   4.680   2.530  0.9751  1.0553  0.1813
 1296TIP3   OH225446   5.288   2.028   2.244  0.2292  0.1044  0.2689
 1296TIP3    H125447   5.272   2.112   2.288 -1.3119 -0.8151  1.5741
 1296TIP3    H225448   5.218   2.021   2.179  2.6280  1.5672 -2.7331
 1297TIP3   OH225449   0.457   0.135   8.106  0.3011 -0.3489  0.5143
 1297TIP3    H125450   0.373   0.159   8.145  0.7863 -0.3991  1.6385
 1297TIP3    H225451   0.461   0.039   8.116  0.3134 -0.3929  0.0959
 1298TIP3   OH225452   0.220   6.413   0.330 -0.6417  0.5986 -0.3349
 1298TIP3    H125453   0.214   6.411   0.235  0.3970 -1.4969 -0.3876
 1298TIP3    H225454   0.238   6.323   0.356  1.5428  1.5078  1.6797
 1299TIP3   OH225455   4.921   4.878   0.394 -0.1232 -0.3958  0.4173
 1299TIP3    H125456   4.855   4.914   0.334  0.2432  0.6237  0.6073
 1299TIP3    H225457   4.884   4.890   0.481  0.5930  0.8380  0.5746
 1300TIP3   OH225458   4.892   3.633   0.656  0.4854  0.1940 -0.5690
 1300TIP3    H125459   4.851   3.705   0.609  1.9261  1.5320  0.1339
 1300TIP3    H225460   4.982   3.631   0.624  0.6006 -0.9874 -0.2219
 1301TIP3   OH225461   0.035   5.484   0.912 -0.1315 -0.3713 -0.6462
 1301TIP3    H125462  -0.008   5.399   0.911  1.6775 -1.3484  0.3283
 1301TIP3    H225463   0.059   5.500   0.820  0.8874 -1.6827 -0.6401
 1302TIP3   OH225464   1.011   1.802   0.807 -0.4153  0.2914 -0.6820
 1302TIP3    H125465   1.089   1.822   0.755 -0.0754 -1.6386 -0.9829
 1302TIP3    H225466   1.003   1.877   0.866  1.5715  0.6454 -0.7649
 1303TIP3   OH225467   3.805   4.440   1.042 -0.7931  0.1742  0.4093
 1303TIP3    H125468   3.800   4.515   1.102 -2.5205  0.2766  0.2012
 1303TIP3    H225469   3.738   4.380   1.074  1.0352 -1.6586  0.9960
 1304TIP3   OH225470   3.582   3.521   0.660 -0.0188  0.5037 -0.1189
 1304TIP3    H125471   3.607   3.428   0.659 -0.2657  0.4367 -0.3968
 1304TIP3    H225472   3.511   3.526   0.723 -0.5707  0.3459 -0.7136
 1305TIP3   OH225473   0.965   1.627   7.092 -0.0909 -0.3585 -0.1374
 1305TIP3    H125474   1.026   1.687   7.136 -0.4569  0.1112 -0.2541
 1305TIP3    H225475   1.019   1.551   7.069  0.6708  0.4162 -1.0259
 1306TIP3   OH225476   1.473   1.955   1.683  0.5124 -0.4280  0.0349
 1306TIP3    H125477   1.458   1.860   1.678  1.7538 -0.6489  0.0544
 1306TIP3    H225478   1.389   1.992   1.708 -0.2967 -1.4122 -1.1469
 1307TIP3   OH225479   1.997   6.808   7.758 -0.4553  0.1425 -0.2907
 1307TIP3    H125480   1.970   6.799   7.667 -0.7373  0.9032 -0.2855
 1307TIP3    H225481   2.075   6.864   7.755 -1.1026  1.0913  0.0192
 1308TIP3   OH225482   5.596   6.570   1.591  0.1676  0.2123  0.4529
 1308TIP3    H125483   5.642   6.517   1.526 -0.3596 -0.8250  0.8885
 1308TIP3    H225484   5.528   6.512   1.625  0.5881  0.6216  2.1109
 1309TIP3   OH225485   1.347   4.783   2.147  0.0466 -0.6529  0.1366
 1309TIP3    H125486   1.357   4.875   2.171  1.6808 -0.3669 -1.4182
 1309TIP3    H225487   1.253   4.772   2.133  0.0552  1.6919 -2.7748
 1310TIP3   OH225488   5.082   5.847   0.601  0.3373  0.2021 -0.4467
 1310TIP3    H125489   5.137   5.903   0.547  0.7192 -0.4410 -0.7375
 1310TIP3    H225490   5.078   5.764   0.554  1.6262 -0.7652  1.0500
 1311TIP3   OH225491   0.571   1.519   7.352 -0.5212  0.0761  0.2813
 1311TIP3    H125492   0.513   1.485   7.284 -1.0654 -0.0408  0.8012
 1311TIP3    H225493   0.559   1.459   7.426 -0.0601  0.3029  0.5421
 1312TIP3   OH225494   5.821   4.373   2.013  0.0661 -0.3285  0.3202
 1312TIP3    H125495   5.866   4.327   1.942 -0.3538  0.1156 -0.2432
 1312TIP3    H225496   5.741   4.323   2.028 -1.1236  0.9719 -1.2914
 1313TIP3   OH225497   1.678   6.922   0.714  0.3998 -0.1447  0.4381
 1313TIP3    H125498   1.680   6.969   0.630  1.1883 -2.5242 -0.9859
 1313TIP3    H225499   1.769   6.893   0.726  0.2458 -0.0238  2.0452
 1314TIP3   OH225500   2.720   4.879   1.779 -0.2281 -0.9411  0.3532
 1314TIP3    H125501   2.668   4.819   1.726  0.3494 -1.6190  0.5409
 1314TIP3    H225502   2.803   4.887   1.732 -0.6319  0.4583 -0.1605
 1315TIP3   OH225503   2.791   4.127   1.183  0.1052  0.4061 -0.5131
 1315TIP3    H125504   2.767   4.219   1.174  0.2491  0.8220  2.4618
 1315TIP3    H225505   2.885   4.128   1.201 -0.0832 -0.2044  0.6198
 1316TIP3   OH225506   2.912   3.332   2.079  0.6037 -0.9068  0.1089
 1316TIP3    H125507   2.934   3.243   2.106 -0.0617 -0.7943  1.0723
 1316TIP3    H225508   2.892   3.378   2.161  1.2935  0.2357 -0.3330
 1317TIP3   OH225509   6.520   4.258   8.076 -0.0554 -0.0637  0.0522
 1317TIP3    H125510   6.564   4.193   8.130  1.0116  0.3109 -0.3415
 1317TIP3    H225511   6.537   4.341   8.120  1.6801  0.3804 -1.3265
 1318TIP3   OH225512   4.214   1.614   7.762  0.7149 -0.5441  0.2560
 1318TIP3    H125513   4.160   1.692   7.775  0.4069 -0.8651  0.9668
 1318TIP3    H225514   4.302   1.648   7.746  0.2939 -0.0126 -1.0538
 1319TIP3   OH225515   2.884   6.422   1.575  0.5509  0.8688 -0.0017
 1319TIP3    H125516   2.922   6.452   1.658  1.1643  1.4569 -0.4863
 1319TIP3    H225517   2.878   6.501   1.522  0.4916  0.4309 -0.6545
 1320TIP3   OH225518   0.454   6.740   1.377  0.1188 -0.3882 -0.5847
 1320TIP3    H125519   0.488   6.828   1.397  1.6688 -1.2054  0.5906
 1320TIP3    H225520   0.359   6.752   1.371  0.2689  1.3088 -0.1241
 1321TIP3   OH225521   1.946   1.089   2.727  0.0191 -0.8731  0.7363
 1321TIP3    H125522   1.854   1.084   2.750 -0.3381  0.4992 -0.2497
 1321TIP3    H225523   1.958   1.024   2.658 -1.0520  1.1971 -1.5364
 1322TIP3   OH225524   6.027   3.938   7.601 -0.1646 -0.0764  0.0451
 1322TIP3    H125525   5.965   3.924   7.530 -0.3018  1.5990 -0.2045
 1322TIP3    H225526   6.000   4.021   7.640  0.2833 -0.6569  1.6684
 1323TIP3   OH225527   2.708   1.115   1.411  0.1605 -0.5157  0.4813
 1323TIP3    H125528   2.708   1.064   1.492 -0.5213  0.3372  1.0365
 1323TIP3    H225529   2.640   1.181   1.424  2.8908  2.4610  1.0317
 1324TIP3   OH225530   2.603   0.778   0.581  0.0409  0.3127 -0.5598
 1324TIP3    H125531   2.696   0.762   0.599 -0.0362 -0.4024 -0.7591
 1324TIP3    H225532   2.602   0.855   0.524  0.4452  0.9270  0.2471
 1325TIP3   OH225533   2.378   3.910   7.394 -0.8117  0.4801 -0.0857
 1325TIP3    H125534   2.430   3.940   7.319  0.1305  0.3828  0.5079
 1325TIP3    H225535   2.305   3.863   7.355 -0.4612  0.6293 -0.9513
 1326TIP3   OH225536   2.367   2.583   2.359  0.3109  0.0976 -0.0849
 1326TIP3    H125537   2.302   2.648   2.387  0.4797  0.7313 -1.1241
 1326TIP3    H225538   2.448   2.633   2.347  0.7182 -0.4938  0.1054
 1327TIP3   OH225539   2.987   3.465   1.119 -0.4569 -0.2543  0.0065
 1327TIP3    H125540   3.039   3.404   1.171 -0.7000 -0.4204  0.0546
 1327TIP3    H225541   2.962   3.416   1.041 -1.3088 -0.4779  0.4027
 1328TIP3   OH225542   0.223   4.521   1.749 -0.3128 -0.3455 -0.0741
 1328TIP3    H125543   0.240   4.461   1.822  2.2081  2.6365  2.0767
 1328TIP3    H225544   0.128   4.525   1.742 -0.5832 -2.3256  1.6221
 1329TIP3   OH225545   5.355   2.626   2.285  0.2747 -0.0894 -0.6531
 1329TIP3    H125546   5.424   2.594   2.344 -0.8402 -0.4362  0.5201
 1329TIP3    H225547   5.367   2.575   2.205  0.4644 -1.2300  0.0773
 1330TIP3   OH225548   2.110   5.295   8.310 -0.2518  0.3847 -0.6585
 1330TIP3    H125549   2.027   5.326   8.347  0.8680  0.6075  1.8471
 1330TIP3    H225550   2.159   5.375   8.292  0.0663  0.2142 -0.5463
 1331TIP3   OH225551   2.239   6.728   2.511 -0.1012 -0.1222 -0.1841
 1331TIP3    H125552   2.172   6.766   2.568  0.0013  1.1746 -0.9027
 1331TIP3    H225553   2.320   6.733   2.561 -0.0939  0.5954 -0.2645
 1332TIP3   OH225554   6.783   1.429   1.724  0.6675  0.1191  0.2206
 1332TIP3    H125555   6.733   1.348   1.718  1.0238 -0.0287 -1.2354
 1332TIP3    H225556   6.717   1.498   1.727  0.3632 -0.1153 -0.8120
 1333TIP3   OH225557   6.964   3.098   1.903 -0.0831 -0.1608 -0.3359
 1333TIP3    H125558   6.958   3.109   1.808  1.0593 -2.4475 -0.7475
 1333TIP3    H225559   6.928   3.011   1.919  0.7884 -0.2772  1.1725
 1334TIP3   OH225560   2.269   0.347   0.266  0.3424 -0.4522  0.7509
 1334TIP3    H125561   2.206   0.335   0.338  0.7708 -0.9082  1.0604
 1334TIP3    H225562   2.353   0.358   0.310  0.5023 -0.0243  0.3326
 1335TIP3   OH225563   2.549   6.866   0.347  0.4097  0.0425 -0.7719
 1335TIP3    H125564   2.541   6.865   0.251  0.6161 -2.0436 -0.8206
 1335TIP3    H225565   2.556   6.773   0.371  2.1281  0.5984  1.1174
 1336TIP3   OH225566   2.696   3.460   3.039 -0.0869  0.1935  0.1711
 1336TIP3    H125567   2.768   3.439   3.099  1.6569  1.5780 -1.3482
 1336TIP3    H225568   2.728   3.437   2.952 -1.3108  1.2269 -0.5975
 1337TIP3   OH225569   6.729   1.773   0.391 -0.2531 -0.5643 -0.2061
 1337TIP3    H125570   6.704   1.865   0.399 -1.2273 -0.7509 -0.8794
 1337TIP3    H225571   6.655   1.724   0.429  0.6182 -1.0599  0.9004
 1338TIP3   OH225572   3.253   0.204   2.111 -0.4491 -0.6682  0.2789
 1338TIP3    H125573   3.320   0.254   2.157 -2.1548 -0.4801  2.7363
 1338TIP3    H225574   3.244   0.247   2.026  1.6120  0.0567  0.3854
 1339TIP3   OH225575   1.490   5.351   8.346  0.1971 -0.4852  0.1818
 1339TIP3    H125576   1.505   5.433   8.300 -0.7123 -0.0296  0.6741
 1339TIP3    H225577   1.563   5.295   8.320  1.1747  0.6860  0.3216
 1340TIP3   OH225578   5.307   2.143   8.331  0.2827  0.0366 -0.0591
 1340TIP3    H125579   5.335   2.214   8.273  0.9625 -0.3717 -0.2435
 1340TIP3    H225580   5.229   2.107   8.290  1.5199 -1.1412 -1.4932
 1341TIP3   OH225581   6.814   0.519   1.185 -0.0511 -0.1328  0.3162
 1341TIP3    H125582   6.860   0.435   1.191 -1.1756 -0.8750 -0.8355
 1341TIP3    H225583   6.770   0.529   1.269 -0.5773 -1.1253  0.1755
 1342TIP3   OH225584   3.532   1.402   0.215  0.2325  0.1438  0.2791
 1342TIP3    H125585   3.441   1.433   0.212  0.7390  1.7730  0.9107
 1342TIP3    H225586   3.524   1.308   0.231 -1.3251  0.5518  2.3852
 1343TIP3   OH225587   4.707   0.370   3.314  0.6174  0.2045 -0.0839
 1343TIP3    H125588   4.663   0.331   3.389  0.6417 -1.3714 -0.8593
 1343TIP3    H225589   4.684   0.463   3.319 -0.5260 -0.1096  1.0701
 1344TIP3   OH225590   3.078   1.316   0.364 -0.1306 -0.6262 -0.2172
 1344TIP3    H125591   3.032   1.328   0.281 -1.7382  2.4451  0.9855
 1344TIP3    H225592   3.011   1.286   0.425  0.7171 -1.4268  0.3507
 1345TIP3   OH225593   2.392   1.317   1.131  0.5450 -0.1530 -0.5114
 1345TIP3    H125594   2.484   1.344   1.135  0.3420  0.3799  1.1900
 1345TIP3    H225595   2.390   1.235   1.181  0.1277 -0.2476 -0.6860
 1346TIP3   OH225596   4.745   5.089   0.258 -0.5244  0.4542  0.2977
 1346TIP3    H125597   4.801   5.074   0.182 -1.6637  0.1266 -0.5047
 1346TIP3    H225598   4.791   5.155   0.309  0.3768  0.5126 -0.5631
 1347TIP3   OH225599   1.300   5.675   8.433  0.6702 -0.5869 -0.0697
 1347TIP3    H125600   1.253   5.647   8.512  1.4321  1.8304  1.3512
 1347TIP3    H225601   1.250   5.638   8.361 -0.3650 -2.4597  1.5100
 1348TIP3   OH225602   1.520   6.100   0.188 -0.3405  0.7201 -0.2168
 1348TIP3    H125603   1.533   6.098   0.093  1.7465  0.8962  0.0282
 1348TIP3    H225604   1.473   6.018   0.207 -0.0013  0.2513 -1.2945
 1349TIP3   OH225605   1.013   4.148   7.788 -0.1517 -0.0965  0.5480
 1349TIP3    H125606   0.971   4.164   7.703 -0.0786  0.7317  0.6610
 1349TIP3    H225607   1.066   4.226   7.804  0.5913 -0.6565  0.9154
 1350TIP3   OH225608   3.642   6.067   3.324 -0.1868 -0.0639  0.0946
 1350TIP3    H125609   3.694   5.991   3.296 -0.0039 -0.5852  1.6874
 1350TIP3    H225610   3.643   6.126   3.250  0.6141 -1.1499 -0.7972
 1351TIP3   OH225611   1.965   5.196   8.099 -0.0128 -0.1966  0.0052
 1351TIP3    H125612   1.988   5.114   8.056 -1.5584 -0.2211 -0.8516
 1351TIP3    H225613   2.035   5.211   8.163 -0.8270 -3.3283  1.8100
 1352TIP3   OH225614   6.750   1.316   0.009 -0.0541  0.2447 -0.3112
 1352TIP3    H125615   6.726   1.251  -0.057 -0.7298  0.1665  0.0024
 1352TIP3    H225616   6.671   1.368   0.022  0.2269  0.5891  0.0618
 1353TIP3   OH225617   0.617   6.564   2.119 -0.0302  0.7133  0.8808
 1353TIP3    H125618   0.670   6.607   2.053 -1.6371  2.3730  0.5817
 1353TIP3    H225619   0.633   6.614   2.199  1.3843 -0.8661  1.6357
 1354TIP3   OH225620   5.607   4.144   2.061 -0.2115 -0.7255 -0.1382
 1354TIP3    H125621   5.649   4.058   2.063 -1.2668 -1.2592  0.2061
 1354TIP3    H225622   5.580   4.159   2.152 -0.1429 -0.0818 -0.2187
 1355TIP3   OH225623   5.728   4.361   7.777 -0.1876  0.2141 -0.1998
 1355TIP3    H125624   5.775   4.441   7.803 -1.8284  0.8106  1.1305
 1355TIP3    H225625   5.657   4.392   7.720  0.2792 -0.5312 -1.2069
 1356TIP3   OH225626   4.426   2.315   1.918 -0.0765  0.4898 -0.0978
 1356TIP3    H125627   4.389   2.232   1.891 -0.0718  0.7305 -0.8898
 1356TIP3    H225628   4.420   2.315   2.013 -5.1173  1.8722 -0.1371
 1357TIP3   OH225629   6.058   0.580   2.243 -0.0325  0.3312  0.3870
 1357TIP3    H125630   5.970   0.572   2.280  0.2758 -1.0262  0.8705
 1357TIP3    H225631   6.045   0.571   2.149 -0.2394 -1.8578  0.5702
 1358TIP3   OH225632   4.904   2.695   2.578  0.0017  0.7485 -0.1311
 1358TIP3    H125633   4.911   2.722   2.487  0.3885 -0.0787 -0.3606
 1358TIP3    H225634   4.861   2.610   2.575  2.4388 -0.6123  0.1751
 1359TIP3   OH225635   3.150   6.302   1.460  0.1320 -0.3226  0.4435
 1359TIP3    H125636   3.146   6.285   1.366 -0.0073  0.2552  0.3377
 1359TIP3    H225637   3.100   6.383   1.471  1.3098  0.3737  0.8192
 1360TIP3   OH225638   1.482   2.766   7.653  0.4879 -0.1545 -0.0951
 1360TIP3    H125639   1.502   2.849   7.695  0.0066 -0.2536  0.3368
 1360TIP3    H225640   1.468   2.788   7.561 -0.1536  0.3208  0.1127
 1361TIP3   OH225641   0.660   6.889   2.583  0.1910  0.3201 -0.4236
 1361TIP3    H125642   0.659   6.951   2.656  1.4316 -0.8329  0.6434
 1361TIP3    H225643   0.569   6.881   2.556 -0.5487 -0.2996  2.0045
 1362TIP3   OH225644   3.723   2.749   1.540 -0.4218  0.3402  0.5711
 1362TIP3    H125645   3.641   2.702   1.552 -1.2079  1.3828 -0.4287
 1362TIP3    H225646   3.758   2.715   1.458 -0.3314  0.5365  0.5261
 1363TIP3   OH225647   6.417   6.077   2.776 -0.4941  0.1392  0.7828
 1363TIP3    H125648   6.468   6.151   2.741 -1.0610  0.4734  0.6599
 1363TIP3    H225649   6.342   6.118   2.818 -2.2202 -0.4545 -1.5199
 1364TIP3   OH225650   0.111   3.022   0.535 -0.6591 -0.3942 -0.0586
 1364TIP3    H125651   0.137   3.059   0.620  0.2297  1.1523 -0.9689
 1364TIP3    H225652   0.160   2.940   0.530  0.1252  0.0240  0.4695
 1365TIP3   OH225653   4.299   0.576   0.729  0.2125  0.0065  0.5719
 1365TIP3    H125654   4.329   0.499   0.682 -0.4160  0.1168 -0.0372
 1365TIP3    H225655   4.208   0.556   0.753 -0.6042  1.2577 -1.2525
 1366TIP3   OH225656   4.547   6.719   7.309 -0.0639 -0.0408  0.2865
 1366TIP3    H125657   4.571   6.650   7.248 -0.8071 -2.3246  2.4132
 1366TIP3    H225658   4.624   6.776   7.312  1.1854 -1.6206 -0.4294
 1367TIP3   OH225659   3.517   1.051   2.100 -0.1573  0.1946  0.2719
 1367TIP3    H125660   3.543   1.139   2.075  1.7284 -0.2859  0.3737
 1367TIP3    H225661   3.430   1.039   2.062 -0.3621  2.0037  0.0928
 1368TIP3   OH225662   2.625   5.356   0.404  0.3580 -0.2113  0.2576
 1368TIP3    H125663   2.559   5.346   0.335  0.1170  0.7228  0.3349
 1368TIP3    H225664   2.646   5.266   0.430  1.1379 -0.6358 -1.6606
 1369TIP3   OH225665   0.896   4.232   0.092  0.3371 -0.5056  0.5673
 1369TIP3    H125666   0.848   4.314   0.104  0.2985 -0.5878  0.9976
 1369TIP3    H225667   0.962   4.232   0.161  1.6981  0.1171 -0.6825
 1370TIP3   OH225668   3.078   0.515   0.556 -0.6237 -0.0724  0.2090
 1370TIP3    H125669   3.078   0.539   0.463 -1.9330  3.3058  0.9315
 1370TIP3    H225670   3.031   0.431   0.559 -0.7382 -0.1684 -2.1297
 1371TIP3   OH225671   4.726   0.624   8.267 -0.2409 -0.5072 -0.4051
 1371TIP3    H125672   4.737   0.713   8.234  1.8838 -0.1051  1.1468
 1371TIP3    H225673   4.637   0.621   8.300 -0.1995  1.1942 -0.0852
 1372TIP3   OH225674   0.226   1.115   7.894  0.4026 -0.4535  0.1278
 1372TIP3    H125675   0.312   1.088   7.926  0.5082 -0.6702 -0.3257
 1372TIP3    H225676   0.245   1.183   7.829  0.0419  3.5181  3.7305
 1373TIP3   OH225677   2.831   0.345   7.681  0.5508 -0.0011 -0.4223
 1373TIP3    H125678   2.786   0.429   7.672  0.4064 -0.0117  0.1640
 1373TIP3    H225679   2.922   0.368   7.698  0.6602  0.0245 -1.0072
 1374TIP3   OH225680   6.349   3.826   1.410 -0.1405  0.6529 -0.1605
 1374TIP3    H125681   6.343   3.855   1.501  0.2175  0.9503 -0.2299
 1374TIP3    H225682   6.258   3.819   1.381 -0.3376 -0.9682  0.6898
 1375TIP3   OH225683   0.612   4.454   7.631 -0.3853  0.0620  0.4054
 1375TIP3    H125684   0.684   4.435   7.571 -0.2922  1.1475  0.1538
 1375TIP3    H225685   0.631   4.543   7.663 -2.5469  1.1110 -1.0373
 1376TIP3   OH225686   2.281   2.774   8.101  0.1436 -0.4960 -0.2049
 1376TIP3    H125687   2.286   2.815   8.015 -3.6554  1.3313  0.2260
 1376TIP3    H225688   2.306   2.843   8.162 -1.2298 -0.4082  0.2912
 1377TIP3   OH225689   3.321   2.484   0.919  0.0957  0.2119 -0.3645
 1377TIP3    H125690   3.277   2.553   0.969  1.0375 -0.4476  1.4741
 1377TIP3    H225691   3.411   2.514   0.911  0.7074 -1.0921  1.1215
 1378TIP3   OH225692   5.767   5.689   7.857  0.3143  0.3440  0.6105
 1378TIP3    H125693   5.771   5.601   7.821  1.3181  0.3699  0.6321
 1378TIP3    H225694   5.730   5.743   7.786  1.7121  0.2888 -0.1882
 1379TIP3   OH225695   6.247   6.683   1.963  0.1093 -0.3532 -0.0624
 1379TIP3    H125696   6.343   6.684   1.963  0.1126 -0.3653 -0.6474
 1379TIP3    H225697   6.224   6.630   1.887 -0.3719  1.1187 -0.9896
 1380TIP3   OH225698   4.930   3.991   7.687 -0.0300  0.2785  0.3688
 1380TIP3    H125699   4.989   4.051   7.733 -0.4050  0.8535  0.1086
 1380TIP3    H225700   4.887   4.046   7.621  1.7074 -0.8152 -1.8388
 1381TIP3   OH225701   2.001   5.392   1.643 -0.4593  0.3242  0.6108
 1381TIP3    H125702   2.050   5.469   1.611 -0.9923  1.1509  1.7299
 1381TIP3    H225703   2.067   5.339   1.688  0.4365 -1.1453 -2.1680
 1382TIP3   OH225704   2.244   6.450   3.334  0.6544  0.0339  0.5532
 1382TIP3    H125705   2.301   6.391   3.284  0.5440  1.1763 -0.9901
 1382TIP3    H225706   2.261   6.428   3.425  1.1282 -1.8918  0.0460
 1383TIP3   OH225707   6.952   2.340   0.316  0.0864  0.4353 -0.5367
 1383TIP3    H125708   6.924   2.430   0.295 -1.8509 -0.7523 -3.7551
 1383TIP3    H225709   6.870   2.290   0.321  0.9809 -0.9955  2.8875
 1384TIP3   OH225710   5.631   0.707   7.847  0.2002  0.4323 -0.3749
 1384TIP3    H125711   5.662   0.660   7.770  0.0046  0.8310 -0.6969
 1384TIP3    H225712   5.669   0.795   7.839 -0.5957  0.7695 -0.5079
 1385TIP3   OH225713   3.394   2.187   2.536  0.2294  0.0779 -0.2465
 1385TIP3    H125714   3.333   2.260   2.539 -0.7416 -0.6327 -1.5074
 1385TIP3    H225715   3.397   2.155   2.626 -2.4957 -0.7989 -0.3737
 1386TIP3   OH225716   2.888   0.327   0.618  0.2077  0.4115 -0.2851
 1386TIP3    H125717   2.833   0.248   0.618  1.0424 -0.2151  1.3572
 1386TIP3    H225718   2.839   0.390   0.565 -2.1474 -0.1062  1.1204
 1387TIP3   OH225719   5.023   3.967   2.521  0.2987  0.1825 -0.1656
 1387TIP3    H125720   5.022   3.938   2.612 -0.7506 -0.1027 -0.2590
 1387TIP3    H225721   5.009   4.062   2.527  0.2866  0.1732 -0.0307
 1388TIP3   OH225722   6.250   3.218   6.957 -0.2228 -0.6128 -0.3502
 1388TIP3    H125723   6.184   3.151   6.936  0.2694 -1.4472  0.6351
 1388TIP3    H225724   6.255   3.273   6.879 -1.5075 -1.0102 -0.7405
 1389TIP3   OH225725   0.125   5.968   7.794  0.2358 -0.4937 -0.1507
 1389TIP3    H125726   0.178   5.894   7.765  1.9522 -0.0759  1.6850
 1389TIP3    H225727   0.060   5.931   7.853  1.4408 -0.5521  1.2052
 1390TIP3   OH225728   3.533   5.463   7.876 -0.8816 -0.4424 -0.0276
 1390TIP3    H125729   3.538   5.460   7.780 -0.4589 -2.8730 -0.0034
 1390TIP3    H225730   3.612   5.511   7.902 -0.3116 -0.8724 -0.8868
 1391TIP3   OH225731   2.413   2.603   1.204  0.0760  0.4417  0.0787
 1391TIP3    H125732   2.433   2.591   1.297 -1.0085 -0.0660  0.2684
 1391TIP3    H225733   2.326   2.564   1.193  0.1576  0.5557 -1.1396
 1392TIP3   OH225734   1.074   5.912   2.343  0.3820 -0.0189 -0.1551
 1392TIP3    H125735   1.141   5.979   2.327  0.2952  0.6483  2.0105
 1392TIP3    H225736   0.997   5.944   2.295  0.7075  0.7878 -0.1599
 1393TIP3   OH225737   1.397   4.882   0.806  0.2952  0.0347 -0.0269
 1393TIP3    H125738   1.429   4.805   0.852  0.5587 -1.0851 -1.9441
 1393TIP3    H225739   1.467   4.904   0.745 -1.6783 -1.4088 -3.0949
 1394TIP3   OH225740   1.371   3.684   0.735 -0.8318  0.1381 -0.4685
 1394TIP3    H125741   1.439   3.622   0.761  1.9421  2.2981 -1.9743
 1394TIP3    H225742   1.310   3.685   0.809 -0.0572 -2.9430  0.3688
 1395TIP3   OH225743   0.483   1.709   0.649 -0.1743 -0.2918 -0.1172
 1395TIP3    H125744   0.538   1.656   0.706 -0.0252 -0.9987 -0.8934
 1395TIP3    H225745   0.462   1.786   0.701 -0.8154 -1.3302  1.2335
 1396TIP3   OH225746   1.257   4.800   3.567  0.1687 -0.2720  0.2301
 1396TIP3    H125747   1.339   4.751   3.570 -0.3659 -1.1695  0.5916
 1396TIP3    H225748   1.284   4.892   3.570  1.0994 -0.5607  2.5115
 1397TIP3   OH225749   4.125   0.868   7.815 -0.5353 -0.1313  0.8504
 1397TIP3    H125750   4.097   0.839   7.729  0.7670 -3.2039  1.3179
 1397TIP3    H225751   4.051   0.918   7.849 -1.8357 -0.4947 -1.2719
 1398TIP3   OH225752   5.211   5.375   2.722  0.0808  0.5152 -0.3945
 1398TIP3    H125753   5.181   5.377   2.631  0.7041  0.8494 -0.5993
 1398TIP3    H225754   5.304   5.395   2.717  0.5586 -1.3745  0.1438
 1399TIP3   OH225755   3.384   1.098   2.500  0.1449 -0.0736 -0.0597
 1399TIP3    H125756   3.451   1.133   2.558 -0.4092 -0.4677  0.8372
 1399TIP3    H225757   3.345   1.025   2.548 -0.8522  0.0711 -0.5964
 1400TIP3   OH225758   3.523   0.785   3.351 -0.3970  0.1068 -0.0460
 1400TIP3    H125759   3.564   0.851   3.406 -2.1897  2.5917 -1.4917
 1400TIP3    H225760   3.435   0.774   3.389 -0.7952  0.0366 -0.9589
 1401TIP3   OH225761   1.537   3.137   2.252  0.8186  0.4971 -0.0682
 1401TIP3    H125762   1.519   3.114   2.161  1.3866  1.3863 -0.4227
 1401TIP3    H225763   1.469   3.200   2.275 -1.1101 -1.8926  1.0999
 1402TIP3   OH225764   0.246   0.310   7.944 -0.3269  0.6014 -0.2607
 1402TIP3    H125765   0.266   0.400   7.968 -0.0230  0.5457 -0.3060
 1402TIP3    H225766   0.231   0.266   8.028  0.6177  0.4361 -0.1697
 1403TIP3   OH225767   4.037   5.818   0.323 -0.5847  0.5774 -0.0932
 1403TIP3    H125768   3.983   5.874   0.268  0.4945 -0.7397 -2.6542
 1403TIP3    H225769   4.014   5.729   0.297  1.9851 -0.0408 -0.5496
 1404TIP3   OH225770   4.262   0.162   8.411  0.2924  0.0496 -0.0046
 1404TIP3    H125771   4.278   0.187   8.502 -0.4150  0.3765  0.0345
 1404TIP3    H225772   4.268   0.066   8.411 -2.0959 -0.1584  0.8926
 1405TIP3   OH225773   2.199   3.735   7.298  0.2620 -0.4967  0.2004
 1405TIP3    H125774   2.141   3.746   7.373 -1.5408 -0.7475 -1.0829
 1405TIP3    H225775   2.160   3.663   7.248  2.0891 -1.1502 -0.3819
 1406TIP3   OH225776   6.376   1.233   2.644 -0.6786 -0.3692  0.2070
 1406TIP3    H125777   6.460   1.277   2.653 -1.3656  0.8183  0.9843
 1406TIP3    H225778   6.386   1.152   2.695 -0.4774  0.4608  1.5205
 1407TIP3   OH225779   1.905   1.114   0.833  0.2553  0.6862 -0.2560
 1407TIP3    H125780   1.993   1.104   0.870 -0.2857  1.1746  1.2197
 1407TIP3    H225781   1.850   1.135   0.908 -0.9558  1.3662 -1.3052
 1408TIP3   OH225782   4.226   2.464   8.133  0.5329 -0.1920 -0.0373
 1408TIP3    H125783   4.272   2.391   8.176  0.7214 -0.6873 -1.0461
 1408TIP3    H225784   4.181   2.424   8.059  1.1134  0.7992 -0.9543
 1409TIP3   OH225785   6.588   3.550   1.595  0.2940 -0.3471  0.1498
 1409TIP3    H125786   6.523   3.482   1.581 -0.0515 -0.7430  3.0469
 1409TIP3    H225787   6.603   3.588   1.508 -2.0182 -1.8117 -0.9721
 1410TIP3   OH225788   1.397   0.303   1.254  0.1503 -0.0843  0.3026
 1410TIP3    H125789   1.471   0.345   1.300  0.7804  0.0996 -0.8563
 1410TIP3    H225790   1.359   0.245   1.320  0.9137  0.3202  1.1305
 1411TIP3   OH225791   6.085   6.768   7.626  0.4023  0.1586  0.1759
 1411TIP3    H125792   6.146   6.840   7.640  0.1303  0.4459 -0.0868
 1411TIP3    H225793   6.028   6.799   7.555  1.7766 -1.2525 -1.6231
 1412TIP3   OH225794   2.895   5.670   8.204  0.2355 -0.6308 -0.6951
 1412TIP3    H125795   2.882   5.701   8.293 -0.9381 -0.8976 -0.7622
 1412TIP3    H225796   2.819   5.701   8.155  0.6538 -0.8396 -1.5103
 1413TIP3   OH225797   2.090   1.462   7.083 -0.0067  0.2638 -0.3803
 1413TIP3    H125798   2.017   1.431   7.030 -0.3107 -1.5212  0.9863
 1413TIP3    H225799   2.050   1.518   7.150  0.3418  2.2663 -1.7753
 1414TIP3   OH225800   0.175   4.109   3.247 -0.4945 -0.5826  0.1404
 1414TIP3    H125801   0.243   4.174   3.261 -0.9799  0.1202 -0.6313
 1414TIP3    H225802   0.180   4.051   3.323 -0.2376  0.5185  0.9761
 1415TIP3   OH225803   4.472   5.280   3.085 -0.3977  0.9071  0.0593
 1415TIP3    H125804   4.525   5.247   3.013 -1.3423 -0.6457  0.0169
 1415TIP3    H225805   4.519   5.356   3.118  2.9846 -1.5052  1.3360
 1416TIP3   OH225806   2.817   1.860   1.292  0.0968  0.2560 -0.0018
 1416TIP3    H125807   2.810   1.830   1.382  0.2972  1.6162  0.4834
 1416TIP3    H225808   2.869   1.940   1.296  0.1571  0.3173 -1.3290
 1417TIP3   OH225809   6.356   2.730   0.856  0.0287  0.4349 -0.3585
 1417TIP3    H125810   6.344   2.665   0.925 -1.7823  0.4781 -0.5835
 1417TIP3    H225811   6.286   2.794   0.871  1.7049  2.3004 -0.2055
 1418TIP3   OH225812   5.936   3.914   7.308 -0.0583 -0.7335 -0.2616
 1418TIP3    H125813   5.851   3.936   7.346 -0.8315 -2.8325 -0.6647
 1418TIP3    H225814   5.918   3.842   7.247  1.7903 -0.2356 -1.4946
 1419TIP3   OH225815   2.143   0.273   2.167 -0.0994 -0.0457  0.1078
 1419TIP3    H125816   2.076   0.268   2.235 -0.6055  1.8732 -0.1949
 1419TIP3    H225817   2.111   0.339   2.106  0.4770 -1.4995 -1.8832
 1420TIP3   OH225818   3.834   6.892   7.519 -0.4368  0.0692 -0.4985
 1420TIP3    H125819   3.790   6.946   7.453  0.8017  0.7229 -0.8276
 1420TIP3    H225820   3.905   6.948   7.552 -0.4935 -0.5710  0.7616
 1421TIP3   OH225821   2.201   2.117   1.393 -0.0261 -0.6867 -0.3305
 1421TIP3    H125822   2.224   2.035   1.348  1.1107  0.0611 -1.1783
 1421TIP3    H225823   2.264   2.124   1.464  1.5164  0.6045 -1.7268
 1422TIP3   OH225824   6.544   4.702   0.856 -0.0758  0.2056 -0.5095
 1422TIP3    H125825   6.589   4.633   0.807 -0.1278  0.4378 -0.8920
 1422TIP3    H225826   6.457   4.666   0.875  0.0946 -0.0512 -0.2045
 1423TIP3   OH225827   5.120   4.608   2.501 -0.1447 -0.4051  0.1941
 1423TIP3    H125828   5.118   4.518   2.470 -0.1121  0.1172 -1.4269
 1423TIP3    H225829   5.077   4.658   2.432 -0.3887  0.8024  1.1731
 1424TIP3   OH225830   5.754   6.274   0.547  0.1170 -0.7138  0.0705
 1424TIP3    H125831   5.696   6.201   0.564  0.1496 -0.2523  2.4168
 1424TIP3    H225832   5.823   6.237   0.492 -0.4901 -2.1320  0.2234
 1425TIP3   OH225833   2.216   0.790   1.040 -0.3977  0.1644  0.1301
 1425TIP3    H125834   2.124   0.777   1.064 -0.8277  0.3644 -1.2855
 1425TIP3    H225835   2.212   0.833   0.954  1.0179 -0.3175 -0.2007
 1426TIP3   OH225836   3.236   6.806   0.194  0.2744  0.1423 -0.3792
 1426TIP3    H125837   3.152   6.852   0.194 -0.9932 -2.0218 -0.9882
 1426TIP3    H225838   3.274   6.826   0.279 -2.4742 -1.4635  1.3919
 1427TIP3   OH225839   4.343   4.339   8.259  0.3268 -0.1833  0.1264
 1427TIP3    H125840   4.392   4.419   8.275  2.1279 -1.2113  0.0122
 1427TIP3    H225841   4.409   4.275   8.235 -1.1684 -1.4717 -0.7316
 1428TIP3   OH225842   5.223   4.584   7.497 -0.0870 -0.5872  0.0172
 1428TIP3    H125843   5.307   4.572   7.452 -0.3949 -0.8254 -0.4879
 1428TIP3    H225844   5.214   4.507   7.553  0.3551 -0.2311  0.6021
 1429TIP3   OH225845   5.931   2.324   1.434  0.1030  0.1400 -0.1469
 1429TIP3    H125846   5.891   2.353   1.352  0.2973  2.1363  0.4037
 1429TIP3    H225847   5.857   2.310   1.493  0.0511  0.7935 -0.0491
 1430TIP3   OH225848   5.903   3.506   2.138  0.2394 -0.1331 -0.7204
 1430TIP3    H125849   5.950   3.450   2.076  0.7343  1.1232 -1.5335
 1430TIP3    H225850   5.826   3.535   2.090 -0.4993 -0.8214  0.0177
 1431TIP3   OH225851   5.982   2.865   2.042  0.0420  0.1041  0.2011
 1431TIP3    H125852   5.940   2.944   2.077 -0.2793  0.0329 -0.0208
 1431TIP3    H225853   5.949   2.858   1.952 -0.7948 -0.8813  0.5620
 1432TIP3   OH225854   3.161   6.509   8.237  0.4000 -0.2129  0.1349
 1432TIP3    H125855   3.066   6.512   8.246  0.4449 -1.1056  1.1138
 1432TIP3    H225856   3.179   6.553   8.153 -0.6603  2.1768  1.0755
 1433TIP3   OH225857   2.264   4.501   2.706  0.3405 -0.1858 -0.4989
 1433TIP3    H125858   2.305   4.545   2.632 -1.1631 -3.2664 -3.4412
 1433TIP3    H225859   2.178   4.541   2.713  0.1289 -0.5252 -1.0976
 1434TIP3   OH225860   1.247   4.744   8.208  0.2191 -0.1382 -0.9271
 1434TIP3    H125861   1.197   4.799   8.269  0.4806 -0.1395 -0.7124
 1434TIP3    H225862   1.335   4.782   8.208  0.5472 -0.8683 -0.3801
 1435TIP3   OH225863   3.057   1.608   8.202  0.0521 -0.2667  0.6353
 1435TIP3    H125864   3.047   1.698   8.172  1.5689 -0.2304  0.1660
 1435TIP3    H225865   3.125   1.612   8.269  0.3020 -1.0995  0.4453
 1436TIP3   OH225866   0.341   1.414   2.212 -0.0915 -0.0721 -0.1454
 1436TIP3    H125867   0.264   1.458   2.248 -0.5544 -0.8909 -0.1104
 1436TIP3    H225868   0.413   1.438   2.270 -0.9729 -2.0749  1.9257
 1437TIP3   OH225869   0.558   3.504   1.596 -0.2659  0.1358 -0.4147
 1437TIP3    H125870   0.534   3.588   1.556 -0.9932  1.0173  1.7445
 1437TIP3    H225871   0.501   3.497   1.673 -0.1525 -2.3185 -0.4782
 1438TIP3   OH225872   6.685   4.088   7.762  0.1729  0.1144 -0.9844
 1438TIP3    H125873   6.723   4.116   7.679  3.2173 -0.5398  0.0624
 1438TIP3    H225874   6.730   4.007   7.783 -1.4703 -0.4444  0.7213
 1439TIP3   OH225875   4.700   1.472   0.142 -0.3065  0.0955 -0.4549
 1439TIP3    H125876   4.693   1.377   0.140  2.1020 -0.1218 -1.1942
 1439TIP3    H225877   4.686   1.499   0.051 -2.5308  0.6433 -0.0021
 1440TIP3   OH225878   2.720   5.910   1.385  0.4114 -0.3299 -0.4653
 1440TIP3    H125879   2.762   5.986   1.425 -2.4616  1.0940  0.0764
 1440TIP3    H225880   2.694   5.855   1.459  0.9524 -1.0509 -0.7854
 1441TIP3   OH225881   4.508   0.549   0.087 -0.3998  0.0876  0.2150
 1441TIP3    H125882   4.465   0.576   0.006  1.6127  1.0233 -0.6259
 1441TIP3    H225883   4.557   0.471   0.063  1.2590  1.1072  0.1070
 1442TIP3   OH225884   4.809   0.085   8.285 -0.4999  0.1906  0.3532
 1442TIP3    H125885   4.892   0.044   8.311 -0.2233  0.0448 -0.7043
 1442TIP3    H225886   4.835   0.166   8.242 -0.9089  0.1844  0.0903
 1443TIP3   OH225887   3.930   1.859   3.335  0.1239  0.2957 -0.0775
 1443TIP3    H125888   3.841   1.882   3.308 -1.5888 -1.1070  3.6556
 1443TIP3    H225889   3.943   1.771   3.301  0.7877  1.0511 -1.9081
 1444TIP3   OH225890   0.846   6.291   0.038  0.2500 -0.2549 -0.3012
 1444TIP3    H125891   0.866   6.233   0.111 -0.8933 -0.2711  0.0201
 1444TIP3    H225892   0.862   6.379   0.071  2.4969 -0.3549 -0.9510
 1445TIP3   OH225893   5.405   3.906   1.512  0.4181  0.3626 -0.6194
 1445TIP3    H125894   5.456   3.968   1.460  1.9002 -0.2208  0.0780
 1445TIP3    H225895   5.469   3.840   1.540 -0.5513  0.0641  1.0211
 1446TIP3   OH225896   1.333   6.200   2.496 -0.1081  0.4627  0.1250
 1446TIP3    H125897   1.324   6.270   2.561 -2.7516  1.7628 -1.4554
 1446TIP3    H225898   1.309   6.241   2.413  0.6335 -1.7589 -1.2678
 1447TIP3   OH225899   2.725   2.044   2.789 -0.0723  0.0294 -0.4504
 1447TIP3    H125900   2.756   2.133   2.769 -1.0882  0.9345  1.6818
 1447TIP3    H225901   2.648   2.032   2.735 -0.1894  0.6386 -0.4241
 1448TIP3   OH225902   1.638   2.043   8.413  0.0867 -0.3141 -0.4494
 1448TIP3    H125903   1.730   2.058   8.392  0.2499 -1.2254 -0.4547
 1448TIP3    H225904   1.605   1.991   8.339  0.5490 -3.1883  1.1939
 1449TIP3   OH225905   1.090   1.524   0.526  0.2426  0.2023  0.4268
 1449TIP3    H125906   1.072   1.442   0.480 -1.2350  1.7938 -2.0530
 1449TIP3    H225907   1.009   1.542   0.575  0.7864 -0.0714  1.4607
 1450TIP3   OH225908   3.368   1.955   1.104 -0.0959  0.0239  0.4691
 1450TIP3    H125909   3.371   2.049   1.086  0.3094 -0.0072  0.3557
 1450TIP3    H225910   3.306   1.946   1.176 -0.9313  0.2680 -0.2046
 1451TIP3   OH225911   5.837   5.669   0.878  0.3393 -0.7894  1.0781
 1451TIP3    H125912   5.877   5.733   0.819  0.7754 -0.7282  1.4343
 1451TIP3    H225913   5.806   5.600   0.820 -1.0374  0.2044  0.6061
 1452TIP3   OH225914   2.356   2.792   7.457  0.4495  0.1185 -0.3893
 1452TIP3    H125915   2.382   2.834   7.539  1.3468 -0.0529 -0.5844
 1452TIP3    H225916   2.272   2.751   7.478  1.2483 -0.9853  0.8082
 1453TIP3   OH225917   1.866   0.064   1.901 -0.1200  0.0247  0.2670
 1453TIP3    H125918   1.914   0.129   1.848 -0.5681 -0.5683 -0.9084
 1453TIP3    H225919   1.927   0.041   1.971  1.1898 -0.3724 -0.9298
 1454TIP3   OH225920   3.320   2.629   0.657  0.2284  0.2871 -0.0357
 1454TIP3    H125921   3.241   2.620   0.710 -0.3971 -3.9155 -1.3414
 1454TIP3    H225922   3.391   2.636   0.720 -0.7052 -2.0123  1.3612
 1455TIP3   OH225923   1.183   2.396   2.821  0.0512 -0.8746 -0.2397
 1455TIP3    H125924   1.158   2.370   2.910 -0.2356 -0.4540 -0.2005
 1455TIP3    H225925   1.216   2.315   2.782  2.0931 -0.6862  0.9001
 1456TIP3   OH225926   0.078   1.767   1.124  0.1679  0.0838 -0.4015
 1456TIP3    H125927   0.126   1.842   1.159  1.1721 -0.2885 -0.9418
 1456TIP3    H225928   0.045   1.797   1.039  0.2329  0.0476 -0.4399
 1457TIP3   OH225929   0.743   6.977   8.134 -0.0787  0.6758  0.4709
 1457TIP3    H125930   0.720   6.902   8.189  1.7415  1.1208  1.9287
 1457TIP3    H225931   0.719   6.950   8.045 -2.6324 -0.2679  1.3635
 1458TIP3   OH225932   3.399   6.671   2.632  0.2625  0.3505  0.1270
 1458TIP3    H125933   3.373   6.724   2.557 -0.4338 -0.6318 -0.3547
 1458TIP3    H225934   3.429   6.588   2.594  1.5371  0.4574  0.8472
 1459TIP3   OH225935   4.247   5.108   2.998  0.3248 -0.1770  0.5103
 1459TIP3    H125936   4.275   5.028   2.952  0.7573 -0.4105  1.1600
 1459TIP3    H225937   4.329   5.154   3.017  0.0441  0.7654 -0.4308
 1460TIP3   OH225938   1.306   0.831   3.093 -0.0156 -0.0787 -0.0306
 1460TIP3    H125939   1.387   0.872   3.125  0.7093 -0.6900 -1.0249
 1460TIP3    H225940   1.332   0.741   3.072 -0.8613 -0.1579 -0.7765
 1461TIP3   OH225941   6.355   3.179   1.419 -0.0346 -0.0585  0.0035
 1461TIP3    H125942   6.293   3.164   1.348  0.0281 -1.8632  0.2744
 1461TIP3    H225943   6.436   3.207   1.375 -0.3898  0.1460 -0.5268
 1462TIP3   OH225944   5.370   6.599   1.086  0.4216 -0.2335  0.5693
 1462TIP3    H125945   5.364   6.547   1.006  1.0170  1.2136 -0.4533
 1462TIP3    H225946   5.299   6.663   1.078  1.2042  0.6632  0.6224
 1463TIP3   OH225947   1.667   5.820   1.479  0.1210 -0.3077 -0.1601
 1463TIP3    H125948   1.724   5.895   1.492  0.0227 -0.0596 -1.1083
 1463TIP3    H225949   1.606   5.823   1.553  0.5525  0.1401  0.1807
 1464TIP3   OH225950   1.976   4.907   0.257  0.2910 -0.5422 -0.4243
 1464TIP3    H125951   1.881   4.914   0.265  0.3603 -0.6957  0.6219
 1464TIP3    H225952   2.003   4.851   0.330  1.4142  1.2281  0.6145
 1465TIP3   OH225953   3.565   1.050   7.407  0.2943 -0.1861 -0.2489
 1465TIP3    H125954   3.567   1.007   7.493 -1.0401  1.9349  0.9375
 1465TIP3    H225955   3.630   1.120   7.415  1.7888 -1.3152 -1.8217
 1466TIP3   OH225956   2.098   1.272   2.148 -0.3514 -0.1829  0.3942
 1466TIP3    H125957   2.030   1.246   2.086 -1.4465 -1.2293  1.9465
 1466TIP3    H225958   2.174   1.219   2.126  0.5163  1.8911 -2.1782
 1467TIP3   OH225959   1.071   4.453   0.564 -0.2735 -0.2360 -0.0559
 1467TIP3    H125960   1.118   4.413   0.491  0.3734  1.3419 -0.5474
 1467TIP3    H225961   1.127   4.436   0.640  1.0141  1.3393 -0.5802
 1468TIP3   OH225962   5.342   4.664   1.606 -0.8326 -0.0868  0.1225
 1468TIP3    H125963   5.265   4.690   1.555 -1.1131 -0.0574  0.5610
 1468TIP3    H225964   5.356   4.572   1.582 -2.0211 -0.6109  1.3000
 1469TIP3   OH225965   4.534   4.366   0.837  1.0909  0.0848 -0.2321
 1469TIP3    H125966   4.505   4.278   0.812 -0.9626  0.4117  0.7970
 1469TIP3    H225967   4.566   4.356   0.926  0.4663  0.4389  0.0377
 1470TIP3   OH225968   1.240   4.730   3.093  0.3038  0.1336  0.1181
 1470TIP3    H125969   1.306   4.786   3.133  0.9244  0.1339 -0.8635
 1470TIP3    H225970   1.240   4.755   3.001  0.9664 -1.7859 -0.4527
 1471TIP3   OH225971   2.379   6.360   2.134  0.2366  0.1146  0.0630
 1471TIP3    H125972   2.430   6.307   2.072  1.1789  0.5660  0.4326
 1471TIP3    H225973   2.334   6.297   2.189  0.4803 -0.2966 -0.2041
 1472TIP3   OH225974   5.306   0.289   2.866 -0.4992 -0.0607 -0.1081
 1472TIP3    H125975   5.316   0.371   2.914  1.1940 -0.0427 -0.4200
 1472TIP3    H225976   5.381   0.236   2.894 -1.8726 -1.7620  0.5386
 1473TIP3   OH225977   2.443   1.025   3.177 -0.5993 -0.7120 -0.1209
 1473TIP3    H125978   2.443   1.076   3.258  1.3592 -2.3978  1.0283
 1473TIP3    H225979   2.375   1.066   3.123  0.7204  2.9777  0.7329
 1474TIP3   OH225980   0.388   3.386   7.817 -0.2810 -0.3869  0.1019
 1474TIP3    H125981   0.346   3.300   7.810 -0.9961  0.0075 -0.7203
 1474TIP3    H225982   0.431   3.399   7.732 -0.9862  0.4600 -0.1435
 1475TIP3   OH225983   0.879   1.568   2.445 -0.4439  0.1156  0.2215
 1475TIP3    H125984   0.841   1.515   2.516  1.0060  0.4831  1.3191
 1475TIP3    H225985   0.872   1.658   2.476  0.6700  0.2392  0.1248
 1476TIP3   OH225986   5.481   1.573   1.831 -0.5445 -0.0463 -0.9314
 1476TIP3    H125987   5.522   1.487   1.842 -1.1775 -0.2549 -0.1444
 1476TIP3    H225988   5.502   1.621   1.911 -1.4772 -0.0112 -0.6980
 1477TIP3   OH225989   1.081   0.381   7.661 -0.6506 -0.0020 -0.0296
 1477TIP3    H125990   1.050   0.399   7.749  0.8621  1.2848  0.2852
 1477TIP3    H225991   1.153   0.443   7.647 -0.7101 -0.3114 -2.0902
 1478TIP3   OH225992   6.656   1.602   8.071 -0.1561 -0.8818 -0.1823
 1478TIP3    H125993   6.677   1.509   8.069 -0.3068 -0.9816  1.5617
 1478TIP3    H225994   6.740   1.647   8.071 -0.0802 -1.0194 -0.6059
 1479TIP3   OH225995   1.364   0.469   7.822  0.6056 -0.6477 -0.3434
 1479TIP3    H125996   1.437   0.520   7.787  0.5679 -2.1704 -2.9214
 1479TIP3    H225997   1.289   0.527   7.817  1.2043  0.2107  0.2655
 1480TIP3   OH225998   1.036   3.309   1.425  0.0864  0.8836 -0.4382
 1480TIP3    H125999   0.992   3.390   1.397  0.9191  1.2831 -0.6336
 1480TIP3    H226000   1.121   3.313   1.382  0.4119  0.2505  0.1393
 1481TIP3   OH226001   1.226   5.581   2.697 -0.1427  0.5547  0.2233
 1481TIP3    H126002   1.267   5.575   2.611 -1.6126  0.9698 -0.5362
 1481TIP3    H226003   1.282   5.529   2.754 -1.5012 -3.7028 -1.8974
 1482TIP3   OH226004   5.540   4.287   2.355  0.1132 -0.3300 -0.1643
 1482TIP3    H126005   5.631   4.308   2.376 -0.2293  0.2451  0.8532
 1482TIP3    H226006   5.491   4.318   2.431 -0.7827 -1.9033 -0.0630
 1483TIP3   OH226007   0.351   2.476   1.580  0.2903 -0.1404  0.1954
 1483TIP3    H126008   0.291   2.536   1.625  0.7344 -0.2882  1.0147
 1483TIP3    H226009   0.320   2.475   1.490 -2.1447 -1.6779  0.9548
 1484TIP3   OH226010   4.291   5.770   0.839 -0.4339  0.0342 -0.5304
 1484TIP3    H126011   4.280   5.696   0.899 -0.2935  0.2908 -0.1845
 1484TIP3    H226012   4.228   5.753   0.769 -0.3406 -0.4577 -0.5006
 1485TIP3   OH226013   6.230   2.737   3.416  0.2876  0.1279 -0.1607
 1485TIP3    H126014   6.157   2.765   3.361  0.8994 -1.3681 -1.8313
 1485TIP3    H226015   6.190   2.716   3.500 -1.0050  0.5796 -0.6391
 1486TIP3   OH226016   1.415   6.731   2.598  0.5012  0.3003  0.1700
 1486TIP3    H126017   1.448   6.711   2.686 -0.9442  1.2212  0.9488
 1486TIP3    H226018   1.322   6.751   2.610  0.4860  1.4251 -1.4137
 1487TIP3   OH226019   0.428   2.699   1.197  0.2905  0.6230 -0.3844
 1487TIP3    H126020   0.445   2.793   1.204 -0.1720  0.6730  0.1784
 1487TIP3    H226021   0.512   2.661   1.170  0.0804  1.3630 -2.1830
 1488TIP3   OH226022   0.582   2.142   7.243 -0.0988 -0.1703  0.3056
 1488TIP3    H126023   0.498   2.098   7.231 -0.8858  1.5160 -0.7396
 1488TIP3    H226024   0.559   2.230   7.273  1.3607 -0.0428  1.1179
 1489TIP3   OH226025   4.035   1.335   3.161  0.3270  0.2574  0.3615
 1489TIP3    H126026   4.011   1.392   3.235  1.9732  0.1072  1.0555
 1489TIP3    H226027   4.077   1.259   3.202 -0.4062 -0.7245 -0.6473
 1490TIP3   OH226028   3.521   6.158   1.248 -0.3510  0.3840 -0.3465
 1490TIP3    H126029   3.468   6.091   1.205  0.0285  0.0674 -0.3311
 1490TIP3    H226030   3.477   6.173   1.332 -1.5390  1.5730 -1.1364
 1491TIP3   OH226031   3.869   1.347   7.618 -0.0318  0.7161  0.0849
 1491TIP3    H126032   3.868   1.377   7.709 -0.8797  1.7130 -0.2417
 1491TIP3    H226033   3.780   1.316   7.602 -0.2270  1.6512 -0.7476
 1492TIP3   OH226034   5.647   5.397   8.230 -0.6462 -0.0884 -1.2307
 1492TIP3    H126035   5.616   5.311   8.259 -0.3123 -0.3568 -1.6487
 1492TIP3    H226036   5.614   5.458   8.295  0.2002 -0.6847 -0.2204
 1493TIP3   OH226037   4.919   5.985   0.369  0.0457  0.6825 -0.1806
 1493TIP3    H126038   4.827   5.979   0.391 -0.0618  1.1626 -0.4662
 1493TIP3    H226039   4.923   5.962   0.276  0.0556  1.7203 -0.4516
 1494TIP3   OH226040   0.099   4.456   1.368  0.3117 -0.4687 -0.5524
 1494TIP3    H126041   0.078   4.536   1.415  0.2333 -1.0360  0.4124
 1494TIP3    H226042   0.047   4.388   1.412  0.8529 -1.1472 -0.9423
 1495TIP3   OH226043   1.550   5.094   0.649 -0.2756 -0.9575 -0.2580
 1495TIP3    H126044   1.516   5.120   0.563 -0.3226 -1.2238 -0.3208
 1495TIP3    H226045   1.631   5.046   0.630 -0.2154 -0.9000 -0.1470
 1496TIP3   OH226046   4.843   6.139   8.018 -0.1163  0.3060  0.4990
 1496TIP3    H126047   4.855   6.046   8.038  1.1576  0.9336  3.0238
 1496TIP3    H226048   4.865   6.147   7.925  0.2391 -1.8217  0.3609
 1497TIP3   OH226049   3.166   1.396   1.284 -0.6975  0.4622 -0.7438
 1497TIP3    H126050   3.142   1.309   1.318 -0.4218  1.0126  0.9777
 1497TIP3    H226051   3.094   1.453   1.313  0.9847  1.5264  1.7334
 1498TIP3   OH226052   3.399   4.042   1.887 -0.3065 -0.0167  0.7013
 1498TIP3    H126053   3.493   4.051   1.872 -0.6258  0.2689 -1.4417
 1498TIP3    H226054   3.391   3.960   1.937  0.9854 -0.7248 -0.1850
 1499TIP3   OH226055   4.179   1.519   3.400 -0.2433  0.1359  0.0733
 1499TIP3    H126056   4.091   1.549   3.380 -0.9838 -1.1241  1.2743
 1499TIP3    H226057   4.236   1.586   3.362 -1.7059  1.1324 -0.4670
 1500TIP3   OH226058   1.190   4.406   8.273  0.2782  0.3947  0.3562
 1500TIP3    H126059   1.236   4.385   8.354  0.3417  2.1812  0.8155
 1500TIP3    H226060   1.161   4.497   8.284 -0.4906  0.3853 -1.2631
 1501TIP3   OH226061   2.498   3.508   2.756 -0.2069  0.0449 -0.2454
 1501TIP3    H126062   2.483   3.602   2.760 -0.0981  0.0745 -0.5494
 1501TIP3    H226063   2.593   3.499   2.746 -0.2301 -0.0930 -0.3474
 1502TIP3   OH226064   5.953   2.877   0.318  0.2823  0.3830 -0.0289
 1502TIP3    H126065   6.011   2.868   0.394 -1.5786  0.0413  1.4349
 1502TIP3    H226066   5.934   2.971   0.314 -0.6344  0.2503  0.7761
 1503TIP3   OH226067   0.582   6.767   1.685  0.3474  0.1679 -0.2612
 1503TIP3    H126068   0.610   6.777   1.594  0.7797 -1.8578 -0.4011
 1503TIP3    H226069   0.495   6.728   1.680 -0.0282  0.9360  0.1965
 1504TIP3   OH226070   1.592   0.990   1.657  0.0572  0.1071  0.3645
 1504TIP3    H126071   1.509   0.943   1.658  0.8717 -1.5280  3.0928
 1504TIP3    H226072   1.646   0.944   1.593 -0.7776  0.5806 -0.7106
 1505TIP3   OH226073   3.599   6.790   2.820  0.3081 -0.1568 -0.8573
 1505TIP3    H126074   3.573   6.850   2.889 -0.9716 -2.3089  0.6804
 1505TIP3    H226075   3.523   6.785   2.763 -0.1936 -1.3699 -0.1322
 1506TIP3   OH226076   5.699   5.764   8.432 -0.0497 -0.4937 -0.2605
 1506TIP3    H126077   5.658   5.680   8.452  0.9638 -1.3674 -1.7929
 1506TIP3    H226078   5.715   5.762   8.338  2.7189  0.1647  0.1183
 1507TIP3   OH226079   3.100   3.503   2.827 -0.1890  0.4366 -0.8995
 1507TIP3    H126080   3.116   3.438   2.896 -0.8314  1.2266  0.0257
 1507TIP3    H226081   3.099   3.587   2.873 -2.2316  0.8601 -1.5773
 1508TIP3   OH226082   5.068   3.663   1.018  0.0252 -0.2769  0.2630
 1508TIP3    H126083   4.989   3.620   0.985  1.7593 -2.4669 -1.4382
 1508TIP3    H226084   5.042   3.702   1.101 -3.1539  0.3767 -0.9034
 1509TIP3   OH226085   2.398   4.386   1.587 -0.0512  0.7083 -0.7177
 1509TIP3    H126086   2.451   4.462   1.611  0.0139  0.1360  1.1140
 1509TIP3    H226087   2.310   4.408   1.616  0.1483 -0.2505  0.7604
 1510TIP3   OH226088   2.384   2.791   2.564  0.3849 -0.1894  0.0072
 1510TIP3    H126089   2.397   2.741   2.644  1.7488  1.4696  0.8941
 1510TIP3    H226090   2.297   2.830   2.573  0.5280 -0.0241  0.6793
 1511TIP3   OH226091   6.241   2.762   7.997 -0.1876 -0.2596 -0.1058
 1511TIP3    H126092   6.172   2.776   7.932 -0.1378  3.0217  0.3621
 1511TIP3    H226093   6.310   2.824   7.972  0.6377 -0.2611  1.9538
 1512TIP3   OH226094   2.327   5.542   8.002 -0.2640 -0.4378 -0.1959
 1512TIP3    H126095   2.318   5.594   7.922  0.3603  0.2736  0.1914
 1512TIP3    H226096   2.354   5.456   7.971  1.6280  0.2786 -0.6777
 1513TIP3   OH226097   5.308   3.986   2.124  0.2288  0.4047  0.4501
 1513TIP3    H126098   5.275   4.060   2.176 -0.1716  0.7119 -0.2261
 1513TIP3    H226099   5.397   3.972   2.155  0.1421  0.8616  0.9173
 1514TIP3   OH226100   3.191   2.985   0.875  0.5716 -0.0816 -0.4652
 1514TIP3    H126101   3.270   2.994   0.821  0.2386 -0.1067 -0.9591
 1514TIP3    H226102   3.208   2.909   0.930  1.3807  0.6107  0.2660
 1515TIP3   OH226103   5.987   6.623   1.001 -0.3898  0.1457 -0.0199
 1515TIP3    H126104   5.933   6.583   1.069  1.6572  0.3382  1.8396
 1515TIP3    H226105   5.938   6.701   0.975 -1.4196 -0.1483  0.9533
 1516TIP3   OH226106   4.381   2.930   1.890  0.1434 -0.3823 -0.0777
 1516TIP3    H126107   4.292   2.897   1.875 -0.2098 -0.2109  1.4893
 1516TIP3    H226108   4.438   2.860   1.857 -0.5813 -0.9604 -0.1284
 1517TIP3   OH226109   5.502   6.001   1.326  0.3625  0.1905  0.2936
 1517TIP3    H126110   5.563   5.997   1.401  0.5741  0.6963  0.1521
 1517TIP3    H226111   5.501   5.911   1.292  0.4474  0.0077  0.7597
 1518TIP3   OH226112   5.153   1.595   7.859  0.0748  0.0118 -0.0545
 1518TIP3    H126113   5.206   1.623   7.784 -2.1663  0.0379 -1.7585
 1518TIP3    H226114   5.075   1.650   7.854 -1.5117 -2.0759  0.4261
 1519TIP3   OH226115   5.430   2.802   1.197 -0.0419 -0.0165 -0.3492
 1519TIP3    H126116   5.526   2.808   1.203 -0.0127 -0.6564 -0.0090
 1519TIP3    H226117   5.399   2.885   1.232  0.3824 -0.0467  0.1143
 1520TIP3   OH226118   5.491   3.759   2.185 -0.3354  0.9054  0.0752
 1520TIP3    H126119   5.515   3.840   2.231  0.1938  0.6896  0.1817
 1520TIP3    H226120   5.556   3.750   2.116  0.4729 -0.1632  0.9367
 1521TIP3   OH226121   6.519   2.077   0.458 -0.0875  0.5554  0.7788
 1521TIP3    H126122   6.448   2.023   0.421  1.6237 -0.3480 -1.4390
 1521TIP3    H226123   6.548   2.028   0.535  0.0124 -0.6062  0.0305
 1522TIP3   OH226124   2.695   5.380   0.018 -0.0816  0.3470  0.3955
 1522TIP3    H126125   2.711   5.432  -0.061 -0.7468  2.8210  1.7558
 1522TIP3    H226126   2.603   5.353   0.010  0.3394 -0.9349 -0.4396
 1523TIP3   OH226127   6.991   3.568   2.147  0.1262 -0.2533  0.3236
 1523TIP3    H126128   7.084   3.570   2.128 -0.5985 -0.7785 -4.3281
 1523TIP3    H226129   6.956   3.497   2.093 -3.2842  1.5263 -0.0946
 1524TIP3   OH226130   1.850   3.496   7.216 -0.2371  0.1956 -0.3971
 1524TIP3    H126131   1.881   3.405   7.212  0.9491  0.6100 -1.4640
 1524TIP3    H226132   1.880   3.535   7.134 -1.5438  1.3171 -0.3792
 1525TIP3   OH226133   2.877   5.147   0.850 -0.0214 -0.0585  0.0307
 1525TIP3    H126134   2.877   5.069   0.795  0.3671  0.0913 -0.1806
 1525TIP3    H226135   2.848   5.218   0.792 -1.4144 -0.2216  0.4838
 1526TIP3   OH226136   3.636   1.243   7.727  0.4291  0.1647 -0.3131
 1526TIP3    H126137   3.683   1.168   7.764  0.6613  0.7517  0.6341
 1526TIP3    H226138   3.559   1.252   7.783 -1.6936 -1.6760 -2.6847
 1527TIP3   OH226139   4.270   3.407   2.375  0.0353  0.4988  0.0226
 1527TIP3    H126140   4.360   3.399   2.342  0.1039  1.1237  0.0625
 1527TIP3    H226141   4.215   3.387   2.298  0.1990 -0.2707  0.0928
 1528TIP3   OH226142   1.669   2.599   2.558 -0.4253  0.2665 -0.1700
 1528TIP3    H126143   1.764   2.583   2.563 -0.3320  0.8944  0.0865
 1528TIP3    H226144   1.632   2.548   2.630 -0.2822  0.0646 -0.2367
 1529TIP3   OH226145   0.932   1.835   1.535 -0.0423  1.1362  0.7471
 1529TIP3    H126146   0.857   1.875   1.491 -0.8388 -1.2085 -0.2248
 1529TIP3    H226147   0.896   1.802   1.618 -0.5076 -1.1361 -0.2837
 1530TIP3   OH226148   1.338   4.372   7.976 -0.9023  0.3171  0.3910
 1530TIP3    H126149   1.354   4.434   8.047 -2.4534 -1.2532  2.2498
 1530TIP3    H226150   1.361   4.287   8.014  0.4608 -0.3852 -1.8200
 1531TIP3   OH226151   0.814   5.410   3.770  0.3951  0.4325  0.4288
 1531TIP3    H126152   0.886   5.459   3.730 -0.1340  0.7849 -0.1048
 1531TIP3    H226153   0.737   5.434   3.718  0.0234 -0.5066  0.5274
 1532TIP3   OH226154   2.546   6.249   0.742  0.3024 -0.2885 -0.0406
 1532TIP3    H126155   2.469   6.268   0.689  0.6710 -0.9465 -0.8361
 1532TIP3    H226156   2.510   6.208   0.821 -0.2806  1.0955  0.4384
 1533TIP3   OH226157   6.068   5.636   1.034 -0.4973 -0.2900  0.0851
 1533TIP3    H126158   5.991   5.657   0.981 -0.4709 -0.2401  0.0662
 1533TIP3    H226159   6.052   5.679   1.118  0.3394  1.2995 -0.5064
 1534TIP3   OH226160   0.366   4.181   3.043 -0.1459 -0.0160 -0.6898
 1534TIP3    H126161   0.332   4.132   2.968 -1.0217  0.1361 -0.4008
 1534TIP3    H226162   0.318   4.148   3.118 -0.4263  0.9516 -0.4275
 1535TIP3   OH226163   4.710   0.768   1.030 -0.0056 -0.1540 -0.1131
 1535TIP3    H126164   4.688   0.852   0.990  1.6012  0.1385 -0.4470
 1535TIP3    H226165   4.679   0.703   0.967 -1.5915  0.1545  0.3173
 1536TIP3   OH226166   3.519   1.276   1.953  0.1824 -0.0289  0.2067
 1536TIP3    H126167   3.550   1.361   1.923 -1.1301 -0.1015 -1.5481
 1536TIP3    H226168   3.554   1.213   1.889  0.9417 -0.7956  1.3405
 1537TIP3   OH226169   4.018   4.682   7.240  0.0078 -0.4812  0.3020
 1537TIP3    H126170   4.027   4.587   7.248 -0.4267 -0.4598  1.2692
 1537TIP3    H226171   3.927   4.700   7.266  0.3142  0.2596  0.9307
 1538TIP3   OH226172   6.783   5.634   1.679 -0.5124  0.0325  0.2116
 1538TIP3    H126173   6.763   5.541   1.669 -0.7197  0.0753  0.2374
 1538TIP3    H226174   6.873   5.642   1.646 -1.8423  0.5587 -3.8009
 1539TIP3   OH226175   1.988   1.927   0.925  0.5986  0.2822  0.4886
 1539TIP3    H126176   1.933   1.946   0.849  0.1714 -1.9767  0.1458
 1539TIP3    H226177   2.077   1.928   0.892  0.4707  0.0926  0.1323
 1540TIP3   OH226178   2.851   2.648   8.218  0.1754  0.6091 -0.1016
 1540TIP3    H126179   2.919   2.584   8.198  0.3362  0.6066  0.4401
 1540TIP3    H226180   2.841   2.643   8.313  0.7561  1.9454  0.0542
 1541TIP3   OH226181   4.970   0.319   0.959  0.1435  0.3656  0.4158
 1541TIP3    H126182   4.936   0.230   0.951  1.3349 -0.1274  0.6350
 1541TIP3    H226183   4.948   0.344   1.049  1.0276 -0.2553  0.8224
 1542TIP3   OH226184   4.357   6.634   1.435 -0.4339  0.2252 -0.2493
 1542TIP3    H126185   4.294   6.563   1.423 -0.8090  0.4084  0.5184
 1542TIP3    H226186   4.414   6.604   1.506 -0.2680  0.4720 -0.2748
 1543TIP3   OH226187   6.848   2.875   1.045 -0.5896  0.0342 -0.2477
 1543TIP3    H126188   6.768   2.927   1.034 -0.2104  0.7162  0.1859
 1543TIP3    H226189   6.904   2.901   0.972 -0.2721  0.4754  0.1499
 1544TIP3   OH226190   6.877   2.606   2.912 -0.0466 -0.4944  0.4616
 1544TIP3    H126191   6.822   2.665   2.862 -1.3215 -0.8039  1.4323
 1544TIP3    H226192   6.891   2.531   2.854 -1.0384 -0.6092  0.3609
 1545TIP3   OH226193   2.613   2.412   8.041  0.1822  0.0961 -0.1343
 1545TIP3    H126194   2.703   2.431   8.015  0.5907 -0.1258  1.0663
 1545TIP3    H226195   2.591   2.482   8.102 -0.0674 -0.4821  0.4453
 1546TIP3   OH226196   3.756   3.006   3.466  0.6305  0.3800  0.5104
 1546TIP3    H126197   3.663   3.005   3.488  0.3563  3.9105  0.1395
 1546TIP3    H226198   3.798   2.953   3.533 -1.6726 -1.9579  0.2267
 1547TIP3   OH226199   5.022   5.614   0.048  0.1757  0.2518  0.1144
 1547TIP3    H126200   5.033   5.709   0.049  0.8470  0.1788  0.1111
 1547TIP3    H226201   4.936   5.599   0.087  0.6123  0.7860  1.3324
 1548TIP3   OH226202   5.998   6.390   0.837 -0.0499 -0.4657 -0.0932
 1548TIP3    H126203   6.013   6.480   0.864 -0.7408  0.1451 -1.6312
 1548TIP3    H226204   5.944   6.352   0.907 -0.0224  0.3970  0.4053
 1549TIP3   OH226205   5.692   4.867   0.853  0.1061  0.3802 -0.0546
 1549TIP3    H126206   5.778   4.879   0.895 -0.4798  0.0185  1.3228
 1549TIP3    H226207   5.645   4.809   0.912 -1.3417  1.1419 -0.4101
 1550TIP3   OH226208   4.268   5.196   1.316  0.3284  0.5230  0.4980
 1550TIP3    H126209   4.310   5.120   1.274  0.8227  0.9314  0.2487
 1550TIP3    H226210   4.339   5.258   1.329  0.5705 -0.2380  3.5318
 1551TIP3   OH226211   6.225   3.085   2.114 -0.3769 -0.1228 -0.2879
 1551TIP3    H126212   6.228   3.174   2.150  0.8722 -0.0889 -0.4286
 1551TIP3    H226213   6.209   3.029   2.189 -0.6729  0.1815 -0.1231
 1552TIP3   OH226214   4.920   2.097   1.601 -0.0316  0.0461  0.0540
 1552TIP3    H126215   4.864   2.029   1.563 -0.3229  1.0968 -1.4838
 1552TIP3    H226216   4.918   2.080   1.695 -1.3796 -1.1119 -0.1527
 1553TIP3   OH226217   0.348   1.983   7.210  0.0546 -0.1565 -0.1065
 1553TIP3    H126218   0.335   1.890   7.189  0.6139 -0.4871  0.9574
 1553TIP3    H226219   0.265   2.024   7.187  0.1922 -0.6953 -1.7161
 1554TIP3   OH226220   3.766   2.257   0.801 -0.3766  0.3461  0.8004
 1554TIP3    H126221   3.797   2.168   0.783  2.4250  1.3819  0.1413
 1554TIP3    H226222   3.672   2.246   0.817 -0.7696 -2.3207 -2.2767
 1555TIP3   OH226223   5.911   4.703   1.745  0.3321 -0.3432  0.5084
 1555TIP3    H126224   5.911   4.775   1.808 -0.4248  2.1551 -2.1259
 1555TIP3    H226225   5.819   4.686   1.726  0.4989  0.8347 -1.7629
 1556TIP3   OH226226   4.865   3.968   0.387  0.3935  0.1631 -0.5225
 1556TIP3    H126227   4.860   3.888   0.336 -0.1192  0.4659 -0.9629
 1556TIP3    H226228   4.951   3.966   0.428  0.4800 -0.4854 -0.7316
 1557TIP3   OH226229   6.902   3.350   1.994 -0.0975  0.2995 -0.2656
 1557TIP3    H126230   6.911   3.261   1.958 -3.3818 -0.1124 -0.2920
 1557TIP3    H226231   6.852   3.398   1.929 -1.6176  1.0603  1.3970
 1558TIP3   OH226232   6.823   4.449   1.981  0.4495 -0.1815 -0.0935
 1558TIP3    H126233   6.761   4.488   2.042 -0.7590 -0.4347 -1.1128
 1558TIP3    H226234   6.908   4.486   2.006 -0.4527  2.2262 -0.2800
 1559TIP3   OH226235   1.957   2.088   7.381  0.1088  0.8551  0.3388
 1559TIP3    H126236   2.034   2.128   7.424 -1.5274  2.3745  2.0855
 1559TIP3    H226237   1.903   2.163   7.357 -0.8595 -0.1929 -0.8242
 1560TIP3   OH226238   5.690   3.548   1.788  0.0502  0.0326 -0.2842
 1560TIP3    H126239   5.727   3.460   1.788  0.3883  0.1506  0.9156
 1560TIP3    H226240   5.611   3.541   1.734  0.3625 -0.8671 -0.6469
 1561TIP3   OH226241   1.212   1.159   7.290 -0.3437 -0.1280  0.0968
 1561TIP3    H126242   1.171   1.079   7.321 -0.2562 -0.1612  0.1248
 1561TIP3    H226243   1.141   1.206   7.244 -0.7787  0.4530  1.3170
 1562TIP3   OH226244   0.269   3.143   7.892  0.0904  0.2229 -0.0729
 1562TIP3    H126245   0.297   3.069   7.945  2.9275  1.6416  0.6073
 1562TIP3    H226246   0.224   3.201   7.953  0.6005  0.4427  0.0980
 1563TIP3   OH226247   2.651   3.479   0.129  0.3886  0.0372 -0.1850
 1563TIP3    H126248   2.593   3.497   0.203  0.2505 -0.1175 -0.2547
 1563TIP3    H226249   2.639   3.554   0.070  1.3613  0.7339  0.4757
 1564TIP3   OH226250   0.514   3.310   0.409  0.2248  0.0074  0.0544
 1564TIP3    H126251   0.465   3.323   0.490  0.4111  2.5151 -0.1513
 1564TIP3    H226252   0.479   3.375   0.349  1.1056 -0.8064 -1.4069
 1565TIP3   OH226253   4.069   2.672   8.194 -0.0946  0.1751 -0.5274
 1565TIP3    H126254   4.108   2.594   8.153  0.7606  0.2616  0.1031
 1565TIP3    H226255   4.074   2.654   8.288 -1.2398  0.3637 -0.4280
 1566TIP3   OH226256   1.616   4.251   8.406 -0.0106 -0.2239 -0.3102
 1566TIP3    H126257   1.628   4.176   8.464  0.7736 -0.2773 -0.5375
 1566TIP3    H226258   1.536   4.294   8.439  0.9858  0.3580  1.4774
 1567TIP3   OH226259   4.391   4.452   6.957 -0.3564 -0.0396  0.2638
 1567TIP3    H126260   4.457   4.492   7.014 -0.1402  0.3932 -0.2847
 1567TIP3    H226261   4.441   4.402   6.893 -0.5785 -0.1072  0.1406
 1568TIP3   OH226262   4.882   1.199   7.808 -0.4183  0.2388 -0.1518
 1568TIP3    H126263   4.934   1.244   7.874 -1.4928  2.5390 -0.7885
 1568TIP3    H226264   4.889   1.254   7.730 -2.3729 -0.3161 -0.7726
 1569TIP3   OH226265   3.214   6.779   7.478  0.5331  0.3645 -0.0655
 1569TIP3    H126266   3.261   6.724   7.540  0.9511  0.3985 -0.3518
 1569TIP3    H226267   3.123   6.749   7.484  0.5638  0.3831  0.5773
 1570TIP3   OH226268   5.268   5.980   7.025  0.8673  0.3665 -0.1333
 1570TIP3    H126269   5.263   5.885   7.034  1.8066  0.1353 -1.7703
 1570TIP3    H226270   5.185   6.006   6.987  1.1971  0.0040 -1.1114
 1571TIP3   OH226271   4.104   6.782   0.224 -0.2577 -0.0347 -0.0211
 1571TIP3    H126272   4.042   6.745   0.161  0.6560 -0.2906 -0.7929
 1571TIP3    H226273   4.049   6.818   0.294 -1.4363  2.0695 -1.8974
 1572TIP3   OH226274   2.806   6.330   2.485  0.3706  0.3873  0.6490
 1572TIP3    H126275   2.892   6.308   2.450  0.7264  1.3979  0.8571
 1572TIP3    H226276   2.813   6.316   2.579 -0.0117 -0.5123  0.5511
 1573TIP3   OH226277   3.355   3.897   7.985  0.1679 -0.1932  0.2575
 1573TIP3    H126278   3.402   3.841   8.048  2.3773  0.6014 -0.5696
 1573TIP3    H226279   3.276   3.848   7.965  1.0200 -2.0629  1.1151
 1574TIP3   OH226280   5.299   6.626   7.714 -0.1375  0.0794  0.0753
 1574TIP3    H126281   5.252   6.702   7.680 -2.8138 -1.3942  0.2342
 1574TIP3    H226282   5.369   6.610   7.650  0.4040  2.5086 -0.0294
 1575TIP3   OH226283   0.357   1.394   0.496  0.0008  0.1948 -0.0215
 1575TIP3    H126284   0.416   1.470   0.499 -0.5112  0.6657 -1.3387
 1575TIP3    H226285   0.283   1.419   0.550 -0.0121  0.5033 -0.1794
 1576TIP3   OH226286   6.104   0.561   2.514 -0.2881  0.4728 -0.2385
 1576TIP3    H126287   6.147   0.641   2.545  0.9843 -0.0411 -0.5956
 1576TIP3    H226288   6.113   0.564   2.419 -0.5132  0.0542 -0.2758
 1577TIP3   OH226289   5.127   4.377   1.681  0.4790 -0.2223 -0.5849
 1577TIP3    H126290   5.094   4.314   1.616 -1.1590 -0.2778  0.2376
 1577TIP3    H226291   5.128   4.328   1.763  1.4139  0.1822 -0.3469
 1578TIP3   OH226292   6.729   5.885   3.346  0.4192  0.1988  0.3949
 1578TIP3    H126293   6.653   5.928   3.307  0.5495  0.9470  0.9359
 1578TIP3    H226294   6.739   5.804   3.297 -0.0517  0.6227 -0.4136
 1579TIP3   OH226295   0.692   1.150   1.083  0.4678  0.3301 -0.0397
 1579TIP3    H126296   0.693   1.065   1.039 -1.1789 -0.2178  0.9011
 1579TIP3    H226297   0.639   1.206   1.025 -0.2074  0.1100  0.3563
 1580TIP3   OH226298   6.297   3.876   2.330  0.2111  0.4663 -0.0215
 1580TIP3    H126299   6.360   3.926   2.279  0.2384  1.7980  1.2489
 1580TIP3    H226300   6.212   3.911   2.303  0.1858  0.6317  0.2651
 1581TIP3   OH226301   0.356   2.933   0.669  0.7315 -0.1093 -0.0497
 1581TIP3    H126302   0.379   2.971   0.754 -0.2373 -0.5526  0.4244
 1581TIP3    H226303   0.435   2.943   0.616  1.4660 -0.1522  1.0137
 1582TIP3   OH226304   3.046   3.800   1.989 -0.0616  0.5873  0.1929
 1582TIP3    H126305   2.951   3.791   1.998 -0.1347  0.2353 -0.8289
 1582TIP3    H226306   3.063   3.794   1.895  1.0198  0.1300  0.3902
 1583TIP3   OH226307   6.771   2.081   0.681  0.3900 -0.1007  0.9709
 1583TIP3    H126308   6.731   2.130   0.753 -0.8058  0.1791  0.1423
 1583TIP3    H226309   6.718   2.001   0.674 -0.3830  0.5110 -0.4668
 1584TIP3   OH226310   3.657   2.323   8.010  0.1364  0.1234 -0.1580
 1584TIP3    H126311   3.583   2.285   8.058  0.3326  0.5460  0.4755
 1584TIP3    H226312   3.617   2.364   7.933 -0.0740 -1.5239 -0.9950
 1585TIP3   OH226313   6.330   0.364   2.878 -0.1148  0.2577 -0.1487
 1585TIP3    H126314   6.374   0.437   2.835 -0.9147  0.5710 -0.4559
 1585TIP3    H226315   6.341   0.290   2.819 -0.8061  0.5718 -0.6856
 1586TIP3   OH226316   1.051   0.466   1.544  0.5889 -0.2692  0.0901
 1586TIP3    H126317   0.971   0.518   1.541  1.5334  1.1973 -0.3349
 1586TIP3    H226318   1.103   0.496   1.469  1.4434 -1.3726  0.2001
 1587TIP3   OH226319   4.235   5.575   0.333  0.3447  0.1176 -0.2116
 1587TIP3    H126320   4.289   5.643   0.292 -1.6785  0.3916 -2.7034
 1587TIP3    H226321   4.232   5.504   0.269  0.4693 -1.3323  1.3277
 1588TIP3   OH226322   5.694   3.264   0.288  0.3209  0.6618 -0.4206
 1588TIP3    H126323   5.607   3.291   0.257  1.2155  0.4284 -3.4789
 1588TIP3    H226324   5.680   3.178   0.327 -0.9150  0.9804 -0.1116
 1589TIP3   OH226325   0.092   4.147   2.158  0.1287 -0.2249  0.4109
 1589TIP3    H126326   0.038   4.100   2.222  2.5246 -0.5507  2.3667
 1589TIP3    H226327   0.104   4.086   2.086 -3.5534  0.5476 -1.0403
 1590TIP3   OH226328   0.176   5.916   1.330 -0.3759 -0.1103  0.7682
 1590TIP3    H126329   0.151   5.986   1.391  0.7465 -0.9878  2.2788
 1590TIP3    H226330   0.114   5.845   1.349  0.4492 -0.6620  1.4273
 1591TIP3   OH226331   2.915   3.661   0.472  0.1916  0.0595 -0.2358
 1591TIP3    H126332   2.915   3.566   0.458  0.2258  0.2630 -1.7962
 1591TIP3    H226333   2.992   3.692   0.424 -0.0718  0.9137 -0.1119
 1592TIP3   OH226334   3.263   1.324   2.853  0.3066 -0.1780 -0.1892
 1592TIP3    H126335   3.260   1.327   2.948 -1.8102 -0.4364 -0.2015
 1592TIP3    H226336   3.230   1.237   2.830  1.7446 -0.5077 -1.1616
 1593TIP3   OH226337   4.979   2.834   1.919  0.0836  0.4346  0.2406
 1593TIP3    H126338   4.908   2.824   1.983 -0.3592  0.4255 -0.2469
 1593TIP3    H226339   4.934   2.847   1.835  0.6596  0.6545 -0.0372
 1594TIP3   OH226340   5.893   0.688   8.025  0.1384 -0.3163 -0.0188
 1594TIP3    H126341   5.811   0.656   7.988 -0.0171  1.3337 -1.2056
 1594TIP3    H226342   5.870   0.773   8.062  1.5757  0.8701 -1.7032
 1595TIP3   OH226343   2.220   1.543   3.485 -0.1533  0.1654  0.6072
 1595TIP3    H126344   2.167   1.619   3.509  0.8544  1.3808 -0.8112
 1595TIP3    H226345   2.161   1.488   3.433 -0.8950 -0.0403  1.6540
 1596TIP3   OH226346   3.607   6.059   1.589 -0.3489 -0.0448  0.4622
 1596TIP3    H126347   3.514   6.066   1.564 -0.5564 -0.6347  1.0513
 1596TIP3    H226348   3.612   5.980   1.642  0.0618  1.2203  2.4036
 1597TIP3   OH226349   3.058   5.676   2.913  0.1853 -0.1027 -0.2212
 1597TIP3    H126350   3.022   5.679   3.002  1.1081  4.6397  0.2435
 1597TIP3    H226351   3.152   5.666   2.926  0.0645 -3.6515 -1.0504
 1598TIP3   OH226352   0.725   2.522   0.571 -0.4474  0.0582 -0.0344
 1598TIP3    H126353   0.775   2.587   0.521  0.2718  0.8888  1.6746
 1598TIP3    H226354   0.640   2.564   0.586 -0.2032  0.3585  0.5343
 1599TIP3   OH226355   5.536   5.655   2.205  0.4505  0.1251  0.4643
 1599TIP3    H126356   5.619   5.610   2.188 -0.0518  0.2570 -3.1739
 1599TIP3    H226357   5.469   5.596   2.169 -0.7794  1.1698  0.9645
 1600TIP3   OH226358   5.768   5.809   2.415  0.0337 -0.0806 -0.3845
 1600TIP3    H126359   5.689   5.778   2.460  0.3852  0.0353  0.3299
 1600TIP3    H226360   5.838   5.796   2.479  0.2501  1.9008 -0.1466
 1601TIP3   OH226361   6.740   2.270   8.206  0.3811 -0.4641 -0.0713
 1601TIP3    H126362   6.744   2.174   8.215  0.3118 -0.5367 -0.7515
 1601TIP3    H226363   6.796   2.289   8.131  0.7520  0.0815  0.3311
 1602TIP3   OH226364   5.966   6.288   1.384 -0.0072  0.1136 -0.3768
 1602TIP3    H126365   6.006   6.373   1.366  1.9325 -1.0047 -1.6694
 1602TIP3    H226366   5.898   6.279   1.317  1.6545 -0.4725 -2.0882
 1603TIP3   OH226367   4.640   4.895   8.433  0.0726  0.3054 -0.6564
 1603TIP3    H126368   4.581   4.847   8.375  0.8126 -0.8828 -0.4627
 1603TIP3    H226369   4.592   4.975   8.455 -1.8228 -0.9812  0.1708
 1604TIP3   OH226370   6.583   0.613   8.435  0.1243  0.1778  0.2632
 1604TIP3    H126371   6.517   0.676   8.464  0.5945  1.3612 -1.1509
 1604TIP3    H226372   6.534   0.549   8.384 -0.1004  0.3460  0.2683
 1605TIP3   OH226373   5.049   2.579   1.998 -0.2835 -0.6755 -0.0801
 1605TIP3    H126374   5.010   2.530   1.925  0.4173 -0.8765 -0.3294
 1605TIP3    H226375   5.027   2.670   1.980  0.4150 -0.6529 -0.8959
 1606TIP3   OH226376   6.902   1.187   0.206  0.5431  0.1240 -0.3383
 1606TIP3    H126377   6.854   1.236   0.139 -0.1746  0.1447  0.1905
 1606TIP3    H226378   6.895   1.096   0.178 -1.2303 -0.0567  0.6087
 1607TIP3   OH226379   1.615   2.368   2.235 -0.4159 -0.5067 -0.0055
 1607TIP3    H126380   1.688   2.381   2.175  1.0024 -2.4734  1.1755
 1607TIP3    H226381   1.586   2.457   2.256  1.3066  0.3270 -0.9170
 1608TIP3   OH226382   3.712   2.509   3.006  0.8008 -0.0010 -0.2782
 1608TIP3    H126383   3.694   2.441   2.941  0.7056  0.1059 -0.3659
 1608TIP3    H226384   3.747   2.463   3.081  0.3107 -0.1977 -0.1679
 1609TIP3   OH226385   0.619   6.152   8.352 -0.0914 -0.0037 -0.4104
 1609TIP3    H126386   0.627   6.183   8.262  0.9877  0.3031 -0.2247
 1609TIP3    H226387   0.704   6.171   8.392 -0.3237 -0.7565  0.4846
 1610TIP3   OH226388   4.409   3.942   8.118  0.0973  0.1983 -0.3652
 1610TIP3    H126389   4.352   3.875   8.079 -0.7328  2.0623 -2.5681
 1610TIP3    H226390   4.392   3.936   8.212 -2.5912 -0.3738 -0.8147
 1611TIP3   OH226391   0.849   4.439   0.250  0.4405 -0.3278 -0.4849
 1611TIP3    H126392   0.793   4.379   0.300  0.5250 -0.2292 -0.2728
 1611TIP3    H226393   0.825   4.526   0.281  1.6923 -0.3523  0.6312
 1612TIP3   OH226394   0.332   0.862   0.764 -0.1346  0.4600 -0.2356
 1612TIP3    H126395   0.418   0.892   0.735  0.0014 -0.2918 -0.6504
 1612TIP3    H226396   0.275   0.938   0.753  0.0601  0.4264 -1.8504
 1613TIP3   OH226397   1.259   1.205   0.336 -0.8790  0.2872 -0.5199
 1613TIP3    H126398   1.288   1.137   0.276  0.9280  0.4010  0.1462
 1613TIP3    H226399   1.300   1.285   0.302 -0.4594  0.4802  0.4038
 1614TIP3   OH226400   1.143   0.954   0.506  0.2050  0.5378  0.3931
 1614TIP3    H126401   1.201   0.877   0.511 -0.0409  0.4246  2.7424
 1614TIP3    H226402   1.179   1.006   0.434  0.1823 -1.8896 -1.5310
 1615TIP3   OH226403   2.472   5.345   2.550  0.1095  0.5371  0.2276
 1615TIP3    H126404   2.417   5.267   2.543 -1.0080  1.2108  1.0001
 1615TIP3    H226405   2.547   5.318   2.602  0.4536 -0.3700 -0.7167
 1616TIP3   OH226406   4.262   0.568   1.514  0.1199 -0.0093 -0.1380
 1616TIP3    H126407   4.253   0.475   1.533  0.9664 -0.6360 -2.5378
 1616TIP3    H226408   4.316   0.602   1.586  1.0833 -1.6838 -0.0348
 1617TIP3   OH226409   6.457   4.311   1.224  0.6156  0.2794 -0.0522
 1617TIP3    H126410   6.414   4.225   1.224 -0.5239  0.7951  1.6950
 1617TIP3    H226411   6.469   4.331   1.131 -0.6875 -1.0012 -0.5430
 1618TIP3   OH226412   4.110   0.739   2.434 -0.3622  0.6799 -0.3672
 1618TIP3    H126413   4.064   0.823   2.435 -0.2069  0.7745  0.9025
 1618TIP3    H226414   4.110   0.711   2.525 -0.5331 -0.7857 -0.7970
 1619TIP3   OH226415   5.569   6.347   1.341 -0.0960 -0.0767  0.2137
 1619TIP3    H126416   5.634   6.414   1.323  1.9701 -2.4367 -2.1378
 1619TIP3    H226417   5.599   6.305   1.421 -0.3600  0.6120  0.6807
 1620TIP3   OH226418   6.759   4.451   0.179 -0.7637  0.1071 -0.2932
 1620TIP3    H126419   6.794   4.372   0.220 -0.8130 -0.9456 -2.2015
 1620TIP3    H226420   6.698   4.486   0.244  1.5803  0.3878  1.9243
 1621TIP3   OH226421   6.166   0.114   0.621 -0.0843  0.2616  0.2019
 1621TIP3    H126422   6.216   0.049   0.670 -0.6504 -0.7947 -0.5820
 1621TIP3    H226423   6.186   0.197   0.664 -0.3973 -0.5946  2.0911
 1622TIP3   OH226424   3.524   5.194   3.412  0.1631  0.0543 -0.9306
 1622TIP3    H126425   3.552   5.285   3.418 -0.2264  0.3341 -2.8391
 1622TIP3    H226426   3.569   5.160   3.334  1.3844 -1.8106  0.4869
 1623TIP3   OH226427   4.054   4.478   6.901  0.4588 -0.6917  0.0383
 1623TIP3    H126428   4.076   4.462   6.993 -0.5734 -1.0288  0.2397
 1623TIP3    H226429   3.989   4.548   6.903 -1.4020 -2.3396 -0.2302
 1624TIP3   OH226430   3.607   6.519   1.471  0.0109 -0.0523 -0.0442
 1624TIP3    H126431   3.620   6.587   1.537 -1.4897 -0.6576  0.9317
 1624TIP3    H226432   3.652   6.442   1.507 -1.3894 -0.5802  0.6624
 1625TIP3   OH226433   5.937   4.857   7.769  0.1272 -0.3820  0.3397
 1625TIP3    H126434   5.867   4.921   7.754  1.0488  0.8994  1.2349
 1625TIP3    H226435   5.935   4.842   7.864  1.2604 -0.0668  0.4278
 1626TIP3   OH226436   3.011   2.254   0.020 -0.3549 -0.1990  0.0147
 1626TIP3    H126437   3.001   2.177   0.076  0.9944 -1.7953 -1.8503
 1626TIP3    H226438   3.105   2.260   0.004 -0.7180  0.0517 -2.2747
 1627TIP3   OH226439   0.433   1.567   2.725 -0.0289 -0.0560 -0.1220
 1627TIP3    H126440   0.379   1.510   2.672 -2.1521 -0.0909  1.9287
 1627TIP3    H226441   0.498   1.509   2.765 -0.7514 -0.6655  0.1859
 1628TIP3   OH226442   2.829   1.001   1.043 -0.0258 -0.2425 -0.1060
 1628TIP3    H126443   2.870   0.966   0.964  0.4856  0.4798 -0.1634
 1628TIP3    H226444   2.815   0.924   1.099  2.4029 -0.4179  0.3755
 1629TIP3   OH226445   0.336   3.863   7.781  0.1981 -0.5363 -0.2724
 1629TIP3    H126446   0.290   3.796   7.730  1.2579 -1.6602  0.1735
 1629TIP3    H226447   0.390   3.812   7.843  2.2435  0.6847 -0.9574
 1630TIP3   OH226448   0.455   2.316   2.163 -0.2129 -0.3282 -0.1003
 1630TIP3    H126449   0.467   2.299   2.069  1.9567 -2.3934  0.4467
 1630TIP3    H226450   0.423   2.406   2.166  0.0867 -0.0135 -2.8152
 1631TIP3   OH226451   4.871   6.817   0.623 -0.5391  0.6383  0.0208
 1631TIP3    H126452   4.949   6.870   0.611 -0.5278 -0.0715 -4.6378
 1631TIP3    H226453   4.883   6.776   0.709  3.1495  2.1476  0.3945
 1632TIP3   OH226454   6.882   4.285   1.493  0.3842  0.5790 -0.0089
 1632TIP3    H126455   6.811   4.330   1.448 -1.1272 -0.9363  0.7626
 1632TIP3    H226456   6.877   4.316   1.583  0.4502  0.1698  0.1374
 1633TIP3   OH226457   5.815   3.962   8.236 -0.2421 -0.6119  0.5062
 1633TIP3    H126458   5.877   4.029   8.266 -1.0661  1.4914 -2.0285
 1633TIP3    H226459   5.736   3.977   8.287  0.1153 -0.7859  1.1173
 1634TIP3   OH226460   5.569   0.977   0.133 -0.3623 -0.1644 -0.0072
 1634TIP3    H126461   5.494   0.986   0.191  0.5525  1.5999  0.9777
 1634TIP3    H226462   5.549   1.034   0.058 -0.0042  0.3427  0.2775
 1635TIP3   OH226463   0.566   2.752   0.605 -0.1018 -0.5600 -0.2829
 1635TIP3    H126464   0.615   2.783   0.681 -0.4942 -0.1462 -0.1950
 1635TIP3    H226465   0.596   2.806   0.532  0.6848 -1.3292 -0.5487
 1636TIP3   OH226466   1.243   0.121   0.636 -0.1008  0.0491  0.4168
 1636TIP3    H126467   1.187   0.071   0.695  0.2878  0.8856  1.5144
 1636TIP3    H226468   1.286   0.186   0.691  0.2087  0.9247 -0.7984
 1637TIP3   OH226469   4.920   1.978   0.922  0.6932 -0.1199  0.3338
 1637TIP3    H126470   4.824   1.977   0.919  0.5878  1.5167  1.6821
 1637TIP3    H226471   4.945   1.886   0.917 -0.8276 -0.5085 -1.8762
 1638TIP3   OH226472   2.335   1.095   1.269 -0.8847  0.3232 -0.2203
 1638TIP3    H126473   2.387   1.037   1.212 -0.6561 -0.0983  0.4095
 1638TIP3    H226474   2.274   1.036   1.314  0.2241  0.3609  1.4106
 1639TIP3   OH226475   6.050   6.304   0.146 -0.4769  0.6524  0.3876
 1639TIP3    H126476   6.141   6.334   0.152 -0.6600  1.1156  0.9557
 1639TIP3    H226477   6.056   6.214   0.115  0.0774  1.4359 -1.9863
 1640TIP3   OH226478   4.798   5.247   3.109 -0.0495  0.0099 -0.4275
 1640TIP3    H126479   4.821   5.222   3.199 -1.7501  1.9061  0.6116
 1640TIP3    H226480   4.853   5.323   3.091  1.9754 -1.6991 -1.9485
 1641TIP3   OH226481   4.789   2.061   7.506 -0.2615  0.3079 -0.5024
 1641TIP3    H126482   4.844   2.132   7.540 -0.1232  0.3352 -0.7792
 1641TIP3    H226483   4.848   2.008   7.453 -0.5838  0.5637 -1.1327
 1642TIP3   OH226484   6.328   4.061   1.184 -0.1671  0.2827  0.4911
 1642TIP3    H126485   6.274   4.053   1.106 -0.9758  0.6675  1.0004
 1642TIP3    H226486   6.388   3.986   1.179 -1.2840 -0.6295  0.3273
 1643TIP3   OH226487   1.633   4.267   8.096  0.2020 -0.5055  0.7262
 1643TIP3    H126488   1.678   4.333   8.043  1.4001 -1.5799  0.3369
 1643TIP3    H226489   1.644   4.297   8.186  1.0006 -0.3025  0.5765
 1644TIP3   OH226490   2.392   6.214   8.385 -0.0601  0.2776  0.5401
 1644TIP3    H126491   2.328   6.285   8.386  1.8211  2.0820  0.9871
 1644TIP3    H226492   2.436   6.224   8.301  1.2181  0.6464  1.2232
 1645TIP3   OH226493   6.867   2.585   1.038 -0.3850 -0.2279  0.1998
 1645TIP3    H126494   6.840   2.676   1.050 -2.7167 -0.6149 -1.4129
 1645TIP3    H226495   6.850   2.567   0.946  0.9262 -2.0486  0.2707
 1646TIP3   OH226496   2.432   3.705   7.613  0.0910  0.0670  0.3469
 1646TIP3    H126497   2.405   3.769   7.547 -0.2899 -3.2594 -3.0503
 1646TIP3    H226498   2.506   3.660   7.574 -2.1483 -4.2755  0.4887
 1647TIP3   OH226499   3.535   4.249   0.115 -0.6695 -0.2776 -0.4427
 1647TIP3    H126500   3.447   4.218   0.093 -1.5844  1.8974 -0.1144
 1647TIP3    H226501   3.567   4.289   0.033  0.1712 -1.3151 -0.6469
 1648TIP3   OH226502   3.016   4.305   1.326 -0.1854 -0.0811  0.4857
 1648TIP3    H126503   2.992   4.381   1.378 -0.9551 -0.1731  0.2732
 1648TIP3    H226504   2.999   4.331   1.236  0.4290 -0.1876  0.3282
 1649TIP3   OH226505   2.835   5.794   0.029  0.2150  0.3184  0.4897
 1649TIP3    H126506   2.757   5.743   0.053 -0.9357  0.8858 -1.7584
 1649TIP3    H226507   2.809   5.885   0.041 -0.2509  0.6131 -2.0781
 1650TIP3   OH226508   4.059   3.686   1.607 -0.2104  0.4429  0.3397
 1650TIP3    H126509   4.155   3.686   1.601 -0.3083  0.3649 -1.6083
 1650TIP3    H226510   4.038   3.771   1.646  0.6253  0.5322  0.6304
 1651TIP3   OH226511   3.757   1.168   0.069  0.0983  0.0629  0.7911
 1651TIP3    H126512   3.744   1.135   0.158 -1.6998 -0.3951  0.3853
 1651TIP3    H226513   3.758   1.090   0.014  1.3086  0.3345  0.3931
 1652TIP3   OH226514   3.869   5.771   2.938 -0.0385 -0.5133  0.5383
 1652TIP3    H126515   3.782   5.811   2.933  0.3301  0.2313 -0.2910
 1652TIP3    H226516   3.915   5.823   3.004  0.6074  0.8423 -0.9016
 1653TIP3   OH226517   3.177   0.988   0.518 -0.2858  0.3146  0.0908
 1653TIP3    H126518   3.264   0.949   0.526 -0.7789 -0.9767 -0.6324
 1653TIP3    H226519   3.182   1.067   0.573  1.3766  0.3632 -0.0551
 1654TIP3   OH226520   0.285   1.707   2.267 -0.8205 -0.3349 -0.5008
 1654TIP3    H126521   0.338   1.649   2.322 -1.8995  0.4477  1.4660
 1654TIP3    H226522   0.196   1.673   2.275 -1.1691  0.4825 -0.8409
 1655TIP3   OH226523   6.482   1.601   3.014  0.2405 -0.8842 -0.7660
 1655TIP3    H126524   6.412   1.638   2.961 -2.0440 -2.6038  0.8271
 1655TIP3    H226525   6.504   1.670   3.076  0.7044  0.0266 -1.9138
 1656TIP3   OH226526   5.092   3.945   0.564 -0.2221  0.2581  0.2917
 1656TIP3    H126527   5.185   3.942   0.540 -0.4407 -1.5354 -0.5189
 1656TIP3    H226528   5.088   3.908   0.652 -0.1049  0.9834  0.6072
 1657TIP3   OH226529   3.902   4.410   2.635  0.0623  0.0390 -0.0587
 1657TIP3    H126530   3.973   4.461   2.675  0.7609 -0.5911 -0.4472
 1657TIP3    H226531   3.905   4.326   2.681  0.7877 -0.6472 -1.2916
 1658TIP3   OH226532   6.496   6.744   2.856 -0.4645 -0.1500  0.7507
 1658TIP3    H126533   6.525   6.732   2.947  0.5090  0.4459  0.5310
 1658TIP3    H226534   6.455   6.830   2.856  1.9832  1.0927  0.0662
 1659TIP3   OH226535   5.810   3.016   3.284  0.4980 -0.0192 -0.5647
 1659TIP3    H126536   5.737   3.038   3.342  0.2835 -0.1325 -0.7930
 1659TIP3    H226537   5.805   3.081   3.214  1.9984  1.4557  0.5923
 1660TIP3   OH226538   0.086   3.200   1.418 -0.0727  0.3665  0.4495
 1660TIP3    H126539   0.169   3.162   1.446  0.1418 -0.3990 -1.0879
 1660TIP3    H226540   0.071   3.162   1.331 -2.3732 -0.0614  0.9754
 1661TIP3   OH226541   1.832   4.187   0.862 -0.2113  0.0906 -0.1660
 1661TIP3    H126542   1.771   4.260   0.866  0.4032  0.5747  0.9933
 1661TIP3    H226543   1.865   4.178   0.951  0.1252 -1.2724 -0.3997
 1662TIP3   OH226544   1.070   2.385   0.724 -0.0167 -0.2862  0.2944
 1662TIP3    H126545   1.090   2.417   0.812 -2.1256  1.1654  0.3190
 1662TIP3    H226546   0.977   2.363   0.727  0.1701 -1.4301 -1.2459
 1663TIP3   OH226547   2.983   0.864   0.363 -0.8728  0.3931  0.2722
 1663TIP3    H126548   2.939   0.928   0.307  0.4902  0.6461 -0.5400
 1663TIP3    H226549   3.051   0.914   0.408  0.2190 -0.4533 -0.3785
 1664TIP3   OH226550   6.497   4.400   2.089 -0.1037 -0.3229  0.1117
 1664TIP3    H126551   6.410   4.420   2.055 -0.2284 -0.6546  0.2330
 1664TIP3    H226552   6.480   4.349   2.168  0.2238 -3.2963 -1.5980
 1665TIP3   OH226553   0.686   2.818   0.841 -0.3244  0.1100  0.3367
 1665TIP3    H126554   0.768   2.794   0.798  0.4336  1.3588  0.9880
 1665TIP3    H226555   0.714   2.867   0.919 -1.6689 -0.8636  1.4719
 1666TIP3   OH226556   2.866   2.505   0.034  0.0758  0.3611 -0.4494
 1666TIP3    H126557   2.795   2.496   0.098  0.2394 -0.5963 -0.3934
 1666TIP3    H226558   2.910   2.420   0.034  1.5858  1.1063 -0.0841
 1667TIP3   OH226559   0.287   3.573   7.984 -0.0194  0.8893  0.4039
 1667TIP3    H126560   0.226   3.504   8.010 -0.5419  0.8742 -0.7753
 1667TIP3    H226561   0.353   3.527   7.932  0.6781  0.9989  1.1800
 1668TIP3   OH226562   2.981   3.140   0.913 -0.0984 -0.4121 -0.1777
 1668TIP3    H126563   2.974   3.100   1.000  0.7057 -0.5612 -0.1694
 1668TIP3    H226564   3.049   3.089   0.870 -0.3325 -0.1876 -0.8167
 1669TIP3   OH226565   3.035   3.994   0.960  0.1514 -0.1134 -0.1082
 1669TIP3    H126566   3.018   3.902   0.939 -0.0547 -0.4821  1.5095
 1669TIP3    H226567   2.962   4.041   0.921  0.2318 -0.6369 -0.9159
 1670TIP3   OH226568   2.218   0.131   3.319  0.6764  0.5405 -0.3679
 1670TIP3    H126569   2.161   0.097   3.388 -1.1807  2.3602 -0.8926
 1670TIP3    H226570   2.281   0.186   3.365  0.4177  0.5296  0.0037
 1671TIP3   OH226571   5.570   1.864   2.362  0.3086 -0.0992  0.3285
 1671TIP3    H126572   5.505   1.872   2.292 -0.4504  0.5650  1.0943
 1671TIP3    H226573   5.519   1.861   2.442  1.2336  0.7337  0.9683
 1672TIP3   OH226574   3.811   4.551   0.159 -0.0571  0.3296 -0.5326
 1672TIP3    H126575   3.800   4.466   0.202  0.4723  1.1107  1.2748
 1672TIP3    H226576   3.728   4.596   0.174  0.6101  1.1449  1.0767
 1673TIP3   OH226577   3.828   0.793   0.399  0.5444  0.1329  0.3388
 1673TIP3    H126578   3.752   0.740   0.424  1.9168 -1.5361  1.2571
 1673TIP3    H226579   3.817   0.875   0.446  0.7468 -1.2243  2.9785
 1674TIP3   OH226580   1.408   4.474   1.513  0.8765 -0.1587 -0.3946
 1674TIP3    H126581   1.440   4.500   1.599 -0.3370  0.4951 -0.1217
 1674TIP3    H226582   1.338   4.411   1.530 -1.7383  2.4707 -0.6706
 1675TIP3   OH226583   3.483   2.211   0.801  0.1752  0.3297  0.2013
 1675TIP3    H126584   3.459   2.286   0.854  2.0492  1.0002  0.1441
 1675TIP3    H226585   3.502   2.247   0.715 -1.4679 -0.5793 -0.6089
 1676TIP3   OH226586   3.439   3.299   2.433  0.0294 -0.1578 -0.3697
 1676TIP3    H126587   3.392   3.374   2.471  1.4003  0.6815 -0.2650
 1676TIP3    H226588   3.511   3.339   2.383  0.6579 -1.4019 -0.4965
 1677TIP3   OH226589   6.155   4.513   3.249 -0.1316 -0.2113  0.1947
 1677TIP3    H126590   6.183   4.514   3.340 -1.0575  0.9731  0.5035
 1677TIP3    H226591   6.207   4.445   3.208  1.1783  0.0674  1.3338
 1678TIP3   OH226592   1.522   1.480   8.303 -0.5170  0.4274  0.1283
 1678TIP3    H126593   1.482   1.473   8.217 -2.0600 -0.1228  0.8592
 1678TIP3    H226594   1.543   1.389   8.328  3.1234  0.7645 -1.0304
 1679TIP3   OH226595   0.157   6.704   8.336  0.9099  0.2317 -0.4515
 1679TIP3    H126596   0.211   6.627   8.317  0.6203  0.5461 -2.9532
 1679TIP3    H226597   0.086   6.699   8.272 -1.2594  0.6204  1.8070
 1680TIP3   OH226598   5.590   1.899   1.388 -0.2244 -0.1869 -0.6696
 1680TIP3    H126599   5.612   1.838   1.459  1.8651  0.4230 -0.7119
 1680TIP3    H226600   5.511   1.863   1.348 -1.8338 -0.2405  2.2997
 1681TIP3   OH226601   0.317   6.769   1.128  0.6414 -0.1468 -0.4814
 1681TIP3    H126602   0.382   6.823   1.172  0.2233  0.8448 -1.0674
 1681TIP3    H226603   0.367   6.720   1.063  0.9582 -0.1653 -0.2272
 1682TIP3   OH226604   6.288   5.939   0.508  0.0826  0.2751  0.5295
 1682TIP3    H126605   6.345   6.005   0.548  0.2375 -0.0277  0.8126
 1682TIP3    H226606   6.283   5.869   0.573  0.4596 -0.2883 -0.0374
 1683TIP3   OH226607   1.548   0.361   0.519  0.1953 -0.3803 -0.5117
 1683TIP3    H126608   1.483   0.430   0.531  1.6518  1.3667 -2.0063
 1683TIP3    H226609   1.514   0.287   0.569 -2.2699  0.8559 -0.1904
 1684TIP3   OH226610   4.868   4.579   2.667  0.0651 -0.7034  0.2441
 1684TIP3    H126611   4.885   4.672   2.652 -1.0791 -0.6929 -1.3436
 1684TIP3    H226612   4.951   4.543   2.696  0.1636  1.0802  2.5117
 1685TIP3   OH226613   5.263   5.715   7.355 -0.6177  0.1695 -0.1675
 1685TIP3    H126614   5.228   5.670   7.432 -1.1063 -0.2952 -0.6605
 1685TIP3    H226615   5.252   5.808   7.375  1.2944  0.1536  1.2921
 1686TIP3   OH226616   0.120   1.117   2.663 -0.3501  0.1438 -0.6007
 1686TIP3    H126617   0.179   1.190   2.681 -0.2967  0.1625 -0.8436
 1686TIP3    H226618   0.164   1.041   2.701 -0.4877  0.2644 -0.1987
 1687TIP3   OH226619   3.123   4.778   8.263  0.0494 -0.3046 -0.1702
 1687TIP3    H126620   3.173   4.843   8.314 -0.9475 -0.2601  0.7924
 1687TIP3    H226621   3.055   4.748   8.323 -0.2875 -1.3182 -1.0319
 1688TIP3   OH226622   0.850   4.131   2.293 -0.2369  0.4286 -0.3936
 1688TIP3    H126623   0.831   4.210   2.344 -0.8240 -0.1475  0.3028
 1688TIP3    H226624   0.945   4.134   2.279  0.1003  0.1772  1.5018
 1689TIP3   OH226625   3.917   6.254   0.411  0.0007  0.5397 -0.4423
 1689TIP3    H126626   3.839   6.198   0.402  0.9014 -0.9558  0.5326
 1689TIP3    H226627   3.915   6.284   0.502  1.6521 -1.3398  0.2981
 1690TIP3   OH226628   0.174   2.802   7.433 -0.2897  0.4415  0.3123
 1690TIP3    H126629   0.253   2.773   7.479  0.1661  0.1407 -0.6231
 1690TIP3    H226630   0.130   2.720   7.409  0.1315  0.5347 -0.8635
 1691TIP3   OH226631   3.059   1.478   3.473  0.7669 -0.5412 -0.3315
 1691TIP3    H126632   3.019   1.394   3.496  2.4859 -1.5509 -0.8079
 1691TIP3    H226633   3.151   1.468   3.497  0.7654  1.7486  0.9154
 1692TIP3   OH226634   0.853   5.367   0.953  0.3807  0.0277  0.2112
 1692TIP3    H126635   0.774   5.381   1.005  1.6947  2.0593  1.8569
 1692TIP3    H226636   0.826   5.307   0.883 -2.0569 -1.0398  1.9130
 1693TIP3   OH226637   5.486   0.322   7.960  0.0048 -0.2840  0.8132
 1693TIP3    H126638   5.512   0.297   7.872 -0.5356 -1.3945  0.9589
 1693TIP3    H226639   5.394   0.347   7.952 -0.6260 -2.2843  1.3905
 1694TIP3   OH226640   6.541   5.603   7.196  0.6386 -0.3599 -0.6288
 1694TIP3    H126641   6.472   5.641   7.142  0.3862 -1.4355 -1.0888
 1694TIP3    H226642   6.565   5.673   7.256  0.4852  0.6560 -1.7134
 1695TIP3   OH226643   0.515   5.204   2.594  0.0936  0.4946  0.0761
 1695TIP3    H126644   0.480   5.291   2.609  2.4855  1.3251  1.5299
 1695TIP3    H226645   0.580   5.215   2.525  0.0347 -0.2615 -0.1135
 1696TIP3   OH226646   2.296   6.887   8.260 -0.3279 -0.1065 -0.1880
 1696TIP3    H126647   2.252   6.907   8.177  0.4093  0.9491 -0.3474
 1696TIP3    H226648   2.224   6.870   8.321 -0.9572  1.0321 -0.5758
 1697TIP3   OH226649   1.000   1.560   1.332  0.9189 -0.2676 -0.2191
 1697TIP3    H126650   1.095   1.559   1.317  0.8661  1.7457 -1.0038
 1697TIP3    H226651   0.986   1.630   1.395 -0.1619  0.3805 -1.1447
 1698TIP3   OH226652   0.295   4.931   2.339  0.0839  0.0526 -0.5682
 1698TIP3    H126653   0.278   4.859   2.278  0.7774  1.2135 -2.2012
 1698TIP3    H226654   0.217   4.932   2.396 -1.6933  0.2895 -2.8442
 1699TIP3   OH226655   6.811   3.750   2.078 -0.4196  0.1393  0.2069
 1699TIP3    H126656   6.723   3.723   2.104 -0.6900 -2.1866 -2.6972
 1699TIP3    H226657   6.868   3.678   2.104 -0.0245 -0.1723 -1.4135
 1700TIP3   OH226658   2.297   0.601   0.446  0.7010 -0.4042 -0.1670
 1700TIP3    H126659   2.249   0.552   0.512  2.4542 -0.6953  0.9602
 1700TIP3    H226660   2.365   0.647   0.495  2.3582 -0.9947 -1.7895
 1701TIP3   OH226661   0.137   5.204   7.356 -0.0305 -0.0424  0.5614
 1701TIP3    H126662   0.078   5.132   7.378  0.3925  0.3668  3.3422
 1701TIP3    H226663   0.217   5.161   7.326 -0.1114 -0.7254  1.3015
 1702TIP3   OH226664   0.942   5.208   7.985 -0.0299 -0.1129  0.3296
 1702TIP3    H126665   0.855   5.221   8.024  1.0210  0.2934  2.7272
 1702TIP3    H226666   0.949   5.113   7.973 -0.7441 -0.1570  0.2390
 1703TIP3   OH226667   0.294   4.498   7.582 -0.0607 -1.2366  0.3021
 1703TIP3    H126668   0.251   4.477   7.500 -1.1803  1.2936  0.1476
 1703TIP3    H226669   0.370   4.550   7.557 -0.4250 -0.4261  0.8232
 1704TIP3   OH226670   3.804   4.459   0.734  0.3789 -0.1604  0.0752
 1704TIP3    H126671   3.897   4.446   0.714  0.5128 -2.0159  1.6370
 1704TIP3    H226672   3.797   4.445   0.828 -1.2184  1.8472  0.3219
 1705TIP3   OH226673   0.227   0.413   1.847 -0.7996  0.2521 -0.3209
 1705TIP3    H126674   0.202   0.495   1.805 -2.6806 -0.1872 -0.1423
 1705TIP3    H226675   0.170   0.407   1.923  0.4163 -0.4761  0.5673
 1706TIP3   OH226676   3.328   3.149   0.303  0.4713 -0.3624  0.1742
 1706TIP3    H126677   3.327   3.212   0.230  2.4208  0.9711  1.2267
 1706TIP3    H226678   3.316   3.064   0.260  0.2859  0.4845 -1.5671
 1707TIP3   OH226679   2.298   4.289   0.664 -0.3882  0.5059 -0.6123
 1707TIP3    H126680   2.226   4.228   0.682 -0.5349  0.7793 -0.2444
 1707TIP3    H226681   2.305   4.342   0.744  0.3152  0.3917 -0.5925
 1708TIP3   OH226682   5.186   6.151   0.977 -0.0806 -0.2234 -0.0845
 1708TIP3    H126683   5.257   6.151   1.040  1.0570  0.0055 -1.3340
 1708TIP3    H226684   5.207   6.081   0.915 -0.1774  0.7342 -1.2577
 1709TIP3   OH226685   5.750   2.044   7.338  0.1253  0.3486  0.0624
 1709TIP3    H126686   5.750   1.971   7.399 -0.7968  1.0055  0.8679
 1709TIP3    H226687   5.659   2.075   7.336  0.0385  0.1229 -1.9233
 1710TIP3   OH226688   1.978   4.473   0.739  0.4333 -0.3779  0.0853
 1710TIP3    H126689   2.064   4.472   0.695  0.2745  1.0111 -0.2881
 1710TIP3    H226690   1.998   4.494   0.830  0.5768 -1.2442  0.2677
 1711TIP3   OH226691   0.440   3.032   8.311  0.0556 -0.1316 -0.3590
 1711TIP3    H126692   0.514   3.057   8.255  0.5347 -0.1969  0.2374
 1711TIP3    H226693   0.374   3.000   8.250  0.9602 -1.1910 -0.8156
 1712TIP3   OH226694   6.345   3.449   8.365  0.0818 -0.2830  0.2459
 1712TIP3    H126695   6.385   3.532   8.390 -0.1167  0.0882 -0.6300
 1712TIP3    H226696   6.275   3.473   8.305 -0.3804 -1.0452  0.4642
 1713TIP3   OH226697   6.740   3.415   2.248 -1.0037  0.1020  0.6675
 1713TIP3    H126698   6.647   3.411   2.228 -0.9688 -0.1001  0.5442
 1713TIP3    H226699   6.781   3.359   2.183 -0.9095 -0.7372  1.4272
 1714TIP3   OH226700   5.161   3.765   1.478  0.3434  0.7960 -0.0306
 1714TIP3    H126701   5.248   3.797   1.500  0.5031  0.4239 -0.1262
 1714TIP3    H226702   5.166   3.742   1.385  0.3673  0.0261  0.1611
 1715TIP3   OH226703   5.025   5.389   0.787  0.0356  0.1948 -0.0197
 1715TIP3    H126704   4.955   5.341   0.743 -1.8010  3.2151 -0.6954
 1715TIP3    H226705   5.105   5.344   0.761 -1.3131 -0.7737 -2.9076
 1716TIP3   OH226706   5.606   2.427   7.507  0.5006  0.3614  0.3857
 1716TIP3    H126707   5.694   2.392   7.491  0.1797 -0.2167 -0.1942
 1716TIP3    H226708   5.608   2.515   7.471  0.4085 -0.1875 -1.0455
 1717TIP3   OH226709   1.114   3.317   8.350 -0.4240 -0.0681 -0.9903
 1717TIP3    H126710   1.063   3.251   8.303 -0.2144 -1.1682  0.2642
 1717TIP3    H226711   1.183   3.267   8.395 -0.5379  0.9403  0.3636
 1718TIP3   OH226712   1.301   0.118   1.428  0.0690 -0.2265 -0.1828
 1718TIP3    H126713   1.211   0.110   1.461 -0.2244  1.9894 -0.3046
 1718TIP3    H226714   1.354   0.072   1.493 -1.1810 -2.4391 -0.5967
 1719TIP3   OH226715   6.182   3.346   7.497  1.1418  0.2662 -0.5377
 1719TIP3    H126716   6.230   3.422   7.462 -1.0770  1.7249 -0.6299
 1719TIP3    H226717   6.215   3.272   7.447  2.6535  1.3102 -1.1831
 1720TIP3   OH226718   6.029   6.500   2.843 -0.3300 -0.4808  1.0262
 1720TIP3    H126719   5.949   6.544   2.874  0.3441  1.2278  0.4747
 1720TIP3    H226720   6.085   6.495   2.920 -0.2072  0.1397  0.9849
 1721TIP3   OH226721   3.104   5.857   0.046  0.2879 -0.5675  0.7433
 1721TIP3    H126722   3.110   5.768   0.011 -0.6787 -0.5706  0.5628
 1721TIP3    H226723   3.025   5.856   0.101 -0.3162  0.4472 -0.0758
 1722TIP3   OH226724   3.076   6.904   2.175 -0.1349  0.3646  0.0228
 1722TIP3    H126725   3.162   6.893   2.136 -0.4201 -0.3686 -0.4264
 1722TIP3    H226726   3.091   6.958   2.253  0.6324  0.7224 -0.3708
 1723TIP3   OH226727   2.871   6.918   0.536  0.5247  0.1695 -0.1697
 1723TIP3    H126728   2.822   6.842   0.566  2.2330 -1.1155 -0.5357
 1723TIP3    H226729   2.821   6.993   0.570 -1.5247 -1.0595 -0.3214
 1724TIP3   OH226730   5.018   3.521   8.093 -0.4344 -0.1953 -1.0163
 1724TIP3    H126731   5.099   3.555   8.130 -0.5917 -1.3721  0.5121
 1724TIP3    H226732   5.026   3.426   8.099 -2.5642 -0.3412  0.7473
 1725TIP3   OH226733   3.981   1.014   2.479  0.1856 -0.1963 -0.2746
 1725TIP3    H126734   3.956   1.070   2.552  0.6045 -0.4468  0.0661
 1725TIP3    H226735   3.909   1.022   2.416 -0.4634 -0.4555  0.4285
 1726TIP3   OH226736   6.040   4.516   1.601 -0.7743 -0.3479 -0.0616
 1726TIP3    H126737   5.963   4.468   1.567 -1.5222  0.4721  0.4495
 1726TIP3    H226738   6.003   4.583   1.658  0.3745 -0.3874  0.7485
 1727TIP3   OH226739   4.006   5.449   8.297  0.5068  0.2117  0.5078
 1727TIP3    H126740   4.004   5.442   8.393 -1.6579 -1.3396  0.4391
 1727TIP3    H226741   3.991   5.541   8.279  0.8876  0.5144  1.6569
 1728TIP3   OH226742   0.937   4.850   0.688 -0.1378 -0.3604 -0.3125
 1728TIP3    H126743   1.011   4.830   0.631  0.1817  1.0514 -0.4432
 1728TIP3    H226744   0.975   4.892   0.765 -0.8652  2.0957 -1.1968
 1729TIP3   OH226745   1.908   1.700   2.234 -0.3573  0.0769  0.6147
 1729TIP3    H126746   1.926   1.785   2.194  0.5108 -0.3768  0.0135
 1729TIP3    H226747   1.994   1.666   2.259 -0.6961 -0.6191  0.8570
 1730TIP3   OH226748   4.010   1.997   2.628 -0.3856  0.0654  0.2286
 1730TIP3    H126749   3.969   1.931   2.684 -0.5535  0.0279  0.0620
 1730TIP3    H226750   3.990   1.968   2.539  0.1450 -0.0440  0.1448
 1731TIP3   OH226751   0.659   0.693   7.815  0.5303 -0.0811  0.3907
 1731TIP3    H126752   0.688   0.700   7.724  0.6751  0.9129  0.5034
 1731TIP3    H226753   0.740   0.700   7.866  0.1996  2.2657  0.6930
 1732TIP3   OH226754   5.220   4.745   7.745  0.1208  0.0031 -0.4227
 1732TIP3    H126755   5.174   4.674   7.790 -3.7952  1.2438 -2.0266
 1732TIP3    H226756   5.204   4.728   7.652  3.6953  0.2213 -1.1927
 1733TIP3   OH226757   3.268   6.330   3.287 -0.3471 -0.6770 -0.3266
 1733TIP3    H126758   3.246   6.239   3.268 -2.8322 -0.3199  0.4406
 1733TIP3    H226759   3.213   6.352   3.362 -0.1233  1.5915 -0.7637
 1734TIP3   OH226760   0.909   0.062   3.387 -0.0027 -0.4593  0.0776
 1734TIP3    H126761   0.973   0.066   3.316 -1.3738  2.7742 -1.1551
 1734TIP3    H226762   0.947   0.115   3.457 -0.4331 -0.2019  0.1236
 1735TIP3   OH226763   5.892   1.972   1.635  0.0804  0.2517  0.2055
 1735TIP3    H126764   5.839   1.911   1.686 -1.2355  1.1430 -0.0478
 1735TIP3    H226765   5.911   1.926   1.553  0.5228 -0.4304  0.6856
 1736TIP3   OH226766   0.222   4.402   0.236 -0.0284  0.0716  0.3325
 1736TIP3    H126767   0.181   4.316   0.237  2.2062 -1.0966 -0.5323
 1736TIP3    H226768   0.270   4.406   0.319  0.1440  0.3296  0.2217
 1737TIP3   OH226769   5.299   6.129   2.443  0.4280 -0.1856  0.1484
 1737TIP3    H126770   5.392   6.110   2.443  0.3040 -0.8660  1.1220
 1737TIP3    H226771   5.266   6.089   2.524 -0.6502  0.2995 -0.0300
 1738TIP3   OH226772   2.625   0.062   1.461  0.1142  0.0999  0.3168
 1738TIP3    H126773   2.708   0.095   1.497 -0.0310 -0.4028  1.1167
 1738TIP3    H226774   2.558   0.115   1.504 -0.1153 -1.1378  1.5346
 1739TIP3   OH226775   6.549   3.102   2.020 -0.6546 -0.0560 -0.2803
 1739TIP3    H126776   6.474   3.157   1.997 -0.1249  0.5800 -0.5222
 1739TIP3    H226777   6.582   3.140   2.101  0.5275  0.8416 -1.1491
 1740TIP3   OH226778   4.612   0.015   0.014  0.2655 -0.0091  0.4697
 1740TIP3    H126779   4.571  -0.003  -0.071  0.7925  0.5156  0.0977
 1740TIP3    H226780   4.700   0.045  -0.008  1.1670 -1.9113  1.2799
 1741TIP3   OH226781   6.123   4.610   0.687  0.1583  0.6025  0.4041
 1741TIP3    H126782   6.135   4.703   0.667 -1.4102  0.4951 -1.2506
 1741TIP3    H226783   6.041   4.607   0.735 -1.3683 -0.1472 -2.0714
 1742TIP3   OH226784   2.072   3.904   7.741 -0.1684 -0.3035  0.3643
 1742TIP3    H126785   2.148   3.921   7.796 -0.5222  0.3574  0.6682
 1742TIP3    H226786   1.998   3.935   7.793 -0.4448  0.9943 -0.7447
 1743TIP3   OH226787   6.920   3.361   0.843  0.3972 -0.2788  0.0906
 1743TIP3    H126788   6.918   3.341   0.936 -1.2171  0.2562  0.1983
 1743TIP3    H226789   6.865   3.293   0.803 -0.2492  0.4293 -0.2553
 1744TIP3   OH226790   3.574   6.247   0.632 -0.1704  0.2450  0.2514
 1744TIP3    H126791   3.545   6.176   0.689 -1.9493  0.6969 -0.0231
 1744TIP3    H226792   3.645   6.209   0.581 -0.1414 -0.8996  1.0951
 1745TIP3   OH226793   6.536   6.655   2.401 -0.5727 -0.3768 -0.1002
 1745TIP3    H126794   6.576   6.671   2.316 -1.2589 -0.0538 -0.3738
 1745TIP3    H226795   6.595   6.697   2.464  0.5073 -1.5404 -0.2962
 1746TIP3   OH226796   2.317   5.972   8.178  0.0016 -0.0718  0.3955
 1746TIP3    H126797   2.367   6.053   8.165 -0.1904 -0.1759 -1.0958
 1746TIP3    H226798   2.359   5.909   8.120 -1.6592 -0.2416 -0.6802
 1747TIP3   OH226799   2.050   6.595   1.159 -0.4853  0.0535 -0.4729
 1747TIP3    H126800   2.032   6.641   1.077 -1.0862  2.1104  0.7265
 1747TIP3    H226801   1.998   6.515   1.153  0.6172 -0.5845 -2.6611
 1748TIP3   OH226802   1.481   1.926   2.281  0.8286 -0.0410 -0.0897
 1748TIP3    H126803   1.486   2.011   2.239 -0.5445  0.6338  1.0159
 1748TIP3    H226804   1.542   1.871   2.232  1.6158  1.5162 -0.9358
 1749TIP3   OH226805   6.082   0.991   7.967  0.3548  0.2317 -0.2458
 1749TIP3    H126806   5.988   0.984   7.982  0.3951  0.4442  0.1358
 1749TIP3    H226807   6.100   1.085   7.971  0.4129  0.2840 -1.4425
 1750TIP3   OH226808   4.145   4.620   6.654  0.1604 -0.0247 -0.0555
 1750TIP3    H126809   4.202   4.671   6.711 -2.3393  1.3501  1.3520
 1750TIP3    H226810   4.122   4.543   6.705  0.3930 -0.3819 -0.4732
 1751TIP3   OH226811   6.040   3.036   7.788 -0.0626 -0.5877 -0.6318
 1751TIP3    H126812   6.123   2.989   7.799 -0.9893 -2.3516 -0.8111
 1751TIP3    H226813   6.016   3.022   7.696 -0.3156  0.3744 -0.7319
 1752TIP3   OH226814   6.758   6.074   8.142  0.0689  0.5726  0.4626
 1752TIP3    H126815   6.670   6.103   8.120 -0.3260  0.3447  1.6322
 1752TIP3    H226816   6.748   6.030   8.227  0.7761 -2.2164 -0.7941
 1753TIP3   OH226817   5.603   3.374   1.515 -0.6977  0.2685  0.0023
 1753TIP3    H126818   5.585   3.372   1.421  0.6046  0.6372 -0.2644
 1753TIP3    H226819   5.669   3.306   1.528  0.3434  1.3167  0.3691
 1754TIP3   OH226820   0.345   5.805   0.659 -0.6767 -0.1043  0.0907
 1754TIP3    H126821   0.324   5.715   0.683  0.3265 -0.4119 -0.1038
 1754TIP3    H226822   0.337   5.807   0.564  1.7444 -0.7141 -0.1895
 1755TIP3   OH226823   1.520   3.431   1.976 -0.2687 -0.4881  0.1431
 1755TIP3    H126824   1.587   3.363   1.987 -1.1846 -1.7437 -1.6206
 1755TIP3    H226825   1.570   3.513   1.967  1.1242 -1.4935 -1.9218
 1756TIP3   OH226826   0.659   3.293   1.789 -0.3877  0.5174  0.4811
 1756TIP3    H126827   0.573   3.260   1.815 -0.7197  1.8741  1.1742
 1756TIP3    H226828   0.641   3.350   1.714 -0.0693  0.6513  0.5058
 1757TIP3   OH226829   6.593   3.317   7.300 -0.1738  0.1941  0.0371
 1757TIP3    H126830   6.580   3.225   7.321 -0.3949  0.0458 -0.7127
 1757TIP3    H226831   6.541   3.331   7.221  2.5505  0.0734 -1.9365
 1758TIP3   OH226832   3.759   5.438   0.050  0.3993  0.1488 -0.1080
 1758TIP3    H126833   3.817   5.366   0.023  0.0821 -0.7259  1.4166
 1758TIP3    H226834   3.733   5.479  -0.032  1.1058 -1.0743 -0.9901
 1759TIP3   OH226835   6.043   1.373   0.232  0.2889  0.2438  0.3796
 1759TIP3    H126836   5.997   1.340   0.310 -0.4286  0.0131 -0.1328
 1759TIP3    H226837   5.972   1.400   0.173  0.8389  0.9279  0.0286
 1760TIP3   OH226838   3.435   2.690   1.992  0.3710 -0.2083  0.1458
 1760TIP3    H126839   3.516   2.682   1.943  1.7819 -0.1068  2.3194
 1760TIP3    H226840   3.401   2.777   1.969  1.4936  0.2207  0.0583
 1761TIP3   OH226841   5.069   2.254   2.109 -0.2515 -0.5011 -0.0953
 1761TIP3    H126842   4.982   2.241   2.148 -0.9140  0.7841 -1.1078
 1761TIP3    H226843   5.116   2.307   2.173 -0.7928  0.2284 -0.2882
 1762TIP3   OH226844   0.369   0.791   1.215  0.1865 -0.3461  0.1657
 1762TIP3    H126845   0.462   0.794   1.191  0.3432 -1.5778  0.5392
 1762TIP3    H226846   0.335   0.715   1.166 -0.7866  0.5024 -0.5007
 1763TIP3   OH226847   6.150   4.513   7.396 -0.3012 -0.0529  0.4224
 1763TIP3    H126848   6.129   4.425   7.427  0.2263 -0.3474 -0.0371
 1763TIP3    H226849   6.113   4.571   7.462 -2.0776 -0.5558 -0.0585
 1764TIP3   OH226850   6.907   6.139   1.562 -0.1685  0.0117 -0.3619
 1764TIP3    H126851   6.891   6.093   1.480 -0.5986  1.0483 -0.8712
 1764TIP3    H226852   6.833   6.116   1.618 -0.1886 -0.2132 -0.4817
 1765TIP3   OH226853   4.107   5.029   3.233  0.1981  0.6690  0.0790
 1765TIP3    H126854   4.016   5.058   3.247 -0.3312  0.2040 -2.0232
 1765TIP3    H226855   4.134   5.075   3.153  1.7412  0.6016  0.5456
 1766TIP3   OH226856   4.711   1.753   1.190 -0.2954 -0.2606  0.1134
 1766TIP3    H126857   4.748   1.826   1.141  1.0782 -0.9677  0.0422
 1766TIP3    H226858   4.618   1.774   1.198 -0.0161  1.2617 -0.2887
 1767TIP3   OH226859   0.168   2.632   1.712  0.3327  0.3008  0.5939
 1767TIP3    H126860   0.146   2.696   1.779 -0.2999  0.7131 -0.0003
 1767TIP3    H226861   0.088   2.581   1.700  0.0416  1.0169 -0.6983
 1768TIP3   OH226862   4.339   1.430   1.118 -0.4762 -0.0889  0.4508
 1768TIP3    H126863   4.276   1.368   1.156  0.1293 -0.8359  0.2484
 1768TIP3    H226864   4.424   1.398   1.147 -0.2047  1.3282  1.3321
 1769TIP3   OH226865   4.614   6.414   1.334 -0.1491 -0.5869  0.0479
 1769TIP3    H126866   4.628   6.502   1.298 -0.1640 -0.3150  0.7007
 1769TIP3    H226867   4.689   6.363   1.305  0.1704 -0.1942  0.1896
 1770TIP3   OH226868   1.067   1.057   1.597  0.6464  0.3435 -0.1156
 1770TIP3    H126869   0.999   1.124   1.604  0.8504  0.5422  0.0013
 1770TIP3    H226870   1.036   0.997   1.529  0.2973  0.3635  0.0264
 1771TIP3   OH226871   1.708   1.945   1.255  0.2796 -0.1429 -0.1905
 1771TIP3    H126872   1.749   1.970   1.173 -0.8782  0.1951 -0.6824
 1771TIP3    H226873   1.655   2.020   1.280 -0.9844 -0.9978 -0.2032
 1772TIP3   OH226874   2.652   3.022   1.441  0.0343  0.5809  0.4708
 1772TIP3    H126875   2.700   2.988   1.365  1.9528  0.4263  1.6717
 1772TIP3    H226876   2.608   2.945   1.477  0.0670  0.4185  0.1679
 1773TIP3   OH226877   6.842   3.102   0.794  0.2213  0.2934 -0.5610
 1773TIP3    H126878   6.845   3.064   0.706  0.0782  0.3730 -0.6015
 1773TIP3    H226879   6.915   3.061   0.841  0.0871 -0.0073 -0.6118
 1774TIP3   OH226880   3.997   1.101   1.225 -0.4491  0.2659  0.2399
 1774TIP3    H126881   3.960   1.077   1.310  0.1061 -2.0248 -0.1017
 1774TIP3    H226882   4.012   1.017   1.180  1.9202  1.2502 -0.9992
 1775TIP3   OH226883   2.077   5.434   2.575 -0.0662  0.6075 -0.2073
 1775TIP3    H126884   2.018   5.434   2.500 -2.0274  2.0480  1.2451
 1775TIP3    H226885   2.039   5.496   2.637  1.4569 -0.4936  2.0117
 1776TIP3   OH226886   4.451   0.337   0.766  0.2548  0.0710  0.7149
 1776TIP3    H126887   4.421   0.361   0.854 -0.6297 -0.6614  0.6244
 1776TIP3    H226888   4.512   0.265   0.780  1.1937  0.8612  0.8166
 1777TIP3   OH226889   1.875   0.367   0.972  0.2121 -0.2105 -0.2849
 1777TIP3    H126890   1.961   0.394   0.938  0.5894 -1.2841 -0.2172
 1777TIP3    H226891   1.891   0.352   1.065 -0.3758  0.8731  0.0077
 1778TIP3   OH226892   6.963   5.000   7.009  0.1123 -0.7092  0.1099
 1778TIP3    H126893   6.894   4.977   7.071 -0.9288  3.6365  0.9265
 1778TIP3    H226894   7.044   4.977   7.054 -0.7082 -1.0285  1.4826
 1779TIP3   OH226895   3.047   6.379   3.480  0.0084  0.1575 -0.7308
 1779TIP3    H126896   3.076   6.396   3.570 -0.8885  1.1693 -0.6204
 1779TIP3    H226897   2.953   6.398   3.480  0.0170  0.3050 -1.9083
 1780TIP3   OH226898   6.301   3.021   2.669 -0.1519  0.3331  0.8545
 1780TIP3    H126899   6.381   3.073   2.678 -0.3348  0.4407  1.9995
 1780TIP3    H226900   6.328   2.932   2.693 -0.2723  0.2730  0.7689
 1781TIP3   OH226901   0.646   0.242   2.514  0.0557 -0.1859 -0.1479
 1781TIP3    H126902   0.646   0.214   2.606 -1.8003 -0.2298 -0.1285
 1781TIP3    H226903   0.623   0.335   2.517  0.3659 -0.0926 -0.5582
 1782TIP3   OH226904   1.446   5.862   2.249  0.4309  0.2546 -0.7284
 1782TIP3    H126905   1.414   5.868   2.159  2.3240 -0.3478 -1.4968
 1782TIP3    H226906   1.480   5.950   2.268 -0.8499  0.6703 -0.1911
 1783TIP3   OH226907   4.376   2.620   7.011 -0.5518  0.2268 -0.2804
 1783TIP3    H126908   4.345   2.708   7.035 -0.3565  0.3403 -0.4396
 1783TIP3    H226909   4.435   2.635   6.937  2.9367  0.4770  2.2629
 1784TIP3   OH226910   0.934   4.446   1.246  0.0695 -0.0022  0.2766
 1784TIP3    H126911   1.021   4.408   1.236  0.7237  1.4194  0.1995
 1784TIP3    H226912   0.932   4.480   1.336 -0.2626  0.2904  0.1647
 1785TIP3   OH226913   1.672   4.659   0.484  0.1000  0.3192 -0.0738
 1785TIP3    H126914   1.709   4.631   0.568 -1.3827  0.8259  0.7722
 1785TIP3    H226915   1.704   4.749   0.473 -1.4155  1.0315  1.0278
 1786TIP3   OH226916   5.465   2.031   7.388 -0.4331 -0.3652  0.0292
 1786TIP3    H126917   5.380   2.070   7.369 -0.2666 -0.8438 -1.9955
 1786TIP3    H226918   5.448   1.937   7.394 -0.3391 -0.2971  1.6787
 1787TIP3   OH226919   6.567   1.344   0.264 -0.1688 -0.0535 -0.5486
 1787TIP3    H126920   6.550   1.395   0.185 -0.5100  0.5408 -0.0982
 1787TIP3    H226921   6.492   1.285   0.271 -1.1728  1.2732  0.4084
 1788TIP3   OH226922   2.250   4.818   1.261 -0.4308 -0.0017  0.1765
 1788TIP3    H126923   2.299   4.844   1.339  0.1001 -1.3535  0.3134
 1788TIP3    H226924   2.175   4.770   1.294  0.0968 -1.0730 -0.1435
 1789TIP3   OH226925   2.764   1.412   1.386 -0.2171 -0.2439 -0.1344
 1789TIP3    H126926   2.826   1.353   1.345 -0.2051 -0.1200 -0.2930
 1789TIP3    H226927   2.683   1.402   1.335 -0.6279 -1.1369  0.6623
 1790TIP3   OH226928   1.526   5.931   2.754  0.1442 -0.0802 -0.1204
 1790TIP3    H126929   1.526   5.980   2.837  0.1281  0.9517 -0.7148
 1790TIP3    H226930   1.445   5.880   2.756 -0.2407  0.5336  0.1521
 1791TIP3   OH226931   3.653   0.503   0.930  0.3679 -0.6345  0.4752
 1791TIP3    H126932   3.648   0.540   1.019  1.8072 -1.6194  0.9870
 1791TIP3    H226933   3.575   0.539   0.886 -0.7456 -0.6359  2.3146
 1792TIP3   OH226934   2.231   3.951   3.365 -0.3805 -0.4012  0.5463
 1792TIP3    H126935   2.165   3.892   3.401 -1.2269  0.0264 -0.2664
 1792TIP3    H226936   2.311   3.930   3.412 -1.0758 -1.0081  1.4702
 1793TIP3   OH226937   5.763   6.993   1.673  0.3256 -0.2912  0.0568
 1793TIP3    H126938   5.809   6.987   1.589  0.6593 -1.1612  0.2905
 1793TIP3    H226939   5.741   7.085   1.682  2.2683  0.2168  0.0496
 1794TIP3   OH226940   5.189   0.318   8.110 -0.6459 -0.4985  0.0371
 1794TIP3    H126941   5.143   0.303   8.027 -1.7132  1.8816  0.1091
 1794TIP3    H226942   5.167   0.242   8.164 -1.3100 -1.2771 -1.2760
 1795TIP3   OH226943   0.887   0.733   0.439  0.3048  0.1788  0.1590
 1795TIP3    H126944   0.893   0.828   0.449  1.6476  0.0813  0.3629
 1795TIP3    H226945   0.795   0.713   0.458  0.0113  1.4256  0.1330
 1796TIP3   OH226946   0.040   1.354   0.711  0.5690  0.0898  0.2000
 1796TIP3    H126947   0.076   1.348   0.800  3.6938 -0.8218 -0.9981
 1796TIP3    H226948   0.086   1.427   0.671  1.2530 -1.1696 -1.4422
 1797TIP3   OH226949   6.155   0.643   1.346 -0.1401 -0.5341  0.3443
 1797TIP3    H126950   6.237   0.604   1.376  1.3912  1.8211 -0.5254
 1797TIP3    H226951   6.090   0.613   1.410  1.9279 -0.1164  2.8073
 1798TIP3   OH226952   0.297   6.232   1.765  0.2446  0.4407 -0.7150
 1798TIP3    H126953   0.230   6.164   1.755  1.0260 -0.4006 -0.3238
 1798TIP3    H226954   0.247   6.313   1.778 -0.6969 -0.2094 -0.1989
 1799TIP3   OH226955   6.595   0.146   0.135 -0.1364 -0.0904  0.3211
 1799TIP3    H126956   6.666   0.158   0.072 -1.5231 -0.0395 -1.3039
 1799TIP3    H226957   6.602   0.054   0.162  0.4201 -0.1355  0.0229
 1800TIP3   OH226958   4.988   1.271   7.368  0.0741 -0.3576 -0.0484
 1800TIP3    H126959   4.901   1.306   7.349  0.3836 -0.0014 -0.8936
 1800TIP3    H226960   5.020   1.324   7.441 -0.0614  0.1413 -0.3406
 1801TIP3   OH226961   6.591   2.709   8.151 -0.6562 -0.3091 -0.4733
 1801TIP3    H126962   6.544   2.626   8.145 -2.6188  0.8327 -3.1046
 1801TIP3    H226963   6.604   2.723   8.245 -1.4753 -2.9040  0.1053
 1802TIP3   OH226964   0.309   1.906   1.494  0.1270 -0.2020  0.3599
 1802TIP3    H126965   0.342   1.988   1.457 -1.8256  0.6498  0.3665
 1802TIP3    H226966   0.324   1.841   1.425  0.7567  0.3877 -0.0688
 1803TIP3   OH226967   1.679   1.094   2.738 -0.0701  0.1177 -0.0101
 1803TIP3    H126968   1.610   1.068   2.677 -0.1935 -0.4574  0.3676
 1803TIP3    H226969   1.632   1.125   2.816  0.0768 -1.3356  0.6946
 1804TIP3   OH226970   3.970   6.035   8.084  0.1298  0.0006  0.2510
 1804TIP3    H126971   3.893   5.989   8.117  0.2390 -0.8587 -0.6371
 1804TIP3    H226972   3.936   6.089   8.012  0.0601  1.0885  1.0697
 1805TIP3   OH226973   3.411   4.532   8.169  0.1288 -0.2346  0.0527
 1805TIP3    H126974   3.421   4.625   8.148  0.1318 -0.1794  0.2987
 1805TIP3    H226975   3.449   4.486   8.094  0.7126 -0.0333  0.2178
 1806TIP3   OH226976   3.570   5.777   1.700  0.3536  0.0611  0.4022
 1806TIP3    H126977   3.523   5.694   1.696  2.2898 -1.0254 -1.4274
 1806TIP3    H226978   3.650   5.757   1.748  1.4325  0.5058 -1.1409
 1807TIP3   OH226979   3.473   2.614   1.554  0.6444 -0.8621  0.7363
 1807TIP3    H126980   3.426   2.655   1.627  1.7570 -0.3220  1.1708
 1807TIP3    H226981   3.428   2.645   1.476 -0.6841 -1.5919  1.1780
 1808TIP3   OH226982   6.507   4.006   2.143 -0.0750  0.1693  0.1275
 1808TIP3    H126983   6.584   4.060   2.160  0.7768 -0.4702 -1.4750
 1808TIP3    H226984   6.451   4.060   2.087 -0.2614  0.2085  0.3494
 1809TIP3   OH226985   1.061   2.037   2.504  0.1304 -0.4105 -0.7866
 1809TIP3    H126986   1.084   2.083   2.423 -0.1495  2.2477  0.5383
 1809TIP3    H226987   1.114   2.079   2.572 -1.4862 -0.7921  0.8027
 1810TIP3   OH226988   2.789   6.314   0.850 -0.9314  0.0409 -0.6133
 1810TIP3    H126989   2.823   6.333   0.763  0.4252 -0.8116 -0.2981
 1810TIP3    H226990   2.700   6.283   0.835 -0.4901 -0.7187 -1.7481
 1811TIP3   OH226991   1.741   4.613   2.209 -0.0736 -0.1178  0.0997
 1811TIP3    H126992   1.702   4.574   2.131 -0.1850 -0.5908  0.3892
 1811TIP3    H226993   1.670   4.664   2.249 -0.9892 -2.4100  1.6089
 1812TIP3   OH226994   2.200   6.714   3.228 -0.2649  0.6872 -0.2794
 1812TIP3    H126995   2.197   6.620   3.246 -0.8863  0.7378 -0.0779
 1812TIP3    H226996   2.292   6.739   3.241  0.2516 -0.1965 -2.0117
 1813TIP3   OH226997   2.906   1.618   2.286  0.1248 -0.0826  0.7238
 1813TIP3    H126998   2.939   1.578   2.366 -0.9366 -1.1667  0.6539
 1813TIP3    H226999   2.971   1.684   2.263  0.5217  0.1365  2.3820
 1814TIP3   OH227000   2.158   3.231   0.559 -0.1404  0.4042 -0.1215
 1814TIP3    H127001   2.211   3.164   0.602 -0.6505 -1.2914 -2.0001
 1814TIP3    H227002   2.215   3.267   0.491 -0.8577 -0.4159 -1.2033
 1815TIP3   OH227003   5.799   0.155   0.217 -0.0645 -0.1393  0.0495
 1815TIP3    H127004   5.792   0.241   0.174  0.6174  0.1989  0.5862
 1815TIP3    H227005   5.878   0.162   0.271 -0.5826 -0.7587  0.9059
 1816TIP3   OH227006   0.814   4.580   0.686  0.0122 -0.2391  0.1312
 1816TIP3    H127007   0.848   4.670   0.686 -0.5628 -0.0125 -0.4621
 1816TIP3    H227008   0.882   4.528   0.644 -0.2920  0.1900 -0.9350
 1817TIP3   OH227009   3.652   4.002   0.168  0.1171  0.4939 -0.1396
 1817TIP3    H127010   3.625   4.093   0.157  0.0433  0.5437  0.4231
 1817TIP3    H227011   3.660   3.990   0.263  0.5390  0.0326 -0.2266
 1818TIP3   OH227012   3.425   5.069   2.554  0.1076 -0.1524  0.8087
 1818TIP3    H127013   3.406   5.021   2.635  0.0908  0.2075  1.0217
 1818TIP3    H227014   3.339   5.082   2.513  0.0161  0.4195  1.1681
 1819TIP3   OH227015   0.690   5.990   3.131 -0.2749  0.2155  0.1391
 1819TIP3    H127016   0.626   6.059   3.146  0.4716  0.8169  0.6296
 1819TIP3    H227017   0.775   6.033   3.140  0.2488 -1.0428  1.9586
 1820TIP3   OH227018   1.079   0.081   1.844  0.0463 -0.3267 -0.4486
 1820TIP3    H127019   1.094   0.041   1.929  1.6060  0.3208 -0.3796
 1820TIP3    H227020   0.988   0.111   1.847  0.3792  0.6453  1.4297
 1821TIP3   OH227021   3.383   6.344   3.671  0.0795  0.2249  0.1561
 1821TIP3    H127022   3.290   6.367   3.670  0.4009  1.5837  0.2649
 1821TIP3    H227023   3.387   6.260   3.626 -1.1968  0.1723  0.1090
 1822TIP3   OH227024   2.677   0.102   0.601  0.0343  0.0894 -0.1891
 1822TIP3    H127025   2.660   0.112   0.508  1.2065 -1.4109 -0.5911
 1822TIP3    H227026   2.598   0.136   0.644 -1.0896 -0.4781 -1.7546
 1823TIP3   OH227027   4.637   2.608   1.086 -0.1702  0.2491  0.4585
 1823TIP3    H127028   4.587   2.627   1.006  0.0589 -0.4172  0.1534
 1823TIP3    H227029   4.691   2.532   1.063  0.1724  0.2850  1.1321
 1824TIP3   OH227030   1.334   2.383   8.293 -0.2051 -0.2581  0.6728
 1824TIP3    H127031   1.392   2.452   8.260 -0.1789 -0.3705  0.4827
 1824TIP3    H227032   1.388   2.334   8.355 -0.2000 -0.1560  0.7497
 1825TIP3   OH227033   0.025   1.916   0.885  0.2897  0.0114 -0.3494
 1825TIP3    H127034   0.047   1.824   0.867  1.4566  0.3590 -0.8496
 1825TIP3    H227035  -0.052   1.933   0.832  0.1118 -0.6572 -0.3207
 1826TIP3   OH227036   6.613   6.086   0.304  0.4037  0.6693  0.3353
 1826TIP3    H127037   6.689   6.139   0.282  0.7374 -0.3428 -1.0729
 1826TIP3    H227038   6.543   6.120   0.248  0.7658 -0.6942 -1.0010
 1827TIP3   OH227039   3.288   2.581   8.356 -0.7277 -0.3519 -0.1521
 1827TIP3    H127040   3.242   2.665   8.351 -1.4819 -0.6712  0.8976
 1827TIP3    H227041   3.320   2.577   8.446  2.3034  0.2927 -1.0752
 1828TIP3   OH227042   6.531   2.572   0.180 -0.3628  0.4050 -0.2804
 1828TIP3    H127043   6.528   2.555   0.274 -0.2710  1.3788 -0.0945
 1828TIP3    H227044   6.447   2.613   0.160 -0.3931  0.1801 -0.6342
 1829TIP3   OH227045   1.842   6.742   2.404  0.1131 -0.0362 -0.3912
 1829TIP3    H127046   1.810   6.775   2.321  3.4280  0.8662 -1.4731
 1829TIP3    H227047   1.884   6.659   2.383 -0.4925 -0.6616  0.7428
 1830TIP3   OH227048   2.777   4.708   1.521 -0.3125 -0.4665 -0.1439
 1830TIP3    H127049   2.699   4.723   1.468 -0.8510 -1.9081  0.1834
 1830TIP3    H227050   2.743   4.674   1.604  0.6470 -0.8889  0.0915
 1831TIP3   OH227051   2.888   4.060   0.168 -0.0519  0.0262 -0.8288
 1831TIP3    H127052   2.816   4.113   0.202  0.5908 -0.1588  0.9482
 1831TIP3    H227053   2.854   3.971   0.165  0.4764 -0.3178  1.4369
 1832TIP3   OH227054   4.812   3.509   6.942 -0.6047 -0.4022  0.7442
 1832TIP3    H127055   4.775   3.584   6.896 -1.7714 -2.0375 -1.1356
 1832TIP3    H227056   4.799   3.528   7.035 -0.0015  2.1005  0.3848
 1833TIP3   OH227057   0.782   1.537   2.069 -0.3561  0.7027  0.4487
 1833TIP3    H127058   0.731   1.613   2.098 -1.6525  0.7460 -1.7036
 1833TIP3    H227059   0.719   1.466   2.063  0.4647 -0.0596  0.6248
 1834TIP3   OH227060   0.125   0.059   2.294  0.2658  0.3402  0.0132
 1834TIP3    H127061   0.177   0.130   2.333  3.1787 -0.8926 -1.3590
 1834TIP3    H227062   0.161  -0.021   2.332  0.4178 -0.6591 -2.1150
 1835TIP3   OH227063   6.657   3.015   6.876  0.4728  0.0732  0.1717
 1835TIP3    H127064   6.568   2.980   6.867  0.6049  0.1957 -2.5595
 1835TIP3    H227065   6.644   3.106   6.902 -0.1903 -0.0845  0.4035
 1836TIP3   OH227066   3.753   2.669   3.458  0.0607 -0.0539 -0.0706
 1836TIP3    H127067   3.827   2.730   3.454  1.0478 -1.2402 -0.6014
 1836TIP3    H227068   3.753   2.638   3.548  0.0473  0.1510  0.0004
 1837TIP3   OH227069   4.370   1.460   7.220 -0.3366 -0.3847  0.4886
 1837TIP3    H127070   4.292   1.496   7.179 -0.0675  0.0841  0.3872
 1837TIP3    H227071   4.340   1.429   7.306 -0.5502  0.1687  0.6156
 1838TIP3   OH227072   1.320   1.619   7.294 -0.4965 -0.0350  0.0206
 1838TIP3    H127073   1.346   1.577   7.212  2.5776  0.6321  0.5477
 1838TIP3    H227074   1.245   1.673   7.270 -2.4188 -3.0740 -1.3821
 1839TIP3   OH227075   4.110   1.682   2.225  0.3808  0.4379  0.5898
 1839TIP3    H127076   4.169   1.710   2.295  0.1799 -2.2325  1.9329
 1839TIP3    H227077   4.157   1.612   2.181  0.1144  1.4538 -1.4497
 1840TIP3   OH227078   1.272   1.718   2.503  0.3072 -0.2190 -0.1646
 1840TIP3    H127079   1.360   1.755   2.512 -0.3901  1.5919 -0.3762
 1840TIP3    H227080   1.222   1.759   2.573 -0.3599 -1.3566  0.0535
 1841TIP3   OH227081   4.398   1.320   1.995  0.6997 -0.3336  0.0846
 1841TIP3    H127082   4.436   1.234   2.014 -2.7377 -2.0654  0.0383
 1841TIP3    H227083   4.338   1.336   2.068  1.2888  2.1244  0.1024
 1842TIP3   OH227084   4.136   4.341   8.086  0.2624  0.1927 -0.0831
 1842TIP3    H127085   4.213   4.332   8.142  0.8453  0.9310 -0.7537
 1842TIP3    H227086   4.068   4.375   8.144  0.6459  0.2350  0.3457
 1843TIP3   OH227087   0.325   4.478   2.580 -0.3974  0.2206 -0.1145
 1843TIP3    H127088   0.404   4.424   2.576 -1.1607 -0.9123 -0.2213
 1843TIP3    H227089   0.347   4.557   2.530  0.6578 -0.0869 -0.1503
 1844TIP3   OH227090   1.353   5.574   1.191 -0.0484 -0.0989  1.0156
 1844TIP3    H127091   1.448   5.577   1.204  0.1660 -1.2944 -0.1284
 1844TIP3    H227092   1.320   5.647   1.244  1.3347 -0.6555  2.7634
 1845TIP3   OH227093   4.872   2.069   0.156  0.1153 -0.1176  0.1443
 1845TIP3    H127094   4.784   2.103   0.173 -0.3395 -0.4085 -1.4096
 1845TIP3    H227095   4.893   2.101   0.068  1.3039 -0.5802  0.2405
 1846TIP3   OH227096   3.028   5.838   1.236  0.2601  0.0657  0.2107
 1846TIP3    H127097   3.081   5.805   1.163  2.5227  1.7691  0.9807
 1846TIP3    H227098   2.944   5.861   1.195  0.2711 -2.0508 -1.1866
 1847TIP3   OH227099   6.525   6.837   0.312 -0.2919 -0.5538  0.6293
 1847TIP3    H127100   6.476   6.760   0.343 -0.6536 -0.2224  0.9015
 1847TIP3    H227101   6.588   6.802   0.249 -1.2525 -0.9314 -0.1559
 1848TIP3   OH227102   6.326   6.606   1.072  0.2165  0.0916 -0.1485
 1848TIP3    H127103   6.249   6.657   1.098  0.6035  0.9009 -0.5596
 1848TIP3    H227104   6.359   6.651   0.994  0.6514 -0.7108 -0.4341
 1849TIP3   OH227105   6.956   3.518   7.628  0.1966  0.1119 -0.7036
 1849TIP3    H127106   6.909   3.444   7.665  2.0431  0.2175  2.1322
 1849TIP3    H227107   6.897   3.592   7.639  0.3539 -0.0261  1.4217
 1850TIP3   OH227108   0.572   4.978   2.343 -0.6519 -0.1444  0.8057
 1850TIP3    H127109   0.540   5.055   2.295  1.2257  0.3688  0.2569
 1850TIP3    H227110   0.494   4.931   2.370 -1.8163  0.2699 -1.6235
 1851TIP3   OH227111   6.832   5.307   0.573 -0.1454  0.1005 -0.3571
 1851TIP3    H127112   6.853   5.245   0.643  1.5689  0.7172 -0.2789
 1851TIP3    H227113   6.893   5.379   0.585  0.1425  0.2675 -2.4334
 1852TIP3   OH227114   4.732   2.917   7.933  0.0109 -0.4812  0.3545
 1852TIP3    H127115   4.725   2.981   8.003  1.2267 -0.0195  0.0768
 1852TIP3    H227116   4.723   2.967   7.852 -0.3312 -0.8542  0.1549
 1853TIP3   OH227117   2.712   5.491   0.865  0.1456 -0.3660 -0.5670
 1853TIP3    H127118   2.695   5.417   0.807 -0.1468 -1.5456  0.9458
 1853TIP3    H227119   2.802   5.517   0.845  0.9308 -2.3465  0.0937
 1854TIP3   OH227120   3.841   3.130   1.688  0.3993  0.0288  0.2356
 1854TIP3    H127121   3.754   3.169   1.678 -0.1032 -1.1858 -0.3167
 1854TIP3    H227122   3.901   3.204   1.678 -0.5695  1.2323  2.5078
 1855TIP3   OH227123   4.748   2.211   2.702 -0.7009 -0.6524 -0.2960
 1855TIP3    H127124   4.669   2.161   2.682 -1.0282 -0.2001 -0.1430
 1855TIP3    H227125   4.726   2.301   2.678 -0.5289 -0.3797  0.5293
 1856TIP3   OH227126   3.132   4.542   1.960 -0.6284 -0.6254 -0.0452
 1856TIP3    H127127   3.051   4.498   1.985 -0.0372 -0.9675  1.3949
 1856TIP3    H227128   3.199   4.473   1.968 -0.0888 -0.1621 -0.4945
 1857TIP3   OH227129   3.920   2.576   2.631  0.1334 -0.1012  0.1033
 1857TIP3    H127130   3.940   2.602   2.541 -0.0880  1.1776  0.4053
 1857TIP3    H227131   3.824   2.578   2.635  0.1491  0.1061  0.4302
 1858TIP3   OH227132   3.519   2.553   1.178  0.7017  0.2501  0.6547
 1858TIP3    H127133   3.503   2.621   1.112 -1.9752 -0.9099  0.0030
 1858TIP3    H227134   3.440   2.553   1.232  1.1476 -1.5460  1.3751
 1859TIP3   OH227135   0.082   3.874   7.085  0.4146 -0.3108  0.4703
 1859TIP3    H127136  -0.003   3.860   7.127 -0.4535  0.4402 -0.9617
 1859TIP3    H227137   0.070   3.953   7.033  1.5528 -1.0073 -0.8921
 1860TIP3   OH227138   3.032   5.497   7.481 -0.2899  0.2167  0.0044
 1860TIP3    H127139   2.960   5.530   7.427 -1.6449 -2.2156  0.2031
 1860TIP3    H227140   3.093   5.458   7.419 -0.3328  0.1241  0.0210
 1861TIP3   OH227141   0.119   3.772   1.686  0.1639 -0.0049  0.3326
 1861TIP3    H127142   0.166   3.772   1.769 -0.0127 -1.6283  0.4562
 1861TIP3    H227143   0.186   3.792   1.621  0.6091 -0.1940  0.7237
 1862TIP3   OH227144   1.166   6.513   2.523  0.0302 -0.5757 -0.1870
 1862TIP3    H127145   1.211   6.473   2.448 -2.1408 -1.1249 -1.2792
 1862TIP3    H227146   1.183   6.607   2.514  0.3863 -0.7055 -0.9536
 1863TIP3   OH227147   0.005   4.183   0.609 -0.1887 -0.4176 -0.1736
 1863TIP3    H127148  -0.055   4.149   0.676 -1.0777  0.7563 -0.3528
 1863TIP3    H227149  -0.005   4.122   0.536  0.5081 -1.4927  0.6009
 1864TIP3   OH227150   6.080   0.902   7.466 -0.9754 -0.7939 -0.3611
 1864TIP3    H127151   6.090   0.996   7.476  0.9900 -0.8788 -1.0685
 1864TIP3    H227152   6.038   0.872   7.547  0.5506  0.3842  0.9135
 1865TIP3   OH227153   0.449   6.862   8.125  0.2789 -0.3389  0.2457
 1865TIP3    H127154   0.493   6.812   8.194  0.1253 -1.1886 -0.2520
 1865TIP3    H227155   0.445   6.801   8.051 -2.4975 -0.6392  0.5343
 1866TIP3   OH227156   2.435   3.833   1.475 -0.0951 -0.3000  0.4516
 1866TIP3    H127157   2.465   3.743   1.487 -2.0133 -0.9068  1.2201
 1866TIP3    H227158   2.478   3.883   1.544  0.1209 -0.8730  0.7372
 1867TIP3   OH227159   2.390   1.292   0.660  0.0774  0.1840  0.4857
 1867TIP3    H127160   2.454   1.347   0.706  0.4079  0.2189 -0.0100
 1867TIP3    H227161   2.442   1.242   0.598 -0.6598  2.2873 -2.0106
 1868TIP3   OH227162   5.840   3.747   8.058 -0.5886 -0.1132  0.3381
 1868TIP3    H127163   5.808   3.804   8.128 -2.8010 -2.1991  1.1813
 1868TIP3    H227164   5.914   3.794   8.020 -0.4854  1.9535  2.8462
 1869TIP3   OH227165   6.380   2.587   8.326  0.3345 -0.2822  0.4106
 1869TIP3    H127166   6.325   2.612   8.400  0.6757 -0.6214  0.7829
 1869TIP3    H227167   6.328   2.610   8.249  0.4812  1.2111  0.7324
 1870TIP3   OH227168   3.555   4.407   1.830 -0.4703 -0.0606  0.2938
 1870TIP3    H127169   3.643   4.383   1.859 -0.2854 -0.3725 -0.4907
 1870TIP3    H227170   3.556   4.391   1.736 -1.2901  0.1833  0.2368
 1871TIP3   OH227171   5.982   0.139   8.416 -1.0420 -0.3892  0.1238
 1871TIP3    H127172   5.925   0.114   8.488 -1.1347 -1.2990 -0.2555
 1871TIP3    H227173   5.924   0.149   8.341 -0.9212  0.3665  0.1237
 1872TIP3   OH227174   4.857   4.952   8.083  0.6589 -0.1544 -0.1057
 1872TIP3    H127175   4.946   4.976   8.057  0.6979  0.8173  0.8599
 1872TIP3    H227176   4.810   4.940   8.000  1.2880  0.8529 -0.6249
 1873TIP3   OH227177   3.507   1.734   1.058 -0.5536  0.4174 -0.0795
 1873TIP3    H127178   3.446   1.670   1.021 -0.6915  0.4001  0.1715
 1873TIP3    H227179   3.454   1.813   1.071 -0.3797  0.5884 -0.4010
 1874TIP3   OH227180   1.595   6.193   0.440  0.1808 -0.2922 -0.0116
 1874TIP3    H127181   1.513   6.244   0.444 -0.5698 -1.1967 -2.1614
 1874TIP3    H227182   1.582   6.134   0.365  2.3266 -1.3430  0.3873
 1875TIP3   OH227183   6.021   4.231   7.089 -0.1005 -0.0672 -0.2231
 1875TIP3    H127184   5.927   4.219   7.077 -0.0543  0.6236 -1.3310
 1875TIP3    H227185   6.034   4.222   7.184 -0.8612 -2.9727 -0.2923
 1876TIP3   OH227186   2.036   4.682   2.721  0.6643  0.3673 -0.2691
 1876TIP3    H127187   2.078   4.741   2.784  0.3044 -0.6095  0.9178
 1876TIP3    H227188   1.954   4.727   2.699 -0.2434 -0.2141  1.6381
 1877TIP3   OH227189   3.766   0.077   2.570 -0.6549  0.2050  0.2969
 1877TIP3    H127190   3.822   0.144   2.609 -1.1211  0.7127  0.1238
 1877TIP3    H227191   3.700   0.059   2.637 -0.7146  0.1494  0.2237
 1878TIP3   OH227192   0.610   1.579   8.227  0.2480  0.2967 -0.0943
 1878TIP3    H127193   0.682   1.602   8.168  1.3880  0.3491  1.2592
 1878TIP3    H227194   0.650   1.581   8.314 -1.1595 -0.7213  0.5955
 1879TIP3   OH227195   3.012   4.505   1.575  0.1485 -0.0662  0.1767
 1879TIP3    H127196   2.953   4.545   1.639 -1.0791  0.8547 -1.4427
 1879TIP3    H227197   3.041   4.424   1.616 -2.2717 -0.5691  1.0527
 1880TIP3   OH227198   4.482   4.769   8.246  0.1051  0.0278  0.0526
 1880TIP3    H127199   4.497   4.799   8.156 -0.7551 -1.8092 -0.7477
 1880TIP3    H227200   4.390   4.788   8.262  0.0491 -0.3932  0.2453
 1881TIP3   OH227201   2.456   5.213   3.036 -0.0403  0.1419  0.2823
 1881TIP3    H127202   2.508   5.177   3.108  0.4582 -1.5519 -0.8866
 1881TIP3    H227203   2.395   5.143   3.013  0.6344  0.1764 -1.7497
 1882TIP3   OH227204   5.201   1.913   8.216  0.0285  0.0277 -0.2550
 1882TIP3    H127205   5.114   1.879   8.238  0.3264 -1.9158 -1.7795
 1882TIP3    H227206   5.191   1.950   8.129  1.1480 -2.4506 -1.5629
 1883TIP3   OH227207   0.611   0.198   1.172 -0.2914 -0.3683 -0.1384
 1883TIP3    H127208   0.589   0.291   1.159 -2.4133 -0.7890  0.1130
 1883TIP3    H227209   0.553   0.151   1.113  1.8953 -1.5365 -1.4857
 1884TIP3   OH227210   5.618   6.961   0.333  0.1094  0.0603  0.6008
 1884TIP3    H127211   5.670   6.887   0.363  1.2028  1.2467  1.7339
 1884TIP3    H227212   5.678   7.011   0.276 -0.4541  0.3486  0.2492
 1885TIP3   OH227213   5.979   6.255   2.579  0.2288 -0.4964 -0.1966
 1885TIP3    H127214   6.062   6.262   2.531  1.3248 -1.1374  1.5126
 1885TIP3    H227215   5.995   6.186   2.644 -1.2493  0.1865  0.9417
 1886TIP3   OH227216   4.087   5.825   2.453 -0.1072 -0.4955 -0.8209
 1886TIP3    H127217   4.158   5.802   2.512  1.9133  1.5747 -2.2823
 1886TIP3    H227218   4.037   5.891   2.500 -0.0444 -0.7197 -0.4394
 1887TIP3   OH227219   1.768   1.606   2.510  0.4304 -0.2690  0.1719
 1887TIP3    H127220   1.860   1.603   2.484  0.3814 -1.7925  0.0792
 1887TIP3    H227221   1.744   1.514   2.524 -1.0220  0.1186  0.3958
 1888TIP3   OH227222   0.213   6.043   2.562  0.3063  0.1571  0.6625
 1888TIP3    H127223   0.192   5.955   2.594 -0.2942  0.5123  1.2737
 1888TIP3    H227224   0.195   6.039   2.468  1.7578 -0.7984  0.3940
 1889TIP3   OH227225   1.337   3.857   6.982  0.5280 -0.2279 -0.1563
 1889TIP3    H127226   1.359   3.764   6.993 -1.4853 -0.9839 -1.8969
 1889TIP3    H227227   1.359   3.876   6.891 -1.4439  0.2624 -0.5652
 1890TIP3   OH227228   2.983   2.991   8.134  0.1557 -0.0078  0.1647
 1890TIP3    H127229   3.001   3.085   8.132 -0.2746  0.1130  1.3727
 1890TIP3    H227230   2.937   2.974   8.052  1.5327  0.5519 -0.7692
 1891TIP3   OH227231   2.571   5.087   0.939  0.2133 -0.3195  0.2829
 1891TIP3    H127232   2.587   5.001   0.978  1.0311  0.3562  1.5158
 1891TIP3    H227233   2.567   5.071   0.845 -1.7797 -2.0179  0.5924
 1892TIP3   OH227234   6.958   0.274   1.805 -0.2953 -0.2365  1.2688
 1892TIP3    H127235   6.938   0.353   1.755 -1.6507 -1.4639 -0.2839
 1892TIP3    H227236   6.913   0.286   1.889 -0.3934  0.6847  1.0923
 1893TIP3   OH227237   4.534   2.987   1.260  0.2429 -0.1586 -0.1030
 1893TIP3    H127238   4.464   3.052   1.256 -0.8342 -1.2876 -0.1319
 1893TIP3    H227239   4.602   3.021   1.201  0.2303  1.4988  0.7691
 1894TIP3   OH227240   1.341   6.536   1.865 -0.0587  0.3092 -0.8501
 1894TIP3    H127241   1.359   6.630   1.870 -0.4151  0.3225  0.9824
 1894TIP3    H227242   1.257   6.530   1.820 -1.3019  1.1095  1.2056
 1895TIP3   OH227243   6.369   1.329   2.027 -0.0041  0.2843  0.3256
 1895TIP3    H127244   6.437   1.345   2.093 -0.6032  0.9714  0.8036
 1895TIP3    H227245   6.313   1.407   2.032  0.0081  0.4120 -1.0995
 1896TIP3   OH227246   6.369   3.621   3.034  0.3041 -0.1850 -0.4291
 1896TIP3    H127247   6.456   3.600   3.002  1.4672 -0.4343  2.5747
 1896TIP3    H227248   6.325   3.536   3.042 -0.1189 -0.0893 -1.6309
 1897TIP3   OH227249   1.930   0.032   1.341 -0.1993  0.8412 -0.1171
 1897TIP3    H127250   1.896   0.024   1.430 -1.6080  1.3224 -0.5781
 1897TIP3    H227251   1.852   0.039   1.286  0.6214 -0.0887 -1.4739
 1898TIP3   OH227252   3.409   3.941   0.042 -0.3006  0.2598  0.1170
 1898TIP3    H127253   3.473   3.970   0.107  0.7643  0.0943 -0.8045
 1898TIP3    H227254   3.398   4.016  -0.016 -0.7564  0.1998  0.1216
 1899TIP3   OH227255   5.501   4.277   0.230 -0.1366  0.0353 -0.1149
 1899TIP3    H127256   5.551   4.328   0.166  1.3697 -2.0107 -0.6813
 1899TIP3    H227257   5.488   4.337   0.303 -1.5798  2.3406 -2.0898
 1900TIP3   OH227258   4.855   6.257   1.292  0.6385 -0.1073 -0.6866
 1900TIP3    H127259   4.825   6.205   1.367 -1.1487 -0.6829 -1.7483
 1900TIP3    H227260   4.852   6.196   1.218 -0.1642  1.1272 -1.7025
 1901TIP3   OH227261   4.549   0.211   1.070 -0.1319 -0.1268 -0.5442
 1901TIP3    H127262   4.523   0.290   1.118  0.8820 -0.6809  0.9766
 1901TIP3    H227263   4.493   0.142   1.105 -0.0530 -0.3498 -0.8554
 1902TIP3   OH227264   3.140   4.445   8.221  0.0011 -0.2183  0.2043
 1902TIP3    H127265   3.229   4.432   8.254  0.1395 -2.4947 -0.8876
 1902TIP3    H227266   3.151   4.483   8.134 -0.2135  1.4528  0.8670
 1903TIP3   OH227267   0.900   1.131   0.127 -0.5465 -0.2517 -0.0963
 1903TIP3    H127268   0.879   1.223   0.111  0.4122  0.5155  2.4366
 1903TIP3    H227269   0.815   1.087   0.132 -1.1690  1.0049  1.0757
 1904TIP3   OH227270   6.901   1.230   0.949 -0.4022  0.1992  0.2866
 1904TIP3    H127271   6.840   1.255   1.018  1.3357 -0.1219  2.0236
 1904TIP3    H227272   6.982   1.275   0.971  0.0295  0.6107 -1.9460
 1905TIP3   OH227273   1.220   6.989   7.242 -0.0436  0.0215  0.3931
 1905TIP3    H127274   1.308   6.958   7.262  0.4013  0.2506 -1.0845
 1905TIP3    H227275   1.234   7.074   7.200 -0.9800  0.1349  0.2940
 1906TIP3   OH227276   3.371   4.087   0.395 -0.6263  0.2029  0.3908
 1906TIP3    H127277   3.311   4.157   0.368 -0.3028  0.1024 -0.6294
 1906TIP3    H227278   3.344   4.066   0.484 -0.0458  2.3475  1.1340
 1907TIP3   OH227279   1.945   3.409   7.649  0.2374 -0.1503 -0.2442
 1907TIP3    H127280   1.884   3.459   7.594  1.3107  1.0186 -0.4423
 1907TIP3    H227281   1.955   3.325   7.604  0.7534  0.6224 -1.6358
 1908TIP3   OH227282   0.531   6.262   0.852 -0.1774  0.4209 -0.1236
 1908TIP3    H127283   0.576   6.295   0.930 -2.7071 -0.0301  1.6810
 1908TIP3    H227284   0.586   6.192   0.819  1.2006  0.9428  0.9876
 1909TIP3   OH227285   3.458   2.791   3.296  0.1829 -0.2524  0.0508
 1909TIP3    H127286   3.437   2.716   3.352  0.2581 -0.4929 -0.2386
 1909TIP3    H227287   3.458   2.755   3.207 -0.4371  0.2350 -0.1512
 1910TIP3   OH227288   4.068   1.507   8.106  0.1668  0.5130  0.1152
 1910TIP3    H127289   4.144   1.558   8.080  1.6347 -0.8129  1.5664
 1910TIP3    H227290   4.017   1.565   8.163  0.2179  1.3185 -0.6498
 1911TIP3   OH227291   6.245   4.782   7.076 -0.6122  0.0338 -0.3161
 1911TIP3    H127292   6.200   4.712   7.029 -1.0326 -0.4977  0.8363
 1911TIP3    H227293   6.300   4.737   7.140 -0.7239  0.7307  0.2942
 1912TIP3   OH227294   2.328   3.089   1.171 -0.4806  0.1996 -0.0469
 1912TIP3    H127295   2.393   3.156   1.191  0.4759 -0.4609 -0.8422
 1912TIP3    H227296   2.259   3.135   1.124  0.5025  0.5185 -1.2280
 1913TIP3   OH227297   6.184   5.452   1.948  0.2836 -0.6627  0.2873
 1913TIP3    H127298   6.142   5.381   1.996  0.7205 -1.1580 -0.0558
 1913TIP3    H227299   6.241   5.495   2.013 -0.4697 -0.1974  0.6665
 1914TIP3   OH227300   0.696   1.312   8.297  0.4805  0.0256  0.3328
 1914TIP3    H127301   0.703   1.401   8.330 -0.2525  0.3126 -0.2730
 1914TIP3    H227302   0.762   1.307   8.227  0.5616  0.0745  0.4053
 1915TIP3   OH227303   2.971   2.750   7.777  0.5086 -0.1839  0.4521
 1915TIP3    H127304   2.904   2.817   7.768  0.3451 -0.1098  1.9038
 1915TIP3    H227305   3.017   2.749   7.693 -0.7893  0.3154 -0.2768
 1916TIP3   OH227306   1.019   5.561   1.041  0.0529  0.5642  0.6773
 1916TIP3    H127307   0.956   5.493   1.015 -0.3358  1.3855 -0.6095
 1916TIP3    H227308   1.049   5.533   1.128 -1.6164 -0.1741  1.0637
 1917TIP3   OH227309   4.492   2.086   2.569 -0.3996  0.2678 -0.3209
 1917TIP3    H127310   4.550   2.031   2.517 -0.2288  1.4830 -1.4773
 1917TIP3    H227311   4.480   2.038   2.651  2.0343 -0.1319 -0.1318
 1918TIP3   OH227312   3.789   3.810   7.550  0.2068 -0.3045 -0.0808
 1918TIP3    H127313   3.698   3.841   7.551  0.8596  1.7488 -0.2442
 1918TIP3    H227314   3.784   3.720   7.584 -1.8633 -0.2214 -0.0457
 1919TIP3   OH227315   5.499   6.861   1.594  0.5227 -0.6886  0.4590
 1919TIP3    H127316   5.540   6.929   1.648 -0.8529 -0.9179  1.8741
 1919TIP3    H227317   5.540   6.780   1.624  1.0267 -0.6556 -0.1179
 1920TIP3   OH227318   5.140   0.956   2.464  0.2153  0.8467 -0.0998
 1920TIP3    H127319   5.046   0.969   2.475 -0.3125 -0.8475 -2.0906
 1920TIP3    H227320   5.167   1.021   2.400 -0.4496 -1.0654 -2.4669
 1921TIP3   OH227321   0.766   0.259   3.232 -0.5760 -0.4722 -0.2587
 1921TIP3    H127322   0.806   0.199   3.295  0.3827  1.6227  1.2195
 1921TIP3    H227323   0.816   0.340   3.240 -2.5528  0.9392 -1.3139
 1922TIP3   OH227324   3.908   6.552   1.967  0.0706 -0.1173  0.5154
 1922TIP3    H127325   3.966   6.627   1.953  1.6573 -1.5568 -1.3882
 1922TIP3    H227326   3.827   6.576   1.923  0.4670  0.6116  0.1585
 1923TIP3   OH227327   4.347   3.970   8.403 -0.2979 -0.6843  0.4300
 1923TIP3    H127328   4.261   4.004   8.379 -0.5233 -0.7699  1.0904
 1923TIP3    H227329   4.368   4.016   8.484  0.3712 -0.5147  0.1662
 1924TIP3   OH227330   0.244   1.177   2.120  0.4566  0.3155 -0.1523
 1924TIP3    H127331   0.281   1.253   2.163  2.2964 -0.5989 -0.0248
 1924TIP3    H227332   0.193   1.213   2.047  0.7183  1.6694  0.3053
 1925TIP3   OH227333   4.806   6.927   1.343 -0.5833 -0.4076 -0.0674
 1925TIP3    H127334   4.758   6.975   1.411 -0.3103 -0.3829  0.1121
 1925TIP3    H227335   4.898   6.946   1.362 -0.4083 -1.8102  0.6274
 1926TIP3   OH227336   3.012   0.583   0.303 -0.3052 -0.7096  0.2197
 1926TIP3    H127337   2.995   0.676   0.316  0.7317 -0.5354  0.3871
 1926TIP3    H227338   2.936   0.552   0.254  0.0519  0.5480 -1.2080
 1927TIP3   OH227339   4.989   3.427   2.592  0.2676  0.0066  0.3151
 1927TIP3    H127340   5.037   3.419   2.674  1.2284  2.2210  0.0200
 1927TIP3    H227341   5.057   3.427   2.524 -0.3403  0.4874 -0.3097
 1928TIP3   OH227342   4.924   4.644   8.092 -0.1664  0.0527 -0.6192
 1928TIP3    H127343   4.838   4.640   8.051 -0.9053  2.9198  0.4326
 1928TIP3    H227344   4.984   4.610   8.026 -1.7672  0.7936 -2.5334
 1929TIP3   OH227345   4.540   6.551   7.581 -0.2932  0.3044  0.1326
 1929TIP3    H127346   4.462   6.562   7.635  0.2165 -1.3853  1.3063
 1929TIP3    H227347   4.516   6.588   7.496 -2.4011 -0.2699  0.4184
 1930TIP3   OH227348   2.148   1.109   8.223  0.6701  0.3124 -0.4461
 1930TIP3    H127349   2.106   1.025   8.203  0.4408  0.8957 -2.7695
 1930TIP3    H227350   2.080   1.160   8.267  0.9139 -0.7865  1.2876
 1931TIP3   OH227351   1.588   6.338   1.822 -0.1972  0.3471  0.1561
 1931TIP3    H127352   1.526   6.406   1.794 -1.3255 -0.1200  1.4312
 1931TIP3    H227353   1.670   6.362   1.779 -0.6078  2.4257  0.4047
 1932TIP3   OH227354   2.151   1.931   1.181 -0.0343  0.0873  0.6439
 1932TIP3    H127355   2.070   1.922   1.129  0.5205 -0.8096 -0.1166
 1932TIP3    H227356   2.219   1.947   1.115  0.4288  0.7284  1.2707
 1933TIP3   OH227357   2.571   4.837   1.057  0.0061 -0.1066  0.2824
 1933TIP3    H127358   2.578   4.839   1.153  2.5096  3.0811  0.1851
 1933TIP3    H227359   2.622   4.759   1.032  1.2065  0.2406  1.5006
 1934TIP3   OH227360   2.721   4.785   7.790  0.1144 -0.0327  0.7046
 1934TIP3    H127361   2.660   4.829   7.849  1.4819  1.2114  1.2538
 1934TIP3    H227362   2.696   4.815   7.703  0.8695  1.7557  1.0485
 1935TIP3   OH227363   2.321   2.616   1.473  0.2994 -0.0879  0.4763
 1935TIP3    H127364   2.244   2.674   1.467 -0.0251 -0.4831  0.8146
 1935TIP3    H227365   2.284   2.528   1.480  0.7686 -0.2069  1.6094
 1936TIP3   OH227366   2.567   0.001   8.147  0.2198 -0.5223 -0.5448
 1936TIP3    H127367   2.554   0.008   8.241  0.6477 -2.5173 -0.2905
 1936TIP3    H227368   2.568   0.092   8.116 -2.3178  0.1266  1.0057
 1937TIP3   OH227369   4.296   1.880   0.773 -0.2568 -0.3395 -0.5679
 1937TIP3    H127370   4.210   1.912   0.801 -0.5615 -0.6955 -1.0710
 1937TIP3    H227371   4.294   1.786   0.793  1.0929  0.0847  2.0782
 1938TIP3   OH227372   2.339   6.513   2.993 -0.5426  0.2067  0.3533
 1938TIP3    H127373   2.362   6.431   3.036  0.3114  0.5340  0.5477
 1938TIP3    H227374   2.404   6.576   3.026  0.5851  0.3213 -1.8930
 1939TIP3   OH227375   5.345   0.615   2.082  0.2748  0.2956 -0.4788
 1939TIP3    H127376   5.339   0.537   2.138 -1.4981  1.4517  1.0737
 1939TIP3    H227377   5.401   0.675   2.131  0.5108  0.5196 -1.0194
 1940TIP3   OH227378   0.618   4.173   8.341  0.3354 -0.8203 -0.7857
 1940TIP3    H127379   0.619   4.236   8.413  2.1201 -0.8402 -0.7495
 1940TIP3    H227380   0.638   4.226   8.263  0.4862 -1.1268 -0.9552
 1941TIP3   OH227381   3.138   0.885   0.928  0.3706  0.6133 -0.1539
 1941TIP3    H127382   3.233   0.886   0.945  0.1446  1.2457  1.2391
 1941TIP3    H227383   3.129   0.837   0.846  1.6865 -1.7938  1.0018
 1942TIP3   OH227384   4.998   5.189   1.827  0.6794  0.1322 -0.3639
 1942TIP3    H127385   5.027   5.277   1.805  0.6899  1.0457  2.7654
 1942TIP3    H227386   5.075   5.146   1.865  0.1718 -0.4878  0.0065
 1943TIP3   OH227387   4.813   3.914   7.942  0.3741 -0.1742  0.0388
 1943TIP3    H127388   4.871   3.932   7.868  0.5242 -2.0708 -0.3513
 1943TIP3    H227389   4.744   3.980   7.934  0.3247 -0.3803 -1.8669
 1944TIP3   OH227390   1.724   1.683   2.774  0.5403 -0.4044  0.7618
 1944TIP3    H127391   1.634   1.651   2.785  0.9678 -1.7177  0.6016
 1944TIP3    H227392   1.747   1.658   2.685  0.8874  0.4470  0.5999
 1945TIP3   OH227393   2.969   4.453   3.037  0.1068  0.4259  0.1283
 1945TIP3    H127394   2.891   4.403   3.013 -0.2081  1.1761 -0.4418
 1945TIP3    H227395   2.938   4.543   3.046  0.7820  0.6223  0.5663
 1946TIP3   OH227396   4.601   1.774   1.881  0.4528 -0.5184  0.1748
 1946TIP3    H127397   4.609   1.717   1.805  1.5994 -2.6550  1.7718
 1946TIP3    H227398   4.520   1.746   1.924 -0.8963  1.5625 -0.8496
 1947TIP3   OH227399   5.944   3.143   0.257 -0.1423  0.3652 -0.1963
 1947TIP3    H127400   6.017   3.196   0.286 -0.5321  0.5297  0.4979
 1947TIP3    H227401   5.867   3.183   0.298 -0.4589 -0.6447  0.2107
 1948TIP3   OH227402   1.507   3.852   1.084 -0.1779 -0.5344 -0.2711
 1948TIP3    H127403   1.520   3.815   1.171  1.2176 -2.4917 -1.2171
 1948TIP3    H227404   1.417   3.828   1.061  0.2492 -2.2574 -0.3002
 1949TIP3   OH227405   0.396   3.385   0.650 -0.1297  0.1858  0.0583
 1949TIP3    H127406   0.459   3.397   0.721 -0.2632  0.7201  0.0932
 1949TIP3    H227407   0.319   3.346   0.692  0.3544 -0.9340 -0.0738
 1950TIP3   OH227408   0.343   4.750   2.577 -0.1038 -0.2255 -0.5745
 1950TIP3    H127409   0.252   4.740   2.602 -0.8085  2.5085 -1.6887
 1950TIP3    H227410   0.375   4.825   2.627  1.0172 -0.0911 -1.4293
 1951TIP3   OH227411   2.219   0.133   1.880  0.1085  0.1089  0.0169
 1951TIP3    H127412   2.175   0.153   1.797  1.3301  0.9841 -0.4554
 1951TIP3    H227413   2.230   0.219   1.921  0.2499 -0.2367  0.7031
 1952TIP3   OH227414   6.854   2.309   7.930 -0.1471  0.0304  0.5866
 1952TIP3    H127415   6.928   2.249   7.921  0.9985  1.4951 -0.1398
 1952TIP3    H227416   6.792   2.281   7.862  0.4999 -0.1500  0.0682
 1953TIP3   OH227417   2.976   5.600   0.828  0.0066 -0.0417 -0.1526
 1953TIP3    H127418   2.975   5.610   0.732  0.8197 -0.6814 -0.2411
 1953TIP3    H227419   3.068   5.582   0.848 -0.1238  0.2897  0.7787
 1954TIP3   OH227420   3.231   5.971   1.814 -0.1486  0.1973  0.3961
 1954TIP3    H127421   3.240   5.902   1.749  1.7438  0.1965  0.6040
 1954TIP3    H227422   3.189   6.043   1.767  0.9452  0.0982 -0.7741
 1955TIP3   OH227423   4.776   3.546   2.491  0.9814 -0.6925  0.0002
 1955TIP3    H127424   4.848   3.510   2.542  1.4647  0.9256  0.5326
 1955TIP3    H227425   4.817   3.574   2.409  0.1763 -3.4734 -1.4777
 1956TIP3   OH227426   3.871   4.037   7.700  0.0081 -0.4292  0.2586
 1956TIP3    H127427   3.792   3.987   7.722  0.3780 -0.1680  2.3932
 1956TIP3    H227428   3.901   3.999   7.617 -0.5542 -2.7654  1.0413
 1957TIP3   OH227429   1.219   2.771   2.318 -0.6206  0.8429 -0.4572
 1957TIP3    H127430   1.297   2.763   2.373 -0.8037  0.4740 -0.2477
 1957TIP3    H227431   1.251   2.809   2.236  0.0463 -0.7074 -0.9519
 1958TIP3   OH227432   1.843   3.385   2.225 -0.1879  0.0806 -0.3751
 1958TIP3    H127433   1.808   3.358   2.140 -0.3026  0.2889 -0.3950
 1958TIP3    H227434   1.924   3.432   2.204 -0.8091  1.1473 -0.4557
 1959TIP3   OH227435   1.555   2.998   7.788  0.2164 -0.0153  0.3603
 1959TIP3    H127436   1.545   3.049   7.868  1.2901  0.8632 -0.0369
 1959TIP3    H227437   1.513   3.051   7.720  0.4046 -0.1592  0.1296
 1960TIP3   OH227438   6.027   5.846   2.966  0.0519 -0.1579  0.4974
 1960TIP3    H127439   6.063   5.840   3.055 -1.0670 -0.1504  0.9731
 1960TIP3    H227440   5.993   5.758   2.948  0.8038 -0.3200 -0.1693
 1961TIP3   OH227441   0.418   4.966   2.697  0.4088 -0.3175  0.4107
 1961TIP3    H127442   0.473   4.964   2.776 -2.0016 -0.2481  2.2052
 1961TIP3    H227443   0.451   5.041   2.647  1.2875  0.3559  1.9210
 1962TIP3   OH227444   0.026   0.575   1.480  0.0677 -0.4445  0.1280
 1962TIP3    H127445   0.026   0.571   1.575 -1.2368 -0.0448  0.1667
 1962TIP3    H227446   0.036   0.668   1.459  0.0838 -0.5017 -0.1273
 1963TIP3   OH227447   5.615   1.831   1.084  0.3545 -0.0885 -0.4086
 1963TIP3    H127448   5.659   1.906   1.124 -0.4147  0.4475 -0.5585
 1963TIP3    H227449   5.682   1.792   1.028  0.9275  0.1570  0.0950
 1964TIP3   OH227450   0.857   4.969   8.319  0.2808  0.3622 -0.5372
 1964TIP3    H127451   0.783   4.991   8.262 -0.1930  0.8707  0.2601
 1964TIP3    H227452   0.902   5.053   8.333  1.8008 -0.1221 -2.0624
 1965TIP3   OH227453   6.209   0.631   0.831 -0.3253  0.0719 -0.8015
 1965TIP3    H127454   6.218   0.541   0.799 -1.2411 -0.3542  0.0749
 1965TIP3    H227455   6.119   0.655   0.810  0.4933  1.5989 -2.9364
 1966TIP3   OH227456   3.811   3.268   7.345  0.4264 -0.2875  0.2790
 1966TIP3    H127457   3.810   3.179   7.380  2.2922 -0.0899  0.9514
 1966TIP3    H227458   3.722   3.282   7.313 -0.2226 -1.9715  1.2062
 1967TIP3   OH227459   3.595   3.127   1.026 -0.1787  0.3152 -0.3481
 1967TIP3    H127460   3.684   3.158   1.008  0.7804 -0.8440  1.9744
 1967TIP3    H227461   3.563   3.095   0.942  2.1632 -0.5448 -0.9836
 1968TIP3   OH227462   2.962   3.008   2.267  0.5099  0.0536 -0.0722
 1968TIP3    H127463   3.040   2.969   2.307  1.1193 -0.0702 -1.3059
 1968TIP3    H227464   2.972   2.989   2.173 -1.5169 -0.8538 -0.1636
 1969TIP3   OH227465   5.617   5.798   0.863 -0.6141 -0.2663 -0.1179
 1969TIP3    H127466   5.698   5.754   0.886 -1.5092 -2.3032 -0.6121
 1969TIP3    H227467   5.603   5.776   0.771 -0.7117  1.7726 -0.6287
 1970TIP3   OH227468   2.745   4.390   1.227  0.0587 -0.1513  0.0526
 1970TIP3    H127469   2.717   4.480   1.235 -0.5152 -0.3759  0.5985
 1970TIP3    H227470   2.679   4.339   1.273 -0.6426 -1.0311 -1.8155
 1971TIP3   OH227471   2.326   0.027   0.731  0.5852 -0.6082 -0.2220
 1971TIP3    H127472   2.331  -0.025   0.651 -0.1389  0.4038 -0.9519
 1971TIP3    H227473   2.232   0.031   0.752  0.3123  2.1784 -1.4494
 1972TIP3   OH227474   3.116   0.557   1.691 -0.3651 -0.3039 -0.4789
 1972TIP3    H127475   3.113   0.559   1.596 -2.0177 -1.6008 -0.4978
 1972TIP3    H227476   3.171   0.481   1.712  0.8324  0.5599 -0.3492
 1973TIP3   OH227477   1.014   0.792   1.001 -0.2335  0.0042 -0.7962
 1973TIP3    H127478   1.069   0.794   0.923  0.3653 -0.0110 -0.3815
 1973TIP3    H227479   1.011   0.883   1.030  1.3950 -0.2953  0.4230
 1974TIP3   OH227480   0.831   3.579   0.282  0.4852 -0.0795 -0.2806
 1974TIP3    H127481   0.889   3.539   0.217  0.6632  0.4603 -0.4647
 1974TIP3    H227482   0.828   3.672   0.257 -0.3705 -0.0753 -0.2059
 1975TIP3   OH227483   5.982   1.442   1.494  0.0262 -0.3637 -0.0316
 1975TIP3    H127484   5.986   1.355   1.454 -0.9277 -0.7442  0.6401
 1975TIP3    H227485   5.888   1.461   1.497  0.1553  0.1511  0.9430
 1976TIP3   OH227486   6.404   1.850   1.188  0.7432  0.6895 -0.3778
 1976TIP3    H127487   6.365   1.788   1.126 -1.0719  1.1504  0.2428
 1976TIP3    H227488   6.390   1.936   1.148  0.4105  0.9177  0.2235
 1977TIP3   OH227489   6.649   4.885   8.072 -0.7652  0.0772  0.2499
 1977TIP3    H127490   6.648   4.816   8.006 -0.8326 -0.8321  1.1879
 1977TIP3    H227491   6.624   4.964   8.024 -0.6482 -0.5341 -0.8447
 1978TIP3   OH227492   4.480   5.199   2.020 -0.2645 -0.3724  0.3698
 1978TIP3    H127493   4.526   5.157   2.093  1.3043  1.2681  0.3994
 1978TIP3    H227494   4.525   5.167   1.942 -0.4742 -0.4052  0.2619
 1979TIP3   OH227495   1.854   0.677   8.164 -0.8980  0.4435  0.0173
 1979TIP3    H127496   1.761   0.673   8.186 -0.9044 -2.4508 -0.2048
 1979TIP3    H227497   1.855   0.687   8.069 -0.9256  1.7363  0.1307
 1980TIP3   OH227498   1.168   2.761   1.967  0.5481  0.4114 -0.2383
 1980TIP3    H127499   1.092   2.746   2.022  0.1433  2.2648 -0.2397
 1980TIP3    H227500   1.172   2.683   1.911  0.1246 -0.8341  1.3831
 1981TIP3   OH227501   2.466   6.799   0.982  0.2579  0.0278  0.5247
 1981TIP3    H127502   2.427   6.850   0.911 -0.8050 -0.6114  0.6247
 1981TIP3    H227503   2.469   6.859   1.056  0.7451  0.4952  0.1362
 1982TIP3   OH227504   0.245   1.574   1.656 -0.7732 -0.1404 -0.1138
 1982TIP3    H127505   0.159   1.616   1.651 -1.4244 -1.2690  0.9617
 1982TIP3    H227506   0.271   1.583   1.747 -0.2726 -0.7942 -0.1844
 1983TIP3   OH227507   5.919   6.426   7.453  0.2305 -0.3154  0.0050
 1983TIP3    H127508   5.918   6.363   7.382  1.1660 -0.3226 -0.0151
 1983TIP3    H227509   5.837   6.410   7.501  0.5106 -1.6310  0.0804
 1984TIP3   OH227510   6.407   5.016   1.261  0.4141 -0.0128 -0.0986
 1984TIP3    H127511   6.367   5.071   1.328  0.2112 -0.1222 -0.1291
 1984TIP3    H227512   6.418   4.931   1.303 -0.8749 -0.4460 -0.5871
 1985TIP3   OH227513   5.873   3.261   7.839  0.2532 -0.0735  0.3409
 1985TIP3    H127514   5.918   3.342   7.864 -0.2652  0.2015  0.3983
 1985TIP3    H227515   5.944   3.199   7.821  0.6940  0.7217 -0.8318
 1986TIP3   OH227516   4.326   6.037   7.629  0.1759  0.4805  0.6662
 1986TIP3    H127517   4.398   6.087   7.589 -0.7355  1.1657 -0.1579
 1986TIP3    H227518   4.294   6.093   7.699  1.6861 -0.6662  2.3537
 1987TIP3   OH227519   2.107   4.306   8.022  0.3633  0.1848 -0.0415
 1987TIP3    H127520   2.110   4.246   7.947  2.1051  0.3471 -0.1360
 1987TIP3    H227521   2.025   4.354   8.010 -0.8384 -1.7745 -0.2337
 1988TIP3   OH227522   2.322   5.873   2.100  0.4342 -0.3636  0.0967
 1988TIP3    H127523   2.347   5.881   2.192 -1.3947  0.5222  0.5547
 1988TIP3    H227524   2.328   5.779   2.081  1.9177 -0.4229  0.7720
 1989TIP3   OH227525   2.751   4.222   8.234  0.6338 -0.2704 -0.1205
 1989TIP3    H127526   2.813   4.154   8.210  0.3642 -0.8164  0.6707
 1989TIP3    H227527   2.803   4.286   8.284  0.9425  0.2590 -1.0922
 1990TIP3   OH227528   3.667   0.607   1.619  0.0975  0.3070  0.8897
 1990TIP3    H127529   3.605   0.662   1.573  1.0395 -0.8056 -1.9415
 1990TIP3    H227530   3.647   0.518   1.589  2.0301 -0.2514  1.1146
 1991TIP3   OH227531   1.842   5.843   0.579 -0.2090 -0.2339 -0.5245
 1991TIP3    H127532   1.922   5.850   0.631 -0.0470 -2.2599 -0.3973
 1991TIP3    H227533   1.826   5.931   0.546  1.9318  0.2653 -0.3375
 1992TIP3   OH227534   6.629   2.169   1.546 -0.2406 -0.6011 -0.1720
 1992TIP3    H127535   6.646   2.116   1.468 -1.5418 -1.2960 -0.0004
 1992TIP3    H227536   6.534   2.168   1.556 -0.0917 -0.6480  1.5214
 1993TIP3   OH227537   2.155   3.037   1.378 -0.1961  0.3332 -0.0225
 1993TIP3    H127538   2.246   3.050   1.352 -0.4773 -0.0423 -1.2465
 1993TIP3    H227539   2.107   3.027   1.296 -1.5649  1.9056  0.5224
 1994TIP3   OH227540   2.013   6.710   3.017  0.0591 -0.4550 -0.2116
 1994TIP3    H127541   2.078   6.738   3.082  0.4785 -0.7619 -0.4944
 1994TIP3    H227542   1.934   6.760   3.039  0.5576  0.3528 -0.2223
 1995TIP3   OH227543   3.550   2.676   0.767  0.0922  0.2793  0.3080
 1995TIP3    H127544   3.606   2.717   0.702  0.6138 -0.0586  0.5319
 1995TIP3    H227545   3.611   2.638   0.831 -0.3273 -1.3816 -0.2146
 1996TIP3   OH227546   2.164   3.123   1.771  0.0107 -0.5285  0.0896
 1996TIP3    H127547   2.225   3.176   1.719 -0.1807 -0.8507 -0.4670
 1996TIP3    H227548   2.093   3.184   1.793 -0.8148 -0.8370 -1.5808
 1997TIP3   OH227549   3.778   0.736   3.084  0.3439 -0.0808  0.3105
 1997TIP3    H127550   3.796   0.751   2.992 -0.9207 -2.0335 -0.3077
 1997TIP3    H227551   3.863   0.716   3.123  0.6896 -0.7990 -0.7732
 1998TIP3   OH227552   0.767   1.265   0.521  0.0419  0.0437 -0.4531
 1998TIP3    H127553   0.852   1.256   0.477 -0.1596  3.3167 -1.7665
 1998TIP3    H227554   0.703   1.263   0.450 -0.8394 -0.2145  0.3217
 1999TIP3   OH227555   0.692   2.107   1.544 -0.0808 -0.2017  0.0692
 1999TIP3    H127556   0.667   2.200   1.553 -0.2048 -0.1832 -0.4303
 1999TIP3    H227557   0.618   2.059   1.582 -0.0161 -0.0958  0.3296
 2000TIP3   OH227558   1.066   2.506   7.139  0.5268 -0.1111  0.0066
 2000TIP3    H127559   0.979   2.526   7.174  1.4118  1.5272  1.4856
 2000TIP3    H227560   1.091   2.586   7.093  0.7287 -1.0694 -1.6133
 2001TIP3   OH227561   5.601   4.888   0.596  0.5434 -0.0706 -0.3811
 2001TIP3    H127562   5.632   4.811   0.549  1.5862  0.7960 -1.1445
 2001TIP3    H227563   5.632   4.875   0.686 -1.0821 -1.5177  0.0263
 2002TIP3   OH227564   0.291   2.745   7.763 -0.3355  0.0173  0.4312
 2002TIP3    H127565   0.246   2.691   7.699  1.3369 -1.6146  0.5243
 2002TIP3    H227566   0.229   2.813   7.786 -1.5476 -0.2807 -1.7271
 2003TIP3   OH227567   3.867   0.144   1.976  0.5631 -0.5589  0.3294
 2003TIP3    H127568   3.924   0.163   2.051  1.7308  0.2157 -0.7266
 2003TIP3    H227569   3.920   0.088   1.920  0.1220 -0.1852 -0.4670
 2004TIP3   OH227570   2.040   0.929   2.029  0.5593  0.5841 -0.4089
 2004TIP3    H127571   2.065   0.997   1.966  0.8217  1.6733  0.8182
 2004TIP3    H227572   1.952   0.954   2.058  1.1232  1.1032  0.9305
 2005TIP3   OH227573   3.863   3.531   0.343 -0.4085 -0.0544 -0.0919
 2005TIP3    H127574   3.788   3.482   0.309 -0.9612 -0.6471  1.8429
 2005TIP3    H227575   3.825   3.607   0.386  0.1002 -0.2395  0.7023
 2006TIP3   OH227576   0.204   1.944   8.129 -0.3122  0.3381 -0.1873
 2006TIP3    H127577   0.289   1.948   8.086 -1.1376  1.4841 -1.7873
 2006TIP3    H227578   0.162   1.865   8.094 -0.4120  0.4816 -0.3939
 2007TIP3   OH227579   0.343   4.157   7.163 -0.1343 -0.2556  0.1958
 2007TIP3    H127580   0.314   4.219   7.096  0.3115 -0.6765 -0.4004
 2007TIP3    H227581   0.379   4.083   7.114  1.2675 -0.0748  0.8702
 2008TIP3   OH227582   2.595   3.937   1.100  0.5842 -0.3674  0.4224
 2008TIP3    H127583   2.663   3.963   1.162  0.5412 -1.9380  1.1698
 2008TIP3    H227584   2.623   3.851   1.069  0.6866  0.4495 -1.9012
 2009TIP3   OH227585   5.713   1.303   1.005  0.6015 -0.1663  0.3011
 2009TIP3    H127586   5.729   1.366   1.075  0.9294  2.0928 -1.6425
 2009TIP3    H227587   5.800   1.277   0.975  0.4737 -1.8814  1.2912
 2010TIP3   OH227588   6.267   4.951   7.456 -1.0832  0.5381  0.1655
 2010TIP3    H127589   6.274   4.986   7.367 -3.0052 -0.3135 -0.3761
 2010TIP3    H227590   6.327   4.876   7.457  0.7929  1.9635  0.4055
 2011TIP3   OH227591   1.072   6.909   8.125  0.1811 -0.2669  0.0167
 2011TIP3    H127592   1.027   6.836   8.168  1.0705 -1.0551 -0.3680
 2011TIP3    H227593   1.114   6.956   8.196 -0.2571 -0.2168  0.2510
 2012TIP3   OH227594   4.864   0.950   2.812  0.2637 -0.0163 -0.5585
 2012TIP3    H127595   4.783   0.936   2.862 -0.2978 -1.4403 -1.7817
 2012TIP3    H227596   4.931   0.965   2.878 -0.3801 -2.1740  0.6867
 2013TIP3   OH227597   4.551   3.350   0.525 -0.4758  0.5843  1.0594
 2013TIP3    H127598   4.468   3.309   0.549 -0.9199  0.6435 -0.2746
 2013TIP3    H227599   4.525   3.428   0.475  0.3444 -0.4214 -1.0323
 2014TIP3   OH227600   1.653   6.324   2.743  0.1222 -1.0228  0.1795
 2014TIP3    H127601   1.585   6.317   2.675  0.7716  0.0100 -0.6009
 2014TIP3    H227602   1.604   6.336   2.824 -0.6952  1.4563 -0.5705
 2015TIP3   OH227603   4.170   0.545   0.264 -0.1841 -0.3509 -0.0252
 2015TIP3    H127604   4.230   0.580   0.330  0.8797  2.2432 -2.1884
 2015TIP3    H227605   4.083   0.562   0.300  0.3723  0.9747  0.7593
 2016TIP3   OH227606   6.293   4.044   8.078  0.3973 -0.4061 -0.1752
 2016TIP3    H127607   6.322   4.060   7.988 -0.4455  0.4153 -0.3141
 2016TIP3    H227608   6.368   4.071   8.131  0.2137  0.9331 -0.5595
 2017TIP3   OH227609   5.576   2.344   0.940 -0.0559  0.5133 -0.5197
 2017TIP3    H127610   5.533   2.427   0.961 -0.1139 -0.0765  1.9695
 2017TIP3    H227611   5.589   2.347   0.845 -1.6990  2.5650 -0.7511
 2018TIP3   OH227612   6.687   6.661   1.800  0.1552  0.5493  0.4856
 2018TIP3    H127613   6.678   6.565   1.800 -0.3565  0.5606 -1.0251
 2018TIP3    H227614   6.627   6.690   1.868 -0.8604 -0.1417 -0.0854
 2019TIP3   OH227615   5.562   0.197   2.697 -0.4071  0.1336  0.2945
 2019TIP3    H127616   5.618   0.122   2.678 -0.8955 -0.3144  0.5944
 2019TIP3    H227617   5.538   0.186   2.789 -0.7967  0.4518  0.2356
 2020TIP3   OH227618   3.318   2.806   2.582 -0.5898 -0.2241  0.8089
 2020TIP3    H127619   3.356   2.892   2.602 -3.1820  1.6460 -1.4998
 2020TIP3    H227620   3.337   2.753   2.660  0.8759  2.4974  2.4755
 2021TIP3   OH227621   3.696   5.330   2.735 -0.0741  0.3151  0.3851
 2021TIP3    H127622   3.770   5.283   2.775  1.4395  1.2702 -1.1532
 2021TIP3    H227623   3.685   5.407   2.790  1.2687  1.0528 -0.3098
 2022TIP3   OH227624   5.398   3.215   7.666  0.3726  0.1793 -0.3069
 2022TIP3    H127625   5.422   3.140   7.721  0.4492 -0.0728 -0.6768
 2022TIP3    H227626   5.470   3.222   7.603 -0.4321 -0.5062 -1.3543
 2023TIP3   OH227627   6.626   2.155   0.902 -0.1654 -0.4913 -0.7812
 2023TIP3    H127628   6.573   2.228   0.870 -1.8732 -1.1565  0.4020
 2023TIP3    H227629   6.689   2.195   0.962 -0.6926  0.0993 -0.6123
 2024TIP3   OH227630   6.518   5.358   2.496  0.2036  0.2304 -0.2256
 2024TIP3    H127631   6.443   5.399   2.453 -1.2792 -0.8911  1.1909
 2024TIP3    H227632   6.498   5.264   2.495  1.1798 -0.0157  0.9310
 2025TIP3   OH227633   5.188   4.957   2.837 -0.1382  0.9106 -0.0986
 2025TIP3    H127634   5.144   4.990   2.759 -1.5801  1.5478  0.9382
 2025TIP3    H227635   5.204   4.864   2.819 -1.2603  0.8415 -0.7930
 2026TIP3   OH227636   5.283   5.132   8.138  0.3589 -0.0251  0.2237
 2026TIP3    H127637   5.256   5.065   8.076  0.4767  1.2119 -1.2092
 2026TIP3    H227638   5.365   5.098   8.175  0.6906 -0.4365 -0.8580
 2027TIP3   OH227639   6.162   6.331   0.462  0.3654 -0.1761  0.2248
 2027TIP3    H127640   6.185   6.262   0.400  0.8982 -1.2123  1.5245
 2027TIP3    H227641   6.174   6.291   0.548  0.9363  1.6346  1.0335
 2028TIP3   OH227642   4.406   6.127   3.307 -0.1427  0.5788  0.3116
 2028TIP3    H127643   4.328   6.079   3.278  0.4571 -0.3479  0.1952
 2028TIP3    H227644   4.375   6.216   3.320 -1.4625  0.0329  1.2275
 2029TIP3   OH227645   0.410   4.235   8.060  0.0252 -0.0822 -0.3130
 2029TIP3    H127646   0.406   4.271   7.971 -0.5263 -2.0237 -1.1092
 2029TIP3    H227647   0.468   4.159   8.054 -0.5622 -0.6592  0.8350
 2030TIP3   OH227648   6.866   6.382   8.422  0.0042 -0.7607  0.0194
 2030TIP3    H127649   6.911   6.447   8.475 -1.7953  1.1828 -0.7233
 2030TIP3    H227650   6.866   6.303   8.476 -1.2472  0.9464  2.7174
 2031TIP3   OH227651   4.007   1.072   0.215  0.4294 -0.3459 -0.0581
 2031TIP3    H127652   3.930   1.079   0.271  0.4399 -1.1384  0.0705
 2031TIP3    H227653   4.012   1.156   0.169 -2.0271 -1.1908 -2.0454
 2032TIP3   OH227654   6.236   1.527   0.104  0.7397  0.4396  0.1323
 2032TIP3    H127655   6.169   1.460   0.117  1.0672 -0.0256 -0.5164
 2032TIP3    H227656   6.252   1.562   0.192  1.2907 -1.0569  0.6592
 2033TIP3   OH227657   3.147   2.261   0.726  0.0330  0.2082  0.3825
 2033TIP3    H127658   3.198   2.189   0.763  0.2080  0.7659  1.2465
 2033TIP3    H227659   3.201   2.339   0.740 -1.2263  0.8796  1.7097
 2034TIP3   OH227660   4.898   4.868   1.131  0.1981  0.9850  0.1248
 2034TIP3    H127661   4.938   4.952   1.110 -0.7948  1.7959  1.3957
 2034TIP3    H227662   4.956   4.803   1.089  1.2595  2.2505 -0.4310
 2035TIP3   OH227663   3.270   5.059   7.265 -0.0032 -0.0898 -0.5639
 2035TIP3    H127664   3.293   4.967   7.278 -1.0871 -0.1262  1.5418
 2035TIP3    H227665   3.174   5.060   7.272  0.0666  1.3262  0.3930
 2036TIP3   OH227666   3.967   3.964   1.738 -0.1477  0.0715  0.3410
 2036TIP3    H127667   3.921   4.048   1.732  0.8061  0.6117  0.3961
 2036TIP3    H227668   3.923   3.918   1.810 -1.4078  0.0424 -0.4140
 2037TIP3   OH227669   0.170   4.955   1.129  0.1083 -0.3334  0.4219
 2037TIP3    H127670   0.105   5.023   1.114 -1.1133 -1.2220  1.4049
 2037TIP3    H227671   0.253   4.993   1.102 -0.8269  0.8350 -0.8742
 2038TIP3   OH227672   2.374   0.543   0.993  0.1060  0.6979 -0.3415
 2038TIP3    H127673   2.392   0.497   1.075  0.8328  0.0796 -0.8347
 2038TIP3    H227674   2.299   0.599   1.013 -0.3048 -0.1138  0.4953
 2039TIP3   OH227675   0.531   4.898   2.013 -0.0440 -0.1963  0.2230
 2039TIP3    H127676   0.478   4.977   2.027 -1.2168 -1.0485  0.7891
 2039TIP3    H227677   0.531   4.885   1.919 -3.2108 -1.6588  0.2766
 2040TIP3   OH227678   3.980   5.646   1.584  0.1602  0.1613 -0.5387
 2040TIP3    H127679   4.045   5.702   1.542  1.4426 -0.0654  1.0443
 2040TIP3    H227680   4.004   5.557   1.559 -0.3799  0.1463 -1.0387
 2041TIP3   OH227681   0.462   0.876   2.605 -0.1386  0.5782 -0.2679
 2041TIP3    H127682   0.398   0.822   2.559  0.7550  0.2724 -1.1766
 2041TIP3    H227683   0.409   0.928   2.666 -1.2006  0.0034 -0.6668
 2042TIP3   OH227684   3.907   0.574   1.742 -0.2167 -0.6129  0.3818
 2042TIP3    H127685   3.963   0.650   1.726  0.3820 -0.8767  1.1650
 2042TIP3    H227686   3.826   0.595   1.696  0.6402 -0.3892 -1.1091
 2043TIP3   OH227687   4.145   2.785   0.677  0.2954  0.1076  0.4196
 2043TIP3    H127688   4.157   2.877   0.654 -0.9171  0.4062  0.8800
 2043TIP3    H227689   4.232   2.747   0.672  0.3032  0.2220 -4.1587
 2044TIP3   OH227690   4.758   2.345   1.587  0.1067 -0.2608 -0.1661
 2044TIP3    H127691   4.816   2.396   1.530  0.2893  0.0320  0.2768
 2044TIP3    H227692   4.816   2.285   1.634  0.0652  0.0555  0.3015
 2045TIP3   OH227693   1.563   3.973   2.611  0.4073  0.0643  0.2524
 2045TIP3    H127694   1.581   3.879   2.599  2.2627  0.5333 -1.0064
 2045TIP3    H227695   1.649   4.013   2.619 -0.3406  1.7792  0.0602
 2046TIP3   OH227696   4.356   0.855   3.448  0.1213  0.4207 -0.2646
 2046TIP3    H127697   4.409   0.901   3.513 -1.4005  0.3982  1.0606
 2046TIP3    H227698   4.276   0.831   3.495 -1.3473  1.0131 -2.3176
 2047TIP3   OH227699   5.833   0.322   7.647  0.1609  0.0304  0.2481
 2047TIP3    H127700   5.911   0.368   7.616 -1.3416  2.4815 -0.1519
 2047TIP3    H227701   5.846   0.231   7.620  1.6834  0.8757 -2.2224
 2048TIP3   OH227702   0.766   4.680   0.346  0.0868  0.3929 -0.8227
 2048TIP3    H127703   0.856   4.690   0.378  0.5302  0.9039 -2.1480
 2048TIP3    H227704   0.755   4.752   0.284 -1.1878  0.2235 -0.8040
 2049TIP3   OH227705   0.162   3.369   3.373  0.1586 -0.6129  0.3012
 2049TIP3    H127706   0.233   3.406   3.425  2.1059 -1.7864 -1.3770
 2049TIP3    H227707   0.132   3.441   3.318  0.9441 -0.4127  0.1230
 2050TIP3   OH227708   5.811   4.410   0.521  0.4379 -0.0313 -0.2300
 2050TIP3    H127709   5.877   4.455   0.574  3.3748 -2.3118 -1.6754
 2050TIP3    H227710   5.853   4.398   0.436 -3.5241  2.1305 -2.7959
 2051TIP3   OH227711   4.937   4.682   2.995  0.1358  0.2980  0.7229
 2051TIP3    H127712   5.011   4.688   3.055  0.2708  0.2950  0.5589
 2051TIP3    H227713   4.937   4.590   2.967 -0.3554  0.1302  1.2554
 2052TIP3   OH227714   4.633   1.928   0.952 -0.3156  0.2652  0.2933
 2052TIP3    H127715   4.573   1.919   1.026  0.0052  1.5748  0.7317
 2052TIP3    H227716   4.584   1.978   0.887 -0.2559 -0.0578 -0.0054
 2053TIP3   OH227717   6.266   5.777   8.130  0.0235  0.4045  0.4790
 2053TIP3    H127718   6.201   5.766   8.060  1.6355 -3.4468 -0.6369
 2053TIP3    H227719   6.219   5.753   8.210 -0.6048  0.3282  0.0949
 2054TIP3   OH227720   1.557   0.677   1.204 -0.4489 -0.1362 -0.5047
 2054TIP3    H127721   1.486   0.691   1.142  0.9752  0.7272 -2.0467
 2054TIP3    H227722   1.597   0.763   1.214  0.6050 -0.6603 -0.0057
 2055TIP3   OH227723   1.340   2.846   2.646 -0.2783 -0.0147  0.4808
 2055TIP3    H127724   1.314   2.754   2.647  0.6047 -0.3548 -1.9950
 2055TIP3    H227725   1.264   2.893   2.681 -0.9658 -1.6165  1.2155
 2056TIP3   OH227726   4.955   5.369   2.078  0.0797  0.3056 -0.3864
 2056TIP3    H127727   4.947   5.281   2.116 -1.0858  0.6212  0.1624
 2056TIP3    H227728   5.044   5.373   2.044  0.1464 -1.1021 -0.4490
 2057TIP3   OH227729   2.060   2.464   0.053  0.0301  0.6513  0.7229
 2057TIP3    H127730   2.102   2.389   0.012  0.3963  1.1493  0.1731
 2057TIP3    H227731   2.090   2.539   0.003 -1.1690  1.0719  0.6032
 2058TIP3   OH227732   2.611   0.783   8.131 -0.1193  0.1550 -0.4940
 2058TIP3    H127733   2.639   0.730   8.057 -1.1053  1.2451 -1.6991
 2058TIP3    H227734   2.539   0.836   8.096 -1.7980 -0.5382  1.6954
 2059TIP3   OH227735   0.167   1.512   7.631 -0.0661  0.0125  0.4717
 2059TIP3    H127736   0.206   1.493   7.546 -0.3713  0.7461  0.1562
 2059TIP3    H227737   0.233   1.565   7.676 -0.3001  0.4545  0.3040
 2060TIP3   OH227738   0.151   3.660   0.486  0.6637  0.3930  0.1850
 2060TIP3    H127739   0.157   3.663   0.582  1.0003 -2.4823  0.3630
 2060TIP3    H227740   0.057   3.660   0.468  0.5947  0.8489  0.5228
 2061TIP3   OH227741   5.908   2.486   0.834 -0.0158 -0.2460 -0.0391
 2061TIP3    H127742   5.951   2.543   0.898  1.1365 -1.7519  0.5919
 2061TIP3    H227743   5.816   2.514   0.834  0.4589  1.4163  0.4149
 2062TIP3   OH227744   0.894   0.651   8.382  0.2371 -0.1403 -0.1000
 2062TIP3    H127745   0.973   0.631   8.332  1.0098  3.2644 -0.4595
 2062TIP3    H227746   0.925   0.703   8.456 -1.5462  0.4149  0.3040
 2063TIP3   OH227747   1.035   4.892   1.889  0.0235  0.5025  0.0741
 2063TIP3    H127748   0.945   4.897   1.855  0.4042  0.8563 -0.9353
 2063TIP3    H227749   1.025   4.876   1.982 -1.1206  2.0068  0.2472
 2064TIP3   OH227750   0.399   6.062   3.159  0.0748  0.0143 -0.1503
 2064TIP3    H127751   0.361   6.029   3.241 -0.3865 -0.3640 -0.5069
 2064TIP3    H227752   0.352   6.144   3.143  0.6527  0.4451  0.3167
 2065TIP3   OH227753   6.969   0.909   8.409 -0.1357 -0.0999 -0.4153
 2065TIP3    H127754   6.938   0.821   8.430 -1.7646  0.7876  1.2009
 2065TIP3    H227755   6.889   0.960   8.395  0.5896  1.8325  1.8808
 2066TIP3   OH227756   0.939   0.408   7.921  0.1901  0.1073  0.1117
 2066TIP3    H127757   0.987   0.449   7.993 -0.9105  3.0885 -0.6906
 2066TIP3    H227758   0.851   0.446   7.928 -0.9190 -2.1258 -0.8415
 2067TIP3   OH227759   5.446   3.154   1.992  0.0267 -0.6492 -0.2389
 2067TIP3    H127760   5.373   3.135   2.051 -0.6126  0.2640 -0.7126
 2067TIP3    H227761   5.411   3.220   1.932  1.1455 -0.4452 -0.6805
 2068TIP3   OH227762   5.312   3.277   2.551 -0.1112 -0.0076  0.2052
 2068TIP3    H127763   5.314   3.265   2.646  0.2730 -2.5113 -0.0541
 2068TIP3    H227764   5.394   3.322   2.531 -0.2334  0.6141  1.0493
 2069TIP3   OH227765   0.997   5.682   3.254  0.0542 -0.0735  0.1498
 2069TIP3    H127766   0.932   5.736   3.299  1.3086  0.4625  1.3599
 2069TIP3    H227767   0.990   5.596   3.295 -0.4770 -0.2753 -0.3363
 2070TIP3   OH227768   6.833   2.961   0.533  0.1589  0.6302 -0.3458
 2070TIP3    H127769   6.921   2.979   0.501 -0.1904  0.2018 -1.5667
 2070TIP3    H227770   6.815   2.870   0.509 -0.4443  0.5572  0.3153
 2071TIP3   OH227771   1.404   6.895   0.835 -0.0028  0.7171 -0.4155
 2071TIP3    H127772   1.491   6.868   0.806  0.3605 -1.4650  2.1885
 2071TIP3    H227773   1.413   6.987   0.858  1.9916  0.2864  0.7771
 2072TIP3   OH227774   1.290   6.757   1.672 -0.3331 -0.2769 -0.0782
 2072TIP3    H127775   1.214   6.757   1.615 -0.1117 -0.9502 -0.3824
 2072TIP3    H227776   1.313   6.850   1.682 -3.4149  0.3665  3.0967
 2073TIP3   OH227777   0.066   3.480   2.908 -0.6941  0.0663  0.1581
 2073TIP3    H127778  -0.007   3.424   2.934 -0.3528 -0.9120 -0.8985
 2073TIP3    H227779   0.140   3.448   2.960 -1.1215  1.5331  1.7757
 2074TIP3   OH227780   5.974   0.635   1.950  0.0111 -0.0698  0.3433
 2074TIP3    H127781   5.902   0.573   1.961  0.0447  0.2695  3.0873
 2074TIP3    H227782   6.010   0.614   1.864 -3.4369 -0.1038 -1.2285
 2075TIP3   OH227783   2.768   3.568   7.252 -0.2538 -0.2338 -0.3409
 2075TIP3    H127784   2.745   3.630   7.183 -0.2994  2.4568  1.9251
 2075TIP3    H227785   2.860   3.546   7.235  0.1025  1.3388 -0.6045
 2076TIP3   OH227786   3.116   2.237   1.686 -0.3014  0.3649 -0.6758
 2076TIP3    H127787   3.046   2.207   1.628 -2.7718  2.4548  0.9989
 2076TIP3    H227788   3.127   2.329   1.664  0.6890  0.4857  0.2626
 2077TIP3   OH227789   5.893   6.518   0.251 -0.0364  0.6498 -0.4741
 2077TIP3    H127790   5.899   6.534   0.345 -1.4025 -1.2132  0.0015
 2077TIP3    H227791   5.929   6.430   0.239  0.0687  0.8320 -1.6936
 2078TIP3   OH227792   4.463   5.150   7.655 -0.2143  0.3137 -0.1715
 2078TIP3    H127793   4.382   5.175   7.700 -1.7190  0.0255 -2.5699
 2078TIP3    H227794   4.490   5.229   7.608  0.0995  0.0074 -0.5160
 2079TIP3   OH227795   0.767   0.554   2.410  0.3703 -0.3323  0.2994
 2079TIP3    H127796   0.710   0.625   2.440 -0.2767 -1.2911  1.3737
 2079TIP3    H227797   0.846   0.600   2.378 -0.1612  0.8808  0.6558
 2080TIP3   OH227798   6.271   5.634   1.258  0.6319 -0.0601 -0.2011
 2080TIP3    H127799   6.293   5.622   1.166 -1.3416 -0.7598 -0.6359
 2080TIP3    H227800   6.343   5.592   1.305  1.8287  0.5905 -1.3923
 2081TIP3   OH227801   0.456   0.765   1.481 -0.5307 -0.1068 -0.3218
 2081TIP3    H127802   0.447   0.812   1.399 -2.6792  0.1043 -0.0277
 2081TIP3    H227803   0.476   0.675   1.455  0.0165  0.2078 -1.0182
 2082TIP3   OH227804   4.820   4.276   1.808  0.7705  0.4765 -0.2486
 2082TIP3    H127805   4.801   4.239   1.722  3.2158  0.0111 -0.6843
 2082TIP3    H227806   4.756   4.346   1.819 -0.8561 -0.7159 -1.5530
 2083TIP3   OH227807   0.083   3.680   8.309  0.1188 -0.4966  0.3556
 2083TIP3    H127808   0.094   3.723   8.394 -0.3005 -0.4835  0.4038
 2083TIP3    H227809   0.080   3.587   8.329  1.3586 -0.5793  0.2172
 2084TIP3   OH227810   2.151   5.175   1.758 -0.0509 -0.5286 -0.2683
 2084TIP3    H127811   2.165   5.140   1.846  0.2526  1.6327  0.5973
 2084TIP3    H227812   2.137   5.097   1.703  2.7279 -2.1799  1.0998
 2085TIP3   OH227813   0.433   2.926   0.939  0.2178  0.7124  0.1969
 2085TIP3    H127814   0.503   2.906   0.878 -1.4716 -0.5823 -1.4544
 2085TIP3    H227815   0.476   2.937   1.024  2.1679 -3.2874 -0.0342
 2086TIP3   OH227816   0.082   3.700   1.374  0.1033  0.4774 -0.0298
 2086TIP3    H127817   0.071   3.769   1.310 -1.5844  0.5652  0.3110
 2086TIP3    H227818   0.010   3.712   1.436  0.7294 -0.5914  0.9592
 2087TIP3   OH227819   3.080   5.065   0.532  0.2521 -0.3786 -0.0384
 2087TIP3    H127820   3.133   4.992   0.564 -1.2063 -0.6085  2.0106
 2087TIP3    H227821   2.990   5.033   0.536 -0.6393  2.0110  2.7190
 2088TIP3   OH227822   5.627   6.856   8.403  0.0659 -0.1888  0.0545
 2088TIP3    H127823   5.684   6.923   8.366 -1.2085  0.7457 -0.2786
 2088TIP3    H227824   5.673   6.828   8.483  1.1501  0.2691 -0.3817
 2089TIP3   OH227825   1.061   4.261   1.086  0.0109  0.1137  0.3594
 2089TIP3    H127826   0.972   4.226   1.079  0.2681 -0.4023 -0.5132
 2089TIP3    H227827   1.103   4.234   1.005  1.6324 -1.4943  1.6652
 2090TIP3   OH227828   5.282   6.065   0.654  0.0431  0.2361 -0.1484
 2090TIP3    H127829   5.193   6.100   0.656 -0.3820 -0.5289 -2.3632
 2090TIP3    H227830   5.332   6.129   0.603  0.4359  0.0332 -0.0234
 2091TIP3   OH227831   4.720   3.423   2.035 -0.1634  0.2168 -0.8157
 2091TIP3    H127832   4.682   3.487   2.096  0.8927  3.1074 -2.9356
 2091TIP3    H227833   4.776   3.475   1.978  0.4658 -2.6084 -3.0071
 2092TIP3   OH227834   6.744   2.255   7.653  0.1821 -0.5852 -0.1541
 2092TIP3    H127835   6.692   2.233   7.576  0.7058 -0.0108 -0.6920
 2092TIP3    H227836   6.801   2.327   7.623  1.6140 -1.4989  0.2723
 2093TIP3   OH227837   0.219   0.425   0.838 -0.1939  0.4563  0.1245
 2093TIP3    H127838   0.245   0.342   0.798  0.5455  1.7419 -2.2856
 2093TIP3    H227839   0.124   0.418   0.847  0.0390 -1.4059  1.9755
 2094TIP3   OH227840   3.537   6.934   1.408  0.2133 -0.0731 -0.4435
 2094TIP3    H127841   3.605   6.999   1.425  0.7080 -0.6362 -0.2645
 2094TIP3    H227842   3.539   6.876   1.483 -0.8915  0.2556 -0.1405
 2095TIP3   OH227843   3.195   6.587   1.992 -0.2415  0.1095  0.3830
 2095TIP3    H127844   3.159   6.674   2.008 -1.8324 -0.4510  0.0365
 2095TIP3    H227845   3.207   6.550   2.080 -0.0308  0.4800  0.5154
 2096TIP3   OH227846   6.110   3.404   0.929  0.2777  0.0824 -0.3764
 2096TIP3    H127847   6.066   3.447   0.856  0.6810  0.9448 -0.1298
 2096TIP3    H227848   6.039   3.370   0.983 -0.0919  0.9560 -0.2799
 2097TIP3   OH227849   2.462   0.058   2.425  0.2946 -0.0453 -0.2807
 2097TIP3    H127850   2.480   0.143   2.465  0.7512 -0.2680 -0.0024
 2097TIP3    H227851   2.549   0.022   2.406  0.0994  0.5376 -2.5317
 2098TIP3   OH227852   0.548   0.901   2.302  0.5395 -0.0842 -0.0720
 2098TIP3    H127853   0.464   0.885   2.345 -0.2116  0.6773 -1.1810
 2098TIP3    H227854   0.614   0.878   2.368 -0.5345  1.9519  1.8266
 2099TIP3   OH227855   6.263   2.652   2.180 -0.2289  0.0277  0.2591
 2099TIP3    H127856   6.299   2.739   2.197 -0.4950  0.3710 -0.9123
 2099TIP3    H227857   6.168   2.664   2.183 -0.2725 -0.4185  1.0158
 2100TIP3   OH227858   3.769   6.669   2.390  0.5031  0.1858 -0.1197
 2100TIP3    H127859   3.735   6.750   2.352 -0.3151 -0.9182 -1.8959
 2100TIP3    H227860   3.862   6.686   2.403  0.2916  1.5095 -0.1477
 2101TIP3   OH227861   1.670   4.510   0.256 -0.5637  0.0858 -0.5047
 2101TIP3    H127862   1.679   4.568   0.332  1.6926  1.0689 -1.4313
 2101TIP3    H227863   1.627   4.432   0.291  2.6541 -0.6181  2.4581
 2102TIP3   OH227864   0.802   3.132   7.013  0.2062  0.4131  0.4009
 2102TIP3    H127865   0.769   3.089   7.093 -1.7491  1.5772  0.2926
 2102TIP3    H227866   0.772   3.075   6.942 -0.4263  0.7621  0.3781
 2103TIP3   OH227867   4.829   5.569   2.494  0.2320 -0.4857 -0.1262
 2103TIP3    H127868   4.734   5.562   2.502 -0.0886  0.4432 -2.3965
 2103TIP3    H227869   4.853   5.494   2.439  0.2986  1.0795 -2.3598
 2104TIP3   OH227870   3.900   0.105   0.934 -0.3702  0.0217 -0.0240
 2104TIP3    H127871   3.902   0.086   0.840 -1.7417 -1.1891  0.1468
 2104TIP3    H227872   3.832   0.047   0.968  0.2012  0.3374  1.7500
 2105TIP3   OH227873   1.015   2.820   2.471 -0.4728  0.0210 -0.2818
 2105TIP3    H127874   1.094   2.804   2.419 -0.4942  1.0408 -0.6647
 2105TIP3    H227875   0.979   2.733   2.488  1.0921 -0.5108  0.4855
 2106TIP3   OH227876   4.992   6.740   1.591  0.1059 -0.0502  0.6660
 2106TIP3    H127877   5.037   6.803   1.647  0.1579 -1.0116  1.7438
 2106TIP3    H227878   4.965   6.670   1.650 -0.3458 -0.8353 -0.4268
 2107TIP3   OH227879   1.548   0.844   1.971 -0.2648  0.4714  0.7055
 2107TIP3    H127880   1.624   0.873   1.920 -1.9595  0.2050 -2.1803
 2107TIP3    H227881   1.474   0.853   1.912 -2.2114 -1.3461  2.6594
 2108TIP3   OH227882   3.129   3.339   0.567 -0.5336  0.0278  0.6855
 2108TIP3    H127883   3.168   3.419   0.604 -0.1939  0.4324 -0.4978
 2108TIP3    H227884   3.043   3.367   0.535 -1.0813 -0.4597  1.6829
 2109TIP3   OH227885   1.428   5.137   1.999 -0.3889 -0.7744 -0.2956
 2109TIP3    H127886   1.363   5.144   1.929 -0.2551  1.8177 -0.2725
 2109TIP3    H227887   1.472   5.222   1.999 -0.1131 -0.8199  2.6681
 2110TIP3   OH227888   0.465   1.079   1.546  0.3146 -0.0059  0.7944
 2110TIP3    H127889   0.427   1.115   1.626  1.2341  1.8317  0.4727
 2110TIP3    H227890   0.526   1.011   1.575 -0.2241 -0.1595  1.5656
 2111TIP3   OH227891   0.352   0.817   3.227  0.5262  0.4023 -0.9843
 2111TIP3    H127892   0.390   0.759   3.160 -2.4268 -0.7099 -1.9000
 2111TIP3    H227893   0.298   0.879   3.177 -1.4318 -0.1905  0.2624
 2112TIP3   OH227894   3.848   5.226   1.615 -0.4008 -0.1080  0.0093
 2112TIP3    H127895   3.756   5.215   1.592 -0.4970  0.0796  0.2956
 2112TIP3    H227896   3.876   5.304   1.567 -0.7854  0.6848  1.0363
 2113TIP3   OH227897   1.413   6.917   1.161 -1.2939 -0.0612 -0.1980
 2113TIP3    H127898   1.443   6.847   1.103 -0.8282  0.9911 -1.2518
 2113TIP3    H227899   1.453   6.897   1.245 -1.5303 -1.3073 -0.3635
 2114TIP3   OH227900   6.548   0.828   8.242 -0.2525  0.1924 -0.2321
 2114TIP3    H127901   6.479   0.882   8.203 -1.0119 -0.0746  0.6910
 2114TIP3    H227902   6.504   0.746   8.264  0.7753 -0.6391 -1.1676
 2115TIP3   OH227903   6.337   0.608   1.970 -0.0843 -0.0725 -0.1016
 2115TIP3    H127904   6.404   0.677   1.968  1.9865 -2.0076 -1.5430
 2115TIP3    H227905   6.363   0.552   2.042 -1.9290  0.7167  1.2477
 2116TIP3   OH227906   2.123   3.324   2.431  0.1257  0.1533  0.6061
 2116TIP3    H127907   2.066   3.393   2.465  0.7088  1.9346 -1.7681
 2116TIP3    H227908   2.204   3.333   2.482 -0.0430  0.7983  0.7671
 2117TIP3   OH227909   2.714   1.026   1.666 -0.3909 -0.2824  0.1933
 2117TIP3    H127910   2.660   1.013   1.744 -1.5585 -0.4883 -0.6102
 2117TIP3    H227911   2.804   1.030   1.699 -0.6045 -2.7549  1.3120
 2118TIP3   OH227912   1.928   3.048   2.031 -0.1628 -0.5617 -0.2874
 2118TIP3    H127913   1.982   3.127   2.025 -3.0603  1.5598 -1.0862
 2118TIP3    H227914   1.977   2.990   2.089  1.7901  2.1549  1.0468
 2119TIP3   OH227915   6.077   0.781   0.257  0.5931 -0.2969  0.0726
 2119TIP3    H127916   6.081   0.856   0.197  2.7860 -0.8886 -0.6030
 2119TIP3    H227917   6.023   0.716   0.212  0.2598  0.1515 -0.1830
 2120TIP3   OH227918   3.272   5.089   3.422  0.1437  0.1095  0.1305
 2120TIP3    H127919   3.365   5.106   3.434 -0.0265  0.3361  1.2943
 2120TIP3    H227920   3.255   5.010   3.473 -0.1910 -0.2625 -0.5496
 2121TIP3   OH227921   0.135   1.274   3.274  0.0093 -0.2743  0.4101
 2121TIP3    H127922   0.062   1.257   3.214 -1.1624 -0.1468  1.7571
 2121TIP3    H227923   0.116   1.361   3.310  0.5058 -0.4926  1.2233
 2122TIP3   OH227924   2.524   3.662   2.162  1.0718  0.0969  0.4761
 2122TIP3    H127925   2.568   3.607   2.227  1.0701 -0.4309  0.0375
 2122TIP3    H227926   2.476   3.726   2.214 -0.2139 -1.2942  1.0588
 2123TIP3   OH227927   0.831   3.940   1.124 -0.2023 -0.0779  0.2823
 2123TIP3    H127928   0.819   3.888   1.045  1.2910  0.1814 -0.1586
 2123TIP3    H227929   0.836   4.030   1.093 -0.8319  0.1444  0.8157
 2124TIP3   OH227930   5.789   6.491   7.832 -0.3339 -0.2216 -0.0635
 2124TIP3    H127931   5.757   6.499   7.742  1.0296 -0.2586 -0.5826
 2124TIP3    H227932   5.864   6.550   7.835 -0.0114 -0.6673  0.8746
 2125TIP3   OH227933   5.137   6.090   1.338 -0.3804 -0.0429  0.2422
 2125TIP3    H127934   5.181   6.026   1.283  0.1333 -0.1409  0.7551
 2125TIP3    H227935   5.106   6.158   1.277  0.2816 -0.0895 -0.1478
 2126TIP3   OH227936   3.690   4.289   1.381 -0.3409 -0.2199  0.8334
 2126TIP3    H127937   3.735   4.314   1.461 -1.4820 -0.8595  1.6975
 2126TIP3    H227938   3.649   4.370   1.350 -2.0956 -0.4634  2.3638
 2127TIP3   OH227939   3.935   4.759   1.973  0.2569  0.2876  0.4659
 2127TIP3    H127940   4.018   4.712   1.966  0.0327  0.0679 -1.2418
 2127TIP3    H227941   3.959   4.851   1.982  0.6759  0.2002  0.2528
 2128TIP3   OH227942   5.815   1.189   7.496  0.4477  0.1593 -0.3923
 2128TIP3    H127943   5.880   1.254   7.525  0.9711 -1.3629  2.0804
 2128TIP3    H227944   5.797   1.136   7.574 -0.8484 -1.9353 -2.0129
 2129TIP3   OH227945   6.421   4.478   7.628 -0.0337 -0.1865 -0.3528
 2129TIP3    H127946   6.447   4.455   7.539  2.7270  2.1411 -0.3000
 2129TIP3    H227947   6.465   4.413   7.683  2.5479  1.3113 -0.5095
 2130TIP3   OH227948   4.185   2.540   0.240 -0.3357 -0.2218 -0.3244
 2130TIP3    H127949   4.242   2.466   0.221  2.4519  1.4604  0.9612
 2130TIP3    H227950   4.144   2.518   0.324  0.2706 -0.4291 -0.0797
 2131TIP3   OH227951   5.547   2.778   0.536 -0.6117 -0.2164 -0.0245
 2131TIP3    H127952   5.459   2.799   0.569 -1.0948 -1.2546 -0.5799
 2131TIP3    H227953   5.565   2.691   0.572  0.6401  0.4218  0.9300
 2132TIP3   OH227954   0.663   1.151   1.365 -0.1754 -0.4523 -0.4795
 2132TIP3    H127955   0.666   1.133   1.271  0.2777 -0.9117 -0.3821
 2132TIP3    H227956   0.572   1.132   1.390 -0.0394 -1.3413 -0.6363
 2133TIP3   OH227957   1.717   5.497   0.357 -0.2951  0.0654  0.3428
 2133TIP3    H127958   1.738   5.582   0.320  1.9962 -0.7620 -0.4338
 2133TIP3    H227959   1.782   5.484   0.426 -0.7985 -0.9279  0.6486
 2134TIP3   OH227960   2.954   1.199   1.290  0.6813 -0.2441 -0.1220
 2134TIP3    H127961   2.974   1.119   1.241 -0.5201 -0.2870 -0.5565
 2134TIP3    H227962   2.868   1.183   1.329  0.0802  1.1158 -0.8358
 2135TIP3   OH227963   4.158   0.112   0.426  0.1528  0.6709  0.2237
 2135TIP3    H127964   4.079   0.064   0.401  0.2067  1.0288 -0.6831
 2135TIP3    H227965   4.173   0.089   0.518  0.2098 -1.0984 -0.1907
 2136TIP3   OH227966   5.882   4.489   8.323  0.0679 -0.0527  0.2926
 2136TIP3    H127967   5.870   4.583   8.311 -0.0482  0.0088  0.8695
 2136TIP3    H227968   5.975   4.474   8.307 -0.2073 -0.1058 -1.4702
 2137TIP3   OH227969   0.863   0.397   0.081  0.8169  0.5365  0.1506
 2137TIP3    H127970   0.824   0.484   0.092  0.2473  0.3672 -0.4876
 2137TIP3    H227971   0.883   0.391  -0.012  1.6159  0.2945  0.3296
 2138TIP3   OH227972   2.634   4.583   2.134 -0.2871 -0.1273 -0.2383
 2138TIP3    H127973   2.682   4.659   2.101 -3.4878  2.5403  0.7262
 2138TIP3    H227974   2.587   4.549   2.057  1.6787 -1.7122 -0.8236
 2139TIP3   OH227975   3.925   1.915   8.386  0.3390  0.2212 -0.7228
 2139TIP3    H127976   3.882   2.000   8.401 -0.5654 -0.1155 -1.3454
 2139TIP3    H227977   3.930   1.875   8.472  0.8604  0.9385 -0.4053
 2140TIP3   OH227978   0.347   0.523   8.091 -0.6016  0.3267  0.2367
 2140TIP3    H127979   0.367   0.477   8.173 -0.5920  1.5616  0.9424
 2140TIP3    H227980   0.338   0.615   8.116 -0.5439  0.7358 -1.1639
 2141TIP3   OH227981   4.964   6.836   2.148 -0.2439 -0.1369  0.8172
 2141TIP3    H127982   4.927   6.749   2.139  2.0000 -1.1436  0.4664
 2141TIP3    H227983   5.026   6.844   2.075  0.4695  1.2547  1.5257
 2142TIP3   OH227984   3.452   5.689   2.633  0.0828 -0.1779 -0.1480
 2142TIP3    H127985   3.440   5.774   2.677  3.6237  0.2815  0.1671
 2142TIP3    H227986   3.370   5.642   2.651 -1.2024  2.3752  1.3985
 2143TIP3   OH227987   4.503   2.694   2.092  0.8892 -0.1703 -0.0712
 2143TIP3    H127988   4.539   2.655   2.171  1.1612  1.4924  0.6752
 2143TIP3    H227989   4.415   2.724   2.117  2.0401  3.0705  0.6224
 2144TIP3   OH227990   0.536   3.012   0.462 -0.0736 -0.0248 -0.3058
 2144TIP3    H127991   0.462   3.050   0.413  0.1113 -0.0098 -0.5775
 2144TIP3    H227992   0.613   3.054   0.424  0.1598 -0.9102 -0.8403
 2145TIP3   OH227993   5.101   3.013   0.338  0.1707  0.3830 -0.0264
 2145TIP3    H127994   5.189   2.974   0.332 -0.3748 -0.8408 -0.4647
 2145TIP3    H227995   5.058   2.987   0.256 -0.4443  1.3874 -0.0308
 2146TIP3   OH227996   2.316   1.645   1.433 -0.2893  0.2468  0.3045
 2146TIP3    H127997   2.234   1.606   1.465 -0.2023 -0.3618 -0.1884
 2146TIP3    H227998   2.383   1.581   1.457 -0.3541 -0.8777 -2.1319
 2147TIP3   OH227999   1.621   3.175   6.844 -0.0103 -0.1541 -0.1711
 2147TIP3    H128000   1.659   3.169   6.931 -1.1055 -0.3269  0.3055
 2147TIP3    H228001   1.574   3.258   6.843 -0.2044 -0.2634 -0.5116
 2148TIP3   OH228002   1.927   2.495   3.402  0.4345 -0.4221 -0.2008
 2148TIP3    H128003   1.953   2.408   3.370 -0.0745 -1.6514  2.4763
 2148TIP3    H228004   1.843   2.481   3.446 -0.4718  1.7817 -1.0628
 2149TIP3   OH228005   4.267   1.947   0.334 -0.0163 -0.1714  0.1067
 2149TIP3    H128006   4.326   1.882   0.372  3.1487  3.1963  1.6023
 2149TIP3    H228007   4.305   1.967   0.248 -1.1211 -0.4407 -0.4640
 2150TIP3   OH228008   4.940   6.417   8.291  0.5158 -0.1118 -0.4959
 2150TIP3    H128009   4.848   6.397   8.274  0.3773  1.4054 -1.7644
 2150TIP3    H228010   4.942   6.442   8.383  0.1399 -2.5278  0.2294
 2151TIP3   OH228011   3.030   1.185   2.274  0.1611  0.3389 -0.0399
 2151TIP3    H128012   3.106   1.242   2.261  0.1957  0.0417 -1.2811
 2151TIP3    H228013   2.969   1.211   2.205 -0.8949  0.5897  0.9592
 2152TIP3   OH228014   2.593   5.124   3.247 -1.1732 -0.1827 -0.6045
 2152TIP3    H128015   2.583   5.029   3.236 -0.1324 -0.3267 -0.4396
 2152TIP3    H228016   2.639   5.133   3.330 -0.1772  0.3923 -1.1948
 2153TIP3   OH228017   5.326   1.239   8.110  0.2661  0.2965 -0.6510
 2153TIP3    H128018   5.379   1.308   8.150 -0.0551  0.1088  0.1214
 2153TIP3    H228019   5.290   1.191   8.185  0.3549 -0.6039 -1.1826
 2154TIP3   OH228020   1.145   6.621   6.983 -0.1295  0.1960  0.4524
 2154TIP3    H128021   1.104   6.592   6.902  0.8721 -0.8258  0.2913
 2154TIP3    H228022   1.102   6.705   7.003 -2.3574 -0.8332  0.3580
 2155TIP3   OH228023   0.512   0.793   8.424 -0.3104 -0.1654  0.2473
 2155TIP3    H128024   0.449   0.783   8.352  0.9312  0.6915 -0.9892
 2155TIP3    H228025   0.593   0.821   8.382  0.6260 -0.2375  1.9277
 2156TIP3   OH228026   3.846   3.175   3.247 -0.2120 -0.6988 -0.4147
 2156TIP3    H128027   3.848   3.106   3.181 -1.9050 -0.7835 -0.4320
 2156TIP3    H228028   3.834   3.129   3.330  0.6886 -0.5265 -0.1821
 2157TIP3   OH228029   0.531   1.508   2.389  0.4519  0.2594  0.0695
 2157TIP3    H128030   0.585   1.454   2.446  1.2433  0.8605 -0.0901
 2157TIP3    H228031   0.588   1.581   2.364 -0.5733  1.1471  0.2377
 2158TIP3   OH228032   2.685   2.249   8.313  0.0703 -0.2705  0.7669
 2158TIP3    H128033   2.680   2.216   8.224  0.1630 -0.3081  0.7754
 2158TIP3    H228034   2.615   2.315   8.319  0.6949  0.4333  0.3727
 2159TIP3   OH228035   6.321   4.247   8.363 -0.1733 -0.2626  0.0820
 2159TIP3    H128036   6.355   4.177   8.308 -0.8097  0.7309 -1.6887
 2159TIP3    H228037   6.398   4.295   8.392  0.2636 -1.6241  1.2813
 2160TIP3   OH228038   5.578   3.380   2.444  0.2734 -0.0913 -0.0842
 2160TIP3    H128039   5.629   3.308   2.481 -0.4950 -0.5774  0.0553
 2160TIP3    H228040   5.606   3.384   2.353  1.3752  0.3924  0.2603
 2161TIP3   OH228041   5.116   5.369   2.461  0.1020  0.1443 -0.1006
 2161TIP3    H128042   5.165   5.422   2.399 -0.1764  0.9645  0.3634
 2161TIP3    H228043   5.033   5.350   2.416  0.1043  0.3090 -0.1739
 2162TIP3   OH228044   4.677   1.612   2.529  0.1344  0.2613 -0.1782
 2162TIP3    H128045   4.711   1.581   2.444 -0.1002 -1.0335  0.1882
 2162TIP3    H228046   4.751   1.660   2.568 -0.1862  2.1510 -1.6999
 2163TIP3   OH228047   1.465   6.890   0.079 -0.2028  0.2231 -0.4132
 2163TIP3    H128048   1.437   6.805   0.043 -0.0147 -0.3104  0.6711
 2163TIP3    H228049   1.504   6.935   0.004 -0.9700 -0.3452 -1.1810
 2164TIP3   OH228050   5.903   2.331   2.483  0.0994 -0.9067 -0.3670
 2164TIP3    H128051   5.872   2.409   2.529  2.6322 -0.6090  1.0135
 2164TIP3    H228052   5.924   2.362   2.395  1.4498  0.1403  0.2828
 2165TIP3   OH228053   1.287   1.744   1.164  0.2276  0.0449  0.6076
 2165TIP3    H128054   1.216   1.696   1.120  0.3951  0.2992  0.0378
 2165TIP3    H228055   1.245   1.825   1.194 -0.1375 -0.6066  1.8885
 2166TIP3   OH228056   6.530   4.640   7.909  0.0049  0.0950  0.3038
 2166TIP3    H128057   6.481   4.585   7.848 -0.9575  0.3720  0.8047
 2166TIP3    H228058   6.481   4.722   7.912  0.8276  0.5993  0.3855
 2167TIP3   OH228059   0.655   1.872   8.289 -0.9319 -0.0617  0.0482
 2167TIP3    H128060   0.750   1.873   8.306 -0.7152  0.6308 -1.0603
 2167TIP3    H228061   0.631   1.780   8.293 -0.5045 -0.1333  1.7744
 2168TIP3   OH228062   0.079   1.387   7.880 -0.1075 -0.0700 -0.5034
 2168TIP3    H128063   0.042   1.302   7.855 -1.2324  0.5753 -1.1115
 2168TIP3    H228064   0.110   1.424   7.797 -1.4569  0.9644 -0.5689
 2169TIP3   OH228065   3.352   4.959   2.793 -0.0364  0.0381 -0.1407
 2169TIP3    H128066   3.256   4.962   2.796 -0.0847 -0.5011 -0.8717
 2169TIP3    H228067   3.380   5.007   2.871 -0.8848  1.6265 -0.7516
 2170TIP3   OH228068   1.463   4.167   1.466  0.6055  0.0310  0.1997
 2170TIP3    H128069   1.555   4.151   1.446  0.4460 -0.0774 -0.4959
 2170TIP3    H228070   1.415   4.106   1.408  0.0555  1.2047 -0.6257
 2171TIP3   OH228071   2.521   3.790   8.153 -0.4705 -0.1413  0.0408
 2171TIP3    H128072   2.481   3.871   8.123  0.0428  0.0941 -0.0036
 2171TIP3    H228073   2.472   3.721   8.107  1.5011  0.2523 -2.8626
 2172TIP3   OH228074   4.825   1.329   2.882 -0.1276 -0.4688 -0.5129
 2172TIP3    H128075   4.877   1.334   2.963 -0.3655  1.1544 -0.4363
 2172TIP3    H228076   4.737   1.306   2.912 -0.2612  0.3321 -0.2887
 2173TIP3   OH228077   2.465   2.321   1.360  0.0003  0.5584  0.5789
 2173TIP3    H128078   2.417   2.319   1.277 -0.2305  2.5753  0.6266
 2173TIP3    H228079   2.456   2.232   1.395 -0.0021 -0.3107 -1.4793
 2174TIP3   OH228080   1.680   2.363   0.903  0.1245  0.2184  0.0134
 2174TIP3    H128081   1.750   2.299   0.897 -2.0533 -2.2223 -1.0884
 2174TIP3    H228082   1.654   2.363   0.995 -1.2923 -2.2530 -0.3140
 2175TIP3   OH228083   4.976   5.410   1.638 -0.1765  0.0302  0.4671
 2175TIP3    H128084   4.999   5.364   1.557 -0.7213 -0.6987  0.7153
 2175TIP3    H228085   5.043   5.477   1.648 -0.1810  0.2242 -0.6703
 2176TIP3   OH228086   1.193   4.205   2.824 -0.6697 -0.0105 -0.7508
 2176TIP3    H128087   1.169   4.295   2.843  0.4303  0.1458 -0.0717
 2176TIP3    H228088   1.138   4.153   2.883  0.1575  0.3206  0.3500
 2177TIP3   OH228089   1.408   5.509   2.917 -0.5397  0.5112  0.3087
 2177TIP3    H128090   1.449   5.428   2.949  0.7842  1.1306  0.2041
 2177TIP3    H228091   1.414   5.570   2.990 -2.2440  0.3100  0.6651
 2178TIP3   OH228092   4.269   2.424   3.438 -0.2105 -0.7698  0.1610
 2178TIP3    H128093   4.184   2.406   3.398  0.8940 -1.2021 -2.1951
 2178TIP3    H228094   4.313   2.339   3.439  0.4790 -0.4196  0.6673
 2179TIP3   OH228095   1.027   0.178   1.547 -0.1765  0.4185 -0.1181
 2179TIP3    H128096   0.969   0.167   1.622 -0.7875  0.1615 -0.6134
 2179TIP3    H228097   1.020   0.271   1.525 -0.1337  0.4579  0.0362
 2180TIP3   OH228098   6.392   6.228   8.005 -0.0537 -0.3511 -0.0082
 2180TIP3    H128099   6.388   6.317   7.969 -0.2221 -0.6513 -0.7544
 2180TIP3    H228100   6.308   6.215   8.049 -0.0135 -0.1276  0.1339
 2181TIP3   OH228101   2.161   4.635   7.979 -0.3397  0.1174  0.0704
 2181TIP3    H128102   2.084   4.585   7.954  0.1385 -0.3441 -0.4912
 2181TIP3    H228103   2.201   4.662   7.897 -1.0662  2.2104  0.3256
 2182TIP3   OH228104   6.505   6.078   7.460 -0.3159  0.0997  0.4261
 2182TIP3    H128105   6.440   6.047   7.398 -1.6943 -1.0617  2.3584
 2182TIP3    H228106   6.567   6.005   7.469  0.9121  0.9262 -0.8506
 2183TIP3   OH228107   1.721   3.623   2.280  0.4517 -0.2419  0.2497
 2183TIP3    H128108   1.765   3.539   2.266 -0.0585 -0.6429  0.9825
 2183TIP3    H228109   1.790   3.679   2.316  0.9738 -0.1246 -0.9014
 2184TIP3   OH228110   0.365   4.090   0.508  0.6341 -0.1619 -0.2702
 2184TIP3    H128111   0.411   4.173   0.500  0.7249 -0.0122  1.4066
 2184TIP3    H228112   0.321   4.095   0.593 -1.4836 -0.7957 -1.2594
 2185TIP3   OH228113   5.871   4.970   8.019 -0.2362  0.4211 -0.5485
 2185TIP3    H128114   5.783   4.966   8.057 -0.6730  2.5123 -1.2231
 2185TIP3    H228115   5.926   4.921   8.081 -1.6026  0.4108  0.7126
 2186TIP3   OH228116   4.965   5.489   1.056 -0.4895 -0.0247  0.0385
 2186TIP3    H128117   5.055   5.481   1.089 -0.4113 -2.2446 -0.5423
 2186TIP3    H228118   4.975   5.526   0.969 -0.4343  2.5407  1.0377
 2187TIP3   OH228119   6.265   6.919   7.997 -0.3695  0.2672 -0.0690
 2187TIP3    H128120   6.254   6.994   7.938  0.4352  0.5648  0.1489
 2187TIP3    H228121   6.325   6.860   7.950  0.4679  0.6163  0.5439
 2188TIP3   OH228122   1.361   2.704   2.960  0.1945  0.1121  0.2637
 2188TIP3    H128123   1.404   2.638   2.907  1.0957 -0.6932  1.9022
 2188TIP3    H228124   1.281   2.661   2.991  1.5701 -0.9470  2.6777
 2189TIP3   OH228125   5.381   0.763   7.112  0.1340 -0.0553  0.2429
 2189TIP3    H128126   5.312   0.789   7.051 -1.3582 -0.0623  1.8659
 2189TIP3    H228127   5.442   0.837   7.111 -1.0902  0.9852  0.5013
 2190TIP3   OH228128   6.153   3.563   0.164  0.2504  0.1939 -0.0774
 2190TIP3    H128129   6.174   3.643   0.116 -0.6705  0.1000 -0.6656
 2190TIP3    H228130   6.059   3.569   0.181  0.3306 -0.3742  0.6177
 2191TIP3   OH228131   2.238   0.811   7.230 -0.6131  0.0481 -0.5567
 2191TIP3    H128132   2.310   0.806   7.166 -1.5981 -1.1251 -1.6208
 2191TIP3    H228133   2.173   0.868   7.189  0.1433  2.1091  0.9194
 2192TIP3   OH228134   4.384   4.880   3.241 -0.3468  0.2316 -0.1472
 2192TIP3    H128135   4.422   4.957   3.283  0.6159 -0.5281  0.4193
 2192TIP3    H228136   4.295   4.906   3.217  0.7021  2.3153 -2.1484
 2193TIP3   OH228137   1.254   2.566   0.587  0.4535  0.0254 -0.3104
 2193TIP3    H128138   1.192   2.608   0.528 -0.1331  2.7211  2.0123
 2193TIP3    H228139   1.200   2.515   0.647  0.6793  0.4472  0.2607
 2194TIP3   OH228140   0.656   6.708   0.238  0.0408 -0.1320  0.0410
 2194TIP3    H128141   0.611   6.682   0.157 -1.1240 -0.4642  0.7762
 2194TIP3    H228142   0.665   6.626   0.287 -1.7886  0.4535  1.4658
 2195TIP3   OH228143   2.044   1.829   2.689  0.5332  0.5575 -0.3956
 2195TIP3    H128144   2.074   1.744   2.658  0.0336  0.5276 -0.8113
 2195TIP3    H228145   2.119   1.888   2.674  1.1065  0.0702  0.4868
 2196TIP3   OH228146   6.518   0.770   7.261  0.5031  0.0755  0.0483
 2196TIP3    H128147   6.517   0.735   7.350  2.1283  0.8131  0.4095
 2196TIP3    H228148   6.573   0.709   7.212  0.8343  0.4606 -0.0655
 2197TIP3   OH228149   6.356   4.621   7.270 -0.1127 -0.0377 -0.5623
 2197TIP3    H128150   6.277   4.574   7.296  0.1681 -0.4814 -0.4979
 2197TIP3    H228151   6.388   4.661   7.351  1.1283 -1.9655 -0.0414
 2198TIP3   OH228152   4.066   2.236   8.371 -0.1730 -0.2670  0.2492
 2198TIP3    H128153   4.115   2.272   8.297  0.6173  0.8583  1.2709
 2198TIP3    H228154   3.987   2.291   8.377 -0.2362 -0.3567  0.2485
 2199TIP3   OH228155   4.366   6.393   3.371  0.7162  1.1749 -0.1564
 2199TIP3    H128156   4.371   6.386   3.466 -2.6790  0.0053  0.0760
 2199TIP3    H228157   4.388   6.485   3.353  2.0524  1.2684  1.6205
 2200TIP3   OH228158   5.668   2.610   7.168 -0.4979 -0.2903  0.6558
 2200TIP3    H128159   5.610   2.534   7.162  0.1058 -0.9137  2.1206
 2200TIP3    H228160   5.718   2.609   7.087 -2.9046  0.6421 -0.9467
 2201TIP3   OH228161   1.128   6.141   2.669  0.2555  0.3851 -0.4572
 2201TIP3    H128162   1.190   6.110   2.735  0.0740  4.7140  2.0944
 2201TIP3    H228163   1.168   6.118   2.586  2.6362 -1.5821  1.0995
 2202TIP3   OH228164   5.909   0.302   2.630  0.4456  0.3345 -0.2676
 2202TIP3    H128165   6.004   0.305   2.625  0.3765  0.7558 -1.7957
 2202TIP3    H228166   5.890   0.296   2.724  1.9361  1.7901  0.1685
 2203TIP3   OH228167   0.971   3.049   1.545  0.2908  0.1643 -0.6058
 2203TIP3    H128168   0.985   3.144   1.544 -2.4419  0.6753  1.1257
 2203TIP3    H228169   0.882   3.037   1.514 -0.1598 -1.6394  1.2069
 2204TIP3   OH228170   5.568   5.107   0.898 -0.0152 -0.0850  0.0903
 2204TIP3    H128171   5.626   5.054   0.844  2.2602  3.1707 -1.0265
 2204TIP3    H228172   5.601   5.096   0.987 -1.4397 -2.6185  0.3950
 2205TIP3   OH228173   0.873   6.441   3.276 -0.6129  0.1248  0.1267
 2205TIP3    H128174   0.968   6.428   3.284 -0.4006  1.2232 -0.3666
 2205TIP3    H228175   0.864   6.534   3.253 -1.8892  0.4752  1.8056
 2206TIP3   OH228176   1.604   2.913   6.926  0.5657  0.0627  0.3259
 2206TIP3    H128177   1.692   2.906   6.964 -0.0729 -0.1996  1.7981
 2206TIP3    H228178   1.603   2.999   6.884  0.8234  1.0508  2.2295
 2207TIP3   OH228179   4.611   3.737   2.961  0.1037 -0.2862 -0.1442
 2207TIP3    H128180   4.542   3.796   2.992 -2.4311 -2.7999 -0.5756
 2207TIP3    H228181   4.635   3.773   2.875 -2.2742 -0.4707 -0.9705
 2208TIP3   OH228182   6.069   6.839   3.058  0.1503 -0.3894  0.0753
 2208TIP3    H128183   5.995   6.894   3.083  0.0164 -0.1040 -0.9092
 2208TIP3    H228184   6.078   6.777   3.130  0.2024  0.8042  1.1517
 2209TIP3   OH228185   3.783   0.325   1.414 -0.3788 -0.7661  0.9498
 2209TIP3    H128186   3.791   0.309   1.320 -0.5782  0.4681  0.7005
 2209TIP3    H228187   3.689   0.318   1.432 -0.6063  0.9367  0.6396
 2210TIP3   OH228188   5.897   4.954   2.524  0.1224 -0.0651  0.0884
 2210TIP3    H128189   5.821   5.011   2.533 -0.5464 -1.1069  1.2605
 2210TIP3    H228190   5.868   4.885   2.464  0.1609 -0.4127  0.4635
 2211TIP3   OH228191   6.627   5.155   3.259 -0.0882 -0.1830 -0.5391
 2211TIP3    H128192   6.716   5.132   3.284 -0.6246 -0.1898  1.4800
 2211TIP3    H228193   6.590   5.074   3.225  0.3378 -0.4504 -0.3747
 2212TIP3   OH228194   0.144   4.929   2.593  0.8569  0.3010 -0.2872
 2212TIP3    H128195   0.117   5.020   2.584  1.2011  0.3432 -0.9492
 2212TIP3    H228196   0.231   4.933   2.632  0.6806  0.2296  0.1274
 2213TIP3   OH228197   1.488   1.026   0.262  0.3239  0.5956  0.4666
 2213TIP3    H128198   1.563   1.010   0.319  1.6516  1.7135 -0.8948
 2213TIP3    H228199   1.469   0.940   0.223  1.6643  0.5142 -0.0552
 2214TIP3   OH228200   5.215   5.052   7.653  0.6681 -0.2697  0.0856
 2214TIP3    H128201   5.239   4.986   7.589 -2.0323  0.6584 -2.0993
 2214TIP3    H228202   5.250   5.134   7.617 -2.8167  0.6312 -1.6368
 2215TIP3   OH228203   3.572   1.521   0.495 -0.0058 -0.7330  0.5490
 2215TIP3    H128204   3.479   1.500   0.501  0.0877 -1.9851 -1.4776
 2215TIP3    H228205   3.593   1.513   0.402  2.0394  0.0141  0.8819
 2216TIP3   OH228206   5.195   1.146   2.300 -0.1278 -0.3458  0.4949
 2216TIP3    H128207   5.234   1.106   2.223 -3.2045 -1.8683 -0.4680
 2216TIP3    H228208   5.150   1.224   2.267  0.5813  0.3977  1.2335
 2217TIP3   OH228209   0.606   1.111   0.027  0.3641  0.4208 -0.6412
 2217TIP3    H128210   0.639   1.182  -0.028  1.9459 -0.5917 -1.0672
 2217TIP3    H228211   0.623   1.031  -0.023 -0.9726 -0.3120  0.0126
 2218TIP3   OH228212   6.375   3.253   0.141  0.1802  0.6062 -0.2914
 2218TIP3    H128213   6.369   3.302   0.059  4.4196  0.6834 -0.7419
 2218TIP3    H228214   6.387   3.162   0.115  0.2848  0.4397  0.3124
 2219TIP3   OH228215   2.178   2.781   0.596  0.4196  0.3337 -1.0327
 2219TIP3    H128216   2.124   2.703   0.610 -0.0763  1.0619  1.9026
 2219TIP3    H228217   2.268   2.749   0.599  0.2226 -0.1935  0.1272
 2220TIP3   OH228218   2.391   1.701   0.460 -0.3624 -0.3055 -0.0077
 2220TIP3    H128219   2.400   1.634   0.393 -0.3121  0.1648 -0.4801
 2220TIP3    H228220   2.332   1.663   0.525 -0.1938 -0.8682 -0.1853
 2221TIP3   OH228221   6.920   1.303   2.548  0.2556  0.4566 -0.8576
 2221TIP3    H128222   6.919   1.313   2.643  0.3667 -0.2824 -0.7685
 2221TIP3    H228223   6.969   1.222   2.533 -0.9235 -0.1712 -1.4708
 2222TIP3   OH228224   1.573   0.441   1.374  0.4378  0.2010 -0.3046
 2222TIP3    H128225   1.665   0.431   1.350  0.4619  0.5784 -0.3731
 2222TIP3    H228226   1.549   0.529   1.344  0.5492  0.8284  1.2915
 2223TIP3   OH228227   0.444   0.983   7.957 -0.5174 -0.1816 -1.0106
 2223TIP3    H128228   0.527   0.989   7.909 -0.1099 -0.5821 -0.3775
 2223TIP3    H228229   0.403   0.903   7.925 -1.1241  0.5208 -2.0260
 2224TIP3   OH228230   5.414   1.546   2.740  0.0524 -0.6791  0.0203
 2224TIP3    H128231   5.466   1.610   2.788  1.0098 -0.2212 -1.5622
 2224TIP3    H228232   5.328   1.548   2.783  0.7340 -0.0365  1.4459
 2225TIP3   OH228233   5.105   3.744   8.303  0.0644  0.1491  0.0534
 2225TIP3    H128234   5.182   3.709   8.259 -0.7748 -0.5092 -0.9606
 2225TIP3    H228235   5.088   3.827   8.258 -0.0970  0.0560 -0.0584
 2226TIP3   OH228236   5.666   3.120   0.007  0.2322  0.5674 -0.3315
 2226TIP3    H128237   5.630   3.182  -0.056  0.3313  1.1882  0.2168
 2226TIP3    H228238   5.671   3.169   0.090  1.4297  0.2015 -0.1666
 2227TIP3   OH228239   2.044   1.530   2.463  0.3066 -0.0531  0.5267
 2227TIP3    H128240   2.116   1.527   2.400  0.0367  2.1676  0.0504
 2227TIP3    H228241   2.083   1.496   2.544  1.2784 -0.8625 -0.2502
 2228TIP3   OH228242   4.552   6.228   2.208 -0.5303 -0.6023 -0.2311
 2228TIP3    H128243   4.602   6.150   2.185 -1.0962 -0.8926 -0.4779
 2228TIP3    H228244   4.508   6.205   2.290  1.0198  0.2240  0.8930
 2229TIP3   OH228245   2.744   5.178   3.470 -0.4044 -0.7920  0.3616
 2229TIP3    H128246   2.838   5.177   3.454 -0.2646 -0.9435  1.1609
 2229TIP3    H228247   2.730   5.254   3.527 -1.0438  0.4113 -1.3384
 2230TIP3   OH228248   1.999   4.092   3.230  0.4669  0.6070  0.2254
 2230TIP3    H128249   2.069   4.055   3.284  1.0850  1.0218 -0.2831
 2230TIP3    H228250   1.919   4.074   3.280  0.9494  0.3081  0.9101
 2231TIP3   OH228251   4.710   4.090   2.224 -0.3197  0.2725 -0.0988
 2231TIP3    H128252   4.634   4.131   2.265  0.6158  0.1778  1.8514
 2231TIP3    H228253   4.760   4.054   2.297  1.2065 -0.3475 -1.3927
 2232TIP3   OH228254   3.953   1.599   3.265 -0.5311  0.3853  0.2610
 2232TIP3    H128255   3.877   1.540   3.266 -0.2495  0.0152  0.4917
 2232TIP3    H228256   3.961   1.626   3.174 -0.1011 -0.6965 -0.0424
 2233TIP3   OH228257   5.176   0.422   0.800  0.3108 -0.6450  0.1045
 2233TIP3    H128258   5.110   0.400   0.866 -0.4699 -1.0540 -0.7920
 2233TIP3    H228259   5.143   0.502   0.759  0.0123 -1.2226 -0.8056
 2234TIP3   OH228260   4.571   5.210   1.069  0.1365 -0.0569 -0.0307
 2234TIP3    H128261   4.662   5.241   1.068  0.1416 -0.0644 -1.0267
 2234TIP3    H228262   4.578   5.118   1.094  0.5132 -0.3336 -1.0923
 2235TIP3   OH228263   6.671   4.797   0.313 -0.4113 -0.2669 -0.4221
 2235TIP3    H128264   6.638   4.708   0.297 -0.0176 -0.3111 -1.0436
 2235TIP3    H228265   6.713   4.821   0.231 -1.0861  0.7521 -0.4881
 2236TIP3   OH228266   3.235   5.399   7.718  0.1701 -0.3729  0.1976
 2236TIP3    H128267   3.242   5.351   7.636  1.2157 -0.4617  0.3262
 2236TIP3    H228268   3.257   5.490   7.695 -0.8460 -0.1197  0.1422
 2237TIP3   OH228269   4.456   5.750   0.254 -0.3859  0.3411 -0.7116
 2237TIP3    H128270   4.485   5.837   0.279  1.6344  0.0752 -1.9177
 2237TIP3    H228271   4.501   5.691   0.314 -0.9774  0.0722 -0.5273
 2238TIP3   OH228272   1.500   2.138   7.760  0.3401  0.3539 -0.1265
 2238TIP3    H128273   1.430   2.078   7.785 -0.0844  1.5737  1.8487
 2238TIP3    H228274   1.577   2.106   7.806  1.3470 -1.3339 -2.7563
 2239TIP3   OH228275   1.057   5.662   7.749 -0.1024 -0.0057  0.0895
 2239TIP3    H128276   1.030   5.579   7.787 -1.8451  0.8439  0.8231
 2239TIP3    H228277   1.054   5.725   7.821 -1.4255  1.2110 -0.9546
 2240TIP3   OH228278   2.343   3.075   2.726  0.2350 -0.0728 -0.2791
 2240TIP3    H128279   2.434   3.081   2.695 -0.2124 -1.8125 -2.1944
 2240TIP3    H228280   2.340   2.992   2.774 -0.7456 -1.0817 -1.9921
 2241TIP3   OH228281   5.720   6.282   2.452  0.0396  0.2857  0.1516
 2241TIP3    H128282   5.789   6.251   2.511 -0.4469  1.0365  1.1421
 2241TIP3    H228283   5.720   6.377   2.463 -1.4044  0.2646  0.4532
 2242TIP3   OH228284   2.836   0.425   1.525 -0.2115 -0.4928  0.1487
 2242TIP3    H128285   2.869   0.514   1.532 -1.4615  0.0718 -0.7602
 2242TIP3    H228286   2.864   0.382   1.606  0.4468  0.7054  0.5667
 2243TIP3   OH228287   4.362   3.354   0.105 -0.5016  0.5228  0.0317
 2243TIP3    H128288   4.441   3.385   0.062 -0.4313  0.6329  0.2378
 2243TIP3    H228289   4.291   3.385   0.050 -0.3552 -1.0514 -1.1056
 2244TIP3   OH228290   1.075   3.859   1.775  0.1754  0.2597  0.0688
 2244TIP3    H128291   1.081   3.836   1.868  0.8337 -0.1631 -0.0687
 2244TIP3    H228292   1.159   3.832   1.738 -0.2921 -0.1136 -0.7641
 2245TIP3   OH228293   0.759   3.657   2.433  0.1004 -0.2544 -0.1209
 2245TIP3    H128294   0.806   3.740   2.434 -0.3468  0.0054 -0.1975
 2245TIP3    H228295   0.681   3.674   2.380  0.3217 -0.9048 -0.6647
 2246TIP3   OH228296   0.611   1.315   2.083  0.2120  0.0845 -0.0374
 2246TIP3    H128297   0.636   1.222   2.075 -0.5661 -0.1059 -0.3761
 2246TIP3    H228298   0.522   1.313   2.118 -0.1938  0.6639 -0.9978
 2247TIP3   OH228299   3.782   5.560   7.918 -0.2551  0.7582 -0.1358
 2247TIP3    H128300   3.839   5.525   7.849 -1.8974 -0.3967 -1.0042
 2247TIP3    H228301   3.775   5.653   7.899 -1.6962  0.2755 -2.4345
 2248TIP3   OH228302   0.670   4.220   1.470  0.5468 -0.0598  0.8617
 2248TIP3    H128303   0.723   4.164   1.414  0.9981  0.1098  1.1197
 2248TIP3    H228304   0.638   4.288   1.412 -0.5091 -0.9125  0.4079
 2249TIP3   OH228305   6.271   4.606   0.164 -0.3728  0.5153 -0.0340
 2249TIP3    H128306   6.312   4.668   0.225  1.2291 -2.0822  1.7417
 2249TIP3    H228307   6.177   4.621   0.173 -0.0450  2.2487  0.7839
 2250TIP3   OH228308   4.687   5.089   1.454 -0.2988  0.2459 -0.0317
 2250TIP3    H128309   4.646   5.166   1.493 -0.5061  0.2917 -0.3360
 2250TIP3    H228310   4.742   5.052   1.524  0.3764  1.0792 -0.1096
 2251TIP3   OH228311   3.981   1.508   0.632 -0.6580 -0.4147 -0.4676
 2251TIP3    H128312   3.997   1.595   0.596 -0.2929 -0.1332  0.3630
 2251TIP3    H228313   3.996   1.517   0.726 -0.3350 -1.4457 -0.4080
 2252TIP3   OH228314   6.497   2.457   0.835  0.2941  0.1450 -0.2564
 2252TIP3    H128315   6.561   2.489   0.771  0.3239  0.5017 -0.0509
 2252TIP3    H228316   6.432   2.528   0.841  1.6659  1.3206  2.0633
 2253TIP3   OH228317   0.612   5.288   0.577  0.5113 -0.0698 -0.1925
 2253TIP3    H128318   0.697   5.244   0.572  0.8146  0.5091 -0.2972
 2253TIP3    H228319   0.597   5.301   0.670  0.5610 -0.1349 -0.1752
 2254TIP3   OH228320   6.507   1.840   7.850  0.4117 -0.2443  0.1900
 2254TIP3    H128321   6.593   1.804   7.873  0.1196 -1.0400  0.0928
 2254TIP3    H228322   6.489   1.803   7.763 -0.2608 -0.5119  0.4414
 2255TIP3   OH228323   0.493   5.185   7.931 -0.0525 -0.0880  0.5149
 2255TIP3    H128324   0.513   5.168   7.839  0.9599 -1.5347  0.9704
 2255TIP3    H228325   0.423   5.124   7.953 -3.8061  3.4533 -0.4699
 2256TIP3   OH228326   5.539   3.831   0.202 -0.1606 -0.2441  0.3479
 2256TIP3    H128327   5.538   3.872   0.116  1.8182 -0.3244  0.2302
 2256TIP3    H228328   5.477   3.882   0.254 -1.3864 -0.1961 -1.1061
 2257TIP3   OH228329   1.000   5.115   0.894 -0.3519 -0.5265  0.5332
 2257TIP3    H128330   0.936   5.060   0.940 -0.0996  0.1873  1.7530
 2257TIP3    H228331   0.980   5.204   0.922 -1.0920  0.1279 -1.8212
 2258TIP3   OH228332   6.673   6.673   8.015 -0.2650 -0.3624 -0.0757
 2258TIP3    H128333   6.720   6.752   8.042 -1.5394  0.2523  0.4045
 2258TIP3    H228334   6.602   6.664   8.078 -1.8095 -0.3100 -1.7192
 2259TIP3   OH228335   2.931   6.664   1.878 -0.3003 -0.2192 -0.2170
 2259TIP3    H128336   2.929   6.601   1.950  0.5471  0.6260  0.5677
 2259TIP3    H228337   2.846   6.707   1.881  0.2473  0.8476  1.2605
 2260TIP3   OH228338   4.841   4.055   1.600 -0.4447 -0.0150 -0.0504
 2260TIP3    H128339   4.780   4.024   1.533  0.9492 -2.2235 -0.3982
 2260TIP3    H228340   4.917   4.087   1.552 -0.0642 -0.1865  0.4201
 2261TIP3   OH228341   0.163   0.655   8.415 -0.2010  0.1472  0.2106
 2261TIP3    H128342   0.151   0.604   8.335  0.6352  0.2558  0.0081
 2261TIP3    H228343   0.197   0.591   8.479 -2.2565 -0.2933  0.9507
 2262TIP3   OH228344   6.695   1.599   2.511  0.1434 -0.6267 -0.1248
 2262TIP3    H128345   6.681   1.562   2.424 -1.5126  0.1281 -0.2120
 2262TIP3    H228346   6.760   1.669   2.497  0.1548 -0.7470 -0.6861
 2263TIP3   OH228347   6.723   3.985   1.016  0.4318 -0.3515  0.2152
 2263TIP3    H128348   6.661   3.922   1.052  2.1911 -1.3169  1.7219
 2263TIP3    H228349   6.725   4.056   1.080 -0.7000  0.7561 -0.9215
 2264TIP3   OH228350   3.654   3.150   0.694 -0.0894 -0.1365 -0.0374
 2264TIP3    H128351   3.736   3.189   0.724  0.1953 -1.0118  0.3516
 2264TIP3    H228352   3.625   3.207   0.623 -0.3585  1.5160  1.3322
 2265TIP3   OH228353   3.248   2.767   1.017  0.4470 -0.5415 -0.5375
 2265TIP3    H128354   3.340   2.781   1.039  0.7501 -0.8663 -1.5236
 2265TIP3    H228355   3.211   2.722   1.093  1.5505 -2.0000 -0.8123
 2266TIP3   OH228356   3.876   4.664   6.980  0.4392 -0.1510  0.1629
 2266TIP3    H128357   3.905   4.744   6.935 -0.5894 -0.4245 -1.0643
 2266TIP3    H228358   3.835   4.695   7.061 -0.2368  0.6135 -0.4540
 2267TIP3   OH228359   2.635   2.986   0.690 -0.3040 -0.7652 -0.1993
 2267TIP3    H128360   2.559   3.024   0.735 -1.4568 -1.6252 -1.3238
 2267TIP3    H228361   2.652   2.905   0.737  1.9515  0.8285  1.9960
 2268TIP3   OH228362   4.770   1.178   2.204 -0.1880  0.4782  0.5673
 2268TIP3    H128363   4.782   1.139   2.117 -1.0613  0.7730  0.3076
 2268TIP3    H228364   4.793   1.270   2.193  2.8708 -0.0833  1.4141
 2269TIP3   OH228365   5.052   4.227   0.604 -0.0605 -0.4155 -0.1199
 2269TIP3    H128366   5.073   4.136   0.621  1.4557  0.0775  0.8099
 2269TIP3    H228367   5.050   4.268   0.690  2.7715  1.1187 -0.6743
 2270TIP3   OH228368   4.481   1.734   7.701  0.0395  0.4275 -0.2676
 2270TIP3    H128369   4.497   1.782   7.620  0.9196 -0.2076 -0.4820
 2270TIP3    H228370   4.482   1.642   7.675  0.9654  0.1848  0.5551
 2271TIP3   OH228371   2.580   1.978   1.200  0.1715 -0.2225  0.0498
 2271TIP3    H128372   2.512   1.968   1.266 -0.1056  0.7179 -0.0761
 2271TIP3    H228373   2.661   1.955   1.245  0.0564  0.9662  0.8883
 2272TIP3   OH228374   3.035   1.429   2.725  0.1734  0.2372 -0.7927
 2272TIP3    H128375   3.122   1.407   2.761  0.1199 -0.9396 -1.3556
 2272TIP3    H228376   2.987   1.347   2.727 -1.6457  1.2587  1.3635
 2273TIP3   OH228377   6.159   4.005   0.172 -0.3780  0.2407 -0.0684
 2273TIP3    H128378   6.254   4.010   0.177 -0.3837  0.7948 -0.4468
 2273TIP3    H228379   6.141   3.918   0.135 -0.0463 -0.1218  0.6135
 2274TIP3   OH228380   4.005   6.563   7.775  0.4140  0.2486  0.2334
 2274TIP3    H128381   3.993   6.468   7.781 -0.7020  0.3996  0.6595
 2274TIP3    H228382   4.078   6.582   7.834  0.7316 -0.3615  0.0388
 2275TIP3   OH228383   3.653   1.846   8.274 -0.4427 -0.2097  0.0236
 2275TIP3    H128384   3.637   1.802   8.190  1.0281  0.5677 -0.7098
 2275TIP3    H228385   3.748   1.850   8.281 -0.5472 -0.0666  1.6464
 2276TIP3   OH228386   0.154   6.044   2.298 -0.8162 -0.1113 -0.3202
 2276TIP3    H128387   0.184   5.968   2.247 -2.0464 -0.6549 -0.2646
 2276TIP3    H228388   0.173   6.119   2.243 -0.3745 -0.5346 -0.7546
 2277TIP3   OH228389   4.039   0.114   2.241 -0.3164 -0.9298 -0.0129
 2277TIP3    H128390   4.129   0.087   2.263 -0.1201 -0.3162 -0.0475
 2277TIP3    H228391   3.984   0.059   2.297  0.1524  0.3753  1.8317
 2278TIP3   OH228392   3.064   2.887   2.715 -0.2891  0.0163 -0.1858
 2278TIP3    H128393   3.086   2.841   2.796  0.1586  1.2730  0.4467
 2278TIP3    H228394   3.091   2.828   2.645  0.9675 -0.3728  0.5933
 2279TIP3   OH228395   5.273   4.204   2.268 -0.0933 -0.1046  0.0466
 2279TIP3    H128396   5.228   4.219   2.351  1.3112 -0.7009  0.9566
 2279TIP3    H228397   5.361   4.237   2.283  0.4979 -1.2256 -0.8273
 2280TIP3   OH228398   4.265   2.053   8.333 -0.7592 -0.0987  0.5156
 2280TIP3    H128399   4.170   2.049   8.339 -1.2261  0.3892 -3.4491
 2280TIP3    H228400   4.282   2.073   8.241  3.2058  0.0219  1.0943
 2281TIP3   OH228401   4.812   5.477   1.844  1.0198  0.9221  0.1300
 2281TIP3    H128402   4.872   5.460   1.771 -0.7459 -0.9040 -0.9856
 2281TIP3    H228403   4.857   5.442   1.921  2.1717  1.3216 -0.3300
 2282TIP3   OH228404   5.953   5.939   1.141 -0.1130 -0.3366  1.0316
 2282TIP3    H128405   5.979   5.962   1.052  1.0498 -0.9555  1.1840
 2282TIP3    H228406   5.888   6.004   1.165 -2.5412 -1.7466 -1.2495
 2283TIP3   OH228407   4.542   4.215   1.314 -0.4411  0.3072 -0.1766
 2283TIP3    H128408   4.498   4.131   1.322  1.1894 -0.9562 -3.0118
 2283TIP3    H228409   4.477   4.274   1.276 -0.9470 -0.3082 -0.2684
 2284TIP3   OH228410   6.356   2.259   8.247  0.0068  0.3070  0.3482
 2284TIP3    H128411   6.385   2.344   8.217  0.6710  0.1587  0.5630
 2284TIP3    H228412   6.360   2.264   8.342 -1.2134  0.4683  0.4098
 2285TIP3   OH228413   2.628   4.793   0.490 -0.2779  0.0381  0.2052
 2285TIP3    H128414   2.722   4.800   0.475 -0.2471  0.6637  0.6686
 2285TIP3    H228415   2.595   4.747   0.413  0.7721 -2.7636  1.3021
 2286TIP3   OH228416   2.609   6.688   1.404  0.5119  0.3742 -0.8414
 2286TIP3    H128417   2.612   6.594   1.386 -1.1777  0.2419 -0.5422
 2286TIP3    H228418   2.683   6.723   1.354 -0.5541 -0.7275 -3.4128
 2287TIP3   OH228419   5.438   5.566   7.795 -0.7175 -0.2458 -0.6396
 2287TIP3    H128420   5.486   5.513   7.860 -1.0870  1.0116  0.7125
 2287TIP3    H228421   5.470   5.534   7.711 -0.1491 -1.8869  0.1426
 2288TIP3   OH228422   0.712   5.864   2.035  0.2359  0.3080  0.4648
 2288TIP3    H128423   0.647   5.867   1.965 -0.5020 -0.0593  1.1345
 2288TIP3    H228424   0.790   5.827   1.992 -0.1196  0.3363 -0.2264
 2289TIP3   OH228425   5.581   5.533   0.040  0.7336 -0.3285  0.0936
 2289TIP3    H128426   5.486   5.525   0.036  0.8547 -1.3743 -1.9458
 2289TIP3    H228427   5.609   5.459   0.094  0.3742  0.5456  1.5366
 2290TIP3   OH228428   6.059   5.023   1.153 -0.4246  0.3752 -0.2256
 2290TIP3    H128429   6.059   5.035   1.248  0.1985 -0.7559 -0.0651
 2290TIP3    H228430   6.038   5.110   1.118  0.4639  1.0805  0.9210
 2291TIP3   OH228431   4.605   2.492   1.810 -0.6860  0.6268  0.8372
 2291TIP3    H128432   4.526   2.460   1.853 -0.8371  1.8768  1.5533
 2291TIP3    H228433   4.611   2.584   1.837 -0.4322  1.2961 -1.3064
 2292TIP3   OH228434   1.779   5.624   3.013  0.4068  0.1445 -0.0191
 2292TIP3    H128435   1.857   5.679   3.017  1.1509 -0.8761 -0.2394
 2292TIP3    H228436   1.782   5.571   3.092 -0.9724  1.2547  0.8318
 2293TIP3   OH228437   0.794   2.656   2.874 -0.3406  0.2776 -0.2778
 2293TIP3    H128438   0.817   2.690   2.961  1.3569  1.1380 -1.0041
 2293TIP3    H228439   0.765   2.733   2.825 -2.2304 -0.3586 -0.2197
 2294TIP3   OH228440   0.867   3.829   2.071  0.4917  0.3839  0.3195
 2294TIP3    H128441   0.948   3.879   2.059  0.1084  1.1186  0.7072
 2294TIP3    H228442   0.893   3.755   2.126  1.0376  0.2219 -0.1431
 2295TIP3   OH228443   1.608   5.917   7.726  0.5486  0.3088  0.0640
 2295TIP3    H128444   1.637   5.984   7.787 -1.2214  0.4207  0.8247
 2295TIP3    H228445   1.680   5.853   7.725  1.3048  1.1162  0.9981
 2296TIP3   OH228446   3.954   0.043   1.354  0.1368  0.7215 -0.5261
 2296TIP3    H128447   4.024   0.094   1.312  0.2573  0.0639 -1.1306
 2296TIP3    H228448   3.963  -0.045   1.318  0.6826 -0.0555  1.3887
 2297TIP3   OH228449   0.592   6.912   0.782  0.2340  0.1246 -0.1281
 2297TIP3    H128450   0.609   6.972   0.709 -1.7526  0.2135 -0.5724
 2297TIP3    H228451   0.504   6.935   0.811  0.0873 -1.4771  0.7817
 2298TIP3   OH228452   5.441   0.783   2.441 -0.5427 -0.0208 -0.6755
 2298TIP3    H128453   5.534   0.766   2.453 -0.0244  1.1803 -2.5163
 2298TIP3    H228454   5.432   0.804   2.348 -2.9774 -1.9560 -1.0039
 2299TIP3   OH228455   0.234   4.333   6.975  0.1968 -0.3725 -0.5919
 2299TIP3    H128456   0.146   4.337   7.013  0.9415  0.3931  1.1535
 2299TIP3    H228457   0.235   4.403   6.910 -0.8829 -1.2367 -1.5725
 2300TIP3   OH228458   2.390   1.573   3.113 -0.6068 -0.1302  0.5214
 2300TIP3    H128459   2.295   1.565   3.109 -0.5333 -1.2395  0.7451
 2300TIP3    H228460   2.409   1.595   3.204 -0.5932 -0.8524  0.6967
 2301TIP3   OH228461   6.649   6.244   2.970  0.7794  0.2261 -0.2790
 2301TIP3    H128462   6.590   6.319   2.961  1.4061  0.5691 -2.0010
 2301TIP3    H228463   6.715   6.272   3.034 -0.3948  0.1710  0.9789
 2302TIP3   OH228464   5.766   6.261   7.985  0.1329 -0.5257  0.0381
 2302TIP3    H128465   5.807   6.317   8.051 -1.1978  0.9126 -0.3127
 2302TIP3    H228466   5.739   6.321   7.916 -3.4509 -1.1591  0.6956
 2303TIP3   OH228467   2.645   2.506   1.523 -0.3830 -0.5440  0.4931
 2303TIP3    H128468   2.578   2.472   1.464  0.0387 -2.0771  0.8617
 2303TIP3    H228469   2.617   2.479   1.610  1.1006 -1.9674  0.5862
 2304TIP3   OH228470   2.283   2.930   1.919 -0.0644  0.2769 -0.2130
 2304TIP3    H128471   2.236   2.999   1.872 -0.5399 -0.7109 -1.2265
 2304TIP3    H228472   2.373   2.934   1.886  0.2614  1.2718  0.7268
 2305TIP3   OH228473   0.769   4.452   7.419 -0.1964  0.4990 -0.5355
 2305TIP3    H128474   0.858   4.485   7.430 -0.3895  0.6063  0.8495
 2305TIP3    H228475   0.777   4.384   7.351  0.7562  1.1755 -1.1173
 2306TIP3   OH228476   5.537   5.368   0.841 -0.4292  0.0081  0.2208
 2306TIP3    H128477   5.606   5.395   0.780 -0.3462  0.5621  0.5528
 2306TIP3    H228478   5.537   5.273   0.837  0.4194 -0.0013  0.2768
 2307TIP3   OH228479   3.588   4.233   2.238  0.0038 -0.0829  0.6610
 2307TIP3    H128480   3.662   4.242   2.299 -0.7461  0.9111  1.4599
 2307TIP3    H228481   3.546   4.319   2.239  0.3036  0.1438 -1.7418
 2308TIP3   OH228482   5.857   1.864   2.436  0.2271  0.2817 -0.3814
 2308TIP3    H128483   5.899   1.793   2.388 -0.4050 -1.0498  0.9650
 2308TIP3    H228484   5.765   1.861   2.409  0.2689  0.8795 -0.6219
 2309TIP3   OH228485   5.438   6.897   7.879  0.5052 -0.4903  0.2826
 2309TIP3    H128486   5.379   6.944   7.820  0.4026 -0.5046  0.3744
 2309TIP3    H228487   5.442   6.808   7.844  0.6250 -0.4392  0.1642
 2310TIP3   OH228488   0.642   4.171   2.933  0.0293  0.4913  0.2978
 2310TIP3    H128489   0.675   4.093   2.888 -0.1845  0.0712  0.8564
 2310TIP3    H228490   0.550   4.152   2.950  0.0130  0.8023  0.5717
 2311TIP3   OH228491   6.638   5.425   2.115 -0.4469  0.2466  0.0519
 2311TIP3    H128492   6.653   5.345   2.065  0.2520  0.5674 -0.2662
 2311TIP3    H228493   6.582   5.398   2.188 -0.1093 -0.5598  0.0210
 2312TIP3   OH228494   4.077   1.623   1.417  0.0922 -0.2310 -0.5642
 2312TIP3    H128495   4.149   1.683   1.400  0.2481 -0.4723 -0.7472
 2312TIP3    H228496   4.032   1.615   1.333  0.2299 -0.5794 -0.6065
 2313TIP3   OH228497   6.365   3.003   0.027 -0.0749  0.0706  0.1749
 2313TIP3    H128498   6.293   3.040  -0.024  0.4376  0.3671 -0.3364
 2313TIP3    H228499   6.322   2.941   0.086 -0.8174  0.6619  0.2805
 2314TIP3   OH228500   3.151   1.714   1.122  0.2326 -0.1155  0.1131
 2314TIP3    H128501   3.069   1.669   1.145  0.4879 -0.3011  0.6759
 2314TIP3    H228502   3.195   1.728   1.206  0.4124  0.6934 -0.1110
 2315TIP3   OH228503   1.670   1.496   3.086  0.4515  0.0075 -0.2277
 2315TIP3    H128504   1.652   1.575   3.136 -1.6021 -0.2150 -0.5368
 2315TIP3    H228505   1.762   1.504   3.060 -0.1346  3.1375 -1.7315
 2316TIP3   OH228506   3.211   4.576   0.986 -0.6111  0.0878 -0.5355
 2316TIP3    H128507   3.208   4.523   0.906 -3.1870 -1.0496  0.2228
 2316TIP3    H228508   3.137   4.545   1.039 -0.0945  2.0575  1.5096
 2317TIP3   OH228509   0.771   5.684   0.059  0.0463  0.5201  0.7989
 2317TIP3    H128510   0.705   5.616   0.073  0.5636  0.0449  0.9589
 2317TIP3    H228511   0.723   5.766   0.072 -0.7367  0.2148 -0.0149
 2318TIP3   OH228512   4.254   2.747   2.791 -0.5663 -0.8910 -0.0345
 2318TIP3    H128513   4.266   2.755   2.886  0.9561 -0.6040 -0.2208
 2318TIP3    H228514   4.180   2.804   2.772  0.2378  0.4974  0.7760
 2319TIP3   OH228515   0.292   5.437   7.785  0.4387  0.3097  0.4318
 2319TIP3    H128516   0.381   5.413   7.762 -0.2205 -2.5480  0.5388
 2319TIP3    H228517   0.237   5.390   7.723 -1.0600 -0.3922  2.1751
 2320TIP3   OH228518   1.480   5.853   8.032 -0.1024  0.0749  0.4524
 2320TIP3    H128519   1.440   5.917   7.973 -0.7347  0.0376  0.8293
 2320TIP3    H228520   1.433   5.865   8.115  0.8024  0.1629  0.9625
 2321TIP3   OH228521   3.901   1.643   2.010  0.0427 -0.0575  0.1228
 2321TIP3    H128522   3.918   1.713   1.947 -0.4054 -0.2072 -0.1733
 2321TIP3    H228523   3.977   1.643   2.067 -0.2248  1.0705  0.5041
 2322TIP3   OH228524   4.478   3.200   1.713  0.3660  0.4926  0.2235
 2322TIP3    H128525   4.463   3.282   1.760  0.6421  0.4365  0.4171
 2322TIP3    H228526   4.484   3.133   1.782 -2.6032 -0.1689 -0.0473
 2323TIP3   OH228527   3.782   1.120   0.365  0.5667 -0.6234 -0.1008
 2323TIP3    H128528   3.807   1.195   0.419  0.5516 -0.3731 -0.4400
 2323TIP3    H228529   3.694   1.097   0.395  0.7038 -0.7158  0.2322
 2324TIP3   OH228530   6.430   1.060   2.095 -0.3361  0.4720  0.2363
 2324TIP3    H128531   6.365   1.035   2.030  0.4738 -2.2196  0.3159
 2324TIP3    H228532   6.399   1.142   2.131 -1.8613  1.0025 -2.1128
 2325TIP3   OH228533   4.117   5.318   3.437  0.0880  0.4298  0.0121
 2325TIP3    H128534   4.032   5.350   3.408  0.7374  1.3939 -0.8991
 2325TIP3    H228535   4.097   5.243   3.493 -1.3044 -0.8434 -2.0398
 2326TIP3   OH228536   3.972   2.682   0.852  0.0400  0.1094 -0.5264
 2326TIP3    H128537   4.029   2.669   0.927 -0.3461  2.3977  0.2259
 2326TIP3    H228538   4.024   2.735   0.792 -0.8725  1.2336 -0.3364
 2327TIP3   OH228539   2.983   1.750   0.608 -0.0495  0.1809 -0.2562
 2327TIP3    H128540   2.901   1.782   0.570 -0.5074 -2.4069 -1.6817
 2327TIP3    H228541   2.986   1.790   0.695 -2.3278  1.1104 -0.5329
 2328TIP3   OH228542   1.983   0.388   1.960 -1.0701  0.1148 -0.2492
 2328TIP3    H128543   2.008   0.327   1.890 -0.3605 -1.1113  1.0007
 2328TIP3    H228544   1.888   0.383   1.965 -1.1165  0.1546 -1.0635
 2329TIP3   OH228545   1.390   4.183   0.567  0.7654 -0.2524 -0.5849
 2329TIP3    H128546   1.441   4.208   0.644  1.6543 -2.9609 -0.1671
 2329TIP3    H228547   1.307   4.151   0.603 -0.5530  2.2975 -1.1326
 2330TIP3   OH228548   5.024   5.063   0.655 -0.3717  0.0025 -0.3236
 2330TIP3    H128549   5.099   5.100   0.702 -1.5522  0.7765  1.0585
 2330TIP3    H228550   5.063   5.013   0.584  1.4322  0.9259 -0.0654
 2331TIP3   OH228551   4.346   0.440   7.398 -0.3559  0.4926  0.1225
 2331TIP3    H128552   4.438   0.457   7.417 -0.6572 -0.0551  2.3657
 2331TIP3    H228553   4.303   0.524   7.409 -0.1441  0.7640 -0.9960
 2332TIP3   OH228554   1.185   2.617   2.671  0.1520  0.4984  0.3332
 2332TIP3    H128555   1.164   2.533   2.712 -1.4540  0.3882 -0.6377
 2332TIP3    H228556   1.152   2.682   2.733 -0.6361  0.3618  0.0704
 2333TIP3   OH228557   4.575   5.417   8.223 -0.3234  0.0076  0.8965
 2333TIP3    H128558   4.623   5.348   8.178 -0.3790 -0.5391  1.6485
 2333TIP3    H228559   4.489   5.419   8.181 -0.2940 -0.3263  0.8232
 2334TIP3   OH228560   2.045   3.750   7.521 -0.7357  0.3945 -0.2606
 2334TIP3    H128561   1.970   3.697   7.549  0.5351 -1.8313 -0.8231
 2334TIP3    H228562   2.069   3.800   7.598 -1.0731 -1.0214  0.8098
 2335TIP3   OH228563   2.638   0.154   7.764  0.4333  0.0748  0.0909
 2335TIP3    H128564   2.624   0.140   7.857 -2.7054  2.5207  0.1604
 2335TIP3    H228565   2.707   0.220   7.759 -0.3672  0.9972  0.8142
 2336TIP3   OH228566   0.986   6.755   2.521 -0.0437  0.3510  0.3365
 2336TIP3    H128567   0.992   6.803   2.604  0.2599  1.1933 -0.1571
 2336TIP3    H228568   0.961   6.822   2.457  0.3465 -0.1642 -0.3605
 2337TIP3   OH228569   1.786   5.522   0.874 -0.0699  0.0088 -0.7683
 2337TIP3    H128570   1.743   5.546   0.792 -1.0239 -2.8255 -1.1958
 2337TIP3    H228571   1.753   5.434   0.894  1.0235  0.1344  2.0639
 2338TIP3   OH228572   4.054   2.017   0.518 -0.2357 -0.1293  0.0242
 2338TIP3    H128573   4.090   2.085   0.575  1.0136 -1.6399  1.0968
 2338TIP3    H228574   4.124   1.997   0.456 -0.7705 -0.1218 -0.5995
 2339TIP3   OH228575   6.386   0.771   0.144 -0.2572 -0.2440  0.1712
 2339TIP3    H128576   6.319   0.838   0.134 -0.1296 -0.1325  0.0572
 2339TIP3    H228577   6.338   0.693   0.172 -0.7943 -0.8774 -2.2750
 2340TIP3   OH228578   4.651   3.438   1.148 -0.1881 -0.2901 -0.4473
 2340TIP3    H128579   4.622   3.440   1.056 -1.8009 -2.0482 -0.0219
 2340TIP3    H228580   4.577   3.402   1.196  0.4136  1.1165  1.6790
 2341TIP3   OH228581   4.283   6.658   3.107  0.2014 -0.3185 -0.5580
 2341TIP3    H128582   4.340   6.649   3.183 -0.6183  0.0721  0.1105
 2341TIP3    H228583   4.339   6.698   3.040  1.0844 -1.1709 -0.3582
 2342TIP3   OH228584   4.705   4.439   2.488 -0.1746 -0.4902  0.1689
 2342TIP3    H128585   4.784   4.387   2.502  0.8415  0.5876 -1.2724
 2342TIP3    H228586   4.694   4.488   2.569  0.5388 -0.7725  0.4478
 2343TIP3   OH228587   6.323   4.094   7.561 -0.4193  0.2816  0.1644
 2343TIP3    H128588   6.268   4.134   7.629  0.8556  1.1784  0.7150
 2343TIP3    H228589   6.295   4.138   7.480 -1.4977 -0.3264  0.1852
 2344TIP3   OH228590   0.180   4.394   0.563 -0.2437  0.1016  1.1483
 2344TIP3    H128591   0.132   4.323   0.604 -0.2073  0.2744  1.4952
 2344TIP3    H228592   0.269   4.387   0.598  0.0984 -0.4611  0.2055
 2345TIP3   OH228593   4.704   0.852   1.287 -0.6365  0.3226  0.0489
 2345TIP3    H128594   4.622   0.900   1.302  0.4921  1.8714  1.8039
 2345TIP3    H228595   4.703   0.831   1.194 -2.2255  1.8923 -0.3428
 2346TIP3   OH228596   1.133   5.025   1.314 -0.0882 -0.7440  0.2347
 2346TIP3    H128597   1.073   5.099   1.318  0.1016 -0.5399 -0.4490
 2346TIP3    H228598   1.219   5.065   1.299  0.1505 -1.0566  0.7397
 2347TIP3   OH228599   0.277   6.005   8.219 -0.2278 -0.3144  0.0444
 2347TIP3    H128600   0.267   6.020   8.313  0.3563  1.8356 -0.1739
 2347TIP3    H228601   0.277   6.093   8.181  1.5201 -1.0239 -1.7594
 2348TIP3   OH228602   1.083   6.926   2.747  0.0785  0.0521  0.0193
 2348TIP3    H128603   1.045   6.871   2.817 -0.7723 -0.6653 -0.9687
 2348TIP3    H228604   1.019   6.996   2.735 -0.2272 -0.3362 -0.6514
 2349TIP3   OH228605   0.893   6.034   2.817 -0.6851  0.3102 -0.3661
 2349TIP3    H128606   0.949   6.053   2.742 -0.9608  1.6946 -0.2369
 2349TIP3    H228607   0.861   5.945   2.800  0.5807 -0.0385 -1.0350
 2350TIP3   OH228608   3.665   4.839   1.889 -0.6403  1.1067  0.0002
 2350TIP3    H128609   3.646   4.933   1.888  1.1124  1.4812 -1.7282
 2350TIP3    H228610   3.757   4.833   1.912 -0.9962 -0.2891  1.2159
 2351TIP3   OH228611   4.128   4.343   1.315 -0.3209  0.4215 -0.2850
 2351TIP3    H128612   4.214   4.385   1.319 -0.5165  0.9404 -1.2250
 2351TIP3    H228613   4.068   4.407   1.352 -0.0797 -0.6861  2.1981
 2352TIP3   OH228614   1.674   1.102   0.480 -0.2489  0.0695 -0.4028
 2352TIP3    H128615   1.675   1.184   0.529 -0.0637  0.4804 -1.0800
 2352TIP3    H228616   1.585   1.069   0.490  0.0394 -0.3560  1.0107
 2353TIP3   OH228617   3.422   1.084   8.333  0.8730 -0.3656 -0.1667
 2353TIP3    H128618   3.509   1.057   8.360  0.9946 -2.0658 -2.0173
 2353TIP3    H228619   3.435   1.125   8.247  0.1088  1.7024  0.6226
 2354TIP3   OH228620   3.655   3.386   0.087 -0.0088  0.5012 -0.0264
 2354TIP3    H128621   3.596   3.414   0.158 -0.4082  0.3076 -0.2738
 2354TIP3    H228622   3.663   3.463   0.031 -0.5478  0.3390 -0.3345
 2355TIP3   OH228623   5.432   1.773   0.863 -0.1113 -0.9038  0.8586
 2355TIP3    H128624   5.387   1.856   0.852 -1.0493 -1.4154  0.7049
 2355TIP3    H228625   5.493   1.788   0.935 -0.4614 -0.1629  1.0074
 2356TIP3   OH228626   0.184   5.386   2.608 -0.5391  0.2594 -0.1980
 2356TIP3    H128627   0.271   5.405   2.572 -0.5329  0.5956 -0.0068
 2356TIP3    H228628   0.126   5.389   2.532 -0.2102 -1.2049 -0.5393
 2357TIP3   OH228629   6.838   3.759   7.233  0.6701 -0.2570  0.3968
 2357TIP3    H128630   6.814   3.724   7.147 -0.6774  1.7628 -0.1277
 2357TIP3    H228631   6.766   3.732   7.290  0.7816 -0.2844  0.5233
 2358TIP3   OH228632   5.490   4.671   8.356 -0.7207 -0.0427 -0.5534
 2358TIP3    H128633   5.439   4.731   8.303  0.1687  0.3831 -0.9380
 2358TIP3    H228634   5.439   4.661   8.436 -0.9770  1.0688 -0.5621
 2359TIP3   OH228635   3.434   0.165   0.060 -0.0113  0.0658 -0.3629
 2359TIP3    H128636   3.341   0.148   0.073 -0.1105  0.9813  0.1886
 2359TIP3    H228637   3.475   0.078   0.063 -0.8336 -0.3425 -0.6130
 2360TIP3   OH228638   1.908   4.562   1.596  0.5157 -0.1995 -0.5315
 2360TIP3    H128639   1.974   4.551   1.664  0.1093 -0.2867 -0.1466
 2360TIP3    H228640   1.862   4.478   1.593  0.4559 -0.1581 -0.8396
 2361TIP3   OH228641   0.098   4.166   1.713 -0.9622  0.3703  0.0777
 2361TIP3    H128642   0.016   4.145   1.758 -1.0506  0.2209 -0.1503
 2361TIP3    H228643   0.095   4.115   1.632 -0.5415  0.1948  0.1706
 2362TIP3   OH228644   1.519   1.265   7.731  1.0131 -0.0438 -0.3377
 2362TIP3    H128645   1.472   1.311   7.660 -0.3143 -1.3745 -0.3848
 2362TIP3    H228646   1.609   1.259   7.700  1.4850  3.2955  0.0836
 2363TIP3   OH228647   2.348   1.675   2.538  0.2465  1.0267  0.3331
 2363TIP3    H128648   2.344   1.659   2.633 -0.6959  2.1777  0.5111
 2363TIP3    H228649   2.441   1.687   2.520  0.3376  1.9245  1.3190
 2364TIP3   OH228650   2.572   2.782   1.539 -0.0458  0.4302  0.5413
 2364TIP3    H128651   2.496   2.724   1.529 -0.7657  1.4723 -0.2056
 2364TIP3    H228652   2.646   2.729   1.508 -0.4881 -0.5140  1.0452
 2365TIP3   OH228653   0.280   2.767   3.117 -0.0946  0.1353 -0.4334
 2365TIP3    H128654   0.351   2.719   3.074  1.2599  2.3606 -0.8533
 2365TIP3    H228655   0.218   2.699   3.143  0.3320 -1.6043 -3.4357
 2366TIP3   OH228656   4.505   1.068   1.993 -0.5397 -0.1038 -0.0893
 2366TIP3    H128657   4.501   0.981   2.034  0.7740  0.6210  1.7037
 2366TIP3    H228658   4.597   1.091   1.994 -1.0195  2.0836  1.2373
 2367TIP3   OH228659   0.845   5.249   1.787  0.2050 -0.1371 -0.3114
 2367TIP3    H128660   0.860   5.342   1.806  0.4349  0.0418 -1.2834
 2367TIP3    H228661   0.840   5.207   1.872 -4.8157  1.4466  0.5099
 2368TIP3   OH228662   6.505   3.474   1.900  0.0203 -0.3137 -0.0325
 2368TIP3    H128663   6.522   3.455   1.808 -0.7085 -0.5477 -0.1264
 2368TIP3    H228664   6.478   3.566   1.901 -0.5436 -0.4752 -0.1338
 2369TIP3   OH228665   5.931   5.893   1.605 -0.1112  0.3447  0.3748
 2369TIP3    H128666   5.892   5.809   1.583 -0.2142  0.7954 -1.2768
 2369TIP3    H228667   6.019   5.890   1.566 -0.4792  1.3614 -0.5982
 2370TIP3   OH228668   2.631   2.762   0.870  0.1250  0.2957  0.2832
 2370TIP3    H128669   2.561   2.730   0.813 -0.3794  1.0868  0.4551
 2370TIP3    H228670   2.586   2.806   0.941  0.8064  1.2924  0.1087
 2371TIP3   OH228671   5.703   1.742   0.320  0.2151  0.2074 -0.3068
 2371TIP3    H128672   5.649   1.677   0.276 -0.0356  0.6503 -0.6686
 2371TIP3    H228673   5.698   1.819   0.263 -0.8286  1.0906  0.9087
 2372TIP3   OH228674   3.837   2.965   0.813  0.5957  0.0216 -0.9304
 2372TIP3    H128675   3.815   2.919   0.894 -0.3980  1.3001 -0.4214
 2372TIP3    H228676   3.758   2.960   0.760  0.1193  1.8126 -0.4884
 2373TIP3   OH228677   1.983   1.200   3.038  0.4538  0.0454 -0.2435
 2373TIP3    H128678   1.950   1.188   2.949 -0.3168 -1.0832  0.1645
 2373TIP3    H228679   1.980   1.294   3.053 -1.9360  0.0692 -0.5055
 2374TIP3   OH228680   3.135   6.543   7.897 -0.0603  0.0075  1.2574
 2374TIP3    H128681   3.156   6.450   7.908  0.8197 -0.0232 -0.3568
 2374TIP3    H228682   3.045   6.551   7.929 -0.1707 -1.4150  1.3678
 2375TIP3   OH228683   3.643   3.290   8.253  0.0076 -0.2222  0.2987
 2375TIP3    H128684   3.662   3.262   8.343  0.8507  2.6417  1.1271
 2375TIP3    H228685   3.639   3.385   8.258 -1.1984 -0.0239 -2.5111
 2376TIP3   OH228686   6.041   4.247   2.670 -0.9588  0.0101  0.0647
 2376TIP3    H128687   6.135   4.247   2.652 -0.4751  0.4393  2.2495
 2376TIP3    H228688   6.016   4.339   2.670 -1.0736 -0.0152  0.8041
 2377TIP3   OH228689   2.625   4.980   0.103  0.2297  0.3942  0.1612
 2377TIP3    H128690   2.581   4.920   0.164  0.6084  0.3526  0.3942
 2377TIP3    H228691   2.559   4.996   0.035  0.7768 -1.9188 -1.0153
 2378TIP3   OH228692   5.343   2.378   7.516  0.2023 -0.3632 -0.3166
 2378TIP3    H128693   5.429   2.418   7.502 -1.3398  3.5705  0.1655
 2378TIP3    H228694   5.297   2.389   7.433 -1.2813  1.8152  0.7235
 2379TIP3   OH228695   5.245   5.674   1.335  0.3874 -0.4817  0.5003
 2379TIP3    H128696   5.334   5.685   1.368 -0.4323  1.4316  2.3610
 2379TIP3    H228697   5.253   5.611   1.264  3.3461  0.3481 -0.0384
 2380TIP3   OH228698   4.913   2.752   1.162 -0.4767  0.6237 -0.6311
 2380TIP3    H128699   4.940   2.762   1.071 -1.5845  1.5749 -0.8707
 2380TIP3    H228700   4.826   2.711   1.157 -0.4491  0.4697  0.0133
 2381TIP3   OH228701   1.583   4.211   1.031  0.1567 -0.7306 -0.1875
 2381TIP3    H128702   1.566   4.122   1.000  1.9238 -1.6678  1.3339
 2381TIP3    H228703   1.658   4.203   1.089 -0.1995  1.6316  0.7420
 2382TIP3   OH228704   0.097   2.165   7.931 -0.0305 -0.0055 -0.0854
 2382TIP3    H128705   0.107   2.098   8.000 -1.2776  0.0759  0.1927
 2382TIP3    H228706   0.179   2.214   7.934  1.3414 -2.1209 -0.9588
 2383TIP3   OH228707   0.567   1.706   7.611  0.3330 -0.3006  0.2829
 2383TIP3    H128708   0.574   1.784   7.555  1.2288 -0.7510 -0.2728
 2383TIP3    H228709   0.547   1.635   7.550  2.2785 -0.9727  0.3473
 2384TIP3   OH228710   5.569   4.341   1.415 -0.4420  0.4775  0.3716
 2384TIP3    H128711   5.524   4.390   1.346  0.2217  1.8548  0.8859
 2384TIP3    H228712   5.518   4.361   1.495 -0.5534 -0.2123  0.4778
 2385TIP3   OH228713   3.424   0.528   0.699  0.1868 -0.3688 -0.1398
 2385TIP3    H128714   3.352   0.582   0.732  1.7363  0.6151  1.8503
 2385TIP3    H228715   3.478   0.588   0.648  1.3174 -0.2393  1.1431
 2386TIP3   OH228716   5.371   2.895   0.302  0.1261  0.1505  0.1739
 2386TIP3    H128717   5.410   2.813   0.330 -0.0812  0.4364  1.3311
 2386TIP3    H228718   5.399   2.905   0.211  2.1501 -0.0012  0.7466
 2387TIP3   OH228719   1.190   3.123   2.160  0.1918 -0.2150 -0.0152
 2387TIP3    H128720   1.209   3.094   2.071  0.3514  0.9058 -0.3690
 2387TIP3    H228721   1.229   3.211   2.165 -2.0425  0.8236  0.2890
 2388TIP3   OH228722   0.388   3.984   2.088 -0.0004  0.3331  0.0964
 2388TIP3    H128723   0.480   3.989   2.113 -0.1680  1.5641  0.5297
 2388TIP3    H228724   0.382   4.037   2.008 -0.1164 -0.7590 -0.6445
 2389TIP3   OH228725   3.752   2.781   0.623 -0.2063  0.0472  0.1885
 2389TIP3    H128726   3.830   2.772   0.678  0.0470  0.9064 -0.0135
 2389TIP3    H228727   3.784   2.823   0.543 -0.5536 -1.2734 -0.6648
 2390TIP3   OH228728   5.630   0.556   0.629  0.2406 -0.0682 -0.0929
 2390TIP3    H128729   5.682   0.486   0.589 -0.7133 -1.8023  1.5617
 2390TIP3    H228730   5.586   0.515   0.702 -0.3255  2.3189  1.0162
 2391TIP3   OH228731   6.123   2.483   8.200 -0.2536  0.0434 -0.2340
 2391TIP3    H128732   6.060   2.412   8.212 -2.2655  1.8759  0.8798
 2391TIP3    H228733   6.143   2.483   8.106 -2.4049 -0.2652 -0.7336
 2392TIP3   OH228734   0.150   6.789   0.319  0.0927  0.4915  0.7998
 2392TIP3    H128735   0.217   6.753   0.377  0.9232 -3.4415 -2.1735
 2392TIP3    H228736   0.200   6.835   0.251 -0.5103  1.0112  0.7039
 2393TIP3   OH228737   3.301   1.207   1.640 -0.1195 -0.1900 -0.5156
 2393TIP3    H128738   3.335   1.233   1.554  1.4810 -0.6413 -0.0558
 2393TIP3    H228739   3.231   1.270   1.659  1.9263  2.2488 -0.5561
 2394TIP3   OH228740   0.834   0.893   1.878  0.4847 -0.3132 -0.3526
 2394TIP3    H128741   0.772   0.871   1.809  0.2279 -0.5286 -0.0559
 2394TIP3    H228742   0.902   0.826   1.871  0.6821 -0.0809 -0.6736
 2395TIP3   OH228743   4.962   1.608   1.750  0.9503  0.0242  0.0116
 2395TIP3    H128744   5.053   1.585   1.771  1.4620  0.3517 -1.6737
 2395TIP3    H228745   4.959   1.703   1.760  0.6585 -0.0267  0.4616
 2396TIP3   OH228746   6.436   2.991   7.273 -0.3229  0.3624  0.0261
 2396TIP3    H128747   6.485   2.978   7.354 -0.7148 -2.6216 -0.0961
 2396TIP3    H228748   6.350   3.023   7.302 -0.5951 -1.0507  0.8715
 2397TIP3   OH228749   1.526   5.175   2.861  0.4777  0.5313 -0.0797
 2397TIP3    H128750   1.597   5.117   2.886 -0.7630 -0.9190  0.2201
 2397TIP3    H228751   1.515   5.234   2.936 -0.1318 -0.7450  0.8692
 2398TIP3   OH228752   3.319   4.970   2.103 -0.5364 -0.3353  0.1013
 2398TIP3    H128753   3.350   5.049   2.147  0.4009 -0.2889 -0.5987
 2398TIP3    H228754   3.330   4.989   2.010 -1.0663 -0.9865 -0.0995
 2399TIP3   OH228755   0.473   4.435   7.152 -0.2033 -0.0681  0.8573
 2399TIP3    H128756   0.398   4.400   7.104 -1.8896  1.0497  2.5364
 2399TIP3    H228757   0.540   4.368   7.143 -1.7416 -1.5994  0.1613
 2400TIP3   OH228758   6.818   6.168   2.770  0.2086 -0.1350 -0.0188
 2400TIP3    H128759   6.875   6.236   2.806  0.9060 -0.5030 -0.4156
 2400TIP3    H228760   6.748   6.159   2.835  0.6017  0.3165  0.4771
 2401TIP3   OH228761   1.225   5.453   2.219  0.3837 -0.0557 -0.1166
 2401TIP3    H128762   1.259   5.530   2.266  0.5388 -1.7968  2.8572
 2401TIP3    H228763   1.288   5.383   2.238 -0.2626 -1.2171 -1.9444
 2402TIP3   OH228764   6.630   4.660   7.213 -0.6015 -0.2414  0.1830
 2402TIP3    H128765   6.538   4.647   7.236 -0.3761 -0.5362  0.9419
 2402TIP3    H228766   6.652   4.584   7.159 -0.1957 -1.4000  1.8829
 2403TIP3   OH228767   4.896   1.767   7.918  0.2393 -0.5924  0.2034
 2403TIP3    H128768   4.877   1.755   7.825 -0.9346 -1.0321  0.4874
 2403TIP3    H228769   4.867   1.856   7.936 -0.8991 -1.0084  0.4691
 2404TIP3   OH228770   4.227   6.122   1.873 -0.0180 -0.2357  0.2260
 2404TIP3    H128771   4.254   6.098   1.784 -0.9777 -1.4155  0.2204
 2404TIP3    H228772   4.221   6.217   1.872  1.1822 -0.1493 -0.6068
 2405TIP3   OH228773   1.562   6.096   7.235  0.0515 -0.3786 -0.0171
 2405TIP3    H128774   1.479   6.144   7.237  0.9656  1.2578  0.6000
 2405TIP3    H228775   1.554   6.032   7.306 -0.1366  0.7906  1.0490
 2406TIP3   OH228776   0.098   2.164   8.359 -0.0828  0.2158 -0.2603
 2406TIP3    H128777   0.134   2.087   8.314 -1.2939  0.5210 -1.8313
 2406TIP3    H228778   0.155   2.236   8.333 -1.4212  0.6070 -2.3464
 2407TIP3   OH228779   6.335   6.971   0.110 -0.3931  0.1776 -0.7064
 2407TIP3    H128780   6.389   6.955   0.032  1.2517 -0.4992  0.4968
 2407TIP3    H228781   6.379   6.921   0.179 -0.7534  2.1603  1.0551
 2408TIP3   OH228782   1.341   5.220   2.678  0.1129 -0.1715  0.0247
 2408TIP3    H128783   1.368   5.150   2.619  0.2897 -0.4482  0.4261
 2408TIP3    H228784   1.409   5.222   2.746 -0.7287 -0.7269  0.9228
 2409TIP3   OH228785   6.646   6.415   7.906 -0.1784 -0.0051  0.0452
 2409TIP3    H128786   6.570   6.392   7.960 -1.2520  0.7848 -1.0666
 2409TIP3    H228787   6.649   6.510   7.909  0.7466 -0.0244  0.0099
 2410TIP3   OH228788   2.673   6.604   0.028 -0.1929 -0.2636 -0.1023
 2410TIP3    H128789   2.722   6.682   0.001 -1.4593  0.9174  0.8000
 2410TIP3    H228790   2.596   6.603  -0.029 -0.2098 -0.8305 -0.0751
 2411TIP3   OH228791   3.155   2.796   7.971 -0.0411 -0.8448  0.1001
 2411TIP3    H128792   3.229   2.771   7.915  0.2649  0.2847 -0.0165
 2411TIP3    H228793   3.078   2.775   7.919  0.2450  0.5100 -0.9123
 2412TIP3   OH228794   4.339   0.929   1.814 -0.0286 -0.3202 -0.0894
 2412TIP3    H128795   4.391   0.996   1.859  0.7965 -0.4039 -0.8894
 2412TIP3    H228796   4.258   0.925   1.864  0.2756  0.6241  0.5209
 2413TIP3   OH228797   2.559   5.960   8.043  0.0734  0.0228  0.3849
 2413TIP3    H128798   2.588   6.050   8.053  0.0898  0.0668 -0.0332
 2413TIP3    H228799   2.515   5.958   7.958 -0.5186 -0.2046  0.6879
 2414TIP3   OH228800   0.117   3.672   3.247 -0.3081  0.0979 -0.3280
 2414TIP3    H128801   0.177   3.716   3.186  0.2846  0.8569  0.7816
 2414TIP3    H228802   0.111   3.731   3.322  1.5009 -2.1858  1.7840
 2415TIP3   OH228803   5.148   4.360   0.824 -0.1441  0.1921  0.3319
 2415TIP3    H128804   5.165   4.412   0.903  0.3547  0.2619  0.1874
 2415TIP3    H228805   5.235   4.332   0.796 -0.4377 -1.0042  0.5954
 2416TIP3   OH228806   5.781   2.142   0.444  0.0177 -0.1406 -0.0706
 2416TIP3    H128807   5.826   2.059   0.429  2.3527  0.4008  2.8801
 2416TIP3    H228808   5.797   2.194   0.365 -1.5435 -2.3970 -1.9981
 2417TIP3   OH228809   6.506   0.745   1.438 -0.1540 -0.3081  0.0574
 2417TIP3    H128810   6.470   0.659   1.458  2.3452 -1.3540  0.3959
 2417TIP3    H228811   6.548   0.735   1.353  1.5598  0.0549  0.8087
 2418TIP3   OH228812   0.370   4.608   0.141  0.5899 -0.1770  0.5978
 2418TIP3    H128813   0.324   4.537   0.185  1.0269 -0.1823  1.0678
 2418TIP3    H228814   0.310   4.682   0.145  0.3344 -0.3810  0.5529
 2419TIP3   OH228815   1.583   5.346   7.890 -0.0359 -0.8331  0.0032
 2419TIP3    H128816   1.568   5.293   7.811 -0.7355  0.6174 -0.8849
 2419TIP3    H228817   1.496   5.382   7.910  0.2402 -0.7986  1.1652
 2420TIP3   OH228818   3.358   0.738   1.674  0.4954 -0.5095  0.5105
 2420TIP3    H128819   3.378   0.702   1.587 -0.4025  1.0395 -0.3761
 2420TIP3    H228820   3.282   0.688   1.703 -0.8105  0.6404 -0.7588
 2421TIP3   OH228821   3.012   4.691   0.802  0.2653  0.0823  0.1264
 2421TIP3    H128822   3.013   4.601   0.771  1.5999 -0.3005  1.1750
 2421TIP3    H228823   3.018   4.684   0.897 -2.6925  1.2337  0.5154
 2422TIP3   OH228824   4.894   4.847   8.338 -0.1028 -0.5222  0.2023
 2422TIP3    H128825   4.801   4.859   8.360 -0.5804  0.1968 -1.9385
 2422TIP3    H228826   4.901   4.877   8.247  2.0355 -1.5352 -0.0302
 2423TIP3   OH228827   5.359   6.843   8.306 -0.0204 -0.5276  0.5791
 2423TIP3    H128828   5.360   6.766   8.363  0.0191 -0.3853  0.7707
 2423TIP3    H228829   5.435   6.894   8.334 -0.4273 -0.0943  0.9005
 2424TIP3   OH228830   3.458   5.928   7.773 -0.0097  0.5566  0.4298
 2424TIP3    H128831   3.376   5.926   7.724 -0.0309  0.1705  0.4805
 2424TIP3    H228832   3.519   5.877   7.721  0.3238  1.2112  0.1746
 2425TIP3   OH228833   5.591   6.032   1.983 -0.3841 -0.1040 -0.3558
 2425TIP3    H128834   5.672   6.032   1.933  0.6403 -1.1208  1.2262
 2425TIP3    H228835   5.609   6.088   2.058 -2.3790  2.6322 -1.7181
 2426TIP3   OH228836   4.369   4.574   0.231 -0.3084  0.0709  0.3478
 2426TIP3    H128837   4.292   4.566   0.288 -0.4667  0.9244  0.2717
 2426TIP3    H228838   4.423   4.498   0.253 -0.8500 -0.1696  0.8953
 2427TIP3   OH228839   3.686   0.933   0.994 -0.0801 -0.2180  0.1870
 2427TIP3    H128840   3.757   0.874   0.968 -0.4568 -0.8891  0.6710
 2427TIP3    H228841   3.725   1.021   0.987  0.5807 -0.5325 -0.2220
 2428TIP3   OH228842   6.432   3.953   2.557  0.5228 -0.1593 -0.0565
 2428TIP3    H128843   6.516   3.922   2.523 -0.2918 -2.1553 -0.3968
 2428TIP3    H228844   6.367   3.919   2.495 -0.6125  0.7757  0.5611
 2429TIP3   OH228845   6.390   1.676   2.127  0.3520 -0.4006  0.1621
 2429TIP3    H128846   6.366   1.694   2.036  0.8025 -1.2557 -0.1314
 2429TIP3    H228847   6.475   1.632   2.121  0.9028  0.5188  1.0615
 2430TIP3   OH228848   0.417   2.826   2.693  0.0270  0.0950  0.6622
 2430TIP3    H128849   0.435   2.852   2.783  2.2820  1.0268  0.0183
 2430TIP3    H228850   0.333   2.867   2.672  0.5508  1.7873  1.6548
 2431TIP3   OH228851   2.124   5.606   3.282 -0.2494  0.1923 -0.0856
 2431TIP3    H128852   2.078   5.656   3.215 -0.0453  0.9310  0.3120
 2431TIP3    H228853   2.214   5.599   3.250 -0.3002 -0.0092 -0.1865
 2432TIP3   OH228854   0.270   3.656   7.100  0.1587  0.1636 -0.0349
 2432TIP3    H128855   0.220   3.618   7.172  2.7538 -2.1023  0.7561
 2432TIP3    H228856   0.227   3.739   7.081 -2.2077 -0.4179  2.3056
 2433TIP3   OH228857   5.645   2.517   0.484 -0.3093  0.7524  0.4500
 2433TIP3    H128858   5.712   2.546   0.422  1.4676 -0.9832  1.4385
 2433TIP3    H228859   5.588   2.460   0.433  1.6015 -1.3091  0.5101
 2434TIP3   OH228860   6.318   0.633   8.224  0.5411  0.2137 -0.4664
 2434TIP3    H128861   6.316   0.690   8.147  0.1116 -0.2372 -0.7904
 2434TIP3    H228862   6.227   0.622   8.249  0.7537  3.1915  2.2550
 2435TIP3   OH228863   0.934   6.282   0.318  0.0836 -0.7235 -0.6658
 2435TIP3    H128864   0.967   6.284   0.408 -1.5980  1.6506 -0.0122
 2435TIP3    H228865   0.964   6.364   0.279 -0.9779 -0.7566 -1.5909
 2436TIP3   OH228866   4.597   2.484   2.258 -0.5306 -0.1040  0.0853
 2436TIP3    H128867   4.691   2.495   2.242 -0.2137 -0.2764  1.6681
 2436TIP3    H228868   4.585   2.511   2.349 -1.4505 -3.0445  0.9419
 2437TIP3   OH228869   1.120   2.742   1.599  0.3395  0.3938  0.3384
 2437TIP3    H128870   1.039   2.792   1.587  0.2699 -0.0420 -1.1242
 2437TIP3    H228871   1.115   2.710   1.689  0.3642  2.9389  1.3288
 2438TIP3   OH228872   4.496   0.568   7.982 -0.3552 -0.1882  0.2634
 2438TIP3    H128873   4.500   0.581   7.887  1.3983 -1.8429  0.0535
 2438TIP3    H228874   4.509   0.656   8.018  0.8243  0.2062 -1.0334
 2439TIP3   OH228875   4.544   1.362   2.636  0.6116  0.1982 -0.3565
 2439TIP3    H128876   4.557   1.314   2.555 -1.8566  0.7874 -1.1946
 2439TIP3    H228877   4.589   1.445   2.623  0.2940  0.2568 -1.1005
 2440TIP3   OH228878   6.210   5.018   7.170 -0.2214 -0.5763  0.1492
 2440TIP3    H128879   6.275   5.077   7.132  0.1526 -1.9472 -1.4668
 2440TIP3    H228880   6.228   4.933   7.130 -2.1809 -1.2973  0.6640
 2441TIP3   OH228881   6.776   0.451   1.450 -0.1441 -0.4208  0.0056
 2441TIP3    H128882   6.770   0.386   1.519  0.2658  1.3559  1.7920
 2441TIP3    H228883   6.854   0.503   1.471  1.0862 -0.9368 -2.8354
 2442TIP3   OH228884   5.200   5.675   0.272  0.2927  0.4257  0.4575
 2442TIP3    H128885   5.125   5.660   0.329  0.1359 -0.1552  0.1084
 2442TIP3    H228886   5.180   5.758   0.228 -0.3056  0.1061  0.1197
 2443TIP3   OH228887   4.480   6.679   8.333 -0.2531  0.2701 -0.2926
 2443TIP3    H128888   4.398   6.630   8.323 -0.1100  0.3399 -2.1982
 2443TIP3    H228889   4.455   6.770   8.318 -0.0534  0.4762  0.5724
 2444TIP3   OH228890   2.268   3.641   0.129  0.5328 -0.6299 -0.3165
 2444TIP3    H128891   2.268   3.712   0.065 -1.3896 -2.6290 -2.7856
 2444TIP3    H228892   2.292   3.564   0.078 -3.1885 -2.7232  0.6942
 2445TIP3   OH228893   4.042   2.874   7.416  0.5139  0.3155 -0.3917
 2445TIP3    H128894   4.114   2.936   7.407  0.2756  0.6226 -0.2189
 2445TIP3    H228895   3.964   2.929   7.427  0.2556 -0.0119 -0.5630
 2446TIP3   OH228896   5.675   2.938   2.105 -0.0935 -0.5252 -0.5935
 2446TIP3    H128897   5.593   2.970   2.145  0.0598 -1.2311  0.3092
 2446TIP3    H228898   5.646   2.886   2.031 -0.4412 -0.2034 -0.6860
 2447TIP3   OH228899   4.420   0.352   3.204 -0.9962 -0.0285  0.8816
 2447TIP3    H128900   4.457   0.320   3.286  1.6410  0.3526 -0.0463
 2447TIP3    H228901   4.375   0.277   3.167 -2.8882  0.0027  2.9712
 2448TIP3   OH228902   6.728   4.641   2.975 -0.2498 -0.4010  0.2225
 2448TIP3    H128903   6.679   4.559   2.967 -0.1794 -0.6310  1.7742
 2448TIP3    H228904   6.662   4.709   2.979 -0.5071 -0.7097  2.3235
 2449TIP3   OH228905   4.763   1.847   8.437 -0.3637  0.4882  0.9537
 2449TIP3    H128906   4.812   1.926   8.416 -0.0841  0.2484  0.6927
 2449TIP3    H228907   4.671   1.873   8.429 -0.2874  0.2485 -1.2723
 2450TIP3   OH228908   4.313   6.848   2.126 -0.1292 -0.3881 -0.0475
 2450TIP3    H128909   4.319   6.944   2.128 -0.1758 -0.3249 -1.7262
 2450TIP3    H228910   4.309   6.823   2.218  0.0800  1.2102  0.4333
 2451TIP3   OH228911   0.693   0.794   2.531 -0.4266 -0.2094  0.0872
 2451TIP3    H128912   0.758   0.853   2.569 -0.1371 -1.4949  1.6955
 2451TIP3    H228913   0.613   0.813   2.579 -1.1811  1.0540 -1.5847
 2452TIP3   OH228914   5.640   4.609   1.711  0.4405 -0.8094 -0.2537
 2452TIP3    H128915   5.594   4.667   1.650  0.5017 -0.8704 -0.3566
 2452TIP3    H228916   5.570   4.558   1.753  0.5124 -2.0338 -1.5504
 2453TIP3   OH228917   3.880   1.351   7.932  0.2393 -0.2620  0.3629
 2453TIP3    H128918   3.814   1.282   7.941  1.0896 -1.1601 -0.1123
 2453TIP3    H228919   3.865   1.407   8.008 -0.7851 -0.6978  0.5041
 2454TIP3   OH228920   6.789   0.310   0.292  0.7236 -0.1479  0.3630
 2454TIP3    H128921   6.717   0.290   0.232 -0.0816  1.2967  0.7838
 2454TIP3    H228922   6.841   0.230   0.296 -1.0832 -1.3642  0.3677
 2455TIP3   OH228923   2.457   4.489   1.917  0.0993  0.1528  0.2999
 2455TIP3    H128924   2.458   4.513   1.825 -2.7521  0.4808  0.2683
 2455TIP3    H228925   2.381   4.432   1.926  1.2062 -1.1508  2.1998
 2456TIP3   OH228926   0.820   6.045   1.798  0.3529  0.0463  0.3279
 2456TIP3    H128927   0.861   6.120   1.755  0.6212 -0.5586 -0.4829
 2456TIP3    H228928   0.754   6.015   1.736  0.9144 -0.9976  0.2258
 2457TIP3   OH228929   5.233   4.792   0.659  0.1379 -0.3044  0.0324
 2457TIP3    H128930   5.186   4.714   0.631  0.1869 -0.2046 -0.3391
 2457TIP3    H228931   5.282   4.819   0.581 -0.8165  0.7898 -0.2143
 2458TIP3   OH228932   5.020   1.319   8.030  0.2127  0.0624  0.6825
 2458TIP3    H128933   5.100   1.324   8.083  0.1872  0.8048  0.6559
 2458TIP3    H228934   4.952   1.356   8.086  0.3058  1.4649 -0.0899
 2459TIP3   OH228935   0.882   4.578   1.784  0.1352  0.3142  0.2550
 2459TIP3    H128936   0.804   4.598   1.837  1.1218 -1.2719  2.4689
 2459TIP3    H228937   0.865   4.492   1.747 -0.0959  0.9721 -1.2497
 2460TIP3   OH228938   6.917   1.188   2.108 -0.0711  0.1832 -0.5046
 2460TIP3    H128939   6.992   1.220   2.058  0.9106 -1.6003 -0.2741
 2460TIP3    H228940   6.877   1.123   2.051 -0.0070 -0.5849  0.3026
 2461TIP3   OH228941   4.986   6.456   2.452  0.1932  0.0222  1.2536
 2461TIP3    H128942   4.916   6.403   2.414  1.0318  0.2364 -0.7631
 2461TIP3    H228943   5.015   6.407   2.529 -0.0986 -1.6680  0.3448
 2462TIP3   OH228944   4.918   3.206   2.402 -0.1763 -0.4774  0.4699
 2462TIP3    H128945   4.975   3.279   2.428  2.6151 -1.1109 -3.0696
 2462TIP3    H228946   4.936   3.138   2.467  1.0738  0.2832  0.9750
 2463TIP3   OH228947   6.205   6.259   7.212  0.8868 -0.2458 -0.3055
 2463TIP3    H128948   6.216   6.226   7.301 -0.2239  1.7476  0.6475
 2463TIP3    H228949   6.246   6.193   7.157  0.8318 -1.9887  1.6049
 2464TIP3   OH228950   0.131   0.872   7.753 -0.5346 -0.0579  0.2237
 2464TIP3    H128951   0.188   0.935   7.797  0.0469 -1.1955  1.1494
 2464TIP3    H228952   0.093   0.921   7.681  0.6142  1.1019  0.3640
 2465TIP3   OH228953   3.339   2.752   6.981  0.2992 -0.0432 -0.2930
 2465TIP3    H128954   3.356   2.837   7.023  1.0208 -0.5373  0.4522
 2465TIP3    H228955   3.350   2.688   7.052  0.3334 -0.8041 -0.9720
 2466TIP3   OH228956   3.245   0.883   2.645  0.2936 -0.1232  0.7585
 2466TIP3    H128957   3.175   0.832   2.606  2.0491 -0.9508 -1.5087
 2466TIP3    H228958   3.303   0.819   2.687  0.0971  0.4828  2.0279
 2467TIP3   OH228959   6.788   3.858   3.327 -0.4165 -0.3331  0.4143
 2467TIP3    H128960   6.699   3.884   3.306 -1.8078 -3.7090  1.4720
 2467TIP3    H228961   6.801   3.775   3.281  2.3154  0.2074  0.0583
 2468TIP3   OH228962   0.974   1.269   2.101  0.6125 -0.4079 -0.0140
 2468TIP3    H128963   1.041   1.336   2.115  0.1098 -0.0141  0.6234
 2468TIP3    H228964   0.936   1.255   2.188 -0.0528 -0.6971 -0.3423
 2469TIP3   OH228965   4.338   4.013   7.389 -0.0986 -0.2269 -0.0369
 2469TIP3    H128966   4.420   4.051   7.357 -0.8538  2.4818  0.9318
 2469TIP3    H228967   4.323   3.937   7.333  2.7694 -0.4977 -0.5800
 2470TIP3   OH228968   1.808   1.038   0.277 -0.4514 -0.1352 -0.1337
 2470TIP3    H128969   1.771   1.077   0.356 -0.6663 -0.0580 -0.2699
 2470TIP3    H228970   1.896   1.074   0.272 -0.0010 -1.0983  0.7314
 2471TIP3   OH228971   4.049   4.022   7.448 -0.2136 -0.1824 -0.3479
 2471TIP3    H128972   4.047   4.116   7.432  1.7741 -0.2632 -1.4320
 2471TIP3    H228973   4.128   4.007   7.500  0.9298 -1.4354 -2.2677
 2472TIP3   OH228974   5.161   5.626   1.608 -0.2056 -0.0784  0.2055
 2472TIP3    H128975   5.240   5.575   1.626 -0.8400 -1.0419  0.3250
 2472TIP3    H228976   5.178   5.667   1.524  1.6723  2.2333  1.5735
 2473TIP3   OH228977   3.925   0.785   7.620 -0.1609 -0.0411  0.2082
 2473TIP3    H128978   3.971   0.840   7.557 -1.0160  0.9915  0.4477
 2473TIP3    H228979   3.839   0.770   7.580  0.2093 -1.6223 -0.0652
 2474TIP3   OH228980   4.487   0.298   8.343 -0.1131 -0.2185 -0.4915
 2474TIP3    H128981   4.418   0.236   8.365 -0.1472  0.0121  0.0720
 2474TIP3    H228982   4.459   0.337   8.260 -0.9288  0.2531 -0.0114
 2475TIP3   OH228983   1.780   6.257   7.180  0.0155 -0.2140 -0.2660
 2475TIP3    H128984   1.716   6.189   7.201  0.2669  0.3084  2.6106
 2475TIP3    H228985   1.728   6.330   7.148 -0.6742 -0.4236  0.3462
 2476TIP3   OH228986   3.725   6.573   0.166 -0.1161 -0.3849  0.4235
 2476TIP3    H128987   3.694   6.601   0.252  0.2218 -0.6568  0.6395
 2476TIP3    H228988   3.682   6.489   0.151 -3.4087  1.4802 -1.5010
 2477TIP3   OH228989   6.583   0.129   3.062  0.5250 -0.0127 -0.4249
 2477TIP3    H128990   6.558   0.074   2.988 -0.6418 -0.4767  0.2960
 2477TIP3    H228991   6.620   0.208   3.022  2.7192 -1.4794 -1.4814
 2478TIP3   OH228992   0.789   1.621   0.307  0.6177 -0.1104 -0.3681
 2478TIP3    H128993   0.705   1.667   0.314  0.0915 -1.1547  0.8661
 2478TIP3    H228994   0.844   1.661   0.375  0.9143  0.1794 -0.7799
 2479TIP3   OH228995   5.162   0.865   0.716  0.2822 -0.2121  0.1472
 2479TIP3    H128996   5.098   0.839   0.782 -0.9146  1.2152 -0.4025
 2479TIP3    H228997   5.141   0.811   0.640 -0.6026  0.5684 -0.1825
 2480TIP3   OH228998   5.332   3.522   2.139 -0.3826  0.0748 -0.4664
 2480TIP3    H128999   5.400   3.456   2.150  0.0299  0.1729 -2.1170
 2480TIP3    H229000   5.379   3.606   2.146 -0.6012  0.1660 -0.0919
 2481TIP3   OH229001   2.779   3.552   1.296 -0.0584  0.3296  0.2127
 2481TIP3    H129002   2.853   3.548   1.234 -2.1495 -0.7525 -2.4334
 2481TIP3    H229003   2.779   3.642   1.327  3.0421  0.0876  1.3006
 2482TIP3   OH229004   6.337   5.333   1.725 -0.0969 -0.0729  0.5029
 2482TIP3    H129005   6.394   5.410   1.714 -0.8784  0.5519  0.7110
 2482TIP3    H229006   6.277   5.358   1.796  0.3403 -1.3055  1.3359
 2483TIP3   OH229007   0.995   1.513   0.904  0.2122  0.3889  0.0043
 2483TIP3    H129008   0.904   1.507   0.933 -0.2744 -0.5457 -1.5948
 2483TIP3    H229009   0.996   1.587   0.843  0.2073 -0.3866 -0.9683
 2484TIP3   OH229010   5.014   4.577   1.004  0.3134 -0.4986  0.6055
 2484TIP3    H129011   5.100   4.562   1.044  0.2222  1.1458  1.5165
 2484TIP3    H229012   5.030   4.645   0.939 -0.3756  0.2359  1.1848
 2485TIP3   OH229013   2.209   6.179   1.870 -0.0731  0.8633 -0.1165
 2485TIP3    H129014   2.183   6.262   1.910  1.6808  1.1035  0.6571
 2485TIP3    H229015   2.289   6.155   1.917  0.2266 -0.5512 -1.2911
 2486TIP3   OH229016   5.249   2.363   0.750 -0.2888 -0.1118  0.7775
 2486TIP3    H129017   5.182   2.302   0.782 -1.3561  0.4493 -0.3171
 2486TIP3    H229018   5.292   2.316   0.679 -2.8860  1.2550 -1.8855
 2487TIP3   OH229019   2.419   4.515   1.049 -0.5623 -0.1560  0.2308
 2487TIP3    H129020   2.483   4.503   1.119  0.3054 -0.3268 -0.5705
 2487TIP3    H229021   2.390   4.606   1.058 -0.8351 -0.3213  1.1056
 2488TIP3   OH229022   3.196   3.115   1.591 -0.5032 -0.0684 -0.4229
 2488TIP3    H129023   3.162   3.199   1.622  0.8896 -0.4059  2.2665
 2488TIP3    H229024   3.243   3.136   1.510 -1.9564  1.3377 -0.9587
 2489TIP3   OH229025   2.360   1.403   8.159  0.0378 -0.3130 -0.5083
 2489TIP3    H129026   2.362   1.313   8.128  0.8945 -0.5467  0.1866
 2489TIP3    H229027   2.367   1.456   8.079 -2.5980 -0.7814 -1.1312
 2490TIP3   OH229028   0.710   5.820   2.687 -0.7970 -0.7345 -0.0098
 2490TIP3    H129029   0.796   5.781   2.705 -0.9472 -0.7120  0.7861
 2490TIP3    H229030   0.673   5.765   2.619  1.2734  1.2698 -3.0330
 2491TIP3   OH229031   1.913   5.635   2.661 -0.3409 -0.5537  0.0601
 2491TIP3    H129032   1.910   5.710   2.603  1.4850  0.8440  1.6071
 2491TIP3    H229033   1.822   5.612   2.677 -0.9684  1.5109 -0.2719
 2492TIP3   OH229034   6.993   4.731   1.719 -0.3478  0.6637  0.5936
 2492TIP3    H129035   6.938   4.735   1.641 -0.3278 -1.2079  0.4361
 2492TIP3    H229036   7.071   4.782   1.697 -0.9148  1.2323 -0.1206
 2493TIP3   OH229037   3.554   5.263   2.228 -0.3576  0.1979  0.1021
 2493TIP3    H129038   3.562   5.336   2.289 -1.2769  0.8521 -0.5283
 2493TIP3    H229039   3.471   5.279   2.183 -0.8900 -1.5886  0.3936
 2494TIP3   OH229040   3.186   0.948   1.347  0.1190  0.4104  0.0994
 2494TIP3    H129041   3.159   0.874   1.293  0.2041  0.8744 -0.6003
 2494TIP3    H229042   3.119   0.954   1.415  0.3361 -0.5533  0.4022
 2495TIP3   OH229043   4.572   4.395   0.212  0.2403 -0.5157 -0.4863
 2495TIP3    H129044   4.544   4.378   0.122  0.3466  0.2851 -0.6825
 2495TIP3    H229045   4.667   4.399   0.207  0.1928  0.9467 -0.6210
 2496TIP3   OH229046   2.248   5.776   8.360 -0.1802 -0.2961  0.2015
 2496TIP3    H129047   2.213   5.819   8.438  0.6518  0.2727  0.2751
 2496TIP3    H229048   2.277   5.849   8.304  0.6974 -0.7495  0.0637
 2497TIP3   OH229049   4.990   3.692   1.688  0.1094  0.5156  0.0920
 2497TIP3    H129050   4.919   3.656   1.635 -1.4903  1.2824  1.5992
 2497TIP3    H229051   5.059   3.714   1.625  0.3003 -2.9832 -1.1475
 2498TIP3   OH229052   4.572   5.273   7.874  0.1920  0.0833 -0.3567
 2498TIP3    H129053   4.535   5.219   7.804  1.0045 -0.4557 -0.3860
 2498TIP3    H229054   4.635   5.216   7.918  0.4659  0.7505  0.1381
 2499TIP3   OH229055   6.481   2.840   1.231  0.4659  0.0982 -0.5880
 2499TIP3    H129056   6.468   2.755   1.189 -1.6809 -0.0471  0.2375
 2499TIP3    H229057   6.511   2.898   1.161 -0.3827 -0.7827 -1.7086
 2500TIP3   OH229058   0.690   2.555   0.952  0.5039 -0.5895 -0.1660
 2500TIP3    H129059   0.748   2.494   0.997 -0.3865 -0.7631  0.7685
 2500TIP3    H229060   0.736   2.638   0.954  0.8597 -0.7928  0.2922
 2501TIP3   OH229061   2.130   0.687   7.473  0.2410 -0.5037  0.2537
 2501TIP3    H129062   2.104   0.760   7.530 -0.0243 -0.6203  0.2841
 2501TIP3    H229063   2.124   0.723   7.384  1.9942  0.1101  0.3367
 2502TIP3   OH229064   5.080   4.554   0.596  0.0601 -0.1119 -0.4606
 2502TIP3    H129065   5.018   4.525   0.529  0.7541 -0.2523 -1.0531
 2502TIP3    H229066   5.092   4.478   0.652  0.0654 -0.2373 -0.6307
 2503TIP3   OH229067   2.587   0.951   0.363 -0.3348  0.3802  0.5716
 2503TIP3    H129068   2.639   0.995   0.295 -0.6718  1.6613  1.0987
 2503TIP3    H229069   2.496   0.973   0.341 -0.3928  2.0974  2.2112
 2504TIP3   OH229070   1.101   0.188   0.117 -0.3268  0.1268 -0.1097
 2504TIP3    H129071   1.065   0.216   0.201 -1.0324  0.1730 -0.4138
 2504TIP3    H229072   1.090   0.265   0.060 -1.1937 -0.3668 -0.6300
 2505TIP3   OH229073   4.490   1.353   0.829  0.4729 -0.2729 -0.2336
 2505TIP3    H129074   4.545   1.367   0.905  1.0867 -2.3376 -0.2519
 2505TIP3    H229075   4.407   1.321   0.864  0.1024  0.5102 -0.3567
 2506TIP3   OH229076   5.949   5.294   0.471  0.2897  0.2217  0.7546
 2506TIP3    H129077   6.020   5.257   0.418  0.4317 -0.8667  1.6732
 2506TIP3    H229078   5.989   5.313   0.556  0.0277  1.8076  0.5608
 2507TIP3   OH229079   6.946   6.268   8.171 -0.5338 -0.1075 -0.0571
 2507TIP3    H129080   6.887   6.196   8.151  0.1185 -0.7604  0.3374
 2507TIP3    H229081   6.932   6.286   8.264 -0.9156  0.4786 -0.2262
 2508TIP3   OH229082   1.166   3.982   3.211  0.2627 -0.5197  0.3822
 2508TIP3    H129083   1.152   4.074   3.235 -1.3489 -0.1732 -1.5503
 2508TIP3    H229084   1.132   3.932   3.285  0.0475  0.4562  0.9525
 2509TIP3   OH229085   3.469   2.135   7.817  0.0781  0.1832 -0.2560
 2509TIP3    H129086   3.500   2.137   7.726  2.7273  0.4892  0.5714
 2509TIP3    H229087   3.414   2.213   7.826 -0.4466 -0.0046 -1.6525
 2510TIP3   OH229088   1.118   2.452   0.078 -0.5074 -0.0967 -0.5876
 2510TIP3    H129089   1.167   2.532   0.097 -2.0031  0.7058  0.1481
 2510TIP3    H229090   1.171   2.406   0.013  0.8704  1.0152 -0.3165
 2511TIP3   OH229091   0.849   4.338   7.998 -0.4761 -0.3390 -0.1787
 2511TIP3    H129092   0.875   4.296   8.080 -2.8749 -0.5081  0.5710
 2511TIP3    H229093   0.778   4.283   7.964 -0.7068  0.7020 -1.4750
 2512TIP3   OH229094   2.363   1.854   1.738 -0.2510  0.3418 -0.5672
 2512TIP3    H129095   2.339   1.767   1.771 -0.4296  0.9242  0.9045
 2512TIP3    H229096   2.284   1.906   1.746  0.2274  1.0129 -0.1313
 2513TIP3   OH229097   2.340   2.385   8.104  0.0877 -0.2474  0.0938
 2513TIP3    H129098   2.269   2.394   8.041 -0.5745 -1.3142  0.6636
 2513TIP3    H229099   2.419   2.408   8.055 -0.6380  1.0737 -0.5168
 2514TIP3   OH229100   4.294   5.513   2.401  0.4410 -0.2018 -0.8063
 2514TIP3    H129101   4.291   5.602   2.367 -1.4993 -0.1393 -0.5482
 2514TIP3    H229102   4.301   5.458   2.323  0.4960  0.1220 -1.0332
 2515TIP3   OH229103   5.476   5.127   0.582  0.2201 -0.1417  0.2331
 2515TIP3    H129104   5.518   5.043   0.602  2.6645  0.8882 -0.2453
 2515TIP3    H229105   5.544   5.180   0.541 -1.5929  1.6803 -0.6554
 2516TIP3   OH229106   6.899   0.448   8.034  0.6484  0.0579 -0.5048
 2516TIP3    H129107   6.868   0.530   8.073 -0.2829 -0.6536  0.2974
 2516TIP3    H229108   6.933   0.474   7.948  0.0658  1.2377 -0.4040
 2517TIP3   OH229109   0.831   6.391   1.773  0.3659  0.8512  0.1693
 2517TIP3    H129110   0.749   6.345   1.756  0.8746 -0.0095 -0.0270
 2517TIP3    H229111   0.805   6.469   1.821 -0.7365  1.4903 -1.4077
 2518TIP3   OH229112   3.895   3.306   0.727  0.1780 -0.0376  0.4030
 2518TIP3    H129113   3.921   3.373   0.663  1.2820 -0.2397  0.6173
 2518TIP3    H229114   3.953   3.232   0.708  1.3752  0.3277  2.3825
 2519TIP3   OH229115   1.473   5.786   0.638 -0.1402 -0.4909  0.4738
 2519TIP3    H129116   1.425   5.854   0.590 -1.0751 -1.5663 -0.1752
 2519TIP3    H229117   1.481   5.820   0.727 -1.6476 -0.0277  0.4572
 2520TIP3   OH229118   2.996   3.837   8.034 -0.4908  0.6796  0.0960
 2520TIP3    H129119   3.005   3.918   8.085  1.3605  0.9176 -0.5270
 2520TIP3    H229120   3.046   3.772   8.084  3.3634  1.4492 -2.3729
 2521TIP3   OH229121   5.426   6.494   7.521 -0.3212  0.1111 -0.2047
 2521TIP3    H129122   5.432   6.414   7.573  1.6215 -1.0896 -2.1380
 2521TIP3    H229123   5.363   6.473   7.452  1.7807 -0.5979 -1.9924
 2522TIP3   OH229124   2.617   4.857   2.357 -0.0472  0.2187 -0.6173
 2522TIP3    H129125   2.700   4.897   2.333  1.1956 -1.8588  0.0465
 2522TIP3    H229126   2.607   4.876   2.451  0.9398 -1.5719 -0.1052
 2523TIP3   OH229127   1.176   0.680   7.797  0.4524 -0.3492  0.3057
 2523TIP3    H129128   1.211   0.762   7.832 -0.4631 -0.0383  0.5339
 2523TIP3    H229129   1.225   0.666   7.716  1.9213 -0.5757  1.1973
 2524TIP3   OH229130   1.869   5.352   2.410  0.3381 -1.0262 -0.3976
 2524TIP3    H129131   1.890   5.374   2.319 -0.0693 -1.0939 -0.5114
 2524TIP3    H229132   1.776   5.374   2.419  0.7364  0.4611  0.4490
 2525TIP3   OH229133   2.507   0.217   0.843 -0.1344  0.7369 -0.1204
 2525TIP3    H129134   2.479   0.135   0.801  0.1672  1.2714 -1.3912
 2525TIP3    H229135   2.451   0.284   0.805  0.8546  1.3811 -0.4624
 2526TIP3   OH229136   1.044   5.956   1.451 -0.2694  0.5864 -0.0695
 2526TIP3    H129137   1.042   6.006   1.532 -2.3647  0.3017  0.1246
 2526TIP3    H229138   0.997   6.010   1.388 -0.2506  0.0233 -0.5855
 2527TIP3   OH229139   1.304   3.330   2.863 -0.3726 -0.2730  0.0182
 2527TIP3    H129140   1.257   3.248   2.847 -0.1339 -0.0830 -1.9752
 2527TIP3    H229141   1.395   3.310   2.843  0.2435 -0.2721  2.5023
 2528TIP3   OH229142   3.623   5.203   0.158  0.4071 -0.5724  0.4246
 2528TIP3    H129143   3.683   5.277   0.147  0.1164 -0.4434 -0.3926
 2528TIP3    H229144   3.664   5.132   0.109  2.5570 -2.1345  4.1514
 2529TIP3   OH229145   2.685   6.794   1.870 -0.3563 -0.7444 -0.1437
 2529TIP3    H129146   2.633   6.863   1.911  0.5310 -0.6749  0.9186
 2529TIP3    H229147   2.628   6.758   1.803 -0.0487  2.5634 -2.3925
 2530TIP3   OH229148   6.285   6.127   3.398  0.9222  0.6084 -0.1005
 2530TIP3    H129149   6.352   6.077   3.352  1.5465  1.3354 -0.0108
 2530TIP3    H229150   6.335   6.190   3.450  0.1608  1.4063 -0.3183
 2531TIP3   OH229151   0.283   2.446   1.922 -0.3501  0.4502  0.0692
 2531TIP3    H129152   0.265   2.534   1.890 -0.2882  0.5245  0.2375
 2531TIP3    H229153   0.372   2.427   1.892  0.3376  1.1505  1.5559
 2532TIP3   OH229154   4.573   0.910   2.499  0.0177  0.4587  0.6851
 2532TIP3    H129155   4.629   0.843   2.540 -0.3535  0.3242  0.9763
 2532TIP3    H229156   4.516   0.860   2.440 -1.2890  0.3278  2.0205
 2533TIP3   OH229157   0.793   3.933   1.489 -0.0941 -0.2507 -0.1257
 2533TIP3    H129158   0.884   3.929   1.462 -0.4655  2.2192 -2.2038
 2533TIP3    H229159   0.796   3.961   1.581  1.2379 -0.0425 -0.2138
 2534TIP3   OH229160   2.460   5.962   7.781 -0.4788  0.3721 -0.3707
 2534TIP3    H129161   2.421   6.003   7.704  0.8564 -1.0694 -1.8631
 2534TIP3    H229162   2.552   5.986   7.778 -0.4123  0.3506  0.8296
 2535TIP3   OH229163   0.776   2.171   7.607  0.0134 -0.6615  0.2105
 2535TIP3    H129164   0.793   2.150   7.699  2.1104 -1.5343 -0.3125
 2535TIP3    H229165   0.857   2.213   7.577 -0.9500  0.3628 -1.0452
 2536TIP3   OH229166   3.307   1.608   0.909 -0.2410  0.0910 -0.5293
 2536TIP3    H129167   3.237   1.646   0.962 -1.1809 -0.5538 -1.2674
 2536TIP3    H229168   3.269   1.603   0.821  1.8144  2.6889 -1.7100
 2537TIP3   OH229169   1.460   1.291   1.063  0.0252  0.0639 -0.2081
 2537TIP3    H129170   1.531   1.342   1.101  1.1326 -1.0647 -0.6947
 2537TIP3    H229171   1.382   1.345   1.076  0.8488  1.0278  0.9522
 2538TIP3   OH229172   0.904   6.638   1.589 -0.0842 -0.0717  0.7156
 2538TIP3    H129173   0.841   6.596   1.647  0.4992 -0.6595  0.9313
 2538TIP3    H229174   0.963   6.686   1.647  0.5490 -0.7284  0.6266
 2539TIP3   OH229175   5.093   5.003   2.317  0.1396  0.1453 -0.4742
 2539TIP3    H129176   5.054   4.959   2.393  1.8551 -1.1008 -0.2367
 2539TIP3    H229177   5.020   5.045   2.273 -1.3401 -1.4490  0.3352
 2540TIP3   OH229178   6.830   5.565   0.199  0.3341  0.6513 -0.6249
 2540TIP3    H129179   6.784   5.482   0.214  1.4255  0.1702  0.1952
 2540TIP3    H229180   6.765   5.632   0.216 -0.4984 -0.0285 -1.0416
 2541TIP3   OH229181   4.225   2.717   2.131 -0.2617  0.7137  0.1043
 2541TIP3    H129182   4.221   2.753   2.219  1.6894 -0.8557  0.9152
 2541TIP3    H229183   4.199   2.790   2.074 -1.9935  1.6352  1.9491
 2542TIP3   OH229184   1.079   5.643   3.002  0.1953 -0.2046  0.4691
 2542TIP3    H129185   1.164   5.618   3.039 -0.4430 -0.4914  1.8233
 2542TIP3    H229186   1.024   5.659   3.078 -1.4986 -1.8281 -0.3379
 2543TIP3   OH229187   1.679   4.504   0.962 -0.0855  0.0054 -0.1697
 2543TIP3    H129188   1.660   4.451   1.039 -1.2541 -0.6456 -0.8826
 2543TIP3    H229189   1.604   4.564   0.955 -1.2505 -1.5308 -2.1129
 2544TIP3   OH229190   3.884   5.643   0.176 -0.1271 -0.0103 -0.0411
 2544TIP3    H129191   3.848   5.564   0.135  1.3004 -0.4251 -0.5282
 2544TIP3    H229192   3.889   5.707   0.105 -0.2714  0.1836  0.1203
 2545TIP3   OH229193   3.872   2.211   7.807  0.1193 -0.2782  0.5899
 2545TIP3    H129194   3.964   2.192   7.787  0.3525  1.4727 -0.1986
 2545TIP3    H229195   3.863   2.305   7.791 -2.0744 -0.5918 -0.3522
 2546TIP3   OH229196   0.942   5.182   2.570 -0.0952  0.1830 -0.0110
 2546TIP3    H129197   1.029   5.199   2.536 -0.4925  0.2344 -1.0444
 2546TIP3    H229198   0.925   5.254   2.630  1.3880 -0.9526  1.8861
 2547TIP3   OH229199   4.640   5.041   2.225  0.0621 -0.2495 -0.2608
 2547TIP3    H129200   4.664   4.952   2.250  0.5302  0.1091  0.6420
 2547TIP3    H229201   4.552   5.053   2.259  0.0937 -0.2980 -0.1602
 2548TIP3   OH229202   3.864   2.381   2.392 -0.3471  0.7605 -0.6707
 2548TIP3    H129203   3.879   2.475   2.381 -1.4538  0.9648 -0.5141
 2548TIP3    H229204   3.822   2.354   2.311 -0.9413  0.6009 -0.3117
 2549TIP3   OH229205   6.353   0.509   1.474  0.0460 -0.1595 -0.3605
 2549TIP3    H129206   6.340   0.414   1.476 -1.6854  0.0318 -0.3452
 2549TIP3    H229207   6.362   0.534   1.566  2.2613 -0.4669 -0.4440
 2550TIP3   OH229208   0.071   5.731   0.044  0.4517 -0.0171 -0.4686
 2550TIP3    H129209   0.122   5.650   0.052 -2.1585 -1.9954 -2.0980
 2550TIP3    H229210  -0.020   5.702   0.045 -0.6013  2.5831 -3.5452
 2551TIP3   OH229211   5.756   6.111   1.207 -0.4286  0.4000 -0.2610
 2551TIP3    H129212   5.682   6.132   1.265 -0.3199 -0.3646  0.1688
 2551TIP3    H229213   5.757   6.182   1.143 -0.7471  1.0885  0.4876
 2552TIP3   OH229214   4.922   4.682   0.106  0.3726 -0.4084 -0.2429
 2552TIP3    H129215   4.927   4.733   0.026  2.7239  2.9471  1.7796
 2552TIP3    H229216   4.851   4.723   0.157  0.3595 -1.0695  0.2980
 2553TIP3   OH229217   3.760   6.988   0.672 -0.0098 -0.5126  0.0354
 2553TIP3    H129218   3.675   6.988   0.715 -2.0492  0.7667 -3.5168
 2553TIP3    H229219   3.785   6.896   0.667 -1.8826 -1.0535  0.0189
 2554TIP3   OH229220   2.105   0.936   1.337  0.0357  0.0183 -0.2329
 2554TIP3    H129221   2.063   0.898   1.260 -1.0436  1.2399 -0.2622
 2554TIP3    H229222   2.127   0.860   1.391 -1.8920 -0.6917 -0.3693
 2555TIP3   OH229223   2.436   6.464   8.174  0.9511 -0.1510 -0.0362
 2555TIP3    H129224   2.473   6.539   8.220  0.1821  0.5943 -0.6033
 2555TIP3    H229225   2.350   6.493   8.145 -0.5293 -2.0959  1.9953
 2556TIP3   OH229226   5.979   5.292   1.135 -0.5428  0.0272 -0.1215
 2556TIP3    H129227   6.026   5.345   1.200  0.2657  0.3290 -0.9285
 2556TIP3    H229228   5.907   5.348   1.107 -1.1991 -0.2982  0.8691
 2557TIP3   OH229229   0.801   4.954   1.770  0.4019 -0.0001 -0.0057
 2557TIP3    H129230   0.784   5.046   1.753  3.1402  0.2322 -2.3681
 2557TIP3    H229231   0.765   4.908   1.694 -1.4991 -1.0339  1.4375
 2558TIP3   OH229232   5.227   5.568   2.316  0.0843  0.0009 -0.4086
 2558TIP3    H129233   5.301   5.523   2.275  1.2864  1.9021 -0.4762
 2558TIP3    H229234   5.173   5.598   2.242  1.4278  2.0698 -0.6459
 2559TIP3   OH229235   4.663   4.771   6.978 -0.4808 -1.0798 -0.0565
 2559TIP3    H129236   4.583   4.821   6.995 -0.3681 -0.9794  0.1753
 2559TIP3    H229237   4.646   4.685   7.017 -0.3790 -0.9784  0.2116
 2560TIP3   OH229238   6.423   5.205   7.745 -0.1437  0.2413  0.4671
 2560TIP3    H129239   6.440   5.182   7.654 -0.5607 -2.8789  1.0569
 2560TIP3    H229240   6.328   5.207   7.752 -0.1348 -0.7432  1.0584
 2561TIP3   OH229241   5.926   0.885   0.464 -0.1501  0.5482 -0.0117
 2561TIP3    H129242   5.969   0.835   0.395 -0.2503 -0.4627  0.6411
 2561TIP3    H229243   5.833   0.878   0.445 -0.1188  1.3123 -0.4672
 2562TIP3   OH229244   1.473   4.969   8.309  0.1426 -0.3767  0.3308
 2562TIP3    H129245   1.409   4.923   8.363  0.3653  0.8397  1.6716
 2562TIP3    H229246   1.537   5.004   8.371  1.3908 -0.4129 -0.8682
 2563TIP3   OH229247   2.554   2.422   3.453 -0.2677 -0.1490  0.2724
 2563TIP3    H129248   2.464   2.454   3.462 -0.4711 -0.1617 -1.4987
 2563TIP3    H229249   2.565   2.362   3.527 -1.2926  0.7408  1.1982
 2564TIP3   OH229250   1.652   3.142   1.565 -0.2503  0.0706 -0.1258
 2564TIP3    H129251   1.684   3.103   1.484  1.4841  1.6186 -0.2530
 2564TIP3    H229252   1.647   3.069   1.627  2.6018 -0.4856 -0.4090
 2565TIP3   OH229253   4.561   2.995   0.297 -0.3128 -0.1391 -0.0462
 2565TIP3    H129254   4.492   3.024   0.237  0.1325  1.5699  0.1912
 2565TIP3    H229255   4.636   3.051   0.275  0.5020 -0.8886  0.7423
 2566TIP3   OH229256   6.044   6.710   1.663  0.2326 -0.0181 -0.2044
 2566TIP3    H129257   6.124   6.660   1.680  0.6215  0.8942  0.7065
 2566TIP3    H229258   6.072   6.801   1.660 -0.4664  0.1855 -1.9039
 2567TIP3   OH229259   1.690   3.489   1.040 -0.4711 -0.2776  0.1057
 2567TIP3    H129260   1.736   3.535   1.110  1.3245  0.2295 -1.3428
 2567TIP3    H229261   1.610   3.457   1.082  0.8258 -0.5841  2.5451
 2568TIP3   OH229262   4.327   6.653   0.705  0.2850 -0.7547 -0.4036
 2568TIP3    H129263   4.318   6.669   0.611  1.2152 -0.3531 -0.4364
 2568TIP3    H229264   4.348   6.560   0.711 -1.7110 -1.2384 -0.4491
 2569TIP3   OH229265   3.529   0.377   1.534  0.2800 -0.2321  0.4952
 2569TIP3    H129266   3.440   0.412   1.533 -0.4893 -2.0893  0.0847
 2569TIP3    H229267   3.527   0.310   1.602  1.7345  0.5505  1.3425
 2570TIP3   OH229268   1.471   4.505   7.771 -0.3834 -0.2453  0.3344
 2570TIP3    H129269   1.425   4.456   7.840  1.6450 -2.2983  0.3528
 2570TIP3    H229270   1.563   4.481   7.782  0.3585  1.5147 -1.4307
 2571TIP3   OH229271   3.642   5.549   2.925 -0.4112 -0.6407  0.4155
 2571TIP3    H129272   3.611   5.486   2.989  1.2353 -0.5891  1.3276
 2571TIP3    H229273   3.620   5.635   2.962 -1.6787 -0.6252 -0.3097
 2572TIP3   OH229274   1.061   2.951   7.232  0.7191  0.3791 -0.0785
 2572TIP3    H129275   1.086   2.897   7.157  0.4623  0.5976 -0.3234
 2572TIP3    H229276   0.979   2.912   7.263  0.8498  0.2611  0.1148
 2573TIP3   OH229277   5.956   2.222   0.800  0.0251 -0.2291  0.7483
 2573TIP3    H129278   5.954   2.315   0.820  2.8237 -0.3450  2.0779
 2573TIP3    H229279   5.865   2.200   0.780 -0.7857  2.6739  0.7707
 2574TIP3   OH229280   0.832   0.074   8.372  0.0284  0.4886  0.0718
 2574TIP3    H129281   0.926   0.093   8.381  0.1638  0.8701 -1.8200
 2574TIP3    H229282   0.822   0.043   8.283 -1.5653 -0.2141  0.4647
 2575TIP3   OH229283   1.318   6.261   1.827 -0.2052  0.2317 -1.0121
 2575TIP3    H129284   1.299   6.354   1.811  0.0356  0.0165 -2.8442
 2575TIP3    H229285   1.413   6.255   1.821 -0.3207 -0.7225 -5.4567
 2576TIP3   OH229286   4.319   5.619   2.108 -0.1161  0.2594  0.0049
 2576TIP3    H129287   4.322   5.698   2.054 -2.5959 -0.8051 -1.8999
 2576TIP3    H229288   4.355   5.550   2.051 -1.8306 -0.6897 -0.0233
 2577TIP3   OH229289   1.514   5.578   8.194 -0.5120  0.0189  0.1792
 2577TIP3    H129290   1.434   5.530   8.173  0.6997 -1.7648 -0.5317
 2577TIP3    H229291   1.499   5.666   8.160 -1.1723 -0.9916 -2.3175
 2578TIP3   OH229292   3.688   2.605   8.081  0.7431  0.1613  0.1962
 2578TIP3    H129293   3.672   2.627   7.989  1.9071  0.8740  0.1492
 2578TIP3    H229294   3.755   2.537   8.079 -0.1139 -0.7157  0.4921
 2579TIP3   OH229295   1.098   6.890   1.504 -0.5509  0.2490 -0.4055
 2579TIP3    H129296   1.087   6.899   1.409  1.5639  0.1000 -0.7006
 2579TIP3    H229297   1.082   6.978   1.539  0.0266  0.6264 -1.0630
 2580TIP3   OH229298   3.906   5.569   0.558 -0.2960 -0.2506 -0.1118
 2580TIP3    H129299   3.977   5.560   0.621  0.9455  1.3418 -1.2087
 2580TIP3    H229300   3.932   5.513   0.485 -0.0092  0.5697 -0.6428
 2581TIP3   OH229301   0.900   1.406   0.167  0.4883 -0.2629 -0.1515
 2581TIP3    H129302   0.902   1.458   0.086 -0.9699 -2.0548 -1.4320
 2581TIP3    H229303   0.859   1.463   0.231  0.9526  0.9374 -0.8821
 2582TIP3   OH229304   4.107   6.812   7.626 -0.0125  0.1920  0.0225
 2582TIP3    H129305   4.140   6.845   7.543 -1.4496  0.9935 -0.2749
 2582TIP3    H229306   4.169   6.844   7.692 -0.1382  1.5802 -0.5074
 2583TIP3   OH229307   1.747   4.289   2.865  0.3701 -0.3163  1.1213
 2583TIP3    H129308   1.816   4.344   2.829 -0.7061  0.0658 -0.4441
 2583TIP3    H229309   1.683   4.350   2.901  0.1529 -0.6167  1.2492
 2584TIP3   OH229310   5.493   2.065   8.016  0.4149  0.0151  0.2855
 2584TIP3    H129311   5.482   2.134   7.950  0.1038  0.1516  0.4759
 2584TIP3    H229312   5.411   2.017   8.015  0.0250  0.6188  1.2449
 2585TIP3   OH229313   2.817   1.103   2.083  0.5529  0.2248  0.4477
 2585TIP3    H129314   2.746   1.167   2.088 -0.9266 -1.4150  1.5705
 2585TIP3    H229315   2.804   1.059   1.999 -0.4836 -0.8504  1.1588
 2586TIP3   OH229316   6.390   2.607   1.583  0.2465 -0.6440  0.2388
 2586TIP3    H129317   6.367   2.638   1.671 -0.1091 -0.0161 -0.0702
 2586TIP3    H229318   6.460   2.666   1.555  0.2736 -0.7643  0.0540
 2587TIP3   OH229319   5.952   2.648   7.853 -0.8725  0.0156 -0.3319
 2587TIP3    H129320   5.930   2.726   7.905  0.0252 -0.3127  0.5810
 2587TIP3    H229321   5.905   2.577   7.898 -0.3606 -0.2189 -0.1666
 2588TIP3   OH229322   2.435   5.330   8.349  0.5227  0.0800 -0.3179
 2588TIP3    H129323   2.488   5.339   8.271 -0.7447  0.0500 -1.2134
 2588TIP3    H229324   2.366   5.396   8.339  1.9472  2.1334  2.1775
 2589TIP3   OH229325   6.822   2.854   1.917  0.1498 -0.0866  0.1250
 2589TIP3    H129326   6.795   2.811   1.836  1.3779  0.1551 -0.4344
 2589TIP3    H229327   6.760   2.823   1.983 -1.2494  0.1829 -1.0152
 2590TIP3   OH229328   3.043   0.829   8.293  0.0988 -0.4374 -0.3746
 2590TIP3    H129329   3.051   0.736   8.314 -1.5229 -0.2042  1.4758
 2590TIP3    H229330   2.968   0.834   8.233 -1.2624 -0.1313  1.2959
 2591TIP3   OH229331   0.175   5.138   0.797 -0.4002 -0.3402 -0.3658
 2591TIP3    H129332   0.094   5.156   0.845 -0.3373  0.9001 -0.6923
 2591TIP3    H229333   0.186   5.213   0.739  2.2256  0.7702  1.3373
 2592TIP3   OH229334   2.062   2.109   8.187  0.0623 -0.1385  0.2085
 2592TIP3    H129335   2.044   2.140   8.098  1.3387  1.2414  0.3918
 2592TIP3    H229336   2.099   2.022   8.175  1.4238  0.5307 -0.7362
 2593TIP3   OH229337   2.358   3.132   7.750  0.7558 -0.5218 -0.0158
 2593TIP3    H129338   2.432   3.189   7.729  1.4761 -2.3291 -2.8883
 2593TIP3    H229339   2.283   3.191   7.754  2.0129  1.1066  1.1922
 2594TIP3   OH229340   1.813   6.615   0.973  0.3061  0.0105  0.4706
 2594TIP3    H129341   1.809   6.519   0.969  0.5223 -0.0188  0.9380
 2594TIP3    H229342   1.881   6.638   0.910 -0.6865 -0.0482 -0.6733
 2595TIP3   OH229343   1.650   4.291   2.275  0.6213  0.3216 -0.4529
 2595TIP3    H129344   1.629   4.214   2.222 -0.9893  0.9375 -0.7584
 2595TIP3    H229345   1.593   4.360   2.241 -0.7876  0.6485  2.3066
 2596TIP3   OH229346   2.329   0.011   0.441 -0.5669 -0.6100 -0.0600
 2596TIP3    H129347   2.258  -0.037   0.399  0.7622 -1.6032 -1.3110
 2596TIP3    H229348   2.409  -0.033   0.410  0.5835  0.1264  1.6852
 2597TIP3   OH229349   5.234   2.754   1.005 -0.4311 -0.0071  0.6353
 2597TIP3    H129350   5.308   2.784   1.058  0.9105 -0.4899 -0.8786
 2597TIP3    H229351   5.199   2.833   0.965 -0.1929  0.1294  0.6926
 2598TIP3   OH229352   5.626   6.438   0.165  0.2012  0.1344 -0.1690
 2598TIP3    H129353   5.565   6.510   0.181 -0.3638 -0.0567 -1.3116
 2598TIP3    H229354   5.705   6.462   0.213 -0.5139  0.7590  0.7172
 2599TIP3   OH229355   4.828   6.588   2.093 -0.6510  0.1452  0.0768
 2599TIP3    H129356   4.786   6.549   2.017 -1.3974  2.1064 -0.5732
 2599TIP3    H229357   4.851   6.514   2.149 -2.3353 -1.1638 -0.9037
 2600TIP3   OH229358   3.582   0.339   7.560 -0.6193 -0.4802  0.3808
 2600TIP3    H129359   3.599   0.288   7.639 -2.9823 -0.4957  0.9833
 2600TIP3    H229360   3.647   0.309   7.497 -0.3663 -2.4495  1.4836
 2601TIP3   OH229361   0.523   3.878   8.265  0.1740 -0.3354  0.2694
 2601TIP3    H129362   0.486   3.889   8.353 -0.9952 -0.4999 -0.1817
 2601TIP3    H229363   0.494   3.791   8.238 -0.5967  0.2220 -0.7811
 2602TIP3   OH229364   5.782   4.406   1.597  0.4084 -0.6565 -0.9865
 2602TIP3    H129365   5.737   4.481   1.637 -0.3013 -1.1249 -0.8887
 2602TIP3    H229366   5.714   4.359   1.550  0.7141 -1.5989 -0.5113
 2603TIP3   OH229367   5.716   1.836   7.522 -0.4086 -0.6829  0.4841
 2603TIP3    H129368   5.755   1.753   7.549  0.7504  0.4122  2.5092
 2603TIP3    H229369   5.623   1.826   7.542 -0.6331 -2.0886 -1.0424
 2604TIP3   OH229370   3.022   5.557   1.298  0.3550  0.2575  0.1904
 2604TIP3    H129371   3.006   5.651   1.285 -0.6630  0.0281 -0.3077
 2604TIP3    H229372   3.117   5.548   1.288  0.3978  1.1413 -0.3759
 2605TIP3   OH229373   0.058   1.238   0.429  0.0251 -0.2847 -0.4395
 2605TIP3    H129374   0.022   1.303   0.489  1.6621  0.8528 -0.6192
 2605TIP3    H229375  -0.002   1.238   0.354 -1.0729 -0.4527  0.4178
 2606TIP3   OH229376   4.454   4.067   0.896  0.1131 -0.3035  0.0525
 2606TIP3    H129377   4.434   4.010   0.821  1.1688  1.2649 -1.5064
 2606TIP3    H229378   4.368   4.095   0.928 -0.3560 -0.8731 -0.6767
 2607TIP3   OH229379   5.586   0.637   8.119 -0.8244 -0.5321  0.5566
 2607TIP3    H129380   5.581   0.727   8.149  1.1456 -0.9965  2.5359
 2607TIP3    H229381   5.579   0.643   8.024  1.4349  1.9558  0.4518
 2608TIP3   OH229382   4.041   5.957   0.918  0.5478  0.2245 -0.7668
 2608TIP3    H129383   4.134   5.973   0.899  0.4235  2.7456  0.3782
 2608TIP3    H229384   4.042   5.913   1.003  0.7108  1.9637  0.1835
 2609TIP3   OH229385   4.976   2.956   0.093 -0.6077  0.0373 -0.0566
 2609TIP3    H129386   4.990   2.862   0.082 -3.2324 -0.2128 -3.0720
 2609TIP3    H229387   5.035   2.997   0.029 -0.1468  0.4023  0.5876
 2610TIP3   OH229388   5.544   6.467   0.697 -0.0393  0.5216  0.0591
 2610TIP3    H129389   5.511   6.437   0.782  1.7267 -0.9329  0.2820
 2610TIP3    H229390   5.614   6.406   0.675 -0.3351  0.9494 -2.3977
 2611TIP3   OH229391   1.970   6.313   8.086  0.1330  0.0829 -0.4280
 2611TIP3    H129392   2.002   6.329   7.998  2.4487 -0.0855  0.3143
 2611TIP3    H229393   1.991   6.221   8.103  0.0082  0.1989  0.4180
 2612TIP3   OH229394   4.754   3.036   1.094 -0.2070  0.4475  0.4152
 2612TIP3    H129395   4.741   2.982   1.016  0.2086  0.3931  0.3810
 2612TIP3    H229396   4.819   2.988   1.146  1.9931  2.0603 -0.7203
 2613TIP3   OH229397   5.820   5.063   3.142  0.1629 -0.0696  0.2168
 2613TIP3    H129398   5.895   5.114   3.112  0.1320 -0.0258  0.2130
 2613TIP3    H229399   5.805   5.094   3.232 -0.2475  0.3825 -0.0018
 2614TIP3   OH229400   2.127   2.849   2.680  0.4580 -0.5223  0.1532
 2614TIP3    H129401   2.171   2.858   2.765 -3.4919 -0.8513  2.4699
 2614TIP3    H229402   2.110   2.939   2.652  0.5382 -0.4394  0.3718
 2615TIP3   OH229403   6.925   5.758   1.276  0.0696  0.1635  0.2653
 2615TIP3    H129404   6.947   5.739   1.185  0.3416  1.4239  0.0568
 2615TIP3    H229405   6.922   5.672   1.318  2.9795 -0.2634 -0.2254
 2616TIP3   OH229406   5.869   3.250   1.004 -0.0700 -0.2550  0.2898
 2616TIP3    H129407   5.803   3.268   0.937  0.0696 -0.8862 -0.0239
 2616TIP3    H229408   5.862   3.324   1.065 -0.9574 -0.2362  0.1796
 2617TIP3   OH229409   3.123   4.238   0.325  0.4662  0.0799 -0.5960
 2617TIP3    H129410   3.092   4.217   0.237  1.3063 -1.2178 -0.6027
 2617TIP3    H229411   3.073   4.180   0.383  0.7618  0.0873 -0.3299
 2618TIP3   OH229412   6.243   5.523   0.857  0.4870 -0.1126  0.4265
 2618TIP3    H129413   6.293   5.466   0.915  3.2317  1.8974  0.2396
 2618TIP3    H229414   6.183   5.570   0.915  0.9227 -0.4321  1.1522
 2619TIP3   OH229415   6.375   0.062   1.272  0.3473 -0.0816  0.2067
 2619TIP3    H129416   6.411  -0.025   1.290  0.9960 -0.1588 -1.3099
 2619TIP3    H229417   6.451   0.114   1.246  0.0379  1.0822  1.4745
 2620TIP3   OH229418   2.048   0.051   2.360  0.2610  0.6150  0.0489
 2620TIP3    H129419   1.974   0.107   2.337  0.1216 -0.0950 -1.3350
 2620TIP3    H229420   2.011  -0.015   2.418  0.0105  0.8130  0.1163
 2621TIP3   OH229421   0.455   2.552   0.804  0.4827 -0.3233  0.0207
 2621TIP3    H129422   0.454   2.647   0.788  0.8998 -0.4661 -0.9046
 2621TIP3    H229423   0.530   2.538   0.861 -0.5200  0.0889  1.5020
 2622TIP3   OH229424   6.982   4.944   0.459 -0.5187  0.0706 -0.1938
 2622TIP3    H129425   7.034   4.886   0.515 -1.8622  1.9797  3.3761
 2622TIP3    H229426   7.046   4.992   0.408  0.8605 -1.4032  0.0765
 2623TIP3   OH229427   6.516   3.189   8.010  0.3834  0.1293 -0.4346
 2623TIP3    H129428   6.497   3.269   7.960 -1.2611  0.4675  0.6148
 2623TIP3    H229429   6.447   3.128   7.984  0.3417 -0.1711  0.3411
 2624TIP3   OH229430   5.107   2.685   2.802 -0.1850  0.2514 -0.4654
 2624TIP3    H129431   5.077   2.655   2.888  0.9541  3.2206  1.1284
 2624TIP3    H229432   5.030   2.679   2.746 -1.1937 -0.9666  0.9677
 2625TIP3   OH229433   5.380   4.610   0.187 -0.4405 -0.0890  0.1072
 2625TIP3    H129434   5.315   4.679   0.201 -0.2399 -0.0634  0.9869
 2625TIP3    H229435   5.385   4.565   0.271 -0.7278 -1.3251 -0.5159
 2626TIP3   OH229436   2.828   3.404   2.796 -0.1820 -1.1045  0.3716
 2626TIP3    H129437   2.845   3.314   2.767  1.5089 -0.4929 -0.7012
 2626TIP3    H229438   2.912   3.449   2.786 -0.3258  0.0331  3.2187
 2627TIP3   OH229439   0.441   3.830   0.795  0.3204 -0.2116 -0.0575
 2627TIP3    H129440   0.379   3.758   0.807 -0.5230  0.3836 -0.7117
 2627TIP3    H229441   0.440   3.877   0.878 -0.7358  0.2645 -0.3268
 2628TIP3   OH229442   1.715   2.466   1.713  0.2361 -0.1594  0.5309
 2628TIP3    H129443   1.706   2.529   1.785 -1.8344  0.2835 -0.0677
 2628TIP3    H229444   1.758   2.390   1.754 -0.3832  0.2891  2.1021
 2629TIP3   OH229445   3.902   3.872   1.985 -0.1263 -0.2901 -0.0633
 2629TIP3    H129446   3.898   3.920   2.068 -0.9735 -0.7760  0.1941
 2629TIP3    H229447   3.838   3.801   1.995  0.1918 -0.7145 -0.9088
 2630TIP3   OH229448   5.238   5.492   1.112  0.1025  0.2042  0.0242
 2630TIP3    H129449   5.285   5.541   1.044  1.6299 -0.1312  0.7728
 2630TIP3    H229450   5.250   5.400   1.087 -0.7893  0.1316 -0.1525
 2631TIP3   OH229451   0.565   6.524   0.832  0.5689  0.5108 -0.0735
 2631TIP3    H129452   0.568   6.429   0.821  1.5012  0.5895 -0.6051
 2631TIP3    H229453   0.657   6.551   0.833  0.3309  1.3566  0.5667
 2632TIP3   OH229454   2.249   4.256   1.842  0.5991 -0.5616 -0.6233
 2632TIP3    H129455   2.203   4.181   1.878 -1.1000  0.4934 -0.4633
 2632TIP3    H229456   2.338   4.248   1.875  0.2040 -1.9689  0.1809
 2633TIP3   OH229457   0.485   0.034   8.391 -0.4375 -0.1139  0.1219
 2633TIP3    H129458   0.549   0.049   8.322  0.3436 -1.9038  0.4062
 2633TIP3    H229459   0.524   0.072   8.470 -0.2175 -0.2629  0.0834
 2634TIP3   OH229460   6.639   0.968   7.550 -0.4732 -0.5052  0.3118
 2634TIP3    H129461   6.698   0.898   7.579 -0.4522 -0.5927  0.0637
 2634TIP3    H229462   6.555   0.923   7.534 -1.1601 -0.0837  2.4661
 2635TIP3   OH229463   4.024   5.280   7.712 -0.1821 -0.0928 -0.5383
 2635TIP3    H129464   3.941   5.319   7.686 -0.1988  1.3868  1.4343
 2635TIP3    H229465   4.090   5.344   7.685  0.0917 -0.2196 -0.1892
 2636TIP3   OH229466   4.042   5.656   2.248  0.3296 -0.6335 -0.3732
 2636TIP3    H129467   4.072   5.706   2.323  0.1658 -1.1865  0.0661
 2636TIP3    H229468   4.100   5.683   2.176  0.4771 -0.0991 -0.0525
 2637TIP3   OH229469   5.299   3.950   8.415 -0.0567  0.0405 -0.4409
 2637TIP3    H129470   5.237   3.881   8.441  0.7271 -0.2533  0.7380
 2637TIP3    H229471   5.274   4.026   8.467  0.8228 -0.2070  0.3627
 2638TIP3   OH229472   1.906   2.873   8.107  0.0039 -0.4836 -0.7404
 2638TIP3    H129473   1.920   2.811   8.178 -0.4108  2.3145  2.0104
 2638TIP3    H229474   1.825   2.843   8.064 -0.8082 -1.2638  1.2063
 2639TIP3   OH229475   1.621   1.365   1.336 -0.0905  0.1434  0.2017
 2639TIP3    H129476   1.681   1.435   1.309 -0.8805  1.2530  1.2192
 2639TIP3    H229477   1.601   1.385   1.427 -1.9850 -0.2208 -0.0924
 2640TIP3   OH229478   1.064   2.742   1.003  0.4894 -0.3752 -0.1820
 2640TIP3    H129479   1.034   2.820   0.956  0.8200 -0.4039 -0.4437
 2640TIP3    H229480   1.064   2.768   1.095  0.5547 -0.0817 -0.2644
 2641TIP3   OH229481   4.357   3.670   8.336 -0.3953 -0.0019  0.4479
 2641TIP3    H129482   4.285   3.651   8.396  1.2252  0.4040  2.6492
 2641TIP3    H229483   4.386   3.758   8.360  1.9295 -0.8096  0.9038
 2642TIP3   OH229484   6.736   4.796   0.584  0.2658  0.3348 -0.5484
 2642TIP3    H129485   6.745   4.774   0.491 -0.4622 -1.1977 -0.2861
 2642TIP3    H229486   6.753   4.714   0.630 -1.5469  0.5149  0.5569
 2643TIP3   OH229487   1.002   1.478   7.872  0.0525  0.3941 -0.2118
 2643TIP3    H129488   1.091   1.470   7.907  0.2354  2.3159 -0.1683
 2643TIP3    H229489   0.947   1.432   7.936  1.0457 -1.4651 -0.6081
 2644TIP3   OH229490   6.836   1.270   2.830  0.2328  0.6626  0.0716
 2644TIP3    H129491   6.778   1.196   2.811  0.0946  0.7665  0.0860
 2644TIP3    H229492   6.784   1.327   2.886  0.7012  0.2748  0.9204
 2645TIP3   OH229493   4.867   6.887   0.968  0.2793  0.2490  0.2743
 2645TIP3    H129494   4.808   6.943   1.018  1.3943  1.4355  0.3206
 2645TIP3    H229495   4.885   6.936   0.888  1.5461  0.1444  0.4625
 2646TIP3   OH229496   6.457   2.306   0.571 -0.2124  0.2363  0.0171
 2646TIP3    H129497   6.395   2.287   0.641  2.0657 -1.7428  1.6460
 2646TIP3    H229498   6.453   2.229   0.514 -0.6461  0.9899 -1.0192
 2647TIP3   OH229499   1.864   1.291   1.065 -0.6265  0.6154  0.1079
 2647TIP3    H129500   1.954   1.261   1.077 -0.7786  0.6250  1.4919
 2647TIP3    H229501   1.848   1.346   1.142 -2.9723 -2.2580  1.8782
 2648TIP3   OH229502   1.744   6.687   1.719 -0.1145 -0.1705 -0.0374
 2648TIP3    H129503   1.806   6.639   1.775 -0.0082 -2.7296 -2.1378
 2648TIP3    H229504   1.798   6.720   1.647 -0.8265 -0.5691 -0.7747
 2649TIP3   OH229505   5.448   2.405   7.250 -0.4803 -0.2706  0.0234
 2649TIP3    H129506   5.495   2.330   7.215  0.4400  0.6573 -0.7933
 2649TIP3    H229507   5.358   2.393   7.220 -1.0415 -2.4367  2.1905
 2650TIP3   OH229508   4.411   4.928   6.971  0.3518  0.3248 -0.0822
 2650TIP3    H129509   4.361   5.003   7.004 -0.4341 -0.1497 -0.1566
 2650TIP3    H229510   4.357   4.893   6.900 -0.8977 -2.1896  1.9328
 2651TIP3   OH229511   0.887   2.447   1.915 -0.1178  0.0196  0.7491
 2651TIP3    H129512   0.872   2.354   1.898 -0.8115  0.2476  0.0374
 2651TIP3    H229513   0.800   2.485   1.919  0.1800  1.0391 -1.3706
 2652TIP3   OH229514   0.653   4.403   1.216 -0.1395 -0.4181 -0.0288
 2652TIP3    H129515   0.747   4.418   1.210 -0.2230 -0.4301 -2.1137
 2652TIP3    H229516   0.630   4.361   1.133 -2.0783  0.1166  0.1820
 2653TIP3   OH229517   2.532   4.966   7.889  0.3137 -0.1697  0.7067
 2653TIP3    H129518   2.473   4.943   7.818 -0.8982 -0.8581  1.8903
 2653TIP3    H229519   2.485   5.031   7.940  0.4934 -0.8257  1.7487
 2654TIP3   OH229520   4.552   4.787   1.687  0.1835 -0.6408 -0.4297
 2654TIP3    H129521   4.554   4.708   1.632 -0.9608 -1.3565  0.5068
 2654TIP3    H229522   4.623   4.775   1.749  0.3743 -0.6648 -0.6525
 2655TIP3   OH229523   2.576   0.958   1.890  0.4556  0.4216 -0.3423
 2655TIP3    H129524   2.577   0.923   1.979  0.1278 -0.3895 -0.6475
 2655TIP3    H229525   2.566   1.052   1.902  1.4312  0.4378  0.5014
 2656TIP3   OH229526   3.894   3.755   7.893 -0.2150  0.4662 -0.3922
 2656TIP3    H129527   3.906   3.800   7.977 -0.6068  1.1992 -0.7168
 2656TIP3    H229528   3.903   3.825   7.828 -1.9487  0.3062 -0.8571
 2657TIP3   OH229529   2.583   5.428   1.802 -0.2844  0.1269  0.6063
 2657TIP3    H129530   2.610   5.490   1.871  1.0705  0.3367 -0.0696
 2657TIP3    H229531   2.560   5.348   1.849 -1.6212  0.9756  1.4652
 2658TIP3   OH229532   5.804   1.105   0.192 -0.2621  0.1465 -0.5926
 2658TIP3    H129533   5.736   1.041   0.171  1.1375 -1.0331 -1.7611
 2658TIP3    H229534   5.776   1.186   0.149 -1.7691  0.2047  0.4198
 2659TIP3   OH229535   6.856   3.357   8.380  0.3566 -0.0150 -0.6049
 2659TIP3    H129536   6.833   3.348   8.473  1.5497  1.2657 -0.1530
 2659TIP3    H229537   6.774   3.344   8.334 -0.5684  0.8336  0.7296
 2660TIP3   OH229538   1.380   2.262   0.850  0.0303  0.6737  0.1787
 2660TIP3    H129539   1.325   2.222   0.917  1.7476 -2.0679  0.1028
 2660TIP3    H229540   1.467   2.268   0.889  1.8686 -3.8732 -2.5041
 2661TIP3   OH229541   0.571   3.696   0.391 -0.6883  0.3990 -0.4555
 2661TIP3    H129542   0.522   3.730   0.316 -0.7621  0.1241 -0.5344
 2661TIP3    H229543   0.653   3.664   0.354 -1.4664 -1.4187 -0.7206
 2662TIP3   OH229544   2.250   6.814   2.879  0.5505  0.0563  0.0018
 2662TIP3    H129545   2.200   6.741   2.914  0.5558 -0.6057 -1.3232
 2662TIP3    H229546   2.289   6.855   2.956  1.7942 -2.2433  0.7003
 2663TIP3   OH229547   1.958   4.428   2.252  0.4175 -0.2394 -0.0892
 2663TIP3    H129548   2.049   4.432   2.221 -0.3182 -1.1019 -2.5829
 2663TIP3    H229549   1.912   4.494   2.200 -0.0674  1.7812  2.6881
 2664TIP3   OH229550   3.155   5.348   7.246 -0.0428  0.0010 -0.6214
 2664TIP3    H129551   3.247   5.338   7.267 -0.0396  1.3541  0.1740
 2664TIP3    H229552   3.117   5.261   7.257  0.5845 -0.0176  2.0466
 2665TIP3   OH229553   1.031   4.698   0.438  0.6864 -0.9093 -0.0296
 2665TIP3    H129554   1.084   4.756   0.492 -0.9439 -1.0528  1.8474
 2665TIP3    H229555   1.065   4.610   0.455  2.3652 -0.7004 -1.9390
 2666TIP3   OH229556   0.142   3.332   8.067 -0.2292 -1.0021 -0.2391
 2666TIP3    H129557   0.147   3.353   8.160 -0.0355  1.3229 -0.7196
 2666TIP3    H229558   0.051   3.352   8.042  0.3002  0.6381 -0.9908
 2667TIP3   OH229559   4.301   5.403   0.151  0.2352  0.8416  0.2888
 2667TIP3    H129560   4.376   5.375   0.203  1.0990  0.9805 -0.8274
 2667TIP3    H229561   4.340   5.446   0.074 -0.7416 -2.8112 -2.5548
 2668TIP3   OH229562   1.450   5.025   1.651  0.1484 -0.9371  0.8208
 2668TIP3    H129563   1.414   5.099   1.699 -0.5183 -0.8774  0.2480
 2668TIP3    H229564   1.376   4.966   1.639  0.8944 -2.1972  2.1737
 2669TIP3   OH229565   1.894   2.785   0.798 -0.0268 -0.2852 -0.3825
 2669TIP3    H129566   1.953   2.720   0.835 -0.4192 -0.4212  0.0137
 2669TIP3    H229567   1.869   2.840   0.872  2.0486  1.7342 -1.0609
 2670TIP3   OH229568   3.253   3.609   0.602  0.0190  0.3243  0.3466
 2670TIP3    H129569   3.189   3.645   0.541  0.1976  0.6186  0.3302
 2670TIP3    H229570   3.338   3.636   0.566  0.0935  1.3751  1.2695
 2671TIP3   OH229571   2.213   4.562   2.153  0.2692 -0.1130  0.1240
 2671TIP3    H129572   2.282   4.623   2.180  1.1743 -0.6219 -0.9317
 2671TIP3    H229573   2.158   4.612   2.093 -1.6442  0.9662  2.5994
 2672TIP3   OH229574   6.169   1.346   2.502  0.5941  0.2554 -0.5793
 2672TIP3    H129575   6.236   1.296   2.547  0.0125 -0.2174 -0.2143
 2672TIP3    H229576   6.213   1.382   2.425  0.8913 -1.3232 -1.1861
 2673TIP3   OH229577   1.218   4.864   1.683 -0.1585  0.9773 -0.2718
 2673TIP3    H129578   1.156   4.900   1.747  0.2572  1.4727 -0.1387
 2673TIP3    H229579   1.190   4.773   1.672  0.7864  0.3354  1.9408
 2674TIP3   OH229580   1.307   5.622   3.160 -0.8743  0.1625 -0.4227
 2674TIP3    H129581   1.309   5.634   3.255  0.5670  1.3852 -0.5551
 2674TIP3    H229582   1.367   5.689   3.127 -0.0116 -1.3566 -2.0845
 2675TIP3   OH229583   4.663   2.743   2.862  0.0960 -0.2153 -0.1981
 2675TIP3    H129584   4.612   2.779   2.934  0.2469 -0.9035  0.2670
 2675TIP3    H229585   4.603   2.742   2.787  0.2808  1.5494 -0.3928
 2676TIP3   OH229586   4.826   0.372   8.168 -0.6495 -0.1213 -0.4924
 2676TIP3    H129587   4.871   0.422   8.100  2.0557  0.0450  1.2803
 2676TIP3    H229588   4.791   0.438   8.227 -1.1592 -0.2833 -0.6117
 2677TIP3   OH229589   2.778   3.225   0.731 -0.4256  0.3036  0.0206
 2677TIP3    H129590   2.741   3.138   0.719  0.5251  0.1200 -2.0147
 2677TIP3    H229591   2.855   3.211   0.786  0.5208 -0.4150 -1.4118
 2678TIP3   OH229592   2.784   0.475   0.150 -0.4734 -0.1749  0.1695
 2678TIP3    H129593   2.728   0.449   0.076 -0.5781 -2.6004  1.0063
 2678TIP3    H229594   2.742   0.552   0.187  0.0005  1.6193 -2.7116
 2679TIP3   OH229595   2.293   2.018   0.972  0.7651  0.2574  0.5614
 2679TIP3    H129596   2.380   2.058   0.967  0.3025  2.0516  3.8513
 2679TIP3    H229597   2.240   2.068   0.910  1.7193  0.1517 -0.3707
 2680TIP3   OH229598   4.840   2.369   1.073  0.3154  0.4120 -0.1069
 2680TIP3    H129599   4.913   2.352   1.132 -0.5026  2.0967  1.4988
 2680TIP3    H229600   4.879   2.416   0.999  0.9953  0.4923  0.2958
 2681TIP3   OH229601   3.143   5.574   8.364 -0.2879  0.2742 -0.9277
 2681TIP3    H129602   3.067   5.561   8.308  0.3663  0.4796 -1.9000
 2681TIP3    H229603   3.158   5.489   8.406 -1.7083  0.5300  0.1591
 2682TIP3   OH229604   4.965   1.657   2.933 -0.0281 -0.0388  0.0029
 2682TIP3    H129605   5.002   1.741   2.960  1.4377 -0.3975 -0.7629
 2682TIP3    H229606   4.900   1.637   3.000  0.6308  1.0153  1.0041
 2683TIP3   OH229607   6.336   5.624   1.534 -0.0409 -0.2933 -0.4944
 2683TIP3    H129608   6.318   5.679   1.610 -0.4148 -0.3766 -0.5211
 2683TIP3    H229609   6.266   5.559   1.534  1.2155 -1.7498  0.4343
 2684TIP3   OH229610   2.082   5.902   1.151 -0.0404  0.4578 -0.5075
 2684TIP3    H129611   2.028   5.828   1.177  1.0363 -0.1768 -0.0380
 2684TIP3    H229612   2.172   5.874   1.168  0.6279  0.7027 -3.1250
 2685TIP3   OH229613   1.071   5.988   1.876  0.6057 -0.2025  0.4148
 2685TIP3    H129614   1.116   6.025   1.800  1.9446  1.3497  1.8636
 2685TIP3    H229615   0.978   5.992   1.854  0.9133  0.9580 -0.8130
 2686TIP3   OH229616   1.953   5.844   0.085  0.8116  0.1184  0.0030
 2686TIP3    H129617   2.026   5.906   0.090  1.0497 -0.1036 -0.6663
 2686TIP3    H229618   1.882   5.893   0.042  0.5883  0.3032  0.5661
 2687TIP3   OH229619   6.458   3.511   0.239 -0.2074 -0.3886 -0.0105
 2687TIP3    H129620   6.416   3.570   0.176  1.8066 -0.0835 -1.1781
 2687TIP3    H229621   6.425   3.424   0.216 -0.7261 -0.0832 -0.4411
 2688TIP3   OH229622   1.849   5.060   7.537 -0.6870  0.0883 -0.2051
 2688TIP3    H129623   1.795   5.139   7.545  0.2819  0.8069 -0.4118
 2688TIP3    H229624   1.839   5.033   7.446 -1.6506 -0.5116  0.0699
 2689TIP3   OH229625   6.154   0.031   7.183 -0.2468 -0.4645 -0.2083
 2689TIP3    H129626   6.059   0.037   7.193 -0.3629 -0.0730 -1.3940
 2689TIP3    H229627   6.172  -0.063   7.185 -0.6434 -0.5365  0.1062
 2690TIP3   OH229628   3.339   2.530   3.333  0.1715  0.2116 -0.2093
 2690TIP3    H129629   3.304   2.476   3.404  0.6867  0.1177 -0.0194
 2690TIP3    H229630   3.430   2.503   3.326  0.1578  0.3186 -0.8203
 2691TIP3   OH229631   0.385   1.944   7.568  0.6115 -0.3496  0.4982
 2691TIP3    H129632   0.360   1.865   7.520 -0.0496  1.5970 -2.6715
 2691TIP3    H229633   0.470   1.968   7.531  0.2468  1.0541  0.5317
 2692TIP3   OH229634   4.160   2.474   2.409 -0.2615  0.1254  0.2262
 2692TIP3    H129635   4.133   2.388   2.442 -1.0278  0.1986 -0.1670
 2692TIP3    H229636   4.184   2.524   2.487 -1.8142  0.2190  0.6901
 2693TIP3   OH229637   0.181   6.747   1.440  0.0829  0.3671  0.0792
 2693TIP3    H129638   0.159   6.809   1.370  0.8242  2.3218  1.4588
 2693TIP3    H229639   0.101   6.699   1.456 -0.7633  1.5176 -0.5480
 2694TIP3   OH229640   2.212   5.037   0.536 -0.1157 -0.4350 -0.4140
 2694TIP3    H129641   2.160   4.981   0.479 -0.5173 -0.9378  0.4215
 2694TIP3    H229642   2.225   5.117   0.486 -0.1969 -0.9727 -1.3246
 2695TIP3   OH229643   6.333   3.762   0.434 -0.7646  0.3214 -0.2578
 2695TIP3    H129644   6.276   3.687   0.453  0.7431 -0.7213  0.3923
 2695TIP3    H229645   6.342   3.762   0.339  0.4259 -1.3283 -0.1948
 2696TIP3   OH229646   5.835   4.045   1.359  0.3513 -0.7741  0.0361
 2696TIP3    H129647   5.749   4.082   1.375  0.1871 -0.9506 -0.4349
 2696TIP3    H229648   5.835   4.021   1.267  2.0233  2.1680 -0.8562
 2697TIP3   OH229649   1.118   2.649   3.058 -0.2291 -0.7961  0.7839
 2697TIP3    H129650   1.058   2.704   3.109  0.9389  0.2473  1.0908
 2697TIP3    H229651   1.083   2.561   3.065 -2.7509 -0.0117 -0.5136
 2698TIP3   OH229652   6.534   4.560   0.302 -0.8264 -0.3069 -0.3192
 2698TIP3    H129653   6.500   4.511   0.227  0.8041 -2.2199  0.1075
 2698TIP3    H229654   6.463   4.557   0.366 -1.4499 -0.4890 -1.0020
 2699TIP3   OH229655   1.511   1.251   0.791 -0.6961 -0.2106  0.4773
 2699TIP3    H129656   1.531   1.300   0.871 -0.2926  0.4203 -0.0034
 2699TIP3    H229657   1.536   1.310   0.720 -0.2916 -1.0858 -0.1180
 2700TIP3   OH229658   6.721   3.977   0.001 -0.2907 -0.2051  0.5448
 2700TIP3    H129659   6.754   4.031  -0.070  0.9718 -2.0376 -0.3420
 2700TIP3    H229660   6.794   3.968   0.062 -0.0506 -1.8418  0.0733
 2701TIP3   OH229661   3.915   2.704   7.662 -0.0046  0.0671 -0.3398
 2701TIP3    H129662   3.985   2.754   7.621 -1.4549  2.5766  0.0282
 2701TIP3    H229663   3.839   2.716   7.604 -0.4391 -1.6563 -0.1748
 2702TIP3   OH229664   5.385   2.149   1.009  0.1679  0.2099 -0.4141
 2702TIP3    H129665   5.449   2.218   0.991  0.7340 -0.1233  0.3042
 2702TIP3    H229666   5.393   2.090   0.934 -0.2455  0.8588 -0.9815
 2703TIP3   OH229667   1.290   0.649   7.566 -0.1617  0.3852 -0.3287
 2703TIP3    H129668   1.236   0.646   7.487  1.3223 -0.1545 -1.3923
 2703TIP3    H229669   1.338   0.732   7.559 -1.5197  1.3292  1.1015
 2704TIP3   OH229670   4.405   5.678   2.758  0.1101  0.7816  0.3099
 2704TIP3    H129671   4.384   5.607   2.696  0.5822  0.0751  0.9408
 2704TIP3    H229672   4.337   5.743   2.743 -0.8261 -0.1715  0.2870
 2705TIP3   OH229673   6.412   6.342   3.542 -0.6312  0.0780  0.2927
 2705TIP3    H129674   6.498   6.361   3.579  1.2479 -2.4434 -2.2683
 2705TIP3    H229675   6.384   6.424   3.503  2.0638  0.3915 -1.2563
 2706TIP3   OH229676   0.967   5.261   1.314  0.0185  0.1298  0.6001
 2706TIP3    H129677   0.981   5.242   1.407 -0.6703  2.5910  1.2608
 2706TIP3    H229678   1.011   5.344   1.300  0.2893 -0.3091 -1.3672
 2707TIP3   OH229679   6.460   6.779   7.857 -0.2642  0.2733 -0.4148
 2707TIP3    H129680   6.474   6.777   7.763  0.2572 -0.5511 -0.3310
 2707TIP3    H229681   6.544   6.750   7.895 -0.5329  0.3880  0.2887
 2708TIP3   OH229682   6.626   6.786   3.103  0.1523 -0.0638 -0.1454
 2708TIP3    H129683   6.628   6.769   3.197 -1.0870 -0.6674 -0.2074
 2708TIP3    H229684   6.664   6.708   3.064  1.7441  0.6662 -0.1214
 2709TIP3   OH229685   0.130   4.716   2.847 -0.1762 -0.3169 -0.0812
 2709TIP3    H129686   0.185   4.642   2.823  0.0032 -0.1495 -0.1855
 2709TIP3    H229687   0.135   4.720   2.943  0.8780  0.3732 -0.1458
 2710TIP3   OH229688   1.089   1.976   0.599 -0.0719  0.1375 -0.3738
 2710TIP3    H129689   1.084   2.032   0.522  2.0950  1.8325  0.6123
 2710TIP3    H229690   1.167   1.922   0.585  1.1506  1.4072  1.1338
 2711TIP3   OH229691   5.982   4.615   8.076 -0.2600 -0.3645 -0.2652
 2711TIP3    H129692   5.945   4.548   8.019  0.2337 -1.2566  0.4504
 2711TIP3    H229693   5.906   4.657   8.116 -0.5606 -1.9137  0.8852
 2712TIP3   OH229694   5.318   3.009   1.351 -0.2372  0.2106  0.0095
 2712TIP3    H129695   5.246   2.997   1.412 -0.0664 -1.9211 -0.1525
 2712TIP3    H229696   5.278   3.050   1.274 -0.9635  0.4045  0.4788
 2713TIP3   OH229697   4.077   5.073   0.746  0.6971  0.2998 -0.2957
 2713TIP3    H129698   4.146   5.124   0.705  0.7401 -0.8255 -1.7025
 2713TIP3    H229699   4.118   5.035   0.824  1.5961 -0.1289 -0.9697
 2714TIP3   OH229700   1.199   3.055   1.409  0.4025 -0.5609 -0.0416
 2714TIP3    H129701   1.270   3.096   1.458  0.4287  0.1617 -0.6552
 2714TIP3    H229702   1.121   3.072   1.462  0.3603  0.6183 -0.4452
 2715TIP3   OH229703   2.993   3.221   8.365 -0.1019 -0.0109  0.0575
 2715TIP3    H129704   2.911   3.176   8.345  0.1753  0.0626 -1.4095
 2715TIP3    H229705   3.015   3.195   8.454 -1.5747 -0.2428  0.3661
 2716TIP3   OH229706   5.999   2.625   7.383 -0.0696 -1.2410  0.6040
 2716TIP3    H129707   5.929   2.668   7.431 -0.6798 -2.1197  0.5231
 2716TIP3    H229708   6.036   2.694   7.328 -0.8030 -0.7388  0.7211
 2717TIP3   OH229709   0.062   3.903   7.411  0.0011  0.2359 -0.5699
 2717TIP3    H129710  -0.010   3.855   7.370  1.3142  0.0158 -2.8228
 2717TIP3    H229711   0.067   3.985   7.362  1.3562  0.1669 -0.5966
 2718TIP3   OH229712   5.242   5.077   8.414  0.8818 -0.0338  0.4314
 2718TIP3    H129713   5.247   5.103   8.322 -0.4537 -0.0297  0.3422
 2718TIP3    H229714   5.334   5.071   8.442  1.2855  1.8598 -0.3474
 2719TIP3   OH229715   1.908   3.695   2.523 -0.1645 -0.1216  0.8267
 2719TIP3    H129716   1.990   3.647   2.535  0.1342  0.3584  0.7085
 2719TIP3    H229717   1.847   3.653   2.584 -0.0783 -1.0390  0.3112
 2720TIP3   OH229718   4.863   0.997   0.206  0.2813 -0.1259 -0.3671
 2720TIP3    H129719   4.925   0.932   0.174  0.7337 -1.2858  2.5423
 2720TIP3    H229720   4.908   1.081   0.196  2.5518 -0.9610  1.8960
 2721TIP3   OH229721   3.712   1.672   3.581  0.6894  0.6872 -0.3300
 2721TIP3    H129722   3.795   1.712   3.608 -0.5499  0.7529  4.1851
 2721TIP3    H229723   3.713   1.586   3.622 -1.6957  0.9871  0.5150
 2722TIP3   OH229724   4.576   3.067   8.119  0.6941 -0.1916  0.4390
 2722TIP3    H129725   4.580   3.137   8.183  0.0424 -0.9235  1.2994
 2722TIP3    H229726   4.514   3.004   8.155 -1.1966  0.2530 -1.8021
 2723TIP3   OH229727   4.252   1.519   2.408 -0.3764  0.4189  0.4161
 2723TIP3    H129728   4.296   1.581   2.466 -0.3734 -0.2122  1.0975
 2723TIP3    H229729   4.207   1.458   2.467 -1.8345  0.7928 -0.2544
 2724TIP3   OH229730   4.895   2.728   0.869  0.1430  0.2688 -0.1313
 2724TIP3    H129731   4.809   2.714   0.829  0.3866 -0.0173 -0.5620
 2724TIP3    H229732   4.953   2.669   0.822  0.2042 -1.0669  1.5107
 2725TIP3   OH229733   3.878   6.985   8.354 -0.9962 -0.2280 -0.4510
 2725TIP3    H129734   3.867   6.896   8.385  0.0441 -0.8547 -1.7866
 2725TIP3    H229735   3.824   7.038   8.414 -0.0804 -1.4839  1.5905
 2726TIP3   OH229736   6.032   1.075   2.460  0.1688  0.2123  0.0758
 2726TIP3    H129737   6.042   1.169   2.444 -2.3509  0.2138 -2.2281
 2726TIP3    H229738   6.083   1.033   2.391 -0.2548 -0.0688 -0.0708
 2727TIP3   OH229739   2.797   5.503   0.238  0.3987  0.6447 -0.3414
 2727TIP3    H129740   2.801   5.454   0.156  0.2583  1.0496 -0.5923
 2727TIP3    H229741   2.732   5.456   0.290  0.2107  0.6066 -0.6074
 2728TIP3   OH229742   4.511   6.519   1.619  0.2121 -0.5240  0.6350
 2728TIP3    H129743   4.577   6.451   1.604  0.4363 -0.3514  0.8254
 2728TIP3    H229744   4.559   6.590   1.662  0.3490  0.4344 -1.0305
 2729TIP3   OH229745   5.860   3.163   2.155  0.8776 -0.2214 -0.6505
 2729TIP3    H129746   5.801   3.095   2.186  0.0800  0.5544 -0.4347
 2729TIP3    H229747   5.940   3.152   2.208  0.7607 -0.9801 -0.6255
 2730TIP3   OH229748   2.247   4.132   2.312 -0.2387 -0.0126 -0.6298
 2730TIP3    H129749   2.266   4.188   2.387 -1.6371  1.2611 -1.1764
 2730TIP3    H229750   2.168   4.084   2.338 -0.8574  0.5984 -1.3480
 2731TIP3   OH229751   4.838   2.427   2.513 -0.1595 -0.5065  0.9900
 2731TIP3    H129752   4.883   2.400   2.433  0.2139  1.6877  0.3910
 2731TIP3    H229753   4.756   2.378   2.512 -0.2425 -0.3935 -0.8489
 2732TIP3   OH229754   2.014   1.503   8.368 -0.3532 -0.2117 -0.3165
 2732TIP3    H129755   2.098   1.548   8.377  0.3507 -1.5882  0.4060
 2732TIP3    H229756   1.950   1.573   8.359  0.6425  0.9400  1.0549
 2733TIP3   OH229757   4.235   6.483   7.611  0.1549 -0.2513  0.3608
 2733TIP3    H129758   4.153   6.527   7.635  0.3151  0.3504 -0.1428
 2733TIP3    H229759   4.258   6.521   7.526  1.2635  0.0424  0.7622
 2734TIP3   OH229760   3.242   6.529   1.206 -0.0257 -0.0723 -0.2976
 2734TIP3    H129761   3.328   6.505   1.171 -0.4291  0.6337 -1.8493
 2734TIP3    H229762   3.260   6.586   1.280  0.8387  0.4283 -0.8917
 2735TIP3   OH229763   1.569   1.962   8.138 -0.2720  0.0435 -0.2754
 2735TIP3    H129764   1.548   1.894   8.074  0.6786  0.6154 -1.2393
 2735TIP3    H229765   1.561   2.044   8.088 -2.3486  0.7536  1.1041
 2736TIP3   OH229766   6.592   0.772   1.181  0.1274 -0.3765 -0.1704
 2736TIP3    H129767   6.524   0.715   1.145  1.7475 -2.2958 -0.3752
 2736TIP3    H229768   6.670   0.749   1.131  1.1670  1.0015  0.7795
 2737TIP3   OH229769   1.212   4.838   0.597  0.3045  0.0041 -0.6402
 2737TIP3    H129770   1.247   4.919   0.559 -0.6903  0.0663 -1.4605
 2737TIP3    H229771   1.260   4.827   0.679  0.5177  1.3775 -0.5665
 2738TIP3   OH229772   1.113   2.285   1.235  0.0673 -0.0224 -0.4150
 2738TIP3    H129773   1.027   2.313   1.207 -0.1232 -1.1218 -1.0017
 2738TIP3    H229774   1.174   2.348   1.197 -0.5274  1.6153  1.1942
 2739TIP3   OH229775   2.950   1.249   7.276  0.5265 -0.0058 -0.4962
 2739TIP3    H129776   2.860   1.282   7.282  1.0692  1.6107 -0.7751
 2739TIP3    H229777   3.004   1.327   7.273  2.0863 -0.9525  1.2436
 2740TIP3   OH229778   3.876   2.137   7.328 -0.0227 -0.0684  0.1895
 2740TIP3    H129779   3.828   2.097   7.256 -0.4334  0.0809  0.3755
 2740TIP3    H229780   3.852   2.086   7.405 -1.0681  0.9262  0.5401
 2741TIP3   OH229781   5.556   3.821   7.585  0.0183 -0.0583  0.3905
 2741TIP3    H129782   5.512   3.751   7.538 -1.5417  1.4344 -0.5191
 2741TIP3    H229783   5.568   3.787   7.674 -1.8581 -1.0207  0.3235
 2742TIP3   OH229784   5.401   3.390   0.465 -0.3772  0.3430 -0.0823
 2742TIP3    H129785   5.376   3.473   0.425  1.6622  0.0421 -2.2316
 2742TIP3    H229786   5.328   3.331   0.445  0.7232  0.0394 -4.2551
 2743TIP3   OH229787   1.309   1.165   2.095 -0.1416  0.0176 -0.5940
 2743TIP3    H129788   1.346   1.214   2.022  0.5316  0.7876  0.2368
 2743TIP3    H229789   1.381   1.110   2.126 -0.0512  0.5817  0.2303
 2744TIP3   OH229790   1.529   1.752   0.491  0.2217  0.7212  0.2027
 2744TIP3    H129791   1.541   1.841   0.524  1.1328  1.1565 -1.1894
 2744TIP3    H229792   1.475   1.762   0.413  0.6066  0.1164 -0.1586
 2745TIP3   OH229793   3.575   3.285   0.462 -0.6234  0.6900  0.0357
 2745TIP3    H129794   3.518   3.212   0.440  0.2046  0.4542 -1.4039
 2745TIP3    H229795   3.550   3.355   0.402 -0.6922  1.2530  0.6983
 2746TIP3   OH229796   2.838   6.738   2.530 -0.1289 -0.9937  0.2963
 2746TIP3    H129797   2.811   6.665   2.585 -0.8818 -1.3410 -0.5039
 2746TIP3    H229798   2.847   6.701   2.443  1.5471 -0.5524  0.2546
 2747TIP3   OH229799   2.988   6.448   1.276  0.5539 -0.4881  0.0153
 2747TIP3    H129800   3.074   6.449   1.233  0.4112 -1.3163 -0.3151
 2747TIP3    H229801   2.925   6.448   1.204  0.1475  2.9731  0.2162
 2748TIP3   OH229802   0.071   3.590   7.322  0.0459  0.0776  0.1466
 2748TIP3    H129803  -0.003   3.650   7.314 -0.5030 -0.4880  0.8764
 2748TIP3    H229804   0.038   3.518   7.376  0.5593 -1.1035 -1.0524
 2749TIP3   OH229805   5.243   0.839   7.383  0.3114 -0.2700 -0.0168
 2749TIP3    H129806   5.274   0.929   7.372  1.9052 -0.5733  1.5769
 2749TIP3    H229807   5.304   0.786   7.331 -1.7520 -0.3483 -2.5371
 2750TIP3   OH229808   5.614   1.370   2.380  0.0400  0.4714  0.0952
 2750TIP3    H129809   5.617   1.330   2.466  1.5601  1.1884  0.4094
 2750TIP3    H229810   5.633   1.299   2.319 -2.7686 -0.4340  0.1394
 2751TIP3   OH229811   0.957   0.073   0.722  0.0714  0.0666  0.1362
 2751TIP3    H129812   0.919   0.146   0.673 -0.5886 -1.2699 -1.4256
 2751TIP3    H229813   0.947  -0.003   0.664 -0.3555 -1.5243  2.1858
 2752TIP3   OH229814   2.476   1.490   3.667 -0.0327  0.6884  0.6022
 2752TIP3    H129815   2.474   1.424   3.736  0.4249  0.2736  0.2222
 2752TIP3    H229816   2.392   1.479   3.621 -0.1288  0.6455  0.7863
 2753TIP3   OH229817   5.025   3.956   2.241  0.1586  0.3076  0.2583
 2753TIP3    H129818   5.051   3.928   2.329  2.2197  2.7664  0.5493
 2753TIP3    H229819   5.107   3.962   2.192 -0.3847  2.9442 -0.5353
 2754TIP3   OH229820   1.687   0.384   2.928  0.2621 -0.1875 -0.3042
 2754TIP3    H129821   1.594   0.361   2.935 -0.0566 -0.1727 -3.2462
 2754TIP3    H229822   1.689   0.479   2.930  0.4347 -0.1994  1.3448
 2755TIP3   OH229823   6.993   0.747   3.083  0.3891  0.1072  0.2133
 2755TIP3    H129824   6.941   0.791   3.015  0.9864  1.4271  0.5738
 2755TIP3    H229825   7.051   0.688   3.036  0.0906  0.2514 -0.3403
 2756TIP3   OH229826   5.246   2.735   7.848  0.1401  0.1734 -0.3839
 2756TIP3    H129827   5.223   2.654   7.802 -1.3925  0.2321  0.1897
 2756TIP3    H229828   5.213   2.722   7.937  0.7285  1.0586 -0.0204
 2757TIP3   OH229829   2.978   5.091   7.281 -0.4715  0.1817 -0.5503
 2757TIP3    H129830   2.983   5.022   7.214 -0.2337  1.0159 -1.4224
 2757TIP3    H229831   2.886   5.116   7.283 -0.6311 -0.4243  0.0575
 2758TIP3   OH229832   2.453   4.089   8.079 -0.4605  0.1753  0.0386
 2758TIP3    H129833   2.456   4.156   8.147 -1.0771  0.8005 -0.5445
 2758TIP3    H229834   2.522   4.113   8.018  0.6903 -0.8746  0.8562
 2759TIP3   OH229835   5.648   4.026   0.399 -0.6011 -0.0891  0.1181
 2759TIP3    H129836   5.692   3.952   0.358 -1.1043  0.7540 -2.0590
 2759TIP3    H229837   5.660   4.099   0.338 -2.3864  0.9470  0.9017
 2760TIP3   OH229838   6.950   6.898   2.139  0.5929 -0.6431  0.5851
 2760TIP3    H129839   7.017   6.952   2.181 -0.4292 -0.9339  2.7175
 2760TIP3    H229840   6.926   6.946   2.060  0.7206  1.3305  1.6917
 2761TIP3   OH229841   2.723   0.087   0.105  0.0976  0.4692  0.5555
 2761TIP3    H129842   2.639   0.056   0.071 -0.1866  0.6845  1.0354
 2761TIP3    H229843   2.765   0.131   0.031 -0.1500  0.2319  0.2732
 2762TIP3   OH229844   3.278   1.200   0.961 -0.1553  0.1504 -0.0272
 2762TIP3    H129845   3.300   1.119   1.007 -0.0513 -0.2991 -0.8558
 2762TIP3    H229846   3.316   1.269   1.015  1.0910 -0.4518 -0.1102
 2763TIP3   OH229847   2.218   1.382   2.846 -0.2099 -0.0941 -0.3974
 2763TIP3    H129848   2.122   1.387   2.852 -0.1842 -0.1708  0.1152
 2763TIP3    H229849   2.234   1.350   2.757 -0.7763 -3.0880  0.4546
 2764TIP3   OH229850   3.502   1.862   1.924 -0.2282  0.5137 -0.0226
 2764TIP3    H129851   3.437   1.876   1.856 -0.7867 -0.3182  0.3237
 2764TIP3    H229852   3.585   1.853   1.878 -0.6930 -0.7068 -0.6526
 2765TIP3   OH229853   0.116   5.516   2.883  0.0414 -0.6097 -0.3025
 2765TIP3    H129854   0.025   5.509   2.854  0.6859 -2.0852 -2.1389
 2765TIP3    H229855   0.167   5.485   2.808  2.0240 -0.5016  0.9559
 2766TIP3   OH229856   4.513   2.552   1.478  0.2397 -0.2169 -0.6786
 2766TIP3    H129857   4.554   2.636   1.459 -0.0921  0.6480  2.0142
 2766TIP3    H229858   4.574   2.508   1.537 -0.1262 -1.4131 -1.1479
 2767TIP3   OH229859   0.758   0.538   7.589  0.1469  0.2595 -0.3835
 2767TIP3    H129860   0.763   0.502   7.500  0.5765  1.6499 -0.9617
 2767TIP3    H229861   0.844   0.519   7.627  0.2572  0.3841 -0.5680
 2768TIP3   OH229862   1.606   0.084   1.536 -0.1574  0.5751 -0.5880
 2768TIP3    H129863   1.659   0.159   1.510 -1.5705  1.6882 -0.3913
 2768TIP3    H229864   1.588   0.098   1.629 -1.4848  0.7034 -0.8423
 2769TIP3   OH229865   6.825   0.676   8.176  0.5521 -0.1733 -0.0588
 2769TIP3    H129866   6.744   0.728   8.174 -0.2693 -1.3932  0.2677
 2769TIP3    H229867   6.830   0.644   8.266  2.4258  1.4027  0.4450
 2770TIP3   OH229868   4.384   4.719   3.020 -0.2413 -0.0859  0.3978
 2770TIP3    H129869   4.331   4.775   2.963  2.1129  0.9276 -0.9480
 2770TIP3    H229870   4.414   4.778   3.089  0.9021 -0.0435 -0.1093
 2771TIP3   OH229871   2.141   0.408   1.421 -0.0663 -0.0078  0.0042
 2771TIP3    H129872   2.131   0.347   1.495 -0.4202  2.2917  1.9593
 2771TIP3    H229873   2.235   0.402   1.400  0.5508  0.8924  2.1792
 2772TIP3   OH229874   3.210   5.688   8.092 -0.3568 -0.4095 -0.0345
 2772TIP3    H129875   3.164   5.738   8.025 -1.3761 -1.7408 -0.3803
 2772TIP3    H229876   3.153   5.691   8.168  0.3476  0.2953  0.4822
 2773TIP3   OH229877   4.810   2.589   8.185 -0.0331  0.1202 -0.3725
 2773TIP3    H129878   4.848   2.676   8.178 -1.7083  0.8704 -0.6850
 2773TIP3    H229879   4.863   2.545   8.252  0.3774  1.6397  0.3502
 2774TIP3   OH229880   6.203   4.412   2.910  0.1793 -0.6647 -0.0400
 2774TIP3    H129881   6.244   4.496   2.930 -1.8584  0.4209 -0.1315
 2774TIP3    H229882   6.179   4.419   2.817  3.6556 -3.0521 -1.2933
 2775TIP3   OH229883   5.223   2.126   7.347 -0.1537  0.0496  0.3961
 2775TIP3    H129884   5.195   2.204   7.299  1.7277  1.2564  1.1793
 2775TIP3    H229885   5.192   2.053   7.293  0.1853  1.3396 -1.6442
 2776TIP3   OH229886   3.880   6.139   0.782  0.4857  0.3348 -0.0531
 2776TIP3    H129887   3.841   6.092   0.708  1.9589  1.6200 -1.7206
 2776TIP3    H229888   3.920   6.069   0.834  0.7926 -0.4826 -1.3213
 2777TIP3   OH229889   2.563   4.112   8.423  0.1528 -0.3592  0.2890
 2777TIP3    H129890   2.583   4.167   8.347 -0.9456  0.5839  0.6635
 2777TIP3    H229891   2.531   4.173   8.489 -1.9110 -1.5357  0.4393
 2778TIP3   OH229892   2.125   6.344   8.393 -0.2838 -0.2389  0.4397
 2778TIP3    H129893   2.102   6.436   8.382 -0.8476 -0.5126 -1.0092
 2778TIP3    H229894   2.084   6.300   8.318 -0.5792 -1.7735  1.4490
 2779TIP3   OH229895   4.907   5.105   2.143 -0.1054 -0.2041 -0.5999
 2779TIP3    H129896   4.934   5.041   2.077  0.1023 -1.5586  0.7435
 2779TIP3    H229897   4.814   5.087   2.157 -0.6440  1.3843 -1.8921
 2780TIP3   OH229898   1.408   2.217   2.186 -0.1234 -0.3198  0.1253
 2780TIP3    H129899   1.472   2.285   2.205 -0.7268  0.7005 -1.3317
 2780TIP3    H229900   1.438   2.178   2.104 -1.0807 -0.1512 -0.3268
 2781TIP3   OH229901   6.861   0.177   1.359  0.3010 -0.3798 -0.7305
 2781TIP3    H129902   6.896   0.102   1.406  0.7252 -0.6786 -1.4995
 2781TIP3    H229903   6.938   0.228   1.333  0.0030  0.5636  0.1446
 2782TIP3   OH229904   4.296   6.752   0.435  0.4532 -0.1916  0.1051
 2782TIP3    H129905   4.210   6.749   0.393  0.0654  0.0596  0.8682
 2782TIP3    H229906   4.352   6.797   0.371  0.0299 -0.3837 -0.4089
 2783TIP3   OH229907   4.250   2.191   1.409 -0.1747 -0.4326 -0.4653
 2783TIP3    H129908   4.317   2.135   1.369 -0.1955  0.0370 -1.1510
 2783TIP3    H229909   4.249   2.270   1.356 -0.7987 -0.1526 -0.0439
 2784TIP3   OH229910   2.318   1.935   7.491 -0.5132 -0.9487  0.0356
 2784TIP3    H129911   2.362   1.937   7.576 -1.1043 -2.5333  0.4160
 2784TIP3    H229912   2.265   2.015   7.490 -1.1761 -1.3382  1.5557
 2785TIP3   OH229913   0.991   3.118   8.175 -0.3638 -0.6043 -0.8751
 2785TIP3    H129914   0.936   3.048   8.211  0.0779 -1.5503 -1.9910
 2785TIP3    H229915   0.958   3.132   8.087  0.4951 -0.4542 -1.1873
 2786TIP3   OH229916   5.690   2.938   2.949 -0.8298  0.3422  0.0709
 2786TIP3    H129917   5.722   3.005   3.009 -0.9872  0.8487 -0.4061
 2786TIP3    H229918   5.673   2.862   3.005 -0.8773  0.7757  0.6507
 2787TIP3   OH229919   0.482   4.948   0.032  0.0964 -0.0147  0.9032
 2787TIP3    H129920   0.484   5.034  -0.010 -1.3390  0.7626  2.3103
 2787TIP3    H229921   0.417   4.898  -0.017  0.1530  0.0601  0.7501
 2788TIP3   OH229922   6.452   2.105   2.364  0.1390  0.0190  0.6844
 2788TIP3    H129923   6.496   2.141   2.287  0.1845 -1.1340  0.1580
 2788TIP3    H229924   6.412   2.024   2.334 -2.2692  0.9286  1.1677
 2789TIP3   OH229925   0.334   2.721   0.411 -0.0981  0.4408  0.2603
 2789TIP3    H129926   0.413   2.720   0.465 -1.2983  0.5228  2.1062
 2789TIP3    H229927   0.344   2.645   0.353  1.6717  0.9107 -0.1194
 2790TIP3   OH229928   2.698   0.280   3.006  0.1616  0.0568  0.1246
 2790TIP3    H129929   2.615   0.237   2.985  0.0164  0.5395 -0.3185
 2790TIP3    H229930   2.748   0.214   3.054  0.2866 -0.9180 -1.2760
 2791TIP3   OH229931   4.272   0.600   3.156  0.3743  0.0857  0.5863
 2791TIP3    H129932   4.322   0.522   3.182  2.3180  1.5616  1.6071
 2791TIP3    H229933   4.328   0.673   3.184 -0.3233  1.8570 -2.3244
 2792TIP3   OH229934   3.499   0.740   3.084  0.0320 -0.1000  0.1270
 2792TIP3    H129935   3.579   0.732   3.033 -1.5262 -1.5981 -2.3226
 2792TIP3    H229936   3.528   0.746   3.175  2.8845 -0.9727 -0.6434
 2793TIP3   OH229937   3.429   4.953   8.410  0.2512 -0.0628  0.7827
 2793TIP3    H129938   3.521   4.972   8.425 -0.7513  3.5469  3.9624
 2793TIP3    H229939   3.411   4.986   8.322  1.7533  0.0026  0.4816
 2794TIP3   OH229940   4.745   2.032   2.898  0.0264 -0.0698 -0.2997
 2794TIP3    H129941   4.764   1.952   2.850  1.3714 -0.6215  1.0790
 2794TIP3    H229942   4.756   2.102   2.833  0.0378 -0.9045 -1.2208
 2795TIP3   OH229943   0.651   2.486   0.290  0.8062 -0.5048  0.0849
 2795TIP3    H129944   0.680   2.492   0.199  0.3355 -0.0624 -0.0397
 2795TIP3    H229945   0.683   2.401   0.320  1.0594 -0.6031 -0.4613
 2796TIP3   OH229946   6.042   0.911   0.918  0.5132  0.2954 -0.4746
 2796TIP3    H129947   6.007   0.886   1.003 -0.2578  1.9314 -0.2958
 2796TIP3    H229948   6.016   0.839   0.859 -2.7421  1.1427 -0.2541
 2797TIP3   OH229949   3.409   6.399   2.806  0.1652 -0.6186 -0.5088
 2797TIP3    H129950   3.375   6.424   2.891 -2.2615  1.4964 -1.9583
 2797TIP3    H229951   3.342   6.427   2.744  2.0962 -1.4805 -3.1806
 2798TIP3   OH229952   3.143   1.092   8.119  0.0611  0.5052 -0.5764
 2798TIP3    H129953   3.213   1.077   8.056 -0.1030  1.5662 -1.0316
 2798TIP3    H229954   3.142   1.013   8.173  0.8886  0.0218 -1.2440
 2799TIP3   OH229955   6.347   6.092   1.307  0.1826 -0.1514 -0.0204
 2799TIP3    H129956   6.258   6.061   1.326  0.3477 -0.7838 -0.2325
 2799TIP3    H229957   6.390   6.016   1.268  0.5615  0.4182 -0.7152
 2800TIP3   OH229958   3.129   0.236   1.310 -0.1012 -0.7254  0.0017
 2800TIP3    H129959   3.077   0.190   1.376 -0.1355 -0.6190  0.0491
 2800TIP3    H229960   3.192   0.171   1.280  0.2052 -0.6460  0.4601
 2801TIP3   OH229961   0.942   5.389   7.766 -0.4075  0.3141  0.0167
 2801TIP3    H129962   0.942   5.346   7.852 -0.9439  0.1554 -0.0570
 2801TIP3    H229963   0.982   5.325   7.707 -0.6485  0.1538  0.0242
 2802TIP3   OH229964   6.534   5.972   7.970 -0.5755  0.2208 -0.1411
 2802TIP3    H129965   6.486   6.047   8.006 -1.6837  0.1325 -1.3207
 2802TIP3    H229966   6.572   6.005   7.889  0.7585  0.0718  0.4095
 2803TIP3   OH229967   5.094   2.226   8.163  0.0472 -0.2919 -0.6593
 2803TIP3    H129968   5.059   2.303   8.119  0.3689 -0.2866 -0.9064
 2803TIP3    H229969   5.137   2.176   8.094 -0.9227 -1.1412 -0.6685
 2804TIP3   OH229970   5.940   5.761   1.925 -0.7032 -0.3222 -0.3402
 2804TIP3    H129971   6.017   5.817   1.913 -0.6643  0.0592  1.4916
 2804TIP3    H229972   5.876   5.818   1.969 -1.1067 -1.3584  0.4369
 2805TIP3   OH229973   1.833   4.004   7.857  0.2202  0.0587  0.3388
 2805TIP3    H129974   1.802   4.015   7.947  2.8165  1.7851  1.1303
 2805TIP3    H229975   1.804   4.083   7.811  1.8340  0.8906  0.6583
 2806TIP3   OH229976   1.758   3.289   1.961  0.4879  0.3901 -0.0093
 2806TIP3    H129977   1.729   3.198   1.962 -1.1871  0.8295 -1.7498
 2806TIP3    H229978   1.846   3.286   1.924  0.0146 -0.4634 -1.1456
 2807TIP3   OH229979   2.693   0.766   2.995 -0.3121 -0.4469 -0.4890
 2807TIP3    H129980   2.747   0.692   2.968 -1.7537 -1.1823 -1.4771
 2807TIP3    H229981   2.618   0.726   3.040 -0.0380  0.5519  0.9104
 2808TIP3   OH229982   0.894   6.441   2.424 -0.2658 -0.2342 -0.2560
 2808TIP3    H129983   0.973   6.478   2.463 -1.6873  0.3027  2.2934
 2808TIP3    H229984   0.920   6.420   2.334  1.5928  3.8768 -0.9179
 2809TIP3   OH229985   6.359   0.913   1.026 -0.7569 -0.5286 -0.0443
 2809TIP3    H129986   6.335   0.824   1.053 -3.9997 -0.2655 -1.6624
 2809TIP3    H229987   6.331   0.919   0.935 -0.8204  2.2179  0.0879
 2810TIP3   OH229988   0.773   1.420   1.261 -0.1001  0.2244  0.3223
 2810TIP3    H129989   0.752   1.328   1.279  0.5094 -0.4201 -1.8641
 2810TIP3    H229990   0.861   1.432   1.295  0.7308 -0.7268 -1.3469
 2811TIP3   OH229991   0.034   5.426   2.295 -0.1383  0.4196  0.3937
 2811TIP3    H129992  -0.042   5.381   2.332 -0.9259  1.5440  0.1791
 2811TIP3    H229993   0.018   5.519   2.313  1.8351  0.5887  1.5205
 2812TIP3   OH229994   3.687   3.495   2.272 -0.0892 -0.1752  0.0518
 2812TIP3    H129995   3.704   3.463   2.360 -0.2176 -0.7783 -0.1350
 2812TIP3    H229996   3.774   3.501   2.231  0.0307  0.7082  0.4114
 2813TIP3   OH229997   4.728   5.206   8.132 -0.2083 -0.4406 -0.1400
 2813TIP3    H129998   4.812   5.231   8.095 -1.2616  1.1817 -1.6216
 2813TIP3    H229999   4.740   5.116   8.162  2.0358 -0.2243 -0.2593
 2814TIP3   OH230000   5.903   2.309   8.267 -0.1621 -0.1533  0.2415
 2814TIP3    H130001   5.827   2.326   8.323 -0.7846 -1.9821 -0.0061
 2814TIP3    H230002   5.909   2.214   8.261  1.3682 -0.0358 -0.8231
 2815TIP3   OH230003   4.735   5.679   8.308 -0.0602 -0.4911  0.3364
 2815TIP3    H130004   4.745   5.653   8.399 -1.5639 -0.3129  0.5703
 2815TIP3    H230005   4.682   5.609   8.269  0.6192 -0.5932 -0.4205
 2816TIP3   OH230006   2.668   1.468   2.634 -0.3461 -0.6749  0.0247
 2816TIP3    H130007   2.644   1.385   2.592  1.4304 -0.9908 -0.4970
 2816TIP3    H230008   2.673   1.448   2.727  0.2023 -1.2242 -0.1121
 2817TIP3   OH230009   0.880   0.841   2.756  0.0033 -0.3060 -0.3310
 2817TIP3    H130010   0.949   0.823   2.821 -0.7856 -0.7224  0.4097
 2817TIP3    H230011   0.909   0.922   2.713 -0.4211  1.1513  1.9239
 2818TIP3   OH230012   4.470   2.870   7.553 -0.0719  0.5982 -0.0861
 2818TIP3    H130013   4.396   2.924   7.529 -0.5767  0.0846  0.2982
 2818TIP3    H230014   4.502   2.834   7.469 -2.4856 -2.0583 -0.0229
 2819TIP3   OH230015   6.177   0.072   1.826  0.4959 -0.0849 -0.0660
 2819TIP3    H130016   6.135   0.081   1.741  1.9503  1.1389 -0.6863
 2819TIP3    H230017   6.113   0.105   1.889 -0.8760 -1.6680 -0.5640
 2820TIP3   OH230018   5.296   6.536   8.037 -0.6491 -0.1781 -0.3348
 2820TIP3    H130019   5.384   6.560   8.010 -1.1393  0.2859 -1.6271
 2820TIP3    H230020   5.245   6.535   7.955 -1.5371 -1.8180  0.1721
 2821TIP3   OH230021   1.791   5.985   2.739  0.0046  0.0007 -0.1425
 2821TIP3    H130022   1.820   5.947   2.822 -0.1894 -2.0358 -0.9545
 2821TIP3    H230023   1.696   5.978   2.741 -0.1154  1.3282  0.0545
 2822TIP3   OH230024   6.826   5.332   3.734  1.2855  0.1298 -0.5695
 2822TIP3    H130025   6.801   5.345   3.643 -1.1962 -1.1258 -0.1606
 2822TIP3    H230026   6.905   5.279   3.730  0.8331 -0.4813 -1.9849
 2823TIP3   OH230027   2.468   1.840   0.837  0.5600  0.3605  0.6359
 2823TIP3    H130028   2.378   1.869   0.821  1.2583  3.5116  1.8241
 2823TIP3    H230029   2.466   1.806   0.927  0.1950 -1.6639 -0.0652
 2824TIP3   OH230030   6.761   5.570   1.017  0.6064  0.0161 -0.2322
 2824TIP3    H130031   6.853   5.595   1.009  0.8044 -1.0907 -1.9874
 2824TIP3    H230032   6.759   5.504   1.085  0.8136  1.2286  1.0014
 2825TIP3   OH230033   0.861   4.932   2.760  0.0227 -0.2594  0.1135
 2825TIP3    H130034   0.835   4.923   2.668 -1.2978 -0.8257  0.5174
 2825TIP3    H230035   0.806   5.002   2.794 -0.0314 -0.5623  0.6634
 2826TIP3   OH230036   1.587   2.922   0.459 -0.2356  0.4823 -0.3115
 2826TIP3    H130037   1.617   3.010   0.482 -2.0249  1.4352 -1.4079
 2826TIP3    H230038   1.502   2.914   0.501 -0.9496  0.0422 -1.7606
 2827TIP3   OH230039   0.707   5.191   7.663  0.6674  0.9196  0.4967
 2827TIP3    H130040   0.769   5.146   7.607  0.7919 -1.3951  2.3567
 2827TIP3    H230041   0.732   5.283   7.658  2.2805  0.4299 -1.1753
 2828TIP3   OH230042   4.299   1.607   0.806 -0.0385  0.0538 -0.0867
 2828TIP3    H130043   4.249   1.526   0.798  0.3873 -0.0927 -1.4040
 2828TIP3    H230044   4.295   1.627   0.900 -1.4549 -0.6423  0.0417
 2829TIP3   OH230045   1.756   6.239   7.458 -0.0721 -0.0897  0.1638
 2829TIP3    H130046   1.757   6.285   7.375  1.5070  0.6971  0.5853
 2829TIP3    H230047   1.663   6.229   7.479 -0.5140  2.7515 -0.0537
 2830TIP3   OH230048   6.928   1.721   0.647 -0.1209  0.2417 -0.5647
 2830TIP3    H130049   6.866   1.692   0.713  0.3305 -0.2589 -0.3590
 2830TIP3    H230050   6.873   1.759   0.578 -0.5604  1.5478  0.4516
 2831TIP3   OH230051   6.908   1.631   0.224  0.1635 -0.0631 -0.1836
 2831TIP3    H130052   6.955   1.668   0.149 -0.1847  1.0209  0.1124
 2831TIP3    H230053   6.876   1.707   0.272  1.8930 -0.6603  2.0717
 2832TIP3   OH230054   3.591   4.170   7.816  0.4760  0.4973  0.0924
 2832TIP3    H130055   3.630   4.085   7.836  1.5574  0.7466 -0.8398
 2832TIP3    H230056   3.507   4.149   7.775  0.4436 -0.1032  0.4602
 2833TIP3   OH230057   3.006   6.636   7.610 -0.1270  0.0736  0.1807
 2833TIP3    H130058   2.981   6.655   7.701  0.7763  1.4239  0.1819
 2833TIP3    H230059   3.030   6.544   7.610  0.6496  0.2504  1.5168
 2834TIP3   OH230060   6.634   4.068   1.587 -0.3634 -1.2760 -0.0078
 2834TIP3    H130061   6.696   3.996   1.573 -0.3941 -1.0958 -1.1932
 2834TIP3    H230062   6.665   4.111   1.667  0.5146 -1.7341 -0.0872
 2835TIP3   OH230063   1.875   1.728   8.333 -0.0930 -0.3098  0.2724
 2835TIP3    H130064   1.938   1.767   8.273  0.6432 -0.3444  1.0094
 2835TIP3    H230065   1.793   1.725   8.284  0.4169 -0.0205 -0.6022
 2836TIP3   OH230066   1.196   4.300   0.368  0.1882 -0.1776 -0.0722
 2836TIP3    H130067   1.241   4.242   0.431 -1.8006  0.2514  1.8976
 2836TIP3    H230068   1.134   4.242   0.324 -0.8112  0.1196  0.8866
 2837TIP3   OH230069   0.096   1.945   2.724  0.0742 -0.0676  0.2594
 2837TIP3    H130070   0.174   1.954   2.779  1.0255  0.6106 -1.1369
 2837TIP3    H230071   0.129   1.907   2.643 -0.5511  2.5425 -1.3435
 2838TIP3   OH230072   4.170   0.123   0.699  0.0869 -0.1996 -0.2917
 2838TIP3    H130073   4.126   0.180   0.762  2.7730  1.2350  0.4256
 2838TIP3    H230074   4.224   0.065   0.752 -1.0712 -2.1511 -1.1339
 2839TIP3   OH230075   5.666   2.248   7.017 -0.5420  0.6685  0.1161
 2839TIP3    H130076   5.737   2.221   7.075  1.0588 -1.8471 -2.7362
 2839TIP3    H230077   5.694   2.332   6.982 -0.2097  0.8944  0.9088
 2840TIP3   OH230078   3.129   3.280   1.275  0.4322  0.5372  0.4424
 2840TIP3    H130079   3.216   3.256   1.308  0.4334  0.9065  0.7137
 2840TIP3    H230080   3.085   3.196   1.263  0.5957  0.3757  0.9407
 2841TIP3   OH230081   2.841   1.909   0.466 -0.1561 -0.3872 -0.3355
 2841TIP3    H130082   2.814   1.857   0.391 -0.2589  0.4150 -0.8672
 2841TIP3    H230083   2.803   1.996   0.450 -0.2599 -0.2310  0.6875
 2842TIP3   OH230084   0.223   1.979   0.680  0.3437  0.6466  0.0300
 2842TIP3    H130085   0.158   1.953   0.745  0.6457  1.8473  0.8472
 2842TIP3    H230086   0.306   1.944   0.714  0.1574 -0.9337 -1.0395
 2843TIP3   OH230087   4.736   1.024   8.365 -0.3343  0.3950  0.1317
 2843TIP3    H130088   4.823   1.031   8.405 -0.6027  1.5161  0.5381
 2843TIP3    H230089   4.676   1.016   8.439 -0.6493  0.4069 -0.1208
 2844TIP3   OH230090   0.573   4.044   0.296  0.1749 -0.0263 -0.0837
 2844TIP3    H130091   0.571   4.034   0.391 -1.4218  0.2178 -0.0697
 2844TIP3    H230092   0.514   3.977   0.263  0.5895 -0.0008 -0.8915
 2845TIP3   OH230093   5.572   3.680   0.655 -0.8163  0.1775  0.1760
 2845TIP3    H130094   5.648   3.693   0.712  0.2785  1.0510 -1.3806
 2845TIP3    H230095   5.526   3.764   0.657 -0.5555  0.3431 -0.4998
 2846TIP3   OH230096   2.471   5.021   2.116  0.2108  0.6840  0.2625
 2846TIP3    H130097   2.484   5.003   2.209 -0.8457 -0.7914  0.1706
 2846TIP3    H230098   2.463   4.934   2.076  1.1771  1.2771 -1.2959
 2847TIP3   OH230099   6.276   0.272   3.145 -0.0711 -0.4404 -0.0039
 2847TIP3    H130100   6.286   0.282   3.051 -0.6833 -0.6824 -0.1010
 2847TIP3    H230101   6.299   0.181   3.162 -0.4335 -0.5318  0.0077
 2848TIP3   OH230102   2.521   0.828   1.519 -0.0430 -0.8350  0.4029
 2848TIP3    H130103   2.530   0.736   1.545  1.5170 -0.3228  1.8583
 2848TIP3    H230104   2.607   0.866   1.538 -0.2095  0.6170 -1.5110
 2849TIP3   OH230105   6.596   0.234   1.270 -0.5325 -0.1633 -0.3345
 2849TIP3    H130106   6.689   0.257   1.270 -1.0927  2.6849 -2.3409
 2849TIP3    H230107   6.564   0.263   1.355  0.0172  1.0311 -0.5046
 2850TIP3   OH230108   1.276   6.133   3.354  0.4171 -0.1128 -0.1337
 2850TIP3    H130109   1.336   6.138   3.428  0.1499  0.8266  0.0385
 2850TIP3    H230110   1.286   6.044   3.320  2.3072  0.1641 -0.4459
 2851TIP3   OH230111   0.217   0.512   2.872  0.5175  0.8486  0.1846
 2851TIP3    H130112   0.242   0.477   2.957  0.6225  1.3229  0.3500
 2851TIP3    H230113   0.134   0.468   2.851  2.1347 -1.8765 -1.0426
 2852TIP3   OH230114   3.182   4.322   2.219 -0.1140  0.2195  0.7749
 2852TIP3    H130115   3.141   4.253   2.270 -2.0648 -0.1053 -1.0738
 2852TIP3    H230116   3.128   4.329   2.140  2.1959  1.3027 -0.8351
 2853TIP3   OH230117   6.357   6.473   3.156 -0.2069  0.2700 -0.3797
 2853TIP3    H130118   6.419   6.511   3.217 -0.0736 -0.6994  0.1037
 2853TIP3    H230119   6.299   6.419   3.210 -0.9907  0.5390 -0.9231
 2854TIP3   OH230120   0.205   4.381   7.363 -0.1519 -0.3360 -0.7808
 2854TIP3    H130121   0.246   4.301   7.330 -0.1914 -0.6712 -0.0497
 2854TIP3    H230122   0.135   4.399   7.301 -0.3179 -1.0324 -0.8077
 2855TIP3   OH230123   3.523   6.786   8.237 -0.2167  0.3488  0.1790
 2855TIP3    H130124   3.485   6.703   8.209  1.7530 -0.1066 -1.4311
 2855TIP3    H230125   3.508   6.845   8.162 -0.8062  1.2083  0.9476
 2856TIP3   OH230126   3.892   5.154   0.439  0.4971 -0.3904 -0.2010
 2856TIP3    H130127   3.922   5.245   0.444  2.4381 -1.0183  0.5330
 2856TIP3    H230128   3.809   5.153   0.487  0.6706  0.9100  0.1586
 2857TIP3   OH230129   4.252   1.692   8.122  0.5481  0.1274  0.1011
 2857TIP3    H130130   4.172   1.741   8.101  0.1745 -1.8254 -4.0233
 2857TIP3    H230131   4.323   1.743   8.082  0.6942 -0.5163 -0.4824
 2858TIP3   OH230132   3.803   2.857   1.080 -0.9943 -0.1029 -0.0181
 2858TIP3    H130133   3.826   2.915   1.153 -0.9622 -0.0373 -0.0801
 2858TIP3    H230134   3.862   2.783   1.089 -0.9220 -0.0478 -0.0355
 2859TIP3   OH230135   3.285   6.251   2.430  0.0650 -0.4308  0.8726
 2859TIP3    H130136   3.269   6.263   2.524 -0.3480  0.0905  0.7371
 2859TIP3    H230137   3.264   6.159   2.414  0.8745 -0.7396  1.4355
 2860TIP3   OH230138   5.671   4.996   1.209 -0.0618 -0.1466 -0.1183
 2860TIP3    H130139   5.594   5.002   1.265  0.5864 -2.3390  1.1265
 2860TIP3    H230140   5.727   5.068   1.238 -0.6426  0.0307  0.5975
 2861TIP3   OH230141   3.416   4.849   7.891  0.3071  0.2559 -0.1447
 2861TIP3    H130142   3.468   4.769   7.899  2.0962  1.4400  0.6394
 2861TIP3    H230143   3.326   4.820   7.903  0.9277 -1.5985  0.4170
 2862TIP3   OH230144   4.095   3.787   2.669  0.3137 -0.9583  0.3486
 2862TIP3    H130145   4.121   3.865   2.620  0.8928  0.5002  2.8325
 2862TIP3    H230146   4.132   3.714   2.618  1.9026  0.5240 -0.7408
 2863TIP3   OH230147   3.730   2.025   0.340 -0.2937  0.3744  0.5269
 2863TIP3    H130148   3.644   2.066   0.351  1.2889  3.4230  3.4441
 2863TIP3    H230149   3.723   1.943   0.388 -2.4070 -1.1255 -2.0748
 2864TIP3   OH230150   1.239   1.471   0.996 -0.0827 -0.2422  0.7867
 2864TIP3    H130151   1.147   1.444   0.995 -0.0592 -0.3161  0.4108
 2864TIP3    H230152   1.241   1.552   0.945  0.4003 -1.3907 -1.1054
 2865TIP3   OH230153   4.340   1.091   1.081 -0.8002 -0.2151 -0.0309
 2865TIP3    H130154   4.400   1.046   1.021  0.3530  0.3647  0.6601
 2865TIP3    H230155   4.270   1.124   1.024 -0.2317 -0.5021 -0.9188
 2866TIP3   OH230156   4.904   2.123   8.325 -0.1885 -0.6774 -0.6917
 2866TIP3    H130157   4.827   2.159   8.281  0.0797  1.1843  0.2757
 2866TIP3    H230158   4.974   2.129   8.260 -0.2415  0.2081 -0.6715
 2867TIP3   OH230159   1.472   3.865   0.050 -0.2745 -0.4803 -0.5190
 2867TIP3    H130160   1.407   3.799   0.074  0.0610 -0.8269 -0.5551
 2867TIP3    H230161   1.556   3.820   0.055  0.0637  0.2279  0.4946
 2868TIP3   OH230162   0.588   6.831   7.657 -0.7985  0.3317 -0.1318
 2868TIP3    H130163   0.624   6.919   7.665  1.3709 -0.5454  0.7292
 2868TIP3    H230164   0.608   6.805   7.567 -0.5171  0.3735 -0.0839
 2869TIP3   OH230165   1.986   6.690   0.098 -0.0251 -0.4600  1.0528
 2869TIP3    H130166   2.025   6.648   0.175 -0.4931 -1.3355  0.8159
 2869TIP3    H230167   1.894   6.663   0.100  0.2367 -1.5910 -0.5420
 2870TIP3   OH230168   6.700   0.254   0.965 -0.0985  0.9211 -0.1386
 2870TIP3    H130169   6.648   0.232   0.887  0.4892  0.2116 -0.3502
 2870TIP3    H230170   6.635   0.267   1.034 -0.6753  2.2345 -0.8822
 2871TIP3   OH230171   4.794   5.571   0.626  0.4588 -0.3625 -0.5562
 2871TIP3    H130172   4.765   5.623   0.701  2.1930 -0.0188 -0.0702
 2871TIP3    H230173   4.779   5.481   0.652  0.1713 -0.2111 -0.1913
 2872TIP3   OH230174   4.372   5.796   1.624  0.1396 -0.8851  0.1496
 2872TIP3    H130175   4.457   5.752   1.626 -0.4648 -2.1102  0.0147
 2872TIP3    H230176   4.347   5.795   1.532  0.7681  1.1112 -0.0888
 2873TIP3   OH230177   4.684   4.222   8.356  0.3979  0.0237 -0.0064
 2873TIP3    H130178   4.748   4.286   8.326 -0.4819  0.2528 -1.5045
 2873TIP3    H230179   4.654   4.178   8.276 -0.4558 -0.8836  0.7779
 2874TIP3   OH230180   0.033   3.095   1.186 -0.0675 -0.2886  0.3016
 2874TIP3    H130181  -0.045   3.045   1.210 -1.0000  1.2723  0.6932
 2874TIP3    H230182   0.097   3.029   1.157 -1.5928 -1.5931 -0.2355
 2875TIP3   OH230183   5.818   5.935   2.148  0.5592  0.5962  0.4885
 2875TIP3    H130184   5.766   6.014   2.134 -0.5946 -0.1919  0.2329
 2875TIP3    H230185   5.761   5.878   2.199  1.2586 -0.2092  0.3852
 2876TIP3   OH230186   3.495   1.616   2.907  0.4597  0.0413  0.0676
 2876TIP3    H130187   3.569   1.579   2.955 -0.6071 -1.3512  0.7183
 2876TIP3    H230188   3.532   1.646   2.824  1.7820 -0.4772  0.4514
 2877TIP3   OH230189   2.543   1.826   2.730  0.1079 -0.1963 -0.3130
 2877TIP3    H130190   2.461   1.776   2.740 -2.0542  3.3126  1.1823
 2877TIP3    H230191   2.596   1.801   2.805 -0.4475 -1.0153 -0.1775
 2878TIP3   OH230192   0.722   5.097   1.524 -0.0065 -0.2078  0.5639
 2878TIP3    H130193   0.790   5.050   1.476  1.2755  1.3138  0.7672
 2878TIP3    H230194   0.762   5.182   1.545 -1.9212  0.6804  0.8775
 2879TIP3   OH230195   0.102   5.570   3.217 -0.0601  0.0914 -0.2042
 2879TIP3    H130196   0.009   5.572   3.194 -0.6343 -0.8588  1.7610
 2879TIP3    H230197   0.126   5.661   3.228 -1.0724  0.3138  0.3169
 2880TIP3   OH230198   5.432   0.134   1.719  0.3963 -0.8313 -0.2499
 2880TIP3    H130199   5.501   0.126   1.784  0.2286 -0.4567 -0.0194
 2880TIP3    H230200   5.366   0.070   1.747  0.8939 -1.6086 -0.8009
 2881TIP3   OH230201   4.343   1.284   1.740  0.1572 -0.1033  0.0313
 2881TIP3    H130202   4.263   1.337   1.734  0.9925  1.1127 -0.8737
 2881TIP3    H230203   4.357   1.271   1.833  0.5152  2.2282  0.3398
 2882TIP3   OH230204   0.825   4.956   2.489 -0.0468  0.1176  0.0641
 2882TIP3    H130205   0.869   5.040   2.501 -2.6157  1.4948  0.5212
 2882TIP3    H230206   0.743   4.978   2.445 -1.0795 -2.0638  0.7513
 2883TIP3   OH230207   3.903   2.393   1.684  0.0002  0.0003 -0.5590
 2883TIP3    H130208   3.975   2.438   1.730 -0.0216  1.1065 -1.5703
 2883TIP3    H230209   3.843   2.463   1.659 -0.2541 -0.6414 -1.8071
 2884TIP3   OH230210   0.557   0.960   2.959  0.0353 -0.1984  0.6221
 2884TIP3    H130211   0.622   0.999   3.017 -0.1768  2.2440 -0.6512
 2884TIP3    H230212   0.531   0.879   3.003  1.3990  0.4878  2.8523
 2885TIP3   OH230213   5.751   5.164   7.835 -0.2199 -0.1083  0.3778
 2885TIP3    H130214   5.756   5.086   7.890  1.2367  0.2989  0.8604
 2885TIP3    H230215   5.709   5.134   7.755  0.0294 -1.3115  0.6819
 2886TIP3   OH230216   1.083   1.855   2.273 -0.0919  0.6482  0.4457
 2886TIP3    H130217   1.103   1.836   2.365  1.0204  2.8310  0.7126
 2886TIP3    H230218   1.146   1.802   2.224  0.4244  0.7300  1.0062
 2887TIP3   OH230219   5.132   5.857   8.184  0.0869  0.1351 -0.3250
 2887TIP3    H130220   5.189   5.920   8.228  0.8959 -0.3879 -0.5997
 2887TIP3    H230221   5.192   5.798   8.139 -0.6833 -0.3083 -0.7970
 2888TIP3   OH230222   3.121   6.231   8.375  0.4280 -0.9169 -0.3069
 2888TIP3    H130223   3.068   6.197   8.303 -0.7993  0.5554 -0.1586
 2888TIP3    H230224   3.197   6.270   8.332  0.1552 -0.8543 -0.7448
 2889TIP3   OH230225   4.821   3.671   1.903 -0.0855  0.0587 -0.3251
 2889TIP3    H130226   4.836   3.752   1.951  0.1407  0.2884 -0.7827
 2889TIP3    H230227   4.879   3.676   1.828 -0.6615 -0.1514 -0.7962
 2890TIP3   OH230228   0.344   1.112   0.426  0.1916 -0.1189  0.1658
 2890TIP3    H130229   0.344   1.155   0.512  0.5366  1.9071 -0.7773
 2890TIP3    H230230   0.262   1.139   0.386 -0.0336 -1.1760 -0.0917
 2891TIP3   OH230231   3.264   5.266   3.625 -0.3287  0.2489  0.0632
 2891TIP3    H130232   3.297   5.246   3.538 -0.3011  2.8443 -0.6099
 2891TIP3    H230233   3.325   5.331   3.659 -1.7979  1.2298  0.9335
 2892TIP3   OH230234   2.269   2.504   7.775  0.3608  0.4480 -0.1733
 2892TIP3    H130235   2.218   2.547   7.843 -0.2688  0.7257 -0.8186
 2892TIP3    H230236   2.243   2.546   7.694 -0.2306 -1.0916 -0.8153
 2893TIP3   OH230237   4.661   2.600   0.753  0.3360 -0.0473  0.2075
 2893TIP3    H130238   4.591   2.560   0.804  0.6736  0.3325  0.9783
 2893TIP3    H230239   4.644   2.571   0.663  1.4195 -3.1440  0.8949
 2894TIP3   OH230240   1.214   2.245   2.397  0.3665 -0.2351 -0.1741
 2894TIP3    H130241   1.190   2.337   2.381 -1.0503 -0.7589 -1.3137
 2894TIP3    H230242   1.278   2.225   2.329 -0.2907 -0.4472 -0.7343
 2895TIP3   OH230243   6.454   2.470   2.484  0.0221 -0.7287  0.0915
 2895TIP3    H130244   6.388   2.516   2.536 -0.7906 -0.6809 -0.9476
 2895TIP3    H230245   6.538   2.505   2.515 -0.5466  1.1183 -0.3362
 2896TIP3   OH230246   4.127   1.261   3.485 -0.0146 -0.1061  0.2570
 2896TIP3    H130247   4.127   1.344   3.438 -0.5225 -0.7362 -0.9099
 2896TIP3    H230248   4.036   1.234   3.487  0.3515 -1.8942 -1.8091
 2897TIP3   OH230249   5.068   2.367   1.598 -0.7953 -0.1009  0.0842
 2897TIP3    H130250   5.045   2.344   1.688 -1.3294  0.2557  0.0407
 2897TIP3    H230251   5.152   2.323   1.583 -0.9973 -0.6550  0.5496
 2898TIP3   OH230252   4.001   2.368   1.214  0.1043  0.6755 -0.2434
 2898TIP3    H130253   3.989   2.343   1.123 -1.0466  0.1222  0.0447
 2898TIP3    H230254   4.017   2.463   1.211  1.4998  0.4504 -1.1026
 2899TIP3   OH230255   2.236   2.272   8.358 -0.0117 -0.0033  0.0446
 2899TIP3    H130256   2.203   2.185   8.381  0.7672 -0.4425 -0.4181
 2899TIP3    H230257   2.264   2.263   8.267  1.0715  0.4213  0.3221
 2900TIP3   OH230258   5.672   1.007   1.156 -0.4568  0.0613 -0.4295
 2900TIP3    H130259   5.637   0.920   1.178  2.7552 -1.3971 -0.4928
 2900TIP3    H230260   5.692   1.001   1.062  2.0652 -0.1194  0.0504
 2901TIP3   OH230261   2.263   6.675   0.603  0.3533 -0.0870  0.7194
 2901TIP3    H130262   2.255   6.659   0.509 -1.8390  2.0356  0.4488
 2901TIP3    H230263   2.352   6.710   0.614 -0.1358  1.8848 -0.9967
 2902TIP3   OH230264   5.891   1.388   2.370  0.2185  0.0964 -0.2222
 2902TIP3    H130265   5.798   1.406   2.383  0.1259 -0.5069 -0.0293
 2902TIP3    H230266   5.924   1.369   2.458  0.0811 -1.6991 -0.5236
 2903TIP3   OH230267   3.271   0.571   1.245 -0.0729  0.1592 -0.0943
 2903TIP3    H130268   3.180   0.578   1.276 -0.5930 -2.4892 -0.7588
 2903TIP3    H230269   3.318   0.530   1.318  0.0121 -0.7028 -0.6208
 2904TIP3   OH230270   2.106   6.259   1.609 -0.9634 -0.0244 -0.0909
 2904TIP3    H130271   2.164   6.326   1.573  2.0093 -3.9635 -3.7176
 2904TIP3    H230272   2.146   6.236   1.693 -1.5183  1.9793  0.7808
 2905TIP3   OH230273   0.701   5.201   3.917 -0.2704 -0.2987  0.4354
 2905TIP3    H130274   0.732   5.289   3.897 -1.3856  0.0498  0.1571
 2905TIP3    H230275   0.775   5.144   3.897  0.0923  0.4667 -0.4787
 2906TIP3   OH230276   5.017   0.737   2.676 -0.2513 -0.1421  0.4228
 2906TIP3    H130277   4.983   0.648   2.684  0.0606 -0.1452  1.8024
 2906TIP3    H230278   4.992   0.780   2.757 -1.7315  1.5249 -0.8269
 2907TIP3   OH230279   1.271   4.291   2.095  0.4556  0.2017 -0.5849
 2907TIP3    H130280   1.220   4.233   2.151 -2.0332  1.2876 -1.5848
 2907TIP3    H230281   1.276   4.374   2.143  1.6957  0.0016 -0.3246
 2908TIP3   OH230282   2.854   3.629   2.560  0.5175 -0.1166  0.4619
 2908TIP3    H130283   2.803   3.666   2.632  0.7741 -0.9304  1.0770
 2908TIP3    H230284   2.943   3.663   2.574  0.3596  0.5198 -0.0486
 2909TIP3   OH230285   2.292   0.190   0.032  0.4292  0.2118 -1.0841
 2909TIP3    H130286   2.353   0.237  -0.026  2.9417 -0.9806  0.4265
 2909TIP3    H230287   2.280   0.250   0.105 -0.4942  0.5644 -1.5137
 2910TIP3   OH230288   2.812   2.732   2.684 -0.2024 -0.2397 -0.2094
 2910TIP3    H130289   2.744   2.797   2.666  0.1543 -0.1054 -1.1370
 2910TIP3    H230290   2.860   2.768   2.759  0.1161  0.6915 -0.8342
 2911TIP3   OH230291   3.957   6.024   2.142  0.1310  0.6255 -0.1385
 2911TIP3    H130292   3.905   6.013   2.063  2.1390  0.5335 -1.5150
 2911TIP3    H230293   4.043   5.989   2.120  0.4870 -0.3959  2.4457
 2912TIP3   OH230294   5.360   0.107   1.262  0.0666 -0.1208 -0.5351
 2912TIP3    H130295   5.274   0.097   1.223 -0.2451 -0.2702  0.1690
 2912TIP3    H230296   5.389   0.018   1.281  0.4968 -0.0871 -1.0233
 2913TIP3   OH230297   3.215   1.957   0.707  0.1661 -0.3230 -0.1883
 2913TIP3    H130298   3.151   1.926   0.771 -0.3919 -0.1933 -0.6705
 2913TIP3    H230299   3.176   1.935   0.622 -0.1693  1.5158 -0.5547
 2914TIP3   OH230300   3.278   2.452   2.518 -0.4044 -0.3833  0.2709
 2914TIP3    H130301   3.189   2.486   2.522 -1.3955 -2.7661  0.0687
 2914TIP3    H230302   3.320   2.484   2.598 -1.5384  0.4471  0.5619
 2915TIP3   OH230303   3.685   2.796   2.747 -0.0211  0.3922  0.4209
 2915TIP3    H130304   3.664   2.706   2.772  1.3856 -0.2882 -0.6592
 2915TIP3    H230305   3.741   2.828   2.818 -2.4902  1.3418  2.0526
 2916TIP3   OH230306   5.414   4.398   1.635  0.4269 -0.4145 -0.4598
 2916TIP3    H130307   5.326   4.388   1.600 -0.1123  1.3867  0.2620
 2916TIP3    H230308   5.408   4.366   1.725 -0.1922  1.9336  0.4142
 2917TIP3   OH230309   3.995   5.426   0.358  0.4815  0.3736 -0.1818
 2917TIP3    H130310   3.990   5.392   0.269  2.0222  1.0069 -0.5578
 2917TIP3    H230311   4.077   5.475   0.359 -0.4317  1.9562  1.0422
 2918TIP3   OH230312   6.721   0.220   7.356  0.2077  0.4666 -0.1829
 2918TIP3    H130313   6.674   0.137   7.363  0.2282  0.5486  1.2949
 2918TIP3    H230314   6.813   0.196   7.366  0.2335  0.6421  0.0074
 2919TIP3   OH230315   5.596   4.750   1.108 -0.4001 -0.0639 -0.7045
 2919TIP3    H130316   5.677   4.712   1.141  0.6337  0.3313 -2.6760
 2919TIP3    H230317   5.606   4.845   1.121 -1.0427 -0.0859  0.0538
 2920TIP3   OH230318   0.504   6.049   2.611 -1.1112 -0.1270  0.3606
 2920TIP3    H130319   0.410   6.031   2.601 -1.5596  2.0744  0.0778
 2920TIP3    H230320   0.529   6.002   2.690 -2.6299 -0.1755  0.8401
 2921TIP3   OH230321   0.329   1.716   7.420  0.9645 -0.6246 -0.1900
 2921TIP3    H130322   0.302   1.625   7.437  1.6684 -0.8130 -0.0681
 2921TIP3    H230323   0.280   1.741   7.342 -1.3975 -0.1538  1.3462
 2922TIP3   OH230324   3.178   4.000   1.642  0.2296  0.1229 -0.1693
 2922TIP3    H130325   3.203   3.966   1.556  0.9825  0.2329  0.0039
 2922TIP3    H230326   3.261   4.016   1.687 -0.1009  1.9168 -0.1280
 2923TIP3   OH230327   1.011   4.727   2.878  0.1331  0.0635 -0.1790
 2923TIP3    H130328   0.981   4.676   2.953 -1.9009 -3.3360 -2.9654
 2923TIP3    H230329   0.936   4.782   2.854  0.4343  0.4576 -0.2190
 2924TIP3   OH230330   3.651   1.991   7.186  0.0300 -0.1419  0.4398
 2924TIP3    H130331   3.615   2.062   7.133 -1.4526  0.5515  2.2673
 2924TIP3    H230332   3.629   1.912   7.138 -2.1213  0.4028  0.4491
 2925TIP3   OH230333   1.102   4.865   0.232  0.3513 -0.0174  0.4605
 2925TIP3    H130334   1.014   4.897   0.214  0.2132 -0.7404 -0.1919
 2925TIP3    H230335   1.089   4.787   0.286  0.5792 -0.1830  0.2802
 2926TIP3   OH230336   0.427   5.988   1.238 -0.3866  0.4275  0.1673
 2926TIP3    H130337   0.337   5.970   1.262 -0.2549  1.6374  1.7065
 2926TIP3    H230338   0.422   6.030   1.152 -1.2884  0.6350  0.3213
 2927TIP3   OH230339   2.087   5.125   7.693 -0.6569  0.6827  0.2710
 2927TIP3    H130340   2.009   5.112   7.640  0.3053  0.9672 -1.2904
 2927TIP3    H230341   2.125   5.038   7.704 -0.6117  0.6778  0.0803
 2928TIP3   OH230342   5.191   6.020   2.141 -0.6036 -0.3314 -0.3757
 2928TIP3    H130343   5.132   6.055   2.209 -1.0592  1.0147 -1.4048
 2928TIP3    H230344   5.263   5.981   2.190 -0.0988  2.0181  0.9359
 2929TIP3   OH230345   0.013   2.814   0.241  0.0095  0.6646  0.3373
 2929TIP3    H130346   0.046   2.738   0.193 -1.8189  0.2590 -0.3525
 2929TIP3    H230347   0.064   2.815   0.323  0.9002 -0.5580 -0.1769
 2930TIP3   OH230348   4.833   0.957   0.644  0.0346 -0.0995  0.0586
 2930TIP3    H130349   4.926   0.965   0.665 -0.4743 -0.6194  2.7807
 2930TIP3    H230350   4.793   1.036   0.681 -0.6147  0.2473 -1.3080
 2931TIP3   OH230351   0.862   3.781   8.101 -0.4694  0.3183 -0.3562
 2931TIP3    H130352   0.893   3.836   8.030 -0.7253  0.3512 -0.4417
 2931TIP3    H230353   0.909   3.812   8.178 -0.1189  0.2168 -0.5294
 2932TIP3   OH230354   1.995   3.341   1.836  0.5080 -0.0646  0.8045
 2932TIP3    H130355   2.039   3.419   1.870 -0.1574  0.5979  0.1931
 2932TIP3    H230356   2.000   3.350   1.741 -1.2431  0.2274  0.7109
 2933TIP3   OH230357   0.912   2.682   2.067  0.1713  0.2344 -0.3110
 2933TIP3    H130358   0.934   2.616   2.001  1.8865  2.8115 -2.5201
 2933TIP3    H230359   0.850   2.638   2.125  0.6639 -3.0464 -2.0381
 2934TIP3   OH230360   1.776   0.946   0.007 -0.1863  0.0771  0.4942
 2934TIP3    H130361   1.850   0.886   0.010  0.0552  0.3699  0.4121
 2934TIP3    H230362   1.763   0.974   0.097 -0.7258 -0.6151  0.6353
 2935TIP3   OH230363   1.514   6.844   1.412  0.4921  0.2260  0.5042
 2935TIP3    H130364   1.532   6.778   1.479 -0.8480 -0.8056 -0.1182
 2935TIP3    H230365   1.522   6.928   1.459  0.9913 -0.4174  1.6030
 2936TIP3   OH230366   3.266   0.398   1.492  0.1461  0.4337 -0.3623
 2936TIP3    H130367   3.248   0.346   1.571 -0.4545  1.4840  0.2114
 2936TIP3    H230368   3.226   0.348   1.421  0.6175 -0.4832 -0.0074
 2937TIP3   OH230369   1.243   5.045   2.232 -0.5516  0.2858  0.5675
 2937TIP3    H130370   1.168   5.007   2.185  0.4532 -1.8764  0.6055
 2937TIP3    H230371   1.296   5.086   2.163 -1.7370  1.8785  0.5459
 2938TIP3   OH230372   0.163   2.021   1.210  0.1571 -0.1352 -0.1130
 2938TIP3    H130373   0.100   2.080   1.251 -0.1189 -0.4162 -0.1220
 2938TIP3    H230374   0.248   2.057   1.232 -0.0044  0.1117  0.1115
 2939TIP3   OH230375   3.331   0.289   0.772 -0.1081 -0.3378  0.1265
 2939TIP3    H130376   3.378   0.371   0.754 -0.2303  0.1735  1.9397
 2939TIP3    H230377   3.325   0.285   0.868 -1.5231 -1.6722  0.0256
 2940TIP3   OH230378   3.034   3.145   0.191  0.1220 -0.2632 -0.1392
 2940TIP3    H130379   2.957   3.177   0.239  0.7576  0.8392  0.1700
 2940TIP3    H230380   3.083   3.095   0.255  0.6434  0.6714  0.2066
 2941TIP3   OH230381   6.926   4.779   0.869 -0.3640 -0.2023  0.5529
 2941TIP3    H130382   6.971   4.827   0.799 -1.5625  0.3054  0.1066
 2941TIP3    H230383   6.982   4.703   0.885  0.3784  0.1247 -0.3531
 2942TIP3   OH230384   4.217   4.827   8.355 -0.5358  0.4955 -0.1817
 2942TIP3    H130385   4.238   4.900   8.413 -1.3300  0.6275 -0.0535
 2942TIP3    H230386   4.180   4.760   8.413  0.7056 -0.2516 -0.2042
 2943TIP3   OH230387   6.884   1.264   1.484 -0.2781  0.1625  0.1412
 2943TIP3    H130388   6.856   1.351   1.456  3.3426  1.9627  1.4181
 2943TIP3    H230389   6.848   1.255   1.572  1.1475  1.4873  0.9211
 2944TIP3   OH230390   3.191   0.210   8.151 -0.6174  0.8076 -0.0281
 2944TIP3    H130391   3.110   0.211   8.100 -0.2300 -0.3483 -0.7003
 2944TIP3    H230392   3.224   0.121   8.142  0.5202  1.1489  0.5854
 2945TIP3   OH230393   1.914   3.904   1.414  0.7977 -0.2579 -0.5138
 2945TIP3    H130394   2.008   3.913   1.396  1.1448 -3.1632 -0.6544
 2945TIP3    H230395   1.889   3.824   1.368 -1.6197  0.0949  0.0924
 2946TIP3   OH230396   2.616   4.269   3.308 -0.0309 -0.2256  0.3793
 2946TIP3    H130397   2.632   4.240   3.398  0.3414  1.7372  1.0035
 2946TIP3    H230398   2.537   4.222   3.281 -0.3934 -0.5332  1.8873
 2947TIP3   OH230399   5.172   2.980   8.005  0.6065  0.6138  0.1563
 2947TIP3    H130400   5.202   2.977   8.095 -1.9712 -1.1646  1.0825
 2947TIP3    H230401   5.219   2.909   7.961 -0.5902 -0.7552  1.0268
 2948TIP3   OH230402   5.743   0.404   0.108 -0.0760  0.3001  0.4115
 2948TIP3    H130403   5.697   0.488   0.108 -0.2167  0.2539 -1.1366
 2948TIP3    H230404   5.720   0.364   0.025 -0.3556 -1.4942  1.3000
 2949TIP3   OH230405   6.988   6.647   0.148  0.0593 -0.0820  0.2419
 2949TIP3    H130406   7.046   6.683   0.215 -0.9633  3.4941 -0.6067
 2949TIP3    H230407   7.039   6.652   0.067  0.1940 -1.5038  0.2074
 2950TIP3   OH230408   4.848   0.290   0.505 -0.2378 -0.0397 -0.3527
 2950TIP3    H130409   4.780   0.325   0.447 -2.4925 -2.6195  0.5506
 2950TIP3    H230410   4.928   0.294   0.453 -1.8391 -0.6567 -3.0242
 2951TIP3   OH230411   6.774   1.491   1.400 -0.3498 -0.7091 -0.6429
 2951TIP3    H130412   6.716   1.529   1.334  0.0534 -0.5201 -0.8915
 2951TIP3    H230413   6.767   1.549   1.475 -0.3841 -0.6128 -0.7199
 2952TIP3   OH230414   2.279   5.257   7.533 -0.1349  0.2398 -0.3878
 2952TIP3    H130415   2.261   5.199   7.607  2.1553  0.1335  0.1679
 2952TIP3    H230416   2.242   5.342   7.559  0.7778  0.2420  0.9922
 2953TIP3   OH230417   3.289   0.691   3.487  0.0188  0.1274  0.0983
 2953TIP3    H130418   3.246   0.776   3.489 -0.7234 -0.1764 -1.6865
 2953TIP3    H230419   3.220   0.629   3.510  0.2793 -0.0960  0.2843
 2954TIP3   OH230420   6.792   1.993   0.036  1.0017 -0.3279  0.4088
 2954TIP3    H130421   6.707   1.949   0.043 -0.4117  2.4808  3.1311
 2954TIP3    H230422   6.788   2.040  -0.047 -0.6712  0.7249  1.0407
 2955TIP3   OH230423   6.707   3.587   2.458 -0.0525 -0.0175 -0.4869
 2955TIP3    H130424   6.734   3.521   2.394 -1.5446 -1.2162  0.0483
 2955TIP3    H230425   6.706   3.540   2.542 -0.3360  0.9067  0.0473
 2956TIP3   OH230426   6.220   6.613   0.464 -0.7166 -0.2951  0.1489
 2956TIP3    H130427   6.200   6.521   0.483  0.8907 -0.2477  2.4794
 2956TIP3    H230428   6.308   6.611   0.427  0.7697  0.3966  3.2514
 2957TIP3   OH230429   4.984   0.642   0.870 -0.2853  0.2161  0.3265
 2957TIP3    H130430   4.948   0.694   0.943  0.4987 -0.0310  0.9011
 2957TIP3    H230431   4.921   0.572   0.858 -0.3510  0.1721  0.8772
 2958TIP3   OH230432   0.737   4.430   2.938  0.1053  0.4845  0.0800
 2958TIP3    H130433   0.774   4.452   2.853 -1.9724  1.1800 -0.6938
 2958TIP3    H230434   0.717   4.336   2.933  1.0722  0.2559  0.2661
 2959TIP3   OH230435   1.987   2.714   1.178 -0.4098 -0.1150 -0.6484
 2959TIP3    H130436   1.895   2.715   1.151 -0.7665 -0.3651  0.4934
 2959TIP3    H230437   1.990   2.772   1.254  0.1785 -0.8741 -0.0751
 2960TIP3   OH230438   3.298   6.228   8.168  0.1735  0.0152  0.0841
 2960TIP3    H130439   3.349   6.148   8.152 -0.6516 -0.3366 -0.9133
 2960TIP3    H230440   3.233   6.229   8.098  0.7316  2.0496 -0.4621
 2961TIP3   OH230441   0.958   0.678   1.779  0.0861 -0.1846 -0.7096
 2961TIP3    H130442   0.916   0.659   1.695 -0.7142 -0.9812 -0.1496
 2961TIP3    H230443   1.038   0.626   1.778 -1.4177 -2.6974  0.2433
 2962TIP3   OH230444   0.583   5.232   0.319  0.0253 -0.1089 -0.1885
 2962TIP3    H130445   0.599   5.234   0.413 -1.6962 -1.3648  0.1821
 2962TIP3    H230446   0.580   5.324   0.293 -0.7778  0.3007  1.2488
 2963TIP3   OH230447   6.637   3.571   7.385 -0.0783 -0.1050 -0.0721
 2963TIP3    H130448   6.573   3.593   7.317 -1.5703 -1.3582  0.8271
 2963TIP3    H230449   6.664   3.481   7.365  0.9451  0.2055 -0.1000
 2964TIP3   OH230450   1.010   1.196   3.285  0.3474  0.2798 -0.2409
 2964TIP3    H130451   1.020   1.282   3.327 -0.2662  1.0388 -1.5905
 2964TIP3    H230452   1.096   1.155   3.292  0.1957  0.2130  2.0392
 2965TIP3   OH230453   6.408   1.748   1.445 -0.3481  0.4961 -0.2408
 2965TIP3    H130454   6.407   1.796   1.362  0.0435  0.2650 -0.3859
 2965TIP3    H230455   6.344   1.678   1.433  0.4849 -0.1951 -0.7589
 2966TIP3   OH230456   6.777   2.006   3.118 -0.4738  0.2483 -0.4959
 2966TIP3    H130457   6.868   2.032   3.133 -0.9861  1.4636  0.6779
 2966TIP3    H230458   6.754   2.046   3.034 -0.5694  1.8317  0.2483
 2967TIP3   OH230459   0.948   1.056   8.179  0.2667  0.5592  0.1911
 2967TIP3    H130460   1.012   1.031   8.112  0.5306 -0.2879  0.7416
 2967TIP3    H230461   1.002   1.088   8.252  0.1521 -1.0573  1.0351
 2968TIP3   OH230462   2.712   3.774   2.747  0.3335 -0.2131  0.3068
 2968TIP3    H130463   2.631   3.806   2.786 -0.0452  0.4048 -0.9231
 2968TIP3    H230464   2.776   3.778   2.818  0.1221  2.5678  0.4474
 2969TIP3   OH230465   3.204   5.182   3.135  0.6137 -0.0670 -1.1268
 2969TIP3    H130466   3.268   5.134   3.084  0.3915 -1.5161 -0.0881
 2969TIP3    H230467   3.231   5.169   3.226  0.6751  1.9783 -0.8004
 2970TIP3   OH230468   1.679   2.504   7.897 -0.2757  0.3696 -0.8014
 2970TIP3    H130469   1.726   2.451   7.833  0.2943  0.7834 -0.7407
 2970TIP3    H230470   1.600   2.454   7.918 -0.3468  0.1170 -1.6404
 2971TIP3   OH230471   1.661   2.773   8.001  0.2296 -0.7851 -0.2621
 2971TIP3    H130472   1.566   2.779   7.990  0.2485 -1.3361 -0.8322
 2971TIP3    H230473   1.682   2.683   7.976  0.8636 -0.7610  0.1642
 2972TIP3   OH230474   4.898   2.078   7.901  0.4076  0.6617 -0.5274
 2972TIP3    H130475   4.984   2.118   7.913  1.6840 -1.8523 -0.6483
 2972TIP3    H230476   4.867   2.114   7.818  1.4763  1.4148 -0.6221
 2973TIP3   OH230477   1.684   3.478   3.075  0.6679 -0.3360  0.2862
 2973TIP3    H130478   1.624   3.413   3.110 -0.1458 -0.7886 -1.7964
 2973TIP3    H230479   1.627   3.546   3.038  1.4963  1.1492  1.6234
 2974TIP3   OH230480   0.586   6.823   2.876 -0.5327  0.4393 -0.1050
 2974TIP3    H130481   0.490   6.816   2.878 -0.5128  0.0299 -0.3032
 2974TIP3    H230482   0.606   6.902   2.925 -0.9100 -0.1342  1.0109
 2975TIP3   OH230483   6.835   5.489   2.837 -0.1529 -0.3407 -0.6033
 2975TIP3    H130484   6.764   5.426   2.842 -0.4273 -0.0631 -0.9384
 2975TIP3    H230485   6.804   5.564   2.888  0.3124 -0.6036  0.0822
 2976TIP3   OH230486   1.843   0.766   2.269 -0.5617  0.3182  0.2987
 2976TIP3    H130487   1.791   0.823   2.212 -0.9935 -1.5973 -1.3062
 2976TIP3    H230488   1.918   0.821   2.294 -2.0874  2.3422  0.7337
 2977TIP3   OH230489   2.149   4.394   8.296 -0.3370  0.5422 -0.1292
 2977TIP3    H130490   2.169   4.309   8.337 -2.5996  0.7318  1.5907
 2977TIP3    H230491   2.110   4.372   8.212  0.0015 -0.0590 -0.1356
 2978TIP3   OH230492   5.437   2.389   8.195 -0.2601 -0.0902 -0.4814
 2978TIP3    H130493   5.361   2.441   8.220 -0.4175 -0.2717 -0.5773
 2978TIP3    H230494   5.436   2.389   8.100 -0.8863 -1.1593 -0.4940
 2979TIP3   OH230495   1.739   1.485   0.223  0.0743  0.6023  0.2694
 2979TIP3    H130496   1.829   1.501   0.193  0.5461  0.4582  1.5465
 2979TIP3    H230497   1.731   1.537   0.303 -0.4613 -0.5742  1.0040
 2980TIP3   OH230498   1.129   6.318   3.200  0.2900 -0.0467 -0.1442
 2980TIP3    H130499   1.158   6.409   3.206 -1.1904  0.3888  1.3938
 2980TIP3    H230500   1.197   6.268   3.246 -0.1014  0.6392  1.2484
 2981TIP3   OH230501   6.077   3.429   1.912  0.0434 -0.0340 -0.5938
 2981TIP3    H130502   6.137   3.363   1.876  0.5311  0.3751 -0.5527
 2981TIP3    H230503   6.114   3.512   1.884  1.0743  0.3701  1.7092
 2982TIP3   OH230504   1.633   5.543   1.691 -0.2176  0.0452 -0.4733
 2982TIP3    H130505   1.576   5.584   1.626 -0.5293  0.6719  0.1895
 2982TIP3    H230506   1.719   5.581   1.673 -0.5671  1.2687  0.3485
 2983TIP3   OH230507   0.993   4.055   2.952  0.4809  0.0844 -0.0488
 2983TIP3    H130508   1.043   4.011   3.020 -0.8530 -2.6677 -0.7092
 2983TIP3    H230509   0.964   3.985   2.894 -2.3667  1.7406 -0.8403
 2984TIP3   OH230510   6.651   6.836   0.720  0.0353 -0.4677  0.8348
 2984TIP3    H130511   6.692   6.842   0.633 -0.1490  1.4545  0.8362
 2984TIP3    H230512   6.723   6.854   0.781 -0.0540 -0.7827  1.0359
 2985TIP3   OH230513   6.428   4.725   7.490  0.2551  0.3132 -1.1782
 2985TIP3    H130514   6.403   4.642   7.529  0.2839  1.5725  1.8123
 2985TIP3    H230515   6.515   4.743   7.525 -0.1753  2.0383 -0.8918
 2986TIP3   OH230516   2.512   1.167   2.818  0.1053  0.1153  0.7055
 2986TIP3    H130517   2.590   1.112   2.821  1.0736  1.2884 -1.0994
 2986TIP3    H230518   2.469   1.143   2.736 -2.1954 -1.4208  2.2550
 2987TIP3   OH230519   2.886   1.362   0.170  0.3451 -0.5486 -0.3721
 2987TIP3    H130520   2.876   1.365   0.075 -0.5024 -0.1979 -0.2801
 2987TIP3    H230521   2.816   1.417   0.204 -0.7025 -2.3501  0.5357
 2988TIP3   OH230522   6.400   1.660   8.095  0.0413 -0.2108  0.5045
 2988TIP3    H130523   6.386   1.719   8.168 -1.0760  0.0475  0.0973
 2988TIP3    H230524   6.494   1.666   8.077  0.4320 -0.6312  2.1896
 2989TIP3   OH230525   1.815   2.224   1.762 -0.0975  0.0732 -0.2733
 2989TIP3    H130526   1.739   2.182   1.724 -0.1230 -0.1877  0.0612
 2989TIP3    H230527   1.847   2.162   1.828 -0.4730  0.8158  0.6258
 2990TIP3   OH230528   1.389   0.143   0.992  0.6307 -0.3346  0.4213
 2990TIP3    H130529   1.364   0.083   1.062 -0.2307 -2.0276 -1.2485
 2990TIP3    H230530   1.405   0.226   1.036 -1.5184 -0.8943  2.4463
 2991TIP3   OH230531   4.345   2.286   0.978  0.3037 -0.2786  0.1542
 2991TIP3    H130532   4.279   2.261   1.042 -0.7712  0.6006 -0.5690
 2991TIP3    H230533   4.429   2.271   1.022 -0.3799 -0.9713  1.2540
 2992TIP3   OH230534   0.965   6.939   7.874  0.2033  0.3884  0.0015
 2992TIP3    H130535   0.935   7.029   7.868  0.8399  0.6461  0.4581
 2992TIP3    H230536   0.998   6.931   7.964 -0.6785 -0.5675  0.2534
 2993TIP3   OH230537   4.002   1.966   0.230 -0.4703  0.1754  0.8160
 2993TIP3    H130538   3.950   1.999   0.303  0.4791 -0.0702  1.6217
 2993TIP3    H230539   4.078   2.024   0.226 -1.0334  0.8725 -0.6991
 2994TIP3   OH230540   6.576   0.317   1.844 -0.9198  0.2868  0.0641
 2994TIP3    H130541   6.591   0.386   1.908 -0.5188  1.2292 -1.0114
 2994TIP3    H230542   6.539   0.245   1.895 -0.1686  0.8270  1.4225
 2995TIP3   OH230543   4.894   4.236   2.555  0.1883  0.6984 -0.6404
 2995TIP3    H130544   4.956   4.247   2.628  0.6331  0.6371 -1.0012
 2995TIP3    H230545   4.823   4.183   2.591  0.1880  1.0382 -0.1256
 2996TIP3   OH230546   6.292   6.534   2.436 -0.2353  0.5108  0.7469
 2996TIP3    H130547   6.268   6.548   2.345  0.7030 -1.7238  0.0719
 2996TIP3    H230548   6.383   6.563   2.442  0.3950 -1.2488  0.3714
 2997TIP3   OH230549   0.774   5.890   0.359 -0.6936 -0.0504  0.2051
 2997TIP3    H130550   0.809   5.934   0.437 -0.3046 -1.4731  0.8689
 2997TIP3    H230551   0.681   5.910   0.360 -0.9761 -1.2559  1.9055
 2998TIP3   OH230552   4.486   0.842   7.999 -0.1204  0.2869 -0.2586
 2998TIP3    H130553   4.533   0.923   7.980 -0.1104  0.9290  2.1251
 2998TIP3    H230554   4.395   0.869   8.010 -0.2080 -0.0994  0.0097
 2999TIP3   OH230555   4.168   2.035   2.064 -0.0777  0.2289 -0.0491
 2999TIP3    H130556   4.253   2.045   2.107  0.3069 -0.1379 -0.7148
 2999TIP3    H230557   4.108   2.087   2.118  1.0141  2.5533 -0.9540
 3000TIP3   OH230558   2.124   5.344   0.200 -0.2673  0.0053 -0.0952
 3000TIP3    H130559   2.062   5.416   0.211  1.6364  1.7428 -0.1549
 3000TIP3    H230560   2.097   5.302   0.119 -0.6486  1.5111 -0.7908
 3001TIP3   OH230561   6.196   4.995   7.726  0.8892  0.1795  0.3587
 3001TIP3    H130562   6.147   4.913   7.737  0.0504  0.7270  0.9105
 3001TIP3    H230563   6.219   4.998   7.633  1.0061 -0.7210  0.3552
 3002TIP3   OH230564   5.026   5.896   0.044 -0.6825  0.6918 -0.8573
 3002TIP3    H130565   5.018   5.987   0.074 -2.9527  0.7746 -1.4494
 3002TIP3    H230566   4.996   5.899  -0.047 -0.7258 -0.6390 -0.9052
 3003TIP3   OH230567   5.659   0.963   0.845 -0.1660 -0.1771  0.1813
 3003TIP3    H130568   5.639   0.870   0.860 -0.1280  0.2001  3.0980
 3003TIP3    H230569   5.589   1.010   0.889  2.1234  1.1146  2.8354
 3004TIP3   OH230570   3.161   4.353   0.761 -0.3087 -0.6460 -0.1649
 3004TIP3    H130571   3.067   4.359   0.780  0.0531  1.5613  1.2228
 3004TIP3    H230572   3.167   4.372   0.667 -1.1587  0.8635  0.0504
 3005TIP3   OH230573   2.737   3.189   8.032  0.5674 -0.4514 -0.1535
 3005TIP3    H130574   2.706   3.232   8.112  1.7195  0.0297  0.0541
 3005TIP3    H230575   2.730   3.256   7.964 -0.1150 -0.7627 -0.3965
 3006TIP3   OH230576   0.249   5.963   0.059  0.2311 -0.0795  0.0877
 3006TIP3    H130577   0.272   5.971   0.152 -0.4089  2.2927  0.0921
 3006TIP3    H230578   0.185   5.891   0.057 -1.1318  0.9994  1.7831
 3007TIP3   OH230579   3.411   5.719   1.100  0.1619 -0.2068 -0.2034
 3007TIP3    H130580   3.468   5.738   1.174  1.0204 -1.2577 -0.5618
 3007TIP3    H230581   3.382   5.805   1.069  0.3284  0.2655  0.9317
 3008TIP3   OH230582   2.609   5.217   1.338  0.0395  0.2338 -0.3241
 3008TIP3    H130583   2.692   5.230   1.382  0.1021  0.8884 -0.6187
 3008TIP3    H230584   2.629   5.225   1.245 -0.4328  0.8830 -0.3768
 3009TIP3   OH230585   6.295   5.206   8.128  0.7237  0.0323  0.1108
 3009TIP3    H130586   6.262   5.290   8.097 -1.0242 -0.2909  0.9799
 3009TIP3    H230587   6.363   5.228   8.192  0.6226  0.7639 -0.0354
 3010TIP3   OH230588   1.219   6.148   0.107 -0.2855  0.5958 -0.1316
 3010TIP3    H130589   1.255   6.078   0.162  1.9123  0.3379 -1.7696
 3010TIP3    H230590   1.125   6.128   0.102  0.1678 -1.9223 -0.0803
 3011TIP3   OH230591   6.110   0.059   3.293 -0.7393  0.0892  0.8515
 3011TIP3    H130592   6.200   0.030   3.284 -0.7465  0.4717 -0.6477
 3011TIP3    H230593   6.064  -0.017   3.329 -0.5702 -1.5621 -2.1220
 3012TIP3   OH230594   2.789   4.342   2.725  0.2094 -0.6155 -0.3867
 3012TIP3    H130595   2.784   4.331   2.630  0.5604 -0.3899 -0.4339
 3012TIP3    H230596   2.714   4.293   2.759 -0.6249  0.2947 -0.8527
 3013TIP3   OH230597   4.546   4.930   2.679  0.1047 -0.4721  0.4686
 3013TIP3    H130598   4.454   4.927   2.706  0.2470  0.5036  1.1281
 3013TIP3    H230599   4.580   4.842   2.696 -0.6239 -0.7468  0.5172
 3014TIP3   OH230600   5.043   2.952   0.890  0.0643  0.2538  0.6186
 3014TIP3    H130601   5.024   2.995   0.807  0.6710  1.0393  0.8682
 3014TIP3    H230602   4.976   2.884   0.898 -1.1214  1.3534  0.3527
 3015TIP3   OH230603   1.244   2.837   8.419 -0.0847  0.6193  1.2491
 3015TIP3    H130604   1.216   2.912   8.471  1.8048  1.5460  0.9797
 3015TIP3    H230605   1.285   2.875   8.341 -0.5742 -0.7202  0.2958
 3016TIP3   OH230606   4.717   6.866   1.833  0.0663  0.1243  0.2650
 3016TIP3    H130607   4.661   6.930   1.789  0.0058 -0.2851 -0.2742
 3016TIP3    H230608   4.769   6.917   1.894 -0.5893  0.5708  0.4625
 3017TIP3   OH230609   2.867   4.938   2.274  0.5041 -0.2066 -0.1690
 3017TIP3    H130610   2.913   4.888   2.206  1.8108  1.1627 -0.3332
 3017TIP3    H230611   2.884   5.029   2.253 -1.9016  0.3631  0.0797
 3018TIP3   OH230612   0.277   0.882   2.395  0.2381  0.4622  0.3753
 3018TIP3    H130613   0.222   0.960   2.392  0.1296  0.3429 -1.0478
 3018TIP3    H230614   0.219   0.813   2.428  0.2583  0.8873  1.3524
 3019TIP3   OH230615   4.029   3.156   2.375 -0.2535 -0.1899  0.0166
 3019TIP3    H130616   3.934   3.146   2.362 -0.0314 -0.6499 -1.3637
 3019TIP3    H230617   4.057   3.211   2.302  0.6005 -0.3234  0.2356
 3020TIP3   OH230618   5.571   2.658   7.811  0.3813  0.4272  0.0101
 3020TIP3    H130619   5.522   2.585   7.849  0.1773  0.5217 -0.0656
 3020TIP3    H230620   5.661   2.628   7.806  0.7244  0.9518  2.0140
 3021TIP3   OH230621   3.285   3.210   3.340 -0.4588 -0.2704 -0.0166
 3021TIP3    H130622   3.322   3.289   3.380 -0.5677 -0.4697  0.4867
 3021TIP3    H230623   3.191   3.224   3.343 -0.5738 -1.1707  1.6939
 3022TIP3   OH230624   2.159   6.022   2.724  0.2656 -0.6144  0.1720
 3022TIP3    H130625   2.077   6.072   2.721 -0.0203 -0.9741  1.5363
 3022TIP3    H230626   2.159   5.981   2.811  0.8415 -2.4141 -0.6341
 3023TIP3   OH230627   1.954   0.272   2.767  0.0696  0.5095 -1.1849
 3023TIP3    H130628   2.014   0.197   2.769  1.2824  1.4375 -1.3579
 3023TIP3    H230629   1.901   0.258   2.688  0.6262  0.0824 -1.4957
 3024TIP3   OH230630   3.157   3.646   8.146  0.4213  0.0442  0.3146
 3024TIP3    H130631   3.175   3.667   8.237 -0.2822 -0.1696  0.5084
 3024TIP3    H230632   3.227   3.586   8.120  0.2570 -0.4108  0.9054
 3025TIP3   OH230633   0.090   6.144   1.154  0.3846 -0.2926  0.0308
 3025TIP3    H130634   0.141   6.224   1.168 -0.2297  0.3868 -1.3918
 3025TIP3    H230635   0.115   6.087   1.227 -1.6442  2.4196  3.1803
 3026TIP3   OH230636   0.013   0.444   8.273  0.0529 -0.2691  0.1543
 3026TIP3    H130637  -0.045   0.480   8.340  1.5720  2.5887  0.0946
 3026TIP3    H230638  -0.025   0.475   8.190  0.0706 -0.8766 -0.0818
 3027TIP3   OH230639   2.928   4.358   2.075  0.2728  0.3888  0.8676
 3027TIP3    H130640   2.915   4.268   2.107 -0.1023 -0.6281 -1.8629
 3027TIP3    H230641   2.843   4.400   2.089  0.0276 -0.1108  0.9266
 3028TIP3   OH230642   6.069   5.660   2.209  0.0325 -0.2561  0.6384
 3028TIP3    H130643   6.157   5.665   2.173 -1.0550 -1.3356 -2.4913
 3028TIP3    H230644   6.054   5.567   2.223 -1.2828 -0.3137 -0.8826
 3029TIP3   OH230645   6.372   1.521   2.354 -0.4788  0.2059  0.4802
 3029TIP3    H130646   6.378   1.577   2.431  0.5425 -0.2798  0.7761
 3029TIP3    H230647   6.377   1.582   2.280  0.2987  0.5443  0.7970
 3030TIP3   OH230648   3.727   1.430   8.420 -0.2346  0.4485  0.3194
 3030TIP3    H130649   3.765   1.342   8.416 -0.4212  0.4057 -0.6485
 3030TIP3    H230650   3.686   1.434   8.507  0.3107 -0.1897  0.6159
 3031TIP3   OH230651   2.491   2.854   1.103 -0.0587 -0.7866  0.1248
 3031TIP3    H130652   2.467   2.762   1.119 -0.8787 -0.5912  0.0845
 3031TIP3    H230653   2.412   2.903   1.125 -0.3714 -0.2828 -1.9193
 3032TIP3   OH230654   1.793   1.120   1.345  0.0732 -0.1121 -0.1509
 3032TIP3    H130655   1.737   1.196   1.363 -1.2941 -0.3482 -2.8085
 3032TIP3    H230656   1.879   1.145   1.378 -1.0364  1.2621  1.8906
 3033TIP3   OH230657   6.009   2.073   2.694  0.2184 -0.2861 -0.5500
 3033TIP3    H130658   5.987   2.147   2.751 -3.3888  1.2013 -3.4436
 3033TIP3    H230659   6.018   1.998   2.754 -1.7351  1.4061  2.0880
 3034TIP3   OH230660   2.833   1.614   7.701 -0.5358 -0.2400  0.6546
 3034TIP3    H130661   2.824   1.708   7.711 -2.8405 -0.2547 -0.5400
 3034TIP3    H230662   2.922   1.602   7.667 -0.6268  1.6381 -0.4075
 3035TIP3   OH230663   6.337   0.914   1.731 -0.8647 -0.3197 -0.5402
 3035TIP3    H130664   6.278   0.851   1.772 -2.1185 -0.3030 -2.2232
 3035TIP3    H230665   6.304   0.924   1.642  0.2445  1.5394 -0.8038
 3036TIP3   OH230666   3.176   5.830   2.268 -0.0609 -0.6403  0.1017
 3036TIP3    H130667   3.128   5.781   2.200 -1.1207 -2.0424  1.7807
 3036TIP3    H230668   3.243   5.878   2.219 -1.9761 -0.0737 -2.1498
 3037TIP3   OH230669   2.054   1.141   0.181 -0.3159 -0.1078 -0.2350
 3037TIP3    H130670   2.131   1.095   0.146 -0.6540 -0.6250 -0.3085
 3037TIP3    H230671   2.090   1.219   0.222  0.7166 -2.0807  2.9799
 3038TIP3   OH230672   3.995   0.976   3.066  0.0687  0.0059 -0.2815
 3038TIP3    H130673   4.075   0.936   3.033 -0.1301 -0.5608 -0.0872
 3038TIP3    H230674   4.019   1.007   3.154 -0.5417 -2.2843  0.7657
 3039TIP3   OH230675   1.270   4.059   0.064 -0.2454 -0.6448  0.3098
 3039TIP3    H130676   1.197   4.009   0.027  1.1607 -2.5807  0.0200
 3039TIP3    H230677   1.348   4.017   0.028  1.0414  0.9973  1.0887
 3040TIP3   OH230678   6.802   6.580   0.374 -0.9158  0.3108 -0.1759
 3040TIP3    H130679   6.841   6.500   0.411 -0.7181  0.3717 -0.2521
 3040TIP3    H230680   6.844   6.590   0.289 -1.2109  0.2929 -0.3245
 3041TIP3   OH230681   6.440   5.815   1.362  0.0584 -0.1095 -0.3699
 3041TIP3    H130682   6.377   5.749   1.392 -0.5694  0.7670  0.3130
 3041TIP3    H230683   6.491   5.836   1.440  1.9804 -1.5887 -1.1485
 3042TIP3   OH230684   6.773   4.801   2.434 -0.2478 -0.1984  0.4502
 3042TIP3    H130685   6.696   4.792   2.490 -0.0367 -1.0438  0.6225
 3042TIP3    H230686   6.846   4.769   2.487 -0.3615 -3.2094 -1.0056
 3043TIP3   OH230687   0.469   3.020   7.410  0.5532  0.5676  0.0171
 3043TIP3    H130688   0.381   3.054   7.393 -0.3065  0.1120  2.9599
 3043TIP3    H230689   0.511   3.088   7.464  0.9485 -0.4249  0.9945
 3044TIP3   OH230690   6.875   0.290   2.511  0.2564  0.9636  0.2106
 3044TIP3    H130691   6.887   0.242   2.429 -3.1369 -0.5660  0.4271
 3044TIP3    H230692   6.793   0.338   2.500 -0.7516  0.0911  2.8914
 3045TIP3   OH230693   3.369   2.897   0.571  0.2405 -0.3642 -0.2423
 3045TIP3    H130694   3.283   2.937   0.559  0.4147  0.5798  1.4484
 3045TIP3    H230695   3.351   2.802   0.571 -0.7570 -0.1895 -0.1716
 3046TIP3   OH230696   1.599   3.802   1.334 -0.8029  0.1809  0.1643
 3046TIP3    H130697   1.686   3.764   1.341 -0.3929  0.6933 -1.5795
 3046TIP3    H230698   1.586   3.848   1.417  0.2661 -0.5291  0.7477
 3047TIP3   OH230699   0.491   2.972   2.253 -0.0158  0.2509  0.1936
 3047TIP3    H130700   0.513   2.935   2.338 -2.3378 -2.2527 -0.1373
 3047TIP3    H230701   0.553   2.931   2.192 -1.5355 -2.0794  0.0737
 3048TIP3   OH230702   3.538   6.739   1.632 -0.6095  0.0491 -0.3916
 3048TIP3    H130703   3.565   6.819   1.677 -0.2563  0.4155 -1.2318
 3048TIP3    H230704   3.512   6.679   1.702  0.4714  0.3988  0.3329
 3049TIP3   OH230705   4.455   4.600   7.519 -0.2044 -0.2729  0.1770
 3049TIP3    H130706   4.462   4.617   7.613  0.2634  2.2533 -0.2549
 3049TIP3    H230707   4.374   4.643   7.492 -0.2404 -0.8122 -0.6415
 3050TIP3   OH230708   4.609   3.198   2.429 -0.3938 -0.0121  0.1871
 3050TIP3    H130709   4.667   3.213   2.503 -0.5833  0.1920  0.2961
 3050TIP3    H230710   4.619   3.276   2.374 -3.4052  1.9404  2.0827
 3051TIP3   OH230711   6.544   0.498   7.913  0.6813  0.7076 -0.3346
 3051TIP3    H130712   6.553   0.495   8.008 -0.8363 -1.6501 -0.1618
 3051TIP3    H230713   6.556   0.407   7.885 -0.6138  1.0465 -2.1910
 3052TIP3   OH230714   4.535   4.724   0.569 -0.3221  0.0857  0.2447
 3052TIP3    H130715   4.576   4.726   0.483  0.2197  1.0391  0.5130
 3052TIP3    H230716   4.473   4.797   0.567 -3.8739 -2.6445 -1.0050
 3053TIP3   OH230717   2.976   0.428   1.169 -0.0201 -0.1974 -0.2239
 3053TIP3    H130718   2.990   0.412   1.075 -1.0406  0.9875 -0.6052
 3053TIP3    H230719   3.040   0.372   1.212  0.2054 -1.0649 -1.6179
 3054TIP3   OH230720   0.710   0.119   1.605 -0.5982  0.6519 -0.5793
 3054TIP3    H130721   0.628   0.088   1.644 -0.2861  0.4958 -0.0427
 3054TIP3    H230722   0.750   0.041   1.567  0.2055  0.3534  0.8036
 3055TIP3   OH230723   0.226   5.747   8.236  0.1076  0.3341  0.2752
 3055TIP3    H130724   0.245   5.840   8.228  1.6842  0.0695  0.5636
 3055TIP3    H230725   0.142   5.743   8.282  0.1354  1.6052  0.4731
 3056TIP3   OH230726   2.943   0.938   1.827 -0.0735 -0.3286  0.2416
 3056TIP3    H130727   3.021   0.984   1.855  1.5774 -1.4191 -2.2290
 3056TIP3    H230728   2.943   0.857   1.878 -0.2930  0.1959  1.0931
 3057TIP3   OH230729   4.574   2.311   0.653  0.0833 -0.1975  0.0967
 3057TIP3    H130730   4.636   2.274   0.590  0.1058  0.3489 -0.2115
 3057TIP3    H230731   4.544   2.236   0.704  0.9498 -0.4769  0.2130
 3058TIP3   OH230732   5.197   5.763   2.776 -0.2602 -0.0155 -0.3009
 3058TIP3    H130733   5.142   5.730   2.705 -0.3901 -0.2855 -0.0776
 3058TIP3    H230734   5.175   5.708   2.851 -1.0085  1.0385  0.2783
 3059TIP3   OH230735   2.132   0.895   2.499 -0.2291 -0.2089  0.3336
 3059TIP3    H130736   2.044   0.909   2.462 -0.4147 -3.1890 -0.5913
 3059TIP3    H230737   2.122   0.822   2.560  1.4971 -0.1612  0.7308
 3060TIP3   OH230738   0.196   0.165   2.027 -0.0723 -0.3624  0.2745
 3060TIP3    H130739   0.247   0.089   2.054 -1.9469 -1.8863 -0.2534
 3060TIP3    H230740   0.204   0.166   1.931 -0.3353 -0.1010  0.2537
 3061TIP3   OH230741   0.652   0.644   0.467  0.2245 -0.1117 -0.4151
 3061TIP3    H130742   0.616   0.673   0.383  0.3060  0.2456 -0.3258
 3061TIP3    H230743   0.578   0.650   0.528  0.1398 -0.4634 -0.4805
 3062TIP3   OH230744   2.779   1.836   1.853 -0.1343  0.4223 -0.2024
 3062TIP3    H130745   2.786   1.749   1.891 -1.1303  1.3584  2.3712
 3062TIP3    H230746   2.853   1.885   1.890 -0.3019  1.0117 -0.6231
 3063TIP3   OH230747   3.493   0.363   8.308 -0.8112 -0.0969 -0.2360
 3063TIP3    H130748   3.466   0.283   8.353 -1.5299 -1.6800 -3.1884
 3063TIP3    H230749   3.458   0.434   8.361  2.2156 -1.4569  4.0730
 3064TIP3   OH230750   3.580   2.933   1.729  0.1789 -0.0098 -0.0090
 3064TIP3    H130751   3.591   2.883   1.648  1.8885  1.5597 -0.8287
 3064TIP3    H230752   3.669   2.956   1.755 -0.4731  1.4700  1.0555
 3065TIP3   OH230753   6.928   0.130   3.513 -0.5624 -0.0187  0.2142
 3065TIP3    H130754   6.897   0.221   3.515 -1.1932 -0.2270  0.0062
 3065TIP3    H230755   6.853   0.079   3.482 -0.5417 -0.7587  1.3191
 3066TIP3   OH230756   0.145   6.031   1.668 -0.7982  0.0350 -0.4361
 3066TIP3    H130757   0.069   6.030   1.726 -0.0631  1.7910  0.6558
 3066TIP3    H230758   0.129   6.104   1.609  0.0452  0.5006 -0.1213
 3067TIP3   OH230759   1.755   0.569   1.716  0.4611  0.0735 -0.2439
 3067TIP3    H130760   1.851   0.565   1.709  0.4958  0.7806 -0.2635
 3067TIP3    H230761   1.736   0.662   1.722 -0.2015 -0.0849  0.1847
 3068TIP3   OH230762   5.568   0.276   2.347  0.0858  0.0051  0.3844
 3068TIP3    H130763   5.522   0.195   2.369  0.9153 -0.6049 -0.0506
 3068TIP3    H230764   5.660   0.255   2.361  0.4915  0.1973 -1.7130
 3069TIP3   OH230765   3.913   0.970   3.571  0.6236  0.4942  0.5835
 3069TIP3    H130766   3.907   1.062   3.545  0.6952  0.0182 -1.2020
 3069TIP3    H230767   3.822   0.942   3.580  0.5978  0.6483  0.8142
 3070TIP3   OH230768   2.526   3.344   7.712  0.2363  0.2376 -1.1611
 3070TIP3    H130769   2.464   3.417   7.718 -0.4467 -0.4421  0.6875
 3070TIP3    H230770   2.606   3.378   7.752 -0.1746 -0.1044 -0.0301
 3071TIP3   OH230771   1.897   5.848   2.493 -0.0523 -0.1799 -0.0798
 3071TIP3    H130772   1.808   5.846   2.527 -0.7595 -0.2265 -1.8185
 3071TIP3    H230773   1.887   5.866   2.400  1.5637 -2.7673 -0.8675
 3072TIP3   OH230774   3.858   1.112   8.215  0.3284  0.3070 -0.1628
 3072TIP3    H130775   3.785   1.092   8.274  0.2592  1.2752  0.0889
 3072TIP3    H230776   3.911   1.176   8.263  1.8961 -1.0888  0.0756
 3073TIP3   OH230777   5.713   5.748   8.149 -0.0365 -0.7653  0.2057
 3073TIP3    H130778   5.720   5.840   8.126 -0.8117 -0.4195  1.2664
 3073TIP3    H230779   5.705   5.703   8.065  0.1785  0.1460 -0.3152
 3074TIP3   OH230780   6.335   0.812   2.302 -0.4749  0.1553  0.1735
 3074TIP3    H130781   6.298   0.795   2.388 -0.6344 -1.2743 -0.1484
 3074TIP3    H230782   6.388   0.891   2.313 -1.0385  0.3847  1.4031
 3075TIP3   OH230783   2.286   2.215   7.784 -0.1566 -0.0504 -0.7345
 3075TIP3    H130784   2.301   2.265   7.703 -0.2383 -0.6368 -1.1197
 3075TIP3    H230785   2.335   2.133   7.771  0.0431 -0.0419 -0.0820
 3076TIP3   OH230786   0.615   5.125   0.841  0.4881  0.7720  0.0924
 3076TIP3    H130787   0.695   5.090   0.880  0.7878  1.7776  0.4052
 3076TIP3    H230788   0.605   5.077   0.759  0.8077 -0.1319  0.5684
 3077TIP3   OH230789   2.833   1.790   1.594  0.0785 -0.1989 -0.4040
 3077TIP3    H130790   2.789   1.820   1.674  0.1913 -1.1495  0.0204
 3077TIP3    H230791   2.865   1.702   1.614  2.6210  0.6011 -0.5169
 3078TIP3   OH230792   1.373   0.808   1.764 -0.3813  0.0798  0.0349
 3078TIP3    H130793   1.320   0.758   1.826  0.3153 -0.3128  0.3226
 3078TIP3    H230794   1.336   0.787   1.678 -0.8190 -0.0346  0.2511
 3079TIP3   OH230795   3.668   6.537   2.983  0.7435  0.0191  0.3750
 3079TIP3    H130796   3.613   6.499   3.052  1.0607  0.0202  0.6281
 3079TIP3    H230797   3.609   6.594   2.934  0.1469 -1.1240 -0.2762
 3080TIP3   OH230798   1.719   3.567   0.292  0.2178  0.0795 -0.3236
 3080TIP3    H130799   1.720   3.625   0.368  0.1121  0.7463 -0.8239
 3080TIP3    H230800   1.796   3.511   0.304 -0.0009 -0.0727  0.4549
 3081TIP3   OH230801   0.888   1.199   3.030 -0.1000  0.1489  0.1109
 3081TIP3    H130802   0.913   1.192   3.122  1.3889 -0.0892 -0.2942
 3081TIP3    H230803   0.969   1.218   2.984 -0.2691 -2.5512 -1.5217
 3082TIP3   OH230804   3.453   5.758   0.557  0.2119  0.3848 -0.6010
 3082TIP3    H130805   3.531   5.751   0.503  0.3118 -1.6281 -0.2745
 3082TIP3    H230806   3.478   5.720   0.641 -0.8088  0.6740 -0.1495
 3083TIP3   OH230807   2.245   4.066   1.050  0.6660 -0.2967 -0.0358
 3083TIP3    H130808   2.284   4.072   1.137  0.3431  1.2417  0.0175
 3083TIP3    H230809   2.299   4.123   0.995 -0.0763 -0.0135 -0.4881
 3084TIP3   OH230810   0.339   5.275   1.398  0.1121  0.3020  0.6620
 3084TIP3    H130811   0.419   5.326   1.388  0.6289 -0.7252 -0.7873
 3084TIP3    H230812   0.289   5.322   1.464  1.6999  1.2289  1.2694
 3085TIP3   OH230813   2.236   6.032   0.707  0.3082 -0.3469 -0.1052
 3085TIP3    H130814   2.171   6.009   0.640 -0.2930  2.8329 -0.7723
 3085TIP3    H230815   2.268   6.118   0.681  3.4137 -0.9519  1.3058
 3086TIP3   OH230816   1.460   4.324   0.806 -0.2158 -0.3848 -0.0647
 3086TIP3    H130817   1.494   4.285   0.886 -0.1679 -0.4585 -0.1207
 3086TIP3    H230818   1.533   4.375   0.771 -0.2113 -0.4185 -0.1044
 3087TIP3   OH230819   3.028   3.506   7.214 -0.3203  0.1814 -0.1464
 3087TIP3    H130820   3.091   3.557   7.163 -0.5275 -0.0704 -0.6639
 3087TIP3    H230821   2.995   3.440   7.153 -0.6419 -0.0701  0.2887
 3088TIP3   OH230822   1.603   0.645   2.297  0.7303  0.3748 -0.1142
 3088TIP3    H130823   1.592   0.650   2.392  0.9899 -1.3231  0.0345
 3088TIP3    H230824   1.695   0.664   2.282  0.9062 -0.3156  0.0730
 3089TIP3   OH230825   0.378   3.245   2.132  0.1408  0.2328 -0.3865
 3089TIP3    H130826   0.442   3.190   2.177  0.4278  1.2346  0.4476
 3089TIP3    H230827   0.417   3.260   2.045  0.8111  0.4309 -0.0564
 3090TIP3   OH230828   4.400   2.620   7.945  0.5275  0.2131  0.2785
 3090TIP3    H130829   4.341   2.593   8.015 -0.0356  0.8271  0.0456
 3090TIP3    H230830   4.484   2.580   7.968  0.5888  1.1261  1.7804
 3091TIP3   OH230831   1.008   3.669   0.710 -0.2755  0.0798 -0.1782
 3091TIP3    H130832   1.072   3.705   0.772 -0.9232  0.4982  0.2561
 3091TIP3    H230833   1.037   3.579   0.696  0.0644  0.0763  0.4891
 3092TIP3   OH230834   3.792   3.737   1.488 -0.4344  0.2860 -0.5144
 3092TIP3    H130835   3.770   3.784   1.568  0.5298 -0.0074 -0.0649
 3092TIP3    H230836   3.856   3.671   1.515 -1.9056 -1.4731 -1.0699
 3093TIP3   OH230837   5.262   4.218   0.102  0.2734 -0.4903  0.2897
 3093TIP3    H130838   5.222   4.228   0.189  1.7798 -0.9593  1.0795
 3093TIP3    H230839   5.356   4.215   0.119  0.5506 -2.5618 -1.1387
 3094TIP3   OH230840   6.081   5.733   8.333  0.0248  0.1481  1.0899
 3094TIP3    H130841   6.012   5.757   8.395 -0.1546  0.5487  0.7365
 3094TIP3    H230842   6.086   5.637   8.339 -0.8669  0.0687  0.8008
 3095TIP3   OH230843   0.391   6.376   1.237 -0.3871  0.2323  0.3236
 3095TIP3    H130844   0.304   6.415   1.245  0.2494  1.5966  0.8573
 3095TIP3    H230845   0.450   6.451   1.229  0.5955 -0.7006 -1.7593
 3096TIP3   OH230846   2.501   2.054   8.376  0.2040 -0.0113 -0.1599
 3096TIP3    H130847   2.546   1.992   8.318  0.5066 -1.4912  1.5608
 3096TIP3    H230848   2.548   2.137   8.364  1.7462 -0.8710 -0.3058
 3097TIP3   OH230849   3.732   6.366   3.386  0.1987  0.5298 -0.0702
 3097TIP3    H130850   3.711   6.401   3.472 -1.2108  1.5374 -0.7725
 3097TIP3    H230851   3.723   6.272   3.395  0.4087  0.6018  0.9636
 3098TIP3   OH230852   5.803   2.808   7.535  0.1277 -0.2998 -0.4061
 3098TIP3    H130853   5.873   2.873   7.533 -1.5049  1.6562  1.4922
 3098TIP3    H230854   5.747   2.831   7.461  0.3558 -0.5134 -0.6458
 3099TIP3   OH230855   6.503   5.095   1.731  0.4807 -0.5896  0.2418
 3099TIP3    H130856   6.433   5.160   1.729 -1.0790 -2.2274 -1.2381
 3099TIP3    H230857   6.572   5.136   1.783  0.6604  3.3547 -2.6675
 3100TIP3   OH230858   2.957   5.263   7.586 -0.1282 -0.6599  0.3376
 3100TIP3    H130859   2.918   5.239   7.502 -0.4746 -2.6937  1.0158
 3100TIP3    H230860   2.990   5.352   7.573 -2.2924 -0.0009 -1.1966
 3101TIP3   OH230861   3.741   6.819   7.838 -0.4790 -0.6198 -0.1577
 3101TIP3    H130862   3.725   6.779   7.924 -0.6790  0.1811  0.1815
 3101TIP3    H230863   3.767   6.908   7.858 -0.7324 -0.3675 -0.9414
 3102TIP3   OH230864   3.517   2.172   2.001  0.2464  0.2788 -0.0377
 3102TIP3    H130865   3.574   2.200   1.929  0.4558  1.0007  0.3977
 3102TIP3    H230866   3.433   2.154   1.959  0.6199 -0.2050 -0.5954
 3103TIP3   OH230867   2.779   4.984   1.158 -0.1362  0.6716  0.5785
 3103TIP3    H130868   2.846   5.033   1.206  0.0953  0.3386  0.6004
 3103TIP3    H230869   2.802   4.996   1.066 -0.0443  0.5569  0.5859
 3104TIP3   OH230870   3.581   6.232   8.014 -0.3350 -0.6749  0.3935
 3104TIP3    H130871   3.660   6.208   7.965 -0.8365 -1.2183 -0.1658
 3104TIP3    H230872   3.537   6.149   8.032 -0.8586 -0.3689  0.5631
 3105TIP3   OH230873   5.845   5.718   1.268 -0.4601  0.0422  0.0705
 3105TIP3    H130874   5.853   5.764   1.352  2.8523 -0.8610  0.3917
 3105TIP3    H230875   5.868   5.783   1.203 -2.9880  0.7299 -0.2621
 3106TIP3   OH230876   0.522   4.833   7.215 -0.2784 -0.3504 -0.0038
 3106TIP3    H130877   0.459   4.772   7.178  1.3129 -1.6171 -0.7779
 3106TIP3    H230878   0.572   4.780   7.278  0.6313  0.3375 -0.1251
 3107TIP3   OH230879   5.032   2.274   3.378  0.4151 -0.1604  0.4410
 3107TIP3    H130880   5.060   2.295   3.467 -0.3697 -0.3668  0.7529
 3107TIP3    H230881   4.952   2.325   3.366  0.2155 -0.5551  0.0595
 3108TIP3   OH230882   0.707   0.201   2.222  0.0734 -0.1056 -0.0703
 3108TIP3    H130883   0.705   0.167   2.311 -0.2676  0.5705  0.1867
 3108TIP3    H230884   0.798   0.229   2.209  0.1393 -0.2672  0.0394
 3109TIP3   OH230885   6.050   2.352   1.880 -0.4312 -0.4975 -0.1742
 3109TIP3    H130886   6.013   2.439   1.869  1.5755  0.2848 -1.4603
 3109TIP3    H230887   6.045   2.313   1.792  0.6431 -0.7938 -0.1199
 3110TIP3   OH230888   5.967   2.649   2.954 -0.0317  0.2013  0.1487
 3110TIP3    H130889   6.057   2.631   2.983  0.4130 -0.0193 -1.3154
 3110TIP3    H230890   5.931   2.705   3.023  1.2348  0.3122  0.7555
 3111TIP3   OH230891   1.939   3.531   1.603 -0.2998  0.0912 -0.0883
 3111TIP3    H130892   1.929   3.438   1.581 -0.1671 -0.1803  0.9390
 3111TIP3    H230893   1.912   3.577   1.524 -1.1128 -0.8093 -0.3639
 3112TIP3   OH230894   3.907   5.967   2.643  0.9509 -0.4827  0.2611
 3112TIP3    H130895   3.820   5.938   2.616  0.7309  1.0599 -0.8281
 3112TIP3    H230896   3.891   6.030   2.714  1.0755  0.6696 -0.7052
 3113TIP3   OH230897   4.091   5.365   8.036 -0.1002  0.5513  0.3808
 3113TIP3    H130898   4.186   5.358   8.031 -0.0656  0.6957  0.7797
 3113TIP3    H230899   4.075   5.420   8.113 -0.5539 -0.8985  1.3688
 3114TIP3   OH230900   5.372   4.434   0.420  0.2730  0.2021 -0.7399
 3114TIP3    H130901   5.305   4.373   0.388  0.0993 -0.7927  1.3468
 3114TIP3    H230902   5.325   4.495   0.476  1.0824 -0.7606  1.0910
 3115TIP3   OH230903   2.544   0.569   8.356  0.1064  0.0213  0.0138
 3115TIP3    H130904   2.579   0.658   8.350 -1.1689  0.5042 -0.6556
 3115TIP3    H230905   2.483   0.572   8.430 -0.8928  0.0745 -0.7850
 3116TIP3   OH230906   0.448   4.347   0.622  0.2690 -0.7724 -0.9867
 3116TIP3    H130907   0.530   4.305   0.648  0.8352  0.3670 -0.8577
 3116TIP3    H230908   0.474   4.435   0.594 -1.1144  0.4142  1.1628
 3117TIP3   OH230909   6.200   1.828   7.607 -0.3675 -0.5610 -0.1206
 3117TIP3    H130910   6.152   1.746   7.615 -0.3593 -0.5994 -0.4470
 3117TIP3    H230911   6.198   1.849   7.514  0.3583 -0.6297 -0.1607
 3118TIP3   OH230912   6.493   6.327   1.326 -0.0916 -0.3550  0.0282
 3118TIP3    H130913   6.419   6.267   1.335 -0.7924  0.0428 -2.3271
 3118TIP3    H230914   6.561   6.275   1.282  1.3773 -0.9180  2.7555
 3119TIP3   OH230915   5.668   3.704   1.995  0.0895  0.2587  0.1615
 3119TIP3    H130916   5.746   3.754   1.972  0.6659 -0.9945 -0.7599
 3119TIP3    H230917   5.654   3.647   1.919 -0.4982 -1.0024  1.1835
 3120TIP3   OH230918   5.222   3.724   1.219  0.0238 -0.4895  0.0802
 3120TIP3    H130919   5.308   3.762   1.199  0.3231 -1.7040 -1.0313
 3120TIP3    H230920   5.185   3.700   1.134 -1.3093 -0.2503  0.5601
 3121TIP3   OH230921   2.530   6.715   8.251 -0.2240  0.0918  0.4708
 3121TIP3    H130922   2.579   6.721   8.169  0.4792  0.7292  0.9163
 3121TIP3    H230923   2.453   6.770   8.238  0.5017  1.1649  0.6498
 3122TIP3   OH230924   2.411   0.537   2.151 -0.6482  0.6381 -0.0151
 3122TIP3    H130925   2.399   0.469   2.085 -0.4747  0.3005  0.2968
 3122TIP3    H230926   2.347   0.516   2.219  1.4242 -1.0534  1.5592
 3123TIP3   OH230927   5.706   1.119   7.239 -0.0619  0.3564 -0.1387
 3123TIP3    H130928   5.756   1.190   7.199  3.6376 -3.0362 -2.0868
 3123TIP3    H230929   5.749   1.104   7.323  0.4308 -0.7502 -0.5749
 3124TIP3   OH230930   4.860   5.329   0.338  0.2114 -0.5696  0.1134
 3124TIP3    H130931   4.935   5.323   0.278  0.2606 -2.0467  0.2667
 3124TIP3    H230932   4.846   5.422   0.351 -0.5299 -0.1004 -3.1435
 3125TIP3   OH230933   6.591   5.848   1.596 -0.4302 -0.3666 -0.2445
 3125TIP3    H130934   6.522   5.851   1.662  0.7460 -0.5392  1.0382
 3125TIP3    H230935   6.651   5.781   1.627 -0.3152 -1.1270 -2.0061
 3126TIP3   OH230936   6.481   4.660   8.430  0.2428  0.7198  0.1670
 3126TIP3    H130937   6.398   4.627   8.466 -1.0006  0.2444 -2.8169
 3126TIP3    H230938   6.454   4.730   8.370  1.9883  0.5540 -0.8709
 3127TIP3   OH230939   6.852   0.569   7.281 -0.5136  0.0908  0.6325
 3127TIP3    H130940   6.938   0.532   7.304 -0.4969  0.7693  1.6939
 3127TIP3    H230941   6.873   0.644   7.226 -0.4342  0.1601  0.7576
 3128TIP3   OH230942   1.050   6.318   8.278 -0.6521  0.0207 -0.5001
 3128TIP3    H130943   0.960   6.302   8.306 -1.3264  0.9247 -2.0414
 3128TIP3    H230944   1.050   6.409   8.246  1.1068  0.4599  0.5649
 3129TIP3   OH230945   0.742   2.519   2.221 -0.2538 -0.1185 -0.5736
 3129TIP3    H130946   0.736   2.520   2.316 -0.8751  0.2967 -0.6122
 3129TIP3    H230947   0.655   2.493   2.191 -0.4403  1.0073 -1.0558
 3130TIP3   OH230948   4.564   5.102   1.771  0.4560  0.1406  0.2769
 3130TIP3    H130949   4.487   5.126   1.719  1.0219  0.9882 -0.1899
 3130TIP3    H230950   4.594   5.020   1.733 -0.2946 -0.2737  0.5564
 3131TIP3   OH230951   3.905   2.002   1.336 -0.1587  0.1473 -0.6253
 3131TIP3    H130952   3.866   2.090   1.337 -0.3381  0.0645 -0.4483
 3131TIP3    H230953   3.899   1.975   1.244 -0.4577  0.1629 -0.6134
 3132TIP3   OH230954   4.378   2.246   0.050 -0.0489 -0.4427  0.2733
 3132TIP3    H130955   4.327   2.193  -0.010 -1.8943  0.9516  0.4935
 3132TIP3    H230956   4.443   2.289  -0.005 -2.1473  1.3633 -0.9810
 3133TIP3   OH230957   0.406   2.137   1.394 -0.2793  0.4645 -0.2704
 3133TIP3    H130958   0.393   2.225   1.429 -0.6954  1.0806 -1.8757
 3133TIP3    H230959   0.464   2.149   1.319 -1.1110 -0.4538 -1.1009
 3134TIP3   OH230960   6.849   5.011   0.707 -0.2146 -0.1142  0.0938
 3134TIP3    H130961   6.790   4.937   0.722  0.1276 -0.5751 -0.7819
 3134TIP3    H230962   6.892   4.991   0.625  0.4653  0.6888  0.2427
 3135TIP3   OH230963   3.073   2.108   2.341 -0.6537  0.2508 -0.2829
 3135TIP3    H130964   3.108   2.193   2.312  2.6975 -1.1516 -0.8135
 3135TIP3    H230965   3.068   2.116   2.437 -0.0134  0.9649 -0.2977
 3136TIP3   OH230966   1.995   3.122   8.142  0.2712 -0.2398 -0.6552
 3136TIP3    H130967   1.970   3.030   8.131  1.4722 -0.4638 -1.6517
 3136TIP3    H230968   1.911   3.169   8.141 -0.2400 -1.1133 -2.4373
 3137TIP3   OH230969   0.584   3.702   2.221 -0.5194 -0.1805 -0.4137
 3137TIP3    H130970   0.605   3.792   2.197 -2.4916  0.5019  0.2247
 3137TIP3    H230971   0.615   3.650   2.148 -0.9545  1.2192 -1.6531
 3138TIP3   OH230972   1.332   6.646   1.300 -0.0065 -0.2863 -0.9844
 3138TIP3    H130973   1.424   6.663   1.280  0.5943 -1.1622  0.8028
 3138TIP3    H230974   1.297   6.732   1.323 -0.3271  0.4789 -3.9560
 3139TIP3   OH230975   6.007   1.049   0.687 -0.0223 -0.0824 -0.0001
 3139TIP3    H130976   5.977   1.004   0.609 -0.6407  1.3529 -0.6263
 3139TIP3    H230977   5.979   0.993   0.760  3.9634 -3.5414 -0.7483
 3140TIP3   OH230978   0.519   5.515   1.624 -0.2194  0.9023  0.2071
 3140TIP3    H130979   0.586   5.583   1.633 -0.1527  1.0570 -1.2093
 3140TIP3    H230980   0.525   5.487   1.532  0.2538 -1.5598  0.9285
 3141TIP3   OH230981   0.122   0.810   8.183 -0.1428  0.8639  0.1938
 3141TIP3    H130982   0.083   0.848   8.262 -0.5316  2.1212 -0.5864
 3141TIP3    H230983   0.053   0.753   8.148  0.6631 -1.1980  1.7119
 3142TIP3   OH230984   3.432   5.635   8.395  0.0423 -0.1670 -0.7475
 3142TIP3    H130985   3.338   5.648   8.386 -0.5044 -1.2305  2.3151
 3142TIP3    H230986   3.463   5.621   8.306 -2.4360  1.5188 -1.9964
 3143TIP3   OH230987   2.633   2.311   0.163 -0.0756  0.2492 -0.0567
 3143TIP3    H130988   2.548   2.325   0.206  0.5773  0.3543  1.2449
 3143TIP3    H230989   2.613   2.312   0.069 -1.5136  0.2524  0.2280
 3144TIP3   OH230990   6.620   3.217   1.336  0.0561 -0.6588  0.3954
 3144TIP3    H130991   6.622   3.231   1.242 -1.7497 -0.3948  0.3612
 3144TIP3    H230992   6.677   3.142   1.351  1.7188  0.3316 -0.6710
 3145TIP3   OH230993   6.395   3.514   1.028  0.0948 -0.0705 -0.0183
 3145TIP3    H130994   6.364   3.594   0.985 -0.0513  0.2357  0.6410
 3145TIP3    H230995   6.348   3.512   1.112  0.3045 -0.7032  0.0916
 3146TIP3   OH230996   4.356   6.542   2.402 -0.4094  0.6069  0.3576
 3146TIP3    H130997   4.305   6.622   2.417  2.3892  2.2265  2.0961
 3146TIP3    H230998   4.378   6.545   2.309 -1.9484  0.7531 -0.0353
 3147TIP3   OH230999   2.101   0.631   0.677  0.3723  0.7254 -0.2153
 3147TIP3    H131000   2.013   0.667   0.667 -0.1760 -0.5159 -0.0064
 3147TIP3    H231001   2.153   0.704   0.711 -0.6379  1.3988 -0.0801
 3148TIP3   OH231002   5.744   1.184   0.677 -0.6807  0.4146  0.1948
 3148TIP3    H131003   5.721   1.100   0.715  1.0457 -0.3177 -0.2945
 3148TIP3    H231004   5.751   1.243   0.752 -2.0396  0.1941  0.5252
 3149TIP3   OH231005   3.017   4.622   7.220  0.1478  0.0753  0.5728
 3149TIP3    H131006   2.986   4.541   7.178  2.6859 -0.9401  0.4703
 3149TIP3    H231007   2.961   4.633   7.297 -2.7213  0.3708 -1.3919
 3150TIP3   OH231008   4.691   1.189   0.759  0.0883  0.9726 -0.0898
 3150TIP3    H131009   4.765   1.237   0.722  0.2386  1.2864  0.6122
 3150TIP3    H231010   4.630   1.257   0.787  0.1062  0.7439  0.5094
 3151TIP3   OH231011   2.688   6.608   2.764  0.1893 -0.2806  0.3365
 3151TIP3    H131012   2.753   6.563   2.818  0.0593  0.2694  0.9602
 3151TIP3    H231013   2.623   6.540   2.743 -0.2668 -0.2871  1.6796
 3152TIP3   OH231014   5.538   0.058   8.092 -0.2548  0.3446 -0.0229
 3152TIP3    H131015   5.540   0.150   8.067 -0.1523  0.6762  1.1253
 3152TIP3    H231016   5.506   0.012   8.015 -1.5686  1.5014 -0.2015
 3153TIP3   OH231017   5.372   5.115   7.192  0.3565  0.1240  0.1731
 3153TIP3    H131018   5.371   5.098   7.097 -1.6678  0.2781  0.1196
 3153TIP3    H231019   5.315   5.048   7.228  2.4880 -1.0596  1.5701
 3154TIP3   OH231020   3.174   5.109   2.441  0.5622 -0.4713  0.3275
 3154TIP3    H131021   3.156   5.194   2.400 -0.5268 -0.9004 -0.1320
 3154TIP3    H231022   3.116   5.108   2.518  0.5865 -0.7820  0.3432
 3155TIP3   OH231023   4.723   2.194   0.442  0.2893  0.7065  0.3057
 3155TIP3    H131024   4.801   2.247   0.425  1.6183 -1.4333 -0.7537
 3155TIP3    H231025   4.665   2.212   0.368  0.4218  1.2141  0.3242
 3156TIP3   OH231026   0.801   6.950   0.235  0.9482  0.1229 -0.2659
 3156TIP3    H131027   0.729   6.888   0.247  2.4151 -1.7862 -0.8367
 3156TIP3    H231028   0.771   7.009   0.166  0.0393 -0.8460 -0.7263
 3157TIP3   OH231029   0.974   4.995   2.192 -0.2212  0.8456  0.5816
 3157TIP3    H131030   0.938   4.909   2.212 -1.8271  1.2485 -0.3118
 3157TIP3    H231031   0.898   5.053   2.193 -0.3661  1.2293 -4.5243
 3158TIP3   OH231032   3.180   0.127   0.084 -0.1354 -0.4875  0.8221
 3158TIP3    H131033   3.148   0.212   0.054  1.0161  0.0881  1.1868
 3158TIP3    H231034   3.115   0.099   0.149 -1.8191 -1.0350 -0.9903
 3159TIP3   OH231035   2.741   1.383   2.194 -0.5631 -0.3195 -0.6383
 3159TIP3    H131036   2.784   1.455   2.241 -2.4763 -0.0396  0.8088
 3159TIP3    H231037   2.752   1.404   2.101  1.7041  0.1118 -0.3134
 3160TIP3   OH231038   1.126   2.108   2.788  0.5168  0.1603  0.0030
 3160TIP3    H131039   1.069   2.031   2.793  3.3940 -2.1234  0.3416
 3160TIP3    H231040   1.157   2.121   2.877  0.4901  1.4477 -0.1479
 3161TIP3   OH231041   4.612   2.458   0.195  0.1467 -0.1225  0.2419
 3161TIP3    H131042   4.611   2.488   0.286  0.1493 -0.1137  0.2391
 3161TIP3    H231043   4.540   2.506   0.153  0.1054 -0.1735  0.2543
 3162TIP3   OH231044   6.371   1.223   7.949 -0.3458  0.2825 -0.1236
 3162TIP3    H131045   6.287   1.268   7.947 -0.8830 -0.7286 -1.9315
 3162TIP3    H231046   6.436   1.294   7.954 -1.2628  1.0480  2.6294
 3163TIP3   OH231047   1.874   6.355   1.747  0.1682  0.1051  0.2674
 3163TIP3    H131048   1.942   6.398   1.800 -0.6919  3.2540 -0.9384
 3163TIP3    H231049   1.916   6.338   1.663  0.0508  0.1654  0.1955
 3164TIP3   OH231050   2.701   1.529   3.212 -0.6597  0.0506 -0.2980
 3164TIP3    H131051   2.655   1.459   3.166 -0.6479 -1.2298  1.5245
 3164TIP3    H231052   2.698   1.503   3.304  3.0699  0.2281  0.0337
 3165TIP3   OH231053   2.518   3.005   8.085 -0.1125 -0.0702 -0.3028
 3165TIP3    H131054   2.553   3.090   8.058 -0.9829  0.2856 -0.3356
 3165TIP3    H231055   2.575   2.941   8.043 -0.6614  0.4775 -1.9276
 3166TIP3   OH231056   1.539   6.035   2.485  0.1754  0.1791 -0.5066
 3166TIP3    H131057   1.534   5.998   2.574 -1.6829 -1.1117 -1.0893
 3166TIP3    H231058   1.455   6.079   2.473  0.7701  1.1275 -1.3346
 3167TIP3   OH231059   1.869   6.015   7.947 -0.2862 -0.1468 -0.7165
 3167TIP3    H131060   1.866   6.016   7.851 -0.3552 -0.0916 -0.7136
 3167TIP3    H231061   1.962   6.025   7.968 -0.3499  0.5860 -0.7703
 3168TIP3   OH231062   5.089   0.598   7.444  0.6651 -0.6177 -0.2166
 3168TIP3    H131063   5.107   0.685   7.409  1.4498 -0.9689 -0.7388
 3168TIP3    H231064   5.129   0.598   7.531 -0.6762  0.0301  0.4251
 3169TIP3   OH231065   0.471   3.514   0.045  0.3992 -0.0078  0.2263
 3169TIP3    H131066   0.467   3.568  -0.034  0.0367 -0.7660 -0.2803
 3169TIP3    H231067   0.491   3.576   0.115  0.3436  0.7300 -0.3990
 3170TIP3   OH231068   1.341   2.682   0.172 -0.7591 -0.1946 -0.6095
 3170TIP3    H131069   1.320   2.745   0.104 -0.7204  1.5168  0.8706
 3170TIP3    H231070   1.435   2.666   0.162 -0.5817  0.7126 -0.4365
 3171TIP3   OH231071   4.713   6.753   1.532 -0.0238 -0.0035  0.0575
 3171TIP3    H131072   4.708   6.763   1.627 -1.2297 -1.2073  0.1542
 3171TIP3    H231073   4.801   6.782   1.509 -0.3696  2.2463  1.2729
 3172TIP3   OH231074   6.966   5.626   2.619  0.5543  0.8860  0.3807
 3172TIP3    H131075   7.037   5.643   2.679  0.3559  1.1604  0.5383
 3172TIP3    H231076   6.897   5.586   2.673  1.6800 -2.2331 -0.2773
 3173TIP3   OH231077   6.059   0.617   7.834 -0.4105 -0.0004 -0.2253
 3173TIP3    H131078   6.000   0.641   7.905 -0.7029  1.1331 -0.8072
 3173TIP3    H231079   6.147   0.631   7.870 -0.5625  2.2375 -0.5594
 3174TIP3   OH231080   4.610   0.146   8.055  0.2208 -0.6569  0.2436
 3174TIP3    H131081   4.688   0.181   8.099 -0.7063  0.6125  0.9375
 3174TIP3    H231082   4.537   0.196   8.092 -0.8855 -1.4997 -0.7285
 3175TIP3   OH231083   6.749   1.982   7.671 -0.1153  0.3256  0.3353
 3175TIP3    H131084   6.728   2.075   7.663 -2.8494 -0.2315 -0.0253
 3175TIP3    H231085   6.671   1.937   7.637  1.8507 -2.1206 -1.3268
 3176TIP3   OH231086   0.301   6.164   0.472  0.1025  0.0354  0.6648
 3176TIP3    H131087   0.283   6.216   0.551 -0.2591 -1.3737  1.5426
 3176TIP3    H231088   0.397   6.157   0.470  0.1208  0.2029  0.9021
 3177TIP3   OH231089   4.952   2.759   2.291 -0.3283  0.1097 -0.5674
 3177TIP3    H131090   4.930   2.800   2.207  0.8290  0.7504 -0.5893
 3177TIP3    H231091   5.041   2.791   2.309 -0.5457 -0.0750  0.8735
 3178TIP3   OH231092   3.638   0.996   3.535  0.2242 -0.2374  0.4753
 3178TIP3    H131093   3.642   1.089   3.514 -1.3250 -0.0805  0.7420
 3178TIP3    H231094   3.553   0.985   3.577 -1.0282 -2.2875 -2.2628
 3179TIP3   OH231095   4.209   1.313   2.595  0.4487  0.0470  0.4521
 3179TIP3    H131096   4.126   1.289   2.553  0.7911  0.1629 -0.3114
 3179TIP3    H231097   4.248   1.230   2.621  0.7567 -0.1156 -0.4900
 3180TIP3   OH231098   1.658   3.667   1.805 -0.2053  0.2979  0.3905
 3180TIP3    H131099   1.641   3.719   1.883 -1.4777  2.5983 -1.2969
 3180TIP3    H231100   1.749   3.638   1.815  0.6089  2.8950  1.4874
 3181TIP3   OH231101   6.779   5.952   1.384  0.1906  0.1373  0.1858
 3181TIP3    H131102   6.731   5.908   1.454  1.2767 -0.7783  0.3856
 3181TIP3    H231103   6.819   5.881   1.334  0.9981  0.8609 -0.2235
 3182TIP3   OH231104   4.991   0.916   2.179  0.4297 -0.2661  0.3883
 3182TIP3    H131105   4.974   1.010   2.178 -0.2234 -0.3817 -0.0328
 3182TIP3    H231106   4.950   0.884   2.259 -0.8815 -0.4505 -0.3274
 3183TIP3   OH231107   5.152   4.793   0.230 -0.0624 -0.5365 -0.1059
 3183TIP3    H131108   5.125   4.840   0.309  2.0368  3.0528 -1.2979
 3183TIP3    H231109   5.071   4.767   0.188 -1.4712  2.8067  0.2951
 3184TIP3   OH231110   3.697   4.402   7.708  0.3308  0.4271  0.2580
 3184TIP3    H131111   3.660   4.316   7.729  1.2208 -0.2798 -0.9462
 3184TIP3    H231112   3.768   4.413   7.771 -0.3647  0.7161  1.0152
 3185TIP3   OH231113   6.499   3.859   1.116  0.3193  0.0426 -0.2606
 3185TIP3    H131114   6.452   3.813   1.047  0.6894 -0.4802 -0.1705
 3185TIP3    H231115   6.513   3.793   1.183  1.5310  0.0838 -0.4582
 3186TIP3   OH231116   4.583   4.086   7.300 -0.4758  0.3464 -0.1781
 3186TIP3    H131117   4.654   4.026   7.276 -0.9684 -0.4139  0.2458
 3186TIP3    H231118   4.621   4.173   7.289  0.2862 -0.0385 -0.6863
 3187TIP3   OH231119   2.651   3.817   7.824  0.4722 -0.2763 -0.3014
 3187TIP3    H131120   2.629   3.751   7.890  0.3790 -0.7108 -0.7564
 3187TIP3    H231121   2.660   3.767   7.743 -0.0637  0.3342 -0.7452
 3188TIP3   OH231122   3.271   6.055   3.282  0.4390 -0.0940 -0.3145
 3188TIP3    H131123   3.233   5.967   3.282 -1.8382  0.7895 -1.4808
 3188TIP3    H231124   3.319   6.061   3.364  0.1525 -2.2218  0.0520
 3189TIP3   OH231125   6.831   2.810   2.286 -0.0782  0.0872 -0.5099
 3189TIP3    H131126   6.855   2.903   2.281 -0.5197  0.2891  0.6916
 3189TIP3    H231127   6.782   2.793   2.206 -0.3437  1.0056 -0.5511
 3190TIP3   OH231128   6.497   2.583   1.122 -0.3756  0.1651 -0.5236
 3190TIP3    H131129   6.471   2.541   1.204  1.7970 -0.3630 -0.0303
 3190TIP3    H231130   6.546   2.515   1.076  0.6679  1.2570 -1.0529
 3191TIP3   OH231131   2.062   1.682   1.223 -0.2251 -0.2554 -0.3082
 3191TIP3    H131132   2.126   1.752   1.211  1.8288 -1.7075  1.3452
 3191TIP3    H231133   2.051   1.675   1.317 -0.5357 -2.0041 -0.4341
 3192TIP3   OH231134   4.317   3.592   2.040  0.0484  0.2902  0.1714
 3192TIP3    H131135   4.300   3.671   1.989 -2.0523  0.4744  1.0559
 3192TIP3    H231136   4.289   3.615   2.129 -0.0596 -1.2647  0.5598
 3193TIP3   OH231137   0.316   3.282   8.430  0.0010 -0.3526 -0.1341
 3193TIP3    H131138   0.338   3.354   8.488 -1.4083 -1.8450  2.4603
 3193TIP3    H231139   0.400   3.250   8.398  0.7217  1.4812 -0.1706
 3194TIP3   OH231140   5.919   2.001   0.177  0.0854  0.2723  0.0920
 3194TIP3    H131141   5.975   2.009   0.100  2.1958 -0.7170  1.4305
 3194TIP3    H231142   5.922   2.087   0.218 -1.5139  0.9779 -1.1582
 3195TIP3   OH231143   0.154   5.376   1.172  0.0931  0.1936  1.2604
 3195TIP3    H131144   0.208   5.441   1.128  0.1469  0.1925  1.3242
 3195TIP3    H231145   0.213   5.303   1.189 -0.6694 -1.2334 -1.6324
 3196TIP3   OH231146   1.849   0.478   0.523  0.5024 -0.5490 -0.0553
 3196TIP3    H131147   1.838   0.573   0.527 -2.0154 -0.7094 -1.1188
 3196TIP3    H231148   1.932   0.461   0.566  0.0690  1.9485  1.9797
 3197TIP3   OH231149   5.743   3.826   1.497  0.2659  0.5308  0.1740
 3197TIP3    H131150   5.759   3.920   1.488 -0.6407  0.7880  1.0158
 3197TIP3    H231151   5.804   3.798   1.566 -0.3206  0.7614  0.7945
 3198TIP3   OH231152   2.120   4.704   1.927  0.3342  0.6408 -0.2939
 3198TIP3    H131153   2.027   4.698   1.908  0.3836  0.2886 -0.4451
 3198TIP3    H231154   2.145   4.792   1.898  0.3867  0.1519 -1.8178
 3199TIP3   OH231155   2.011   1.666   0.193  0.2769 -0.4742 -0.9896
 3199TIP3    H131156   1.973   1.717   0.265  1.2080 -0.7815 -0.2435
 3199TIP3    H231157   1.990   1.716   0.114  1.2457  1.1561 -0.2759
 3200TIP3   OH231158   5.649   3.615   0.369 -0.2671 -1.2789  0.8880
 3200TIP3    H131159   5.611   3.682   0.313  0.9323 -1.5792 -0.3324
 3200TIP3    H231160   5.648   3.653   0.457  0.4934  0.3754  0.2065
 3201TIP3   OH231161   4.269   2.497   2.674 -0.9224 -0.1342 -0.4261
 3201TIP3    H131162   4.212   2.440   2.726  1.3688  0.4559  3.0478
 3201TIP3    H231163   4.245   2.585   2.701  1.1438  0.1434  0.6095
 3202TIP3   OH231164   0.616   4.977   3.524 -0.0158 -0.6894  0.1606
 3202TIP3    H131165   0.636   4.941   3.610 -1.5233  0.9901  1.2920
 3202TIP3    H231166   0.576   4.905   3.476  0.5297 -1.5599  0.9825
 3203TIP3   OH231167   0.688   6.231   2.840 -0.4503  0.0562 -0.1505
 3203TIP3    H131168   0.763   6.174   2.821 -1.6685 -1.7660  0.1934
 3203TIP3    H231169   0.637   6.181   2.904 -2.6072  0.6517 -1.3492
 3204TIP3   OH231170   6.289   1.569   7.472 -0.6202  0.2437 -0.2899
 3204TIP3    H131171   6.259   1.640   7.415  2.1069  2.2913  0.5962
 3204TIP3    H231172   6.246   1.585   7.556 -2.5747 -1.2147 -0.9384
 3205TIP3   OH231173   2.246   2.037   0.053 -0.2078  0.0070  0.4405
 3205TIP3    H131174   2.333   2.024   0.014 -0.2352  2.0007 -0.3807
 3205TIP3    H231175   2.248   1.984   0.133  2.1659  0.8482  1.0185
 3206TIP3   OH231176   6.618   2.539   1.848  0.0398 -0.4654 -0.0934
 3206TIP3    H131177   6.552   2.608   1.844 -2.2758 -2.4030  1.6551
 3206TIP3    H231178   6.603   2.488   1.768  0.3978 -0.1113 -0.3911
 3207TIP3   OH231179   5.997   3.703   1.636  0.1474  0.3189  0.0059
 3207TIP3    H131180   6.021   3.792   1.609 -0.6428  1.1644  1.9505
 3207TIP3    H231181   6.057   3.682   1.707 -1.5409  0.5025  1.5512
 3208TIP3   OH231182   3.295   4.245   1.333 -0.6442 -0.1553  0.2506
 3208TIP3    H131183   3.344   4.205   1.261  0.9056  0.2977  0.9892
 3208TIP3    H231184   3.204   4.247   1.303 -0.7155 -3.4991 -0.1261
 3209TIP3   OH231185   1.246   6.622   0.440  0.1167  0.2856 -0.2267
 3209TIP3    H131186   1.330   6.623   0.393 -0.2315  0.6022 -0.8523
 3209TIP3    H231187   1.245   6.704   0.488 -1.0030  1.6157 -2.3626
 3210TIP3   OH231188   0.580   5.962   0.760 -0.6048 -0.2647 -0.0728
 3210TIP3    H131189   0.497   5.915   0.754 -0.9301  0.1678  0.8700
 3210TIP3    H231190   0.593   6.000   0.673 -0.7575 -1.3762 -0.5935
 3211TIP3   OH231191   0.442   6.003   7.688 -0.2768 -0.1519 -0.1178
 3211TIP3    H131192   0.396   5.920   7.674  0.0521 -0.2367 -0.7210
 3211TIP3    H231193   0.511   6.004   7.622 -0.6681  0.8931 -0.5382
 3212TIP3   OH231194   2.958   6.288   0.151 -0.4100  0.2149 -0.0561
 3212TIP3    H131195   3.032   6.248   0.105 -1.5232 -0.8620 -0.9834
 3212TIP3    H231196   2.951   6.376   0.112  0.5115  0.4189  0.2153
 3213TIP3   OH231197   1.240   3.242   0.832  0.1742 -0.6548 -0.1305
 3213TIP3    H131198   1.191   3.162   0.851 -0.2046 -0.6170 -0.9102
 3213TIP3    H231199   1.331   3.214   0.830  0.3247 -0.5780  2.1676
 3214TIP3   OH231200   3.658   0.677   1.917  0.1525 -0.4401  0.7156
 3214TIP3    H131201   3.737   0.721   1.947  0.0330  1.7472 -1.7578
 3214TIP3    H231202   3.680   0.641   1.831 -0.6755 -2.6564  1.3588
 3215TIP3   OH231203   0.683   5.997   2.422 -0.1054 -0.4977 -0.0791
 3215TIP3    H131204   0.702   5.966   2.511 -1.7249 -0.5750  0.2761
 3215TIP3    H231205   0.596   6.036   2.429 -0.4050 -0.8189 -1.7106
 3216TIP3   OH231206   2.192   1.541   2.200  0.2498  0.5842  0.0448
 3216TIP3    H131207   2.285   1.523   2.189  0.5806  1.9871  0.3702
 3216TIP3    H231208   2.151   1.454   2.204  1.5279 -0.0489 -0.1380
 3217TIP3   OH231209   4.214   1.074   2.120 -0.2802  0.0727 -0.3006
 3217TIP3    H131210   4.253   0.988   2.136  0.1791  0.4183  0.4817
 3217TIP3    H231211   4.249   1.130   2.189 -1.6305  0.5673  0.0309
 3218TIP3   OH231212   6.579   0.535   6.979 -0.3161 -0.3991 -0.2609
 3218TIP3    H131213   6.494   0.491   6.975 -0.4158 -0.2789  0.4372
 3218TIP3    H231214   6.599   0.556   6.888 -0.5668 -1.3173 -0.5437
 3219TIP3   OH231215   0.591   0.316   0.861  0.6200  0.4574  0.3005
 3219TIP3    H131216   0.527   0.270   0.806 -1.0932  2.3296  0.5919
 3219TIP3    H231217   0.676   0.284   0.831 -0.3928 -1.0872 -1.0918
 3220TIP3   OH231218   2.684   1.227   2.484  0.0258  0.0122  0.5148
 3220TIP3    H131219   2.749   1.232   2.413  0.5433 -1.3051  0.8530
 3220TIP3    H231220   2.604   1.200   2.440  0.5149 -1.5007  0.4632
 3221TIP3   OH231221   5.972   1.562   0.769  0.5232  0.3382 -0.4207
 3221TIP3    H131222   5.888   1.561   0.723  0.9065  0.4490 -1.1452
 3221TIP3    H231223   5.968   1.488   0.829 -0.6564  1.1862  0.6066
 3222TIP3   OH231224   3.259   4.608   1.577 -0.0526 -0.2438  0.1319
 3222TIP3    H131225   3.166   4.585   1.575  0.1722 -1.2405  0.8124
 3222TIP3    H231226   3.303   4.529   1.608  0.9959  0.3185  0.1157
 3223TIP3   OH231227   3.140   1.129   1.848 -0.0176  0.4010  0.7320
 3223TIP3    H131228   3.197   1.148   1.773 -1.4667 -0.5090 -0.6738
 3223TIP3    H231229   3.198   1.098   1.916  1.1448 -0.9751 -0.8112
 3224TIP3   OH231230   5.040   4.861   2.012  0.2622  0.0025  0.3153
 3224TIP3    H131231   5.046   4.800   2.085 -0.4849 -0.9714 -0.4051
 3224TIP3    H231232   5.115   4.839   1.956  0.3294  0.1446  0.3492
 3225TIP3   OH231233   3.014   2.822   1.471 -0.4941  0.2202  0.2490
 3225TIP3    H131234   2.978   2.747   1.518 -1.1875  0.0637 -0.5115
 3225TIP3    H231235   3.074   2.784   1.407 -0.6920  0.3184  0.0006
 3226TIP3   OH231236   4.131   0.962   0.908 -0.1891  0.1794  0.0285
 3226TIP3    H131237   4.049   0.918   0.931  0.2688 -0.6838  0.0500
 3226TIP3    H231238   4.192   0.891   0.891  0.7819  0.8085  0.8065
 3227TIP3   OH231239   4.234   0.971   0.097 -0.3293  0.4020  0.8093
 3227TIP3    H131240   4.147   0.984   0.135 -1.4596  1.6573 -1.9131
 3227TIP3    H231241   4.240   0.878   0.080 -1.8655  0.5086 -0.4538
 3228TIP3   OH231242   6.897   2.616   0.432  0.0426 -0.0837  0.6049
 3228TIP3    H131243   6.872   2.622   0.339  0.3845 -1.4656  0.4065
 3228TIP3    H231244   6.826   2.566   0.472  0.7648 -1.0227  0.7302
 3229TIP3   OH231245   3.918   4.005   0.890 -1.0043 -0.7466 -0.0354
 3229TIP3    H131246   3.864   3.942   0.938 -1.0986  0.4712  1.5442
 3229TIP3    H231247   3.943   4.070   0.955 -0.8980  0.8613 -1.5866
 3230TIP3   OH231248   2.053   6.408   1.976  0.6761 -0.3927 -0.1941
 3230TIP3    H131249   2.029   6.369   2.060 -1.5668  0.0838 -0.5269
 3230TIP3    H231250   2.129   6.462   1.994  0.3902 -0.5167  1.4694
 3231TIP3   OH231251   0.048   5.180   7.924 -0.0586  0.3686  1.0115
 3231TIP3    H131252   0.095   5.247   7.874  0.1780  0.9264  1.9524
 3231TIP3    H231253  -0.043   5.190   7.898  0.4278 -1.7131 -1.9905
 3232TIP3   OH231254   5.142   3.010   0.623 -0.2321  0.0934 -0.1501
 3232TIP3    H131255   5.126   3.004   0.529 -1.3780 -0.1065  0.0459
 3232TIP3    H231256   5.167   3.101   0.637  0.7303 -0.0574 -0.7490
 3233TIP3   OH231257   4.673   0.305   0.115 -0.3021  0.3694  0.3059
 3233TIP3    H131258   4.617   0.275   0.187  0.5528 -1.8900  0.1077
 3233TIP3    H231259   4.631   0.272   0.036 -0.4935  1.6592 -0.1650
 3234TIP3   OH231260   4.433   0.927   0.341  0.0972  0.6592 -0.0569
 3234TIP3    H131261   4.518   0.961   0.368  1.1818 -1.7954 -0.1438
 3234TIP3    H231262   4.443   0.908   0.248 -0.0185 -1.0578  0.2604
 3235TIP3   OH231263   4.159   2.335   7.899  0.0836  0.1730  0.1529
 3235TIP3    H131264   4.207   2.384   7.832 -1.2069  2.0817  0.5426
 3235TIP3    H231265   4.140   2.251   7.857  3.1253 -0.4364 -0.2215
 3236TIP3   OH231266   5.638   6.923   1.144  0.0545 -0.1663 -0.4438
 3236TIP3    H131267   5.616   6.857   1.210  0.7853 -0.8975 -0.9139
 3236TIP3    H231268   5.564   6.923   1.084 -0.3205  0.0417  0.0104
 3237TIP3   OH231269   2.445   6.454   2.724  0.1958  0.2270 -0.0190
 3237TIP3    H131270   2.443   6.379   2.783 -0.6999 -2.0180 -2.6520
 3237TIP3    H231271   2.406   6.525   2.774 -0.4442 -1.5106  2.0993
 3238TIP3   OH231272   0.188   6.869   7.817 -0.1996  0.5123 -0.2341
 3238TIP3    H131273   0.125   6.819   7.869  0.2602  0.9098  0.7394
 3238TIP3    H231274   0.273   6.833   7.843 -0.0174 -0.0465 -1.5592
 3239TIP3   OH231275   4.369   5.419   1.899 -0.0223  0.2272 -0.4261
 3239TIP3    H131276   4.399   5.346   1.954 -1.2421  1.1947  1.6476
 3239TIP3    H231277   4.445   5.476   1.891  0.5862 -0.6469 -1.0025
 3240TIP3   OH231278   0.625   2.120   0.711  0.5477 -0.5377  0.3503
 3240TIP3    H131279   0.698   2.094   0.654  0.2738 -0.7532  0.0936
 3240TIP3    H231280   0.663   2.186   0.769  0.7018  0.1003 -0.4497
 3241TIP3   OH231281   2.611   3.168   2.697  0.0339 -0.1864 -0.4644
 3241TIP3    H131282   2.639   3.213   2.617 -1.6114 -0.0793 -1.0207
 3241TIP3    H231283   2.634   3.076   2.682  1.3840  0.1024 -0.2682
 3242TIP3   OH231284   6.417   3.794   1.978 -0.0396  0.0566 -0.0310
 3242TIP3    H131285   6.475   3.803   1.903 -0.5876  1.0067 -0.3681
 3242TIP3    H231286   6.475   3.781   2.053  0.6370  1.1329 -0.3406
 3243TIP3   OH231287   4.594   5.650   1.543 -0.2869  0.4046  0.4901
 3243TIP3    H131288   4.590   5.573   1.486 -1.0194 -0.8856  2.2074
 3243TIP3    H231289   4.686   5.677   1.540 -0.4511  1.0102 -2.0017
 3244TIP3   OH231290   1.168   2.521   2.423  0.4881 -0.6156  0.0403
 3244TIP3    H131291   1.173   2.568   2.506  0.5805 -1.7423  0.6870
 3244TIP3    H231292   1.184   2.588   2.356  0.8071  0.2241  0.9444
 3245TIP3   OH231293   5.694   3.004   0.390  0.3548 -0.5544 -0.0348
 3245TIP3    H131294   5.731   2.965   0.469  0.8327  0.9257  0.4894
 3245TIP3    H231295   5.674   2.928   0.334  1.9774 -1.5234  0.6233
 3246TIP3   OH231296   2.533   6.726   1.671 -0.3808 -0.2228  0.2324
 3246TIP3    H131297   2.438   6.717   1.671 -0.3476 -0.9043 -1.1298
 3246TIP3    H231298   2.556   6.732   1.578  0.8716  0.4057  0.5614
 3247TIP3   OH231299   3.283   1.336   2.341 -0.7641 -0.1480 -0.2428
 3247TIP3    H131300   3.334   1.274   2.393 -0.9092  0.9303  1.2646
 3247TIP3    H231301   3.219   1.371   2.403 -2.6653 -0.6671 -1.8074
 3248TIP3   OH231302   3.849   5.179   7.901  0.2961 -0.1703 -0.3926
 3248TIP3    H131303   3.904   5.257   7.887  0.9121 -0.8063 -1.7239
 3248TIP3    H231304   3.911   5.110   7.925 -0.1365 -0.4638 -0.1074
 3249TIP3   OH231305   5.566   3.931   8.342  0.1354 -0.1581  0.2681
 3249TIP3    H131306   5.475   3.940   8.372  0.2708  0.6674  0.4731
 3249TIP3    H231307   5.568   3.848   8.295 -1.0840  0.4668 -0.9690
 3250TIP3   OH231308   2.611   4.557   0.312 -0.0575  0.0207 -0.8517
 3250TIP3    H131309   2.557   4.510   0.376 -0.0673  0.7683 -0.2906
 3250TIP3    H231310   2.574   4.534   0.227 -1.3286  0.5814 -0.4745
 3251TIP3   OH231311   1.504   2.844   1.300  0.4538 -0.5148 -0.4118
 3251TIP3    H131312   1.438   2.896   1.253 -1.1779 -3.6505 -1.9117
 3251TIP3    H231313   1.464   2.824   1.384  0.2303 -0.9610 -0.6223
 3252TIP3   OH231314   6.512   4.432   1.641 -0.3181 -0.1283  0.1108
 3252TIP3    H131315   6.529   4.517   1.683 -1.1777 -0.6082  1.4581
 3252TIP3    H231316   6.593   4.414   1.593 -0.0986  1.4340 -0.1881
 3253TIP3   OH231317   1.839   4.226   1.161  0.1647  0.1118 -0.3319
 3253TIP3    H131318   1.828   4.308   1.208 -1.8182  1.2367 -2.5710
 3253TIP3    H231319   1.921   4.190   1.195  1.0229  2.9068  0.8386
 3254TIP3   OH231320   0.996   1.253   1.301  0.3648 -0.1549  0.2095
 3254TIP3    H131321   0.947   1.254   1.384  0.0177 -0.4195  0.0140
 3254TIP3    H231322   1.069   1.312   1.316  0.9611 -1.0812  1.0977
 3255TIP3   OH231323   5.889   4.998   8.315 -0.7330 -0.2717  0.1524
 3255TIP3    H131324   5.803   5.033   8.291 -0.9262  0.9281  2.3480
 3255TIP3    H231325   5.900   5.023   8.407  1.2222 -1.9282  0.4301
 3256TIP3   OH231326   5.982   1.650   8.044 -0.4647 -0.7417 -0.3031
 3256TIP3    H131327   6.067   1.693   8.045  0.2843 -2.1244 -1.4950
 3256TIP3    H231328   5.946   1.669   7.957 -0.8934 -1.0779 -0.2038
 3257TIP3   OH231329   5.265   5.664   8.024 -0.0317  0.8824 -0.6836
 3257TIP3    H131330   5.222   5.592   8.069  0.7768  1.0870  0.4348
 3257TIP3    H231331   5.332   5.623   7.970  1.9519  0.8591  1.6286
 3258TIP3   OH231332   0.339   6.697   0.862 -0.1428  0.1369  0.8370
 3258TIP3    H131333   0.407   6.630   0.864 -2.4964 -2.4178  0.9188
 3258TIP3    H231334   0.259   6.650   0.839 -1.9878  2.9265  1.0177
 3259TIP3   OH231335   2.718   0.246   0.334 -0.6558  0.3361  0.4907
 3259TIP3    H131336   2.744   0.331   0.298  0.4457 -0.6230 -1.1208
 3259TIP3    H231337   2.729   0.185   0.261 -1.0088 -1.2756  1.7323
 3260TIP3   OH231338   0.522   1.146   2.732  0.0395  0.1491  0.0246
 3260TIP3    H131339   0.538   1.073   2.792  0.2304  0.8301  0.8188
 3260TIP3    H231340   0.524   1.224   2.788  0.2275  0.8016 -0.8721
 3261TIP3   OH231341   4.617   4.233   1.045 -0.1950 -0.2648 -0.1925
 3261TIP3    H131342   4.640   4.204   1.133  2.7433 -1.4788 -1.2444
 3261TIP3    H231343   4.558   4.165   1.012 -0.0897 -0.6020  0.3051
 3262TIP3   OH231344   4.055   6.622   2.528  0.5419 -0.1088 -0.3580
 3262TIP3    H131345   4.089   6.533   2.534 -0.2634 -0.4458 -0.6492
 3262TIP3    H231346   4.049   6.652   2.618 -0.0148 -0.6836 -0.1957
 3263TIP3   OH231347   2.667   5.309   1.085 -0.0718 -0.9543  0.2227
 3263TIP3    H131348   2.627   5.239   1.034 -2.4542  0.6645 -0.2895
 3263TIP3    H231349   2.692   5.375   1.021 -1.8523  0.5164  0.9738
 3264TIP3   OH231350   5.838   0.232   3.345 -0.2098  0.9770  0.2755
 3264TIP3    H131351   5.834   0.142   3.377  1.1583  0.3696 -1.1571
 3264TIP3    H231352   5.773   0.279   3.398 -1.9179 -1.1069  0.1654
 3265TIP3   OH231353   4.720   1.607   1.429  0.4759 -0.1593  0.3203
 3265TIP3    H131354   4.624   1.604   1.430  0.5047 -2.0869  0.0560
 3265TIP3    H231355   4.742   1.617   1.336  0.5563  0.5979  0.4090
 3266TIP3   OH231356   0.798   2.811   0.073 -0.0536 -0.1397 -0.3454
 3266TIP3    H131357   0.781   2.718   0.062  0.8404 -0.4274  0.5163
 3266TIP3    H231358   0.819   2.843  -0.014 -0.3105 -0.7465 -0.6345
 3267TIP3   OH231359   1.655   2.049   0.260  0.4821  0.1485  0.0236
 3267TIP3    H131360   1.575   2.022   0.304 -0.4850 -1.8546 -2.6887
 3267TIP3    H231361   1.628   2.069   0.171  2.5048  2.9047 -0.1161
 3268TIP3   OH231362   2.543   6.405   0.430 -0.1158 -0.3344  0.1159
 3268TIP3    H131363   2.591   6.482   0.400  0.0613  0.2172  1.7636
 3268TIP3    H231364   2.592   6.331   0.393  0.3086  0.3011 -0.6224
 3269TIP3   OH231365   4.770   3.846   2.458 -0.1729 -0.3504 -0.1272
 3269TIP3    H131366   4.746   3.806   2.375 -1.7709 -0.0484  0.1667
 3269TIP3    H231367   4.858   3.882   2.443 -0.7784  0.4820 -1.9753
 3270TIP3   OH231368   3.023   3.816   2.323  0.1390  0.2178 -0.2140
 3270TIP3    H131369   3.037   3.808   2.417 -2.4923  0.8068  0.3259
 3270TIP3    H231370   2.994   3.907   2.311  1.5278  0.4922 -1.7853
 3271TIP3   OH231371   1.291   0.024   2.604 -0.1242 -0.3229 -0.2425
 3271TIP3    H131372   1.240   0.025   2.523 -2.6181  0.3063  1.2222
 3271TIP3    H231373   1.232  -0.014   2.669  0.9477  1.2420  1.7655
 3272TIP3   OH231374   0.793   1.517   0.633  0.4562 -0.0266  0.1384
 3272TIP3    H131375   0.755   1.545   0.716 -0.9170  0.1348 -0.5218
 3272TIP3    H231376   0.752   1.432   0.615  1.1440 -0.3129 -0.1220
 3273TIP3   OH231377   2.260   4.926   8.139 -0.0779 -0.1165 -0.5609
 3273TIP3    H131378   2.193   4.921   8.070 -0.7574  0.0388  0.0753
 3273TIP3    H231379   2.315   4.849   8.123 -1.0288 -0.8483 -0.4820
 3274TIP3   OH231380   2.062   6.273   0.199  0.1807  0.0616  0.5550
 3274TIP3    H131381   1.967   6.286   0.194  0.4823  3.3857  1.1447
 3274TIP3    H231382   2.094   6.299   0.113  0.5944 -1.2387  0.2923
 3275TIP3   OH231383   3.906   2.936   0.417 -0.4218 -0.0770 -0.0999
 3275TIP3    H131384   3.866   3.002   0.359 -1.4039 -0.5599  0.0023
 3275TIP3    H231385   3.919   2.860   0.361 -0.0916 -0.0810 -0.0156
 3276TIP3   OH231386   5.887   3.870   1.944  0.0045 -0.5131 -0.2919
 3276TIP3    H131387   5.873   3.907   2.031 -0.6570  2.8709 -1.6396
 3276TIP3    H231388   5.978   3.841   1.944  0.5139  0.9185  1.0938
 3277TIP3   OH231389   0.440   4.749   0.667  0.4183  0.0342  0.0724
 3277TIP3    H131390   0.469   4.702   0.588  0.6347 -1.1384  0.8208
 3277TIP3    H231391   0.510   4.812   0.684  0.3354  0.3470 -0.7074
 3278TIP3   OH231392   5.142   3.373   2.395  0.1915 -0.5762 -0.0171
 3278TIP3    H131393   5.223   3.333   2.425  1.1038  1.0492 -0.2051
 3278TIP3    H231394   5.147   3.371   2.299 -0.5286 -1.4893 -0.0472
 3279TIP3   OH231395   1.993   2.089   0.032  0.3189 -0.4268 -0.3351
 3279TIP3    H131396   1.984   2.087  -0.063  1.2951 -1.8517 -0.4290
 3279TIP3    H231397   2.087   2.078   0.048  0.0153 -1.6428  0.8131
 3280TIP3   OH231398   5.950   5.795   0.142 -0.8020  0.4438  0.0152
 3280TIP3    H131399   5.944   5.732   0.214 -2.6066  0.2166 -0.2690
 3280TIP3    H231400   5.858   5.812   0.119 -0.2696  0.5836 -2.1631
 3281TIP3   OH231401   3.658   2.417   1.523 -0.1244  0.3006  0.4152
 3281TIP3    H131402   3.613   2.339   1.554 -1.2596  0.1582 -1.4183
 3281TIP3    H231403   3.592   2.486   1.527 -0.1224  0.4190 -0.9511
 3282TIP3   OH231404   4.570   5.066   2.924 -0.0048 -0.1781 -0.2465
 3282TIP3    H131405   4.568   5.027   2.837  0.3485 -2.0003  0.5119
 3282TIP3    H231406   4.640   5.019   2.970  1.8145  2.7234  0.1513
 3283TIP3   OH231407   2.051   1.606   1.965 -0.0038 -0.5595  0.5053
 3283TIP3    H131408   2.074   1.601   2.058 -0.7118  1.1689  0.8071
 3283TIP3    H231409   2.135   1.611   1.919  0.3581 -1.7452  1.0043
 3284TIP3   OH231410   3.672   0.949   8.325 -0.1508  0.1258 -0.9541
 3284TIP3    H131411   3.631   0.884   8.267 -3.6317  0.6601  0.6325
 3284TIP3    H231412   3.716   0.897   8.392 -1.1699 -0.6211 -0.8300
 3285TIP3   OH231413   5.653   2.761   8.108 -0.8444  0.3610 -0.0875
 3285TIP3    H131414   5.743   2.789   8.094  0.5437 -2.2492  2.5512
 3285TIP3    H231415   5.640   2.690   8.045 -0.9109  0.4866 -0.2145
 3286TIP3   OH231416   6.263   3.305   7.801 -0.0061 -0.3794  0.1084
 3286TIP3    H131417   6.271   3.322   7.707 -1.4611  0.1359  0.0573
 3286TIP3    H231418   6.196   3.238   7.807 -1.8653  1.4523  0.8845
 3287TIP3   OH231419   2.212   2.090   2.701 -0.2054 -0.5071  0.4636
 3287TIP3    H131420   2.166   2.158   2.652  2.1667  0.1810 -0.9630
 3287TIP3    H231421   2.158   2.077   2.780 -2.5819  0.4519 -0.8879
 3288TIP3   OH231422   3.358   1.993   2.273  0.4570 -0.6118  0.5499
 3288TIP3    H131423   3.311   2.051   2.334 -0.9804 -0.5118 -0.5796
 3288TIP3    H231424   3.332   1.905   2.300  0.8690 -0.6320  0.8871
 3289TIP3   OH231425   5.092   0.226   2.044 -0.8823  0.6524 -0.5098
 3289TIP3    H131426   5.085   0.240   1.949 -0.0026  0.7326 -0.5785
 3289TIP3    H231427   5.186   0.210   2.058 -1.3603 -2.1942 -0.0213
 3290TIP3   OH231428   5.789   3.208   2.500  0.6101 -0.2740 -0.9613
 3290TIP3    H131429   5.814   3.247   2.584  2.4233 -1.0171 -1.1008
 3290TIP3    H231430   5.770   3.116   2.522 -0.0515 -0.1955 -1.1933
 3291TIP3   OH231431   2.707   3.961   3.076 -0.2062 -0.1773  0.5375
 3291TIP3    H131432   2.638   3.910   3.119 -0.3484 -0.9176 -0.5276
 3291TIP3    H231433   2.760   3.895   3.032 -0.8294  0.6196 -1.5037
 3292TIP3   OH231434   3.178   3.605   2.221  0.3878  0.2535  0.0444
 3292TIP3    H131435   3.120   3.548   2.273  0.0625  1.1374  0.6646
 3292TIP3    H231436   3.126   3.683   2.204  0.9631  0.5277 -0.4919
 3293TIP3   OH231437   2.522   4.776   1.957 -0.0424  0.7350  0.4710
 3293TIP3    H131438   2.580   4.836   1.911 -1.2284  1.6891  0.1759
 3293TIP3    H231439   2.478   4.727   1.888 -0.4278  0.8318  0.6451
 3294TIP3   OH231440   0.499   5.151   8.254  0.0915  0.0748  0.7481
 3294TIP3    H131441   0.552   5.088   8.207 -0.4417 -0.6682  1.1248
 3294TIP3    H231442   0.511   5.233   8.206  0.1231 -0.4947 -0.2513
 3295TIP3   OH231443   2.490   3.856   0.442 -0.0079 -0.6949  0.2546
 3295TIP3    H131444   2.523   3.880   0.355  3.6674 -0.6873  1.4878
 3295TIP3    H231445   2.439   3.932   0.470  0.1118 -0.0248 -1.2334
 3296TIP3   OH231446   2.441   4.303   8.248  0.1378  0.7009  0.0055
 3296TIP3    H131447   2.489   4.374   8.205 -0.4916  1.7336  0.9599
 3296TIP3    H231448   2.351   4.336   8.257 -0.3907 -0.5687 -0.3156
 3297TIP3   OH231449   6.285   4.574   8.092  0.1041 -0.2644  0.1450
 3297TIP3    H131450   6.196   4.609   8.088  0.1880  0.2172  1.8459
 3297TIP3    H231451   6.338   4.646   8.125  1.0092 -0.7860 -0.1292
 3298TIP3   OH231452   5.886   1.916   8.306 -0.2639  0.7204  0.2124
 3298TIP3    H131453   5.910   1.964   8.227 -1.9299  1.7106  0.2633
 3298TIP3    H231454   5.792   1.901   8.298 -0.0273 -1.3991  0.8453
 3299TIP3   OH231455   2.994   5.002   1.689 -0.8526 -0.2294 -0.1001
 3299TIP3    H131456   3.013   5.085   1.646  0.0031 -1.0264 -1.3425
 3299TIP3    H231457   2.961   5.026   1.775  0.6545  1.3683  0.0851
 3300TIP3   OH231458   4.352   3.154   2.037  0.4480  0.8319 -0.2312
 3300TIP3    H131459   4.366   3.070   1.993 -0.3688  1.2971 -1.4275
 3300TIP3    H231460   4.394   3.143   2.122 -0.0843 -0.9732 -0.1540
 3301TIP3   OH231461   0.854   0.327   1.231  0.5247 -0.5577 -0.1287
 3301TIP3    H131462   0.768   0.291   1.210  0.5121 -0.2946 -0.5461
 3301TIP3    H231463   0.913   0.292   1.165  0.6593 -0.4111 -0.0901
 3302TIP3   OH231464   2.106   0.245   7.483  0.2432  0.1682 -0.2198
 3302TIP3    H131465   2.036   0.269   7.422  0.1248 -0.8748 -0.5156
 3302TIP3    H231466   2.092   0.300   7.559 -1.8265 -1.0488  0.3455
 3303TIP3   OH231467   0.002   6.392   7.924  0.1427  0.6456 -0.2492
 3303TIP3    H131468  -0.087   6.357   7.938  0.5023 -1.0652 -1.7957
 3303TIP3    H231469   0.039   6.397   8.012 -1.3430  1.0235  0.3959
 3304TIP3   OH231470   1.865   6.709   1.428 -0.1190 -0.3609 -0.4813
 3304TIP3    H131471   1.950   6.691   1.390  0.2165 -0.8692  0.4775
 3304TIP3    H231472   1.878   6.788   1.481 -0.4126 -0.0465 -0.8717
 3305TIP3   OH231473   2.928   4.097   0.494 -0.3579  0.2587 -0.0007
 3305TIP3    H131474   2.885   4.020   0.532 -0.6354  1.8690  3.3628
 3305TIP3    H231475   2.856   4.151   0.462 -0.3672  0.2911  0.0748
 3306TIP3   OH231476   3.454   3.699   2.274 -0.3951  0.3113  0.5595
 3306TIP3    H131477   3.526   3.637   2.289  0.4674  1.6486  2.2599
 3306TIP3    H231478   3.375   3.644   2.273  0.4194 -0.9195  1.0988
 3307TIP3   OH231479   0.758   0.342   8.159  0.3987 -0.4188 -0.1323
 3307TIP3    H131480   0.731   0.398   8.086  1.8863  2.2466  1.2080
 3307TIP3    H231481   0.748   0.253   8.126 -2.6181  0.5324 -2.2312
 3308TIP3   OH231482   3.042   5.229   3.438  0.1395  0.0148 -0.7671
 3308TIP3    H131483   3.096   5.157   3.406 -2.0443 -2.6936  1.1580
 3308TIP3    H231484   3.074   5.244   3.528 -0.3992  0.3853 -0.6347
 3309TIP3   OH231485   4.418   1.708   2.550 -0.5735 -0.1170  0.2088
 3309TIP3    H131486   4.443   1.768   2.621  0.1917  0.4892 -0.5403
 3309TIP3    H231487   4.502   1.676   2.516 -0.8719  0.3190 -1.0063
 3310TIP3   OH231488   0.219   5.219   7.626  0.1684  0.5231 -1.0074
 3310TIP3    H131489   0.199   5.215   7.532  1.8449  0.8290 -1.4207
 3310TIP3    H231490   0.299   5.167   7.635 -1.0470 -1.1869  0.6247
 3311TIP3   OH231491   5.473   4.604   7.890 -0.2663  0.3373  0.1886
 3311TIP3    H131492   5.416   4.681   7.886 -0.1069  0.4548  0.1477
 3311TIP3    H231493   5.465   4.563   7.804  0.7972  1.1449 -0.3149
 3312TIP3   OH231494   2.496   2.918   7.664 -0.5383 -0.4306  0.2276
 3312TIP3    H131495   2.567   2.969   7.625  1.0549 -0.9597  2.2943
 3312TIP3    H231496   2.430   2.983   7.688 -1.7019 -0.0819 -3.2946
 3313TIP3   OH231497   6.379   4.962   2.297  0.1351  0.0803  0.2242
 3313TIP3    H131498   6.378   4.875   2.337 -1.2812 -0.5211 -1.0060
 3313TIP3    H231499   6.292   4.997   2.316  0.7108  1.2630  0.7372
 3314TIP3   OH231500   0.468   4.128   1.636 -0.2909 -0.4214  0.1663
 3314TIP3    H131501   0.555   4.149   1.603 -0.7962 -0.1986 -1.0666
 3314TIP3    H231502   0.408   4.173   1.577 -1.3325 -3.0924 -0.9736
 3315TIP3   OH231503   2.604   4.952   2.945 -0.1795 -0.2019  0.1246
 3315TIP3    H131504   2.523   4.956   2.895 -1.5521 -0.4305  2.2386
 3315TIP3    H231505   2.670   4.990   2.886 -1.5402 -1.0809 -2.0883
 3316TIP3   OH231506   3.510   1.193   8.099  0.3660 -0.0678  0.2186
 3316TIP3    H131507   3.455   1.250   8.045 -2.3133 -3.0800 -0.4985
 3316TIP3    H231508   3.521   1.114   8.046  2.1494 -1.0911  2.0020
 3317TIP3   OH231509   5.066   1.417   7.642 -0.5127  0.4815 -0.0842
 3317TIP3    H131510   5.106   1.457   7.719  1.4128  0.4643 -1.0018
 3317TIP3    H231511   5.095   1.325   7.645  1.2514  0.9083 -1.7773
 3318TIP3   OH231512   6.718   2.135   1.807  0.0011 -0.1504 -0.9587
 3318TIP3    H131513   6.741   2.042   1.810 -1.3129 -0.5428 -1.8275
 3318TIP3    H231514   6.663   2.143   1.729 -2.6642  0.6884  0.8633
 3319TIP3   OH231515   0.336   6.618   1.619 -0.4543  0.0534 -0.2860
 3319TIP3    H131516   0.263   6.564   1.651 -0.0203 -0.9988 -0.9889
 3319TIP3    H231517   0.302   6.662   1.542 -0.8216  0.8316  0.3100
 3320TIP3   OH231518   2.484   3.636   7.363  0.5343 -0.7067  0.0773
 3320TIP3    H131519   2.403   3.674   7.330  0.7855  0.9151  1.2201
 3320TIP3    H231520   2.456   3.560   7.415 -0.0664 -1.3502 -1.1246
 3321TIP3   OH231521   5.746   1.667   1.996  0.1276  0.2784  0.0129
 3321TIP3    H131522   5.682   1.613   2.042  0.3126  1.0112  1.1732
 3321TIP3    H231523   5.784   1.722   2.064  1.6799  0.1737 -0.7283
 3322TIP3   OH231524   4.814   3.914   7.287  0.1257 -0.0179 -0.0980
 3322TIP3    H131525   4.889   3.970   7.308 -0.3216  0.4207  0.3391
 3322TIP3    H231526   4.824   3.839   7.345  0.0173  0.2249  0.2375
 3323TIP3   OH231527   5.392   2.528   0.905  0.0340  0.1044 -0.3595
 3323TIP3    H131528   5.348   2.476   0.838 -0.1204  0.2181 -0.3440
 3323TIP3    H231529   5.338   2.606   0.916  0.6578  0.6312 -0.9181
 3324TIP3   OH231530   1.395   0.177   8.292 -0.0389  0.0653 -0.1800
 3324TIP3    H131531   1.365   0.222   8.212 -1.0161 -1.0025 -0.4500
 3324TIP3    H231532   1.457   0.111   8.261 -0.4956 -0.4187 -0.0755
 3325TIP3   OH231533   3.306   3.467   8.011  0.9737 -0.4225  0.4097
 3325TIP3    H131534   3.368   3.395   8.002 -0.7011 -1.9113  0.4369
 3325TIP3    H231535   3.222   3.432   7.982  0.4602  2.1312 -1.5584
 3326TIP3   OH231536   2.644   0.417   2.357  0.4948  0.0834 -0.1883
 3326TIP3    H131537   2.624   0.343   2.414 -0.0232  1.0384  0.9008
 3326TIP3    H231538   2.578   0.412   2.287  1.7682 -1.7031 -1.3698
 3327TIP3   OH231539   2.885   1.594   1.972 -0.2397 -0.0383 -0.0940
 3327TIP3    H131540   2.876   1.614   2.065  1.7095 -0.3151  0.1920
 3327TIP3    H231541   2.951   1.525   1.968  0.4373  0.6443 -1.7380
 3328TIP3   OH231542   1.768   2.276   1.180 -0.2539 -0.1810  0.0649
 3328TIP3    H131543   1.829   2.234   1.241  0.6245  0.6033 -0.2655
 3328TIP3    H231544   1.802   2.256   1.093 -1.4951 -1.2814 -0.2024
 3329TIP3   OH231545   2.740   2.350   2.198 -0.4560  0.2641 -1.1506
 3329TIP3    H131546   2.754   2.259   2.225 -1.1593 -0.1714 -2.1774
 3329TIP3    H231547   2.828   2.387   2.191 -0.2115  0.4915  1.8297
 3330TIP3   OH231548   3.579   6.764   1.201  0.3504 -0.2098 -0.0058
 3330TIP3    H131549   3.629   6.692   1.239  0.1802  0.4952  1.6389
 3330TIP3    H231550   3.561   6.823   1.275 -0.7765  0.7870 -1.0211
 3331TIP3   OH231551   3.738   6.906   1.017 -0.3130 -0.0291  0.5696
 3331TIP3    H131552   3.697   6.862   1.091  2.2369 -0.6513  1.7003
 3331TIP3    H231553   3.735   6.842   0.946 -1.2839 -0.0414  0.6116
 3332TIP3   OH231554   6.217   6.675   8.431 -0.0738  0.1838  0.0584
 3332TIP3    H131555   6.191   6.761   8.464  2.0000  1.1437 -0.6222
 3332TIP3    H231556   6.285   6.694   8.366  0.7547 -1.9824  0.2041
 3333TIP3   OH231557   4.312   6.017   0.956  0.1150 -0.2564  0.5807
 3333TIP3    H131558   4.374   6.085   0.930 -0.2996  0.2305  0.8361
 3333TIP3    H231559   4.346   5.936   0.917  1.2353 -0.1100  1.2117
 3334TIP3   OH231560   1.940   1.449   2.833 -0.0385  0.3683  0.4875
 3334TIP3    H131561   1.883   1.522   2.809  2.9214  2.2334 -1.5635
 3334TIP3    H231562   1.963   1.466   2.924 -0.6103  1.0984  0.5134
 3335TIP3   OH231563   4.592   0.644   3.354  0.2132  0.1290  0.0858
 3335TIP3    H131564   4.536   0.615   3.426  2.2919 -3.7261  0.4324
 3335TIP3    H231565   4.607   0.737   3.370  0.0567 -0.3939  4.2927
 3336TIP3   OH231566   6.005   2.078   7.510 -0.0190 -0.1070  0.0801
 3336TIP3    H131567   5.977   2.011   7.448  2.3280  0.1190 -1.2947
 3336TIP3    H231568   6.002   2.034   7.595 -0.3284 -1.3551 -0.5573
 3337TIP3   OH231569   5.828   5.566   2.093  0.6716 -0.3145  0.5880
 3337TIP3    H131570   5.839   5.566   1.998  0.3979 -2.2117  0.5074
 3337TIP3    H231571   5.901   5.618   2.126  2.4029 -1.8869 -0.5475
 3338TIP3   OH231572   0.783   3.354   0.427 -0.0702  0.0826 -0.1882
 3338TIP3    H131573   0.693   3.328   0.447  0.4283 -0.0803  2.0358
 3338TIP3    H231574   0.777   3.449   0.413 -0.5836  0.0829 -0.0002
 3339TIP3   OH231575   1.383   2.796   8.006 -0.0131 -0.0088  0.1500
 3339TIP3    H131576   1.343   2.826   8.088 -0.2550  0.9394 -0.2986
 3339TIP3    H231577   1.383   2.873   7.950  0.7821 -0.4755 -0.5085
 3340TIP3   OH231578   2.618   4.142   2.208  0.1997 -0.1002  0.2534
 3340TIP3    H131579   2.567   4.165   2.131 -0.6396 -0.7410  0.6006
 3340TIP3    H231580   2.635   4.048   2.199 -1.8926 -0.7282  1.9309
 3341TIP3   OH231581   0.875   3.707   1.256  0.9085 -0.1105 -0.0625
 3341TIP3    H131582   0.843   3.788   1.216  0.4741 -0.7182 -1.0053
 3341TIP3    H231583   0.959   3.730   1.295  1.7157  0.4025 -1.9620
 3342TIP3   OH231584   5.335   2.695   7.381 -0.1641  0.0926  0.2941
 3342TIP3    H131585   5.394   2.637   7.334 -0.1095  1.8961 -2.0145
 3342TIP3    H231586   5.251   2.650   7.379  0.1086 -0.4031 -0.4664
 3343TIP3   OH231587   0.405   2.348   7.342  0.1995 -0.5259  0.6080
 3343TIP3    H131588   0.343   2.362   7.413 -0.5094 -0.8536  0.0659
 3343TIP3    H231589   0.372   2.403   7.271  0.3790 -0.8995  0.2325
 3344TIP3   OH231590   2.127   4.992   1.975  0.1778 -0.7176 -0.2917
 3344TIP3    H131591   2.125   4.972   2.068  1.1714  1.2554  0.1922
 3344TIP3    H231592   2.051   5.049   1.961  0.2605 -0.6849 -0.6147
 3345TIP3   OH231593   1.535   1.593   3.387 -0.0879 -0.0667 -0.5397
 3345TIP3    H131594   1.604   1.568   3.449 -1.3359 -1.3415  0.3998
 3345TIP3    H231595   1.525   1.516   3.331 -1.8343 -0.5603  0.3865
 3346TIP3   OH231596   6.658   2.305   7.379 -0.1519  0.2195 -0.3574
 3346TIP3    H131597   6.596   2.366   7.340 -0.1135 -0.6327 -1.8346
 3346TIP3    H231598   6.670   2.237   7.312  0.6777 -0.7930  0.7752
 3347TIP3   OH231599   4.011   2.910   8.079  0.4753  0.3255  0.7640
 3347TIP3    H131600   4.021   2.823   8.118 -0.3198 -0.0524  0.1397
 3347TIP3    H231601   4.005   2.969   8.155  0.5145 -0.2111  1.1932
 3348TIP3   OH231602   2.696   3.229   1.754  0.2158 -0.6046  0.3236
 3348TIP3    H131603   2.676   3.320   1.732 -0.6693 -0.8167  0.2265
 3348TIP3    H231604   2.783   3.232   1.793 -0.4671  0.5029  1.8538
 3349TIP3   OH231605   2.951   2.058   1.944  0.5460  0.1525 -0.6294
 3349TIP3    H131606   3.034   2.012   1.931 -0.4165 -1.6251 -0.9590
 3349TIP3    H231607   2.969   2.149   1.921  2.2097 -0.3377 -1.4038
 3350TIP3   OH231608   6.955   6.525   0.981 -0.2173 -0.1803 -0.2050
 3350TIP3    H131609   6.917   6.439   0.963 -0.1987 -0.5370  1.3232
 3350TIP3    H231610   6.881   6.577   1.015 -0.0141  0.0930 -0.1761
 3351TIP3   OH231611   4.425   2.203   8.146  0.4379  0.3092  0.4293
 3351TIP3    H131612   4.474   2.285   8.152  0.4110  0.3120  0.6326
 3351TIP3    H231613   4.477   2.147   8.089  0.3746  0.5262  0.1554
 3352TIP3   OH231614   3.701   2.238   1.818  0.4781  0.2203  0.1036
 3352TIP3    H131615   3.780   2.292   1.813  1.1450 -0.6334  0.9514
 3352TIP3    H231616   3.633   2.290   1.776  1.3623  1.2190 -0.1244
 3353TIP3   OH231617   6.593   5.181   0.807  0.2455  0.3051 -0.6259
 3353TIP3    H131618   6.590   5.098   0.760 -0.3298  1.0952 -2.0231
 3353TIP3    H231619   6.556   5.245   0.747 -1.8246  1.1480  1.3825
 3354TIP3   OH231620   4.334   5.649   0.003  1.0578  0.0938  0.1959
 3354TIP3    H131621   4.258   5.706  -0.003  0.1636 -1.0612  0.2867
 3354TIP3    H231622   4.382   5.681   0.080  1.0510  1.2663 -0.2767
 3355TIP3   OH231623   3.253   2.610   7.786 -0.1840 -0.1788 -0.2715
 3355TIP3    H131624   3.243   2.686   7.728 -2.7519  0.5594  0.9613
 3355TIP3    H231625   3.187   2.548   7.755 -0.8009 -0.2472  1.1109
 3356TIP3   OH231626   5.500   4.983   0.217  0.0565 -0.2516  0.3399
 3356TIP3    H131627   5.530   5.020   0.135  1.9512 -0.0789  1.0404
 3356TIP3    H231628   5.440   5.048   0.253 -0.8601 -0.3730 -0.9211
 3357TIP3   OH231629   0.125   2.319   2.141  0.1582  0.4598  0.1989
 3357TIP3    H131630   0.187   2.379   2.100  0.7593  0.9573  1.7765
 3357TIP3    H231631   0.049   2.320   2.083  0.9944  1.0720 -0.9254
 3358TIP3   OH231632   5.823   4.578   2.235 -0.2751 -0.3154 -0.2702
 3358TIP3    H131633   5.739   4.552   2.197 -0.0778 -1.4053  0.0148
 3358TIP3    H231634   5.801   4.604   2.325 -1.0226  3.8941 -1.4572
 3359TIP3   OH231635   3.411   1.728   8.333  0.0437  0.5282 -0.1757
 3359TIP3    H131636   3.411   1.727   8.237  2.5503 -0.2201 -0.2413
 3359TIP3    H231637   3.499   1.758   8.357 -0.8807  1.7790  1.9255
 3360TIP3   OH231638   6.571   3.587   2.872 -0.2156 -0.2986 -0.0842
 3360TIP3    H131639   6.630   3.662   2.862  0.0705 -0.6735 -1.3862
 3360TIP3    H231640   6.620   3.525   2.925  1.1470 -1.1461 -2.2099
 3361TIP3   OH231641   4.607   0.587   0.833  0.0152  0.0282 -0.5302
 3361TIP3    H131642   4.558   0.547   0.762  1.1017  0.1679 -1.3777
 3361TIP3    H231643   4.695   0.550   0.826 -0.1155 -0.8073  1.4265
 3362TIP3   OH231644   2.605   6.724   7.910  0.0379 -0.1704 -0.5543
 3362TIP3    H131645   2.554   6.798   7.878 -0.2502 -0.4353 -0.7156
 3362TIP3    H231646   2.640   6.682   7.831 -0.7626 -0.8877 -0.5503
 3363TIP3   OH231647   2.148   4.500   1.731 -0.6036 -0.2356  0.1197
 3363TIP3    H131648   2.132   4.559   1.804  1.8363  0.1940  0.4071
 3363TIP3    H231649   2.141   4.412   1.769 -2.0033 -0.0967  0.2147
 3364TIP3   OH231650   0.557   5.480   0.155 -0.0682  0.1297 -0.1022
 3364TIP3    H131651   0.513   5.524   0.082 -0.3029 -1.8540 -1.2413
 3364TIP3    H231652   0.596   5.402   0.115  0.3081 -0.7066  1.8004
 3365TIP3   OH231653   0.559   0.570   2.062  0.4789  0.0620  0.2020
 3365TIP3    H131654   0.537   0.512   2.134  0.6722  1.0977  1.1301
 3365TIP3    H231655   0.499   0.645   2.073  2.0060  1.2620  0.6458
 3366TIP3   OH231656   5.649   6.016   8.078 -0.5563  0.1250  0.8163
 3366TIP3    H131657   5.658   6.046   8.169 -0.6784  1.3326  0.4558
 3366TIP3    H231658   5.690   6.086   8.027 -2.5179  0.5764 -0.1976
 3367TIP3   OH231659   2.810   0.624   0.999 -0.0143  0.2727  0.4185
 3367TIP3    H131660   2.786   0.659   0.913  0.4695 -0.1081  0.1249
 3367TIP3    H231661   2.847   0.538   0.980  3.0506  1.4046  0.6707
 3368TIP3   OH231662   2.655   2.350   0.879 -0.2639 -0.2611 -0.0601
 3368TIP3    H131663   2.640   2.388   0.965 -1.7186  1.3247 -0.9421
 3368TIP3    H231664   2.643   2.256   0.891 -0.1051 -0.1076  1.5159
 3369TIP3   OH231665   2.952   4.026   2.129 -0.2211  0.2501 -0.3066
 3369TIP3    H131666   3.003   3.956   2.089  0.2035  0.2711  0.1958
 3369TIP3    H231667   2.866   3.986   2.147 -0.5889  0.3830 -1.6849
 3370TIP3   OH231668   3.642   0.824   2.804 -0.4062 -0.7843 -0.4822
 3370TIP3    H131669   3.732   0.791   2.802  0.0642  0.3871  0.0662
 3370TIP3    H231670   3.604   0.795   2.722  0.4078 -1.4779 -0.6341
 3371TIP3   OH231671   5.439   6.835   1.327 -0.2223  0.1067 -0.0315
 3371TIP3    H131672   5.403   6.750   1.301  0.2041 -0.1402  0.1854
 3371TIP3    H231673   5.472   6.822   1.416 -0.0434  0.4656 -0.0409
 3372TIP3   OH231674   5.773   0.958   1.750 -0.1538 -0.5298 -0.1041
 3372TIP3    H131675   5.762   1.038   1.698 -0.0653 -0.7252 -0.4273
 3372TIP3    H231676   5.793   0.990   1.838 -0.3071 -0.1934 -0.1875
 3373TIP3   OH231677   3.155   0.129   0.590 -0.2326  0.1312 -0.3311
 3373TIP3    H131678   3.229   0.161   0.642  0.2613 -0.3987 -0.6821
 3373TIP3    H231679   3.146   0.037   0.616 -0.7282  0.1727 -0.3416
 3374TIP3   OH231680   4.165   1.376   0.829  0.1840 -0.1317 -0.1955
 3374TIP3    H131681   4.188   1.284   0.815 -0.5107 -0.8268  2.5955
 3374TIP3    H231682   4.069   1.376   0.838  0.0140  1.1250 -1.5856
 3375TIP3   OH231683   1.289   4.063   2.518 -0.1916  0.4822  0.3871
 3375TIP3    H131684   1.254   3.989   2.566 -1.6474  0.6659 -0.3517
 3375TIP3    H231685   1.377   4.076   2.555 -0.8674 -0.0065  2.2601
 3376TIP3   OH231686   0.609   5.464   7.649 -0.5401 -0.5352  0.2846
 3376TIP3    H131687   0.651   5.523   7.586 -0.6567 -0.4009  0.3315
 3376TIP3    H231688   0.603   5.515   7.729 -0.0455 -0.8398  0.5159
 3377TIP3   OH231689   3.376   5.080   0.730 -0.5129  0.8224 -0.3596
 3377TIP3    H131690   3.408   5.129   0.806  0.0702  0.0864 -0.1260
 3377TIP3    H231691   3.295   5.039   0.760  0.1161 -0.1024  0.1242
 3378TIP3   OH231692   4.304   5.759   1.363  0.3228 -0.2132  0.1624
 3378TIP3    H131693   4.324   5.840   1.316  0.3081  0.4580  1.2743
 3378TIP3    H231694   4.210   5.763   1.380  0.4055 -0.2214  0.6458
 3379TIP3   OH231695   6.992   0.024   1.698 -0.3500  0.0399  0.0377
 3379TIP3    H131696   6.985   0.108   1.743 -1.0959 -0.7027  1.3644
 3379TIP3    H231697   7.086   0.011   1.684 -0.0257 -0.0005  2.0084
 3380TIP3   OH231698   5.303   2.012   1.905  1.0151 -0.1475 -0.2607
 3380TIP3    H131699   5.273   2.103   1.916 -0.1258 -0.1637 -2.6300
 3380TIP3    H231700   5.246   1.961   1.961 -0.2063  0.3596 -0.9949
 3381TIP3   OH231701   0.752   2.127   2.446  0.2216  0.7491 -0.3890
 3381TIP3    H131702   0.816   2.079   2.393  0.7650  0.1989  0.7381
 3381TIP3    H231703   0.803   2.166   2.517 -0.4798  1.5471 -0.3096
 3382TIP3   OH231704   3.634   2.529   2.701 -0.0056 -0.0177 -0.1977
 3382TIP3    H131705   3.666   2.441   2.718 -0.6880 -0.5826 -1.6733
 3382TIP3    H231706   3.539   2.523   2.711 -0.1313  0.3495 -1.0359
 3383TIP3   OH231707   6.225   2.557   2.990 -0.2835  0.5292 -0.2649
 3383TIP3    H131708   6.268   2.567   3.075 -0.4978  0.7933 -0.1866
 3383TIP3    H231709   6.285   2.597   2.927 -0.1117  0.3085 -0.2446
 3384TIP3   OH231710   1.425   4.542   0.596  0.5571 -0.0838  0.5886
 3384TIP3    H131711   1.497   4.497   0.638  0.3786 -1.4251 -0.4812
 3384TIP3    H231712   1.464   4.622   0.560  1.1431  0.0059  1.3886
 3385TIP3   OH231713   5.582   3.982   0.774 -0.6695 -0.0337 -0.0567
 3385TIP3    H131714   5.580   3.991   0.870 -0.3538  0.1258 -0.0650
 3385TIP3    H231715   5.615   4.066   0.743 -0.2583 -0.2746 -0.2755
 3386TIP3   OH231716   1.861   0.773   0.520 -0.6471  0.4138 -0.8510
 3386TIP3    H131717   1.812   0.855   0.528  0.5753  1.0471  0.9198
 3386TIP3    H231718   1.948   0.799   0.490 -0.7464 -0.4474 -1.9337
 3387TIP3   OH231719   0.693   3.634   2.699 -0.4414  0.4501 -0.0293
 3387TIP3    H131720   0.777   3.610   2.737 -0.9467 -0.3886  0.5783
 3387TIP3    H231721   0.698   3.605   2.608  0.3513  1.4514 -0.3201
 3388TIP3   OH231722   5.319   0.329   7.732  0.2603  0.8040  0.1965
 3388TIP3    H131723   5.392   0.316   7.671  0.1836 -0.4550  0.3455
 3388TIP3    H231724   5.289   0.240   7.753 -0.6201  1.2673  0.9781
 3389TIP3   OH231725   0.156   0.669   2.506 -0.2614  0.6888 -0.0520
 3389TIP3    H131726   0.078   0.641   2.554  0.6179  0.4924  1.2894
 3389TIP3    H231727   0.224   0.608   2.533  0.1029  0.0602 -2.1752
 3390TIP3   OH231728   0.561   3.139   0.177  0.0953 -0.4863 -0.3616
 3390TIP3    H131729   0.559   3.202   0.249  0.2990  0.0261 -0.7969
 3390TIP3    H231730   0.641   3.160   0.129 -1.7405  1.5551 -2.8200
 3391TIP3   OH231731   3.231   1.629   0.642 -0.5612 -0.3782  0.2060
 3391TIP3    H131732   3.235   1.537   0.614 -2.2547 -0.2363 -0.6445
 3391TIP3    H231733   3.149   1.661   0.606 -0.2314  1.3571  0.9062
 3392TIP3   OH231734   4.413   5.967   8.317  0.3838 -0.0821  0.2983
 3392TIP3    H131735   4.502   6.002   8.314 -0.0039  0.9440  0.4240
 3392TIP3    H231736   4.411   5.900   8.249  1.6949 -1.2133  1.3101
 3393TIP3   OH231737   6.743   6.295   3.472  0.0231 -0.4720  0.1067
 3393TIP3    H131738   6.817   6.235   3.467  1.2957  1.0826 -0.6600
 3393TIP3    H231739   6.672   6.243   3.510  1.2144 -2.2773 -0.0337
 3394TIP3   OH231740   4.674   1.303   1.032 -0.5445 -0.0416 -0.3242
 3394TIP3    H131741   4.763   1.315   1.000 -0.6407  2.4689  0.0881
 3394TIP3    H231742   4.684   1.294   1.127 -0.7727  3.6751  0.2128
 3395TIP3   OH231743   1.754   4.328   1.633 -0.0414  0.6308 -0.3278
 3395TIP3    H131744   1.675   4.303   1.682  0.7183  0.2823  0.7625
 3395TIP3    H231745   1.741   4.291   1.546 -1.5449  1.4629 -0.5034
 3396TIP3   OH231746   2.823   4.029   0.787 -0.5718 -0.2054  0.7564
 3396TIP3    H131747   2.736   4.047   0.823 -1.5574 -1.6878 -0.7367
 3396TIP3    H231748   2.808   3.967   0.716  1.4274  1.4921 -1.3208
 3397TIP3   OH231749   6.179   4.203   7.780  0.1434  0.6881  0.3716
 3397TIP3    H131750   6.269   4.198   7.811 -0.4164 -1.3702  1.8759
 3397TIP3    H231751   6.125   4.197   7.859 -1.3107 -1.8046 -0.6596
 3398TIP3   OH231752   1.280   0.047   7.965  0.3131  0.2915 -0.0830
 3398TIP3    H131753   1.300   0.009   7.879 -1.3863  0.2125 -0.4826
 3398TIP3    H231754   1.223  -0.018   8.007 -0.3414  1.1447  0.3650
 3399TIP3   OH231755   3.908   0.790   2.836  0.4651  0.3450  0.5460
 3399TIP3    H131756   4.000   0.804   2.859  0.5216 -0.5559  0.9424
 3399TIP3    H231757   3.912   0.736   2.757  0.3273 -1.6738  1.8401
 3400TIP3   OH231758   2.682   3.614   7.582  0.3828  0.6357  0.1795
 3400TIP3    H131759   2.661   3.548   7.515 -2.0898  1.5864 -0.1035
 3400TIP3    H231760   2.772   3.595   7.606 -0.5391 -3.7299  1.1097
 3401TIP3   OH231761   2.176   5.102   2.847 -0.2867  0.0581  0.6232
 3401TIP3    H131762   2.094   5.081   2.802 -0.3305 -0.0400  0.7484
 3401TIP3    H231763   2.149   5.132   2.933 -0.1657 -0.4333  0.8326
 3402TIP3   OH231764   3.044   0.354   0.854 -0.0942  0.2805  0.2550
 3402TIP3    H131765   3.136   0.354   0.827  0.3163  1.1769  1.5510
 3402TIP3    H231766   2.994   0.351   0.772  1.0517 -2.3812 -0.4487
 3403TIP3   OH231767   5.369   2.111   1.615 -0.4482  0.7149 -0.5717
 3403TIP3    H131768   5.285   2.098   1.659  1.0352  0.7062  2.5262
 3403TIP3    H231769   5.415   2.175   1.670  0.7340  2.5630 -3.4842
 3404TIP3   OH231770   4.323   3.379   0.739 -0.0967 -0.0656 -0.1630
 3404TIP3    H131771   4.230   3.392   0.722  0.2995  0.4020 -2.1519
 3404TIP3    H231772   4.330   3.286   0.762 -1.0739 -0.0388  0.3067
 3405TIP3   OH231773   4.243   6.875   8.425  0.1543  0.4340  0.2077
 3405TIP3    H131774   4.204   6.825   8.353  0.5080 -1.0146  0.9738
 3405TIP3    H231775   4.215   6.829   8.504  1.3423  0.8443  0.8956
 3406TIP3   OH231776   2.207   1.854   3.085  0.3275  0.8467  0.4482
 3406TIP3    H131777   2.168   1.777   3.125 -1.3158  0.3944 -1.8503
 3406TIP3    H231778   2.160   1.928   3.125  0.1188  0.5335  0.7911
 3407TIP3   OH231779   2.058   2.763   7.406  0.7608  0.2245 -0.5999
 3407TIP3    H131780   2.022   2.841   7.364  1.2407  1.1605  0.6895
 3407TIP3    H231781   1.982   2.710   7.428  0.1247  1.8719  1.4948
 3408TIP3   OH231782   6.738   6.033   0.971  0.3956 -0.0911  0.6125
 3408TIP3    H131783   6.675   6.008   0.902  0.5480  0.3225  0.3160
 3408TIP3    H231784   6.821   5.994   0.943 -0.2191 -2.8044  2.2910
 3409TIP3   OH231785   2.305   5.531   2.694 -0.0593 -0.3431  0.0897
 3409TIP3    H131786   2.236   5.478   2.654  1.2624 -0.8208 -1.6881
 3409TIP3    H231787   2.262   5.615   2.713 -1.1880 -0.7024 -0.7446
 3410TIP3   OH231788   1.179   5.243   2.416 -0.0623  0.2517  0.6221
 3410TIP3    H131789   1.203   5.283   2.500  1.5145 -2.1601  1.4305
 3410TIP3    H231790   1.260   5.204   2.384 -0.3969  1.8271 -2.5519
 3411TIP3   OH231791   3.385   6.056   1.028  0.4856  0.2636  0.0346
 3411TIP3    H131792   3.292   6.048   1.005  0.5191 -0.4252  0.0984
 3411TIP3    H231793   3.432   6.045   0.946  0.4967  1.2754 -0.1049
 3412TIP3   OH231794   1.650   0.052   0.456  0.3205 -0.0917  0.4557
 3412TIP3    H131795   1.701   0.029   0.378  2.0622  2.3225  0.7343
 3412TIP3    H231796   1.559   0.042   0.430  0.8834 -0.1940 -1.6248
 3413TIP3   OH231797   4.238   6.978   3.240 -0.3128  0.4505  0.9018
 3413TIP3    H131798   4.248   6.883   3.245  1.6295  0.6128  0.9310
 3413TIP3    H231799   4.321   7.013   3.273  0.2219  2.0742 -1.8089
 3414TIP3   OH231800   3.545   5.272   8.303 -0.6498  0.1239 -0.3102
 3414TIP3    H131801   3.607   5.303   8.237  1.7640  1.6240  2.3956
 3414TIP3    H231802   3.557   5.177   8.304 -0.9366  0.0372 -2.1357
 3415TIP3   OH231803   2.478   3.542   1.467 -0.3128 -0.2595  0.2058
 3415TIP3    H131804   2.415   3.493   1.520  0.6460 -1.1688  0.5340
 3415TIP3    H231805   2.551   3.482   1.455  0.5616  0.8264 -0.0512
 3416TIP3   OH231806   1.188   3.939   7.848 -0.0327  0.0357 -0.5258
 3416TIP3    H131807   1.136   4.018   7.832 -0.5328 -0.4335 -1.3073
 3416TIP3    H231808   1.217   3.911   7.760 -0.5639 -1.1100 -0.3570
 3417TIP3   OH231809   2.433   1.175   3.408 -0.5342  0.1423  0.2707
 3417TIP3    H131810   2.422   1.108   3.475 -0.7857 -0.3592 -0.2653
 3417TIP3    H231811   2.369   1.243   3.429  0.6077  0.8611  1.5839
 3418TIP3   OH231812   3.162   3.436   7.436 -0.0906 -0.3432  0.3400
 3418TIP3    H131813   3.150   3.341   7.427  0.8799 -0.5325  0.8978
 3418TIP3    H231814   3.116   3.473   7.360  1.2966 -1.3870 -1.0715
 3419TIP3   OH231815   0.837   0.725   1.524  0.0796 -0.5348  0.1997
 3419TIP3    H131816   0.779   0.697   1.453  0.0018 -1.6761  0.6990
 3419TIP3    H231817   0.896   0.788   1.483 -0.6607 -0.3583 -0.6219
 3420TIP3   OH231818   1.467   6.664   8.071 -0.0415 -0.5150  0.3215
 3420TIP3    H131819   1.392   6.613   8.042  1.4796 -2.1418 -0.9926
 3420TIP3    H231820   1.492   6.715   7.995  0.4427 -0.3093  0.6140
 3421TIP3   OH231821   2.244   0.802   2.188 -0.9484 -0.2769 -0.2673
 3421TIP3    H131822   2.188   0.867   2.147  0.6218 -0.4399 -2.9392
 3421TIP3    H231823   2.217   0.719   2.149 -1.4017 -0.9361  1.3708
 3422TIP3   OH231824   2.993   3.289   7.708  0.0563  0.1531 -0.6539
 3422TIP3    H131825   3.043   3.226   7.657 -1.1259  0.0979 -1.7786
 3422TIP3    H231826   2.922   3.317   7.650  1.6027  4.0337 -0.9827
 3423TIP3   OH231827   1.007   3.042   0.066  0.3023  0.2965  0.4365
 3423TIP3    H131828   0.956   3.099   0.124  0.6258  0.1865  0.8341
 3423TIP3    H231829   0.946   2.971   0.044 -0.2426  1.0056 -0.4114
 3424TIP3   OH231830   4.789   6.185   0.619 -0.2280  0.1628  0.1257
 3424TIP3    H131831   4.873   6.208   0.577  0.0860  0.1563  0.7447
 3424TIP3    H231832   4.747   6.269   0.635 -1.0810  0.1167 -1.6527
 3425TIP3   OH231833   3.728   0.100   1.583  0.5607 -0.9712  0.2697
 3425TIP3    H131834   3.798   0.077   1.522 -0.3361  1.7871 -1.9810
 3425TIP3    H231835   3.764   0.171   1.636  0.1421 -0.9369  0.5153
 3426TIP3   OH231836   6.709   5.324   0.326 -0.3570  0.1598 -0.1673
 3426TIP3    H131837   6.735   5.232   0.317 -3.1735 -0.7201 -0.2796
 3426TIP3    H231838   6.747   5.352   0.410  1.8900 -0.5391 -0.8809
 3427TIP3   OH231839   4.961   6.604   3.354  0.0649 -0.1641 -0.4673
 3427TIP3    H131840   4.946   6.697   3.339 -0.0535 -0.0958  0.0443
 3427TIP3    H231841   5.035   6.582   3.297 -0.5054  0.0218 -1.2866
 3428TIP3   OH231842   3.156   2.499   1.609 -0.2309  0.1541  0.2224
 3428TIP3    H131843   3.075   2.547   1.621  0.5737  1.4750  0.5141
 3428TIP3    H231844   3.193   2.533   1.527  0.5928  0.4231  0.6928
 3429TIP3   OH231845   0.620   6.548   1.269  0.7145 -0.4235 -0.2122
 3429TIP3    H131846   0.574   6.628   1.294  1.0464 -0.0652 -0.7257
 3429TIP3    H231847   0.711   6.575   1.258  0.3566 -0.1651 -3.3527
 3430TIP3   OH231848   0.266   5.767   2.383  0.1157 -0.0275  0.2580
 3430TIP3    H131849   0.318   5.716   2.445 -0.6740 -0.2477  0.7488
 3430TIP3    H231850   0.330   5.796   2.317  0.6925 -1.0776  0.3315
 3431TIP3   OH231851   6.171   3.500   8.154 -0.0884 -0.0053 -0.2082
 3431TIP3    H131852   6.202   3.413   8.127 -1.3185 -0.4324 -0.3471
 3431TIP3    H231853   6.181   3.554   8.076  0.8627  0.0383 -0.0650
 3432TIP3   OH231854   3.294   6.748   7.856  0.4692 -0.8486 -0.8665
 3432TIP3    H131855   3.311   6.732   7.948  0.5435 -0.8930 -0.8872
 3432TIP3    H231856   3.230   6.680   7.831 -1.9415  0.9892 -0.1149
 3433TIP3   OH231857   0.499   2.227   7.631 -0.2458 -0.2700 -0.1863
 3433TIP3    H131858   0.593   2.211   7.642 -0.6933 -2.4516  0.8374
 3433TIP3    H231859   0.493   2.276   7.548  1.8812  1.3249  0.5046
 3434TIP3   OH231860   3.740   6.356   8.268  0.4368  0.5481 -0.7995
 3434TIP3    H131861   3.671   6.309   8.316  0.4893  1.5240  0.2844
 3434TIP3    H231862   3.692   6.409   8.204  0.3477 -0.5527 -1.6769
 3435TIP3   OH231863   5.388   0.396   1.651 -0.2500 -0.2991 -1.2325
 3435TIP3    H131864   5.327   0.382   1.579 -0.2495 -0.5425 -1.1885
 3435TIP3    H231865   5.417   0.307   1.675 -1.7718 -0.3995  0.4041
 3436TIP3   OH231866   3.974   0.534   1.077 -0.0447  0.1680 -0.1676
 3436TIP3    H131867   3.916   0.472   1.121 -2.6872  2.6896  0.2066
 3436TIP3    H231868   4.028   0.571   1.147 -0.0097 -0.1082 -0.0463
 3437TIP3   OH231869   1.599   3.166   1.240  0.2160  0.3197  0.7234
 3437TIP3    H131870   1.628   3.080   1.271  1.6411 -0.7622 -3.0351
 3437TIP3    H231871   1.676   3.222   1.247  0.1008  0.4872  0.6588
 3438TIP3   OH231872   2.402   2.629   0.268  0.3680  0.3856 -0.2947
 3438TIP3    H131873   2.448   2.615   0.185  0.1142 -0.9274 -0.2284
 3438TIP3    H231874   2.376   2.721   0.265 -2.2271 -0.2565 -3.0602
 3439TIP3   OH231875   3.954   0.394   2.161 -0.1734 -0.2849 -0.0636
 3439TIP3    H131876   4.008   0.408   2.084  0.9213  0.7359  0.8504
 3439TIP3    H231877   3.986   0.312   2.198 -0.3165 -0.4801 -0.3653
 3440TIP3   OH231878   0.957   2.808   0.730  0.4488  0.7328 -0.5842
 3440TIP3    H131879   1.002   2.756   0.664 -0.2348  0.9138 -1.2002
 3440TIP3    H231880   1.011   2.886   0.740  0.9630  0.3525 -0.3591
 3441TIP3   OH231881   2.343   5.614   2.040 -0.5112  0.6960  0.2413
 3441TIP3    H131882   2.320   5.577   2.125 -1.4375  1.9643  0.5640
 3441TIP3    H231883   2.268   5.593   1.984  0.6100 -1.2255 -0.6642
 3442TIP3   OH231884   5.694   2.234   1.243  0.0874  0.1119 -0.5131
 3442TIP3    H131885   5.706   2.315   1.193  3.4003  1.4014  2.0072
 3442TIP3    H231886   5.750   2.170   1.199  2.1387  0.9474  0.7225
 3443TIP3   OH231887   2.173   5.840   1.721  0.3739  0.5221 -0.4101
 3443TIP3    H131888   2.122   5.906   1.766  0.1176  0.6857 -0.9337
 3443TIP3    H231889   2.258   5.881   1.706  1.4840 -0.5088  2.4447
 3444TIP3   OH231890   2.556   0.534   1.529 -0.0088  0.3892  0.8613
 3444TIP3    H131891   2.540   0.443   1.506 -0.0050  0.3675  0.9446
 3444TIP3    H231892   2.634   0.531   1.584  0.6806  0.5575 -0.0817
 3445TIP3   OH231893   3.526   1.566   1.276  0.1842 -0.5314 -0.1165
 3445TIP3    H131894   3.598   1.562   1.340  0.4606  2.1949 -0.1318
 3445TIP3    H231895   3.550   1.638   1.218 -0.5243 -2.3039 -2.8116
 3446TIP3   OH231896   0.371   3.640   8.251  0.0365  0.2695  0.0919
 3446TIP3    H131897   0.329   3.615   8.169  2.8159 -1.6996 -0.8719
 3446TIP3    H231898   0.299   3.665   8.308 -2.1203  0.3046 -2.4535
 3447TIP3   OH231899   3.359   3.335   7.703 -0.7503  0.0593 -0.6091
 3447TIP3    H131900   3.418   3.311   7.632 -0.7696 -1.1156 -0.2524
 3447TIP3    H231901   3.294   3.265   7.705 -1.9324  1.1090 -0.7282
 3448TIP3   OH231902   2.790   1.725   2.597  0.3358  0.4081  0.0944
 3448TIP3    H131903   2.779   1.632   2.615 -1.4252  0.5250 -0.2191
 3448TIP3    H231904   2.708   1.766   2.625 -0.0560  1.4545 -2.3197
 3449TIP3   OH231905   4.773   2.038   1.186  0.3504  0.6142 -0.5636
 3449TIP3    H131906   4.848   2.078   1.229  1.2914  1.0976 -2.5366
 3449TIP3    H231907   4.760   2.089   1.106 -0.3388 -1.1179 -1.6350
 3450TIP3   OH231908   4.557   4.954   7.347 -1.0092  0.8432  0.3474
 3450TIP3    H131909   4.508   4.885   7.301  1.0274  0.1893 -0.9832
 3450TIP3    H231910   4.503   5.032   7.336 -1.0282  0.5534 -2.6250
 3451TIP3   OH231911   5.561   1.488   0.255  0.2120  0.0929  0.2345
 3451TIP3    H131912   5.479   1.460   0.215  0.0808  1.2820 -0.3696
 3451TIP3    H231913   5.545   1.482   0.349 -0.1683 -0.7756  0.1240
 3452TIP3   OH231914   1.187   6.967   8.348  0.5123 -0.2369 -0.2184
 3452TIP3    H131915   1.254   7.014   8.297 -1.2549  2.8162  0.0083
 3452TIP3    H231916   1.202   6.996   8.438 -0.5225 -0.2390 -0.0364
 3453TIP3   OH231917   1.721   4.120   1.400  0.2683 -0.4284 -0.4582
 3453TIP3    H131918   1.785   4.051   1.419  0.8496  0.2779  0.1687
 3453TIP3    H231919   1.737   4.141   1.308  0.5704 -0.6325 -0.4575
 3454TIP3   OH231920   1.686   6.650   0.331  0.6625 -0.4630 -0.4884
 3454TIP3    H131921   1.616   6.713   0.347  0.1752 -0.9488 -0.6787
 3454TIP3    H231922   1.684   6.634   0.237  0.5735 -1.0034 -0.3993
 3455TIP3   OH231923   5.481   1.831   0.442 -0.1009  0.3836  0.1825
 3455TIP3    H131924   5.513   1.879   0.519 -0.3197  2.1920 -0.7846
 3455TIP3    H231925   5.559   1.794   0.402 -0.0552 -1.2433  1.6388
 3456TIP3   OH231926   4.645   4.969   1.204  0.3450 -0.3481  0.1998
 3456TIP3    H131927   4.720   4.911   1.192  0.5864 -0.0425  0.2259
 3456TIP3    H231928   4.660   5.012   1.288  1.0340  1.0162 -0.5923
 3457TIP3   OH231929   6.767   6.270   0.698 -0.1416 -0.1084  0.1781
 3457TIP3    H131930   6.799   6.344   0.646 -0.4386  0.2605  0.5110
 3457TIP3    H231931   6.811   6.279   0.783 -0.5750 -0.0123  0.3954
 3458TIP3   OH231932   0.949   3.821   2.818  0.1102 -0.0483  0.0134
 3458TIP3    H131933   0.986   3.733   2.812  3.3325  1.1628  0.0737
 3458TIP3    H231934   0.900   3.832   2.737 -0.8631 -2.0480  0.2666
 3459TIP3   OH231935   5.290   3.475   7.704 -0.1588 -0.6164  0.1430
 3459TIP3    H131936   5.317   3.383   7.709 -1.2986 -0.9468  0.5665
 3459TIP3    H231937   5.194   3.472   7.702 -0.3274  0.2965 -4.6930
 3460TIP3   OH231938   4.679   1.587   7.498  0.2834 -0.7407 -0.3458
 3460TIP3    H131939   4.604   1.553   7.548 -0.0523  1.1146  0.4989
 3460TIP3    H231940   4.698   1.519   7.434 -2.4482 -1.0802 -0.9228
 3461TIP3   OH231941   0.313   4.103   2.327  0.0188 -0.4272  0.2940
 3461TIP3    H131942   0.261   4.172   2.285  0.5134 -0.6211 -0.6784
 3461TIP3    H231943   0.370   4.071   2.257  1.6912  0.0201  1.3895
 3462TIP3   OH231944   4.518   5.097   3.336  0.2639 -0.2923 -0.3308
 3462TIP3    H131945   4.517   5.140   3.251  0.6503  1.0600  0.3152
 3462TIP3    H231946   4.609   5.072   3.350 -0.0126 -1.6508 -0.8400
 3463TIP3   OH231947   1.328   0.593   0.465  0.0788 -0.0752 -0.4026
 3463TIP3    H131948   1.357   0.620   0.551  1.1786  0.8756 -1.0449
 3463TIP3    H231949   1.248   0.542   0.481  0.0051  0.4781  1.1152
 3464TIP3   OH231950   6.284   1.208   0.293 -0.0349 -0.2359 -0.2335
 3464TIP3    H131951   6.280   1.185   0.386 -0.2867  0.8386  0.0420
 3464TIP3    H231952   6.238   1.292   0.287 -1.7708 -1.2182 -1.6543
 3465TIP3   OH231953   2.536   1.331   3.090  0.6087  0.0326 -0.1569
 3465TIP3    H131954   2.470   1.400   3.098 -0.4281 -0.8581 -0.7764
 3465TIP3    H231955   2.488   1.256   3.055  1.6704 -1.0700  0.6837
 3466TIP3   OH231956   3.981   0.339   0.523  0.4704 -0.0366 -0.6752
 3466TIP3    H131957   3.941   0.368   0.441  0.6886 -0.1075 -0.8082
 3466TIP3    H231958   4.062   0.295   0.496  0.8121  0.4057 -0.3894
 3467TIP3   OH231959   1.079   5.518   1.328  0.0081 -0.0862 -0.2122
 3467TIP3    H131960   1.171   5.517   1.355  0.5120  0.8010 -1.7504
 3467TIP3    H231961   1.042   5.596   1.369  0.7075  1.1277 -1.7743
 3468TIP3   OH231962   5.166   2.476   7.742  0.0842 -0.1112 -0.0515
 3468TIP3    H131963   5.244   2.455   7.690 -0.2900 -1.2116 -0.1811
 3468TIP3    H231964   5.162   2.407   7.808 -0.1305  0.5951  0.6952
 3469TIP3   OH231965   2.712   4.631   0.905  0.2937  0.1810 -0.0065
 3469TIP3    H131966   2.797   4.650   0.944  0.2169  0.2896  0.1080
 3469TIP3    H231967   2.733   4.587   0.822  0.4570 -0.3964  0.3311
 3470TIP3   OH231968   5.817   0.226   2.872  0.0349 -1.0960  0.7342
 3470TIP3    H131969   5.729   0.238   2.908 -0.1714  0.5435 -0.2464
 3470TIP3    H231970   5.811   0.144   2.824 -0.7966 -1.2919  1.1360
 3471TIP3   OH231971   0.151   1.573   0.583 -0.1651 -0.0829 -0.3050
 3471TIP3    H131972   0.084   1.635   0.613 -1.5260 -1.7058  0.0970
 3471TIP3    H231973   0.170   1.600   0.493 -0.6270  0.9938 -0.0967
 3472TIP3   OH231974   2.992   0.086   1.522  0.4984 -0.0435 -0.0139
 3472TIP3    H131975   2.994  -0.008   1.502  0.5383 -0.0582  0.0602
 3472TIP3    H231976   2.987   0.090   1.617  0.4557  0.0295 -0.0193
 3473TIP3   OH231977   5.061   0.018   1.395 -0.3524 -0.4089  0.1557
 3473TIP3    H131978   5.054  -0.068   1.355 -0.6446  0.3041 -1.4224
 3473TIP3    H231979   5.064   0.079   1.321 -0.7100  0.9768  1.2244
 3474TIP3   OH231980   4.948   2.282   2.891  0.0872 -0.2600 -0.0620
 3474TIP3    H131981   4.896   2.234   2.827  0.8600 -1.5723  0.2668
 3474TIP3    H231982   4.905   2.368   2.897 -3.3807 -1.9126  1.7538
 3475TIP3   OH231983   4.792   4.657   0.645  0.1995  0.1476  0.6044
 3475TIP3    H131984   4.802   4.752   0.641 -0.2494  0.1457 -1.4180
 3475TIP3    H231985   4.879   4.622   0.627 -0.0417  0.1907 -0.7239
 3476TIP3   OH231986   4.694   2.443   7.462  0.2134  0.0651 -0.4111
 3476TIP3    H131987   4.787   2.465   7.460  0.6308 -1.5645 -0.3056
 3476TIP3    H231988   4.686   2.375   7.529 -1.1160  0.4306 -0.1658
 3477TIP3   OH231989   4.173   2.140   1.155  0.4326 -0.0479  0.5905
 3477TIP3    H131990   4.127   2.201   1.213  0.8705  1.1803 -0.3175
 3477TIP3    H231991   4.110   2.070   1.140 -0.7965  1.0941  0.2038
 3478TIP3   OH231992   1.254   4.021   0.325 -0.9456  0.3334 -0.0690
 3478TIP3    H131993   1.256   4.041   0.232  0.7630  3.0583  0.4501
 3478TIP3    H231994   1.294   3.934   0.332 -3.1160 -0.9338 -1.9740
 3479TIP3   OH231995   5.802   2.837   1.824 -0.0593  0.0509  0.4925
 3479TIP3    H131996   5.738   2.845   1.753  1.4431 -1.9861 -1.2389
 3479TIP3    H231997   5.766   2.770   1.882  0.8683 -1.8565 -1.0316
 3480TIP3   OH231998   1.235   6.506   8.024  0.0190  0.1455  0.0296
 3480TIP3    H131999   1.211   6.533   7.936 -0.0900 -2.0683 -0.6921
 3480TIP3    H232000   1.152   6.489   8.068  0.0756 -1.3817 -0.3835
 3481TIP3   OH232001   4.349   5.599   3.722 -0.2333  0.1111  0.1924
 3481TIP3    H132002   4.261   5.624   3.695 -0.8375 -1.1116  0.9592
 3481TIP3    H232003   4.353   5.504   3.708  1.4704  0.3325 -1.2025
 3482TIP3   OH232004   6.900   0.825   3.357  0.4364  0.4288  0.2226
 3482TIP3    H132005   6.991   0.817   3.385  1.0194  1.7339 -1.1672
 3482TIP3    H232006   6.905   0.827   3.261 -0.6956  3.5883  0.1210
 3483TIP3   OH232007   1.369   5.915   1.736 -0.0909 -0.5668 -0.3291
 3483TIP3    H132008   1.464   5.929   1.744 -0.2540  0.9458 -0.7835
 3483TIP3    H232009   1.339   5.987   1.682 -1.4833 -1.1748 -0.3905
 3484TIP3   OH232010   6.860   0.620   8.426 -0.1553 -0.1301  0.0344
 3484TIP3    H132011   6.908   0.615   8.509 -0.4928 -0.1385  0.2336
 3484TIP3    H232012   6.768   0.613   8.452 -0.1953 -3.9904 -0.5777
 3485TIP3   OH232013   1.074   1.011   2.120  0.0169 -0.1049  0.3606
 3485TIP3    H132014   1.014   1.067   2.072 -0.6973 -0.2929  1.0186
 3485TIP3    H232015   1.161   1.043   2.097 -0.3412  0.3251 -0.4102
 3486TIP3   OH232016   3.464   5.554   8.130  0.1183  0.1137 -0.1695
 3486TIP3    H132017   3.466   5.467   8.090  0.7921  0.1076 -0.1351
 3486TIP3    H232018   3.382   5.592   8.100 -0.3854 -0.6951  0.1607
 3487TIP3   OH232019   6.060   2.349   7.617 -0.4565 -0.4780 -0.8027
 3487TIP3    H132020   6.083   2.259   7.593  2.7371  0.4823 -1.8297
 3487TIP3    H232021   6.142   2.397   7.611 -1.7536  2.2346  1.2752
 3488TIP3   OH232022   0.693   5.941   1.481  0.2105  0.3010 -0.7731
 3488TIP3    H132023   0.613   5.954   1.430 -0.0079 -0.7995 -0.7285
 3488TIP3    H232024   0.763   5.974   1.424 -0.0039 -1.1603 -1.9438
 3489TIP3   OH232025   0.206   4.712   2.207  0.3060  0.4808 -0.2958
 3489TIP3    H132026   0.228   4.715   2.114 -0.4794  2.2861 -0.4753
 3489TIP3    H232027   0.119   4.672   2.210  0.4306  0.2105 -0.3220
 3490TIP3   OH232028   5.422   5.612   0.943  0.2989 -0.2709  0.3023
 3490TIP3    H132029   5.488   5.670   0.904  1.0720  1.2080  3.4981
 3490TIP3    H232030   5.443   5.525   0.909  2.5488  0.4960 -0.4241
 3491TIP3   OH232031   2.107   2.340   2.573 -0.3953 -0.8040 -0.4278
 3491TIP3    H132032   2.177   2.394   2.608 -1.1702 -0.6633  0.9835
 3491TIP3    H232033   2.125   2.335   2.479 -0.6527  2.4573 -0.7639
 3492TIP3   OH232034   5.081   4.009   1.075 -0.2746 -0.6080 -0.7091
 3492TIP3    H132035   5.065   3.979   1.164 -0.5529 -2.3551 -1.3042
 3492TIP3    H232036   4.995   4.010   1.033 -0.4600  2.1081 -0.4802
 3493TIP3   OH232037   4.949   6.669   7.583 -0.2593  0.4487 -0.1860
 3493TIP3    H132038   5.017   6.735   7.598  1.0787 -1.4048  2.7759
 3493TIP3    H232039   4.996   6.595   7.543 -0.5494 -0.6546  1.4109
 3494TIP3   OH232040   0.143   2.108   0.215  0.1382 -0.1437  0.0670
 3494TIP3    H132041   0.060   2.154   0.227 -0.1285 -0.5725 -0.0978
 3494TIP3    H232042   0.179   2.145   0.134 -0.9438 -1.4634 -1.0826
 3495TIP3   OH232043   4.662   6.699   0.472  0.5989  0.5457 -0.3925
 3495TIP3    H132044   4.742   6.741   0.504  0.7590 -0.0191 -0.0469
 3495TIP3    H232045   4.604   6.772   0.450  0.6697  0.9496  0.7158
 3496TIP3   OH232046   5.026   2.271   0.420 -0.2319 -0.3019 -0.5058
 3496TIP3    H132047   5.035   2.188   0.372  0.8699 -0.7379  0.4185
 3496TIP3    H232048   5.116   2.295   0.443 -0.6199  0.6857  0.0251
 3497TIP3   OH232049   2.028   0.065   0.986 -0.4217 -0.4951  0.2705
 3497TIP3    H132050   1.963   0.042   1.052 -0.6406  1.4910  0.8174
 3497TIP3    H232051   2.098   0.108   1.034  0.0535 -0.2412 -0.6182
 3498TIP3   OH232052   3.345   4.825   7.353 -0.1082  0.2054 -0.1928
 3498TIP3    H132053   3.281   4.768   7.395 -0.5900  0.8569 -0.0193
 3498TIP3    H232054   3.425   4.773   7.348 -1.1488 -1.3509 -2.1804
 3499TIP3   OH232055   2.942   0.398   2.269 -0.3727  0.0854 -0.4054
 3499TIP3    H132056   2.892   0.478   2.253 -0.5409 -0.3055 -1.9936
 3499TIP3    H232057   3.003   0.393   2.196  0.8050 -0.3654  0.5875
 3500TIP3   OH232058   5.729   2.096   2.320  0.1391  0.3621 -0.1267
 3500TIP3    H132059   5.645   2.051   2.331 -0.9308  2.0489 -0.9315
 3500TIP3    H232060   5.720   2.145   2.238  1.2619  1.9196  0.6092
 3501TIP3   OH232061   3.321   4.340   7.888 -0.0969  0.0434  0.0359
 3501TIP3    H132062   3.417   4.337   7.892 -0.1694 -1.0473  1.9462
 3501TIP3    H232063   3.299   4.277   7.820  0.5064 -1.2755  1.0170
 3502TIP3   OH232064   1.011   2.428   8.132 -0.0281 -0.3526 -0.0655
 3502TIP3    H132065   0.980   2.363   8.068  1.1209 -0.8914 -0.0972
 3502TIP3    H232066   1.048   2.376   8.203  1.9296  0.2195 -0.5891
 3503TIP3   OH232067   4.174   0.841   0.627  0.2727  0.2874 -0.3657
 3503TIP3    H132068   4.195   0.828   0.534  0.3782  1.2508 -0.4901
 3503TIP3    H232069   4.228   0.777   0.673 -0.5363 -0.9084 -1.0203
 3504TIP3   OH232070   6.560   3.809   1.711  0.1500  0.4270 -0.0617
 3504TIP3    H132071   6.572   3.722   1.672 -1.4971 -0.8044  1.9395
 3504TIP3    H232072   6.649   3.843   1.722  0.8550 -1.1679 -0.5656
 3505TIP3   OH232073   6.698   6.080   1.997  0.7690 -0.0047  0.2336
 3505TIP3    H132074   6.616   6.035   2.016 -0.6812  1.7417 -1.4210
 3505TIP3    H232075   6.717   6.131   2.075  0.9137 -1.2320  1.0356
 3506TIP3   OH232076   0.143   1.702   2.597 -0.2271  0.4580 -0.5714
 3506TIP3    H132077   0.147   1.623   2.544 -2.2959  1.3719 -2.2730
 3506TIP3    H232078   0.221   1.752   2.573  0.5437 -0.5709 -0.2644
 3507TIP3   OH232079   6.594   3.073   2.690  0.2694  0.3996  0.9569
 3507TIP3    H132080   6.599   3.112   2.777 -0.1130  1.1216  0.6675
 3507TIP3    H232081   6.593   3.148   2.630  2.0794 -0.1032  0.2358
 3508TIP3   OH232082   5.114   4.974   1.643  0.0886 -0.4316  0.0330
 3508TIP3    H132083   5.020   4.979   1.630  0.2442  1.1427 -0.7390
 3508TIP3    H232084   5.128   5.004   1.733 -0.1778 -1.1556  0.3183
 3509TIP3   OH232085   5.319   3.936   0.311 -0.1063  0.2771 -0.2782
 3509TIP3    H132086   5.351   3.993   0.381  1.1102 -0.0324 -0.5491
 3509TIP3    H232087   5.272   3.994   0.252  1.1325  1.0397 -0.5612
 3510TIP3   OH232088   6.099   0.303   3.524 -0.9257 -0.4935  0.0210
 3510TIP3    H132089   6.169   0.319   3.587 -3.2957  0.7992  2.5151
 3510TIP3    H232090   6.095   0.383   3.472 -0.2847 -0.7523 -0.4371
 3511TIP3   OH232091   2.679   2.783   8.044 -0.2680 -0.6763 -0.1437
 3511TIP3    H132092   2.719   2.725   8.109  0.0954  0.0814  0.3249
 3511TIP3    H232093   2.754   2.825   8.000 -0.5067  0.7870  0.7688
 3512TIP3   OH232094   3.877   3.452   1.932  0.0692 -0.4847  0.3763
 3512TIP3    H132095   3.844   3.370   1.969  2.0318 -1.4112  0.2308
 3512TIP3    H232096   3.931   3.490   2.001  0.0909  0.1071  0.0380
 3513TIP3   OH232097   3.028   1.863   0.879  0.4503 -0.2337  0.1547
 3513TIP3    H132098   3.091   1.831   0.943  0.0139  0.8477  1.1587
 3513TIP3    H232099   2.986   1.937   0.922 -0.7113 -0.2365 -0.9318
 3514TIP3   OH232100   6.554   1.016   1.459  0.0047 -0.4817 -0.1395
 3514TIP3    H132101   6.528   0.924   1.467  0.4287 -0.9040 -2.7420
 3514TIP3    H232102   6.628   1.014   1.398 -0.4355  1.6714 -0.8065
 3515TIP3   OH232103   1.462   1.431   7.439  0.0905  0.1458  0.3002
 3515TIP3    H132104   1.408   1.499   7.398 -1.1313 -0.1428  1.3768
 3515TIP3    H232105   1.549   1.442   7.399 -0.9806 -0.0607 -2.2679
 3516TIP3   OH232106   5.352   3.680   7.880 -0.0362  0.4494 -0.0231
 3516TIP3    H132107   5.323   3.601   7.834  1.4591 -0.2642  0.1962
 3516TIP3    H232108   5.448   3.672   7.883  0.0222  1.4046  1.5755
 3517TIP3   OH232109   3.124   1.392   1.637 -0.4972 -0.0077 -0.0958
 3517TIP3    H132110   3.041   1.345   1.625  0.1652 -1.0794 -0.6458
 3517TIP3    H232111   3.098   1.482   1.658 -1.8525  0.5656 -3.5589
 3518TIP3   OH232112   3.986   0.684   2.141  0.3845  0.0651  0.5367
 3518TIP3    H132113   3.918   0.748   2.163 -2.8493 -1.5475 -3.3665
 3518TIP3    H232114   3.965   0.608   2.195  0.1426  0.1571  0.5729
 3519TIP3   OH232115   1.230   2.479   1.483  0.2177  0.3450 -0.0155
 3519TIP3    H132116   1.243   2.494   1.389 -2.1636  1.3921 -0.2596
 3519TIP3    H232117   1.236   2.566   1.522  0.1110  0.0622  0.6354
 3520TIP3   OH232118   2.596   1.565   0.721  0.0048 -0.7427 -0.1046
 3520TIP3    H132119   2.577   1.586   0.630 -0.2426  1.6103  0.4270
 3520TIP3    H232120   2.599   1.650   0.766  0.5560 -1.7901  2.0055
 3521TIP3   OH232121   4.398   4.775   7.223 -0.1412 -0.5285  0.2024
 3521TIP3    H132122   4.423   4.818   7.141 -0.6623  0.1694  0.3955
 3521TIP3    H232123   4.369   4.688   7.197  0.8236 -0.7279 -0.2160
 3522TIP3   OH232124   0.939   0.292   2.945 -0.0182 -0.1196  0.2005
 3522TIP3    H132125   1.031   0.311   2.931 -0.8097  2.5329 -2.1204
 3522TIP3    H232126   0.922   0.215   2.891  0.4881  0.3296 -0.6074
 3523TIP3   OH232127   2.254   4.800   0.998  0.1784  0.3911 -0.8802
 3523TIP3    H132128   2.263   4.825   1.090 -1.8171  0.0320 -0.5381
 3523TIP3    H232129   2.310   4.861   0.951  0.7691  0.9696  0.5198
 3524TIP3   OH232130   4.076   2.172   1.627  0.0587  0.8205 -0.2929
 3524TIP3    H132131   4.020   2.240   1.664  1.2626  1.0579  1.1868
 3524TIP3    H232132   4.082   2.194   1.534  0.3299  2.7000  0.1282
 3525TIP3   OH232133   2.040   5.477   3.022  0.2105 -0.5672 -0.1027
 3525TIP3    H132134   2.048   5.572   3.018  0.1014 -0.3786  2.5511
 3525TIP3    H232135   1.998   5.460   3.107 -1.3595 -2.9206 -1.2580
 3526TIP3   OH232136   5.439   1.486   3.161  0.0479  0.0569 -0.3766
 3526TIP3    H132137   5.500   1.474   3.088  1.0945 -0.2071  0.5063
 3526TIP3    H232138   5.444   1.405   3.210  1.7364  1.2898  1.6800
 3527TIP3   OH232139   2.714   1.990   0.730 -0.1211  0.1389  0.3160
 3527TIP3    H132140   2.782   2.035   0.680 -0.4566  0.4832  0.1592
 3527TIP3    H232141   2.663   1.943   0.664 -1.1271  1.3346  0.1940
 3528TIP3   OH232142   4.039   4.799   3.050 -0.4530 -0.5338 -0.1177
 3528TIP3    H132143   4.084   4.838   3.125 -0.7314  0.0885 -0.2682
 3528TIP3    H232144   3.987   4.728   3.087  0.8095 -1.4156  0.0297
 3529TIP3   OH232145   3.424   2.065   7.305  0.5080 -0.1799  0.6053
 3529TIP3    H132146   3.501   2.043   7.253 -1.0501 -1.7595 -1.2104
 3529TIP3    H232147   3.399   2.153   7.276  1.6235  0.3467  1.2231
 3530TIP3   OH232148   6.550   6.291   2.657 -0.7060  0.7393  0.2673
 3530TIP3    H132149   6.511   6.358   2.712  0.2759  2.0992 -0.6381
 3530TIP3    H232150   6.638   6.324   2.637 -1.1248  0.5043 -2.3835
 3531TIP3   OH232151   1.663   1.510   1.085  0.6551 -0.1480 -0.0167
 3531TIP3    H132152   1.697   1.432   1.042 -0.4411  0.2167 -1.6199
 3531TIP3    H232153   1.705   1.583   1.038  0.4704  0.2511  0.4326
 3532TIP3   OH232154   4.156   6.705   1.889  0.0645  0.6160  0.2280
 3532TIP3    H132155   4.246   6.715   1.857  0.7368 -0.4743  1.6496
 3532TIP3    H232156   4.120   6.793   1.887  0.5516  0.8182 -2.0241
 3533TIP3   OH232157   2.189   0.967   3.360  0.2845 -0.3066 -0.3876
 3533TIP3    H132158   2.265   1.013   3.324  0.8313 -0.6170  0.3441
 3533TIP3    H232159   2.218   0.876   3.370  1.0048  0.1262  2.9088
 3534TIP3   OH232160   5.364   2.504   1.209  0.4049 -0.3168  0.4993
 3534TIP3    H132161   5.416   2.498   1.129  0.3357  0.3017  0.4025
 3534TIP3    H232162   5.326   2.592   1.207 -1.3427 -1.0399  0.1530
 3535TIP3   OH232163   3.313   1.597   7.469 -0.2502 -0.6349 -0.7436
 3535TIP3    H132164   3.314   1.670   7.407 -2.3556  1.3690  1.3839
 3535TIP3    H232165   3.403   1.591   7.501  0.1383  0.4378 -1.5894
 3536TIP3   OH232166   2.400   4.134   3.231 -0.5984  0.4555 -0.0018
 3536TIP3    H132167   2.333   4.082   3.276  0.8324 -0.1349  1.5840
 3536TIP3    H232168   2.397   4.104   3.140 -1.9945 -0.0552  0.1858
 3537TIP3   OH232169   5.266   5.146   0.765 -0.4733 -0.2737 -0.2693
 3537TIP3    H132170   5.329   5.177   0.700  0.4217  1.0504  1.1522
 3537TIP3    H232171   5.298   5.061   0.793 -0.7424 -0.7489 -1.3623
 3538TIP3   OH232172   6.597   5.829   2.923 -0.1233 -0.4895 -0.2732
 3538TIP3    H132173   6.595   5.845   2.828 -0.7322 -1.2152 -0.3937
 3538TIP3    H232174   6.512   5.861   2.954 -0.0761 -0.6029 -0.0298
 3539TIP3   OH232175   0.148   1.381   0.997  0.1095 -0.0275 -0.1905
 3539TIP3    H132176   0.124   1.456   1.052 -0.9623 -0.0700 -0.5976
 3539TIP3    H232177   0.184   1.318   1.059 -0.3143  0.2541  0.3553
 3540TIP3   OH232178   2.128   0.455   0.907 -0.5002 -0.2562  0.2398
 3540TIP3    H132179   2.121   0.499   0.822 -3.3210 -1.3648 -0.2204
 3540TIP3    H232180   2.222   0.442   0.920  0.0782  0.9012 -2.1943
 3541TIP3   OH232181   4.020   1.283   0.487 -0.3603  0.1415  0.5112
 3541TIP3    H132182   4.040   1.202   0.536  2.5736  0.9142  0.8058
 3541TIP3    H232183   3.999   1.347   0.555  2.5782  0.9147  0.8119
 3542TIP3   OH232184   5.973   5.695   2.666  0.0150  0.3346 -0.0874
 3542TIP3    H132185   5.902   5.679   2.728 -1.3809  1.6269 -1.2675
 3542TIP3    H232186   5.984   5.612   2.620 -1.3572  0.3405 -0.4697
 3543TIP3   OH232187   2.739   0.999   2.820 -0.4447  0.0170  0.1225
 3543TIP3    H132188   2.720   0.911   2.851  0.7479 -0.4193 -0.3025
 3543TIP3    H232189   2.756   0.989   2.726  2.8855  0.0656  0.5801
 3544TIP3   OH232190   2.584   4.956   2.600  0.2459 -0.2326 -0.7283
 3544TIP3    H132191   2.542   5.029   2.645 -1.3004 -0.5564 -1.5661
 3544TIP3    H232192   2.674   4.956   2.632 -0.2048  0.9169  0.6350
 3545TIP3   OH232193   6.492   6.603   1.280 -0.3326  0.0439 -0.2926
 3545TIP3    H132194   6.428   6.609   1.209 -0.9348 -0.1481  0.2222
 3545TIP3    H232195   6.496   6.510   1.301  0.8058 -0.0607 -0.9273
 3546TIP3   OH232196   2.639   4.075   7.891 -0.4188 -0.3161  0.3313
 3546TIP3    H132197   2.618   3.984   7.869 -0.4692 -0.5078  1.1360
 3546TIP3    H232198   2.733   4.082   7.877  0.1229 -1.2945  2.8215
 3547TIP3   OH232199   0.572   6.291   1.418  0.6919 -0.7539 -0.1183
 3547TIP3    H132200   0.495   6.256   1.373 -0.4787  1.7751 -0.2468
 3547TIP3    H232201   0.578   6.382   1.388  2.3324 -0.1986  1.7122
 3548TIP3   OH232202   0.634   0.071   0.534  0.5032  0.5514  0.0271
 3548TIP3    H132203   0.682   0.020   0.468  0.5386 -0.2101  0.6242
 3548TIP3    H232204   0.690   0.147   0.551  1.1369  0.0628  0.1539
 3549TIP3   OH232205   6.032   3.857   7.885 -0.0694 -0.2267  0.1150
 3549TIP3    H132206   6.024   3.853   7.790 -2.5774  1.4192  0.1599
 3549TIP3    H232207   6.084   3.937   7.901  0.0361 -0.3004  0.1406
 3550TIP3   OH232208   5.252   1.368   0.867  0.5341  0.3505 -0.1897
 3550TIP3    H132209   5.179   1.314   0.837  0.0481  1.3303 -0.8221
 3550TIP3    H232210   5.252   1.356   0.962  1.5819 -2.1342 -0.4264
 3551TIP3   OH232211   2.268   1.148   3.012 -0.0591  0.0062  0.2011
 3551TIP3    H132212   2.286   1.217   2.949 -1.4902  0.6938  0.5259
 3551TIP3    H232213   2.173   1.147   3.021  0.0501 -0.8243  1.5204
 3552TIP3   OH232214   1.608   5.459   2.496  0.3350  0.1452  0.1162
 3552TIP3    H132215   1.669   5.482   2.566  0.0632  0.1021  0.3694
 3552TIP3    H232216   1.592   5.541   2.449 -1.2826  0.6957  1.5224
 3553TIP3   OH232217   2.470   5.653   0.896 -0.3069 -0.2113  0.4113
 3553TIP3    H132218   2.505   5.734   0.858 -1.8649 -0.5903 -2.0532
 3553TIP3    H232219   2.543   5.591   0.891 -0.3327 -0.1369 -1.7514
 3554TIP3   OH232220   4.451   2.825   2.604  0.1835  0.2262  0.3895
 3554TIP3    H132221   4.395   2.771   2.660  0.0223  1.4243  1.4157
 3554TIP3    H232222   4.412   2.912   2.608  0.4604  0.4676 -1.2089
 3555TIP3   OH232223   5.028   1.390   1.495  0.1123  0.1399  0.1156
 3555TIP3    H132224   5.006   1.375   1.587  1.2087  0.0340  0.3787
 3555TIP3    H232225   5.003   1.480   1.479 -0.8549 -0.0919  0.2771
 3556TIP3   OH232226   6.123   2.095   8.161 -0.3689  0.0085  0.5792
 3556TIP3    H132227   6.169   2.012   8.168  0.3557  0.2995 -0.6213
 3556TIP3    H232228   6.192   2.161   8.163 -0.8924  0.5593  0.8337
 3557TIP3   OH232229   1.954   2.025   0.551 -0.1297 -0.3793 -0.2069
 3557TIP3    H132230   1.982   2.071   0.472  2.6072  1.0875  1.4232
 3557TIP3    H232231   1.908   2.092   0.602 -2.1567 -1.3941 -0.6414
 3558TIP3   OH232232   4.101   5.549   0.796  0.2070  0.2390  0.0273
 3558TIP3    H132233   4.086   5.456   0.814  1.1850  0.2816  1.2532
 3558TIP3    H232234   4.047   5.595   0.859 -0.1191  0.5098 -0.4429
 3559TIP3   OH232235   3.312   5.524   2.904  0.0830 -0.4433  0.1937
 3559TIP3    H132236   3.391   5.560   2.944  0.6770  1.3067 -2.3432
 3559TIP3    H232237   3.343   5.452   2.849 -0.2480 -0.5599  0.1541
 3560TIP3   OH232238   0.468   0.867   0.485 -0.3694  0.1942  0.2519
 3560TIP3    H132239   0.397   0.928   0.466 -1.1648  0.1123  2.6533
 3560TIP3    H232240   0.451   0.793   0.426 -0.8158  1.2376 -0.9602
 3561TIP3   OH232241   2.745   3.937   1.911 -0.5467 -0.2381  0.0522
 3561TIP3    H132242   2.691   3.887   1.849 -1.2308 -0.3840  0.7451
 3561TIP3    H232243   2.803   3.989   1.856 -0.5381 -1.0228 -0.6987
 3562TIP3   OH232244   1.775   1.235   7.635 -0.2299  0.4625  0.2999
 3562TIP3    H132245   1.815   1.313   7.596  0.0561 -0.3935 -1.2205
 3562TIP3    H232246   1.844   1.169   7.631 -0.2654  0.2834  2.1431
 3563TIP3   OH232247   6.926   6.611   1.490 -0.1138 -0.1313  0.0704
 3563TIP3    H132248   6.879   6.570   1.417  1.3529 -0.3649 -0.7877
 3563TIP3    H232249   6.893   6.701   1.493 -0.6184 -0.2953 -0.4950
 3564TIP3   OH232250   2.839   4.157   1.486 -0.1020  0.2389  0.2828
 3564TIP3    H132251   2.769   4.195   1.432  1.1536  1.5934 -0.4600
 3564TIP3    H232252   2.919   4.193   1.450  1.0274 -1.4132  1.0118
 3565TIP3   OH232253   0.619   1.564   0.828  0.4112  0.1950  0.0212
 3565TIP3    H132254   0.659   1.611   0.901 -0.1025 -0.7705  0.9602
 3565TIP3    H232255   0.586   1.483   0.868  1.4653 -1.0643 -1.5573
 3566TIP3   OH232256   1.448   2.630   8.247 -0.5914  0.0756  0.6570
 3566TIP3    H132257   1.521   2.612   8.306 -0.0247  0.8558  0.2009
 3566TIP3    H232258   1.477   2.703   8.193 -1.5822  0.1883  0.2456
 3567TIP3   OH232259   5.053   4.075   1.842 -0.6702 -0.3995 -0.5513
 3567TIP3    H132260   5.083   4.062   1.751 -0.8162  0.2747 -0.7007
 3567TIP3    H232261   4.985   4.142   1.835 -1.3156 -1.0008 -0.0468
 3568TIP3   OH232262   3.292   1.855   2.794 -0.1691 -0.1260 -0.7068
 3568TIP3    H132263   3.232   1.917   2.752  1.2608  1.1092 -0.9886
 3568TIP3    H232264   3.258   1.769   2.769 -1.1460  0.5491 -1.8128
 3569TIP3   OH232265   2.915   3.951   1.669  0.0443 -0.1939  0.0471
 3569TIP3    H132266   3.010   3.944   1.659 -0.1080 -1.5387 -0.7112
 3569TIP3    H232267   2.892   4.032   1.624  1.1780  2.1037  3.2279
 3570TIP3   OH232268   4.244   4.301   7.827  1.2146  1.0041 -0.4944
 3570TIP3    H132269   4.231   4.375   7.767  2.1077  0.9480 -0.7732
 3570TIP3    H232270   4.187   4.320   7.901 -1.3784  0.1780 -2.1241
 3571TIP3   OH232271   6.555   1.109   0.946  0.2874 -0.0303  0.8593
 3571TIP3    H132272   6.541   1.098   0.852  0.1357  0.5832  0.8078
 3571TIP3    H232273   6.517   1.030   0.985  0.4762 -0.3553  0.4019
 3572TIP3   OH232274   6.788   3.117   8.042 -0.2284 -0.3577  0.0857
 3572TIP3    H132275   6.698   3.141   8.019  0.2983  0.2532 -1.4887
 3572TIP3    H232276   6.838   3.198   8.031  0.6924 -0.9383 -0.1251
 3573TIP3   OH232277   3.302   1.158   7.339 -0.5446 -0.7541 -0.0513
 3573TIP3    H132278   3.282   1.066   7.325  0.2243 -0.8735 -0.4339
 3573TIP3    H232279   3.394   1.159   7.367 -0.9432 -0.2073  1.3185
 3574TIP3   OH232280   5.808   3.779   1.209 -0.7924 -0.1403 -0.0356
 3574TIP3    H132281   5.747   3.825   1.151 -0.4217 -0.2264 -0.4936
 3574TIP3    H232282   5.783   3.808   1.297 -2.3411 -1.1794 -0.0967
 3575TIP3   OH232283   4.242   5.950   2.091  0.1226 -0.0276  0.4751
 3575TIP3    H132284   4.230   5.953   1.996 -1.7442  0.5315  0.6911
 3575TIP3    H232285   4.337   5.953   2.103  0.3773  0.5084 -1.3503
 3576TIP3   OH232286   0.525   1.316   0.953 -0.1453 -0.3351 -0.6142
 3576TIP3    H132287   0.469   1.377   1.001 -1.2582 -0.8301 -1.2559
 3576TIP3    H232288   0.479   1.232   0.958  0.6847 -0.8158 -0.9181
 3577TIP3   OH232289   2.995   1.871   7.682  0.1153 -0.6980  0.1483
 3577TIP3    H132290   3.089   1.851   7.689  0.0302 -1.2957 -0.3073
 3577TIP3    H232291   2.976   1.869   7.588  0.1289  1.8699  0.0198
 3578TIP3   OH232292   2.746   4.244   1.783 -0.0814 -0.0400  0.4334
 3578TIP3    H132293   2.774   4.186   1.712  0.0374 -1.2760  1.4535
 3578TIP3    H232294   2.807   4.317   1.779  1.4797 -1.2694  0.7688
 3579TIP3   OH232295   6.725   1.505   7.440 -0.3159 -0.1981 -0.6477
 3579TIP3    H132296   6.704   1.412   7.432 -0.9066 -0.0731 -0.5847
 3579TIP3    H232297   6.719   1.522   7.534 -0.0001 -0.1428 -0.6374
 3580TIP3   OH232298   5.308   1.703   8.061  0.1205 -0.2942 -0.1068
 3580TIP3    H132299   5.244   1.744   8.119 -0.3062  1.2473 -1.5888
 3580TIP3    H232300   5.255   1.663   7.992  0.7112  0.1398 -0.8209
 3581TIP3   OH232301   3.842   2.907   2.948 -0.0345 -0.4887  0.0205
 3581TIP3    H132302   3.848   2.993   2.906  0.8700 -0.0130  1.0682
 3581TIP3    H232303   3.800   2.925   3.032  0.2786 -1.0473  0.2999
 3582TIP3   OH232304   0.389   6.609   0.427  0.8534 -0.0996  0.4367
 3582TIP3    H132305   0.434   6.558   0.495  1.2678 -1.2588 -0.6827
 3582TIP3    H232306   0.342   6.545   0.375  1.3641  0.6471 -0.9958
 3583TIP3   OH232307   3.431   6.016   0.274 -0.4225 -0.2308 -0.1876
 3583TIP3    H132308   3.354   6.022   0.330 -0.2076  0.9645  0.0085
 3583TIP3    H232309   3.399   6.035   0.186 -0.6168 -1.2921 -0.3533
 3584TIP3   OH232310   4.675   1.593   0.878  0.0160  0.3143  0.2762
 3584TIP3    H132311   4.680   1.665   0.942 -0.8005 -0.2020  0.9424
 3584TIP3    H232312   4.581   1.578   0.868  0.1835 -0.5745  0.0419
 3585TIP3   OH232313   2.494   2.620   8.178 -0.3565 -0.5387  0.0749
 3585TIP3    H132314   2.548   2.698   8.164  0.5944 -1.1062  0.5526
 3585TIP3    H232315   2.405   2.650   8.158 -0.0786  0.8077  0.7349
 3586TIP3   OH232316   6.495   1.052   2.420  0.3293 -0.2335 -0.1264
 3586TIP3    H132317   6.502   1.105   2.341 -0.9530 -2.2899 -1.7103
 3586TIP3    H232318   6.459   1.112   2.486  1.5310  1.5486 -1.0124
 3587TIP3   OH232319   0.262   1.532   8.000  0.0238  0.2094 -0.0748
 3587TIP3    H132320   0.324   1.550   7.929  1.6237 -2.4705  0.5083
 3587TIP3    H232321   0.209   1.460   7.967 -0.3088  0.0402  0.8156
 3588TIP3   OH232322   6.887   4.165   8.316  0.6389 -0.0538 -0.3874
 3588TIP3    H132323   6.909   4.163   8.409 -0.6900 -1.9386 -0.0517
 3588TIP3    H232324   6.957   4.115   8.273 -0.0339 -1.3268 -0.0445
 3589TIP3   OH232325   3.419   1.815   0.477  0.5641 -0.3708  0.9229
 3589TIP3    H132326   3.372   1.899   0.480  1.0251 -0.1224  1.3522
 3589TIP3    H232327   3.375   1.761   0.543  0.3979 -0.3981  0.7902
 3590TIP3   OH232328   4.821   2.509   2.915 -0.1303 -0.0189 -0.0590
 3590TIP3    H132329   4.769   2.577   2.873  0.3290 -0.7666 -1.9050
 3590TIP3    H232330   4.875   2.557   2.979 -1.2058  1.0808  0.0585
 3591TIP3   OH232331   4.378   2.986   0.083 -0.3192 -0.2578 -0.6549
 3591TIP3    H132332   4.362   3.055   0.018 -1.6801  0.4091  0.3506
 3591TIP3    H232333   4.291   2.953   0.103  0.2021 -1.2634 -0.0193
 3592TIP3   OH232334   5.514   5.725   1.224  0.2821  0.7953 -0.1430
 3592TIP3    H132335   5.522   5.684   1.138  0.8256  0.4531  0.0586
 3592TIP3    H232336   5.554   5.662   1.284  1.0605  1.5735  0.1869
 3593TIP3   OH232337   3.773   0.199   0.115  0.5032 -0.0089 -0.3867
 3593TIP3    H132338   3.694   0.250   0.096  0.7728  1.2083  1.4814
 3593TIP3    H232339   3.838   0.265   0.141  0.6748 -1.2633  2.7986
 3594TIP3   OH232340   3.620   4.386   7.454  0.3532  0.1243  0.1024
 3594TIP3    H132341   3.624   4.293   7.477  2.4591  0.3182  0.7723
 3594TIP3    H232342   3.686   4.427   7.510  0.7723  1.7370 -1.4674
 3595TIP3   OH232343   4.532   5.591   3.329  0.2087 -0.2079  0.6337
 3595TIP3    H132344   4.480   5.652   3.381  1.3368  0.6083  0.8396
 3595TIP3    H232345   4.495   5.504   3.350  0.2072  0.1591  2.2805
 3596TIP3   OH232346   4.733   4.625   0.937 -0.1391 -0.0495 -1.1277
 3596TIP3    H132347   4.803   4.563   0.957 -0.2850  0.5023  1.4361
 3596TIP3    H232348   4.778   4.705   0.910  0.1906  0.0222 -0.3696
 3597TIP3   OH232349   0.085   6.425   1.223 -0.1913  0.4143  0.2704
 3597TIP3    H132350   0.049   6.460   1.141 -0.8637 -0.1362  0.3235
 3597TIP3    H232351   0.010   6.388   1.269  0.5558 -1.6410 -0.0416
 3598TIP3   OH232352   1.923   0.556   1.326  0.3029  0.0539 -0.3370
 3598TIP3    H132353   1.878   0.487   1.277  0.0077 -0.1491  0.2134
 3598TIP3    H232354   1.990   0.509   1.376  1.3192  0.3810 -1.3465
 3599TIP3   OH232355   3.233   6.232   2.146 -0.5850 -0.1278  0.3278
 3599TIP3    H132356   3.171   6.256   2.077 -1.4569 -0.0988  1.1117
 3599TIP3    H232357   3.264   6.315   2.181  2.7357  0.0365 -2.4393
 3600TIP3   OH232358   0.251   5.753   7.690 -0.1866  0.4899  0.2243
 3600TIP3    H132359   0.179   5.719   7.636 -1.6147  1.6730  1.3054
 3600TIP3    H232360   0.290   5.675   7.729 -0.3661 -0.2371 -0.9835
 3601TIP3   OH232361   6.918   6.099   3.385 -0.1266  0.1143  0.5840
 3601TIP3    H132362   6.991   6.047   3.421  1.1676  1.4366 -0.0109
 3601TIP3    H232363   6.845   6.037   3.380  1.1208 -1.4420  0.6353
 3602TIP3   OH232364   5.359   2.618   2.722  0.2078 -0.0445  0.3508
 3602TIP3    H132365   5.267   2.626   2.747 -0.7141 -0.3178 -2.4940
 3602TIP3    H232366   5.369   2.679   2.649  1.8131 -1.1863 -0.4531
 3603TIP3   OH232367   3.856   3.223   0.375  0.2707  0.3586 -0.0259
 3603TIP3    H132368   3.891   3.295   0.427  2.1879 -0.1846 -0.4767
 3603TIP3    H232369   3.762   3.224   0.393  0.4394  2.1100  1.0122
 3604TIP3   OH232370   1.573   6.444   3.122  0.0480 -0.3190  0.1855
 3604TIP3    H132371   1.586   6.538   3.115  0.2273 -0.3783 -0.3109
 3604TIP3    H232372   1.542   6.417   3.036 -1.4083 -0.5025  0.7439
 3605TIP3   OH232373   1.682   6.260   2.414 -0.1819 -0.2402 -0.4402
 3605TIP3    H132374   1.648   6.184   2.462 -0.8764  0.2367 -0.1656
 3605TIP3    H232375   1.627   6.333   2.443 -0.4950  0.0979 -1.8280
 3606TIP3   OH232376   1.229   2.161   3.021  0.3746 -0.0881 -0.1819
 3606TIP3    H132377   1.286   2.238   3.022  0.6627 -0.2742 -1.3167
 3606TIP3    H232378   1.177   2.170   3.101  0.1261  1.4945 -0.4779
 3607TIP3   OH232379   4.533   3.470   2.332  0.0840 -0.6008  0.2105
 3607TIP3    H132380   4.586   3.506   2.403  2.6262 -0.4504 -1.6562
 3607TIP3    H232381   4.531   3.539   2.266  1.4321 -2.2259 -1.6465
 3608TIP3   OH232382   0.707   5.320   8.420 -0.1519  0.0689  0.4223
 3608TIP3    H132383   0.706   5.363   8.335 -1.5563  1.8780  1.2664
 3608TIP3    H232384   0.774   5.252   8.413 -0.9090 -0.4820 -2.4060
 3609TIP3   OH232385   0.074   2.942   0.887 -0.1767 -0.0469 -0.1338
 3609TIP3    H132386   0.103   2.881   0.819 -0.5775  0.0570 -0.4036
 3609TIP3    H232387   0.134   2.927   0.960  0.0160 -0.4354 -0.3673
 3610TIP3   OH232388   4.418   1.605   8.302 -0.0109  0.6145  1.2139
 3610TIP3    H132389   4.484   1.649   8.248 -0.6913  1.5668  1.1357
 3610TIP3    H232390   4.334   1.640   8.270 -0.5777 -0.6751  1.2093
 3611TIP3   OH232391   2.464   1.928   3.105  0.0166  0.0092 -0.2485
 3611TIP3    H132392   2.373   1.901   3.097 -0.7785  2.7678 -1.8971
 3611TIP3    H232393   2.475   1.995   3.038  2.1507  2.5199  2.3431
 3612TIP3   OH232394   0.486   6.958   3.175  0.6585  0.1345  0.2131
 3612TIP3    H132395   0.581   6.943   3.171  0.4671 -1.0002 -0.7040
 3612TIP3    H232396   0.458   6.916   3.256  0.7492 -0.8464 -0.2452
 3613TIP3   OH232397   1.574   1.760   1.391  0.2715  0.9809  0.3859
 3613TIP3    H132398   1.607   1.845   1.364  2.8185  0.8828  2.7358
 3613TIP3    H232399   1.634   1.697   1.351 -0.7382  0.3373 -0.1636
 3614TIP3   OH232400   0.293   4.807   7.482 -1.0929  0.4720 -0.5614
 3614TIP3    H132401   0.350   4.734   7.455  0.0329  0.8956  0.5803
 3614TIP3    H232402   0.319   4.879   7.425 -0.8323  0.5247 -0.3778
 3615TIP3   OH232403   3.950   1.542   0.918 -0.1507 -0.2071 -0.3287
 3615TIP3    H132404   3.964   1.498   1.002 -0.3192 -1.0092 -0.7096
 3615TIP3    H232405   3.880   1.605   0.935  0.6905  0.5525  0.4406
 3616TIP3   OH232406   3.653   6.012   2.500 -0.2638  0.1308  0.2858
 3616TIP3    H132407   3.578   6.052   2.545  0.0188  0.0460  0.8437
 3616TIP3    H232408   3.703   6.087   2.466 -2.6539  0.1972 -3.6573
 3617TIP3   OH232409   0.337   0.438   0.093  0.0292 -0.2756  0.0223
 3617TIP3    H132410   0.404   0.432   0.025 -0.0812  0.4422 -0.1569
 3617TIP3    H232411   0.380   0.403   0.171  0.3211 -0.6362 -0.2923
 3618TIP3   OH232412   4.556   4.349   7.486 -0.0910 -0.0466  0.2793
 3618TIP3    H132413   4.601   4.326   7.405  0.0392 -1.2193  0.6616
 3618TIP3    H232414   4.516   4.434   7.468  0.0111 -0.2413 -0.9757
 3619TIP3   OH232415   2.545   6.236   8.094  0.1586  0.7131  0.1099
 3619TIP3    H132416   2.591   6.268   8.016 -0.2772  2.3252  0.4845
 3619TIP3    H232417   2.509   6.315   8.134 -0.5019 -0.2172  1.3859
 3620TIP3   OH232418   3.159   5.115   7.945  0.2296  1.1288 -0.3750
 3620TIP3    H132419   3.172   5.081   7.856 -0.7380  1.5936 -0.7097
 3620TIP3    H232420   3.161   5.038   8.001 -0.1557  0.7225 -0.9142
 3621TIP3   OH232421   5.363   0.941   0.318 -0.4660 -0.4090  0.5275
 3621TIP3    H132422   5.407   0.889   0.385 -0.3136  0.8992  1.4621
 3621TIP3    H232423   5.303   0.997   0.367  0.4693  1.3900 -0.2989
 3622TIP3   OH232424   3.377   3.036   8.295  0.4381  0.0439 -0.4206
 3622TIP3    H132425   3.459   2.996   8.265  0.2586 -0.2907 -0.4585
 3622TIP3    H232426   3.312   2.967   8.288 -0.0351  0.5480 -1.2208
 3623TIP3   OH232427   5.273   5.371   7.125  0.0702 -0.8000  0.9213
 3623TIP3    H132428   5.345   5.360   7.063  2.1016 -0.8969  3.1240
 3623TIP3    H232429   5.202   5.409   7.074  2.3574  1.2232 -1.0138
 3624TIP3   OH232430   6.323   2.666   1.841  0.2621  0.0325 -0.2304
 3624TIP3    H132431   6.272   2.616   1.904  1.0304  1.0339  1.2269
 3624TIP3    H232432   6.352   2.743   1.889 -0.8144  1.8970 -2.3317
 3625TIP3   OH232433   4.152   0.640   1.265 -0.5022 -0.1508  0.4647
 3625TIP3    H132434   4.179   0.612   1.353  0.7994  2.2886  0.9236
 3625TIP3    H232435   4.229   0.686   1.230 -1.9935  1.5044 -0.7812
 3626TIP3   OH232436   5.177   2.365   3.609 -0.2192 -0.3766  0.5152
 3626TIP3    H132437   5.132   2.426   3.667 -1.2713 -0.4880 -0.1531
 3626TIP3    H232438   5.219   2.421   3.544  0.1048 -0.3005  0.7874
 3627TIP3   OH232439   0.233   0.904   2.784  0.2583 -0.0745 -0.0490
 3627TIP3    H132440   0.313   0.885   2.833 -0.7980 -0.0766  1.7745
 3627TIP3    H232441   0.174   0.831   2.804 -1.0564  1.1190  0.7005
 3628TIP3   OH232442   3.237   3.737   7.109 -0.7872 -0.3875 -1.0501
 3628TIP3    H132443   3.202   3.819   7.143  1.1897  0.3296 -0.5779
 3628TIP3    H232444   3.331   3.752   7.102 -0.1046 -3.1557  0.6312
 3629TIP3   OH232445   2.530   2.949   1.764  0.0499  0.1782 -0.3686
 3629TIP3    H132446   2.555   2.877   1.706 -2.1799  0.0243 -1.2274
 3629TIP3    H232447   2.613   2.990   1.788  1.2316 -1.4524 -1.4377
 3630TIP3   OH232448   4.807   5.056   7.440 -0.1483  0.4920  0.0506
 3630TIP3    H132449   4.821   5.098   7.356 -1.1194  0.9040  0.0883
 3630TIP3    H232450   4.717   5.023   7.437  0.1935 -0.5471  0.4743
 3631TIP3   OH232451   2.941   3.144   2.761  0.2707 -0.6013  0.3732
 3631TIP3    H132452   3.006   3.081   2.727 -1.5227 -1.5559 -1.5199
 3631TIP3    H232453   2.927   3.116   2.851 -0.1365 -2.7370 -0.2725
 3632TIP3   OH232454   2.622   2.053   1.899 -0.5323 -0.0502  0.0858
 3632TIP3    H132455   2.577   2.016   1.976  0.8350  0.1392  1.0161
 3632TIP3    H232456   2.678   1.982   1.868  1.1280  0.7682  1.0890
 3633TIP3   OH232457   5.533   3.992   2.308 -0.0903  0.2346 -0.4017
 3633TIP3    H132458   5.599   3.980   2.377 -0.3922  0.1087 -0.1305
 3633TIP3    H232459   5.468   4.051   2.347 -1.3335 -1.4427  0.1946
 3634TIP3   OH232460   4.713   1.230   1.338 -0.2265  0.3406  0.0395
 3634TIP3    H132461   4.656   1.155   1.322  0.4671  0.1310 -1.6744
 3634TIP3    H232462   4.679   1.269   1.418 -1.4744 -0.9782  0.1965
 3635TIP3   OH232463   5.236   5.085   1.884  0.0007 -0.1549  0.3827
 3635TIP3    H132464   5.259   5.079   1.977  0.0339 -2.0150  0.2781
 3635TIP3    H232465   5.310   5.045   1.839  0.9151  2.4472 -0.6425
 3636TIP3   OH232466   5.922   6.889   1.010 -0.1537  0.3166 -0.1007
 3636TIP3    H132467   6.007   6.931   1.026 -0.0123 -0.3126  0.8399
 3636TIP3    H232468   5.873   6.901   1.091 -1.2256  1.2385 -0.8520
 3637TIP3   OH232469   4.032   6.852   1.560  0.5166 -0.0609  0.1201
 3637TIP3    H132470   3.968   6.899   1.507  1.5387  0.4098 -0.7164
 3637TIP3    H232471   3.989   6.768   1.580 -0.5470  0.4372 -0.0026
 3638TIP3   OH232472   6.770   1.817   7.422 -0.3225 -0.2574  0.7331
 3638TIP3    H132473   6.760   1.819   7.517 -0.0021 -1.1185  0.7938
 3638TIP3    H232474   6.710   1.749   7.392  0.4321 -0.8114  0.4426
 3639TIP3   OH232475   5.248   5.176   2.175 -0.1929  0.0296  0.2110
 3639TIP3    H132476   5.183   5.136   2.233 -1.3549  1.0895 -0.2994
 3639TIP3    H232477   5.333   5.149   2.211 -0.7835 -4.1786 -1.0215
 3640TIP3   OH232478   3.307   2.796   1.678  0.6522  0.3398  0.2857
 3640TIP3    H132479   3.320   2.819   1.770  0.3848 -0.9586  0.6768
 3640TIP3    H232480   3.216   2.820   1.659  0.1987 -0.8512  0.8504
 3641TIP3   OH232481   1.109   4.593   8.011  0.2374  0.6173 -0.1110
 3641TIP3    H132482   1.160   4.657   8.060 -0.9983  0.5602  1.2922
 3641TIP3    H232483   1.161   4.513   8.014  0.3559  0.7270  0.7512
 3642TIP3   OH232484   6.961   4.762   8.188  0.1373  0.2574  0.3389
 3642TIP3    H132485   6.989   4.814   8.264 -0.1178 -1.6082  1.7742
 3642TIP3    H232486   6.876   4.799   8.165  0.7585  1.6417  0.1622
 3643TIP3   OH232487   5.390   5.263   7.628 -0.3968 -0.0705 -0.4746
 3643TIP3    H132488   5.476   5.306   7.627 -1.2642  1.7475 -0.4019
 3643TIP3    H232489   5.369   5.250   7.535  0.7698 -2.3778 -0.5063
 3644TIP3   OH232490   0.185   6.244   0.089 -0.3923  0.0528  0.0570
 3644TIP3    H132491   0.233   6.162   0.077 -0.0197  0.4245 -1.1042
 3644TIP3    H232492   0.093   6.219   0.089 -0.2858 -0.3439 -0.4850
 3645TIP3   OH232493   0.875   2.124   0.618  0.1710  0.3039  0.0359
 3645TIP3    H132494   0.873   2.199   0.676 -1.8492 -1.4179  2.4252
 3645TIP3    H232495   0.941   2.066   0.656 -0.8739 -0.6603  0.4607
 3646TIP3   OH232496   2.517   2.038   2.404 -0.2995 -0.2293  0.3077
 3646TIP3    H132497   2.441   1.986   2.431  1.2102 -1.9754  1.5087
 3646TIP3    H232498   2.538   2.091   2.481  0.6257 -0.9835  0.6002
 3647TIP3   OH232499   0.260   5.975   7.476  0.2882 -0.0099  0.0892
 3647TIP3    H132500   0.284   6.066   7.459 -0.8430  0.1143 -1.0345
 3647TIP3    H232501   0.250   5.970   7.571  0.1527  1.1069  0.1480
 3648TIP3   OH232502   6.451   4.519   2.593  0.0990  0.4652 -0.2053
 3648TIP3    H132503   6.498   4.492   2.672 -1.2511  0.3597  0.5966
 3648TIP3    H232504   6.476   4.455   2.526  1.0949  0.4319  0.1925
 3649TIP3   OH232505   5.575   5.157   7.377  0.5266 -0.2404  0.1974
 3649TIP3    H132506   5.504   5.140   7.316  0.3499 -1.4437  0.7065
 3649TIP3    H232507   5.564   5.249   7.402 -0.0252 -0.0308 -0.7562
 3650TIP3   OH232508   1.710   3.181   7.101 -0.0265 -0.1996  0.7162
 3650TIP3    H132509   1.789   3.210   7.147  0.1668  0.5428 -0.0572
 3650TIP3    H232510   1.649   3.254   7.110 -0.1535 -0.2397  0.2177
 3651TIP3   OH232511   5.810   6.771   0.134  0.3117  0.4114 -0.2195
 3651TIP3    H132512   5.905   6.776   0.125  0.4082 -1.0071 -0.3186
 3651TIP3    H232513   5.796   6.696   0.193 -0.7175  1.1088  0.4535
 3652TIP3   OH232514   4.712   4.064   2.649  0.2514  0.0196 -0.3083
 3652TIP3    H132515   4.726   3.987   2.594  0.5303  1.0719 -1.7713
 3652TIP3    H232516   4.621   4.090   2.631 -1.2183 -2.0774  3.0432
 3653TIP3   OH232517   6.848   4.769   1.501  0.1904 -0.4510  0.0722
 3653TIP3    H132518   6.782   4.738   1.439 -0.4905  0.0818  0.5095
 3653TIP3    H232519   6.926   4.785   1.447 -1.0029  2.0395 -1.0888
 3654TIP3   OH232520   5.371   2.198   3.525 -0.1681 -0.2551  0.5554
 3654TIP3    H132521   5.450   2.223   3.572  1.4377  1.0281 -2.5084
 3654TIP3    H232522   5.302   2.255   3.559  1.1511  1.3621  0.5919
 3655TIP3   OH232523   0.103   3.484   1.195  0.9266  0.4245 -0.2843
 3655TIP3    H132524   0.108   3.556   1.257  0.8696  0.4338 -0.2901
 3655TIP3    H232525   0.194   3.462   1.175  1.0263 -0.9034  1.3454
 3656TIP3   OH232526   3.399   4.409   2.773  0.1218 -0.6395  0.3636
 3656TIP3    H132527   3.376   4.491   2.817 -0.4482  0.4783 -1.9154
 3656TIP3    H232528   3.489   4.423   2.742  0.0867 -0.9678  0.1172
 3657TIP3   OH232529   6.836   4.618   7.952  0.0952  0.8665  0.6416
 3657TIP3    H132530   6.879   4.698   7.922 -0.8516  0.9245 -0.6477
 3657TIP3    H232531   6.745   4.629   7.927 -0.5230  0.3329  2.4578
 3658TIP3   OH232532   0.288   0.865   1.676  0.3474 -0.0106  0.3430
 3658TIP3    H132533   0.271   0.957   1.659  1.1037  0.4715  2.0732
 3658TIP3    H232534   0.355   0.841   1.612 -0.2310  0.4552 -0.4695
 3659TIP3   OH232535   6.116   4.612   1.138  0.4277  0.1776 -0.2002
 3659TIP3    H132536   6.137   4.643   1.226  1.2220 -0.3335 -0.1968
 3659TIP3    H232537   6.020   4.608   1.136  0.3996 -1.7369  1.3607
 3660TIP3   OH232538   5.457   6.735   0.773 -0.6366  0.0426 -0.7551
 3660TIP3    H132539   5.531   6.795   0.789 -0.1943 -0.6007 -0.3262
 3660TIP3    H232540   5.490   6.674   0.708 -1.0545  0.2004 -1.1158
 3661TIP3   OH232541   3.569   4.950   0.590 -0.5648 -0.3199 -0.4094
 3661TIP3    H132542   3.491   4.925   0.640 -0.0248 -1.4121 -0.0994
 3661TIP3    H232543   3.636   4.887   0.616  1.0220  1.7346  0.7948
 3662TIP3   OH232544   6.371   6.276   2.034 -0.0340 -0.1704  0.0882
 3662TIP3    H132545   6.293   6.272   1.979  1.1626 -0.1960 -1.7031
 3662TIP3    H232546   6.417   6.194   2.017  0.3050 -0.2496  1.2729
 3663TIP3   OH232547   5.173   3.638   0.620 -0.1031 -0.1896  0.2370
 3663TIP3    H132548   5.191   3.604   0.532 -0.4603  0.8939 -0.2804
 3663TIP3    H232549   5.245   3.698   0.638 -0.6558  0.4962  0.1802
 3664TIP3   OH232550   3.682   4.148   2.006  0.2926  0.5224 -0.2440
 3664TIP3    H132551   3.650   4.180   2.090 -0.4753  1.1688 -0.7745
 3664TIP3    H232552   3.747   4.081   2.029  1.3446  1.8599  0.8802
 3665TIP3   OH232553   3.671   3.914   2.756 -0.4101 -0.1857  0.1514
 3665TIP3    H132554   3.622   3.983   2.802  0.2149  1.0683 -0.9842
 3665TIP3    H232555   3.718   3.960   2.686  3.0301 -1.1662  1.6046
 3666TIP3   OH232556   2.788   4.519   1.784 -0.0015  0.0836  0.8426
 3666TIP3    H132557   2.694   4.531   1.767  0.0418 -0.9495 -0.2152
 3666TIP3    H232558   2.803   4.567   1.865 -1.5189  0.0042  1.2137
 3667TIP3   OH232559   3.075   6.630   1.467 -0.9234  0.5901  0.5500
 3667TIP3    H132560   3.042   6.715   1.438 -1.6684  0.1508  0.0742
 3667TIP3    H232561   3.090   6.581   1.387  0.1047  0.4801  0.7973
 3668TIP3   OH232562   6.939   3.162   1.650 -0.1095 -0.5018  0.0325
 3668TIP3    H132563   6.846   3.161   1.627  0.0643  0.0071 -0.7460
 3668TIP3    H232564   6.984   3.185   1.568  0.7141 -0.8579  0.3644
 3669TIP3   OH232565   1.403   0.320   0.757  0.0576 -0.0860 -0.6538
 3669TIP3    H132566   1.421   0.404   0.800  0.0406 -0.2290 -0.3642
 3669TIP3    H232567   1.386   0.260   0.830 -0.6401 -0.1741 -0.8800
 3670TIP3   OH232568   2.129   2.855   2.122  0.5137 -0.6886 -0.3176
 3670TIP3    H132569   2.211   2.873   2.076  0.4474  0.2068 -0.1038
 3670TIP3    H232570   2.156   2.821   2.207  0.6384 -3.1498 -1.2579
 3671TIP3   OH232571   6.191   6.245   0.722 -0.0944 -0.5253 -0.1503
 3671TIP3    H132572   6.275   6.280   0.752 -1.1340  0.6744  1.4819
 3671TIP3    H232573   6.125   6.297   0.767 -1.7413 -1.5449 -1.2713
 3672TIP3   OH232574   3.846   2.889   1.838  0.2081 -0.1340 -0.3317
 3672TIP3    H132575   3.930   2.845   1.845 -0.3691 -1.6689 -2.0938
 3672TIP3    H232576   3.862   2.964   1.781  0.1315 -1.3447 -2.0305
 3673TIP3   OH232577   5.582   6.041   0.656 -0.8118 -0.0853  0.6636
 3673TIP3    H132578   5.554   5.950   0.650 -0.4332 -0.3418  2.3097
 3673TIP3    H232579   5.534   6.086   0.586 -0.4881 -1.6416 -0.6159
 3674TIP3   OH232580   5.266   2.978   2.532 -0.2159  0.4154 -0.5630
 3674TIP3    H132581   5.310   2.991   2.616 -1.5249  0.6552  0.1117
 3674TIP3    H232582   5.285   3.058   2.483  4.3367 -1.4165 -2.3955
 3675TIP3   OH232583   3.241   2.002   7.883 -0.5128 -0.2027  0.1250
 3675TIP3    H132584   3.276   1.913   7.893  1.4496  0.5959  0.9286
 3675TIP3    H232585   3.314   2.051   7.845 -1.5023  1.1317 -0.1152
 3676TIP3   OH232586   5.486   5.463   2.676  0.8265  0.3768 -0.0392
 3676TIP3    H132587   5.524   5.472   2.764 -0.3880  2.9584  0.3065
 3676TIP3    H232588   5.502   5.548   2.635 -2.9144  1.0322 -0.4855
 3677TIP3   OH232589   3.190   6.024   2.932  0.4558 -0.1036 -0.1506
 3677TIP3    H132590   3.156   5.968   3.002  2.5734 -0.0969  0.9563
 3677TIP3    H232591   3.124   6.093   2.923 -1.3553 -1.7488 -0.3403
 3678TIP3   OH232592   3.022   3.720   0.780 -0.6118  0.0326  0.0452
 3678TIP3    H132593   3.032   3.626   0.760 -0.3057 -0.1113  0.8579
 3678TIP3    H232594   3.032   3.763   0.695  2.7002 -0.4132  0.0694
 3679TIP3   OH232595   4.785   6.076   2.203 -0.3207  0.3333 -0.2350
 3679TIP3    H132596   4.804   6.046   2.114  2.3058 -1.3548  0.7781
 3679TIP3    H232597   4.870   6.074   2.248 -1.6591  0.4205  2.5182
 3680TIP3   OH232598   0.712   0.536   1.013 -0.0224  0.8006  0.4074
 3680TIP3    H132599   0.803   0.553   0.988  0.0234  1.4761  1.0299
 3680TIP3    H232600   0.681   0.476   0.945  1.1084 -0.0496  0.6060
 3681TIP3   OH232601   4.571   0.170   2.808 -0.0538  0.0878 -0.4734
 3681TIP3    H132602   4.611   0.167   2.721 -0.7277 -0.2848 -0.7765
 3681TIP3    H232603   4.607   0.095   2.854 -1.3394 -0.9986 -1.1721
 3682TIP3   OH232604   6.039   1.803   2.060  0.0584 -0.2032  0.2948
 3682TIP3    H132605   6.076   1.849   2.136 -0.9880 -0.9315  1.2718
 3682TIP3    H232606   6.058   1.861   1.986  1.2861  0.4255  1.0676
 3683TIP3   OH232607   5.302   5.349   7.383 -0.5133  0.3806 -0.8679
 3683TIP3    H132608   5.248   5.424   7.408  1.8820  2.0196 -0.1844
 3683TIP3    H232609   5.303   5.351   7.288 -1.9045  0.0786 -0.9136
 3684TIP3   OH232610   0.382   0.787   8.188  0.5732  0.6987  0.1768
 3684TIP3    H132611   0.289   0.791   8.212  1.1307  1.5589  2.4876
 3684TIP3    H232612   0.395   0.862   8.130  0.2170  1.9004  1.5848
 3685TIP3   OH232613   2.037   2.131   2.926  0.1038  0.6214  0.2287
 3685TIP3    H132614   1.968   2.190   2.956 -0.2233  1.2857 -1.6936
 3685TIP3    H232615   2.056   2.075   3.002 -0.5177  2.2971  1.6827
 3686TIP3   OH232616   1.119   3.497   8.153 -0.3963 -0.4872  0.2011
 3686TIP3    H132617   1.030   3.529   8.139  0.6462  3.0235  0.6858
 3686TIP3    H232618   1.115   3.450   8.236 -2.1760 -2.5005 -0.9100
 3687TIP3   OH232619   2.986   4.068   8.185 -0.0229 -0.3599 -0.3516
 3687TIP3    H132620   3.080   4.071   8.164  0.2018 -2.9504 -0.0570
 3687TIP3    H232621   2.984   4.047   8.279 -0.9509  1.8027  0.1541
 3688TIP3   OH232622   1.559   4.745   2.326  0.2401  0.1749  0.1482
 3688TIP3    H132623   1.475   4.756   2.282 -1.2213  0.8175  2.8733
 3688TIP3    H232624   1.576   4.829   2.368  0.6256 -0.8546  2.1981
 3689TIP3   OH232625   1.726   6.484   8.094  0.1911  0.3924  0.4395
 3689TIP3    H132626   1.637   6.453   8.113  0.3945  1.1547  3.1647
 3689TIP3    H232627   1.782   6.428   8.147  1.2239  0.7790 -0.2164
 3690TIP3   OH232628   1.842   1.532   1.313  0.0942 -0.2243  0.0937
 3690TIP3    H132629   1.905   1.585   1.265  0.1191 -0.1106  0.2511
 3690TIP3    H232630   1.879   1.523   1.401 -0.5443  0.6164  0.4568
 3691TIP3   OH232631   1.388   3.459   2.551  0.2799 -0.3144 -0.2634
 3691TIP3    H132632   1.457   3.395   2.571  0.3799  0.0993  0.7799
 3691TIP3    H232633   1.306   3.412   2.567  0.3414 -0.4086 -0.2246
 3692TIP3   OH232634   1.296   1.184   1.695  0.3742 -0.1085  0.4058
 3692TIP3    H132635   1.371   1.128   1.676 -0.6391 -1.6903  0.8079
 3692TIP3    H232636   1.220   1.130   1.673 -0.6745  0.8860  1.4192
 3693TIP3   OH232637   2.355   1.783   8.111 -0.1707 -0.3882 -0.5015
 3693TIP3    H132638   2.441   1.818   8.137  1.6715 -3.5730 -1.6876
 3693TIP3    H232639   2.335   1.827   8.029 -0.9193  2.0842  0.9018
 3694TIP3   OH232640   2.233   4.259   2.971 -0.0392  0.0971  0.1407
 3694TIP3    H132641   2.303   4.194   2.963 -0.9542 -1.1046  1.3293
 3694TIP3    H232642   2.277   4.339   2.999  1.2263  0.2760 -2.1576
 3695TIP3   OH232643   5.652   1.740   0.037 -0.2205  0.4445 -0.0241
 3695TIP3    H132644   5.647   1.815  -0.022 -0.0695 -1.5225 -2.7378
 3695TIP3    H232645   5.588   1.677   0.002  1.7315 -1.8567  0.2841
 3696TIP3   OH232646   2.153   5.945   7.817 -0.1036  0.1939 -0.2679
 3696TIP3    H132647   2.243   5.976   7.803  0.5458 -0.9902  0.9980
 3696TIP3    H232648   2.109   5.960   7.734  1.2225  0.9528 -0.8645
 3697TIP3   OH232649   5.660   5.252   1.311 -0.3952 -0.2738  0.6017
 3697TIP3    H132650   5.709   5.319   1.359  1.1319 -0.1708 -0.9882
 3697TIP3    H232651   5.612   5.301   1.244  0.7690 -0.7281 -0.6015
 3698TIP3   OH232652   4.014   5.080   1.190  0.0525 -0.4009 -0.6901
 3698TIP3    H132653   4.095   5.038   1.218  0.3862 -0.7490 -2.0998
 3698TIP3    H232654   3.950   5.059   1.259  1.3177  0.5062  0.8288
 3699TIP3   OH232655   0.172   3.712   0.151  0.1673  0.4559 -0.1430
 3699TIP3    H132656   0.228   3.678   0.221 -0.7586 -0.5052  0.1547
 3699TIP3    H232657   0.103   3.759   0.197  0.1066  0.6843 -0.4625
 3700TIP3   OH232658   4.362   4.678   2.650  0.2505  0.2929 -0.1013
 3700TIP3    H132659   4.369   4.678   2.555  1.7583  2.3480 -0.0451
 3700TIP3    H232660   4.452   4.667   2.682  0.3814  3.3383  0.9751
 3701TIP3   OH232661   6.321   0.687   7.921  0.0754  0.3287 -0.4248
 3701TIP3    H132662   6.358   0.775   7.927  0.5872  0.4347 -3.5002
 3701TIP3    H232663   6.397   0.628   7.925  0.1214  0.2650 -1.8567
 3702TIP3   OH232664   6.717   3.694   7.630  0.5943  0.5732  0.1118
 3702TIP3    H132665   6.665   3.659   7.557 -0.8534  1.2820  0.7632
 3702TIP3    H232666   6.750   3.778   7.597 -0.0742  0.9029  0.2588
 3703TIP3   OH232667   3.313   5.892   7.365  0.1527  0.0477  0.4490
 3703TIP3    H132668   3.341   5.829   7.298 -1.6261  0.1371 -0.4067
 3703TIP3    H232669   3.347   5.854   7.447 -1.0432 -2.1836 -0.0025
 3704TIP3   OH232670   0.874   6.035   2.222  0.1130  0.1761  0.1009
 3704TIP3    H132671   0.816   6.002   2.154 -0.1971 -0.2429  0.5588
 3704TIP3    H232672   0.823   6.028   2.303  0.7593 -0.1265  0.4979
 3705TIP3   OH232673   1.008   5.660   0.758 -0.1277  0.7272  0.3512
 3705TIP3    H132674   0.996   5.598   0.831 -0.0728 -1.7221 -1.6008
 3705TIP3    H232675   0.930   5.715   0.760 -0.2680  0.5225  2.0541
 3706TIP3   OH232676   3.801   5.854   7.886  0.2454  0.3240  0.2478
 3706TIP3    H132677   3.845   5.820   7.808 -0.8027  0.1398 -0.2761
 3706TIP3    H232678   3.799   5.949   7.872 -1.1027  0.1946 -0.5981
 3707TIP3   OH232679   5.296   1.295   1.135  0.2274  0.3415 -0.3863
 3707TIP3    H132680   5.250   1.259   1.211  1.6785  1.2885  1.0163
 3707TIP3    H232681   5.338   1.374   1.168  2.0891  0.0082 -1.8128
 3708TIP3   OH232682   3.760   1.603   1.412  0.2917  0.3639  0.0733
 3708TIP3    H132683   3.772   1.674   1.349 -0.3524  1.6281  1.3093
 3708TIP3    H232684   3.837   1.607   1.469  0.5346 -0.3103 -0.2041
 3709TIP3   OH232685   6.665   0.718   7.798  0.7721 -0.1493 -0.2000
 3709TIP3    H132686   6.617   0.793   7.834  1.6920  0.1437  0.4503
 3709TIP3    H232687   6.633   0.643   7.847  0.6564 -0.0225 -0.0785
 3710TIP3   OH232688   2.363   3.302   0.380  0.3094  0.0077  0.7365
 3710TIP3    H132689   2.335   3.291   0.289  0.7239  0.4049  0.5568
 3710TIP3    H232690   2.408   3.387   0.381  0.5155 -0.1064  1.2597
 3711TIP3   OH232691   6.485   1.447   0.019 -0.3470  0.3777 -0.2602
 3711TIP3    H132692   6.391   1.438   0.031 -0.1793 -0.6170  0.4056
 3711TIP3    H232693   6.494   1.512  -0.051 -1.4974  1.2564  0.3651
 3712TIP3   OH232694   5.122   0.121   1.116 -0.0389  0.3259  0.5397
 3712TIP3    H132695   5.065   0.064   1.064 -0.0492  1.2706 -0.5404
 3712TIP3    H232696   5.104   0.209   1.083  1.1757  0.7752  1.0121
 3713TIP3   OH232697   6.286   0.665   1.103  0.0695 -0.8967  0.3404
 3713TIP3    H132698   6.210   0.683   1.047 -0.3676  0.8200  1.4176
 3713TIP3    H232699   6.250   0.661   1.192  1.3749  1.5156  1.0710
 3714TIP3   OH232700   2.368   1.178   7.835 -0.0382 -0.6477  0.0289
 3714TIP3    H132701   2.294   1.210   7.888  2.0145 -0.9528  3.4172
 3714TIP3    H232702   2.435   1.246   7.845  0.7514 -1.1600 -1.5172
 3715TIP3   OH232703   0.838   4.004   8.391  0.0622 -0.1885  0.3995
 3715TIP3    H132704   0.875   4.084   8.428  0.3872 -0.2595  0.2252
 3715TIP3    H232705   0.753   4.031   8.357  0.2799  0.1410  0.1074
 3716TIP3   OH232706   3.140   6.753   1.718 -0.0878  0.0448 -0.2355
 3716TIP3    H132707   3.130   6.712   1.632 -0.2530 -1.2442  0.3723
 3716TIP3    H232708   3.060   6.729   1.766 -0.0847  0.9004  0.2242
 3717TIP3   OH232709   3.746   4.329   0.277  0.4220  1.0739  0.0717
 3717TIP3    H132710   3.685   4.312   0.206  0.2615 -2.6553  0.9331
 3717TIP3    H232711   3.690   4.343   0.354  0.4207 -2.8481  0.9680
 3718TIP3   OH232712   1.703   5.970   1.094  0.4219 -0.2049 -0.4215
 3718TIP3    H132713   1.692   5.998   1.003  1.6167  1.3089 -0.1398
 3718TIP3    H232714   1.763   6.034   1.132  0.2348 -1.0146  1.3485
 3719TIP3   OH232715   2.755   3.863   0.572  0.0985 -0.5439  0.2129
 3719TIP3    H132716   2.798   3.787   0.533 -0.2657  0.4336 -2.2901
 3719TIP3    H232717   2.662   3.851   0.554  0.1645  1.0970 -1.4706
 3720TIP3   OH232718   0.473   0.452   1.139 -0.3439  0.0106  0.1402
 3720TIP3    H132719   0.546   0.494   1.092  0.7159 -1.1916  0.6534
 3720TIP3    H232720   0.396   0.469   1.084  0.9382 -1.9617 -2.5232
 3721TIP3   OH232721   4.096   3.865   3.013  0.1879 -0.4205 -0.0001
 3721TIP3    H132722   4.146   3.861   3.095 -0.2490 -1.8117  0.2110
 3721TIP3    H232723   4.149   3.815   2.951  0.7582  1.0319 -0.7337
 3722TIP3   OH232724   0.092   4.790   1.361  0.4673 -0.3271 -0.2348
 3722TIP3    H132725   0.172   4.794   1.413  0.0223  2.3481  0.3688
 3722TIP3    H232726   0.114   4.836   1.280 -0.3143 -0.0284 -0.2844
 3723TIP3   OH232727   5.143   5.798   2.449  0.1450 -0.1056  0.5699
 3723TIP3    H132728   5.204   5.867   2.422  0.0484  0.0267  0.6889
 3723TIP3    H232729   5.162   5.725   2.390 -0.3243  0.3180 -0.1235
 3724TIP3   OH232730   0.251   6.114   2.871 -0.5452 -0.4817 -0.3184
 3724TIP3    H132731   0.168   6.095   2.914 -0.9578 -0.5325 -1.1133
 3724TIP3    H232732   0.256   6.050   2.800  0.9867 -1.6065  0.7381
 3725TIP3   OH232733   5.263   4.213   2.536  0.1519  0.7980  0.0953
 3725TIP3    H132734   5.289   4.122   2.548  1.7248  0.9368 -1.7709
 3725TIP3    H232735   5.203   4.230   2.609  1.2345 -1.1512  1.5604
 3726TIP3   OH232736   2.232   2.636   1.941  0.1616 -0.8685 -0.4573
 3726TIP3    H132737   2.305   2.591   1.983 -1.7360 -3.0033  0.7529
 3726TIP3    H232738   2.253   2.729   1.949  1.4658 -1.3078  2.3209
 3727TIP3   OH232739   5.026   1.528   0.282 -0.2201 -0.5330  0.0898
 3727TIP3    H132740   4.995   1.583   0.211 -0.8138 -0.6298  0.2689
 3727TIP3    H232741   5.013   1.580   0.361  0.6213 -0.3474  0.1189
 3728TIP3   OH232742   2.216   4.004   8.192  1.0654  0.5737  0.6271
 3728TIP3    H132743   2.284   4.055   8.148  1.1096  0.5444  0.6625
 3728TIP3    H232744   2.145   4.067   8.207  0.1444  0.1185 -1.4546
 3729TIP3   OH232745   0.147   2.551   0.109 -0.3664  0.0858 -0.0223
 3729TIP3    H132746   0.174   2.463   0.083  0.4869 -0.1122  1.4166
 3729TIP3    H232747   0.202   2.571   0.185 -1.9615  1.0405  0.9362
 3730TIP3   OH232748   3.873   5.144   2.885 -0.5485  0.4835  0.0752
 3730TIP3    H132749   3.812   5.071   2.895  1.6255 -1.4422 -0.0599
 3730TIP3    H232750   3.906   5.160   2.974  1.1727 -0.7446 -0.3018
 3731TIP3   OH232751   0.668   5.327   8.075  1.0336 -0.1628 -0.2400
 3731TIP3    H132752   0.605   5.285   8.017  1.0776 -0.3501 -0.1541
 3731TIP3    H232753   0.683   5.413   8.037 -0.0569  0.2805  0.3058
 3732TIP3   OH232754   5.797   6.545   1.781  0.2310 -0.0588 -0.5683
 3732TIP3    H132755   5.864   6.528   1.715 -0.1047  1.3077 -1.2979
 3732TIP3    H232756   5.715   6.546   1.733  0.1559  2.9688 -0.5945
 3733TIP3   OH232757   2.703   0.737   0.213 -0.1884  0.3224  0.0771
 3733TIP3    H132758   2.681   0.763   0.123  0.8169  1.5185  0.1486
 3733TIP3    H232759   2.705   0.820   0.262  1.4121 -0.0520  0.7169
 3734TIP3   OH232760   0.312   3.052   3.099 -0.5290  0.1787 -0.5618
 3734TIP3    H132761   0.307   3.077   3.191 -2.9809  2.1902 -1.1064
 3734TIP3    H232762   0.302   2.957   3.099 -2.4341  0.3132  1.2010
 3735TIP3   OH232763   5.894   1.544   2.677 -0.1283  0.8365 -0.0745
 3735TIP3    H132764   5.950   1.518   2.751  0.6674 -0.1136 -0.9858
 3735TIP3    H232765   5.853   1.626   2.706 -1.8443 -0.7722  2.4694
 3736TIP3   OH232766   1.889   0.754   3.002  0.0215  0.4593  0.0714
 3736TIP3    H132767   1.802   0.723   3.028  0.1205 -0.1886 -0.3441
 3736TIP3    H232768   1.905   0.830   3.058  0.4454 -1.1833  2.3262
 3737TIP3   OH232769   4.332   4.908   1.511  0.3021 -0.1742  0.0884
 3737TIP3    H132770   4.378   4.874   1.588 -1.4064 -0.0742  1.2003
 3737TIP3    H232771   4.255   4.952   1.547 -0.5718 -0.1881 -1.6924
 3738TIP3   OH232772   3.434   2.371   1.771 -0.1266 -0.3458 -0.1323
 3738TIP3    H132773   3.469   2.450   1.813  0.4513 -1.0006  0.6574
 3738TIP3    H232774   3.339   2.382   1.774 -0.0985 -0.3520  1.3224
 3739TIP3   OH232775   6.281   1.673   1.018  0.6078 -0.1611 -0.2143
 3739TIP3    H132776   6.241   1.604   1.070 -2.1453  1.1823 -0.3597
 3739TIP3    H232777   6.236   1.667   0.933  1.0992  1.1222 -0.5805
 3740TIP3   OH232778   6.513   1.321   1.290 -0.0670  0.1388 -0.2209
 3740TIP3    H132779   6.493   1.414   1.279  0.8139  0.4849  0.9338
 3740TIP3    H232780   6.458   1.294   1.364 -1.3877 -0.6434 -1.4299
 3741TIP3   OH232781   3.138   0.529   2.098  0.6044 -0.1158  0.5081
 3741TIP3    H132782   3.224   0.559   2.067  0.6883  1.2055  1.9011
 3741TIP3    H232783   3.127   0.571   2.183  0.0112 -2.8551  1.9185
 3742TIP3   OH232784   3.345   1.963   1.709  0.0555  0.2349 -0.3885
 3742TIP3    H132785   3.299   1.933   1.630 -1.6687 -0.7415  0.9046
 3742TIP3    H232786   3.419   2.012   1.676 -0.3130 -0.5717 -2.6295
 3743TIP3   OH232787   3.611   0.878   0.644  0.7580  0.2314  0.2961
 3743TIP3    H132788   3.574   0.947   0.698  0.1362  0.9759 -1.0349
 3743TIP3    H232789   3.706   0.894   0.646  0.8399 -0.2670  1.8094
 3744TIP3   OH232790   6.218   6.817   1.449  0.1661  0.2316 -0.0494
 3744TIP3    H132791   6.264   6.765   1.515 -1.0201 -1.0303 -0.1668
 3744TIP3    H232792   6.285   6.839   1.384  0.7868 -0.8017  0.2191
 3745TIP3   OH232793   5.230   2.991   7.513  0.0242 -0.9375  0.6587
 3745TIP3    H132794   5.306   2.954   7.557 -0.2247 -0.9030  1.1256
 3745TIP3    H232795   5.179   3.031   7.583 -1.1755 -2.2422  0.5758
 3746TIP3   OH232796   2.224   4.712   1.572 -0.3451 -0.0383  0.2776
 3746TIP3    H132797   2.196   4.635   1.621  2.0606 -0.2112  1.5676
 3746TIP3    H232798   2.320   4.705   1.570  0.0529  3.3509  1.2616
 3747TIP3   OH232799   2.929   5.620   2.310 -0.6073  0.0028  0.6286
 3747TIP3    H132800   2.842   5.656   2.296 -0.0362  0.9907 -0.4850
 3747TIP3    H232801   2.980   5.649   2.235  0.4592 -1.3291  0.7965
 3748TIP3   OH232802   2.126   1.263   2.615  0.4309 -0.4940 -0.2601
 3748TIP3    H132803   2.059   1.202   2.646  1.7589 -2.0505 -0.3066
 3748TIP3    H232804   2.202   1.207   2.596  1.5561  1.1368 -0.7447
 3749TIP3   OH232805   0.354   2.479   0.294 -0.7315  0.2206 -0.4082
 3749TIP3    H132806   0.340   2.390   0.262  0.8344 -0.4161  0.5595
 3749TIP3    H232807   0.443   2.502   0.265 -0.9914  1.3523 -0.3731
 3750TIP3   OH232808   1.532   2.805   0.882  0.0984 -0.2432  0.0818
 3750TIP3    H132809   1.521   2.710   0.869 -2.2402  0.0879 -0.7557
 3750TIP3    H232810   1.613   2.812   0.932  0.8738 -2.6243 -0.6672
 3751TIP3   OH232811   6.291   3.598   2.203  0.0669  0.3721  0.2995
 3751TIP3    H132812   6.338   3.682   2.207 -0.5783  0.7193  0.9547
 3751TIP3    H232813   6.273   3.577   2.295 -1.3982  0.4562  0.0535
 3752TIP3   OH232814   1.096   3.905   8.381  0.1385  0.1583 -0.1564
 3752TIP3    H132815   1.007   3.940   8.379  0.1618  0.1805 -1.3146
 3752TIP3    H232816   1.125   3.907   8.290  1.7898  1.3163  0.3451
 3753TIP3   OH232817   2.564   4.083   0.802  0.3191  0.7662  0.0038
 3753TIP3    H132818   2.516   4.001   0.789  0.9232  0.5263 -0.7994
 3753TIP3    H232819   2.504   4.138   0.852 -0.7984  0.4726 -0.9714
 3754TIP3   OH232820   4.903   3.493   2.883  0.1002 -0.1348 -0.2895
 3754TIP3    H132821   4.916   3.559   2.951 -0.2300  0.4603 -0.7987
 3754TIP3    H232822   4.991   3.473   2.852  0.0763  2.4151 -2.3355
 3755TIP3   OH232823   6.981   0.118   0.315 -0.0985  0.1280 -0.0033
 3755TIP3    H132824   7.046   0.112   0.245  1.2328 -0.1782  1.2261
 3755TIP3    H232825   7.026   0.087   0.393 -1.7723 -0.2204  0.8766
 3756TIP3   OH232826   5.245   0.901   0.039  0.3449 -0.2203 -0.0548
 3756TIP3    H132827   5.161   0.856   0.041  0.1482  0.1571  0.2953
 3756TIP3    H232828   5.288   0.876   0.120  0.1676  0.3416  0.2184
 3757TIP3   OH232829   4.512   4.413   2.308 -0.2169  0.0127  0.4312
 3757TIP3    H132830   4.574   4.461   2.364 -0.3767  0.0986  0.5339
 3757TIP3    H232831   4.510   4.325   2.345  2.0339 -0.8539 -1.2593
 3758TIP3   OH232832   5.239   3.119   2.174 -0.4459 -0.3456  0.3556
 3758TIP3    H132833   5.173   3.183   2.148 -0.7132 -1.6732 -2.5356
 3758TIP3    H232834   5.190   3.040   2.195  0.1256 -0.8844 -0.3096
 3759TIP3   OH232835   0.028   6.936   0.523  0.2238  0.2342  0.5397
 3759TIP3    H132836   0.065   6.901   0.442 -0.7275  0.6232 -0.0822
 3759TIP3    H232837  -0.063   6.906   0.523  0.2159  0.2285  1.4737
 3760TIP3   OH232838   5.433   0.429   7.459  0.1201  0.0381  0.2106
 3760TIP3    H132839   5.470   0.492   7.397  0.6662  1.5544  1.9928
 3760TIP3    H232840   5.461   0.344   7.427 -0.3255  0.6913 -2.0770
 3761TIP3   OH232841   6.325   0.501   7.668  0.8024 -0.3068 -0.4693
 3761TIP3    H132842   6.338   0.515   7.762 -1.3099 -3.8076  0.5428
 3761TIP3    H232843   6.407   0.464   7.638  0.8025 -1.1737  0.5400
 3762TIP3   OH232844   2.422   5.946   0.262 -0.1981  0.1095 -0.4578
 3762TIP3    H132845   2.478   5.993   0.200 -0.7145  2.4317  0.7071
 3762TIP3    H232846   2.476   5.874   0.294  0.0414 -1.2914 -3.6069
 3763TIP3   OH232847   4.396   2.304   0.422 -0.0584 -0.6658 -0.2350
 3763TIP3    H132848   4.457   2.269   0.357  2.3111  4.5681 -1.4050
 3763TIP3    H232849   4.445   2.306   0.504  1.1534  2.3663 -0.8938
 3764TIP3   OH232850   3.873   3.869   0.388  0.7289  0.4265  0.4744
 3764TIP3    H132851   3.788   3.907   0.411 -0.5388 -2.2754  0.5764
 3764TIP3    H232852   3.923   3.874   0.470  0.9114  2.5121  0.2773
 3765TIP3   OH232853   6.501   0.143   2.663  0.3004  0.2023 -0.7377
 3765TIP3    H132854   6.499   0.214   2.599  1.4160 -0.3034 -1.3729
 3765TIP3    H232855   6.593   0.116   2.665  0.2945  0.1945  1.0830
 3766TIP3   OH232856   4.494   6.666   0.171 -0.4555 -0.2326 -0.2320
 3766TIP3    H132857   4.527   6.675   0.082 -0.8597  0.6234 -0.3034
 3766TIP3    H232858   4.482   6.756   0.202  2.0931 -0.4154  1.6106
 3767TIP3   OH232859   0.669   0.448   7.922 -0.0270 -0.1534 -0.2137
 3767TIP3    H132860   0.618   0.374   7.888  1.4025 -2.2578  1.8441
 3767TIP3    H232861   0.627   0.526   7.886 -2.7401 -1.8867 -1.0544
 3768TIP3   OH232862   0.570   5.449   1.999  0.5171  0.4672 -0.0218
 3768TIP3    H132863   0.611   5.478   1.918 -1.5167  0.2337 -1.2022
 3768TIP3    H232864   0.508   5.382   1.972 -0.9811  1.1191  1.5712
 3769TIP3   OH232865   1.701   5.058   2.310  0.1253  0.8034  0.3256
 3769TIP3    H132866   1.702   5.124   2.240  1.1434  1.9389  1.3640
 3769TIP3    H232867   1.732   4.978   2.268  0.6096  1.4332 -0.5488
 3770TIP3   OH232868   5.699   0.718   2.108  0.4532  0.1967  0.1360
 3770TIP3    H132869   5.717   0.625   2.095 -1.3640 -0.0495 -0.7916
 3770TIP3    H232870   5.757   0.743   2.181  3.0531 -0.9441 -1.3785
 3771TIP3   OH232871   0.347   3.326   7.456  0.0456 -0.0965  0.3984
 3771TIP3    H132872   0.422   3.361   7.505 -0.3990  1.9084 -0.2569
 3771TIP3    H232873   0.361   3.356   7.366 -0.0943 -2.1738 -0.3673
 3772TIP3   OH232874   4.413   6.931   0.785 -0.5889 -0.1934 -0.1266
 3772TIP3    H132875   4.450   6.885   0.861 -1.0031  0.5750  0.5566
 3772TIP3    H232876   4.371   6.862   0.733 -1.4979 -0.5716  1.0566
 3773TIP3   OH232877   3.535   2.081   7.551  0.0895 -0.0002 -0.2295
 3773TIP3    H132878   3.482   2.082   7.471 -2.7104  0.4337  1.4783
 3773TIP3    H232879   3.523   1.993   7.585  0.6544  0.0440  0.0787
 3774TIP3   OH232880   6.302   4.463   1.384 -0.5421 -0.1986 -0.5477
 3774TIP3    H132881   6.361   4.418   1.325 -0.2736  2.9478 -2.9022
 3774TIP3    H232882   6.330   4.554   1.382 -0.0327  0.1304  5.1359
 3775TIP3   OH232883   1.285   1.118   0.053 -0.4996 -0.5242  0.5778
 3775TIP3    H132884   1.214   1.058   0.076 -0.7009 -0.2542  0.6632
 3775TIP3    H232885   1.358   1.091   0.109 -0.5074 -0.8542  0.4305
 3776TIP3   OH232886   6.002   1.256   1.262 -0.6885 -0.3334  0.6631
 3776TIP3    H132887   5.934   1.264   1.195 -0.4485  1.2901  0.5731
 3776TIP3    H232888   5.997   1.165   1.290 -0.6730 -1.1476 -1.7017
 3777TIP3   OH232889   3.434   0.595   0.015 -0.2133 -0.4879  0.6929
 3777TIP3    H132890   3.402   0.680  -0.016  2.7892  0.5928  0.2194
 3777TIP3    H232891   3.376   0.573   0.088 -2.6474  0.6716 -0.7630
 3778TIP3   OH232892   3.355   4.354   1.599 -0.0063  0.1484 -0.3204
 3778TIP3    H132893   3.301   4.317   1.529 -0.3971  2.5584 -1.3776
 3778TIP3    H232894   3.315   4.320   1.680 -0.4959 -1.4333 -1.1838
 3779TIP3   OH232895   6.595   5.562   0.032 -0.1408 -0.0796 -0.2923
 3779TIP3    H132896   6.537   5.525   0.098 -1.0882 -0.1991 -1.1658
 3779TIP3    H232897   6.668   5.500   0.026  0.5391  0.4918  1.4079
 3780TIP3   OH232898   0.152   0.248   1.161  0.3954  0.3996  0.0411
 3780TIP3    H132899   0.164   0.339   1.186 -0.6997  0.6533 -0.2925
 3780TIP3    H232900   0.117   0.252   1.072 -0.0573 -0.3202  0.1729
 3781TIP3   OH232901   6.243   2.618   2.567 -0.2225 -0.3816  0.3050
 3781TIP3    H132902   6.194   2.536   2.571 -0.2048 -0.5911 -2.2225
 3781TIP3    H232903   6.177   2.686   2.579 -1.1389 -0.6803 -2.3762
 3782TIP3   OH232904   6.117   3.787   0.001  0.0245  0.1896 -0.8984
 3782TIP3    H132905   6.022   3.794   0.007 -0.1336 -2.1927  2.1522
 3782TIP3    H232906   6.135   3.778  -0.092 -2.8041  0.1352 -1.5283
 3783TIP3   OH232907   0.199   3.210   0.787 -0.5055 -0.6397 -0.0429
 3783TIP3    H132908   0.268   3.231   0.850  0.7358  1.6001 -1.9881
 3783TIP3    H232909   0.122   3.255   0.821 -0.4801 -1.3885  1.0484
 3784TIP3   OH232910   6.317   4.515   1.883 -0.4027 -0.2024 -0.0847
 3784TIP3    H132911   6.263   4.570   1.940 -0.0760  0.9537 -0.8341
 3784TIP3    H232912   6.296   4.425   1.909 -3.0258  0.1587 -0.6366
 3785TIP3   OH232913   5.603   0.239   1.335 -0.2424  0.0307  0.4331
 3785TIP3    H132914   5.519   0.197   1.315 -0.7481  1.1086  0.2587
 3785TIP3    H232915   5.611   0.233   1.430 -0.5559 -0.0047  0.4581
 3786TIP3   OH232916   5.617   6.645   2.224  0.6910 -0.0660 -0.1075
 3786TIP3    H132917   5.670   6.602   2.156 -0.3578 -0.9636 -0.3760
 3786TIP3    H232918   5.574   6.573   2.270 -2.8352  0.6508 -1.9544
 3787TIP3   OH232919   6.624   0.464   7.573  0.2929 -0.2519 -0.1882
 3787TIP3    H132920   6.641   0.417   7.655  0.7568  0.3965  0.0909
 3787TIP3    H232921   6.618   0.395   7.507  0.4841 -0.7375  0.2957
 3788TIP3   OH232922   0.113   1.101   2.352 -0.3646 -0.2206  0.1260
 3788TIP3    H132923   0.042   1.048   2.316  1.4275 -2.3673 -0.5113
 3788TIP3    H232924   0.173   1.114   2.279  1.1152 -0.7038  1.1942
 3789TIP3   OH232925   5.769   0.050   8.260 -0.1034  0.9070 -0.5086
 3789TIP3    H132926   5.692   0.063   8.204 -1.8681 -2.6480  0.7689
 3789TIP3    H232927   5.838   0.021   8.200 -1.5099 -1.3291 -1.1864
 3790TIP3   OH232928   5.035   5.673   0.819  0.1521 -0.0411 -0.1905
 3790TIP3    H132929   5.057   5.724   0.742  2.8653 -0.7844  0.0059
 3790TIP3    H232930   5.042   5.582   0.791 -0.8176 -0.3313  0.4506
 3791TIP3   OH232931   5.560   1.551   2.158 -0.4676 -0.5051 -0.6846
 3791TIP3    H132932   5.613   1.523   2.233 -0.4683 -0.2656 -0.5961
 3791TIP3    H232933   5.495   1.610   2.195 -0.2587 -0.1234 -0.9203
 3792TIP3   OH232934   0.915   0.954   1.381  0.0732  0.0142  0.3332
 3792TIP3    H132935   0.945   1.036   1.342  4.5461 -2.6532 -2.8139
 3792TIP3    H232936   0.848   0.922   1.321 -0.2180  0.4470  0.4288
 3793TIP3   OH232937   4.348   5.194   1.619 -0.2835  0.0713 -0.1650
 3793TIP3    H132938   4.305   5.178   1.534  0.4014 -2.1003 -0.1374
 3793TIP3    H232939   4.302   5.271   1.654 -1.2216  0.4401 -2.0606
 3794TIP3   OH232940   3.315   2.156   0.291  0.3321 -0.3175  0.3237
 3794TIP3    H132941   3.244   2.167   0.354 -2.3161 -1.0681 -2.2958
 3794TIP3    H232942   3.295   2.219   0.221  0.7692 -2.2477 -1.6524
 3795TIP3   OH232943   6.609   3.272   1.075  0.1118  0.1298  0.5143
 3795TIP3    H132944   6.552   3.341   1.040  1.1058  0.2679 -0.9208
 3795TIP3    H232945   6.698   3.302   1.055  0.5867 -1.2636  0.4448
 3796TIP3   OH232946   6.734   0.902   0.537 -0.2284 -0.2037 -0.0708
 3796TIP3    H132947   6.723   0.933   0.627  0.2197 -0.0031 -0.0811
 3796TIP3    H232948   6.654   0.928   0.492  0.8354  2.5197 -0.5245
 3797TIP3   OH232949   1.784   0.945   1.872 -0.4272  0.1883 -0.0606
 3797TIP3    H132950   1.871   0.913   1.849 -0.9400 -1.3176 -0.0162
 3797TIP3    H232951   1.760   1.004   1.800  1.5528  2.5842  1.0838
 3798TIP3   OH232952   3.123   3.764   2.593 -0.1447  0.2493  0.5451
 3798TIP3    H132953   3.096   3.828   2.659  0.5980 -0.6133  1.7342
 3798TIP3    H232954   3.218   3.758   2.603  0.1136  0.7208 -1.2226
 3799TIP3   OH232955   1.207   5.077   0.420 -0.1715 -0.3957 -0.3171
 3799TIP3    H132956   1.167   5.156   0.459  2.4211  0.3140  1.1083
 3799TIP3    H232957   1.144   5.051   0.352 -1.0286  3.0788 -1.1062
 3800TIP3   OH232958   6.532   4.017   0.631  0.7328  0.6948  0.0166
 3800TIP3    H132959   6.613   3.969   0.646  0.4008  0.2984  0.5267
 3800TIP3    H232960   6.486   3.967   0.563  1.5540  1.6911 -1.3475
 3801TIP3   OH232961   4.653   2.666   7.786 -0.5360 -0.4881 -0.1572
 3801TIP3    H132962   4.715   2.593   7.788 -0.0858 -0.1206 -0.4655
 3801TIP3    H232963   4.692   2.733   7.842 -0.5843 -0.2032 -0.4588
 3802TIP3   OH232964   4.567   6.153   1.856  0.5918  0.0843 -0.1600
 3802TIP3    H132965   4.571   6.110   1.941  2.0146  1.2712  0.4085
 3802TIP3    H232966   4.473   6.163   1.839  0.2487 -2.0333  0.2676
 3803TIP3   OH232967   4.031   1.305   8.331 -0.0542 -0.2724  0.0582
 3803TIP3    H132968   4.056   1.383   8.282 -0.9384 -1.3295 -2.2563
 3803TIP3    H232969   4.005   1.337   8.417  0.3695  1.8585 -0.5449
 3804TIP3   OH232970   6.587   3.724   1.352 -0.0751 -0.0131 -0.1256
 3804TIP3    H132971   6.643   3.790   1.392  1.0792 -2.1117  1.9813
 3804TIP3    H232972   6.498   3.753   1.372  0.3492  1.4808 -0.2990
 3805TIP3   OH232973   2.635   6.416   1.322  0.4785 -0.3672  0.3073
 3805TIP3    H132974   2.692   6.419   1.245  0.5639  0.6589  0.3933
 3805TIP3    H232975   2.685   6.365   1.386  0.6452 -0.7578 -0.1267
 3806TIP3   OH232976   6.837   3.878   7.834  0.1733  0.3175  0.0968
 3806TIP3    H132977   6.819   3.795   7.790 -0.1480  0.7526 -0.6165
 3806TIP3    H232978   6.918   3.862   7.883 -1.5439 -1.3917  2.5824
 3807TIP3   OH232979   3.487   4.456   0.920 -0.0973 -0.2225  0.5387
 3807TIP3    H132980   3.458   4.531   0.869  1.3842  0.3814  0.5425
 3807TIP3    H232981   3.500   4.490   1.008 -1.3470 -0.9579  1.0327
 3808TIP3   OH232982   5.522   3.633   1.528 -0.0468 -0.4986 -0.4230
 3808TIP3    H132983   5.597   3.676   1.486 -0.0062  0.0842  0.2309
 3808TIP3    H232984   5.543   3.540   1.526  0.0162 -0.4688 -1.5681
 3809TIP3   OH232985   0.154   6.518   0.778 -0.3743 -0.3648 -0.7867
 3809TIP3    H132986   0.131   6.540   0.688 -0.4540 -0.3589 -0.7651
 3809TIP3    H232987   0.071   6.520   0.825 -0.0137  2.5192 -0.0873
 3810TIP3   OH232988   2.655   1.399   1.145 -0.2514  0.2370 -0.1540
 3810TIP3    H132989   2.688   1.484   1.116  1.3288  0.4755  2.0319
 3810TIP3    H232990   2.693   1.336   1.084 -0.2914  0.9692 -0.9549
 3811TIP3   OH232991   3.553   6.686   2.176 -0.1891 -0.4906  0.5854
 3811TIP3    H132992   3.618   6.631   2.132 -0.0569  1.3618 -1.7186
 3811TIP3    H232993   3.469   6.647   2.153 -0.0380 -0.6889  0.3612
 3812TIP3   OH232994   5.373   4.128   1.005  0.4381 -0.9513 -0.4521
 3812TIP3    H132995   5.304   4.063   0.992 -0.0445 -0.2966 -1.2999
 3812TIP3    H232996   5.445   4.079   1.043  0.1109 -2.0041 -1.1296
 3813TIP3   OH232997   4.170   1.300   1.257  0.3797  0.4671 -0.0510
 3813TIP3    H132998   4.097   1.249   1.223 -0.6398  0.8157  1.5339
 3813TIP3    H232999   4.206   1.248   1.328 -0.4953  1.7602  1.4020
 3814TIP3   OH233000   3.330   0.705   8.111  0.3192 -0.4989  0.0850
 3814TIP3    H133001   3.306   0.613   8.099  1.1739 -0.6447 -0.5907
 3814TIP3    H233002   3.293   0.749   8.034 -0.3918 -0.2063  0.5833
 3815TIP3   OH233003   3.547   5.450   1.878 -0.7239 -0.1697  0.6600
 3815TIP3    H133004   3.636   5.443   1.911 -0.2109 -0.8676 -0.7673
 3815TIP3    H233005   3.492   5.456   1.956  0.5046 -0.5559  1.5782
 3816TIP3   OH233006   6.086   0.564   1.676  0.0623  0.4335  0.7155
 3816TIP3    H133007   6.031   0.513   1.617  0.4648  1.7212 -0.8418
 3816TIP3    H233008   6.160   0.506   1.695  0.4313  0.3428 -0.8779
 3817TIP3   OH233009   2.247   3.899   0.240 -0.0028  0.1343  0.1467
 3817TIP3    H133010   2.308   3.890   0.166  1.7696  2.8902  1.1000
 3817TIP3    H233011   2.292   3.857   0.313 -0.2326  0.3186  0.3947
 3818TIP3   OH233012   5.240   6.565   0.633  0.4458  0.6823  0.4079
 3818TIP3    H133013   5.174   6.505   0.667  1.1295 -1.4650 -1.7748
 3818TIP3    H233014   5.306   6.570   0.702  0.0891 -0.6380  0.8667
 3819TIP3   OH233015   3.035   6.296   0.975  0.0175 -0.5797 -0.0430
 3819TIP3    H133016   2.948   6.259   0.991 -0.7126  1.0523 -0.0940
 3819TIP3    H233017   3.040   6.305   0.880 -0.3570  0.6851  0.0449
 3820TIP3   OH233018   0.268   5.627   1.394 -0.6380 -0.4017  0.0159
 3820TIP3    H133019   0.347   5.682   1.389  0.6611 -2.1787 -0.0799
 3820TIP3    H233020   0.250   5.604   1.302 -1.3356  0.0863  0.0302
 3821TIP3   OH233021   2.786   5.815   7.706 -0.2139 -0.2831  0.3396
 3821TIP3    H133022   2.716   5.770   7.755 -2.2164 -0.2140 -2.2705
 3821TIP3    H233023   2.772   5.907   7.726 -1.8188 -0.1421 -1.1999
 3822TIP3   OH233024   3.337   4.164   8.359 -0.2609 -0.2771  0.1853
 3822TIP3    H133025   3.296   4.173   8.273  0.9581  0.3156 -0.3524
 3822TIP3    H233026   3.264   4.142   8.418 -0.9759 -1.5341 -1.1244
 3823TIP3   OH233027   5.331   0.093   2.543  0.4459  0.1583  0.2910
 3823TIP3    H133028   5.421   0.112   2.569  0.2235 -0.7820  1.9117
 3823TIP3    H233029   5.340   0.037   2.466  1.1838  1.5991 -0.7047
 3824TIP3   OH233030   3.765   0.618   1.353 -0.5254  0.1211 -0.5598
 3824TIP3    H133031   3.738   0.527   1.363 -1.3844  0.5316  1.3348
 3824TIP3    H233032   3.810   0.639   1.434 -2.4619  2.0268  0.1259
 3825TIP3   OH233033   4.862   1.464   0.707  0.0802  0.1812 -0.0096
 3825TIP3    H133034   4.911   1.530   0.657 -0.9723  0.0898 -1.2274
 3825TIP3    H233035   4.802   1.514   0.761 -0.5347  0.2457 -0.7379
 3826TIP3   OH233036   5.766   0.445   2.007 -0.1287  0.2385  0.3525
 3826TIP3    H133037   5.699   0.439   1.939 -1.3941 -0.3561  1.5950
 3826TIP3    H233038   5.836   0.388   1.977 -0.3241  0.5797 -0.8007
 3827TIP3   OH233039   3.269   3.833   1.261  0.2321  0.1160 -0.5329
 3827TIP3    H133040   3.295   3.771   1.329  0.6971 -0.5708 -1.3204
 3827TIP3    H233041   3.206   3.785   1.208  0.6643  0.2841 -1.2025
 3828TIP3   OH233042   2.943   3.497   1.653  0.0650 -0.7375 -0.6603
 3828TIP3    H133043   2.855   3.525   1.630 -0.6205 -0.9579  1.5242
 3828TIP3    H233044   2.931   3.418   1.706  1.5268 -0.4840  0.1168
 3829TIP3   OH233045   2.087   4.195   7.781  0.0335 -0.1055 -0.5360
 3829TIP3    H133046   2.069   4.105   7.755 -1.5960 -0.4771  1.5994
 3829TIP3    H233047   2.034   4.248   7.722 -1.2058 -0.7304 -0.0114
 3830TIP3   OH233048   4.889   2.506   1.777 -0.2797  0.8131 -0.4577
 3830TIP3    H133049   4.804   2.467   1.796 -0.5210  1.8715  0.7360
 3830TIP3    H233050   4.896   2.502   1.681 -1.8413  1.0860 -0.6043
 3831TIP3   OH233051   5.257   5.705   7.075  0.3659  0.2279 -0.0489
 3831TIP3    H133052   5.268   5.691   7.169 -0.2395 -0.3639 -0.0565
 3831TIP3    H233053   5.199   5.634   7.047 -1.0841  1.5360 -0.5051
 3832TIP3   OH233054   2.504   2.047   0.285 -0.0820  0.4257  0.2393
 3832TIP3    H133055   2.526   2.113   0.219 -0.2743  0.1673 -0.0799
 3832TIP3    H233056   2.424   2.007   0.254  0.5293 -0.6024 -0.0407
 3833TIP3   OH233057   6.085   4.222   0.595  0.1145  0.1870 -0.1110
 3833TIP3    H133058   6.126   4.152   0.544  1.5250 -0.6274  1.9856
 3833TIP3    H233059   5.999   4.186   0.618  0.4655 -0.5148  0.1653
 3834TIP3   OH233060   1.882   2.834   0.401 -0.5898  0.4831  0.3987
 3834TIP3    H133061   1.872   2.901   0.467 -1.4645  0.5443  0.2219
 3834TIP3    H233062   1.960   2.859   0.352 -1.1545  1.6180  0.0555
 3835TIP3   OH233063   1.038   6.577   2.060  0.0926 -0.0701 -0.1319
 3835TIP3    H133064   1.071   6.525   1.986 -1.3738 -2.2410  0.6311
 3835TIP3    H233065   0.991   6.514   2.114 -0.1578  1.7435  1.9069
 3836TIP3   OH233066   4.427   6.706   1.874 -0.2416 -0.4022 -0.7010
 3836TIP3    H133067   4.420   6.728   1.967 -2.4387 -0.5107 -0.7686
 3836TIP3    H233068   4.501   6.757   1.842 -0.1069  0.4643  0.8926
 3837TIP3   OH233069   6.313   4.687   1.657  0.0963 -0.2315  0.2245
 3837TIP3    H133070   6.327   4.726   1.744  0.6862 -0.8449  0.4163
 3837TIP3    H233071   6.307   4.761   1.598  2.2429  0.1723  0.4216
 3838TIP3   OH233072   5.753   2.090   3.430 -0.0666  0.1650 -0.4714
 3838TIP3    H133073   5.810   2.058   3.360 -0.1964 -0.6121 -0.2251
 3838TIP3    H233074   5.778   2.039   3.507 -2.5262 -1.7500 -0.8288
 3839TIP3   OH233075   1.773   5.873   1.985 -0.4628  0.0462  0.0512
 3839TIP3    H133076   1.789   5.963   1.959  0.1008  0.1300  0.6604
 3839TIP3    H233077   1.859   5.830   1.978 -0.7166 -0.4383 -0.2071
 3840TIP3   OH233078   4.186   3.490   1.059  1.0721  0.3186 -0.1636
 3840TIP3    H133079   4.207   3.399   1.078  2.2717  0.0558 -2.4031
 3840TIP3    H233080   4.264   3.523   1.013 -0.5855  1.4731 -2.3361
 3841TIP3   OH233081   2.551   1.936   0.509  0.2515  0.1930 -0.3120
 3841TIP3    H133082   2.567   1.964   0.419  2.1084 -1.5081 -0.5663
 3841TIP3    H233083   2.485   1.867   0.502 -0.2911  0.6961 -0.2483
 3842TIP3   OH233084   2.252   3.648   0.846 -0.6103 -0.3866  0.0590
 3842TIP3    H133085   2.195   3.611   0.779 -0.6117  1.2295 -0.8857
 3842TIP3    H233086   2.194   3.664   0.920 -1.4634  1.2962 -0.9075
 3843TIP3   OH233087   2.849   1.810   3.359  0.1681 -0.0252  0.4122
 3843TIP3    H133088   2.840   1.724   3.317 -1.4661  0.6113 -0.5961
 3843TIP3    H233089   2.761   1.846   3.361  0.4214  0.6929  2.9468
 3844TIP3   OH233090   6.097   2.122   1.233  0.5613  0.0397  0.1995
 3844TIP3    H133091   6.065   2.191   1.292  0.8557  1.0042 -0.7325
 3844TIP3    H233092   6.190   2.141   1.224  0.8658 -1.1073  0.7209
 3845TIP3   OH233093   2.897   2.619   1.615 -0.0526 -0.0693 -0.3715
 3845TIP3    H133094   2.864   2.650   1.700 -0.1499  0.2301 -0.5174
 3845TIP3    H233095   2.830   2.559   1.584 -0.3208  0.3079 -0.5287
 3846TIP3   OH233096   0.663   6.294   3.132  0.1844  0.3566 -0.4377
 3846TIP3    H133097   0.662   6.344   3.050  1.0084  0.7600 -0.2078
 3846TIP3    H233098   0.610   6.346   3.193 -1.8941 -0.7769 -1.1624
 3847TIP3   OH233099   0.001   4.815   0.044  0.0450  0.2598  0.2258
 3847TIP3    H133100  -0.001   4.719   0.043 -0.4661  0.2340  1.3712
 3847TIP3    H233101   0.092   4.837   0.062  0.0562 -0.0377  0.5419
 3848TIP3   OH233102   6.782   3.433   1.764  0.0398 -0.2668  0.2456
 3848TIP3    H133103   6.748   3.344   1.755 -1.2437  0.2443 -0.1878
 3848TIP3    H233104   6.710   3.489   1.736  1.2160  0.8732 -0.6162
 3849TIP3   OH233105   3.791   1.004   7.765 -0.0084  0.6260  0.4029
 3849TIP3    H133106   3.738   0.943   7.713  0.3436  0.3307  0.3931
 3849TIP3    H233107   3.838   0.949   7.826 -0.4581  0.9780  1.0775
 3850TIP3   OH233108   0.992   5.698   1.548 -0.7106 -0.5797  0.1516
 3850TIP3    H133109   1.006   5.783   1.508 -0.1150 -0.5995  0.3108
 3850TIP3    H233110   1.062   5.689   1.612 -0.7089 -1.2295  0.0701
 3851TIP3   OH233111   4.364   1.414   8.055 -0.3057  0.2255 -0.8728
 3851TIP3    H133112   4.326   1.487   8.104 -2.4248 -1.2102 -0.2327
 3851TIP3    H233113   4.387   1.350   8.122  0.7182 -0.0598 -1.4787
 3852TIP3   OH233114   4.951   3.322   8.364  0.1671  0.1879  0.2462
 3852TIP3    H133115   4.896   3.278   8.428  0.3528  0.2747  0.4653
 3852TIP3    H233116   4.930   3.414   8.373  0.5870  0.2554  0.5612
 3853TIP3   OH233117   3.997   1.878   1.897  0.3536  0.3501  0.1014
 3853TIP3    H133118   4.073   1.918   1.938  2.0336 -1.5485 -0.9775
 3853TIP3    H233119   4.017   1.879   1.803 -1.3404  0.5183 -0.2980
 3854TIP3   OH233120   4.559   3.376   0.890  0.5246 -0.5487  0.1883
 3854TIP3    H133121   4.488   3.408   0.834  1.2335  2.0972  0.6536
 3854TIP3    H233122   4.632   3.359   0.830  0.8336  0.9255  0.1049
 3855TIP3   OH233123   6.879   3.383   7.987  0.1178 -0.2276 -0.4708
 3855TIP3    H133124   6.856   3.467   8.027  0.9051 -0.4917  0.5754
 3855TIP3    H233125   6.823   3.378   7.909 -0.2657  1.0538 -0.3081
 3856TIP3   OH233126   6.544   6.020   3.171  0.1975  0.4180 -0.1735
 3856TIP3    H133127   6.498   5.969   3.104  4.0640 -1.9581 -1.3486
 3856TIP3    H233128   6.575   6.098   3.125 -1.5898  1.4847  0.3476
 3857TIP3   OH233129   3.891   0.004   0.429 -0.3446 -0.1252  0.2697
 3857TIP3    H133130   3.821  -0.035   0.377 -0.1841 -1.9098  1.3120
 3857TIP3    H233131   3.856   0.004   0.519  0.9186 -0.9267  0.7843
 3858TIP3   OH233132   0.486   4.279   2.706  0.4543  0.4656 -0.3756
 3858TIP3    H133133   0.448   4.198   2.740  3.4415 -0.6706  0.5902
 3858TIP3    H233134   0.580   4.264   2.709  1.0592  3.1019 -2.5033
 3859TIP3   OH233135   2.286   0.955   1.610  0.2114 -0.1492 -0.4959
 3859TIP3    H133136   2.288   0.901   1.689  1.4247 -1.8278 -1.6045
 3859TIP3    H233137   2.373   0.943   1.572 -0.7175 -0.3055 -2.6749
 3860TIP3   OH233138   4.047   1.876   8.147  0.3240 -0.3861 -0.3742
 3860TIP3    H133139   4.006   1.863   8.233 -0.2119 -1.1062 -0.7354
 3860TIP3    H233140   4.075   1.968   8.148 -1.4440  0.1823 -0.1875
 3861TIP3   OH233141   5.174   0.385   7.314 -0.2292  1.1460  0.1934
 3861TIP3    H133142   5.128   0.460   7.351  0.7605  1.2634  1.2579
 3861TIP3    H233143   5.246   0.368   7.376  0.4696  0.2683 -0.8179
 3862TIP3   OH233144   6.561   6.472   0.726 -0.5648 -0.0427  0.2459
 3862TIP3    H133145   6.506   6.427   0.791 -0.9064 -1.7175 -1.1246
 3862TIP3    H233146   6.612   6.402   0.686  0.9165  1.1929 -0.1095
 3863TIP3   OH233147   6.877   2.421   1.267 -0.4412 -0.1649 -0.3346
 3863TIP3    H133148   6.893   2.468   1.185  1.8729  1.5014  0.9268
 3863TIP3    H233149   6.803   2.467   1.306  2.0039  3.0278  1.0519
 3864TIP3   OH233150   3.715   0.555   0.048 -0.4521  0.1869 -0.6670
 3864TIP3    H133151   3.628   0.557   0.009 -1.2257  0.4819  1.0026
 3864TIP3    H233152   3.733   0.646   0.072 -0.3154 -0.0841  0.3168
 3865TIP3   OH233153   5.608   0.106   1.913 -0.2556  0.3458  0.3044
 3865TIP3    H133154   5.601   0.011   1.917 -0.6815  0.1943 -2.4473
 3865TIP3    H233155   5.700   0.124   1.898  0.2192  0.5756  2.9030
 3866TIP3   OH233156   6.990   6.683   3.479  0.0973  0.3891  0.3180
 3866TIP3    H133157   6.935   6.730   3.542  0.2653  0.3940  0.4584
 3866TIP3    H233158   7.080   6.700   3.507  0.1489 -0.8204  0.9609
 3867TIP3   OH233159   1.999   1.018   0.596  0.4892  0.6610  0.0844
 3867TIP3    H133160   1.957   1.077   0.659  1.8211  2.0307 -0.2341
 3867TIP3    H233161   2.081   1.063   0.572  0.5346 -0.3150 -1.8070
 3868TIP3   OH233162   0.610   0.907   0.981  0.0501 -0.0288  0.5694
 3868TIP3    H133163   0.675   0.870   1.040  0.6143  0.9137  0.5549
 3868TIP3    H233164   0.623   0.860   0.898  0.2466 -0.3173  0.7634
 3869TIP3   OH233165   6.904   6.635   8.181 -0.4151 -0.3251 -0.1618
 3869TIP3    H133166   6.917   6.551   8.138 -1.0990 -1.2248  1.2952
 3869TIP3    H233167   6.821   6.625   8.228  0.2203  0.6413  1.2207
 3870TIP3   OH233168   5.475   1.636   1.566 -0.5771  0.4737  0.2815
 3870TIP3    H133169   5.392   1.664   1.529 -0.7729 -1.0754 -0.5509
 3870TIP3    H233170   5.466   1.648   1.660 -1.5364  0.8014  0.1520
 3871TIP3   OH233171   2.467   6.136   1.990  0.0766 -0.0684 -0.5767
 3871TIP3    H133172   2.505   6.084   2.062 -0.6343  0.2889  0.0696
 3871TIP3    H233173   2.499   6.093   1.911  2.8488  0.9015 -0.1173
 3872TIP3   OH233174   3.774   3.027   1.393  0.0150 -0.7023 -0.0485
 3872TIP3    H133175   3.743   2.944   1.428 -1.2995 -0.6904 -1.0991
 3872TIP3    H233176   3.717   3.093   1.433 -0.4369 -0.5370 -0.9486
 3873TIP3   OH233177   3.165   5.078   7.682  0.1393 -0.0281  0.1618
 3873TIP3    H133178   3.145   5.132   7.605  0.5177 -1.1094 -0.7257
 3873TIP3    H233179   3.123   4.994   7.663  0.1604 -0.2770  1.1918
 3874TIP3   OH233180   3.955   5.211   0.079  0.2883 -0.2996  0.8067
 3874TIP3    H133181   3.934   5.172  -0.006 -1.5767  1.1650  0.5491
 3874TIP3    H233182   3.966   5.136   0.138 -0.4387 -1.2754 -0.2645
 3875TIP3   OH233183   5.049   4.944   7.848  0.5619 -0.1519 -0.0007
 3875TIP3    H133184   5.064   4.988   7.764 -0.2701 -1.3723 -0.8174
 3875TIP3    H233185   5.115   4.875   7.850  0.9336  0.2118  0.6233
 3876TIP3   OH233186   4.067   4.428   0.698 -0.4919  0.1643  0.5323
 3876TIP3    H133187   4.132   4.370   0.737 -0.0189 -0.9757 -1.8116
 3876TIP3    H233188   4.112   4.512   0.689 -0.1539  0.0478  1.1000
 3877TIP3   OH233189   3.631   2.657   0.253 -0.1737  0.0605  0.7367
 3877TIP3    H133190   3.663   2.568   0.235 -1.1145 -0.6532  2.3889
 3877TIP3    H233191   3.605   2.690   0.167 -0.6588 -1.6099  0.1965
 3878TIP3   OH233192   2.043   4.589   1.000 -0.0761  0.2830  0.2164
 3878TIP3    H133193   2.055   4.579   1.094 -1.4947  1.9444  0.6111
 3878TIP3    H233194   2.111   4.652   0.973 -0.2387  0.4864  0.2839
 3879TIP3   OH233195   0.695   4.889   7.520 -0.3714  0.5267 -0.3671
 3879TIP3    H133196   0.773   4.936   7.550  1.3774 -0.5264 -2.9173
 3879TIP3    H233197   0.718   4.858   7.433 -3.1407 -1.1427 -0.6137
 3880TIP3   OH233198   4.054   1.901   1.625  0.0466  0.0242  0.3543
 3880TIP3    H133199   3.993   1.898   1.551  1.6363 -2.2115 -1.0056
 3880TIP3    H233200   4.104   1.982   1.611 -1.1265  0.7476  0.2553
 3881TIP3   OH233201   1.878   1.223   2.294  0.1931 -0.1518 -0.8876
 3881TIP3    H133202   1.948   1.254   2.237 -0.5652  1.7587 -0.8277
 3881TIP3    H233203   1.890   1.271   2.375 -1.1597  0.1692 -0.8651
 3882TIP3   OH233204   4.340   3.928   0.675 -0.4165 -0.5511  0.2889
 3882TIP3    H133205   4.292   3.967   0.602 -0.3064 -0.8049  0.0796
 3882TIP3    H233206   4.328   3.834   0.664 -1.1801 -0.5651  1.1309
 3883TIP3   OH233207   0.045   4.090   7.886  0.3101 -0.6417 -0.5202
 3883TIP3    H133208   0.108   4.018   7.878  0.5032 -0.3720 -1.6401
 3883TIP3    H233209  -0.008   4.084   7.806 -0.5986 -0.4006  0.0575
 3884TIP3   OH233210   0.274   3.769   1.914  0.3766 -0.1740 -0.3955
 3884TIP3    H133211   0.273   3.697   1.978  0.7939  0.4720  0.3486
 3884TIP3    H233212   0.334   3.834   1.951  1.6447 -0.3179 -2.0498
 3885TIP3   OH233213   1.049   5.713   0.170  0.4004  0.3846 -0.0007
 3885TIP3    H133214   1.016   5.786   0.222 -1.7964  0.3906 -1.2665
 3885TIP3    H233215   0.996   5.714   0.091  2.9216 -0.2560 -1.8196
 3886TIP3   OH233216   5.347   2.119   1.313 -0.3505  0.4690  0.6071
 3886TIP3    H133217   5.283   2.189   1.303 -0.9465 -0.0780  0.5344
 3886TIP3    H233218   5.325   2.057   1.244  0.5466  0.4862  0.2916
 3887TIP3   OH233219   5.947   3.415   1.644  0.1578 -0.5012  0.5081
 3887TIP3    H133220   5.970   3.406   1.736 -0.9548  0.8410  0.9460
 3887TIP3    H233221   5.958   3.509   1.626  1.1269 -0.8574 -0.9516
 3888TIP3   OH233222   4.104   6.742   8.212 -0.5869  0.5851 -0.3938
 3888TIP3    H133223   4.009   6.751   8.200 -0.9359 -0.2412  1.4341
 3888TIP3    H233224   4.118   6.648   8.222  0.2531  0.7871  0.5079
 3889TIP3   OH233225   4.065   5.037   2.674 -0.6010  0.2753  0.1740
 3889TIP3    H133226   4.138   5.095   2.654 -0.5878  0.3963  0.5566
 3889TIP3    H233227   4.022   5.078   2.749 -0.2165 -0.5310  0.8618
 3890TIP3   OH233228   5.719   2.430   1.712  0.1433 -0.1383  0.2423
 3890TIP3    H133229   5.798   2.462   1.754 -0.8286  1.5163  0.8937
 3890TIP3    H233230   5.650   2.489   1.742 -1.3016 -1.3785 -0.4985
 3891TIP3   OH233231   5.747   1.562   1.507  0.2048 -0.4137 -0.1043
 3891TIP3    H133232   5.656   1.584   1.491 -0.1923  0.5442  2.7815
 3891TIP3    H233233   5.766   1.601   1.593  3.1184 -1.1881 -0.2927
 3892TIP3   OH233234   5.043   6.775   7.878 -0.3017  0.1310 -0.0947
 3892TIP3    H133235   5.107   6.798   7.811  0.4347 -2.1962 -0.2663
 3892TIP3    H233236   5.089   6.788   7.961  0.6699 -2.0600 -0.2297
 3893TIP3   OH233237   4.417   3.936   3.030  0.1973 -0.4549 -0.7949
 3893TIP3    H133238   4.370   3.865   2.988 -0.3586 -0.4849 -0.1296
 3893TIP3    H233239   4.388   4.015   2.985 -0.1417 -0.5206 -0.6890
 3894TIP3   OH233240   1.095   2.060   7.045  0.4620 -0.1741  0.0526
 3894TIP3    H133241   1.149   2.003   7.100  0.3869  1.3645  1.8144
 3894TIP3    H233242   1.037   2.105   7.106 -0.4036  0.8068 -1.4155
 3895TIP3   OH233243   1.703   6.105   1.532 -0.7526 -0.0954  0.0492
 3895TIP3    H133244   1.790   6.077   1.501 -0.6478  0.0631  0.1957
 3895TIP3    H233245   1.691   6.192   1.495 -0.9764 -0.2351 -0.2105
 3896TIP3   OH233246   4.777   0.464   2.528 -0.0338 -0.2547  0.2012
 3896TIP3    H133247   4.852   0.436   2.580  0.3381  2.4379  1.3119
 3896TIP3    H233248   4.742   0.539   2.576 -1.3139  0.7227 -2.1050
 3897TIP3   OH233249   1.134   1.459   2.517  0.0212  0.3086 -0.8825
 3897TIP3    H133250   1.171   1.544   2.543 -0.3906 -0.0369  1.0116
 3897TIP3    H233251   1.062   1.482   2.457 -0.9030  1.4291  0.5736
 3898TIP3   OH233252   3.512   4.942   1.446  0.5336  0.0947 -0.1079
 3898TIP3    H133253   3.429   4.899   1.468  0.6299  0.2749  0.6501
 3898TIP3    H233254   3.503   4.967   1.354 -0.1321 -0.1513 -0.1152
 3899TIP3   OH233255   5.777   3.168   3.069 -0.6020 -0.8797 -1.1108
 3899TIP3    H133256   5.718   3.243   3.082 -1.2819 -1.5540 -0.0776
 3899TIP3    H233257   5.854   3.205   3.026  0.1093  0.9098  1.4078
 3900TIP3   OH233258   1.742   2.958   1.362 -0.8018  0.0699 -0.1888
 3900TIP3    H133259   1.673   2.894   1.350 -0.2431 -0.7908  0.9723
 3900TIP3    H233260   1.816   2.908   1.397  0.8573  0.7233 -2.4850
 3901TIP3   OH233261   1.207   4.591   1.717 -0.1278  1.1017 -0.1234
 3901TIP3    H133262   1.121   4.600   1.759 -0.8373  2.0153 -1.6894
 3901TIP3    H233263   1.202   4.508   1.669  0.2768  0.6264  0.6246
 3902TIP3   OH233264   6.795   2.088   2.865 -0.2080 -0.2039  0.0750
 3902TIP3    H133265   6.851   2.158   2.830 -1.7072  1.3597  0.6167
 3902TIP3    H233266   6.752   2.052   2.788 -2.0719  1.9327  0.0099
 3903TIP3   OH233267   1.907   4.894   3.088 -0.4251  0.5840 -0.2718
 3903TIP3    H133268   1.868   4.980   3.075 -0.1320  0.7379 -0.1342
 3903TIP3    H233269   1.852   4.835   3.036 -0.2161  0.9541 -0.9311
 3904TIP3   OH233270   6.380   2.477   1.346  0.1680  0.2573 -0.8498
 3904TIP3    H133271   6.384   2.507   1.437 -1.7642 -0.3879 -0.5082
 3904TIP3    H233272   6.382   2.382   1.352 -0.1609  0.2035 -1.4741
 3905TIP3   OH233273   5.504   5.712   2.545 -0.0621 -0.0401  0.3480
 3905TIP3    H133274   5.521   5.780   2.611 -0.6267 -0.5526  1.0478
 3905TIP3    H233275   5.416   5.733   2.513  0.1637  0.1363 -0.1724
 3906TIP3   OH233276   6.783   6.841   0.475  0.0251  0.3517 -0.1817
 3906TIP3    H133277   6.784   6.752   0.441  0.0464 -0.0492  0.8383
 3906TIP3    H233278   6.707   6.882   0.434  0.1737 -0.0528 -0.8626
 3907TIP3   OH233279   0.387   3.304   0.978  0.2670 -0.3212  0.0436
 3907TIP3    H133280   0.401   3.301   1.072 -0.9933 -0.3639  0.2502
 3907TIP3    H233281   0.453   3.364   0.945 -2.2562  3.6407  1.5655
 3908TIP3   OH233282   6.282   0.878   0.724 -0.0538 -0.4660 -0.1029
 3908TIP3    H133283   6.265   0.865   0.630  0.9878 -1.4210 -0.1795
 3908TIP3    H233284   6.270   0.791   0.762  0.1747 -0.2154  0.5522
 3909TIP3   OH233285   5.501   5.710   3.591 -0.1786  0.2003 -0.1124
 3909TIP3    H133286   5.467   5.713   3.681 -0.2057  0.6652 -0.1369
 3909TIP3    H233287   5.470   5.626   3.557 -0.5185  0.2052  0.1732
 3910TIP3   OH233288   2.882   2.672   1.210 -0.2091 -0.3647  0.4292
 3910TIP3    H133289   2.875   2.715   1.295  1.4541  3.3639 -1.1265
 3910TIP3    H233290   2.975   2.651   1.201 -0.6098 -2.2092  0.0926
 3911TIP3   OH233291   5.295   2.913   7.221 -0.0018 -0.2175 -0.6519
 3911TIP3    H133292   5.236   2.877   7.155  0.4455 -0.7404 -0.7808
 3911TIP3    H233293   5.301   2.844   7.288 -0.6734  0.4230  0.0797
 3912TIP3   OH233294   2.546   1.026   0.840  0.4089 -0.3254 -0.0165
 3912TIP3    H133295   2.626   1.078   0.825 -0.9914  1.5706 -1.3972
 3912TIP3    H233296   2.547   1.008   0.934  0.3458  3.4221  0.8507
 3913TIP3   OH233297   0.344   6.288   7.859  0.1483  0.5585 -0.3517
 3913TIP3    H133298   0.424   6.250   7.823 -0.6483 -3.2914  1.3711
 3913TIP3    H233299   0.275   6.259   7.799 -0.1394  3.2838 -1.4620
 3914TIP3   OH233300   5.164   3.276   0.354  0.1466  0.3408 -0.3826
 3914TIP3    H133301   5.095   3.312   0.297 -0.9553 -0.9312  0.0846
 3914TIP3    H233302   5.159   3.182   0.340 -0.0395  0.0114  1.6823
 3915TIP3   OH233303   1.142   3.891   2.067  0.6274  0.8447  0.2902
 3915TIP3    H133304   1.223   3.941   2.061  0.6482  0.7881  0.0721
 3915TIP3    H233305   1.170   3.801   2.084  0.7282  0.4243 -1.8551
 3916TIP3   OH233306   5.095   0.301   0.409  0.1339 -0.2785 -0.4645
 3916TIP3    H133307   5.134   0.388   0.416  1.1026 -0.6850 -0.6256
 3916TIP3    H233308   5.135   0.263   0.331  0.3299 -1.1608  0.0499
 3917TIP3   OH233309   2.805   3.524   0.885  0.1244  0.1117  0.1694
 3917TIP3    H133310   2.742   3.540   0.814 -0.7621 -1.7350  0.4626
 3917TIP3    H233311   2.767   3.568   0.961  0.3700  0.9214 -0.1658
 3918TIP3   OH233312   0.719   2.737   1.199  0.3744  0.2084 -0.3792
 3918TIP3    H133313   0.770   2.795   1.141 -0.0066  0.4174 -0.5070
 3918TIP3    H233314   0.782   2.709   1.265  0.8572 -0.1623 -0.9874
 3919TIP3   OH233315   4.962   5.749   1.119 -0.6959  0.0055  0.8886
 3919TIP3    H133316   5.038   5.759   1.176 -0.4740  0.1754  0.5626
 3919TIP3    H233317   4.997   5.750   1.031 -1.1710  1.0955  0.6905
 3920TIP3   OH233318   2.257   0.527   7.626  0.0046  0.3430 -0.1874
 3920TIP3    H133319   2.201   0.573   7.563  0.1087 -1.4649 -1.6951
 3920TIP3    H233320   2.345   0.561   7.608 -0.2592  1.5419  0.6443
 3921TIP3   OH233321   3.438   4.628   1.994 -0.0835  0.0790 -0.0004
 3921TIP3    H133322   3.433   4.721   1.973 -1.1615 -0.0317 -0.3136
 3921TIP3    H233323   3.494   4.591   1.926  0.6858  0.5493  0.3577
 3922TIP3   OH233324   4.700   3.941   1.791 -0.3100 -0.1787 -0.3381
 3922TIP3    H133325   4.741   3.907   1.871  0.8621 -1.7516 -1.5586
 3922TIP3    H233326   4.771   3.979   1.741 -0.7961 -0.4696 -1.2721
 3923TIP3   OH233327   1.373   5.134   1.223  0.2821  0.3393  0.4828
 3923TIP3    H133328   1.350   5.135   1.130  0.8562 -1.0940  0.3103
 3923TIP3    H233329   1.412   5.221   1.238  3.1516 -0.4657 -1.4285
 3924TIP3   OH233330   2.679   5.119   7.273 -0.1878  0.2884 -0.6167
 3924TIP3    H133331   2.656   5.147   7.362 -0.1204  0.8750 -0.7822
 3924TIP3    H233332   2.604   5.065   7.246 -0.8038  1.1619 -0.6806
 3925TIP3   OH233333   1.017   1.510   1.643 -0.3114 -0.0034  0.5963
 3925TIP3    H133334   1.045   1.436   1.589  0.9114 -1.1812  2.7136
 3925TIP3    H233335   1.083   1.578   1.627  0.7022 -0.7655  1.4177
 3926TIP3   OH233336   3.209   5.227   8.316  0.1661  0.0883  0.5969
 3926TIP3    H133337   3.283   5.281   8.344 -0.4162  0.6895  1.0074
 3926TIP3    H233338   3.246   5.167   8.252  0.7975  1.1044 -0.0259
 3927TIP3   OH233339   1.847   4.774   1.067 -0.2283  0.5583 -0.9323
 3927TIP3    H133340   1.898   4.849   1.036  1.7681 -0.8839 -1.3417
 3927TIP3    H233341   1.882   4.699   1.019 -2.5478 -0.6156 -0.9822
 3928TIP3   OH233342   3.416   5.130   0.434 -0.0402  0.6974 -0.2398
 3928TIP3    H133343   3.492   5.081   0.404  0.6069  1.9908 -0.7861
 3928TIP3    H233344   3.408   5.107   0.526  1.2042  0.7802 -0.0929
 3929TIP3   OH233345   5.182   4.415   2.016 -0.2526 -0.6280  0.2416
 3929TIP3    H133346   5.204   4.335   2.064 -0.6792 -2.6617 -2.6734
 3929TIP3    H233347   5.097   4.441   2.049 -0.0676 -1.3231  1.3002
 3930TIP3   OH233348   5.822   6.775   0.442  0.2795  0.2143 -0.1822
 3930TIP3    H133349   5.906   6.820   0.442 -0.1583  1.1705  2.0584
 3930TIP3    H233350   5.842   6.687   0.474  0.2647  0.9335  1.9236
 3931TIP3   OH233351   5.154   1.919   0.563 -0.2113  0.0812  0.4516
 3931TIP3    H133352   5.136   1.955   0.477  2.2603  1.5106  0.4593
 3931TIP3    H233353   5.198   1.835   0.546  2.1008  1.2709  0.1855
 3932TIP3   OH233354   6.087   4.757   8.363  0.3765 -0.0561 -0.1539
 3932TIP3    H133355   6.063   4.800   8.281 -2.2447  0.6818  0.8813
 3932TIP3    H233356   6.149   4.818   8.404 -0.2743  0.8382 -0.4633
 3933TIP3   OH233357   1.982   0.467   7.644 -0.4562  0.4000 -0.5045
 3933TIP3    H133358   1.926   0.545   7.649 -1.6608 -0.4918  0.5003
 3933TIP3    H233359   2.070   0.502   7.627 -1.1016  1.9166 -0.9083
 3934TIP3   OH233360   3.430   2.101   3.348  0.0114  0.0280  0.1499
 3934TIP3    H133361   3.463   2.052   3.424 -1.2635 -1.3178 -0.1078
 3934TIP3    H233362   3.335   2.107   3.363  0.0018  1.5218 -0.3676
 3935TIP3   OH233363   6.620   1.368   2.649  0.0619  0.3988 -0.8907
 3935TIP3    H133364   6.619   1.450   2.599  0.6255 -0.6224 -2.6476
 3935TIP3    H233365   6.707   1.332   2.634 -0.0952 -0.4079  0.0724
 3936TIP3   OH233366   5.873   4.852   1.991  0.4610  0.3773  0.0761
 3936TIP3    H133367   5.859   4.906   2.069 -0.0935 -2.3146  2.0045
 3936TIP3    H233368   5.944   4.793   2.015 -0.7410 -1.5460 -0.8212
 3937TIP3   OH233369   5.430   2.326   2.479 -0.0204 -0.3061 -0.1322
 3937TIP3    H133370   5.478   2.409   2.470 -0.7463  0.2159  0.6411
 3937TIP3    H233371   5.403   2.325   2.571 -0.6680 -1.0451 -0.3296
 3938TIP3   OH233372   3.950   1.072   2.136 -0.4107 -0.5095 -0.4959
 3938TIP3    H133373   3.916   1.148   2.089  0.0621  0.0938  0.1204
 3938TIP3    H233374   4.045   1.076   2.122 -0.5388 -2.3566 -2.4699
 3939TIP3   OH233375   2.682   3.898   2.165 -0.7892 -0.2016  0.2829
 3939TIP3    H133376   2.631   3.821   2.191 -1.2507  0.6687  2.0580
 3939TIP3    H233377   2.697   3.885   2.071 -3.0509 -1.2010 -0.0141
 3940TIP3   OH233378   1.177   2.372   2.120 -0.4990 -0.6226  0.0656
 3940TIP3    H133379   1.098   2.327   2.149 -0.1957 -0.0529  1.8762
 3940TIP3    H233380   1.249   2.323   2.159  0.2656 -2.2538 -3.0225
 3941TIP3   OH233381   2.637   6.266   1.677  0.3754 -0.1046  0.1389
 3941TIP3    H133382   2.646   6.183   1.724  1.3715 -1.4345 -2.2310
 3941TIP3    H233383   2.727   6.291   1.655  0.0476  1.3668  0.3734
 3942TIP3   OH233384   5.906   3.578   2.719 -0.5027  0.3816  0.0401
 3942TIP3    H133385   6.001   3.588   2.715 -0.7039  2.4103 -0.8948
 3942TIP3    H233386   5.873   3.633   2.648 -2.3573 -0.8591 -0.1188
 3943TIP3   OH233387   2.121   2.370   0.308  0.7292 -0.0230  0.5121
 3943TIP3    H133388   2.059   2.298   0.300 -0.5022  0.9278  1.0958
 3943TIP3    H233389   2.101   2.427   0.234  0.9813  0.2201  0.6286
 3944TIP3   OH233390   5.577   4.000   2.728 -0.0652 -0.1926  0.4051
 3944TIP3    H133391   5.638   4.030   2.795  0.3034 -1.6276  0.7357
 3944TIP3    H233392   5.621   4.020   2.645  0.7997 -1.0660  0.6401
 3945TIP3   OH233393   0.658   5.608   3.639  0.0090 -0.2823 -0.2055
 3945TIP3    H133394   0.744   5.648   3.625  0.5485 -0.6972  1.6277
 3945TIP3    H233395   0.604   5.678   3.674  0.3077 -0.5861  0.8925
 3946TIP3   OH233396   0.195   5.138   2.136 -0.4911 -0.3301  0.1629
 3946TIP3    H133397   0.242   5.107   2.214 -0.3901 -0.2130  0.1491
 3946TIP3    H233398   0.223   5.229   2.126 -0.6390 -0.2925  0.0912
 3947TIP3   OH233399   3.338   6.523   7.500  0.0950 -0.4252 -0.0889
 3947TIP3    H133400   3.326   6.429   7.491  0.7982 -0.4624 -0.7407
 3947TIP3    H233401   3.373   6.535   7.588  0.7704 -0.8585 -0.2918
 3948TIP3   OH233402   1.251   1.893   2.980  0.1085  0.6820  0.1290
 3948TIP3    H133403   1.211   1.873   2.896  0.4590 -0.9514  0.3139
 3948TIP3    H233404   1.272   1.986   2.975 -0.1416  0.6834 -1.4633
 3949TIP3   OH233405   6.575   4.910   2.101 -0.4282  0.1179 -0.1344
 3949TIP3    H133406   6.487   4.943   2.122 -0.0607  0.8502  0.2895
 3949TIP3    H233407   6.559   4.836   2.042 -1.4446 -1.0508  1.4950
 3950TIP3   OH233408   4.668   1.573   1.697  0.2443  0.4629 -0.8241
 3950TIP3    H133409   4.762   1.571   1.714  0.2129  1.1375 -0.5337
 3950TIP3    H233410   4.661   1.590   1.603  0.4092 -0.5914 -1.0364
 3951TIP3   OH233411   4.199   2.208   2.524 -0.9856  0.2113  0.1914
 3951TIP3    H133412   4.263   2.148   2.487 -0.3238  1.3389 -0.5525
 3951TIP3    H233413   4.151   2.155   2.588 -0.9925 -1.3187 -1.0124
 3952TIP3   OH233414   6.192   2.900   0.574 -0.7284  0.2144  0.4040
 3952TIP3    H133415   6.122   2.858   0.624 -0.1788 -0.7518  0.3930
 3952TIP3    H233416   6.187   2.993   0.597 -1.0346 -0.0816  1.5710
 3953TIP3   OH233417   1.431   6.404   2.125  0.5250 -0.1307  0.2487
 3953TIP3    H133418   1.496   6.457   2.171 -1.7750  1.9184  1.3686
 3953TIP3    H233419   1.419   6.448   2.041 -0.9095  0.8273  0.9154
 3954TIP3   OH233420   0.924   5.586   2.474  0.0410 -0.0882  0.4758
 3954TIP3    H133421   0.980   5.614   2.402 -1.0181  0.5286 -0.1509
 3954TIP3    H233422   0.843   5.637   2.462 -0.2373 -0.1160  1.9849
 3955TIP3   OH233423   2.861   0.017   2.054  0.3060 -0.0892  0.3111
 3955TIP3    H133424   2.930  -0.038   2.093  0.3275  0.4298  1.0072
 3955TIP3    H233425   2.782  -0.036   2.062  0.7001 -0.9416 -1.0221
 3956TIP3   OH233426   6.782   6.390   1.826 -0.2957 -0.4605 -0.1035
 3956TIP3    H133427   6.747   6.319   1.773  0.3878 -1.1884  0.4017
 3956TIP3    H233428   6.860   6.353   1.867 -0.5887  0.2182  1.0943
 3957TIP3   OH233429   2.389   6.178   2.624 -0.0721  0.1051 -0.2714
 3957TIP3    H133430   2.415   6.248   2.684 -1.4591  1.2721 -0.9636
 3957TIP3    H233431   2.296   6.192   2.610 -0.2182 -1.4402 -1.0333
 3958TIP3   OH233432   3.675   4.159   1.144 -0.0150 -0.1531  0.5793
 3958TIP3    H133433   3.700   4.187   1.232  0.2019  2.5580 -0.2479
 3958TIP3    H233434   3.582   4.137   1.152 -0.4433  1.6460  1.2354
 3959TIP3   OH233435   5.742   2.144   2.856 -0.0639 -0.2656  0.1564
 3959TIP3    H133436   5.769   2.218   2.910  2.1525 -1.2020  0.4342
 3959TIP3    H233437   5.743   2.070   2.916 -0.9672 -0.7543 -0.4132
 3960TIP3   OH233438   3.352   2.533   2.771  0.5076  0.1186 -0.4766
 3960TIP3    H133439   3.307   2.455   2.805  1.3769 -0.2531 -0.1384
 3960TIP3    H233440   3.302   2.607   2.807 -0.1553 -0.2791 -0.5608
 3961TIP3   OH233441   4.540   5.689   2.473  0.1851  0.1624  0.1268
 3961TIP3    H133442   4.559   5.733   2.556  1.5411 -0.3487  0.1171
 3961TIP3    H233443   4.475   5.744   2.430  1.0345  1.5881  0.6004
 3962TIP3   OH233444   5.578   1.329   1.974 -0.3676 -0.0849 -0.2950
 3962TIP3    H133445   5.592   1.406   2.029  0.3287 -0.5567  0.1964
 3962TIP3    H233446   5.649   1.270   1.996 -0.7144 -0.7457 -0.9018
 3963TIP3   OH233447   5.060   5.277   0.146 -0.1656  0.5904  0.3587
 3963TIP3    H133448   5.002   5.204   0.125  1.2755 -0.6013  0.3450
 3963TIP3    H233449   5.146   5.249   0.116  0.2598  2.8066 -0.7423
 3964TIP3   OH233450   1.684   2.912   1.707 -0.3022  0.4378 -0.3348
 3964TIP3    H133451   1.643   2.844   1.653 -0.4796 -0.7618  1.2521
 3964TIP3    H233452   1.772   2.878   1.726 -0.0191  1.1365 -0.3587
 3965TIP3   OH233453   4.143   3.878   6.618  0.2220  0.0054 -0.3565
 3965TIP3    H133454   4.088   3.953   6.641 -0.1214 -0.1317 -0.7164
 3965TIP3    H233455   4.190   3.856   6.699 -1.2268 -0.6979  0.3341
 3966TIP3   OH233456   4.166   5.880   2.719  0.2563  0.0768  0.0356
 3966TIP3    H133457   4.078   5.917   2.714 -0.4124 -1.3057  1.0555
 3966TIP3    H233458   4.211   5.936   2.783  0.0680  0.6645 -0.3360
 3967TIP3   OH233459   2.835   6.322   2.779  0.1568  0.3480  0.1739
 3967TIP3    H133460   2.883   6.390   2.827  0.0406 -0.5640  1.6669
 3967TIP3    H233461   2.898   6.251   2.768  0.4309  0.8449 -1.8349
 3968TIP3   OH233462   0.183   4.152   0.283  0.2565 -0.6219 -0.0337
 3968TIP3    H133463   0.210   4.084   0.344  3.9326 -0.1374 -0.9021
 3968TIP3    H233464   0.205   4.119   0.196 -0.4817  0.5681 -0.7166
 3969TIP3   OH233465   3.631   0.245   0.934 -0.1991 -0.4026 -0.0719
 3969TIP3    H133466   3.679   0.325   0.911  0.3604 -0.5989  0.3994
 3969TIP3    H233467   3.567   0.235   0.863 -0.9079  0.9615  0.3180
 3970TIP3   OH233468   4.213   6.061   2.944 -0.1127  0.0774 -0.8194
 3970TIP3    H133469   4.213   6.064   3.040 -0.2383 -1.4637 -0.7387
 3970TIP3    H233470   4.201   6.152   2.917  0.1122  0.5606  0.6240
 3971TIP3   OH233471   0.408   0.275   0.588  0.4592  0.9745  0.9074
 3971TIP3    H133472   0.402   0.294   0.495 -0.8309  0.8043  0.9342
 3971TIP3    H233473   0.414   0.180   0.593 -2.3046  0.7396  1.0510
 3972TIP3   OH233474   6.348   2.129   1.914  0.6060  0.1385 -0.4222
 3972TIP3    H133475   6.325   2.213   1.955  1.8076  0.0324  0.5248
 3972TIP3    H233476   6.264   2.087   1.897 -0.0010 -0.1340  2.6537
 3973TIP3   OH233477   4.716   3.797   2.739 -0.2580  0.0682 -0.3731
 3973TIP3    H133478   4.698   3.770   2.649 -0.9636 -0.4535 -0.0836
 3973TIP3    H233479   4.791   3.857   2.731  0.8325 -1.3406 -1.1120
 3974TIP3   OH233480   4.423   0.659   1.719  0.0746  0.5590  0.2774
 3974TIP3    H133481   4.514   0.684   1.734  0.0412  0.5846  0.4336
 3974TIP3    H233482   4.372   0.722   1.770 -0.1026  1.6347 -1.1542
 3975TIP3   OH233483   4.792   1.081   1.930  0.6645 -0.2128  0.0460
 3975TIP3    H133484   4.766   1.095   1.839  1.0182 -1.0780 -0.2005
 3975TIP3    H233485   4.884   1.107   1.933  1.1354 -1.7534 -0.2593
 3976TIP3   OH233486   6.457   3.441   7.101 -0.4751 -0.4436 -0.0791
 3976TIP3    H133487   6.465   3.530   7.134 -1.4501 -0.4971  0.3312
 3976TIP3    H233488   6.386   3.446   7.037 -0.8517 -1.0073  0.2841
 3977TIP3   OH233489   0.716   2.958   2.089  0.3460  0.0893  0.2303
 3977TIP3    H133490   0.738   3.007   2.010  3.6856 -1.5414 -0.0318
 3977TIP3    H233491   0.777   2.883   2.088 -1.9766 -2.0176  2.4782
 3978TIP3   OH233492   4.414   2.603   3.574 -0.6818  0.1107  0.2607
 3978TIP3    H133493   4.362   2.536   3.529  2.8656 -1.1107 -2.5217
 3978TIP3    H233494   4.397   2.684   3.525 -0.0067 -0.2945 -0.6785
 3979TIP3   OH233495   3.386   0.755   0.540  0.0404  0.0437 -0.1639
 3979TIP3    H133496   3.441   0.832   0.560 -2.5670  2.0908 -0.3245
 3979TIP3    H233497   3.421   0.723   0.457  2.2341 -0.0198  0.7084
 3980TIP3   OH233498   5.420   0.852   7.654  0.7760  0.0464 -0.2657
 3980TIP3    H133499   5.386   0.879   7.569  1.3958 -3.0414 -1.6494
 3980TIP3    H233500   5.343   0.817   7.700  0.4098  1.8641  0.5792
 3981TIP3   OH233501   4.468   5.074   0.272 -0.4587 -0.1551 -0.2362
 3981TIP3    H133502   4.559   5.082   0.245  0.5396 -1.2763  2.4325
 3981TIP3    H233503   4.456   5.143   0.337 -1.8370  0.5810 -1.2272
 3982TIP3   OH233504   0.578   3.183   2.583  0.1987 -0.4728 -0.1705
 3982TIP3    H133505   0.595   3.118   2.516  0.5794 -0.7752  0.2136
 3982TIP3    H233506   0.636   3.256   2.561 -1.2101  0.3336 -1.3967
 3983TIP3   OH233507   6.815   5.861   0.268  0.6087  0.3027 -0.0539
 3983TIP3    H133508   6.731   5.908   0.276 -0.2764 -0.9177 -1.6019
 3983TIP3    H233509   6.879   5.929   0.248 -0.4068  1.0189 -0.9639
 3984TIP3   OH233510   4.795   3.187   0.365 -0.1091 -0.5963 -0.0528
 3984TIP3    H133511   4.847   3.267   0.375  0.9177 -1.0993 -1.1541
 3984TIP3    H233512   4.855   3.116   0.387 -0.4929 -1.1643 -0.7990
 3985TIP3   OH233513   5.596   4.841   1.999 -0.2815  0.0560  0.4484
 3985TIP3    H133514   5.689   4.848   1.979 -0.8147  0.6184 -2.2039
 3985TIP3    H233515   5.586   4.754   2.038  1.1070 -0.8150 -1.0116
 3986TIP3   OH233516   5.029   1.764   3.268 -0.0254 -0.6060  0.5383
 3986TIP3    H133517   5.048   1.858   3.259 -0.4024 -0.1294  3.6836
 3986TIP3    H233518   5.102   1.721   3.224  0.0977  1.1192 -1.0958
 3987TIP3   OH233519   3.847   2.502   1.996 -0.3996  0.2105  0.3011
 3987TIP3    H133520   3.935   2.463   2.000 -0.1729 -0.1092 -3.6436
 3987TIP3    H233521   3.791   2.440   2.043  0.8782 -1.9192 -0.8254
 3988TIP3   OH233522   2.607   4.195   2.863  0.3295 -0.3000  0.3345
 3988TIP3    H133523   2.668   4.187   2.936  0.7487  1.0140  0.1558
 3988TIP3    H233524   2.524   4.162   2.897  0.6405 -0.1755  1.2425
 3989TIP3   OH233525   3.311   1.995   8.263  0.4618  0.0226  0.4576
 3989TIP3    H133526   3.377   2.034   8.207  1.3782 -0.6478  1.0395
 3989TIP3    H233527   3.358   1.969   8.342  0.1777 -3.1809 -0.2774
 3990TIP3   OH233528   1.026   3.610   3.018  0.2722 -0.1846  0.1140
 3990TIP3    H133529   1.101   3.656   2.981  0.1531 -0.0103  0.0873
 3990TIP3    H233530   0.968   3.679   3.050  1.1453 -0.3289  2.2124
 3991TIP3   OH233531   6.090   4.916   0.282 -0.2014  0.3578 -0.5000
 3991TIP3    H133532   6.139   4.878   0.209 -1.4770  1.0041 -1.7563
 3991TIP3    H233533   6.022   4.851   0.301 -0.5772  0.6943 -0.6770
 3992TIP3   OH233534   4.538   6.259   0.388  0.3415  0.0413 -0.4923
 3992TIP3    H133535   4.594   6.327   0.349  0.3144 -0.7505 -1.9843
 3992TIP3    H233536   4.463   6.253   0.329  0.8501 -2.0094 -1.0108
 3993TIP3   OH233537   4.789   3.168   0.090  0.2391 -0.0204  0.0543
 3993TIP3    H133538   4.818   3.182   0.180 -0.5548  1.4182  0.1041
 3993TIP3    H233539   4.825   3.083   0.067 -0.8035 -1.1387  2.2402
 3994TIP3   OH233540   4.801   3.666   8.372  0.1384 -0.1567  0.2252
 3994TIP3    H133541   4.744   3.732   8.332  1.2789  0.4137 -0.4864
 3994TIP3    H233542   4.884   3.674   8.326  0.8102 -0.9879  1.2412
 3995TIP3   OH233543   1.605   2.788   3.377 -0.0075 -0.4279  0.1385
 3995TIP3    H133544   1.656   2.828   3.306 -2.8440  0.9852 -1.2983
 3995TIP3    H233545   1.617   2.846   3.451  2.0818 -1.2882  0.5249
 3996TIP3   OH233546   6.357   1.749   2.506 -0.0446  0.4178 -0.1120
 3996TIP3    H133547   6.387   1.833   2.541  0.2751  1.3231 -2.4079
 3996TIP3    H233548   6.264   1.762   2.487  0.0540  0.3324 -0.6688
 3997TIP3   OH233549   6.720   4.735   1.058 -0.1473 -0.1637  0.3406
 3997TIP3    H133550   6.651   4.735   0.992  0.0609  2.7692  0.0244
 3997TIP3    H233551   6.801   4.747   1.009  0.0370  1.7351  1.0567
 3998TIP3   OH233552   3.364   2.942   7.683  0.3076  0.5220 -0.3279
 3998TIP3    H133553   3.293   2.893   7.641 -1.3814  2.3969  0.1938
 3998TIP3    H233554   3.425   2.962   7.611 -2.4760  3.6200 -2.1128
 3999TIP3   OH233555   1.137   6.620   7.794 -0.1427 -0.1508  0.1420
 3999TIP3    H133556   1.194   6.677   7.742 -1.4250  0.6319 -0.4468
 3999TIP3    H233557   1.065   6.676   7.822 -0.8116 -1.1891  0.5705
 4000TIP3   OH233558   4.064   2.585   0.493  0.2063 -0.1284 -0.4476
 4000TIP3    H133559   4.035   2.527   0.563 -1.0895  0.2412 -0.6373
 4000TIP3    H233560   4.067   2.672   0.534 -0.7327  0.1192 -0.8574
 4001TIP3   OH233561   2.632   2.581   7.105 -0.2091 -0.1180  0.1633
 4001TIP3    H133562   2.680   2.526   7.043  1.6162  0.2519  1.1809
 4001TIP3    H233563   2.699   2.637   7.145 -1.8142  2.0372  0.0361
 4002TIP3   OH233564   6.986   5.178   2.627  0.0885 -0.3451 -0.0441
 4002TIP3    H133565   7.038   5.257   2.641  1.7042 -1.1548 -1.1186
 4002TIP3    H233566   6.899   5.210   2.606 -0.2667  1.0353  3.0777
 4003TIP3   OH233567   3.743   3.193   2.040 -0.0952 -0.2724  0.3207
 4003TIP3    H133568   3.661   3.151   2.012 -0.3231 -1.3283  2.3720
 4003TIP3    H233569   3.740   3.190   2.135  1.7069  0.9773  0.4697
 4004TIP3   OH233570   2.630   1.109   8.310  0.6161 -0.1321  0.2213
 4004TIP3    H133571   2.553   1.125   8.255  1.6338 -1.9163 -1.9051
 4004TIP3    H233572   2.686   1.186   8.296 -0.0774  0.4452  0.5481
 4005TIP3   OH233573   5.881   6.525   0.566  0.4278  0.3174 -0.6299
 4005TIP3    H133574   5.975   6.514   0.581  0.3791 -1.9329 -1.5733
 4005TIP3    H233575   5.844   6.438   0.579 -1.4984  1.0897 -0.6127
 4006TIP3   OH233576   1.977   4.443   2.807 -0.6047 -0.0431  0.0956
 4006TIP3    H133577   1.989   4.394   2.725 -0.2794 -0.5004  0.4130
 4006TIP3    H233578   1.992   4.534   2.783 -1.3369 -0.0714 -0.5333
 4007TIP3   OH233579   6.538   2.466   7.177 -0.0867 -0.0758 -0.0330
 4007TIP3    H133580   6.609   2.530   7.183 -1.3660  1.2808  1.7766
 4007TIP3    H233581   6.458   2.519   7.175 -1.1119 -1.5661 -1.5337
 4008TIP3   OH233582   5.503   6.706   2.516  0.2150 -0.6618  0.0969
 4008TIP3    H133583   5.492   6.641   2.446  0.1598  0.3779 -0.8945
 4008TIP3    H233584   5.592   6.692   2.547 -0.3281 -2.2768  1.0341
 4009TIP3   OH233585   0.763   3.455   1.112  0.1501 -0.2615  0.1601
 4009TIP3    H133586   0.855   3.460   1.140  0.5462 -0.7494 -0.9779
 4009TIP3    H233587   0.716   3.511   1.173  1.4139  1.1192 -0.0617
 4010TIP3   OH233588   6.011   6.008   3.306  0.0147 -0.1819  0.1195
 4010TIP3    H133589   6.049   5.936   3.256  1.1679 -0.8162  1.8188
 4010TIP3    H233590   6.083   6.043   3.358 -1.0553  0.6236  1.1301
 4011TIP3   OH233591   1.061   6.768   1.070  0.0980 -0.3095  0.1792
 4011TIP3    H133592   1.026   6.711   1.138 -2.7886 -0.8524 -1.5546
 4011TIP3    H233593   0.995   6.765   1.000  2.0360  1.5725 -1.9172
 4012TIP3   OH233594   5.607   0.503   1.769  0.2335  0.0907 -0.2637
 4012TIP3    H133595   5.518   0.472   1.754  0.5706 -0.1500 -1.8754
 4012TIP3    H233596   5.611   0.588   1.727  0.7970  0.0521 -0.3008
 4013TIP3   OH233597   6.774   5.481   3.488  0.7783  0.5098  0.0924
 4013TIP3    H133598   6.695   5.427   3.489  0.6062  0.7024 -1.1684
 4013TIP3    H233599   6.840   5.427   3.445  0.6688  1.1877 -0.9679
 4014TIP3   OH233600   1.087   1.867   3.203 -0.1316  0.1997 -0.6457
 4014TIP3    H133601   1.126   1.881   3.117  2.3530  0.4278  0.4409
 4014TIP3    H233602   1.128   1.787   3.235  1.1721  1.6018  1.4361
 4015TIP3   OH233603   6.249   5.167   0.089  0.3569 -0.1968 -0.1484
 4015TIP3    H133604   6.328   5.203   0.049  1.0686 -1.6827 -0.1598
 4015TIP3    H233605   6.254   5.196   0.181  0.2446  0.7657 -0.4382
 4016TIP3   OH233606   0.389   2.289   3.441  0.6304 -0.2152 -0.0712
 4016TIP3    H133607   0.408   2.345   3.365  0.5579  1.2993  0.9727
 4016TIP3    H233608   0.325   2.225   3.409  0.2949  0.6483 -1.1868
 4017TIP3   OH233609   1.389   2.545   2.100 -0.0528  0.4912 -0.0907
 4017TIP3    H133610   1.404   2.583   2.187 -1.8361  0.0521  0.4508
 4017TIP3    H233611   1.306   2.497   2.109  0.2437 -0.4053 -1.7660
 4018TIP3   OH233612   4.269   6.807   2.387 -0.3752 -0.6823 -0.4066
 4018TIP3    H133613   4.179   6.774   2.382 -0.1471 -1.4528  0.3278
 4018TIP3    H233614   4.267   6.871   2.458 -0.0604 -1.7216  0.5730
 4019TIP3   OH233615   4.489   0.591   2.757  0.4786  0.2053 -0.3431
 4019TIP3    H133616   4.483   0.553   2.669 -1.9108  0.4037 -0.3308
 4019TIP3    H233617   4.421   0.546   2.807 -2.5133  4.2478 -0.3079
 4020TIP3   OH233618   3.120   2.833   2.410 -0.1635 -0.3757  0.7774
 4020TIP3    H133619   3.185   2.833   2.481 -0.1894 -0.9038  0.8058
 4020TIP3    H233620   3.153   2.767   2.348  0.1614  0.4742  0.0136
 4021TIP3   OH233621   6.044   3.120   1.283  0.6113  0.0966 -0.4383
 4021TIP3    H133622   6.075   3.165   1.204 -2.2051 -2.1751 -3.1241
 4021TIP3    H233623   6.110   3.053   1.300  2.8925  2.6022  1.2928
 4022TIP3   OH233624   1.658   3.432   1.573 -0.3946  0.4803 -0.1632
 4022TIP3    H133625   1.643   3.338   1.581 -0.9864  0.6129  0.4185
 4022TIP3    H233626   1.717   3.453   1.645 -1.2376  0.7456  0.4719
 4023TIP3   OH233627   1.186   5.893   3.283 -0.4137 -0.3424  0.3519
 4023TIP3    H133628   1.166   5.805   3.316 -1.6011  0.3823  1.6751
 4023TIP3    H233629   1.131   5.903   3.206  0.0269 -0.8921 -0.0454
 4024TIP3   OH233630   4.106   4.939   2.386  0.4859  0.4838 -0.3117
 4024TIP3    H133631   4.134   4.847   2.382  0.5521  0.5700 -2.4925
 4024TIP3    H233632   4.120   4.963   2.478  1.3175 -1.4120  0.1196
 4025TIP3   OH233633   2.901   3.576   0.056 -0.0643 -0.0866  0.0560
 4025TIP3    H133634   2.962   3.512   0.018  0.6088  0.0939  0.8092
 4025TIP3    H233635   2.830   3.523   0.091  0.3912 -0.4209  0.4972
 4026TIP3   OH233636   0.597   4.625   1.369 -0.0394  0.5734  0.1579
 4026TIP3    H133637   0.598   4.669   1.284  0.7070 -0.5439 -0.4269
 4026TIP3    H233638   0.605   4.532   1.349 -1.4041  0.1430  1.3822
 4027TIP3   OH233639   5.739   2.241   1.976  0.1038  0.1243  0.0087
 4027TIP3    H133640   5.667   2.223   2.037 -0.3249 -1.1407 -0.8378
 4027TIP3    H233641   5.746   2.337   1.976 -1.7256  0.3011 -0.0377
 4028TIP3   OH233642   2.912   3.448   8.150  0.1219  0.4862 -0.1000
 4028TIP3    H133643   2.993   3.472   8.196 -0.1502 -0.8432  1.1571
 4028TIP3    H233644   2.938   3.377   8.091  0.2882  1.5920 -1.4132
 4029TIP3   OH233645   6.558   2.815   1.492  0.5585  0.5697  0.0809
 4029TIP3    H133646   6.529   2.843   1.406 -2.8324  0.4630  1.0496
 4029TIP3    H233647   6.508   2.868   1.553 -2.3595 -3.7294  1.9557
 4030TIP3   OH233648   6.515   5.909   0.825 -1.0030  0.4810 -0.0685
 4030TIP3    H133649   6.509   5.963   0.746 -0.0187  1.2750  0.3685
 4030TIP3    H233650   6.596   5.859   0.814 -1.4861 -0.3206 -0.0939
 4031TIP3   OH233651   4.155   0.430   2.423 -0.2089 -0.8300 -0.6597
 4031TIP3    H133652   4.250   0.432   2.434 -0.4738 -1.0049  3.3671
 4031TIP3    H233653   4.128   0.522   2.422 -0.0699 -0.7888 -1.4066
 4032TIP3   OH233654   2.595   6.235   2.844 -0.2564  0.5370 -0.1624
 4032TIP3    H133655   2.595   6.267   2.934 -0.2113 -2.1898  0.9126
 4032TIP3    H233656   2.681   6.257   2.809  0.7114 -0.5634  1.3925
 4033TIP3   OH233657   4.290   2.439   1.599 -0.3362  0.1217 -0.0217
 4033TIP3    H133658   4.269   2.362   1.547 -0.4071  1.2265 -1.6870
 4033TIP3    H233659   4.361   2.482   1.551  0.8354  0.2756  1.7293
 4034TIP3   OH233660   2.576   3.864   7.208  0.3187 -0.0600  0.4148
 4034TIP3    H133661   2.549   3.788   7.260  0.0726  0.2415  0.7368
 4034TIP3    H233662   2.652   3.833   7.158  0.4735 -0.3977  0.8484
 4035TIP3   OH233663   6.297   1.938   2.197 -0.1370  0.2940  0.3996
 4035TIP3    H133664   6.308   1.842   2.197 -1.6894  0.0727  1.4860
 4035TIP3    H233665   6.347   1.968   2.122 -0.1453 -1.4424 -0.3511
 4036TIP3   OH233666   2.617   4.051   2.623  0.3139 -0.1347 -0.3412
 4036TIP3    H133667   2.572   3.981   2.671 -1.6398 -0.3277 -2.3090
 4036TIP3    H233668   2.642   4.114   2.691  0.6165 -1.8892  1.2855
 4037TIP3   OH233669   0.259   4.059   2.802 -0.4478  0.3006  0.5002
 4037TIP3    H133670   0.228   4.134   2.752  0.1493  0.2315  0.0148
 4037TIP3    H233671   0.186   3.997   2.801 -0.2005 -0.0011 -0.8997
 4038TIP3   OH233672   4.912   1.335   1.736 -0.0087 -0.1320  0.3379
 4038TIP3    H133673   4.916   1.428   1.759 -1.5724 -0.3149  1.4815
 4038TIP3    H233674   4.962   1.291   1.805 -1.6351 -0.3408  1.4686
 4039TIP3   OH233675   4.837   6.196   0.149 -0.3687  0.1807 -0.0954
 4039TIP3    H133676   4.893   6.217   0.223  0.5318 -1.4205 -0.2734
 4039TIP3    H233677   4.836   6.275   0.096  0.9115  0.5744  0.4315
 4040TIP3   OH233678   0.143   3.321   7.209  0.0148 -0.7824 -0.0312
 4040TIP3    H133679   0.236   3.344   7.208 -0.1948  0.2033 -2.1783
 4040TIP3    H233680   0.139   3.239   7.159 -0.4360  0.1619 -1.6175
 4041TIP3   OH233681   3.058   2.897   1.753  0.1183 -0.2775 -0.2798
 4041TIP3    H133682   3.015   2.903   1.668  2.2001 -2.2361 -1.5884
 4041TIP3    H233683   3.130   2.960   1.748  1.0092 -1.2907 -0.4996
 4042TIP3   OH233684   4.402   1.458   0.330 -0.2463  0.1114 -0.4873
 4042TIP3    H133685   4.325   1.509   0.352 -0.7174  0.4762 -2.7442
 4042TIP3    H233686   4.369   1.369   0.318 -0.3522  0.2730 -1.4806
 4043TIP3   OH233687   2.194   2.229   1.909  0.2388  0.2650 -0.6650
 4043TIP3    H133688   2.289   2.230   1.921  0.1570  0.1537  0.0227
 4043TIP3    H233689   2.177   2.304   1.852  0.6030  1.1124  0.3074
 4044TIP3   OH233690   0.756   5.909   7.919 -0.7102  0.5671 -0.6886
 4044TIP3    H133691   0.699   5.843   7.879 -0.2403 -0.5014  0.3260
 4044TIP3    H233692   0.808   5.944   7.846  0.5616 -1.7580 -1.0072
 4045TIP3   OH233693   0.193   2.988   2.630  0.3376 -0.2640 -0.2785
 4045TIP3    H133694   0.166   3.068   2.585  0.8352 -0.1975 -0.4608
 4045TIP3    H233695   0.142   2.919   2.589  0.7097 -0.1882 -0.8745
 4046TIP3   OH233696   0.560   5.664   7.839 -0.5379  0.0590  0.1715
 4046TIP3    H133697   0.605   5.639   7.920 -1.5315 -0.8649  0.4628
 4046TIP3    H233698   0.524   5.751   7.858  1.8539  1.2536 -0.4003
 4047TIP3   OH233699   1.828   5.407   1.877 -0.5535 -0.0327  0.6642
 4047TIP3    H133700   1.750   5.428   1.825 -0.0117 -0.2139 -0.2437
 4047TIP3    H233701   1.894   5.383   1.812 -0.0472 -0.9110  1.4760
 4048TIP3   OH233702   0.671   5.642   3.318 -0.0867 -1.0165 -0.6027
 4048TIP3    H133703   0.686   5.729   3.355 -0.0779 -0.4719 -1.8515
 4048TIP3    H233704   0.737   5.586   3.360  0.2855 -0.3017 -0.2257
 4049TIP3   OH233705   2.958   6.022   3.888 -0.0922 -0.0309  0.7198
 4049TIP3    H133706   2.878   6.063   3.855  0.1739  0.6703  0.9352
 4049TIP3    H233707   3.011   6.007   3.810 -0.5310 -0.7360  0.5446
 4050TIP3   OH233708   6.324   1.577   7.780 -0.4353 -0.5598 -0.1286
 4050TIP3    H133709   6.267   1.513   7.822 -2.0378 -0.3735 -1.9039
 4050TIP3    H233710   6.346   1.639   7.850 -1.1352 -1.4960  0.9613
 4051TIP3   OH233711   1.988   3.880   0.507  0.4567 -0.2558  0.1336
 4051TIP3    H133712   1.905   3.877   0.555 -0.0661  1.1554 -0.6169
 4051TIP3    H233713   2.045   3.935   0.561  0.6072 -0.4904  0.2140
 4052TIP3   OH233714   6.726   1.043   8.364  0.0752 -0.2854 -0.0841
 4052TIP3    H133715   6.686   1.047   8.450  1.7254 -0.6662  0.7521
 4052TIP3    H233716   6.684   0.969   8.321 -0.0366 -0.7472  0.8001
 4053TIP3   OH233717   6.937   1.644   7.715  0.4247 -0.2157  0.2918
 4053TIP3    H133718   6.992   1.581   7.670 -0.0221 -0.1510 -0.3558
 4053TIP3    H233719   6.848   1.609   7.706  0.1393  0.6559 -0.3316
 4054TIP3   OH233720   1.500   1.772   2.977  0.4070  0.3268 -0.4065
 4054TIP3    H133721   1.482   1.724   2.896  2.4431  0.2099 -0.8360
 4054TIP3    H233722   1.417   1.817   2.997 -1.0348 -1.9334 -0.9319
 4055TIP3   OH233723   6.538   4.946   0.676  0.4432 -0.2236 -0.0035
 4055TIP3    H133724   6.596   4.903   0.614 -0.8350 -0.5619 -1.0131
 4055TIP3    H233725   6.534   4.886   0.751 -1.0920 -1.8405 -1.2723
 4056TIP3   OH233726   4.513   2.212   1.655 -0.3546  0.3428  0.5397
 4056TIP3    H133727   4.492   2.241   1.744  1.1390 -0.8755  1.3296
 4056TIP3    H233728   4.589   2.264   1.629 -0.8904  0.8241 -0.1314
 4057TIP3   OH233729   0.561   3.325   1.341 -0.2766 -0.0792 -0.2245
 4057TIP3    H133730   0.531   3.375   1.265  0.3013  0.2757 -0.2303
 4057TIP3    H233731   0.534   3.379   1.416  3.1700  2.0098 -0.2717
 4058TIP3   OH233732   6.464   5.499   8.107  0.0258 -0.1089 -0.0463
 4058TIP3    H133733   6.370   5.480   8.105  0.3460 -1.8275 -1.5316
 4058TIP3    H233734   6.499   5.440   8.173  0.3511 -1.2284 -1.1784
 4059TIP3   OH233735   1.184   0.885   1.252 -1.0800  0.5087 -0.6136
 4059TIP3    H133736   1.101   0.925   1.226 -1.0000 -0.0689 -1.8473
 4059TIP3    H233737   1.249   0.954   1.239 -1.1022  0.3607 -1.6131
 4060TIP3   OH233738   0.189   3.787   0.969  0.8233 -0.1749  0.5155
 4060TIP3    H133739   0.102   3.803   1.005  0.5967  0.6815 -0.3733
 4060TIP3    H233740   0.247   3.842   1.021  0.8180 -0.6389  1.0166
 4061TIP3   OH233741   2.488   5.533   3.367 -0.4451  0.3956 -1.0165
 4061TIP3    H133742   2.583   5.534   3.355 -0.0564 -0.8480  1.3987
 4061TIP3    H233743   2.473   5.578   3.451 -1.9928  0.4204 -1.2664
 4062TIP3   OH233744   3.248   5.923   1.388  0.4613  0.2607 -0.5366
 4062TIP3    H133745   3.200   5.873   1.454  1.4716 -0.7946 -0.5732
 4062TIP3    H233746   3.221   5.886   1.304  0.9918 -0.0252 -0.5814
 4063TIP3   OH233747   3.328   0.848   8.408 -0.2376 -0.7116 -0.4960
 4063TIP3    H133748   3.251   0.836   8.351 -1.5605 -0.5089  1.1542
 4063TIP3    H233749   3.376   0.921   8.368 -0.0334 -1.8319 -2.4169
 4064TIP3   OH233750   4.569   5.183   0.788  0.0213  0.0573  0.1148
 4064TIP3    H133751   4.593   5.261   0.738  0.5154  0.1720  0.5212
 4064TIP3    H233752   4.567   5.212   0.879 -0.4770 -0.2428  0.2067
 4065TIP3   OH233753   6.477   3.345   2.151  0.4247 -0.4453  0.1436
 4065TIP3    H133754   6.485   3.390   2.067  0.6901 -1.1236 -0.2076
 4065TIP3    H233755   6.385   3.357   2.176  0.4783  0.2332  0.0352
 4066TIP3   OH233756   4.595   5.622   0.439  0.2762  0.0929 -0.2184
 4066TIP3    H133757   4.685   5.600   0.462 -0.1069 -1.8949 -0.5042
 4066TIP3    H233758   4.565   5.679   0.511  0.9409 -1.3338  1.2331
 4067TIP3   OH233759   4.326   0.693   0.444  0.0307 -0.2686 -0.3290
 4067TIP3    H133760   4.385   0.672   0.516  0.4610  0.0701 -0.5752
 4067TIP3    H233761   4.356   0.779   0.413 -1.2245  0.3889  0.1980
 4068TIP3   OH233762   2.504   4.537   0.032 -0.0310  0.1237  0.0790
 4068TIP3    H133763   2.487   4.442   0.033 -0.9420  0.2410  2.3247
 4068TIP3    H233764   2.441   4.572  -0.031  0.0314 -0.7262 -0.4673
 4069TIP3   OH233765   3.059   6.918   1.128 -0.1369  0.3079  0.4140
 4069TIP3    H133766   2.989   6.891   1.068 -0.1540 -2.1208  1.4207
 4069TIP3    H233767   3.139   6.907   1.077 -0.2939  0.3975  0.1436
 4070TIP3   OH233768   5.061   1.869   1.813 -0.1670  0.2311 -0.0483
 4070TIP3    H133769   5.141   1.887   1.763  0.5154  1.3396  1.3408
 4070TIP3    H233770   5.014   1.952   1.812 -0.4449  0.0866  0.5985
 4071TIP3   OH233771   4.776   5.358   1.395  0.0698  0.4615  0.4058
 4071TIP3    H133772   4.764   5.356   1.490 -1.4256 -0.2249  0.2315
 4071TIP3    H233773   4.698   5.313   1.360  1.2957 -0.6015 -1.0858
 4072TIP3   OH233774   0.085   5.451   7.299  0.1533  0.1260 -0.0206
 4072TIP3    H133775   0.123   5.365   7.316 -0.3988  0.0133  0.7109
 4072TIP3    H233776   0.035   5.439   7.218  1.7142  0.3053 -1.0536
 4073TIP3   OH233777   4.396   2.030   2.214  0.2822  0.7573 -1.2922
 4073TIP3    H133778   4.462   2.010   2.148  0.8654  1.5692 -0.9582
 4073TIP3    H233779   4.407   2.123   2.234  1.4325  0.1592  1.3435
 4074TIP3   OH233780   4.095   2.228   7.472  0.1292 -0.2557 -1.1288
 4074TIP3    H133781   4.101   2.162   7.541 -1.5389  0.9923  0.3028
 4074TIP3    H233782   4.029   2.193   7.412  0.4573 -0.6443 -1.2649
 4075TIP3   OH233783   1.524   6.711   2.855 -0.5039 -0.4687  0.1256
 4075TIP3    H133784   1.561   6.743   2.937 -1.1263 -0.7949  0.5410
 4075TIP3    H233785   1.504   6.618   2.872 -2.3519 -0.0965  0.2340
 4076TIP3   OH233786   3.204   4.501   0.075  0.1660  0.0121  0.3370
 4076TIP3    H133787   3.259   4.523   0.000 -0.9994  0.3992 -0.4476
 4076TIP3    H233788   3.256   4.522   0.152  0.5065  1.9142 -0.3751
 4077TIP3   OH233789   2.774   0.361   0.908  0.2952 -0.4179  0.0823
 4077TIP3    H133790   2.861   0.326   0.888  0.7988 -0.1814  1.7669
 4077TIP3    H233791   2.713   0.296   0.872  1.1862 -1.6680  0.7732
 4078TIP3   OH233792   5.719   6.795   2.881  0.4679 -0.1748 -0.0138
 4078TIP3    H133793   5.716   6.704   2.911 -0.0648 -0.1041  0.1492
 4078TIP3    H233794   5.748   6.844   2.958  1.9638 -0.3425 -0.4317
 4079TIP3   OH233795   0.065   4.144   7.281  0.7436 -0.5614  0.5205
 4079TIP3    H133796   0.155   4.134   7.249  0.5282  1.4647 -0.9136
 4079TIP3    H233797   0.024   4.204   7.219 -1.2164 -0.3737  1.9048
 4080TIP3   OH233798   0.971   2.158   1.584 -0.4600 -0.1255 -0.1048
 4080TIP3    H133799   0.900   2.126   1.638  1.5552 -1.6521  1.8345
 4080TIP3    H233800   0.983   2.090   1.517  0.2550 -0.7698  0.6503
 4081TIP3   OH233801   5.151   5.670   2.056  0.1145 -0.2234  0.0631
 4081TIP3    H133802   5.245   5.684   2.043  0.3232 -1.0665  0.6504
 4081TIP3    H233803   5.110   5.742   2.007  1.0623  0.2852 -0.0096
 4082TIP3   OH233804   1.303   1.948   7.835  0.1508  0.0567 -0.3511
 4082TIP3    H133805   1.290   1.863   7.793  0.7459  0.7058 -1.9047
 4082TIP3    H233806   1.277   1.934   7.926  0.7715 -1.9237 -0.4451
 4083TIP3   OH233807   3.840   0.364   2.506 -0.7808  0.2364  0.0940
 4083TIP3    H133808   3.894   0.289   2.480 -1.1996  0.2919 -0.9773
 4083TIP3    H233809   3.883   0.398   2.584 -1.2609 -1.8591  1.3697
 4084TIP3   OH233810   5.205   1.478   1.805 -0.8994  0.0822  0.0863
 4084TIP3    H133811   5.211   1.383   1.793 -0.3550  0.0352  0.7144
 4084TIP3    H233812   5.293   1.510   1.790 -1.2467  0.5931 -0.9294
 4085TIP3   OH233813   5.111   2.034   3.226  0.3052 -0.1880  0.9253
 4085TIP3    H133814   5.080   2.101   3.287 -1.3103  0.4170 -0.4771
 4085TIP3    H233815   5.206   2.035   3.235  0.1604  0.4575  2.7878
 4086TIP3   OH233816   3.771   4.090   0.656  0.0263  0.1502  0.0228
 4086TIP3    H133817   3.818   4.026   0.710  0.3277  0.5073  0.1817
 4086TIP3    H233818   3.704   4.125   0.714  1.0720  1.3657  0.5264
 4087TIP3   OH233819   3.915   4.518   1.833 -0.4427  0.3610  0.3750
 4087TIP3    H133820   4.011   4.514   1.827 -0.5601 -1.2856 -2.0984
 4087TIP3    H233821   3.897   4.599   1.880  2.1508  0.7089  0.9303
 4088TIP3   OH233822   4.682   0.500   7.736 -0.4556  0.2471  0.2537
 4088TIP3    H133823   4.759   0.477   7.788 -0.9827  1.2364  1.5274
 4088TIP3    H233824   4.718   0.531   7.652  0.3533 -2.7393 -0.6180
 4089TIP3   OH233825   0.255   3.886   0.374 -0.3777  0.1059  0.4839
 4089TIP3    H133826   0.307   3.943   0.430  0.2968  0.0029 -0.0263
 4089TIP3    H233827   0.243   3.806   0.426  1.1609 -0.4093  0.0951
 4090TIP3   OH233828   4.288   4.968   2.148  0.3787  0.0067 -0.4260
 4090TIP3    H133829   4.271   5.019   2.069 -2.2497  1.3965  0.9128
 4090TIP3    H233830   4.207   4.919   2.164  1.2734 -1.1861  0.7828
 4091TIP3   OH233831   2.808   4.146   7.568  0.1135 -0.9020 -0.3820
 4091TIP3    H133832   2.813   4.053   7.545  1.0696 -0.7947 -0.6330
 4091TIP3    H233833   2.817   4.147   7.664 -0.5547 -1.1061 -0.3097
 4092TIP3   OH233834   4.679   6.316   1.617  0.9349  0.2125 -0.1813
 4092TIP3    H133835   4.681   6.220   1.614  0.8257  0.1173  1.5306
 4092TIP3    H233836   4.710   6.344   1.531 -1.0655 -1.3466 -1.5130
 4093TIP3   OH233837   3.939   3.152   7.940 -0.3725  0.0875  0.6277
 4093TIP3    H133838   3.972   3.062   7.948 -0.5072  0.0940  1.2589
 4093TIP3    H233839   3.852   3.142   7.902 -0.1154 -0.0012  0.0476
 4094TIP3   OH233840   3.730   2.009   2.840 -0.3052 -0.5116  0.1453
 4094TIP3    H133841   3.778   1.933   2.810  0.4641 -0.5445  1.3893
 4094TIP3    H233842   3.648   2.008   2.790  0.9043 -0.5239 -1.9132
 4095TIP3   OH233843   6.000   3.574   7.598 -0.4601  0.4202 -0.6416
 4095TIP3    H133844   5.961   3.655   7.567 -0.8172  0.4264 -0.1892
 4095TIP3    H233845   6.087   3.600   7.629 -0.5057  0.5976 -0.6624
 4096TIP3   OH233846   0.012   0.928   1.983 -0.5306 -0.1712  0.1526
 4096TIP3    H133847   0.054   0.843   1.969 -0.2755 -0.3727  1.8851
 4096TIP3    H233848   0.042   0.956   2.069 -1.1082  1.4008 -0.1152
 4097TIP3   OH233849   3.774   6.994   8.070  0.7724  0.1033 -0.2126
 4097TIP3    H133850   3.824   7.013   7.991  1.2099 -0.8460 -0.1774
 4097TIP3    H233851   3.839   6.996   8.141  0.9201 -1.7995 -0.2525
 4098TIP3   OH233852   1.214   4.171   1.854 -0.0072 -0.2324 -0.2269
 4098TIP3    H133853   1.224   4.227   1.931 -0.4706 -0.1813 -0.2009
 4098TIP3    H233854   1.267   4.094   1.873 -2.2466 -1.5024  1.3836
 4099TIP3   OH233855   2.374   4.094   0.470  0.5568 -0.6717  0.1486
 4099TIP3    H133856   2.301   4.140   0.430 -0.9206 -2.6687  0.3367
 4099TIP3    H233857   2.374   4.124   0.561  0.1371 -0.4291  0.0719
 4100TIP3   OH233858   5.233   6.040   2.702 -0.5151  0.1731  0.0517
 4100TIP3    H133859   5.234   5.945   2.716 -0.6442  0.2567  0.6615
 4100TIP3    H233860   5.250   6.077   2.789  0.5126  0.7010 -0.3636
 4101TIP3   OH233861   1.983   4.119   8.274  0.2989 -1.0579 -0.5990
 4101TIP3    H133862   1.897   4.086   8.249 -0.0561 -1.3151  0.8478
 4101TIP3    H233863   1.986   4.108   8.369  0.2520  2.8845  0.0071
 4102TIP3   OH233864   0.732   1.980   2.853 -0.0655  0.3173  0.1247
 4102TIP3    H133865   0.818   1.943   2.831 -0.2301 -0.3152  0.5305
 4102TIP3    H233866   0.727   1.974   2.948 -1.0150 -0.6911  0.0271
 4103TIP3   OH233867   4.912   4.349   2.086  0.2896 -0.2989  0.1277
 4103TIP3    H133868   4.840   4.410   2.100 -0.0383 -0.6480 -0.0165
 4103TIP3    H233869   4.880   4.290   2.017  0.7034 -0.4657  0.0773
 4104TIP3   OH233870   1.355   1.880   1.953 -0.4372 -0.3339 -0.4745
 4104TIP3    H133871   1.343   1.795   1.994  1.1370  0.5260  2.0349
 4104TIP3    H233872   1.448   1.899   1.963 -0.7453  1.6894 -0.9301
 4105TIP3   OH233873   3.152   5.662   2.513  0.4935 -0.6291  0.1652
 4105TIP3    H133874   3.121   5.701   2.595  0.3986  1.3146 -0.7520
 4105TIP3    H233875   3.073   5.647   2.462  0.7063  0.2052 -0.4223
 4106TIP3   OH233876   1.637   1.006   0.797  0.4714 -0.5721 -0.2929
 4106TIP3    H133877   1.587   1.087   0.789  2.1356  0.5704  0.2948
 4106TIP3    H233878   1.728   1.032   0.784  0.9142 -2.7023 -2.2165
 4107TIP3   OH233879   0.083   6.107   3.148  0.8293 -0.5079  0.2536
 4107TIP3    H133880   0.021   6.086   3.219  1.1242  0.3755  0.7844
 4107TIP3    H233881   0.110   6.197   3.166  2.0183 -0.7733 -0.1659
 4108TIP3   OH233882   4.098   0.458   1.915 -0.1851  0.2707 -0.4868
 4108TIP3    H133883   4.068   0.521   1.850  0.1130 -0.1231 -1.0119
 4108TIP3    H233884   4.170   0.502   1.960 -1.8601  1.4550  1.1861
 4109TIP3   OH233885   1.848   4.136   1.832  0.2433 -0.0304  0.4536
 4109TIP3    H133886   1.829   4.054   1.786  0.4010 -0.2406  0.7599
 4109TIP3    H233887   1.894   4.189   1.767  1.3228 -0.6943  0.6537
 4110TIP3   OH233888   6.171   0.982   7.188  0.2023 -0.0495  0.2109
 4110TIP3    H133889   6.138   0.944   7.270 -0.9976  1.9990  0.7651
 4110TIP3    H233890   6.192   0.906   7.133  1.2985 -1.4987  2.4672
 4111TIP3   OH233891   3.104   3.387   2.415 -0.1978 -0.1722 -0.5693
 4111TIP3    H133892   3.053   3.320   2.461  1.7017 -1.8752 -0.7714
 4111TIP3    H233893   3.164   3.421   2.481 -0.2456  0.3598 -0.8005
 4112TIP3   OH233894   3.112   4.448   0.509  0.0931  0.1761  0.3504
 4112TIP3    H133895   3.066   4.521   0.468  1.4120 -0.3626 -2.2990
 4112TIP3    H233896   3.115   4.380   0.441  1.2658 -1.3138  1.7999
 4113TIP3   OH233897   2.802   2.430   0.476 -0.0303 -0.2107 -0.3099
 4113TIP3    H133898   2.778   2.511   0.430  2.7463 -0.2047 -1.9686
 4113TIP3    H233899   2.721   2.403   0.520 -0.7089  4.4858  2.0487
 4114TIP3   OH233900   4.910   6.509   0.121 -0.1823 -0.3870 -0.1179
 4114TIP3    H133901   4.849   6.479   0.188  1.0013 -0.3375  1.0360
 4114TIP3    H233902   4.876   6.594   0.092 -1.0925 -0.7405 -0.1090
 4115TIP3   OH233903   5.902   6.972   2.239  0.0008 -0.2492  0.4681
 4115TIP3    H133904   5.835   6.929   2.293  1.0020 -0.9549  1.1915
 4115TIP3    H233905   5.953   6.900   2.202  0.0457  0.2665 -0.5008
 4116TIP3   OH233906   4.512   6.779   0.997 -0.2420 -0.2566  0.0057
 4116TIP3    H133907   4.429   6.739   1.025 -0.8692  0.0156 -1.3795
 4116TIP3    H233908   4.573   6.757   1.067 -1.0927 -1.8066  0.3263
 4117TIP3   OH233909   4.769   3.873   1.350 -0.0889  0.3773 -0.0242
 4117TIP3    H133910   4.741   3.853   1.261  0.5796 -0.8807  0.0244
 4117TIP3    H233911   4.745   3.796   1.401  1.8629 -0.0351  0.3483
 4118TIP3   OH233912   2.810   4.669   3.098 -0.4452 -0.4099 -0.0091
 4118TIP3    H133913   2.853   4.748   3.064 -2.5146  0.3058 -1.1048
 4118TIP3    H233914   2.821   4.676   3.193  1.3560 -0.0034 -0.2052
 4119TIP3   OH233915   6.953   0.945   2.543 -0.0649 -1.1213 -0.0016
 4119TIP3    H133916   7.011   1.015   2.572 -1.6600  0.3888 -0.3329
 4119TIP3    H233917   6.979   0.928   2.452 -1.0168  0.5414 -0.6207
 4120TIP3   OH233918   3.682   3.704   2.036  0.6134 -0.0396 -0.6782
 4120TIP3    H133919   3.733   3.662   2.105  0.6280  1.2974  0.1702
 4120TIP3    H233920   3.593   3.705   2.070  0.7074  1.0837 -0.4241
 4121TIP3   OH233921   0.391   2.597   2.171  0.5987  0.2702 -0.7179
 4121TIP3    H133922   0.345   2.673   2.208  1.9746  0.0809  1.6361
 4121TIP3    H233923   0.462   2.635   2.118  1.6559  0.7338  0.9313
 4122TIP3   OH233924   2.798   1.524   7.996 -0.2178  0.2527 -0.3193
 4122TIP3    H133925   2.880   1.528   8.046 -0.7505 -1.8762  0.8808
 4122TIP3    H233926   2.805   1.443   7.945 -1.3830  0.2607 -0.5285
 4123TIP3   OH233927   4.311   4.283   7.318  0.9740  0.2903 -0.1213
 4123TIP3    H133928   4.399   4.307   7.346  1.0708 -0.9762  0.7602
 4123TIP3    H233929   4.295   4.197   7.358  0.2742 -0.6603 -2.2710
 4124TIP3   OH233930   4.032   2.564   0.012 -0.2446  0.6139 -0.0401
 4124TIP3    H133931   3.937   2.554   0.011 -0.4268  2.0799 -0.2949
 4124TIP3    H233932   4.056   2.564   0.105 -0.4394 -0.1302  0.0123
 4125TIP3   OH233933   0.886   1.019   2.523 -0.2794  0.6718  0.4532
 4125TIP3    H133934   0.830   1.076   2.470  0.8009 -0.1505 -1.6968
 4125TIP3    H233935   0.958   1.075   2.551  1.2118  0.3320 -2.3314
 4126TIP3   OH233936   2.991   6.099   2.652  0.0655  0.2807  0.5553
 4126TIP3    H133937   3.057   6.169   2.650 -0.6439  0.9657 -0.0154
 4126TIP3    H233938   3.028   6.030   2.597  0.3299  0.6447  0.2643
 4127TIP3   OH233939   5.689   2.551   1.440  0.4336  0.1478 -0.0603
 4127TIP3    H133940   5.658   2.636   1.473 -1.3468 -0.7723  0.7760
 4127TIP3    H233941   5.749   2.519   1.507 -0.3740 -0.0907  0.5640
 4128TIP3   OH233942   3.431   0.257   2.626  0.1172  0.0726 -0.6048
 4128TIP3    H133943   3.494   0.229   2.693  0.1273  0.6702 -0.3586
 4128TIP3    H233944   3.474   0.329   2.581 -0.7404  1.0949  0.1648
 4129TIP3   OH233945   4.044   4.460   2.163  0.1677 -0.5263  0.9398
 4129TIP3    H133946   4.100   4.529   2.128  1.1182 -1.4127  0.6540
 4129TIP3    H233947   4.088   4.431   2.242 -0.6932 -0.2155  1.5530
 4130TIP3   OH233948   2.023   5.815   2.101  0.2880 -0.1688 -0.3830
 4130TIP3    H133949   2.092   5.750   2.093 -0.1150 -0.4489 -1.9542
 4130TIP3    H233950   2.060   5.895   2.064 -0.0290 -0.1543 -0.6709
 4131TIP3   OH233951   6.975   4.044   3.078 -0.2968  0.1114  0.0239
 4131TIP3    H133952   7.039   4.056   3.147  0.3188 -0.6926 -0.3874
 4131TIP3    H233953   6.927   3.965   3.103 -2.7189  1.9240  1.5090
 4132TIP3   OH233954   3.040   2.803   0.532 -0.2225  0.3933  0.0136
 4132TIP3    H133955   3.060   2.896   0.518 -0.7847  1.0261  2.7957
 4132TIP3    H233956   3.043   2.792   0.627 -0.5922 -2.3747 -0.2149
 4133TIP3   OH233957   1.723   5.210   0.274 -0.1318  0.2112 -0.2029
 4133TIP3    H133958   1.734   5.304   0.287  0.7704 -0.1642  2.1673
 4133TIP3    H233959   1.634   5.191   0.301  0.4447  0.0698  1.7300
 4134TIP3   OH233960   3.102   0.350   8.372  0.0108  0.5979 -0.8484
 4134TIP3    H133961   3.049   0.424   8.342  2.1287  2.0483 -1.2879
 4134TIP3    H233962   3.143   0.315   8.293  1.8601  1.3481 -0.2839
 4135TIP3   OH233963   6.118   2.750   7.654  0.0153  1.0557 -0.1008
 4135TIP3    H133964   6.043   2.709   7.698  0.3928  0.2970 -0.1486
 4135TIP3    H233965   6.079   2.812   7.593 -0.5577  1.1026  0.3060
 4136TIP3   OH233966   1.480   1.676   0.162 -0.7578  0.0694 -0.0235
 4136TIP3    H133967   1.550   1.644   0.105 -0.0866  0.0334  0.8125
 4136TIP3    H233968   1.411   1.609   0.154 -0.6419  0.0163 -0.7069
 4137TIP3   OH233969   5.045   0.514   2.062  0.2708  0.0816  0.2775
 4137TIP3    H133970   5.115   0.539   2.001 -0.7916  1.4656 -0.4174
 4137TIP3    H233971   5.053   0.419   2.069  1.4760  0.0837 -0.7099
 4138TIP3   OH233972   5.186   0.784   7.788  0.2554 -0.0618 -0.3678
 4138TIP3    H133973   5.121   0.845   7.754  1.7372  1.0985 -1.2747
 4138TIP3    H233974   5.198   0.809   7.879  1.0419  1.2220 -0.8030
 4139TIP3   OH233975   4.270   1.715   1.669  0.1671  0.1050  0.0252
 4139TIP3    H133976   4.187   1.750   1.637 -0.2449 -2.2193 -1.6583
 4139TIP3    H233977   4.247   1.672   1.752 -0.0701  0.4046  0.1186
 4140TIP3   OH233978   1.112   0.358   2.286 -0.1841 -0.0611 -0.8335
 4140TIP3    H133979   1.040   0.367   2.224  0.3379  1.4167 -1.2797
 4140TIP3    H233980   1.081   0.400   2.366  0.2280  0.7506 -1.0882
 4141TIP3   OH233981   3.923   2.301   8.099  0.5075  1.1742  0.2733
 4141TIP3    H133982   3.879   2.278   8.181  0.6989  0.3527  0.1531
 4141TIP3    H233983   3.852   2.313   8.037  0.3948  1.0891  0.3848
 4142TIP3   OH233984   6.395   2.989   6.987  0.1408 -0.3622 -0.4351
 4142TIP3    H133985   6.361   3.078   6.995 -3.2610 -1.4969 -0.6483
 4142TIP3    H233986   6.417   2.963   7.077 -2.6110 -0.5532  0.2614
 4143TIP3   OH233987   1.100   4.588   2.359 -0.5674  0.1039  0.0151
 4143TIP3    H133988   1.095   4.647   2.434  1.2487  0.8953 -0.4117
 4143TIP3    H233989   1.016   4.597   2.315 -1.4640  0.0226  1.6428
 4144TIP3   OH233990   5.091   3.639   2.048  0.1672  0.4779 -0.3042
 4144TIP3    H133991   5.144   3.703   2.001  1.1491 -0.2951 -0.2797
 4144TIP3    H233992   5.154   3.575   2.082 -0.7625 -0.3826 -0.1345
 4145TIP3   OH233993   1.690   5.643   8.405  0.0275 -0.1781 -0.2995
 4145TIP3    H133994   1.615   5.623   8.348 -0.7121 -0.5726  0.7687
 4145TIP3    H233995   1.650   5.677   8.485  1.0453  0.3310  0.0061
 4146TIP3   OH233996   1.551   3.747   2.056  0.1692  0.0001 -0.4357
 4146TIP3    H133997   1.596   3.746   2.140 -0.6755 -0.6328  0.0179
 4146TIP3    H233998   1.461   3.723   2.076  0.2872 -1.6528 -1.6975
 4147TIP3   OH233999   5.847   0.574   2.653  0.1366 -0.0606  0.6693
 4147TIP3    H134000   5.849   0.480   2.637  1.4618  0.0953 -0.2283
 4147TIP3    H234001   5.933   0.594   2.691  0.9564  1.1558 -1.6473
 4148TIP3   OH234002   3.313   0.626   2.371 -0.2912  0.2771 -0.8518
 4148TIP3    H134003   3.333   0.615   2.464 -2.2753 -0.0199 -0.4098
 4148TIP3    H234004   3.362   0.703   2.345 -2.0656  2.2725  1.2718
 4149TIP3   OH234005   4.619   3.840   0.860 -0.3490  0.6267 -0.0334
 4149TIP3    H134006   4.679   3.785   0.811 -1.7280 -0.6513 -0.3694
 4149TIP3    H234007   4.569   3.888   0.794  0.0493  1.4204  0.2280
 4150TIP3   OH234008   5.173   1.497   2.935 -0.0796  0.4041  0.5808
 4150TIP3    H134009   5.204   1.533   3.019  0.0355  1.9802 -0.1101
 4150TIP3    H234010   5.090   1.541   2.919 -0.2074 -0.0488 -0.0356
 4151TIP3   OH234011   4.291   4.667   1.103 -0.1658 -0.2212  0.1039
 4151TIP3    H134012   4.272   4.742   1.159  0.9647 -0.6851  1.1327
 4151TIP3    H234013   4.205   4.642   1.068 -0.5921  1.4083 -0.1098
 4152TIP3   OH234014   4.610   1.446   2.281  0.4478  0.9289 -0.2702
 4152TIP3    H134015   4.622   1.445   2.186  0.6170 -2.8124 -0.3562
 4152TIP3    H234016   4.520   1.416   2.294  0.4099  1.4471  0.7619
 4153TIP3   OH234017   5.145   1.653   2.001  0.3933 -0.0339 -0.2312
 4153TIP3    H134018   5.085   1.719   1.965  2.2278  1.3375 -0.8913
 4153TIP3    H234019   5.158   1.591   1.929  0.0276 -0.1638 -0.1888
 4154TIP3   OH234020   6.229   4.317   0.181  0.2822  0.0652 -0.4110
 4154TIP3    H134021   6.280   4.398   0.170  0.5511 -0.1996 -1.1435
 4154TIP3    H234022   6.219   4.283   0.093 -0.3969 -0.3659 -0.1704
 4155TIP3   OH234023   6.172   0.066   2.286 -0.2033  0.2104 -0.1640
 4155TIP3    H134024   6.097   0.011   2.266 -0.5172  0.2967  0.7431
 4155TIP3    H234025   6.163   0.086   2.379  1.0244  0.0859 -0.0012
 4156TIP3   OH234026   0.732   1.214   3.343 -0.6538  0.2288 -0.1060
 4156TIP3    H134027   0.737   1.309   3.356 -0.0015  0.6702 -2.9178
 4156TIP3    H234028   0.813   1.192   3.298 -0.8441 -1.6766  0.4011
 4157TIP3   OH234029   2.699   2.497   1.140  0.0521  0.4187  0.1261
 4157TIP3    H134030   2.616   2.538   1.165 -0.6720 -0.6438 -0.4658
 4157TIP3    H234031   2.766   2.558   1.172 -0.9346  1.0603  1.0454
 4158TIP3   OH234032   2.090   2.734   2.388 -0.2049  0.1677  0.1950
 4158TIP3    H134033   2.021   2.685   2.433  0.7115 -0.1632  1.2678
 4158TIP3    H234034   2.070   2.826   2.407  0.0935  0.0389  1.1924
 4159TIP3   OH234035   6.245   5.701   2.847  0.0627  0.2141 -0.0841
 4159TIP3    H134036   6.249   5.686   2.753  2.1357  1.2447 -0.2273
 4159TIP3    H234037   6.153   5.718   2.866 -0.8914 -2.8534 -1.3968
 4160TIP3   OH234038   5.003   4.644   2.214  0.2018 -0.0008  0.9538
 4160TIP3    H134039   5.004   4.557   2.254 -1.0238 -0.3892  0.1990
 4160TIP3    H234040   4.912   4.657   2.189  0.2846  1.7055  1.4637
 4161TIP3   OH234041   3.713   1.943   2.542  0.3609 -0.1836  0.2426
 4161TIP3    H134042   3.803   1.942   2.509  1.1809  0.3940  2.3218
 4161TIP3    H234043   3.679   2.029   2.517  0.9407  0.2160  0.8094
 4162TIP3   OH234044   6.272   2.506   7.481 -0.2575 -0.0143  0.4532
 4162TIP3    H134045   6.336   2.568   7.446 -0.6788  0.3325  0.2993
 4162TIP3    H234046   6.187   2.549   7.470 -0.6561 -1.0172 -0.5680
 4163TIP3   OH234047   1.442   6.930   2.026 -0.3453  0.2223 -0.0711
 4163TIP3    H134048   1.514   6.912   1.965  0.2743  0.4851  0.5780
 4163TIP3    H234049   1.382   6.856   2.014  0.2096 -0.1930 -0.3481
 4164TIP3   OH234050   0.061   3.994   8.183  0.1283 -0.5812 -0.4656
 4164TIP3    H134051   0.063   3.899   8.195  1.2097 -0.5661 -0.4308
 4164TIP3    H234052   0.032   4.006   8.093  0.6043 -0.9749 -0.6784
 4165TIP3   OH234053   4.568   0.280   0.388 -0.0215  0.1745 -1.0251
 4165TIP3    H134054   4.595   0.372   0.380 -0.4202  0.3516 -0.4018
 4165TIP3    H234055   4.503   0.281   0.458 -0.0463 -0.5845 -1.0384
 4166TIP3   OH234056   3.270   3.281   2.223  0.2631  0.2759  0.0933
 4166TIP3    H134057   3.351   3.265   2.270 -0.6032 -2.2496  0.9253
 4166TIP3    H234058   3.222   3.344   2.277  1.2279  1.0324  0.0871
 4167TIP3   OH234059   1.971   3.902   0.233 -0.1559 -0.5146 -0.3775
 4167TIP3    H134060   1.966   3.891   0.327 -1.4528 -1.2070 -0.5074
 4167TIP3    H234061   2.061   3.880   0.211  0.5276  0.8984  0.8282
 4168TIP3   OH234062   1.926   1.796   1.632  0.2701  0.2536 -0.6377
 4168TIP3    H134063   1.847   1.850   1.637  0.0778 -0.0887  2.5051
 4168TIP3    H234064   1.995   1.850   1.671  1.7448  0.6134 -3.4973
 4169TIP3   OH234065   0.377   5.491   0.375  0.0560  0.0344 -0.4529
 4169TIP3    H134066   0.406   5.474   0.285 -0.7244  0.3276 -0.7665
 4169TIP3    H234067   0.296   5.541   0.365 -0.3159 -0.3860  0.4094
 4170TIP3   OH234068   3.260   6.490   3.022 -0.3066  0.4540  0.4896
 4170TIP3    H134069   3.266   6.489   3.117  1.4292  0.2613  0.4204
 4170TIP3    H234070   3.250   6.582   2.999  2.0348  0.8592  0.8011
 4171TIP3   OH234071   5.531   1.374   8.261 -0.0623 -0.2543  0.2004
 4171TIP3    H134072   5.518   1.468   8.250 -0.2503 -0.4004 -0.9054
 4171TIP3    H234073   5.507   1.358   8.353  0.5961  0.8664  0.5987
 4172TIP3   OH234074   6.456   3.985   0.181 -0.1744  0.1147 -0.4326
 4172TIP3    H134075   6.456   4.059   0.242 -1.2904  1.4002 -1.9287
 4172TIP3    H234076   6.537   3.994   0.131 -0.8779  1.0695 -1.4366
 4173TIP3   OH234077   0.294   1.928   2.509  0.1180 -0.3415  0.1505
 4173TIP3    H134078   0.302   2.021   2.489  0.0851 -0.3872 -0.0880
 4173TIP3    H234079   0.380   1.892   2.490  0.2018 -0.3172  0.4830
 4174TIP3   OH234080   0.035   1.032   7.562 -0.0353 -0.0370  0.4702
 4174TIP3    H134081   0.108   1.074   7.515 -0.0047  1.3549  1.6748
 4174TIP3    H234082   0.027   0.946   7.521  2.8769 -0.6145  0.8319
 4175TIP3   OH234083   4.300   2.693   1.267 -0.3588 -0.2824  0.2087
 4175TIP3    H134084   4.354   2.615   1.256  1.4911  0.6755  1.8008
 4175TIP3    H234085   4.210   2.662   1.259  0.3249 -2.5247  0.6324
 4176TIP3   OH234086   6.876   0.192   7.650 -0.5305 -0.3325 -0.2409
 4176TIP3    H134087   6.897   0.201   7.556 -0.7380 -1.5124 -0.4192
 4176TIP3    H234088   6.962   0.179   7.691 -0.3055  1.4579 -0.0756
 4177TIP3   OH234089   6.945   1.059   1.319  0.4255 -0.2194  0.3553
 4177TIP3    H134090   6.925   1.126   1.383  1.9084  2.2458 -1.5606
 4177TIP3    H234091   6.863   1.045   1.272 -0.1415 -0.5328  1.4058
 4178TIP3   OH234092   4.163   1.104   3.240 -0.5805  0.2111  0.1060
 4178TIP3    H134093   4.197   1.090   3.329 -1.5569 -3.1773  0.0951
 4178TIP3    H234094   4.239   1.130   3.189  0.1704  1.3919  1.7590
 4179TIP3   OH234095   3.457   5.586   2.114  0.0432 -0.6987 -0.3722
 4179TIP3    H134096   3.408   5.526   2.170 -0.5945 -0.7141 -0.9320
 4179TIP3    H234097   3.393   5.618   2.050  0.2936  0.7987  0.0722
 4180TIP3   OH234098   5.365   5.442   1.625 -0.4485 -0.6001  0.0874
 4180TIP3    H134099   5.409   5.431   1.710 -0.2185 -1.4149 -0.1277
 4180TIP3    H234100   5.337   5.353   1.601  1.6003 -0.8211 -1.8059
 4181TIP3   OH234101   4.615   5.388   0.065  0.4997 -0.2509  0.0031
 4181TIP3    H134102   4.610   5.294   0.051  0.7434 -0.0285 -1.8037
 4181TIP3    H234103   4.594   5.427  -0.020  2.8580  1.2721  0.0032
 4182TIP3   OH234104   5.471   6.675   0.144  0.2740  0.3197 -0.0404
 4182TIP3    H134105   5.381   6.650   0.165  0.7955 -0.1038  1.9384
 4182TIP3    H234106   5.485   6.756   0.193  0.7988  0.7112 -0.8175
 4183TIP3   OH234107   0.798   4.685   8.058 -0.1370  0.6735  0.1183
 4183TIP3    H134108   0.756   4.599   8.062  1.3380 -0.0177  2.2386
 4183TIP3    H234109   0.844   4.684   7.973 -0.9383 -0.2135 -0.3281
 4184TIP3   OH234110   6.785   1.012   1.878 -0.3548  0.1897 -0.3706
 4184TIP3    H134111   6.871   0.989   1.913 -0.0732  1.7991  0.0770
 4184TIP3    H234112   6.727   0.943   1.910  0.4517  0.0253  0.8083
 4185TIP3   OH234113   3.200   5.949   7.696 -0.0173 -0.0589  0.2992
 4185TIP3    H134114   3.162   5.877   7.646 -0.6664 -0.6616  1.6291
 4185TIP3    H234115   3.151   5.951   7.778  0.4575  1.4545  0.5828
 4186TIP3   OH234116   1.793   5.753   0.297 -0.2964 -0.1525 -0.3674
 4186TIP3    H134117   1.825   5.808   0.369  1.0168 -0.3007 -0.8045
 4186TIP3    H234118   1.837   5.787   0.219 -3.3104  1.4000 -1.5505
 4187TIP3   OH234119   3.094   6.551   2.502 -0.3545  0.4560  0.2055
 4187TIP3    H134120   3.089   6.564   2.408 -0.8633  0.7832  0.2700
 4187TIP3    H234121   3.052   6.629   2.539 -2.1582 -0.6615  0.6543
 4188TIP3   OH234122   6.922   0.928   1.630 -0.3139 -0.5932  0.3663
 4188TIP3    H134123   6.860   0.981   1.680  0.3650 -0.4981  1.1177
 4188TIP3    H234124   6.894   0.838   1.647 -0.2317 -0.5525  0.7239
 4189TIP3   OH234125   1.065   6.438   0.528 -0.1904 -0.0092 -0.0577
 4189TIP3    H134126   1.099   6.528   0.525 -1.5150  0.5027 -1.0524
 4189TIP3    H234127   1.036   6.426   0.618 -0.1064  0.6051  0.0573
 4190TIP3   OH234128   5.772   3.028   1.326  0.0046 -0.9173  0.0211
 4190TIP3    H134129   5.777   3.081   1.406  1.7452 -2.2402  0.8437
 4190TIP3    H234130   5.863   3.019   1.298 -0.4000 -2.2429 -0.9238
 4191TIP3   OH234131   6.239   1.504   1.531 -0.0287  0.2089  0.5718
 4191TIP3    H134132   6.150   1.476   1.508  0.6901 -0.1707 -2.0592
 4191TIP3    H234133   6.289   1.422   1.534  0.6684  0.6059 -0.1754
 4192TIP3   OH234134   4.850   5.231   1.118  0.6039 -0.0296  0.3113
 4192TIP3    H134135   4.891   5.317   1.124 -0.8806  0.5894  3.2811
 4192TIP3    H234136   4.902   5.175   1.176 -0.2982 -0.2644  0.9223
 4193TIP3   OH234137   6.430   5.704   7.538 -0.0491 -0.5171 -0.5894
 4193TIP3    H134138   6.507   5.724   7.484  0.2785 -0.6722 -0.1840
 4193TIP3    H234139   6.364   5.765   7.508  0.0011 -0.8613 -1.4481
 4194TIP3   OH234140   2.179   2.445   1.750  0.1812  0.5104 -0.3464
 4194TIP3    H134141   2.204   2.509   1.817 -0.8628  1.3345 -0.7028
 4194TIP3    H234142   2.094   2.476   1.718 -1.0836 -1.8568  0.4712
 4195TIP3   OH234143   0.225   2.911   1.125  0.1220 -0.2361  0.1059
 4195TIP3    H134144   0.311   2.931   1.089 -0.3432  1.3961 -0.1565
 4195TIP3    H234145   0.244   2.875   1.213  1.0840 -0.8938 -0.3484
 4196TIP3   OH234146   5.513   3.257   8.201  0.3690  0.2757 -0.3558
 4196TIP3    H134147   5.527   3.167   8.173  2.2579  1.0542 -2.2153
 4196TIP3    H234148   5.578   3.308   8.152 -0.4393  2.6201  0.8368
 4197TIP3   OH234149   0.049   6.787   1.079 -0.2794 -0.4669  0.1037
 4197TIP3    H134150   0.135   6.825   1.096  0.1423 -1.0352 -0.6876
 4197TIP3    H234151   0.068   6.699   1.047 -1.0944 -0.1586 -1.3003
 4198TIP3   OH234152   6.975   6.789   7.974 -0.0844  0.7502  0.5883
 4198TIP3    H134153   6.951   6.744   8.056 -0.0104 -1.4025 -0.5039
 4198TIP3    H234154   6.990   6.880   8.000 -0.6748  0.2584  2.8559
 4199TIP3   OH234155   0.932   0.358   2.532  0.0498  0.3395  0.8921
 4199TIP3    H134156   0.837   0.354   2.532  0.0152  0.2462 -1.3533
 4199TIP3    H234157   0.952   0.440   2.577 -1.2061  1.5499 -0.6404
 4200TIP3   OH234158   2.865   1.418   8.319  0.0904 -0.4688  0.8126
 4200TIP3    H134159   2.776   1.450   8.299 -0.0202 -1.7160 -0.9625
 4200TIP3    H234160   2.922   1.475   8.268  0.1395 -0.9835  0.2862
 4201TIP3   OH234161   4.527   3.773   0.194  0.0643  0.9092 -0.7439
 4201TIP3    H134162   4.467   3.847   0.203 -1.0665 -0.1060  0.6644
 4201TIP3    H234163   4.610   3.812   0.166 -0.8721  2.5167 -1.4066
 4202TIP3   OH234164   4.243   2.727   0.983 -0.3962 -0.2080  0.3955
 4202TIP3    H134165   4.306   2.755   1.050  1.0433 -0.6099 -0.7497
 4202TIP3    H234166   4.293   2.667   0.927 -1.2596  0.9032 -1.6450
 4203TIP3   OH234167   0.269   4.862   0.177  0.4025  0.2101  0.2053
 4203TIP3    H134168   0.339   4.926   0.164  0.5492  0.1758  0.7968
 4203TIP3    H234169   0.215   4.901   0.246  0.8425 -0.5911  1.0210
 4204TIP3   OH234170   6.374   2.623   3.213 -0.1662  0.7445  0.2988
 4204TIP3    H134171   6.331   2.676   3.280 -0.3378 -1.1294  1.7435
 4204TIP3    H234172   6.466   2.650   3.217  0.0639 -0.1481  2.1818
 4205TIP3   OH234173   0.801   2.943   8.271 -0.1188 -0.0741 -0.6218
 4205TIP3    H134174   0.734   3.009   8.253 -0.3843 -0.5922 -1.5934
 4205TIP3    H234175   0.789   2.877   8.202 -0.8078 -1.8792  1.1135
 4206TIP3   OH234176   1.732   0.833   1.479  0.3368 -0.3325  0.1571
 4206TIP3    H134177   1.798   0.859   1.415 -0.3556  1.3225  0.0585
 4206TIP3    H234178   1.660   0.798   1.426 -0.4379  1.4891 -0.0593
 4207TIP3   OH234179   1.078   3.047   0.938 -0.5832 -0.7348  0.2486
 4207TIP3    H134180   1.007   3.106   0.962 -0.4368  0.1859 -1.4028
 4207TIP3    H234181   1.124   3.030   1.020 -2.1425 -0.6126  1.1849
 4208TIP3   OH234182   1.468   1.577   2.777 -0.0128  0.0414 -0.3355
 4208TIP3    H134183   1.435   1.628   2.703 -0.7998  2.1539  1.3637
 4208TIP3    H234184   1.406   1.505   2.786 -0.6656  0.5165 -0.8963
 4209TIP3   OH234185   1.089   6.219   2.035  0.3563  0.4285  0.3766
 4209TIP3    H134186   1.182   6.205   2.017  0.3027  1.6289 -0.9652
 4209TIP3    H234187   1.045   6.146   1.992  0.5673  0.7551 -0.3977
 4210TIP3   OH234188   4.945   0.862   7.657  0.4194  0.1826  0.3798
 4210TIP3    H134189   4.850   0.870   7.665 -0.1005 -1.9295 -2.1381
 4210TIP3    H234190   4.968   0.927   7.591  0.4555 -0.3065 -0.0977
 4211TIP3   OH234191   5.415   3.389   1.059  0.4350 -0.4057 -0.2053
 4211TIP3    H134192   5.412   3.438   0.977 -1.8370 -1.9612 -1.1604
 4211TIP3    H234193   5.326   3.393   1.093  0.7642 -1.8115  0.9456
 4212TIP3   OH234194   5.382   2.993   0.927 -0.0485 -0.0986  0.7522
 4212TIP3    H134195   5.361   3.042   1.006 -1.6791  0.5933 -0.0669
 4212TIP3    H234196   5.468   3.025   0.900 -0.6823  1.6676  0.7460
 4213TIP3   OH234197   2.790   5.731   0.375 -0.3370  0.2162 -0.0158
 4213TIP3    H134198   2.698   5.757   0.371  0.1587  1.9413 -1.5166
 4213TIP3    H234199   2.798   5.659   0.313 -0.3441  1.3152 -1.3382
 4214TIP3   OH234200   1.479   4.374   2.737  0.3113 -0.0050 -0.3611
 4214TIP3    H134201   1.515   4.442   2.796  1.0812 -0.2998 -0.4736
 4214TIP3    H234202   1.455   4.422   2.658 -1.3447  0.5025  0.4126
 4215TIP3   OH234203   4.532   0.512   2.207 -0.3041  0.0531  0.9386
 4215TIP3    H134204   4.523   0.449   2.135  1.5936 -1.4526  1.9093
 4215TIP3    H234205   4.610   0.563   2.185 -0.5278  0.5405  1.2563
 4216TIP3   OH234206   5.564   6.590   7.982 -0.3621 -0.4612  0.3619
 4216TIP3    H134207   5.590   6.623   8.068 -0.9192 -0.3767  0.5009
 4216TIP3    H234208   5.646   6.564   7.941 -0.2636 -2.4319  1.7021
 4217TIP3   OH234209   4.327   0.825   2.690  0.1100  0.0609 -0.3153
 4217TIP3    H134210   4.416   0.790   2.695  0.1973  0.2264 -0.6394
 4217TIP3    H234211   4.339   0.917   2.665 -0.0055  0.9414  2.5271
 4218TIP3   OH234212   5.063   3.418   1.847 -0.1668  0.2496 -0.2606
 4218TIP3    H134213   5.038   3.507   1.820  0.7877  0.8948  0.8799
 4218TIP3    H234214   5.138   3.396   1.792  1.0801  1.1251  1.0033
 4219TIP3   OH234215   1.696   3.711   0.506 -0.3232 -0.0188  0.7316
 4219TIP3    H134216   1.665   3.801   0.522  0.3374  0.4256 -0.4438
 4219TIP3    H234217   1.730   3.683   0.591 -1.6991  0.3610  1.4476
 4220TIP3   OH234218   6.498   1.291   2.293  0.4042 -0.4597  0.2156
 4220TIP3    H134219   6.446   1.363   2.327  0.8345 -0.9197  1.9500
 4220TIP3    H234220   6.585   1.304   2.331  1.3132 -0.2971 -1.7745
 4221TIP3   OH234221   4.549   0.040   1.417  0.0966  0.0981 -0.0365
 4221TIP3    H134222   4.488  -0.007   1.474  1.0785  0.3966  1.2963
 4221TIP3    H234223   4.519   0.020   1.328 -1.0315 -0.9641  0.5564
 4222TIP3   OH234224   3.949   4.668   2.834  0.1238  0.1436 -0.5382
 4222TIP3    H134225   4.001   4.726   2.889  0.0297  1.1436 -1.4682
 4222TIP3    H234226   3.980   4.580   2.857 -0.3260  0.4703  1.5008
 4223TIP3   OH234227   3.445   5.532   1.643  0.0390  0.0735 -0.1175
 4223TIP3    H134228   3.372   5.474   1.621 -1.0374  0.3287  2.4689
 4223TIP3    H234229   3.494   5.486   1.710 -1.0593  2.1639  2.2909
 4224TIP3   OH234230   0.669   6.155   2.027 -0.6945  0.5533 -0.5468
 4224TIP3    H134231   0.575   6.139   2.019 -0.5727 -1.7166  1.6038
 4224TIP3    H234232   0.709   6.098   1.962 -0.7270 -0.4043  0.2525
 4225TIP3   OH234233   2.394   4.398   0.424 -0.3370  0.0314  0.4412
 4225TIP3    H134234   2.395   4.380   0.518  0.5219  0.9748  0.6268
 4225TIP3    H234235   2.318   4.454   0.411 -0.2715  0.1620  0.6263
 4226TIP3   OH234236   2.894   2.238   1.524 -0.2208 -0.1300  0.3038
 4226TIP3    H134237   2.863   2.312   1.471 -1.7631 -0.5733  0.5381
 4226TIP3    H234238   2.922   2.173   1.461  0.3588  0.3188  0.0861
 4227TIP3   OH234239   2.561   3.680   8.388  0.3847  0.2178  0.3577
 4227TIP3    H134240   2.506   3.736   8.443 -1.6104 -0.3070 -0.9709
 4227TIP3    H234241   2.538   3.705   8.299  0.0471 -2.0785 -0.2695
 4228TIP3   OH234242   5.268   4.443   1.386  0.3704  0.0853 -0.2986
 4228TIP3    H134243   5.259   4.378   1.316  0.5372 -0.8453  0.5214
 4228TIP3    H234244   5.185   4.491   1.385  0.8656  0.9733 -1.9807
 4229TIP3   OH234245   0.013   2.170   1.360 -0.0619 -0.4316 -0.7785
 4229TIP3    H134246   0.004   2.156   1.454  1.4480 -1.1998 -0.7198
 4229TIP3    H234247  -0.008   2.263   1.348  1.0791  0.0396  0.5306
 4230TIP3   OH234248   3.676   5.016   8.373 -0.0605 -0.0505 -0.2314
 4230TIP3    H134249   3.737   4.942   8.373  0.2240  0.1331 -2.1715
 4230TIP3    H234250   3.729   5.090   8.344 -0.5365  0.7787  0.9275
 4231TIP3   OH234251   6.394   5.908   1.083  0.3260  0.5025 -0.2161
 4231TIP3    H134252   6.439   5.898   0.999 -0.0293 -0.3966 -0.3158
 4231TIP3    H234253   6.404   5.823   1.125 -3.3689 -0.6356 -1.3037
 4232TIP3   OH234254   1.526   4.501   2.481 -0.4137  0.0720  0.2948
 4232TIP3    H134255   1.551   4.589   2.454  0.0171  0.0431  0.5814
 4232TIP3    H234256   1.463   4.472   2.415  2.4850 -1.0178 -2.2562
 4233TIP3   OH234257   3.709   5.694   0.392 -0.7599 -0.3028  0.1596
 4233TIP3    H134258   3.745   5.750   0.324 -0.9647  0.3968  0.6248
 4233TIP3    H234259   3.785   5.665   0.443 -0.7353  0.2777  0.4627
 4234TIP3   OH234260   6.355   3.438   2.791 -0.4785 -0.4409 -0.4250
 4234TIP3    H134261   6.425   3.502   2.806 -0.0056 -0.9173 -0.5993
 4234TIP3    H234262   6.291   3.456   2.860  0.1319 -0.4489  0.1535
 4235TIP3   OH234263   1.376   5.552   7.944 -0.0700 -0.2593  0.1008
 4235TIP3    H134264   1.380   5.644   7.918  0.1887 -0.3120 -0.0437
 4235TIP3    H234265   1.282   5.534   7.953 -0.1818 -0.2786 -0.9374
 4236TIP3   OH234266   1.522   0.715   0.145  0.3445 -0.2260  0.4700
 4236TIP3    H134267   1.617   0.707   0.150  0.2611 -1.2107  0.6668
 4236TIP3    H234268   1.488   0.638   0.191 -0.5388 -0.4642 -0.5180
 4237TIP3   OH234269   4.297   4.167   2.889 -0.2742 -0.1836 -0.4226
 4237TIP3    H134270   4.279   4.249   2.936 -2.2159 -0.9022  0.2032
 4237TIP3    H234271   4.212   4.124   2.883  0.8161 -2.5561  0.0126
 4238TIP3   OH234272   4.804   5.052   0.901  0.1721 -0.1782 -0.3376
 4238TIP3    H134273   4.815   5.074   0.993 -0.7444 -0.4247 -0.1623
 4238TIP3    H234274   4.765   5.130   0.861  2.4000  0.7062 -0.9672
 4239TIP3   OH234275   3.596   3.539   1.516 -0.0115  0.1775  0.4472
 4239TIP3    H134276   3.517   3.530   1.464  0.7455 -2.3535 -0.4333
 4239TIP3    H234277   3.643   3.613   1.478 -0.2573 -0.5900 -1.4531
 4240TIP3   OH234278   6.169   2.253   0.955 -0.2549 -0.2167 -0.0339
 4240TIP3    H134279   6.220   2.303   0.892  0.7667 -0.0716  0.8846
 4240TIP3    H234280   6.084   2.240   0.912 -0.3782  1.8283 -0.5130
 4241TIP3   OH234281   2.354   3.630   1.201 -0.4346 -0.5745  0.4984
 4241TIP3    H134282   2.442   3.610   1.235  0.6928 -1.6709 -2.6706
 4241TIP3    H234283   2.298   3.564   1.241  0.6113 -1.2173  0.9581
 4242TIP3   OH234284   6.079   1.745   2.535  0.5607  0.3918  0.4734
 4242TIP3    H134285   6.010   1.810   2.524  0.7193  0.3901 -0.6849
 4242TIP3    H234286   6.036   1.670   2.577  0.2715  1.0522  1.3772
 4243TIP3   OH234287   5.541   0.613   7.261  0.6005  0.3490 -0.1868
 4243TIP3    H134288   5.613   0.591   7.202  1.2058  0.6317  0.4359
 4243TIP3    H234289   5.477   0.658   7.204  1.3067  0.8860 -0.5800
 4244TIP3   OH234290   4.794   0.055   2.286  0.4720 -0.2639 -0.5734
 4244TIP3    H134291   4.857   0.006   2.233  0.5122 -0.9786  0.1311
 4244TIP3    H234292   4.812   0.147   2.265  2.2476 -0.4052  0.1558
 4245TIP3   OH234293   5.414   1.251   7.364 -0.4893 -0.3536  0.3332
 4245TIP3    H134294   5.487   1.195   7.390 -0.3198 -1.2718 -1.8964
 4245TIP3    H234295   5.348   1.190   7.329 -1.3636  0.6492  0.1810
 4246TIP3   OH234296   3.417   3.825   2.521 -0.3301 -0.0771 -0.7036
 4246TIP3    H134297   3.448   3.775   2.445  0.6044  2.2556 -1.9743
 4246TIP3    H234298   3.424   3.917   2.493 -2.0658  0.7968  1.4395
 4247TIP3   OH234299   2.406   0.320   1.312 -0.0927  0.4389 -0.6711
 4247TIP3    H134300   2.466   0.246   1.308 -0.2209  0.3075 -0.2324
 4247TIP3    H234301   2.462   0.397   1.302  0.0185  0.2755 -1.3114
 4248TIP3   OH234302   0.271   6.417   8.344  0.1104 -0.6575  0.3267
 4248TIP3    H134303   0.306   6.373   8.266 -1.4214 -0.3148 -0.5764
 4248TIP3    H234304   0.256   6.345   8.406 -0.2262 -1.1517 -0.3080
 4249TIP3   OH234305   6.552   6.061   0.597  0.3398  0.0247 -0.4024
 4249TIP3    H134306   6.616   6.124   0.629  0.2712 -0.4622  0.7447
 4249TIP3    H234307   6.552   6.072   0.502  3.2739 -1.0070 -0.6328
 4250TIP3   OH234308   6.791   1.875   1.814 -0.1432  0.1083 -0.4004
 4250TIP3    H134309   6.815   1.808   1.749  0.2124 -0.8536  0.6917
 4250TIP3    H234310   6.701   1.852   1.839  1.2708 -2.5679  2.9659
 4251TIP3   OH234311   4.126   4.379   2.413  0.5895 -0.1652 -0.1708
 4251TIP3    H134312   4.164   4.386   2.501 -0.7321  1.5057  0.3072
 4251TIP3    H234313   4.097   4.288   2.407  0.7252 -0.3118  1.1265
 4252TIP3   OH234314   0.222   1.081   3.485  0.0164 -0.0083 -0.4429
 4252TIP3    H134315   0.312   1.115   3.484  0.3116 -0.6469 -2.8113
 4252TIP3    H234316   0.175   1.136   3.423 -0.4917 -1.3784 -1.3204
 4253TIP3   OH234317   1.851   3.310   1.290 -0.2418 -0.2815  0.1092
 4253TIP3    H134318   1.853   3.405   1.284  1.2507 -0.3426 -3.3706
 4253TIP3    H234319   1.930   3.288   1.339 -2.1721  0.1753  3.7356
 4254TIP3   OH234320   6.691   1.362   1.069 -0.3052 -0.3521 -0.4859
 4254TIP3    H134321   6.678   1.348   1.163  1.2574 -0.5775 -0.2876
 4254TIP3    H234322   6.610   1.329   1.029 -0.3842 -1.6312  0.6612
 4255TIP3   OH234323   5.840   3.968   2.192 -0.6139  0.2142  0.2687
 4255TIP3    H134324   5.825   4.046   2.244  0.0997  0.0394  0.7473
 4255TIP3    H234325   5.870   3.902   2.254 -0.8878 -0.3460 -0.1797
 4256TIP3   OH234326   5.086   6.348   1.546  0.5585 -0.4081 -0.0651
 4256TIP3    H134327   5.126   6.263   1.527  3.6035  1.1402 -1.2676
 4256TIP3    H234328   5.060   6.382   1.461  1.0481  0.6023  0.1757
 4257TIP3   OH234329   1.532   6.665   1.076 -0.0968  0.3281  0.7255
 4257TIP3    H134330   1.594   6.737   1.087 -1.4329  1.4410  1.2178
 4257TIP3    H234331   1.576   6.605   1.015  2.0517  0.3507  2.1479
 4258TIP3   OH234332   3.179   1.051   2.839  0.0534  0.4917 -0.6010
 4258TIP3    H134333   3.209   0.984   2.900  2.8068  1.2265 -1.0529
 4258TIP3    H234334   3.190   1.012   2.752 -2.4673 -0.0032 -0.7915
 4259TIP3   OH234335   3.651   3.096   7.832  0.2124 -0.1851 -0.3991
 4259TIP3    H134336   3.622   3.005   7.843 -0.2772 -0.1502 -1.3226
 4259TIP3    H234337   3.607   3.143   7.902  0.7249 -0.7014  0.2923
 4260TIP3   OH234338   1.514   3.921   1.599  0.6489 -0.0333 -0.6770
 4260TIP3    H134339   1.481   4.006   1.568  2.6166  0.9116 -0.3643
 4260TIP3    H234340   1.488   3.918   1.691  1.0413  0.5204 -0.5360
 4261TIP3   OH234341   1.796   1.344   2.599  0.0892  0.5974 -0.3562
 4261TIP3    H134342   1.760   1.262   2.631 -0.8366 -0.1086 -2.9288
 4261TIP3    H234343   1.867   1.365   2.660 -0.2554 -1.5952  0.9029
 4262TIP3   OH234344   6.884   3.288   7.394 -0.4852  0.1015 -0.1080
 4262TIP3    H134345   6.804   3.246   7.426 -0.3483 -0.1275 -0.0632
 4262TIP3    H234346   6.867   3.307   7.302  0.0153 -1.4894 -0.5802
 4263TIP3   OH234347   1.232   1.985   0.007  0.6279 -0.3224 -0.4588
 4263TIP3    H134348   1.236   1.924  -0.067 -0.0133  0.1452 -0.8960
 4263TIP3    H234349   1.155   1.957   0.056 -0.5949  1.0406 -1.5098
 4264TIP3   OH234350   6.051   3.015   1.720  0.5995  0.3767  0.7191
 4264TIP3    H134351   5.957   3.027   1.710  0.6863  0.8621  0.4337
 4264TIP3    H234352   6.068   2.927   1.686  0.2540  0.2975  0.7457
 4265TIP3   OH234353   2.437   0.628   0.722  0.1749  0.2413  0.1029
 4265TIP3    H134354   2.451   0.623   0.817 -0.5664  2.4621  0.3923
 4265TIP3    H234355   2.493   0.700   0.694  0.1279 -0.1800 -1.1109
 4266TIP3   OH234356   0.053   3.369   0.268 -0.7129 -0.2492 -0.2775
 4266TIP3    H134357  -0.040   3.389   0.259 -0.9101  0.5330  2.5890
 4266TIP3    H234358   0.057   3.274   0.281 -1.4297 -0.0382  1.9171
 4267TIP3   OH234359   2.335   6.447   2.435 -0.3530 -0.1901  0.3759
 4267TIP3    H134360   2.251   6.403   2.449 -1.1175  1.4742  1.3459
 4267TIP3    H234361   2.370   6.461   2.523  0.3475  0.2086  0.0426
 4268TIP3   OH234362   0.311   2.309   7.815  0.3889  0.3323  0.0114
 4268TIP3    H134363   0.385   2.304   7.754  2.0952  0.1715  1.9973
 4268TIP3    H234364   0.260   2.384   7.784  0.8056 -0.1560 -1.9918
 4269TIP3   OH234365   1.659   6.690   3.157 -0.1879 -0.1310 -0.5553
 4269TIP3    H134366   1.601   6.742   3.213  1.0272  1.6450 -0.8688
 4269TIP3    H234367   1.736   6.745   3.144  1.2293 -2.0971 -0.8305
 4270TIP3   OH234368   1.433   0.882   7.579 -0.1697  0.3396 -0.0050
 4270TIP3    H134369   1.492   0.881   7.655 -1.2259 -0.2873  0.8412
 4270TIP3    H234370   1.436   0.973   7.549  1.4121  0.2727 -0.1657
 4271TIP3   OH234371   3.388   5.379   0.062 -0.3751 -0.6631 -0.0586
 4271TIP3    H134372   3.407   5.469   0.037 -0.2521 -0.4671  0.7048
 4271TIP3    H234373   3.455   5.326   0.018 -1.4213 -0.5734 -1.8357
 4272TIP3   OH234374   1.134   6.067   8.164 -0.4673 -0.2303  0.4581
 4272TIP3    H134375   1.048   6.025   8.168 -0.9353  0.7161  4.0617
 4272TIP3    H234376   1.122   6.149   8.211  1.7223  1.4715 -1.6970
 4273TIP3   OH234377   4.917   1.692   2.653  0.3979  0.1541  0.2105
 4273TIP3    H134378   4.993   1.648   2.612  1.3194  1.1521  0.8125
 4273TIP3    H234379   4.915   1.658   2.742  1.2452  1.4507  0.7470
 4274TIP3   OH234380   3.489   6.859   7.440 -0.6420 -0.4924  0.2642
 4274TIP3    H134381   3.397   6.838   7.423 -0.7374 -0.8600  1.2035
 4274TIP3    H234382   3.505   6.830   7.530 -0.2762  1.7877  1.0178
 4275TIP3   OH234383   6.161   6.227   8.184  0.4742  0.1536 -0.6503
 4275TIP3    H134384   6.225   6.236   8.255  0.6452 -1.8311 -0.4833
 4275TIP3    H234385   6.086   6.184   8.225  0.1314  0.0052 -1.4197
 4276TIP3   OH234386   1.081   0.557   0.528 -0.1822  0.1798 -0.4212
 4276TIP3    H134387   1.036   0.530   0.608 -2.1202 -0.4500 -1.6452
 4276TIP3    H234388   1.032   0.634   0.498 -0.2843 -0.3281 -1.6184
 4277TIP3   OH234389   2.103   6.940   2.036  0.4369 -0.0310  0.4571
 4277TIP3    H134390   2.151   6.954   2.118  2.1048 -0.0655 -0.4577
 4277TIP3    H234391   2.137   7.007   1.977  0.1653 -0.7786 -0.5719
 4278TIP3   OH234392   2.965   0.461   1.909  0.2922  0.3993 -0.2230
 4278TIP3    H134393   3.011   0.495   1.833  2.0389  1.6936  1.3245
 4278TIP3    H234394   3.031   0.457   1.978 -1.3137 -0.2619  1.3735
 4279TIP3   OH234395   6.047   1.025   1.394  0.1730  0.2727 -0.0176
 4279TIP3    H134396   6.127   1.018   1.342  0.5319  1.4164  0.3496
 4279TIP3    H234397   6.065   0.973   1.472  1.2020  1.7976  0.8069
 4280TIP3   OH234398   1.929   0.521   2.367  0.0149 -0.1933  0.0565
 4280TIP3    H134399   1.903   0.437   2.330  0.2705 -0.9415  1.5127
 4280TIP3    H234400   1.926   0.582   2.293 -0.7409 -1.3497 -0.9001
 4281TIP3   OH234401   6.258   5.177   0.823 -0.1643  0.5572  0.6313
 4281TIP3    H134402   6.248   5.117   0.749 -0.0549  0.6176  0.5673
 4281TIP3    H234403   6.285   5.120   0.895  1.6831  0.7473  0.1409
 4282TIP3   OH234404   6.859   4.326   7.859 -0.2792 -0.4618 -0.0382
 4282TIP3    H134405   6.850   4.339   7.953  0.6178  1.1501 -0.1398
 4282TIP3    H234406   6.769   4.315   7.827 -0.6722  0.0545  0.8616
 4283TIP3   OH234407   1.808   3.624   0.744 -0.1714 -0.1568 -0.2220
 4283TIP3    H134408   1.785   3.664   0.828  0.8789 -0.9022  0.4428
 4283TIP3    H234409   1.893   3.583   0.759  0.0912 -0.2184 -1.6866
 4284TIP3   OH234410   6.649   1.545   2.181  0.1016 -0.4285  0.4209
 4284TIP3    H134411   6.718   1.611   2.188  0.6206 -0.9372  0.1946
 4284TIP3    H234412   6.694   1.462   2.196 -0.4839 -0.7569  0.3724
 4285TIP3   OH234413   4.994   1.227   0.706  0.5904  0.1044 -0.3741
 4285TIP3    H134414   5.026   1.207   0.794  1.3894  1.6520 -0.2915
 4285TIP3    H234415   4.964   1.318   0.710 -1.1254 -0.3670 -1.2338
 4286TIP3   OH234416   3.594   6.551   0.843  0.5034 -0.3545  0.0203
 4286TIP3    H134417   3.505   6.524   0.823  0.8747 -2.0563  0.5767
 4286TIP3    H234418   3.623   6.493   0.914  2.9295 -1.6276 -1.8455
 4287TIP3   OH234419   2.102   4.791   0.462  0.3743  0.4993 -0.0837
 4287TIP3    H134420   2.116   4.803   0.556 -1.9593 -0.5951  0.4864
 4287TIP3    H234421   2.150   4.711   0.440  0.0341  0.1456  0.4425
 4288TIP3   OH234422   6.391   3.009   1.634  0.5922 -0.2285 -0.3117
 4288TIP3    H134423   6.359   3.078   1.576  0.3993 -0.2512 -0.2341
 4288TIP3    H234424   6.311   2.973   1.675  0.7265 -0.1933 -0.0135
 4289TIP3   OH234425   0.205   4.942   8.236 -0.0114 -0.2086  0.4455
 4289TIP3    H134426   0.247   4.962   8.153 -1.9057 -0.3897 -0.6019
 4289TIP3    H234427   0.202   4.846   8.239 -3.1126 -0.2807 -1.0588
 4290TIP3   OH234428   0.358   1.945   2.865 -0.5313  0.2018  0.0571
 4290TIP3    H134429   0.391   1.960   2.954  0.2330 -0.3988 -0.1090
 4290TIP3    H234430   0.393   2.018   2.814  3.2536 -1.9564 -0.7709
 4291TIP3   OH234431   4.411   2.649   0.078  0.0885  0.3009  1.2389
 4291TIP3    H134432   4.455   2.725   0.041 -1.6404  0.4347 -0.7299
 4291TIP3    H234433   4.330   2.684   0.114 -0.7631 -0.5694  0.2357
 4292TIP3   OH234434   6.646   3.175   1.744  0.0821 -0.3291 -0.0822
 4292TIP3    H134435   6.577   3.146   1.684  0.5531  0.0650 -0.8199
 4292TIP3    H234436   6.658   3.102   1.804 -2.0110  0.1126  1.0002
 4293TIP3   OH234437   6.485   0.450   7.248 -0.0885 -0.3216  0.6342
 4293TIP3    H134438   6.430   0.372   7.249 -0.3504 -0.1618 -0.1558
 4293TIP3    H234439   6.435   0.516   7.297 -1.0638  0.0962 -0.8272
 4294TIP3   OH234440   5.864   0.008   1.397  0.0225 -0.1095 -0.0708
 4294TIP3    H134441   5.903   0.080   1.348  1.2779 -0.4731  0.3690
 4294TIP3    H234442   5.777  -0.003   1.358  1.1912 -0.8188 -2.6766
 4295TIP3   OH234443   0.701   4.428   2.365 -0.2340 -0.4097  0.6124
 4295TIP3    H134444   0.692   4.427   2.270 -5.1696 -2.4050  0.7952
 4295TIP3    H234445   0.707   4.521   2.387 -0.4134  0.1939 -1.6029
 4296TIP3   OH234446   3.533   1.762   2.215  0.0714 -0.4779 -0.6629
 4296TIP3    H134447   3.595   1.691   2.227  1.5884  1.0795  1.4788
 4296TIP3    H234448   3.458   1.738   2.269  0.8110 -0.2645  0.5051
 4297TIP3   OH234449   5.897   4.261   2.259 -0.5313  0.0599  0.2245
 4297TIP3    H134450   5.991   4.251   2.274 -0.4851 -0.6812 -0.5036
 4297TIP3    H234451   5.891   4.308   2.176 -0.8038 -1.1650 -0.4595
 4298TIP3   OH234452   0.883   2.202   7.198  0.0432  0.2385  0.0552
 4298TIP3    H134453   0.823   2.129   7.208  1.4358 -0.8818  0.5322
 4298TIP3    H234454   0.869   2.231   7.108 -0.5253 -0.6208 -0.1489
 4299TIP3   OH234455   0.284   0.430   2.331 -0.6146 -0.4668  0.1403
 4299TIP3    H134456   0.373   0.439   2.297 -0.5569  1.1423  0.6186
 4299TIP3    H234457   0.294   0.444   2.426 -1.0463 -2.8597  0.6148
 4300TIP3   OH234458   1.780   4.952   7.799  0.9315 -0.0847 -0.3319
 4300TIP3    H134459   1.805   4.990   7.715  1.6832 -2.1361 -1.1213
 4300TIP3    H234460   1.748   4.864   7.777 -0.9323  0.1143  1.3361
 4301TIP3   OH234461   3.577   0.698   8.206 -0.2147 -0.8822 -0.0988
 4301TIP3    H134462   3.487   0.710   8.176  0.6216 -0.9782 -2.8938
 4301TIP3    H234463   3.596   0.606   8.189  1.1822 -0.2963 -2.0002
 4302TIP3   OH234464   2.359   1.617   2.845  0.4953 -0.4373 -0.3547
 4302TIP3    H134465   2.315   1.532   2.853  0.4412 -0.4321 -0.5759
 4302TIP3    H234466   2.384   1.640   2.934 -0.5294 -0.1376 -0.1344
 4303TIP3   OH234467   5.986   5.449   2.516  0.1952  0.7356 -0.3686
 4303TIP3    H134468   6.014   5.430   2.427 -0.7334  0.0011 -0.5135
 4303TIP3    H234469   5.891   5.435   2.516  0.1720  0.7483  0.7297
 4304TIP3   OH234470   4.467   5.823   0.590  0.7645 -0.4106  0.4864
 4304TIP3    H134471   4.379   5.800   0.560  0.2457  1.7482  0.2103
 4304TIP3    H234472   4.453   5.893   0.654  2.2918  0.1194  0.2897
 4305TIP3   OH234473   1.516   6.612   1.600 -0.5068  0.0009  0.1284
 4305TIP3    H134474   1.580   6.649   1.660 -0.0507  0.1561 -0.4374
 4305TIP3    H234475   1.433   6.652   1.624 -0.2101  0.5540  0.2281
 4306TIP3   OH234476   0.818   3.217   3.270 -0.3027 -0.3725  0.3054
 4306TIP3    H134477   0.820   3.151   3.201  0.9225  1.0789 -1.1389
 4306TIP3    H234478   0.888   3.190   3.330  0.6469 -0.0622 -0.6293
 4307TIP3   OH234479   3.338   5.267   2.044 -0.4213 -0.1033  0.0195
 4307TIP3    H134480   3.341   5.221   1.960 -1.3230 -1.3954  0.6437
 4307TIP3    H234481   3.253   5.311   2.044  0.3639  1.4630 -0.4955
 4308TIP3   OH234482   5.297   2.876   3.462 -0.5565 -0.3018 -0.2045
 4308TIP3    H134483   5.319   2.967   3.443 -0.4188 -0.7022 -2.1523
 4308TIP3    H234484   5.241   2.849   3.389 -4.9192 -0.3405  2.7581
 4309TIP3   OH234485   3.138   3.856   0.448 -0.9059  0.2815 -0.0297
 4309TIP3    H134486   3.187   3.814   0.377 -0.5196 -0.9804  0.9397
 4309TIP3    H234487   3.083   3.920   0.405  0.5984  0.7782 -1.2991
 4310TIP3   OH234488   1.616   1.227   8.357  0.7590 -0.6659 -0.4959
 4310TIP3    H134489   1.711   1.237   8.351  0.5718  1.0543 -0.9073
 4310TIP3    H234490   1.595   1.248   8.448  0.5892  0.8806 -0.8679
 4311TIP3   OH234491   2.991   1.892   2.516 -0.1987 -0.2966 -0.2804
 4311TIP3    H134492   2.902   1.861   2.533 -0.4643  0.3874 -0.4265
 4311TIP3    H234493   2.998   1.892   2.421  1.0421 -3.4210 -0.3293
 4312TIP3   OH234494   3.762   3.096   2.314  0.2006  0.0500  0.1229
 4312TIP3    H134495   3.760   3.015   2.365  1.2710  0.1145  0.2842
 4312TIP3    H234496   3.716   3.160   2.368 -0.7674 -0.4760 -0.0625
 4313TIP3   OH234497   4.890   6.365   2.840  0.4372  0.3289  0.2714
 4313TIP3    H134498   4.878   6.301   2.911  0.6203  1.1967  1.1064
 4313TIP3    H234499   4.907   6.448   2.885  0.3225  0.9502 -0.7933
 4314TIP3   OH234500   5.370   0.818   2.777  0.2637  0.3015 -0.0408
 4314TIP3    H134501   5.353   0.748   2.840 -1.2303 -0.2809 -1.0533
 4314TIP3    H234502   5.413   0.887   2.829 -0.6309 -0.2877  1.5494
 4315TIP3   OH234503   5.017   4.626   1.789 -0.3208 -0.0297 -0.1624
 4315TIP3    H134504   5.065   4.548   1.762  0.3579  0.3397 -0.0349
 4315TIP3    H234505   5.079   4.698   1.777 -1.4159  0.7055 -1.7428
 4316TIP3   OH234506   3.515   6.455   1.184 -0.0029  0.3030  0.1729
 4316TIP3    H134507   3.529   6.361   1.171  2.8413  0.8290 -1.2039
 4316TIP3    H234508   3.564   6.476   1.264 -2.1565  0.3882  1.5641
 4317TIP3   OH234509   5.284   6.080   8.277  0.0208 -0.7975  0.1615
 4317TIP3    H134510   5.329   6.154   8.236  0.7297 -1.5241 -0.4161
 4317TIP3    H234511   5.195   6.111   8.294  0.0438 -0.1123 -0.9070
 4318TIP3   OH234512   0.258   5.757   3.004  1.1436  0.5010 -0.0485
 4318TIP3    H134513   0.348   5.781   2.979  1.6186  0.6529  1.7013
 4318TIP3    H234514   0.247   5.792   3.092 -0.0570 -0.9636  0.4329
 4319TIP3   OH234515   2.322   0.442   2.457  0.2123  0.0042 -0.5249
 4319TIP3    H134516   2.311   0.372   2.521  0.3864  1.1994  0.8737
 4319TIP3    H234517   2.265   0.513   2.489  0.4780  0.7214 -1.5751
 4320TIP3   OH234518   5.269   4.983   0.459 -0.0155 -0.2764  0.4684
 4320TIP3    H134519   5.320   4.945   0.388  1.1711  0.9646  0.6157
 4320TIP3    H234520   5.302   5.073   0.467  0.5054 -0.6386  3.1909
 4321TIP3   OH234521   1.947   2.416   8.143  0.4487 -0.1468  0.0539
 4321TIP3    H134522   1.858   2.387   8.163  0.1985  1.5546  1.6580
 4321TIP3    H234523   1.982   2.346   8.088 -1.2799 -1.7248  0.8101
 4322TIP3   OH234524   4.455   6.547   2.135  0.2108 -0.3168 -0.8842
 4322TIP3    H134525   4.417   6.461   2.152  0.1843 -0.2134 -0.4096
 4322TIP3    H234526   4.531   6.529   2.080  1.8696 -0.9590  1.4505
 4323TIP3   OH234527   2.077   4.944   1.616 -0.5363  0.0897 -0.2600
 4323TIP3    H134528   2.149   4.882   1.603  1.3618  1.5549  2.3360
 4323TIP3    H234529   2.009   4.892   1.659  0.4682 -0.5679  0.6100
 4324TIP3   OH234530   3.539   1.172   0.482  0.1853  0.0402 -0.2905
 4324TIP3    H134531   3.463   1.230   0.488  1.3900  1.6869 -0.1678
 4324TIP3    H234532   3.571   1.164   0.572  0.9231  0.4845 -0.4967
 4325TIP3   OH234533   0.401   1.714   1.335  0.1760  0.1695  0.1883
 4325TIP3    H134534   0.393   1.656   1.259  2.5467  0.5869 -0.4521
 4325TIP3    H234535   0.494   1.716   1.353 -0.3005  0.1113  3.1438
 4326TIP3   OH234536   4.114   5.045   8.199 -0.2847 -0.3777  0.4721
 4326TIP3    H134537   4.113   4.969   8.141 -0.1507 -0.7809  0.9873
 4326TIP3    H234538   4.202   5.082   8.189 -0.7817  0.5469 -0.8232
 4327TIP3   OH234539   2.371   4.842   2.833  0.3967 -0.3190 -0.7724
 4327TIP3    H134540   2.293   4.838   2.889  1.2974  1.1811  0.6808
 4327TIP3    H234541   2.360   4.922   2.782  1.9085  1.1136  1.0075
 4328TIP3   OH234542   6.647   2.370   2.065  0.3105  0.0970 -0.0029
 4328TIP3    H134543   6.648   2.423   1.986  1.7140 -1.2350 -0.9383
 4328TIP3    H234544   6.585   2.414   2.123  0.5849  2.0933 -1.1485
 4329TIP3   OH234545   2.771   6.430   3.470  0.3567  0.2158  0.7361
 4329TIP3    H134546   2.692   6.469   3.507 -0.0836 -2.5541  3.0989
 4329TIP3    H234547   2.764   6.445   3.376 -1.6740  2.1974  1.1114
 4330TIP3   OH234548   5.959   0.888   0.014  0.0677  0.3316 -0.7125
 4330TIP3    H134549   5.969   0.979   0.040  0.6557  0.4967 -1.4735
 4330TIP3    H234550   5.874   0.884  -0.029  0.5236  0.7720 -1.6728
 4331TIP3   OH234551   5.401   5.987   0.920 -0.4728  0.0659  0.3974
 4331TIP3    H134552   5.359   5.980   0.835 -0.7147 -0.6015  0.5679
 4331TIP3    H234553   5.489   5.950   0.908  0.4308  2.2140 -0.1721
 4332TIP3   OH234554   5.585   5.378   7.971 -0.1144 -0.0011 -0.2987
 4332TIP3    H134555   5.586   5.386   8.067  0.1397 -2.0232 -0.0811
 4332TIP3    H234556   5.651   5.311   7.952 -1.5147 -1.0558 -1.7173
 4333TIP3   OH234557   1.193   3.458   0.638  0.6971  0.1805  0.2242
 4333TIP3    H134558   1.213   3.407   0.717  0.0417  1.5527  1.3091
 4333TIP3    H234559   1.251   3.534   0.644 -0.5272  1.1390  0.2828
 4334TIP3   OH234560   6.837   5.249   0.847 -0.0934 -0.2853  0.3454
 4334TIP3    H134561   6.843   5.164   0.805 -2.0586 -0.3519  0.0874
 4334TIP3    H234562   6.743   5.267   0.852  0.2520  1.7382  0.6591
 4335TIP3   OH234563   6.713   1.750   1.527  0.4330  0.4778  0.2303
 4335TIP3    H134564   6.771   1.772   1.455 -0.3337 -0.9737 -0.8763
 4335TIP3    H234565   6.625   1.768   1.494 -0.1848 -2.9840 -0.4056
 4336TIP3   OH234566   0.508   0.371   8.287  0.0424  0.1383 -0.0442
 4336TIP3    H134567   0.498   0.281   8.256 -0.2066  0.0939  0.1621
 4336TIP3    H234568   0.600   0.392   8.269 -0.5814  0.9085 -2.8801
 4337TIP3   OH234569   0.836   4.586   8.345  0.5295 -0.4660 -0.2503
 4337TIP3    H134570   0.744   4.606   8.361  0.4847 -1.9968  1.9294
 4337TIP3    H234571   0.859   4.638   8.268 -1.6629  1.3024  0.1743
 4338TIP3   OH234572   6.174   5.385   7.791 -0.5443  0.2132 -0.0610
 4338TIP3    H134573   6.100   5.432   7.754  0.6320  1.0995 -1.3825
 4338TIP3    H234574   6.141   5.296   7.806 -2.1880  0.8853  0.4946
 4339TIP3   OH234575   3.608   0.138   2.790  0.3671 -0.2952 -0.0881
 4339TIP3    H134576   3.572   0.074   2.851 -0.9548  0.1307 -0.3948
 4339TIP3    H234577   3.690   0.165   2.830 -0.6257  0.2435  1.7070
 4340TIP3   OH234578   0.307   6.970   0.814  0.0423 -0.2211  0.1843
 4340TIP3    H134579   0.217   6.991   0.788  0.0214 -0.9985 -0.4211
 4340TIP3    H234580   0.308   6.875   0.823  0.2178 -0.0649  2.4879
 4341TIP3   OH234581   6.927   3.915   0.574  0.0096  0.0713  0.3858
 4341TIP3    H134582   6.849   3.872   0.607 -0.5699 -0.9849 -2.1943
 4341TIP3    H234583   6.998   3.881   0.628 -1.0697 -0.2192  1.6647
 4342TIP3   OH234584   4.225   1.666   1.060 -0.7931  0.0121  0.2503
 4342TIP3    H134585   4.132   1.647   1.043 -0.4679 -0.3385 -1.2837
 4342TIP3    H234586   4.260   1.585   1.097 -0.8075 -0.3289 -0.4581
 4343TIP3   OH234587   5.450   3.258   0.161  0.6078  0.0163 -0.0547
 4343TIP3    H134588   5.375   3.232   0.214  1.1307 -1.8448 -0.1811
 4343TIP3    H234589   5.415   3.266   0.072  0.2621  0.6649  0.1311
 4344TIP3   OH234590   6.150   3.330   2.181  0.0657  0.6254  0.1833
 4344TIP3    H134591   6.143   3.378   2.098  1.9503  1.3391  0.3904
 4344TIP3    H234592   6.126   3.394   2.248 -0.8088  0.2414  0.2492
 4345TIP3   OH234593   3.034   0.598   1.383 -0.3241  0.0816 -0.0938
 4345TIP3    H134594   3.018   0.672   1.324 -0.9257 -1.5818 -2.1243
 4345TIP3    H234595   2.972   0.531   1.355  1.1033 -1.6937  0.7900
 4346TIP3   OH234596   6.037   1.205   0.010  0.4462  0.5556 -0.6038
 4346TIP3    H134597   6.066   1.259   0.083  0.9948 -2.2553  1.4126
 4346TIP3    H234598   5.942   1.219   0.005  0.7556  2.8789 -1.2867
 4347TIP3   OH234599   6.029   0.410   8.122  0.1525  0.6430  0.0346
 4347TIP3    H134600   5.950   0.409   8.069  0.5539  0.5900 -0.5734
 4347TIP3    H234601   6.051   0.503   8.130  1.4609  0.5690 -1.9993
 4348TIP3   OH234602   0.006   2.804   1.297  0.0319  0.0930 -0.0291
 4348TIP3    H134603  -0.036   2.798   1.212 -2.0148  0.4026  0.9117
 4348TIP3    H234604  -0.021   2.725   1.344 -0.0670  0.6211  0.8359
 4349TIP3   OH234605   5.942   3.504   7.913 -0.8450 -0.0798 -0.2984
 4349TIP3    H134606   6.009   3.537   7.852 -0.1773 -0.3289  0.2864
 4349TIP3    H234607   5.907   3.582   7.955 -0.5343  0.0099 -0.2073
 4350TIP3   OH234608   3.712   5.378   1.354  0.5340  0.4057  0.0345
 4350TIP3    H134609   3.788   5.416   1.310 -0.0165  1.9781  0.3988
 4350TIP3    H234610   3.657   5.453   1.378  0.4624 -0.4248  2.7613
 4351TIP3   OH234611   5.452   0.491   0.878  0.6208  0.1274  0.3130
 4351TIP3    H134612   5.422   0.467   0.966  0.2062  1.0296  0.4260
 4351TIP3    H234613   5.381   0.462   0.820 -0.3896  1.9915  0.5530
 4352TIP3   OH234614   1.325   4.972   2.498 -0.1417 -0.3371  0.2807
 4352TIP3    H134615   1.254   4.908   2.511  0.3371 -1.0677 -0.5643
 4352TIP3    H234616   1.301   5.018   2.418 -0.1918  0.1489  0.5746
 4353TIP3   OH234617   6.796   3.385   2.643  0.1056  0.0351 -0.1790
 4353TIP3    H134618   6.780   3.381   2.738  0.9555  1.5219  0.0571
 4353TIP3    H234619   6.886   3.354   2.633  0.7616  1.8257 -0.2231
 4354TIP3   OH234620   0.814   6.346   0.752 -0.4431 -0.1721  0.2282
 4354TIP3    H134621   0.865   6.409   0.802  0.0562 -0.5938  0.2593
 4354TIP3    H234622   0.879   6.285   0.716 -0.8814 -0.4467 -0.1140
 4355TIP3   OH234623   2.744   2.580   1.904  0.3348  0.4629 -0.4524
 4355TIP3    H134624   2.786   2.496   1.882  0.1685 -0.0858  1.1952
 4355TIP3    H234625   2.670   2.556   1.960  1.9859  1.8126  2.5737
 4356TIP3   OH234626   2.139   6.286   2.488 -0.3680 -0.0503  0.2912
 4356TIP3    H134627   2.064   6.273   2.546 -1.6913  3.7671 -0.2921
 4356TIP3    H234628   2.138   6.209   2.430 -2.3564 -1.2451  1.7777
 4357TIP3   OH234629   6.089   0.721   2.797  0.1217 -0.1156  0.5625
 4357TIP3    H134630   6.162   0.769   2.758 -0.0129 -1.7545 -1.9512
 4357TIP3    H234631   6.017   0.783   2.798  0.6334  0.5024 -0.1425
 4358TIP3   OH234632   2.739   0.655   2.460 -0.1058 -0.0080  0.2150
 4358TIP3    H134633   2.728   0.564   2.431 -2.6201  0.1059  0.5743
 4358TIP3    H234634   2.693   0.707   2.394  0.5280  0.9160  0.4893
 4359TIP3   OH234635   6.194   5.465   8.047  0.5054 -0.3382  0.0046
 4359TIP3    H134636   6.180   5.479   7.953 -2.4475  0.0666  0.4078
 4359TIP3    H234637   6.112   5.493   8.088  1.9119  0.0419  2.7928
 4360TIP3   OH234638   2.986   1.719   2.808  0.9904  0.1582 -0.1937
 4360TIP3    H134639   2.976   1.773   2.730  0.5251 -1.8360 -1.5815
 4360TIP3    H234640   2.932   1.642   2.791 -0.6348  0.4489  2.8893
 4361TIP3   OH234641   0.518   5.943   1.829 -0.2704  0.0726 -0.3672
 4361TIP3    H134642   0.479   5.967   1.745 -1.4255 -0.1933  0.0708
 4361TIP3    H234643   0.452   5.969   1.894 -1.3838 -3.6012  0.2020
 4362TIP3   OH234644   4.032   6.505   0.318  0.4223  0.3159 -0.3213
 4362TIP3    H134645   4.003   6.581   0.369  0.0885  0.2656 -0.4335
 4362TIP3    H234646   3.984   6.431   0.355  2.2164 -0.2029  1.1275
 4363TIP3   OH234647   0.532   0.496   7.231  0.5602 -0.4255  0.8270
 4363TIP3    H134648   0.464   0.564   7.235  1.1538  0.2789 -0.3866
 4363TIP3    H234649   0.570   0.506   7.144  0.4089 -2.5831  0.4681
 4364TIP3   OH234650   5.825   1.729   7.838 -0.7830  0.2574  0.0010
 4364TIP3    H134651   5.800   1.703   7.749 -1.1573  1.7762 -0.3694
 4364TIP3    H234652   5.745   1.720   7.889 -1.5026  2.6593 -0.6117
 4365TIP3   OH234653   5.932   2.583   1.796  0.5660 -0.1058 -0.5868
 4365TIP3    H134654   5.986   2.628   1.731  2.1784  0.6612  1.1856
 4365TIP3    H234655   5.887   2.654   1.842  2.4139 -0.2625  1.6255
 4366TIP3   OH234656   2.216   1.626   0.671  0.2614 -0.5836 -0.2389
 4366TIP3    H134657   2.136   1.676   0.685  0.1177 -0.5263 -1.1962
 4366TIP3    H234658   2.232   1.582   0.754 -0.2519  0.1330  0.2478
 4367TIP3   OH234659   2.165   0.872   0.785 -0.5553 -0.2949 -0.0369
 4367TIP3    H134660   2.098   0.925   0.741 -0.4620  0.6754  0.9316
 4367TIP3    H234661   2.247   0.895   0.740 -0.6523 -0.2882 -0.2071
 4368TIP3   OH234662   0.639   6.439   0.565  0.0453 -0.3645 -0.9714
 4368TIP3    H134663   0.654   6.533   0.560 -0.9672 -0.1302  0.1238
 4368TIP3    H234664   0.691   6.410   0.640  0.0149 -0.6152 -1.0464
 4369TIP3   OH234665   3.712   1.443   0.717 -0.3150 -0.5727 -0.1698
 4369TIP3    H134666   3.804   1.443   0.689  0.1329  0.2279  1.1790
 4369TIP3    H234667   3.662   1.447   0.636  0.7938 -2.2305 -0.9971
 4370TIP3   OH234668   1.691   6.127   8.136  0.2477 -0.4498 -0.2834
 4370TIP3    H134669   1.656   6.196   8.079  1.1314 -0.0056 -0.3176
 4370TIP3    H234670   1.743   6.072   8.077 -0.2410 -0.9914 -0.2074
 4371TIP3   OH234671   0.038   1.833   0.045  0.1093  0.4157  0.1367
 4371TIP3    H134672   0.087   1.855  -0.034  1.2429 -0.7757  0.4847
 4371TIP3    H234673  -0.030   1.901   0.050  1.0812  1.5251 -0.9099
 4372TIP3   OH234674   5.773   1.499   1.174 -0.4228 -0.9715 -0.1303
 4372TIP3    H134675   5.808   1.552   1.103 -1.3715  0.5283  0.4602
 4372TIP3    H234676   5.826   1.523   1.250 -2.8364  1.6699  0.8791
 4373TIP3   OH234677   3.190   2.838   8.240 -0.2915 -0.4407 -0.0002
 4373TIP3    H134678   3.194   2.821   8.146  1.2225  1.5840 -0.3830
 4373TIP3    H234679   3.100   2.865   8.256 -1.4110 -3.6691 -0.2279
 4374TIP3   OH234680   6.793   5.209   7.853  0.1265 -0.0709  0.1092
 4374TIP3    H134681   6.751   5.268   7.916 -0.8477 -1.3886  0.7450
 4374TIP3    H234682   6.725   5.145   7.831  0.3694  0.4347 -2.4715
 4375TIP3   OH234683   6.716   6.982   1.138  0.0499  0.0923 -0.1440
 4375TIP3    H134684   6.778   6.967   1.209  0.9737 -1.5969 -1.2246
 4375TIP3    H234685   6.694   7.075   1.144 -0.3177 -0.0907  2.6323
 4376TIP3   OH234686   4.063   1.480   1.657  0.2378  0.2811  0.2251
 4376TIP3    H134687   3.999   1.415   1.630 -1.7438  2.1391  0.1955
 4376TIP3    H234688   4.087   1.526   1.576 -0.4131  1.3099  0.6021
 4377TIP3   OH234689   3.523   5.808   2.272 -0.2660  0.3158  0.2073
 4377TIP3    H134690   3.512   5.883   2.213  1.4095  0.1940 -0.3427
 4377TIP3    H234691   3.484   5.735   2.225  0.3504  0.3770 -0.4255
 4378TIP3   OH234692   2.564   3.929   0.186 -0.1731 -0.3457  0.2669
 4378TIP3    H134693   2.578   3.992   0.115 -1.0506  1.2651  1.4475
 4378TIP3    H234694   2.651   3.900   0.211  0.1938 -0.2592 -0.8653
 4379TIP3   OH234695   0.117   3.237   2.188 -0.5201 -0.0845  0.3388
 4379TIP3    H134696   0.204   3.239   2.148 -0.5207 -0.5499  0.3076
 4379TIP3    H234697   0.061   3.282   2.126 -0.4506 -0.4837 -0.0127
 4380TIP3   OH234698   2.684   6.604   0.327  0.2949 -0.2644  0.9320
 4380TIP3    H134699   2.757   6.664   0.339 -0.2430  0.4826  0.5300
 4380TIP3    H234700   2.668   6.604   0.233 -0.5018 -0.0859  1.0621
 4381TIP3   OH234701   3.099   5.972   8.006 -0.1716 -0.2592 -0.4082
 4381TIP3    H134702   3.130   6.063   7.996  0.8152 -0.3679  1.2687
 4381TIP3    H234703   3.010   5.981   8.040 -0.1961  0.0715 -0.5479
 4382TIP3   OH234704   1.929   2.423   2.765  0.2172  0.1201 -0.0629
 4382TIP3    H134705   1.914   2.363   2.838 -2.2834 -1.6324 -1.8645
 4382TIP3    H234706   2.011   2.393   2.725 -0.1478 -1.0723  0.0483
 4383TIP3   OH234707   6.178   2.432   0.046 -0.5333 -0.1251 -0.5378
 4383TIP3    H134708   6.133   2.516   0.041 -0.7962 -0.1724  0.7577
 4383TIP3    H234709   6.188   2.405  -0.045  1.4411  2.2912 -1.1510
 4384TIP3   OH234710   4.485   4.877   0.928 -0.1494 -0.2100 -0.3805
 4384TIP3    H134711   4.572   4.881   0.968 -0.6489  0.2541  0.6760
 4384TIP3    H234712   4.478   4.786   0.897  0.9371 -0.0998 -1.0400
 4385TIP3   OH234713   4.673   4.587   8.005  0.4176 -0.4445  0.2173
 4385TIP3    H134714   4.596   4.619   7.958  0.9782  0.8480  0.1330
 4385TIP3    H234715   4.642   4.573   8.094 -0.0476 -0.4839  0.0556
 4386TIP3   OH234716   3.974   3.595   1.245 -0.0160  0.1513  0.0185
 4386TIP3    H134717   3.981   3.533   1.317 -0.8852 -0.0138 -0.0301
 4386TIP3    H234718   4.035   3.561   1.179 -2.2160 -2.0975 -1.0194
 4387TIP3   OH234719   6.680   4.182   2.086  0.4246 -0.1516  0.1688
 4387TIP3    H134720   6.640   4.269   2.086 -0.1143 -0.3950  0.5848
 4387TIP3    H234721   6.721   4.175   2.000 -0.4114  0.1233 -0.2663
 4388TIP3   OH234722   5.252   1.683   3.117 -0.0852  0.2391 -0.0011
 4388TIP3    H134723   5.306   1.751   3.077 -0.0324  0.7544  0.9084
 4388TIP3    H234724   5.315   1.620   3.152 -0.0156  1.1071  1.5261
 4389TIP3   OH234725   3.789   6.204   1.166 -0.2493  0.0668 -0.1642
 4389TIP3    H134726   3.705   6.185   1.210 -0.9296  1.0545 -0.9843
 4389TIP3    H234727   3.855   6.171   1.227 -1.2137 -0.2317  0.7702
 4390TIP3   OH234728   1.485   2.083   1.361  0.6766  0.1208  0.2406
 4390TIP3    H134729   1.464   2.029   1.437  0.9969 -1.2316 -0.5796
 4390TIP3    H234730   1.416   2.148   1.357 -0.9714 -1.5405  0.0970
 4391TIP3   OH234731   1.359   0.935   0.850  0.0968  0.0413  0.1979
 4391TIP3    H134732   1.434   0.953   0.793 -0.0799 -0.8260 -0.3212
 4391TIP3    H234733   1.357   1.009   0.910  0.7631  0.5826 -0.4225
 4392TIP3   OH234734   1.455   3.178   7.598  0.1655 -0.1341  0.2645
 4392TIP3    H134735   1.380   3.225   7.634 -1.6594 -0.1617 -3.0627
 4392TIP3    H234736   1.511   3.247   7.561  1.0509 -0.2188  1.3952
 4393TIP3   OH234737   3.506   6.462   3.226 -0.1700 -0.1824 -0.1154
 4393TIP3    H134738   3.431   6.427   3.273 -0.5764  1.0793  0.2247
 4393TIP3    H234739   3.580   6.452   3.287 -0.6453  1.2179  0.7626
 4394TIP3   OH234740   2.192   3.860   1.346  0.1186 -0.2887  0.2468
 4394TIP3    H134741   2.226   3.890   1.431 -1.0048  0.8787  0.3231
 4394TIP3    H234742   2.257   3.798   1.315 -0.4069 -2.3986  2.9273
 4395TIP3   OH234743   1.300   1.448   0.106 -0.5036  0.3155  0.1715
 4395TIP3    H134744   1.384   1.415   0.074  0.0992  1.9368  0.0038
 4395TIP3    H234745   1.235   1.406   0.049  0.0586 -1.7457  0.9355
 4396TIP3   OH234746   5.610   6.208   0.902  0.0868  0.4785 -0.4587
 4396TIP3    H134747   5.533   6.166   0.941  1.5372  1.1172  3.4368
 4396TIP3    H234748   5.630   6.153   0.826 -1.9796 -1.9256  0.5795
 4397TIP3   OH234749   1.567   2.356   0.501  0.1162 -0.3684  0.0468
 4397TIP3    H134750   1.483   2.313   0.511  0.0725 -0.3862 -0.4011
 4397TIP3    H234751   1.546   2.442   0.463  0.1655  0.2095  1.2661
 4398TIP3   OH234752   3.290   2.306   0.031 -0.0251 -0.2345 -0.7948
 4398TIP3    H134753   3.303   2.400   0.035 -1.2397 -0.0772  0.1483
 4398TIP3    H234754   3.363   2.273  -0.022 -0.4952  1.4018 -2.5377
 4399TIP3   OH234755   0.910   5.060   0.306 -0.4155  0.0257 -0.4564
 4399TIP3    H134756   0.901   5.113   0.227 -0.0542  1.0925  0.1959
 4399TIP3    H234757   0.822   5.024   0.321 -0.3840 -0.5543 -1.5734
 4400TIP3   OH234758   4.649   3.244   8.312 -0.0665 -0.6237  0.0463
 4400TIP3    H134759   4.669   3.217   8.402 -0.3466  0.3797  0.4358
 4400TIP3    H234760   4.608   3.330   8.323  0.4623 -0.2162 -1.0899
 4401TIP3   OH234761   5.034   2.694   0.073  0.0235  0.0722 -0.0015
 4401TIP3    H134762   5.020   2.657   0.160  0.2246 -0.6510 -0.2739
 4401TIP3    H234763   4.993   2.631   0.013 -0.4456  0.7470 -0.4101
 4402TIP3   OH234764   5.098   4.929   7.251  0.8749  0.4243  0.5639
 4402TIP3    H134765   5.070   5.021   7.252  0.6692  0.3994 -0.8076
 4402TIP3    H234766   5.032   4.884   7.198  0.7789 -0.5894  1.5253
 4403TIP3   OH234767   2.481   2.622   2.755  0.4088  0.1142 -0.1464
 4403TIP3    H134768   2.558   2.599   2.704  0.7080 -0.5625  0.5900
 4403TIP3    H234769   2.510   2.693   2.812  0.0695  0.8832 -0.9123
 4404TIP3   OH234770   3.568   2.823   8.184  0.3645 -0.0938  0.0615
 4404TIP3    H134771   3.624   2.757   8.144  0.4906  0.4081 -0.6117
 4404TIP3    H234772   3.503   2.844   8.117 -0.2833 -0.2577  0.6315
 4405TIP3   OH234773   0.204   1.552   0.282  0.1699 -0.0056  0.8999
 4405TIP3    H134774   0.289   1.513   0.261  0.7842  1.5121  0.4658
 4405TIP3    H234775   0.145   1.515   0.217  0.7104 -0.2741  0.5528
 4406TIP3   OH234776   5.947   6.865   2.528 -0.2114  0.3385 -0.1929
 4406TIP3    H134777   6.015   6.798   2.524 -0.3764  0.1488  0.0806
 4406TIP3    H234778   5.991   6.943   2.560 -0.3070 -0.0421  0.9221
 4407TIP3   OH234779   6.906   6.266   2.514  0.2538 -0.1533  0.3080
 4407TIP3    H134780   6.835   6.313   2.558  0.1320 -0.6709  0.6808
 4407TIP3    H234781   6.914   6.184   2.563  0.3564 -0.5897 -0.4209
 4408TIP3   OH234782   0.775   1.876   1.140  0.0918  0.1904 -0.0943
 4408TIP3    H134783   0.776   1.941   1.070 -2.7344  2.2595  1.6079
 4408TIP3    H234784   0.818   1.919   1.213 -2.0123  0.3390  1.1242
 4409TIP3   OH234785   4.816   3.650   7.961  0.4265  0.3121  0.0299
 4409TIP3    H134786   4.833   3.744   7.973 -0.2352  0.6419 -1.5210
 4409TIP3    H234787   4.867   3.609   8.031  0.1680  1.8569  1.1914
 4410TIP3   OH234788   5.839   4.160   7.618  0.1640 -0.0696  0.3333
 4410TIP3    H134789   5.804   4.209   7.692 -0.9651 -0.1317 -0.1452
 4410TIP3    H234790   5.803   4.204   7.541  0.5135 -0.6153 -0.1496
 4411TIP3   OH234791   4.629   1.699   8.145 -0.3832 -0.0617 -0.6222
 4411TIP3    H134792   4.566   1.753   8.097 -1.5272 -1.9524 -1.3699
 4411TIP3    H234793   4.682   1.657   8.078  0.3511 -0.0275 -0.0774
 4412TIP3   OH234794   5.652   1.082   8.169 -0.0458  0.0220 -0.2285
 4412TIP3    H134795   5.641   1.173   8.200  0.1817  0.6438 -1.8843
 4412TIP3    H234796   5.569   1.061   8.127  0.0493 -0.4027 -0.2047
 4413TIP3   OH234797   3.681   0.536   0.466 -0.3495  0.1678  0.3211
 4413TIP3    H134798   3.664   0.481   0.543  0.8530 -1.6468 -0.6460
 4413TIP3    H234799   3.745   0.487   0.414  0.6755  2.4121 -0.7123
 4414TIP3   OH234800   5.054   0.321   1.776 -0.2253 -0.7645 -0.3845
 4414TIP3    H134801   5.082   0.382   1.707 -2.7660 -0.9536 -1.6971
 4414TIP3    H234802   5.040   0.238   1.730 -2.8071 -0.6724  0.1057
 4415TIP3   OH234803   6.931   0.920   2.262  0.4402 -0.1383 -0.1870
 4415TIP3    H134804   6.901   0.834   2.232 -0.3986  0.0776 -0.0044
 4415TIP3    H234805   6.872   0.982   2.220  0.9301  0.3414 -0.1800
 4416TIP3   OH234806   1.398   3.935   2.304 -0.7317 -0.0491 -0.1087
 4416TIP3    H134807   1.325   3.873   2.297 -0.1466 -0.7660  0.0036
 4416TIP3    H234808   1.379   3.985   2.383 -0.8675 -0.5428  0.1749
 4417TIP3   OH234809   4.927   0.387   0.130  0.5120 -0.1471 -0.2181
 4417TIP3    H134810   4.843   0.362   0.093  0.7429  1.2672 -1.8399
 4417TIP3    H234811   4.970   0.304   0.151 -0.4040 -0.9515 -1.4152
 4418TIP3   OH234812   5.371   2.860   3.046 -0.2011  0.5866  0.2531
 4418TIP3    H134813   5.453   2.815   3.066 -0.8868 -0.3305  1.0876
 4418TIP3    H234814   5.308   2.825   3.109 -0.9379  2.2230  0.4836
 4419TIP3   OH234815   3.068   2.701   0.797  0.6815 -0.6411 -0.1848
 4419TIP3    H134816   2.996   2.642   0.820 -0.0846  0.5214  0.4955
 4419TIP3    H234817   3.100   2.734   0.881 -0.5109  1.7574 -0.5793
 4420TIP3   OH234818   2.046   0.560   0.208  0.0727  0.5353  0.4570
 4420TIP3    H134819   2.117   0.512   0.250  0.1175  1.0082  0.9315
 4420TIP3    H234820   2.078   0.579   0.120 -0.7862 -2.2215 -0.5755
 4421TIP3   OH234821   6.585   5.157   1.089 -0.6017 -0.0804 -0.6289
 4421TIP3    H134822   6.549   5.099   1.156 -0.0049 -1.9547 -1.8231
 4421TIP3    H234823   6.606   5.098   1.016  0.2224  1.6456 -1.8579
 4422TIP3   OH234824   3.717   5.087   1.248 -0.3897 -0.5045  0.3133
 4422TIP3    H134825   3.686   5.173   1.275  1.4033 -0.2577  1.7476
 4422TIP3    H234826   3.654   5.059   1.182 -0.3105  2.4522 -1.1783
 4423TIP3   OH234827   0.803   4.960   1.001 -0.1925  0.4409 -0.5621
 4423TIP3    H134828   0.757   4.975   1.084 -0.0422  0.8724 -0.5512
 4423TIP3    H234829   0.821   4.866   1.000  1.1828  0.6481  0.6374
 4424TIP3   OH234830   2.700   6.532   3.038  0.0727 -0.0310 -0.4362
 4424TIP3    H134831   2.772   6.582   3.075 -0.4617  1.2331 -1.0588
 4424TIP3    H234832   2.700   6.450   3.088  0.9746  0.5681  0.5944
 4425TIP3   OH234833   5.188   5.415   8.082  0.6491 -0.0240 -0.2121
 4425TIP3    H134834   5.183   5.393   7.988  0.0676 -1.3610  0.1022
 4425TIP3    H234835   5.230   5.339   8.122  1.7600  0.9340  0.5100
 4426TIP3   OH234836   3.462   3.202   2.043 -0.0506  0.1019  0.6495
 4426TIP3    H134837   3.473   3.245   1.958  1.4861 -0.9537  0.2800
 4426TIP3    H234838   3.413   3.265   2.096  0.3741  1.4376 -0.5039
 4427TIP3   OH234839   6.318   3.574   7.390  0.7656 -0.3426  0.0980
 4427TIP3    H134840   6.365   3.614   7.317  1.8878 -1.5321  0.1243
 4427TIP3    H234841   6.287   3.648   7.442  2.0353  0.5078 -0.2989
 4428TIP3   OH234842   3.264   0.035   1.761 -0.0790 -0.3373 -0.0710
 4428TIP3    H134843   3.349  -0.006   1.745 -0.5993 -2.2098  1.5191
 4428TIP3    H234844   3.200  -0.033   1.738 -1.2147  1.1736 -1.6477
 4429TIP3   OH234845   5.699   3.752   2.644 -0.1338  0.1715  0.0431
 4429TIP3    H134846   5.752   3.770   2.567  0.7696 -0.0542  0.6067
 4429TIP3    H234847   5.609   3.772   2.617  0.4810  2.8796 -0.2011
 4430TIP3   OH234848   5.261   1.643   0.494 -0.0838 -0.5091 -0.5737
 4430TIP3    H134849   5.331   1.672   0.436 -0.1999  1.7400  0.3389
 4430TIP3    H234850   5.305   1.624   0.577 -0.4345  0.0774 -0.2512
 4431TIP3   OH234851   6.759   5.932   8.387 -0.1057 -0.7991  0.2640
 4431TIP3    H134852   6.794   5.981   8.462  2.0714 -1.0728 -0.5108
 4431TIP3    H234853   6.796   5.844   8.396 -0.4875 -1.0710 -0.6850
 4432TIP3   OH234854   3.060   1.731   0.318  0.0923  0.3164  0.3226
 4432TIP3    H134855   3.045   1.660   0.380  0.9016  0.3023  0.5188
 4432TIP3    H234856   3.070   1.688   0.234 -0.3309  0.2785  0.2904
 4433TIP3   OH234857   1.050   6.487   0.797 -0.0344  0.4251  0.2402
 4433TIP3    H134858   1.140   6.520   0.800 -0.0826  0.4811  1.4483
 4433TIP3    H234859   1.006   6.529   0.871 -0.5144 -1.1164  0.8758
 4434TIP3   OH234860   5.979   6.607   8.335  0.1535  0.2861  0.0445
 4434TIP3    H134861   5.923   6.669   8.381 -0.7736 -0.9241  0.6113
 4434TIP3    H234862   6.058   6.602   8.389 -0.2260  0.1554  0.6051
 4435TIP3   OH234863   4.522   4.168   1.656  0.2998 -0.1366 -0.2886
 4435TIP3    H134864   4.573   4.116   1.718 -0.3662  0.1709  0.5422
 4435TIP3    H234865   4.587   4.223   1.612  0.8289 -0.6341 -0.1442
 4436TIP3   OH234866   6.619   3.887   8.008 -0.1026  0.8323  0.5459
 4436TIP3    H134867   6.633   3.816   8.072  1.0489  1.0207  0.5091
 4436TIP3    H234868   6.687   3.874   7.942 -0.8664  1.0474 -0.3049
 4437TIP3   OH234869   5.911   1.648   2.290 -0.0287 -0.1552 -0.2709
 4437TIP3    H134870   5.922   1.555   2.308  0.9165  0.1866  1.0584
 4437TIP3    H234871   5.988   1.672   2.238  0.7176  0.2666  1.0030
 4438TIP3   OH234872   2.325   3.424   2.082  0.5730  0.1378  0.4100
 4438TIP3    H134873   2.388   3.438   2.152 -0.0840  0.1615  0.9977
 4438TIP3    H234874   2.366   3.358   2.026  0.5190 -0.8745  1.5420
 4439TIP3   OH234875   4.180   5.282   2.280  0.4066  0.7079  0.5706
 4439TIP3    H134876   4.266   5.246   2.301  1.3045  1.2469 -1.8602
 4439TIP3    H234877   4.118   5.228   2.329  1.7862 -3.0081 -1.4310
 4440TIP3   OH234878   0.258   5.476   1.761  0.1900 -0.1556 -0.1509
 4440TIP3    H134879   0.349   5.477   1.734 -0.5479  0.3375 -2.8614
 4440TIP3    H234880   0.239   5.566   1.786  0.2795 -0.1383 -0.1438
 4441TIP3   OH234881   1.842   2.263   0.635 -0.3442 -0.1587  0.1042
 4441TIP3    H134882   1.760   2.306   0.660  0.4453  0.7864  1.1855
 4441TIP3    H234883   1.902   2.335   0.616 -0.2551 -0.8367 -2.5276
 4442TIP3   OH234884   2.389   2.359   0.282  0.3631 -0.1751  0.3259
 4442TIP3    H134885   2.390   2.455   0.278 -0.7698 -0.1838 -2.6287
 4442TIP3    H234886   2.297   2.336   0.270  0.2703 -1.6858  3.1309
 4443TIP3   OH234887   5.043   5.595   0.517  0.5295  0.2347  0.1457
 4443TIP3    H134888   5.101   5.521   0.538 -0.6395 -0.1073  2.4321
 4443TIP3    H234889   4.962   5.577   0.564 -0.9910  1.4114 -1.8317
 4444TIP3   OH234890   5.564   4.483   8.114  0.3736 -1.1278  0.4134
 4444TIP3    H134891   5.520   4.530   8.044  1.4808 -2.2172 -1.0755
 4444TIP3    H234892   5.535   4.526   8.194  0.8191  1.6478 -0.8140
 4445TIP3   OH234893   0.437   6.779   7.865 -0.0933 -0.4436 -0.7702
 4445TIP3    H134894   0.508   6.798   7.804 -0.5740 -1.0925 -1.5473
 4445TIP3    H234895   0.423   6.684   7.859 -0.1016 -0.5427  0.4082
 4446TIP3   OH234896   6.943   2.597   1.472 -0.3475  0.0470 -0.0830
 4446TIP3    H134897   6.938   2.535   1.399 -1.6277 -0.7518  0.6544
 4446TIP3    H234898   6.938   2.543   1.550 -0.0905  0.9833  0.5998
 4447TIP3   OH234899   3.106   2.038   2.712 -0.0499  0.2713  0.0856
 4447TIP3    H134900   3.057   2.004   2.637  3.2066  0.8067 -2.5108
 4447TIP3    H234901   3.120   2.130   2.691  1.2907  0.3410  1.1479
 4448TIP3   OH234902   2.902   3.208   2.499  0.3438 -0.3700  0.6331
 4448TIP3    H134903   2.940   3.139   2.444  0.6909 -0.7408  1.3204
 4448TIP3    H234904   2.899   3.170   2.587 -1.9592 -0.4859  0.5715
 4449TIP3   OH234905   5.829   4.348   8.074  0.6739 -0.2761 -0.8914
 4449TIP3    H134906   5.845   4.395   8.156 -0.5388  1.7529 -1.7469
 4449TIP3    H234907   5.741   4.375   8.048  0.4404 -2.0575 -2.1329
 4450TIP3   OH234908   3.300   4.841   0.998  0.4316 -0.7441  0.3006
 4450TIP3    H134909   3.224   4.888   0.964 -0.6083 -0.3638  2.9005
 4450TIP3    H234910   3.273   4.749   0.997  0.0776 -0.6503  0.8377
 4451TIP3   OH234911   4.677   3.789   0.539 -0.4558 -0.0945  0.1696
 4451TIP3    H134912   4.596   3.773   0.491 -0.4165  1.9603 -0.6903
 4451TIP3    H234913   4.716   3.864   0.495  1.0201  0.0823  1.6913
 4452TIP3   OH234914   3.795   6.182   2.332  0.5094  0.7978 -0.1068
 4452TIP3    H134915   3.847   6.141   2.262  1.7219  1.0792  0.5943
 4452TIP3    H234916   3.851   6.253   2.364 -0.1343  0.8256  0.9802
 4453TIP3   OH234917   6.886   0.586   2.641 -0.5566  0.5420 -0.5128
 4453TIP3    H134918   6.883   0.512   2.702 -1.8218 -0.6549 -1.9557
 4453TIP3    H234919   6.891   0.663   2.698 -2.2046 -0.4918  1.1537
 4454TIP3   OH234920   2.210   2.539   2.763  0.0387  0.3788 -0.6782
 4454TIP3    H134921   2.300   2.569   2.779 -0.0645 -0.1179  1.0797
 4454TIP3    H234922   2.159   2.578   2.833 -0.5690 -1.6397  0.0716
 4455TIP3   OH234923   5.342   6.714   2.176  0.5965  0.0756  0.7904
 4455TIP3    H134924   5.435   6.726   2.195  0.3735 -0.3786  2.3917
 4455TIP3    H234925   5.325   6.623   2.201 -0.0933 -0.1102 -0.3289
 4456TIP3   OH234926   6.907   6.890   1.314 -0.8778  0.1485  0.8241
 4456TIP3    H134927   6.990   6.932   1.336 -0.5028  0.5590 -1.1068
 4456TIP3    H234928   6.927   6.839   1.235 -2.1238 -0.9767  1.2041
 4457TIP3   OH234929   0.305   3.140   0.293 -0.1779  0.0042  0.3073
 4457TIP3    H134930   0.323   3.229   0.321  0.6022  0.3472 -1.1644
 4457TIP3    H234931   0.209   3.135   0.289 -0.2243  0.8223  0.2495
 4458TIP3   OH234932   3.956   5.631   2.685 -0.2960  0.0074  0.0712
 4458TIP3    H134933   3.964   5.727   2.690 -1.2116  0.1203 -0.5223
 4458TIP3    H234934   3.863   5.616   2.669 -0.3363 -1.0278  1.1787
 4459TIP3   OH234935   5.280   0.944   1.279  0.3233 -0.5405 -0.1211
 4459TIP3    H134936   5.324   1.029   1.269 -2.1071  0.6711 -1.1466
 4459TIP3    H234937   5.217   0.958   1.349  0.7545 -1.9366  0.5805
 4460TIP3   OH234938   4.347   3.773   0.954  0.0271 -0.3110  0.0694
 4460TIP3    H134939   4.340   3.868   0.963 -0.2671 -0.4540  1.6288
 4460TIP3    H234940   4.430   3.759   0.908  0.9155  0.6514  1.3205
 4461TIP3   OH234941   4.797   6.497   1.025 -0.0466  0.0025 -0.2263
 4461TIP3    H134942   4.821   6.419   1.075 -1.2677 -0.7065 -0.6999
 4461TIP3    H234943   4.874   6.553   1.029  1.0308 -1.4295 -0.2777
 4462TIP3   OH234944   0.575   2.281   1.927 -0.2698  0.6632 -0.1199
 4462TIP3    H134945   0.655   2.233   1.906 -0.3716  0.2136  0.5161
 4462TIP3    H234946   0.602   2.373   1.927  1.3210  0.4297  4.2194
 4463TIP3   OH234947   2.666   2.834   7.385 -0.4572  0.1467 -0.2997
 4463TIP3    H134948   2.693   2.893   7.456  0.1080 -0.3244 -0.1154
 4463TIP3    H234949   2.570   2.831   7.392 -0.4559  0.6464  0.0058
 4464TIP3   OH234950   0.583   6.248   2.274 -0.6020 -0.0649 -0.1997
 4464TIP3    H134951   0.656   6.303   2.246  1.5298 -2.8991 -0.6792
 4464TIP3    H234952   0.559   6.198   2.196 -0.6786 -1.6297  0.7806
 4465TIP3   OH234953   6.541   4.448   7.030  0.3612 -0.0003 -0.0294
 4465TIP3    H134954   6.552   4.469   6.938 -0.2005  0.3695 -0.0195
 4465TIP3    H234955   6.447   4.430   7.039  0.0167  2.0487  0.8790
 4466TIP3   OH234956   3.498   5.308   0.892  0.1547 -0.5724  0.4660
 4466TIP3    H134957   3.579   5.343   0.930  0.4200 -0.8717  0.1802
 4466TIP3    H234958   3.506   5.324   0.798 -0.0083 -0.8240  0.4073
 4467TIP3   OH234959   5.447   6.186   0.469 -0.4515 -0.0735 -0.4973
 4467TIP3    H134960   5.433   6.277   0.441 -0.0568  0.2858  0.4464
 4467TIP3    H234961   5.484   6.143   0.392  2.0744  1.2585 -0.1352
 4468TIP3   OH234962   0.779   2.741   0.337 -0.5437  0.2518 -0.2146
 4468TIP3    H134963   0.802   2.786   0.255 -3.2061  1.4813 -0.4032
 4468TIP3    H234964   0.699   2.692   0.315 -0.4686 -0.5852  1.2920
 4469TIP3   OH234965   2.009   0.846   0.023  0.2955  0.0184 -0.0209
 4469TIP3    H134966   2.031   0.861  -0.069 -0.4920 -2.0471 -0.6023
 4469TIP3    H234967   2.094   0.844   0.067  1.0223 -2.4572 -1.3349
 4470TIP3   OH234968   1.668   2.036   2.002 -0.0640 -0.1096 -0.0509
 4470TIP3    H134969   1.708   1.958   1.964  2.4546  1.5139 -0.9556
 4470TIP3    H234970   1.731   2.067   2.066 -1.9075  0.1708  1.7521
 4471TIP3   OH234971   3.707   0.304   8.165  0.5996  0.1714  0.5668
 4471TIP3    H134972   3.689   0.212   8.145  0.2585  0.3162  0.2092
 4471TIP3    H234973   3.645   0.326   8.234  0.3100  0.2870  0.2716
 4472TIP3   OH234974   0.677   4.426   0.895  0.7335 -0.3725 -0.6274
 4472TIP3    H134975   0.597   4.479   0.900 -0.1483 -1.5427 -1.6328
 4472TIP3    H234976   0.737   4.477   0.841  0.3422  0.1292 -0.5989
 4473TIP3   OH234977   4.652   6.687   1.240 -0.4928 -0.1167 -0.2845
 4473TIP3    H134978   4.713   6.759   1.258 -0.1164 -0.4281 -0.3017
 4473TIP3    H234979   4.590   6.689   1.312 -1.2282  1.0097 -0.9195
 4474TIP3   OH234980   0.654   4.965   0.326 -0.2785  0.2651  0.6507
 4474TIP3    H134981   0.632   5.054   0.298 -1.3774  0.1841  1.1966
 4474TIP3    H234982   0.597   4.908   0.273  0.6507 -0.1417  0.0707
 4475TIP3   OH234983   3.854   0.294   1.151 -0.0720 -0.0278 -0.2962
 4475TIP3    H134984   3.814   0.257   1.072 -0.8997  0.4236 -0.1002
 4475TIP3    H234985   3.906   0.222   1.188 -0.4621 -0.5324 -0.7207
 4476TIP3   OH234986   0.491   5.199   2.192 -0.0845 -0.2548 -0.6446
 4476TIP3    H134987   0.458   5.283   2.223  2.1086  0.8378 -1.0533
 4476TIP3    H234988   0.428   5.172   2.126 -0.3986  1.5266 -1.1386
 4477TIP3   OH234989   4.188   1.572   1.897 -0.4439 -0.0773 -0.0207
 4477TIP3    H134990   4.118   1.560   1.833 -1.4765  0.9076  0.8792
 4477TIP3    H234991   4.177   1.500   1.958  0.6581 -1.1256 -1.0111
 4478TIP3   OH234992   5.686   2.989   7.733  0.3216 -0.2723  0.2753
 4478TIP3    H134993   5.726   2.912   7.695  1.1738  0.6764 -0.8270
 4478TIP3    H234994   5.669   3.047   7.658 -0.5230  0.5129  1.0383
 4479TIP3   OH234995   5.747   0.187   1.111 -0.7051  0.6192 -0.3418
 4479TIP3    H134996   5.726   0.095   1.094  1.0984  0.1329 -0.1833
 4479TIP3    H234997   5.682   0.215   1.175 -1.9533 -0.2089 -1.1964
 4480TIP3   OH234998   3.569   1.894   1.368  0.2379  0.2428  0.5884
 4480TIP3    H134999   3.605   1.947   1.439  1.3292  0.9016 -0.4207
 4480TIP3    H235000   3.642   1.841   1.337 -0.5185 -0.9066  0.7088
 4481TIP3   OH235001   2.834   6.846   0.174 -0.5806 -0.3529 -0.2132
 4481TIP3    H135002   2.768   6.912   0.154  0.4237  1.2400  1.4267
 4481TIP3    H235003   2.904   6.894   0.218 -0.4517 -2.7117  2.4756
 4482TIP3   OH235004   5.764   6.663   2.615  0.5363 -0.5003 -0.4180
 4482TIP3    H135005   5.772   6.684   2.708  0.9070 -0.0711 -0.5436
 4482TIP3    H235006   5.834   6.713   2.573 -0.2277  0.0565 -1.0451
 4483TIP3   OH235007   6.489   6.140   1.548  1.0959  0.2631  0.1604
 4483TIP3    H135008   6.474   6.085   1.470 -1.0768  1.1651 -0.1120
 4483TIP3    H235009   6.413   6.125   1.603  1.9344  0.7429  1.4929
 4484TIP3   OH235010   4.964   5.964   1.962  0.7544  0.4818 -0.2020
 4484TIP3    H135011   5.049   5.994   1.994  0.5465  0.2297  0.5910
 4484TIP3    H235012   4.985   5.916   1.882  1.1883  1.8707 -0.9683
 4485TIP3   OH235013   3.905   5.403   2.316  0.2511 -0.1637 -0.1454
 4485TIP3    H135014   3.989   5.439   2.289 -0.0517 -0.7549 -2.0263
 4485TIP3    H235015   3.915   5.308   2.307 -0.4550 -0.2739  0.1281
 4486TIP3   OH235016   4.323   3.673   0.580  0.1164  0.0907 -0.0928
 4486TIP3    H135017   4.279   3.666   0.496  0.1321  0.1033 -0.1019
 4486TIP3    H235018   4.292   3.597   0.630 -0.5660  0.5568  0.2114
 4487TIP3   OH235019   3.380   2.177   3.043 -0.4037 -0.2123 -0.1507
 4487TIP3    H135020   3.453   2.229   3.077  0.7943 -1.9696  0.0510
 4487TIP3    H235021   3.303   2.215   3.085  0.3136  1.8985 -0.6181
 4488TIP3   OH235022   2.729   5.690   1.180  0.2006  0.1180 -0.0828
 4488TIP3    H135023   2.680   5.741   1.245  2.2241 -0.5930  2.1623
 4488TIP3    H235024   2.695   5.601   1.189 -0.3086  0.2097 -0.9039
 4489TIP3   OH235025   4.841   5.283   0.608 -0.5337  0.6163 -0.2009
 4489TIP3    H135026   4.908   5.215   0.622  0.0031  1.4979  1.8507
 4489TIP3    H235027   4.849   5.305   0.516 -0.4294 -1.7769 -0.8473
 4490TIP3   OH235028   0.246   4.807   1.965  0.5405 -0.3923 -0.0287
 4490TIP3    H135029   0.245   4.846   1.878  0.8240 -1.0447 -0.3359
 4490TIP3    H235030   0.336   4.819   1.995  0.1671  0.8514  0.6628
 4491TIP3   OH235031   1.539   2.967   0.186 -0.3327  0.5176 -0.4162
 4491TIP3    H135032   1.449   2.943   0.162 -0.0857 -0.0920 -0.7364
 4491TIP3    H235033   1.538   2.970   0.281  0.1592 -2.9658 -0.1835
 4492TIP3   OH235034   4.162   2.122   8.094  0.2053 -0.1063 -0.3494
 4492TIP3    H135035   4.235   2.168   8.053  0.3107 -1.3089 -1.5945
 4492TIP3    H235036   4.084   2.166   8.060  0.3017  1.2155  1.0255
 4493TIP3   OH235037   3.874   3.533   7.362 -0.4945 -0.6103 -0.0266
 4493TIP3    H135038   3.838   3.526   7.450 -1.1311 -0.5022 -0.2673
 4493TIP3    H235039   3.874   3.443   7.329 -0.3858 -0.6329  0.0358
 4494TIP3   OH235040   4.002   2.637   1.219 -0.1092 -0.1127 -0.1439
 4494TIP3    H135041   3.918   2.607   1.252 -0.4727  0.7848 -0.2240
 4494TIP3    H235042   4.014   2.724   1.258  1.0469 -0.4632  0.3236
 4495TIP3   OH235043   3.559   0.131   2.041 -0.4234  0.4981  0.1436
 4495TIP3    H135044   3.529   0.175   2.121  1.2806 -0.2637  1.2422
 4495TIP3    H235045   3.608   0.055   2.072  1.4517  0.9325 -1.5926
 4496TIP3   OH235046   2.893   6.688   7.888  0.1074 -0.3710  0.4092
 4496TIP3    H135047   2.830   6.673   7.959  2.5471  0.5672  2.9549
 4496TIP3    H235048   2.924   6.777   7.902  1.7051 -0.6487 -1.0317
 4497TIP3   OH235049   4.547   6.527   0.917 -0.0860 -0.2638 -0.1887
 4497TIP3    H135050   4.552   6.619   0.890  0.2305 -0.0256  0.6692
 4497TIP3    H235051   4.628   6.511   0.965 -0.6620 -0.6709  0.6612
 4498TIP3   OH235052   3.779   5.935   1.060  0.1934  0.1411 -0.3588
 4498TIP3    H135053   3.790   6.030   1.047  1.0350 -0.1636 -2.0919
 4498TIP3    H235054   3.709   5.910   1.000 -0.1944 -0.3187  0.2683
 4499TIP3   OH235055   5.264   2.531   3.380 -0.0265 -0.4613  0.4080
 4499TIP3    H135056   5.354   2.539   3.412 -0.4199  1.7862  1.1468
 4499TIP3    H235057   5.251   2.610   3.326 -1.8556 -0.2149  1.1410
 4500TIP3   OH235058   1.934   2.127   1.337  0.5784  0.9888 -0.3282
 4500TIP3    H135059   1.916   2.034   1.324 -0.0480  0.7424  1.9607
 4500TIP3    H235060   2.027   2.131   1.359  0.5345  0.8693 -0.1221
 4501TIP3   OH235061   1.026   6.783   1.771 -0.6899 -0.0394  0.6463
 4501TIP3    H135062   0.983   6.861   1.805 -2.4244 -1.6466  2.4662
 4501TIP3    H235063   1.108   6.777   1.820 -0.4223  0.7733  0.3016
 4502TIP3   OH235064   0.856   1.961   0.370  0.3562  0.3007  0.2563
 4502TIP3    H135065   0.844   2.043   0.417 -0.5181 -0.1637  0.8466
 4502TIP3    H235066   0.886   1.899   0.436 -0.5265 -0.2592  0.1444
 4503TIP3   OH235067   0.128   6.724   1.992  0.1444 -0.4077 -0.1260
 4503TIP3    H135068   0.084   6.728   1.908  0.6076 -0.3107 -0.3684
 4503TIP3    H235069   0.058   6.715   2.056 -0.4702  2.5338 -0.2451
 4504TIP3   OH235070   3.589   4.392   7.991 -0.2404 -0.0937  0.4246
 4504TIP3    H135071   3.670   4.443   7.988  0.5472 -0.9729  3.2974
 4504TIP3    H235072   3.604   4.319   7.931  1.3974 -0.5633  1.3387
 4505TIP3   OH235073   3.553   6.990   1.741  0.5741  0.2571 -0.1271
 4505TIP3    H135074   3.619   7.040   1.694 -0.1169  1.0430 -0.2920
 4505TIP3    H235075   3.527   7.048   1.813 -0.2900  0.1773 -0.3647
 4506TIP3   OH235076   0.868   3.351   7.974  0.0486  0.4456 -0.2355
 4506TIP3    H135077   0.782   3.380   8.004  1.0758  4.8297 -0.7984
 4506TIP3    H235078   0.857   3.337   7.880 -0.0153  1.4424 -0.3891
 4507TIP3   OH235079   4.645   5.464   0.837 -0.0933 -0.2070 -0.3211
 4507TIP3    H135080   4.687   5.442   0.920 -0.9780 -0.4708  0.0610
 4507TIP3    H235081   4.602   5.548   0.853 -0.1041 -0.1627 -0.5734
 4508TIP3   OH235082   4.345   6.102   1.635 -0.6927  0.2484 -0.2505
 4508TIP3    H135083   4.379   6.013   1.632 -1.1402  0.0880 -0.5942
 4508TIP3    H235084   4.421   6.158   1.617 -0.0032  0.0471  1.7419
 4509TIP3   OH235085   1.506   6.247   7.562  0.2564 -0.2677  0.4183
 4509TIP3    H135086   1.454   6.325   7.583 -0.0937 -0.5103  0.4617
 4509TIP3    H235087   1.555   6.229   7.642  1.7904  1.0144 -0.1832
 4510TIP3   OH235088   2.770   5.323   0.636  0.6167 -0.0928  0.1069
 4510TIP3    H135089   2.783   5.418   0.627  1.0652 -0.0037  1.4313
 4510TIP3    H235090   2.771   5.290   0.547  0.1210  1.1908 -0.4069
 4511TIP3   OH235091   0.987   6.068   3.403 -0.1195  0.0395  0.1847
 4511TIP3    H135092   0.947   6.099   3.322 -0.6207  1.2606  0.8562
 4511TIP3    H235093   1.079   6.094   3.396 -0.5868  2.1072  0.8594
 4512TIP3   OH235094   1.529   1.784   7.950 -0.6108 -0.4854 -0.2291
 4512TIP3    H135095   1.466   1.721   7.916  0.0033 -1.7892  0.9094
 4512TIP3    H235096   1.591   1.799   7.879 -1.9077  0.4581 -1.1998
 4513TIP3   OH235097   5.823   2.406   2.952 -0.1128  0.0961  0.1355
 4513TIP3    H135098   5.867   2.490   2.944  1.1566 -0.7096 -3.2107
 4513TIP3    H235099   5.753   2.420   3.016 -1.6226  4.4797 -2.0902
 4514TIP3   OH235100   3.044   4.236   2.798  0.6827  0.5996  0.1187
 4514TIP3    H135101   3.078   4.300   2.859  0.5279 -0.2155  1.0828
 4514TIP3    H235102   2.965   4.276   2.762 -0.2205  0.3704  1.7965
 4515TIP3   OH235103   1.250   1.745   0.620  0.5340  0.0645  0.3472
 4515TIP3    H135104   1.207   1.665   0.591 -0.6977  0.4462  1.0198
 4515TIP3    H235105   1.335   1.745   0.576  1.0514 -2.1741  1.2521
 4516TIP3   OH235106   4.864   2.517   2.218  0.4176  0.5103  0.0880
 4516TIP3    H135107   4.870   2.604   2.258  1.1280  0.1686  0.7390
 4516TIP3    H235108   4.940   2.511   2.161  0.1666  0.4546 -0.2444
 4517TIP3   OH235109   3.490   3.842   7.610 -0.3429  0.1745  0.1525
 4517TIP3    H135110   3.458   3.754   7.630 -0.9147  0.2579 -0.3585
 4517TIP3    H235111   3.429   3.875   7.544 -0.4908  1.1695  0.7560
 4518TIP3   OH235112   0.005   4.547   0.116  0.4413  0.1024  0.4364
 4518TIP3    H135113  -0.078   4.503   0.137  0.7737 -0.0684  1.4931
 4518TIP3    H235114   0.070   4.496   0.164  1.3322 -0.4965 -1.3458
 4519TIP3   OH235115   4.426   5.211   7.340 -0.1109 -0.1096 -0.0719
 4519TIP3    H135116   4.507   5.240   7.297 -1.6020  1.3021 -2.1414
 4519TIP3    H235117   4.412   5.274   7.410  0.0954  0.2425 -0.3431
 4520TIP3   OH235118   2.182   0.220   2.533  0.0601  0.3551 -0.0417
 4520TIP3    H135119   2.171   0.125   2.531 -2.1447  0.5475  0.4668
 4520TIP3    H235120   2.156   0.248   2.445  0.1541  0.5265 -0.0133
 4521TIP3   OH235121   2.379   2.020   7.967  0.3093 -0.4058 -0.0885
 4521TIP3    H135122   2.380   2.110   7.998 -0.9690 -1.0242  1.9039
 4521TIP3    H235123   2.420   2.024   7.881 -1.8017  2.4686 -1.1240
 4522TIP3   OH235124   2.694   3.310   1.450  0.1495  0.4491 -0.2019
 4522TIP3    H135125   2.771   3.351   1.409 -0.2180 -0.0048 -1.4115
 4522TIP3    H235126   2.718   3.218   1.460 -0.0005  0.4320  0.0020
 4523TIP3   OH235127   5.929   0.281   0.882  0.3342 -0.2931 -0.0583
 4523TIP3    H135128   5.855   0.226   0.855  0.4670 -1.0948  1.1429
 4523TIP3    H235129   5.965   0.237   0.959  0.7632  1.2144  0.6457
 4524TIP3   OH235130   1.114   2.475   0.987  0.1348  0.4857  0.1223
 4524TIP3    H135131   1.110   2.570   0.994 -0.4894  0.4352  0.4754
 4524TIP3    H235132   1.024   2.445   1.002  0.4484 -0.2069  0.6869
 4525TIP3   OH235133   0.758   4.901   3.076  0.2730  0.3824  0.0624
 4525TIP3    H135134   0.765   4.950   3.158 -0.6548 -0.2630  0.5438
 4525TIP3    H235135   0.792   4.814   3.096 -1.0316 -0.1443  0.1130
 4526TIP3   OH235136   2.326   5.434   1.731 -0.0468  0.0920 -0.7610
 4526TIP3    H135137   2.291   5.362   1.784  0.1167  0.4286 -0.1957
 4526TIP3    H235138   2.421   5.428   1.743 -0.1222  2.4221  2.0051
 4527TIP3   OH235139   5.625   2.201   8.259  0.4390 -0.5519 -0.3517
 4527TIP3    H135140   5.620   2.143   8.184  0.1189 -0.0229 -0.7423
 4527TIP3    H235141   5.567   2.274   8.238  0.1099 -0.5411  0.5369
 4528TIP3   OH235142   5.715   6.028   3.557  0.7369 -0.5165 -0.4532
 4528TIP3    H135143   5.718   6.040   3.652  0.4805 -1.5164 -0.3105
 4528TIP3    H235144   5.698   6.116   3.523  1.7322  0.0212  0.3610
 4529TIP3   OH235145   1.624   1.452   1.616  0.0456 -0.2146 -0.2779
 4529TIP3    H135146   1.558   1.522   1.618  1.7345  1.5169 -1.5524
 4529TIP3    H235147   1.690   1.481   1.678  2.0120  0.7335 -2.6576
 4530TIP3   OH235148   2.351   5.229   1.458 -0.2912  0.2926  0.2500
 4530TIP3    H135149   2.434   5.245   1.413 -0.7141  1.9572 -0.0107
 4530TIP3    H235150   2.366   5.150   1.510  1.8615  1.2753  1.2205
 4531TIP3   OH235151   3.553   5.182   1.581  0.0598  0.5341 -0.1509
 4531TIP3    H135152   3.542   5.092   1.550 -0.1974 -0.5534  2.7346
 4531TIP3    H235153   3.469   5.224   1.565 -0.1796 -0.0838 -0.5299
 4532TIP3   OH235154   2.019   4.935   7.965 -0.0716  0.0017 -0.0900
 4532TIP3    H135155   2.066   4.905   7.887 -0.6403 -3.0095  0.5860
 4532TIP3    H235156   1.938   4.974   7.931  1.0894  1.7074 -1.0733
 4533TIP3   OH235157   1.787   0.986   2.138  0.1903 -0.4264  0.1510
 4533TIP3    H135158   1.759   0.979   2.047  0.5160 -0.1429  0.0251
 4533TIP3    H235159   1.778   1.079   2.159  0.9485 -0.3333  0.1257
 4534TIP3   OH235160   0.808   2.837   8.027 -0.2270 -0.2129  0.2604
 4534TIP3    H135161   0.897   2.828   7.992 -1.6033 -3.5896 -3.1440
 4534TIP3    H235162   0.767   2.903   7.971 -0.4190 -0.1999  0.4162
 4535TIP3   OH235163   2.856   1.302   1.644  0.2896  0.1668  0.7315
 4535TIP3    H135164   2.811   1.308   1.560 -0.5716 -1.3354  1.0524
 4535TIP3    H235165   2.788   1.274   1.706  0.7760  1.7614  2.0666
 4536TIP3   OH235166   1.783   5.103   7.273  0.1865 -0.3946 -0.6246
 4536TIP3    H135167   1.765   5.168   7.205  2.5201 -0.3850 -1.3226
 4536TIP3    H235168   1.711   5.114   7.336  1.0495  3.7480 -0.0499
 4537TIP3   OH235169   6.654   1.700   2.792 -0.0133  0.8513  0.5577
 4537TIP3    H135170   6.616   1.657   2.716  0.8824  1.0745 -0.0272
 4537TIP3    H235171   6.627   1.646   2.866  0.2084 -0.1158 -0.0536
 4538TIP3   OH235172   4.247   5.484   1.651 -0.1176 -0.1002 -0.1948
 4538TIP3    H135173   4.296   5.450   1.726 -0.3239 -2.2802 -0.9672
 4538TIP3    H235174   4.283   5.571   1.636  2.1268 -0.8471  0.4912
 4539TIP3   OH235175   6.124   5.043   2.353 -0.2478 -0.4596 -0.2438
 4539TIP3    H135176   6.113   5.138   2.350 -1.0834 -0.5667 -0.8295
 4539TIP3    H235177   6.087   5.017   2.437  1.4366 -0.1104  0.6549
 4540TIP3   OH235178   5.354   6.537   8.339 -0.5098 -0.4887 -0.0051
 4540TIP3    H135179   5.437   6.489   8.337 -0.3587 -0.2551  0.4444
 4540TIP3    H235180   5.352   6.585   8.257  0.3601  0.4273  0.4929
 4541TIP3   OH235181   4.006   2.559   2.892 -0.2274 -0.3915  0.0499
 4541TIP3    H135182   3.967   2.562   2.804 -0.2587 -0.8131  0.0507
 4541TIP3    H235183   4.032   2.468   2.904  0.6383 -0.1499  0.1024
 4542TIP3   OH235184   6.547   5.142   7.993  0.0321 -0.5509 -0.1819
 4542TIP3    H135185   6.504   5.180   7.916 -1.0135 -2.5945 -0.6767
 4542TIP3    H235186   6.481   5.145   8.062  0.7381  0.6480  0.4675
 4543TIP3   OH235187   3.679   5.531   2.412 -0.4952  0.0464  0.1232
 4543TIP3    H135188   3.654   5.451   2.460  0.3349 -0.4469 -0.2459
 4543TIP3    H235189   3.770   5.516   2.386 -0.6470  0.6925 -0.8216
 4544TIP3   OH235190   4.722   2.333   0.000  0.0117 -0.3072 -0.1807
 4544TIP3    H135191   4.660   2.371  -0.063  1.6862  0.6666 -1.3097
 4544TIP3    H235192   4.707   2.384   0.080  0.0836  0.6665 -0.7661
 4545TIP3   OH235193   0.442   4.696   3.106 -0.0272 -0.2658  0.4675
 4545TIP3    H135194   0.454   4.603   3.090 -0.3613 -0.5003  1.5477
 4545TIP3    H235195   0.483   4.738   3.030  1.6474 -1.2273  0.7973
 4546TIP3   OH235196   4.747   5.784   2.122 -0.0107  0.1300  0.2738
 4546TIP3    H135197   4.828   5.775   2.072 -0.9694 -0.8261 -1.1782
 4546TIP3    H235198   4.776   5.788   2.213  1.5750 -2.8132  0.0444
 4547TIP3   OH235199   1.287   2.165   0.228  0.0765 -0.1235 -0.2681
 4547TIP3    H135200   1.237   2.122   0.158  0.9140 -0.4283 -0.6945
 4547TIP3    H235201   1.358   2.209   0.182  1.3184 -1.2959  0.4831
 4548TIP3   OH235202   1.116   0.094   3.208 -0.0790  0.4227 -0.3184
 4548TIP3    H135203   1.122   0.008   3.166 -1.5140  0.1732 -0.0697
 4548TIP3    H235204   1.160   0.153   3.147 -1.8358  0.0202 -2.0854
 4549TIP3   OH235205   3.620   4.008   1.644  0.2035 -0.2212  0.0713
 4549TIP3    H135206   3.557   4.015   1.572 -0.0503 -0.2194  0.2968
 4549TIP3    H235207   3.632   3.914   1.657 -0.3572 -0.2255  0.5641
 4550TIP3   OH235208   0.671   1.047   2.072 -0.4711 -0.1363 -0.6684
 4550TIP3    H135209   0.742   1.021   2.013 -0.5205 -1.4961 -0.1689
 4550TIP3    H235210   0.669   0.978   2.139  1.0157  2.3932  2.2215
 4551TIP3   OH235211   5.486   4.753   2.557 -0.9814  0.1332  0.2839
 4551TIP3    H135212   5.447   4.808   2.489 -0.2308 -0.5861 -0.7588
 4551TIP3    H235213   5.426   4.679   2.566 -1.6100  0.7248  1.1630
 4552TIP3   OH235214   5.397   5.423   2.123 -0.9596  0.2315 -0.8533
 4552TIP3    H135215   5.423   5.452   2.036 -2.7407  1.8383 -0.9224
 4552TIP3    H235216   5.355   5.337   2.108  0.8666 -0.6375 -1.1993
 4553TIP3   OH235217   5.543   1.743   7.900 -0.2965 -0.1528  0.0608
 4553TIP3    H135218   5.459   1.746   7.946 -0.0700  0.1144  0.4607
 4553TIP3    H235219   5.527   1.790   7.818 -0.4543  0.1620  0.2709
 4554TIP3   OH235220   5.638   1.283   2.638 -0.1623 -0.2246  0.1207
 4554TIP3    H135221   5.673   1.355   2.689 -0.5788  0.0780 -0.0157
 4554TIP3    H235222   5.641   1.208   2.697  1.6513 -0.4523 -0.2135
 4555TIP3   OH235223   0.808   6.944   1.848 -0.3572  0.0033  0.2991
 4555TIP3    H135224   0.767   6.994   1.777 -1.7479  0.2657  1.2413
 4555TIP3    H235225   0.760   6.971   1.926  1.9604  0.6852  1.5718
 4556TIP3   OH235226   3.705   1.986   3.257  0.2779  0.4786 -0.5502
 4556TIP3    H135227   3.655   2.009   3.336  0.9696  2.5985 -0.6483
 4556TIP3    H235228   3.716   2.070   3.211  3.8668  0.1747 -0.5339
 4557TIP3   OH235229   2.234   2.329   2.303 -0.5445  0.7622  0.2632
 4557TIP3    H135230   2.325   2.300   2.300 -0.8935 -0.3638  0.2055
 4557TIP3    H235231   2.239   2.424   2.292  0.4619  0.4838 -2.4617
 4558TIP3   OH235232   2.740   1.335   0.705  0.0272 -0.0285 -0.1124
 4558TIP3    H135233   2.677   1.405   0.690 -1.0063 -1.0118 -0.4665
 4558TIP3    H235234   2.751   1.333   0.800  2.5691  2.7158 -0.1895
 4559TIP3   OH235235   5.508   1.176   1.292  0.0249  0.4635 -0.2483
 4559TIP3    H135236   5.593   1.145   1.260  0.4707  0.3959  0.9455
 4559TIP3    H235237   5.471   1.226   1.218  1.4143  1.0891 -0.5525
 4560TIP3   OH235238   1.099   6.945   7.638 -0.4952  0.0453 -0.4782
 4560TIP3    H135239   1.075   6.929   7.729 -2.0167 -1.4862 -1.0967
 4560TIP3    H235240   1.172   6.886   7.621 -2.6540 -2.6205 -1.2376
 4561TIP3   OH235241   5.658   2.310   0.671  0.6142 -0.4802  0.7884
 4561TIP3    H135242   5.707   2.262   0.604  2.3513  0.8044  1.0559
 4561TIP3    H235243   5.670   2.402   0.647 -1.6094 -0.0839  0.9608
 4562TIP3   OH235244   5.567   3.608   8.227 -0.0916  0.3769  0.2678
 4562TIP3    H135245   5.598   3.553   8.155  0.3416  1.0693 -0.0770
 4562TIP3    H235246   5.626   3.586   8.300  0.7373  1.1116 -0.1606
 4563TIP3   OH235247   2.402   3.409   0.944 -0.1543 -0.2056  0.0837
 4563TIP3    H135248   2.412   3.501   0.920 -0.7944 -0.0775  0.2887
 4563TIP3    H235249   2.468   3.395   1.011  1.2956 -0.4328 -1.3382
 4564TIP3   OH235250   1.325   6.169   7.995  0.0685 -0.2596  0.1122
 4564TIP3    H135251   1.382   6.229   8.043  0.6313  0.1616 -1.0466
 4564TIP3    H235252   1.253   6.150   8.055 -1.7158  3.8365 -0.3792
 4565TIP3   OH235253   5.906   3.976   0.604 -0.0592  0.5559 -0.1242
 4565TIP3    H135254   5.828   3.928   0.579  0.5971  0.0049 -1.1737
 4565TIP3    H235255   5.949   3.997   0.521  0.3710  1.7702  0.3865
 4566TIP3   OH235256   0.125   6.670   6.885 -0.1297 -0.4271 -0.2190
 4566TIP3    H135257   0.066   6.706   6.951 -0.8102 -0.0118 -1.0363
 4566TIP3    H235258   0.107   6.576   6.886  0.5267 -0.5636  0.8119
 4567TIP3   OH235259   6.279   5.893   2.299 -0.2754 -0.3363  0.4447
 4567TIP3    H135260   6.317   5.908   2.213 -2.5578 -1.5292 -0.8875
 4567TIP3    H235261   6.329   5.950   2.358  0.2358  1.8818 -1.9282
 4568TIP3   OH235262   6.677   1.522   7.712  0.3573 -0.3848 -0.4873
 4568TIP3    H135263   6.588   1.487   7.709  0.6922 -1.3129 -0.0828
 4568TIP3    H235264   6.710   1.495   7.798  1.1281 -0.2867 -0.7458
 4569TIP3   OH235265   4.962   2.586   0.296  0.2696  0.5827  0.6337
 4569TIP3    H135266   4.994   2.496   0.303  1.1607  0.8738  0.3418
 4569TIP3    H235267   4.940   2.611   0.386  0.5063  0.2518  0.7843
 4570TIP3   OH235268   5.467   1.319   1.521 -0.5676  0.0301  0.4389
 4570TIP3    H135269   5.467   1.263   1.443  1.6712 -0.8375  0.9966
 4570TIP3    H235270   5.487   1.407   1.487  0.0343 -0.2740 -0.0093
 4571TIP3   OH235271   5.063   5.208   7.247 -0.1265 -0.0813 -0.0652
 4571TIP3    H135272   5.138   5.250   7.205 -0.3371 -1.2780 -1.7539
 4571TIP3    H235273   5.031   5.272   7.310  0.6158  1.5873 -1.3151
 4572TIP3   OH235274   5.318   2.594   1.507  0.2105 -0.3536 -0.3521
 4572TIP3    H135275   5.236   2.625   1.544 -0.5323 -0.7124 -1.6498
 4572TIP3    H235276   5.313   2.617   1.414  1.9125  0.3053 -0.3147
 4573TIP3   OH235277   0.468   4.222   0.966 -0.2265  1.4738  0.1757
 4573TIP3    H135278   0.405   4.290   0.941 -1.1587  0.7599  0.5152
 4573TIP3    H235279   0.545   4.240   0.912 -1.5323  1.0089 -1.9510
 4574TIP3   OH235280   6.671   3.866   2.470  0.2830 -0.8459 -0.3249
 4574TIP3    H135281   6.733   3.931   2.503 -0.2684 -0.5408  0.1280
 4574TIP3    H235282   6.698   3.784   2.512  0.1841 -0.6505  0.1259
 4575TIP3   OH235283   4.676   0.729   1.657  0.0548 -0.1856  0.3518
 4575TIP3    H135284   4.649   0.755   1.570  0.2381 -1.3148 -0.0675
 4575TIP3    H235285   4.771   0.735   1.656  0.0121  0.7222  0.7956
 4576TIP3   OH235286   2.343   6.955   3.085  0.1334  0.4217 -0.0297
 4576TIP3    H135287   2.425   6.935   3.130 -0.0691 -2.8166 -0.8574
 4576TIP3    H235288   2.284   6.986   3.153  0.8884 -0.9833  1.3226
 4577TIP3   OH235289   5.761   1.288   8.417 -0.1066  0.8001 -0.6606
 4577TIP3    H135290   5.777   1.374   8.456 -1.2647  1.0951 -0.7835
 4577TIP3    H235291   5.701   1.306   8.344 -2.8437 -0.3973  1.1160
 4578TIP3   OH235292   0.401   3.608   2.622  0.3893 -0.7857  0.2138
 4578TIP3    H135293   0.339   3.645   2.684 -0.2488  0.8736 -1.3352
 4578TIP3    H235294   0.485   3.649   2.645  0.7430 -2.2158  1.6251
 4579TIP3   OH235295   6.651   3.284   6.980 -0.1615  0.4990 -0.0858
 4579TIP3    H135296   6.726   3.309   7.035  0.2573  0.5082 -0.6588
 4579TIP3    H235297   6.579   3.336   7.015 -0.0251  0.1220  0.8004
 4580TIP3   OH235298   5.080   2.031   0.308  0.4112 -0.1384  0.3407
 4580TIP3    H135299   5.003   2.031   0.250  0.0409  1.3892  0.7877
 4580TIP3    H235300   5.153   2.007   0.250 -0.0987  0.3495 -0.5335
 4581TIP3   OH235301   0.344   2.264   2.737 -0.0861 -0.1369 -0.4365
 4581TIP3    H135302   0.412   2.211   2.695  0.0880 -1.3049  1.2437
 4581TIP3    H235303   0.362   2.257   2.830 -2.8243 -0.9574  0.1062
 4582TIP3   OH235304   0.104   1.397   0.066  0.4880 -0.0285 -0.0787
 4582TIP3    H135305   0.017   1.363   0.088  0.7538 -0.5607  0.1636
 4582TIP3    H235306   0.154   1.320   0.040  0.1684  0.5516 -2.7634
 4583TIP3   OH235307   2.298   0.031   2.213 -0.3165 -0.1389  0.2341
 4583TIP3    H135308   2.238   0.106   2.209 -0.8674 -0.6230 -0.9884
 4583TIP3    H235309   2.340   0.040   2.298  0.7184  2.3873 -0.4404
 4584TIP3   OH235310   5.032   4.892   3.295 -1.0819 -0.2447  0.2806
 4584TIP3    H135311   5.076   4.813   3.266 -3.7006 -1.1319 -1.5867
 4584TIP3    H235312   5.075   4.963   3.247  0.3693 -0.6269  0.9469
 4585TIP3   OH235313   1.527   2.494   2.800  0.5912  0.0156  0.3501
 4585TIP3    H135314   1.448   2.454   2.762  1.3334 -0.9940 -0.2014
 4585TIP3    H235315   1.550   2.437   2.873  2.2466 -1.2499 -1.0645
 4586TIP3   OH235316   0.031   3.932   1.992  0.1644 -0.3108 -0.6378
 4586TIP3    H135317   0.107   3.884   1.959 -0.9692 -1.2430 -2.0228
 4586TIP3    H235318  -0.023   3.865   2.034  0.5836  0.5242  1.3479
 4587TIP3   OH235319   4.393   0.118   2.266  0.0595 -0.2510 -0.1774
 4587TIP3    H135320   4.422   0.164   2.345 -0.3751  0.4500 -0.4123
 4587TIP3    H235321   4.439   0.163   2.195 -0.4947 -0.0555 -0.4238
 4588TIP3   OH235322   5.821   6.813   1.882  0.2982  0.3197  0.4736
 4588TIP3    H135323   5.812   6.862   1.800  0.8560 -0.2604  0.0601
 4588TIP3    H235324   5.860   6.729   1.856  1.6555  0.6042  1.4844
 4589TIP3   OH235325   6.300   1.247   1.763  0.2838  0.2164 -0.1927
 4589TIP3    H135326   6.341   1.161   1.762 -0.8047 -0.3225  0.1387
 4589TIP3    H235327   6.333   1.288   1.844  0.8872  0.1685 -0.4077
 4590TIP3   OH235328   0.752   4.696   2.416 -1.0711  0.3782  0.2859
 4590TIP3    H135329   0.748   4.715   2.323 -0.7173  0.4212  0.2794
 4590TIP3    H235330   0.779   4.778   2.457 -0.7716  0.2370  0.3791
 4591TIP3   OH235331   6.193   6.231   2.867  0.1814 -0.2410  0.6998
 4591TIP3    H135332   6.142   6.302   2.829  1.7593  0.7500  0.3284
 4591TIP3    H235333   6.152   6.215   2.952 -0.5098  0.7666  0.5788
 4592TIP3   OH235334   4.764   2.871   2.080 -0.2499  0.1423 -0.0038
 4592TIP3    H135335   4.701   2.847   2.147  0.3649  1.4290  1.0950
 4592TIP3    H235336   4.776   2.965   2.091  1.3969  0.0372 -0.5680
 4593TIP3   OH235337   2.383   1.771   7.812 -0.3891  0.3171 -0.3833
 4593TIP3    H135338   2.382   1.862   7.782 -0.3629  0.2567 -0.5717
 4593TIP3    H235339   2.473   1.758   7.843  0.3368 -0.3342 -2.5525
 4594TIP3   OH235340   1.564   4.958   2.626 -0.2041  0.0639 -0.2325
 4594TIP3    H135341   1.621   5.036   2.627  1.2011 -0.9014 -0.7702
 4594TIP3    H235342   1.487   4.985   2.576  0.0801  1.2198 -0.0776
 4595TIP3   OH235343   0.835   0.276   0.565 -0.0044 -0.2067  0.2908
 4595TIP3    H135344   0.847   0.352   0.622 -0.7690  0.6878 -0.7227
 4595TIP3    H235345   0.884   0.297   0.485 -0.7793 -0.4862 -0.2670
 4596TIP3   OH235346   5.208   6.600   0.142 -0.2961  0.4084  0.6233
 4596TIP3    H135347   5.121   6.629   0.116  0.5858  2.5597 -0.1369
 4596TIP3    H235348   5.232   6.535   0.077 -0.6689  1.0706 -0.1927
 4597TIP3   OH235349   2.205   1.906   2.064 -0.2332  0.2036  0.5790
 4597TIP3    H135350   2.218   1.887   2.157 -0.4021 -0.1361  0.5343
 4597TIP3    H235351   2.291   1.889   2.025 -1.1670 -4.1978 -0.0789
 4598TIP3   OH235352   0.399   1.673   8.428  0.1918  0.1646  0.1005
 4598TIP3    H135353   0.454   1.740   8.469  1.3869 -0.5066 -0.3562
 4598TIP3    H235354   0.407   1.597   8.485  1.9225 -0.7999 -1.2996
 4599TIP3   OH235355   4.808   0.603   2.166  0.0481  0.7729 -0.3960
 4599TIP3    H135356   4.893   0.574   2.135 -0.0702 -0.9036  0.7310
 4599TIP3    H235357   4.826   0.686   2.211  0.8808  0.9988 -1.1238
 4600TIP3   OH235358   5.403   3.327   7.328 -0.1630 -0.2173 -0.3079
 4600TIP3    H135359   5.431   3.388   7.259 -2.7116  2.3746  0.7325
 4600TIP3    H235360   5.472   3.334   7.395  0.6057 -0.0649 -1.1028
 4601TIP3   OH235361   4.412   1.877   0.079 -0.2770 -0.0536 -0.1208
 4601TIP3    H135362   4.390   1.924  -0.001  0.8985 -0.5457 -0.7557
 4601TIP3    H235363   4.470   1.806   0.051 -0.2683 -0.5605  1.0968
 4602TIP3   OH235364   4.782   3.156   2.138  0.1174  0.0187  0.4663
 4602TIP3    H135365   4.777   3.247   2.109  2.5307 -0.1958 -0.8920
 4602TIP3    H235366   4.859   3.153   2.195 -0.0332 -1.1457  0.6319
 4603TIP3   OH235367   0.950   5.718   1.922 -0.3024  0.1872 -0.1046
 4603TIP3    H135368   1.003   5.641   1.944 -0.8864  0.2585  1.7192
 4603TIP3    H235369   1.013   5.790   1.920 -0.2862  0.3621  2.5595
 4604TIP3   OH235370   5.127   1.977   7.158 -0.0747  0.2653 -0.0840
 4604TIP3    H135371   5.086   1.893   7.141 -1.2846  0.7015  0.5175
 4604TIP3    H235372   5.074   2.040   7.109  0.1778  0.7949  0.3088
 4605TIP3   OH235373   0.643   5.961   7.478 -0.5426 -0.2009 -0.5222
 4605TIP3    H135374   0.636   5.890   7.414  0.6413 -0.7613 -0.0551
 4605TIP3    H235375   0.736   5.981   7.483 -0.4038 -1.0411  1.9037
 4606TIP3   OH235376   4.033   3.421   0.503 -0.0042  0.0062  0.0979
 4606TIP3    H135377   3.988   3.463   0.431  0.5510 -0.9358 -0.8294
 4606TIP3    H235378   4.121   3.402   0.469  0.6237  0.5036  1.3739
 4607TIP3   OH235379   2.212   3.542   1.798 -0.0908 -0.6821  0.2658
 4607TIP3    H135380   2.290   3.580   1.839 -0.8809 -0.4967  1.6793
 4607TIP3    H235381   2.144   3.609   1.808 -1.3762 -2.1477  2.3454
 4608TIP3   OH235382   1.505   0.821   2.817 -0.5084  0.0210 -0.2215
 4608TIP3    H135383   1.420   0.786   2.792 -0.9516  0.7989  0.1750
 4608TIP3    H235384   1.485   0.898   2.869  0.4434  0.6938 -0.8225
 4609TIP3   OH235385   3.275   1.363   2.065  0.0760  0.2993  0.2032
 4609TIP3    H135386   3.281   1.346   2.159  3.5919 -0.6972 -0.0553
 4609TIP3    H235387   3.356   1.327   2.029 -0.5080  1.8783 -3.0410
 4610TIP3   OH235388   2.540   4.852   3.270  0.0548 -0.1929 -0.1315
 4610TIP3    H135389   2.509   4.767   3.239 -0.7948  0.6652 -1.7601
 4610TIP3    H235390   2.635   4.844   3.274 -0.0991 -1.8280  1.7078
 4611TIP3   OH235391   4.503   0.964   0.657  0.4172  0.2885 -0.1819
 4611TIP3    H135392   4.532   1.022   0.585  0.1639  0.8038  0.1251
 4611TIP3    H235393   4.578   0.907   0.673  0.9548  1.0261  0.0064
 4612TIP3   OH235394   1.019   3.479   0.114  0.2505  0.1841  0.1135
 4612TIP3    H135395   1.080   3.488   0.187  0.4838  0.6904 -0.1406
 4612TIP3    H235396   1.073   3.450   0.040  0.3888  1.6252 -0.3836
 4613TIP3   OH235397   3.916   4.200   7.214 -0.0211 -0.5291  0.6146
 4613TIP3    H135398   3.958   4.176   7.131 -1.2888 -2.6554  0.5165
 4613TIP3    H235399   3.973   4.268   7.250  1.9863 -1.3461 -0.7844
 4614TIP3   OH235400   1.974   0.875   1.713 -0.5549 -0.2720 -0.0330
 4614TIP3    H135401   2.067   0.861   1.693 -0.1396  0.0881  1.4805
 4614TIP3    H235402   1.927   0.827   1.645  0.7013  0.8035 -1.7370
 4615TIP3   OH235403   4.681   0.749   0.523  1.0141  0.0343 -0.4547
 4615TIP3    H135404   4.746   0.795   0.576  0.6301  0.4038 -0.3030
 4615TIP3    H235405   4.648   0.814   0.462 -0.3379  0.2820  0.4908
 4616TIP3   OH235406   2.295   4.617   8.233  0.1683  0.4050  0.4755
 4616TIP3    H135407   2.252   4.631   8.148  3.0624 -0.8201 -1.3111
 4616TIP3    H235408   2.267   4.530   8.260  0.2472  0.2715  0.1304
 4617TIP3   OH235409   0.121   2.473   2.810 -0.5509  0.1290 -0.2024
 4617TIP3    H135410   0.143   2.492   2.901  1.5871  0.0201 -0.6533
 4617TIP3    H235411   0.161   2.388   2.793 -1.5982 -0.2161 -1.0403
 4618TIP3   OH235412   4.759   6.381   7.495 -0.2892 -0.2441 -0.4478
 4618TIP3    H135413   4.716   6.464   7.512 -0.4614 -0.1692 -1.2254
 4618TIP3    H235414   4.849   6.405   7.472 -0.3278 -0.2728 -0.6323
 4619TIP3   OH235415   0.229   6.876   1.742  0.3707  0.2938  0.1719
 4619TIP3    H135416   0.157   6.862   1.804  0.0314  0.6916 -0.1290
 4619TIP3    H235417   0.254   6.788   1.715  0.7791  0.0910  1.1561
 4620TIP3   OH235418   3.615   4.707   8.048  0.2649  0.1996 -0.0826
 4620TIP3    H135419   3.689   4.651   8.069  0.5865  0.9770  0.9484
 4620TIP3    H235420   3.619   4.777   8.113 -0.8426  0.7468 -0.5788
 4621TIP3   OH235421   6.912   2.480   1.729 -0.1250  0.1802 -0.0864
 4621TIP3    H135422   6.909   2.388   1.702  0.5202  0.3156 -0.6476
 4621TIP3    H235423   6.825   2.497   1.764 -0.1130 -0.7703  0.4524
 4622TIP3   OH235424   3.021   5.775   7.569  0.3248  0.1121 -0.2599
 4622TIP3    H135425   3.036   5.680   7.565  0.7530  0.2084 -1.2735
 4622TIP3    H235426   2.938   5.784   7.615  1.3223 -0.6390  1.8382
 4623TIP3   OH235427   5.904   6.142   0.361  0.0719  0.0447 -0.2235
 4623TIP3    H135428   5.932   6.170   0.274 -1.6220  0.5716 -0.6290
 4623TIP3    H235429   5.836   6.076   0.345  0.9412 -1.1417  0.7274
 4624TIP3   OH235430   4.132   5.356   1.135 -0.0899 -0.0371  0.3089
 4624TIP3    H135431   4.190   5.326   1.205 -0.7050  1.2880  1.4312
 4624TIP3    H235432   4.059   5.294   1.136 -1.9631  1.9220  3.4206
 4625TIP3   OH235433   6.825   6.532   3.305  0.3015  0.1042  0.7507
 4625TIP3    H135434   6.820   6.458   3.365  2.2292  1.0281  2.1399
 4625TIP3    H235435   6.869   6.601   3.354  1.8973  0.9585 -1.6556
 4626TIP3   OH235436   3.630   6.699   0.413 -0.4896  0.2025  0.2708
 4626TIP3    H135437   3.563   6.766   0.424 -1.6141 -0.8375 -0.0440
 4626TIP3    H235438   3.693   6.738   0.352 -0.7807  1.2032  0.5965
 4627TIP3   OH235439   0.714   5.611   8.052 -0.1262 -0.6588 -0.0274
 4627TIP3    H135440   0.703   5.705   8.066 -0.3882 -0.6635 -0.1965
 4627TIP3    H235441   0.780   5.585   8.116  1.2516 -0.0322 -1.1318
 4628TIP3   OH235442   3.170   1.415   7.313  0.2261 -0.2180 -0.1479
 4628TIP3    H135443   3.205   1.326   7.309  0.8855  0.0802 -2.1901
 4628TIP3    H235444   3.234   1.464   7.366 -0.2995 -0.9873  1.2465
 4629TIP3   OH235445   4.122   0.137   1.088  0.6685  0.0256  0.3951
 4629TIP3    H135446   4.042   0.122   1.037  1.5118 -0.1313 -0.9230
 4629TIP3    H235447   4.144   0.229   1.070 -0.6197  0.9009  2.8529
 4630TIP3   OH235448   6.987   3.094   8.410  0.4354 -0.1322 -0.4046
 4630TIP3    H135449   6.934   3.040   8.351 -0.2256  0.2312 -0.1547
 4630TIP3    H235450   6.955   3.183   8.395  1.3060  0.1537 -0.5909
 4631TIP3   OH235451   6.580   3.281   2.515 -0.2803 -0.4201  0.5190
 4631TIP3    H135452   6.656   3.323   2.556 -1.5044 -1.0161  3.7352
 4631TIP3    H235453   6.516   3.352   2.507 -0.0556 -0.3109 -0.4733
 4632TIP3   OH235454   2.784   2.965   8.340  0.7111 -0.0290  0.6035
 4632TIP3    H135455   2.717   2.972   8.272  0.2293  1.3708  1.1859
 4632TIP3    H235456   2.867   2.966   8.292  0.3536 -0.2922 -0.0355
 4633TIP3   OH235457   0.517   5.707   1.222  0.1252  0.0259  0.0871
 4633TIP3    H135458   0.471   5.791   1.226  1.3022  0.6904  0.1022
 4633TIP3    H235459   0.593   5.725   1.166  1.1211 -0.6643  1.1808
 4634TIP3   OH235460   4.861   5.650   1.401 -0.3115  0.2525 -0.5569
 4634TIP3    H135461   4.836   5.622   1.313  2.1778  1.1633 -1.6579
 4634TIP3    H235462   4.916   5.580   1.434  0.7378  0.9695 -0.7406
 4635TIP3   OH235463   1.207   5.140   1.828 -0.6762  0.2333 -0.0857
 4635TIP3    H135464   1.152   5.187   1.890  0.3163  1.8111 -0.3458
 4635TIP3    H235465   1.194   5.048   1.849 -1.6134  0.6692  1.3726
 4636TIP3   OH235466   4.868   3.276   0.995  0.0961  0.2515  0.2632
 4636TIP3    H135467   4.905   3.243   0.912  1.2049  0.2769  0.7306
 4636TIP3    H235468   4.791   3.221   1.010 -0.2156  0.3433 -0.8527
 4637TIP3   OH235469   4.692   4.552   2.141 -0.0423 -0.0218  0.5300
 4637TIP3    H135470   4.642   4.567   2.061  1.3278  0.3815 -0.2853
 4637TIP3    H235471   4.640   4.488   2.190 -1.0016 -0.1331 -0.5900
 4638TIP3   OH235472   5.096   3.250   8.048  0.3362  0.8224  0.5088
 4638TIP3    H135473   5.148   3.171   8.031 -0.9488 -0.3154  1.5869
 4638TIP3    H235474   5.009   3.229   8.015 -0.9712  0.3615  3.8332
 4639TIP3   OH235475   6.514   0.793   1.931  0.0948 -0.1552 -0.0797
 4639TIP3    H135476   6.530   0.846   2.008  1.2320 -0.8229  0.1558
 4639TIP3    H235477   6.446   0.840   1.883  1.1165  1.5478  0.0899
 4640TIP3   OH235478   4.992   0.227   7.190 -0.1789  0.2033 -0.3078
 4640TIP3    H135479   5.076   0.263   7.220 -0.2249  0.1099 -0.0664
 4640TIP3    H235480   5.004   0.133   7.193 -0.5603  0.1726  0.5063
 4641TIP3   OH235481   0.721   3.041   7.836 -0.2900  0.4890 -0.8568
 4641TIP3    H135482   0.634   3.009   7.809 -1.7977  4.0169 -0.7797
 4641TIP3    H235483   0.731   3.124   7.789  2.1088  1.2317  0.7924
 4642TIP3   OH235484   4.958   2.409   8.365 -0.1051  0.1329 -0.4673
 4642TIP3    H135485   5.007   2.332   8.338 -0.2423 -0.4959  0.9679
 4642TIP3    H235486   4.879   2.373   8.407 -2.1313  1.0863 -3.1346
 4643TIP3   OH235487   4.413   5.341   3.388 -0.6942 -0.0023  0.0921
 4643TIP3    H135488   4.446   5.252   3.376 -0.4691 -0.0574  1.0193
 4643TIP3    H235489   4.335   5.330   3.443  0.4781  0.5040  1.9783
 4644TIP3   OH235490   0.186   2.926   0.015 -0.3126  0.1484 -0.5150
 4644TIP3    H135491   0.138   2.987  -0.040  0.3302  1.1736  0.0293
 4644TIP3    H235492   0.119   2.881   0.067 -0.6960  1.7642  0.4403
 4645TIP3   OH235493   0.336   3.074   1.511 -0.1278  0.3653  0.0273
 4645TIP3    H135494   0.307   2.989   1.479  1.0880 -0.2593  0.5407
 4645TIP3    H235495   0.419   3.057   1.554 -0.7792  1.4681  1.8567
 4646TIP3   OH235496   6.168   4.016   0.450 -0.5471 -0.5801 -0.5740
 4646TIP3    H135497   6.206   3.930   0.466  0.2392 -0.2539 -0.6663
 4646TIP3    H235498   6.155   4.019   0.355  0.2446 -0.2683 -0.6803
 4647TIP3   OH235499   0.800   0.157   7.814 -0.1970  0.3080  0.0254
 4647TIP3    H135500   0.706   0.175   7.818 -0.2020  0.1448  0.8635
 4647TIP3    H235501   0.841   0.240   7.840 -0.2289 -0.8183  4.4161
 4648TIP3   OH235502   4.240   6.977   2.607  0.3269  0.2207 -0.4140
 4648TIP3    H135503   4.248   6.963   2.702 -1.9884  0.6600 -0.1018
 4648TIP3    H235504   4.186   7.055   2.599 -0.9551 -0.7709 -2.0785
 4649TIP3   OH235505   0.660   4.943   8.133  0.0102  0.2844  0.5936
 4649TIP3    H135506   0.671   4.848   8.138  0.5325  0.2993 -0.0892
 4649TIP3    H235507   0.683   4.964   8.043 -0.3730  1.0288  0.6666
 4650TIP3   OH235508   5.248   4.741   8.038  0.0875  0.1507 -0.6308
 4650TIP3    H135509   5.215   4.652   8.045  3.3219 -1.0614  1.4360
 4650TIP3    H235510   5.253   4.773   8.128  1.1310  1.5422 -1.1337
 4651TIP3   OH235511   1.847   0.303   1.266 -0.4599 -0.0397  0.2740
 4651TIP3    H135512   1.786   0.242   1.224  0.5232 -0.1402 -1.0748
 4651TIP3    H235513   1.906   0.248   1.317  0.9538 -0.3704 -1.6118
 4652TIP3   OH235514   6.941   0.791   0.757 -0.4181  0.0079  0.7799
 4652TIP3    H135515   6.873   0.754   0.814 -0.3996 -0.7541  0.3193
 4652TIP3    H235516   6.918   0.884   0.749 -1.2609 -0.1932  0.8261
 4653TIP3   OH235517   5.892   3.067   8.197 -0.2717 -0.6455 -0.8048
 4653TIP3    H135518   5.897   3.106   8.284  1.0252 -0.6952 -0.8414
 4653TIP3    H235519   5.820   3.114   8.154 -1.3621 -1.0621  0.4799
 4654TIP3   OH235520   0.246   3.862   2.454 -0.4016 -0.0259 -0.4594
 4654TIP3    H135521   0.276   3.792   2.396 -3.6144 -0.8862 -1.3128
 4654TIP3    H235522   0.237   3.938   2.398 -1.3841 -0.2493 -0.6199
 4655TIP3   OH235523   4.857   0.336   2.304  0.1818 -0.5811 -0.3875
 4655TIP3    H135524   4.845   0.391   2.381  1.7186 -0.8188  0.0660
 4655TIP3    H235525   4.802   0.376   2.237  1.2038  1.5273 -0.0603
 4656TIP3   OH235526   2.047   2.261   7.934  0.6563 -0.4543 -0.3664
 4656TIP3    H135527   2.136   2.248   7.901  0.1548 -0.4511 -1.7516
 4656TIP3    H235528   2.004   2.314   7.868 -0.6184 -1.1128 -0.0978
 4657TIP3   OH235529   2.122   2.902   0.308  0.4373 -0.0719 -0.0330
 4657TIP3    H135530   2.205   2.895   0.261 -0.1814 -1.1388 -1.0173
 4657TIP3    H235531   2.143   2.873   0.397  1.0458 -0.7254 -0.3808
 4658TIP3   OH235532   4.738   6.707   7.747  0.0101  0.6203  0.4286
 4658TIP3    H135533   4.665   6.657   7.709  0.9836 -1.9126  1.6474
 4658TIP3    H235534   4.804   6.707   7.678  0.5533 -1.1554  0.8904
 4659TIP3   OH235535   1.943   2.832   1.823 -0.3684  0.4115 -0.5838
 4659TIP3    H135536   1.910   2.913   1.863  2.6250  1.3436  0.2803
 4659TIP3    H235537   2.038   2.843   1.823  0.4699 -4.2377  2.0971
 4660TIP3   OH235538   1.072   2.173   0.383 -0.2666 -0.1733 -0.2474
 4660TIP3    H135539   1.166   2.181   0.370 -0.3145 -0.1129 -0.5563
 4660TIP3    H235540   1.036   2.157   0.296 -0.5350 -0.2780 -0.1222
 4661TIP3   OH235541   0.687   6.638   2.428 -0.7142 -0.2755  0.3953
 4661TIP3    H135542   0.762   6.579   2.428 -0.8928 -0.5053  0.5716
 4661TIP3    H235543   0.699   6.692   2.507 -0.0000  0.6414 -0.3134
 4662TIP3   OH235544   2.250   6.910   1.661 -0.2737  0.2371 -0.0388
 4662TIP3    H135545   2.216   6.894   1.573 -0.4094  2.6332 -0.5100
 4662TIP3    H235546   2.258   7.006   1.666  3.1477  0.0357  1.2695
 4663TIP3   OH235547   1.550   0.967   8.292  0.4231 -0.0017  0.1390
 4663TIP3    H135548   1.626   0.938   8.344  0.5994  1.3726  0.7101
 4663TIP3    H235549   1.538   1.059   8.318 -1.4249 -0.1821  0.0235
 4664TIP3   OH235550   5.050   3.044   7.226  0.0259  0.7898  0.5282
 4664TIP3    H135551   4.960   3.062   7.255 -0.5799 -1.5436  0.3597
 4664TIP3    H235552   5.056   3.084   7.140 -1.8527 -1.2083 -0.6516
 4665TIP3   OH235553   0.080   2.926   3.364  0.3720 -0.0484 -0.0742
 4665TIP3    H135554   0.064   2.997   3.426 -0.1982  0.3378 -0.6415
 4665TIP3    H235555   0.119   2.856   3.416 -0.4593  0.1191  0.7961
 4666TIP3   OH235556   5.642   3.329   2.161  0.3984 -0.0626 -0.2086
 4666TIP3    H135557   5.724   3.279   2.163  0.5695 -0.0125 -2.6955
 4666TIP3    H235558   5.589   3.284   2.095 -0.7305  1.1760 -0.1741
 4667TIP3   OH235559   0.592   0.060   2.016  0.9875 -0.3703  0.9104
 4667TIP3    H135560   0.518   0.009   2.050 -0.7438  1.4617  0.0940
 4667TIP3    H235561   0.625   0.107   2.092  1.0808 -0.9109  1.2092
 4668TIP3   OH235562   0.645   1.575   1.445  0.2626 -0.0511  0.0302
 4668TIP3    H135563   0.588   1.504   1.477  0.3166  0.9851  2.6997
 4668TIP3    H235564   0.700   1.533   1.379 -1.8998 -1.6716 -0.8824
 4669TIP3   OH235565   2.021   2.468   0.562  0.1840 -0.0811  0.3773
 4669TIP3    H135566   2.102   2.451   0.609  1.0533 -0.0843 -1.0632
 4669TIP3    H235567   2.046   2.467   0.470 -1.1946  1.2730 -0.0596
 4670TIP3   OH235568   1.508   5.669   0.944  0.3751  0.2480 -0.3963
 4670TIP3    H135569   1.492   5.575   0.945 -0.8511  0.4293  1.8893
 4670TIP3    H235570   1.578   5.683   1.007  1.3063  0.8094 -1.4999
 4671TIP3   OH235571   1.388   2.244   2.741  0.3719  0.4683 -0.5900
 4671TIP3    H135572   1.458   2.195   2.782 -0.7781 -0.8734 -0.1639
 4671TIP3    H235573   1.341   2.180   2.688 -0.8054  1.2334 -0.5097
 4672TIP3   OH235574   6.554   0.133   0.743  0.3393  0.3588 -0.2535
 4672TIP3    H135575   6.615   0.059   0.741 -1.4060 -1.1735 -0.1214
 4672TIP3    H235576   6.546   0.160   0.651  1.2316  0.5942 -0.2631
 4673TIP3   OH235577   4.140   4.846   0.238  0.0376 -0.1907  0.1148
 4673TIP3    H135578   4.068   4.908   0.244  0.6856  0.5936 -0.1124
 4673TIP3    H235579   4.193   4.861   0.317 -0.5730 -1.4582  0.8016
 4674TIP3   OH235580   6.332   1.927   8.234  0.1302  0.5746  0.0877
 4674TIP3    H135581   6.399   1.984   8.196  1.3975 -0.0389  1.3107
 4674TIP3    H235582   6.367   1.903   8.320  0.1653 -2.9003 -0.7776
 4675TIP3   OH235583   4.383   2.537   0.840 -0.1135  0.0851 -0.9931
 4675TIP3    H135584   4.372   2.442   0.844  2.4114 -0.3766 -2.6824
 4675TIP3    H235585   4.377   2.558   0.746  1.9577  1.1619 -0.9305
 4676TIP3   OH235586   5.394   5.223   0.266 -0.1956  0.1001  0.2649
 4676TIP3    H135587   5.469   5.241   0.323 -0.3661  1.3734  0.1172
 4676TIP3    H235588   5.364   5.309   0.238  0.1604 -0.5072 -2.1455
 4677TIP3   OH235589   1.695   2.673   1.925 -0.2109  0.2834  0.1565
 4677TIP3    H135590   1.766   2.734   1.908  0.2161 -0.3858 -0.5620
 4677TIP3    H235591   1.711   2.640   2.013  1.9457 -1.8484 -0.9043
 4678TIP3   OH235592   6.291   0.804   0.437 -0.3256  0.0986 -0.0475
 4678TIP3    H135593   6.321   0.714   0.427 -0.7789 -0.0479 -0.1474
 4678TIP3    H235594   6.220   0.812   0.373  1.1563  1.2124 -1.6461
 4679TIP3   OH235595   6.328   6.476   0.135  0.7222  0.7631  0.0122
 4679TIP3    H135596   6.285   6.545   0.085 -0.5623 -1.1025 -1.6028
 4679TIP3    H235597   6.304   6.494   0.226 -0.3217  1.9155 -0.4680
 4680TIP3   OH235598   5.027   3.464   7.679  0.5995 -0.1798 -0.1708
 4680TIP3    H135599   4.985   3.385   7.712  0.4535 -0.7244 -1.5679
 4680TIP3    H235600   4.978   3.537   7.718 -0.3868 -0.7947 -0.2432
 4681TIP3   OH235601   6.523   5.768   8.295  0.4054  0.0809  0.5618
 4681TIP3    H135602   6.496   5.684   8.332 -0.4875 -0.9465 -2.1333
 4681TIP3    H235603   6.606   5.788   8.339  0.3917 -1.9501  1.6545
 4682TIP3   OH235604   3.291   0.946   2.007 -0.1138 -0.0077  0.1887
 4682TIP3    H135605   3.306   0.851   2.004  1.0285 -0.0225  2.8642
 4682TIP3    H235606   3.232   0.958   2.082  0.5606  1.4339  0.5217
 4683TIP3   OH235607   6.954   6.746   1.761  0.5710  0.1618 -0.3679
 4683TIP3    H135608   6.953   6.838   1.735  1.3181  0.8001  1.6702
 4683TIP3    H235609   6.861   6.723   1.771  0.3780  0.6675 -0.9294
 4684TIP3   OH235610   2.028   0.522   2.979  0.6556  0.0471 -0.4339
 4684TIP3    H135611   2.057   0.508   3.069 -1.1010 -1.1695 -0.0135
 4684TIP3    H235612   1.989   0.610   2.980  1.3473  0.3596 -0.2219
 4685TIP3   OH235613   6.302   0.605   7.420 -0.1614  0.2727  0.2258
 4685TIP3    H135614   6.310   0.555   7.501 -0.3365 -0.2534 -0.0790
 4685TIP3    H235615   6.328   0.694   7.445  0.2396  0.0166  0.7478
 4686TIP3   OH235616   3.039   1.861   2.224 -0.1136  0.1630  0.4437
 4686TIP3    H135617   3.072   1.947   2.247  1.6277 -0.3482  0.0052
 4686TIP3    H235618   3.073   1.845   2.136 -1.5095 -0.4435 -0.0155
 4687TIP3   OH235619   5.276   4.513   1.021  0.2583 -0.1127 -0.1136
 4687TIP3    H135620   5.334   4.557   0.958 -0.0908  1.3963  0.5746
 4687TIP3    H235621   5.336   4.479   1.087  0.5428 -0.8074 -0.7103
 4688TIP3   OH235622   6.692   0.761   1.654  0.0736 -0.1979  0.6977
 4688TIP3    H135623   6.650   0.745   1.570  0.0315  0.2242  0.6355
 4688TIP3    H235624   6.620   0.783   1.713  0.1952  0.4294  0.6144
 4689TIP3   OH235625   5.917   6.357   1.640 -0.2065 -0.0338  0.3707
 4689TIP3    H135626   5.952   6.321   1.559 -1.4368 -0.4140 -0.0204
 4689TIP3    H235627   5.958   6.307   1.710 -1.1550 -1.5715 -0.1285
 4690TIP3   OH235628   2.253   5.727   2.881 -0.2349 -0.2650  0.4052
 4690TIP3    H135629   2.282   5.673   2.955  0.5523  0.4602  0.6418
 4690TIP3    H235630   2.163   5.750   2.903 -0.1347 -0.3720  0.9539
 4691TIP3   OH235631   6.052   5.563   1.749  0.4542 -0.2510  0.0935
 4691TIP3    H135632   6.095   5.506   1.813  0.6548  0.7505  0.8882
 4691TIP3    H235633   5.999   5.623   1.802  0.5931  0.5824 -0.6750
 4692TIP3   OH235634   1.693   3.190   0.497 -0.0974 -0.6101  0.2360
 4692TIP3    H135635   1.714   3.257   0.432  0.0446 -2.8963 -2.2398
 4692TIP3    H235636   1.774   3.176   0.545 -0.0536  0.7318  0.5867
 4693TIP3   OH235637   0.406   5.639   8.420 -0.3109 -0.0040 -0.6625
 4693TIP3    H135638   0.373   5.688   8.345  0.6514  1.1982 -0.3214
 4693TIP3    H235639   0.360   5.675   8.495  1.0706  1.0930 -0.2903
 4694TIP3   OH235640   2.307   6.743   2.236  0.2753  0.5377  1.1384
 4694TIP3    H135641   2.306   6.838   2.225 -1.5414  0.4839  0.5282
 4694TIP3    H235642   2.277   6.729   2.326 -0.5703  0.5282  0.8640
 4695TIP3   OH235643   3.198   1.213   0.700  0.4051  0.4449 -0.3767
 4695TIP3    H135644   3.235   1.190   0.785 -0.3394  0.0233 -0.1521
 4695TIP3    H235645   3.125   1.272   0.721 -0.0302  0.0250 -0.6879
 4696TIP3   OH235646   2.415   3.229   3.229 -0.2821 -0.0846 -0.1455
 4696TIP3    H135647   2.363   3.308   3.241  1.0271  0.9582 -1.1718
 4696TIP3    H235648   2.434   3.226   3.136  1.3774 -0.5211  0.1780
 4697TIP3   OH235649   3.319   1.714   2.354 -0.1806 -0.5413 -0.0740
 4697TIP3    H135650   3.234   1.672   2.345  0.0642 -0.9233 -0.7002
 4697TIP3    H235651   3.337   1.712   2.448 -0.8695 -0.4377  0.0649
 4698TIP3   OH235652   3.711   3.548   8.325 -0.1089  0.0259 -0.2634
 4698TIP3    H135653   3.683   3.639   8.317  2.6995  0.7990 -3.0963
 4698TIP3    H235654   3.796   3.545   8.281 -0.4385 -4.1456 -0.9955
 4699TIP3   OH235655   3.948   4.221   2.062 -0.6796  0.3021 -0.3417
 4699TIP3    H135656   3.967   4.300   2.113 -2.9037  0.2232  0.7289
 4699TIP3    H235657   3.919   4.254   1.977 -1.1454  0.6520 -0.0567
 4700TIP3   OH235658   2.192   3.459   1.348 -0.0291  0.4797 -0.2820
 4700TIP3    H135659   2.110   3.508   1.354  0.5215  1.5792 -1.3441
 4700TIP3    H235660   2.201   3.418   1.434 -1.6663  0.3619 -0.1331
 4701TIP3   OH235661   5.641   3.712   7.859 -0.9376 -0.0135 -0.2864
 4701TIP3    H135662   5.707   3.709   7.928 -1.1991  0.8514  0.0116
 4701TIP3    H235663   5.674   3.653   7.791  1.4202  2.2929 -1.3052
 4702TIP3   OH235664   6.680   5.361   1.732  0.7530  0.2994 -0.0959
 4702TIP3    H135665   6.723   5.314   1.803 -0.0256 -0.0908  0.1371
 4702TIP3    H235666   6.610   5.411   1.775  0.3073  0.0979 -0.5688
 4703TIP3   OH235667   4.192   2.982   0.928  0.2938  0.0840 -0.7705
 4703TIP3    H135668   4.107   2.990   0.885  0.3176 -0.7304 -1.0080
 4703TIP3    H235669   4.199   2.888   0.949  1.4917 -0.0292 -1.5532
 4704TIP3   OH235670   0.944   3.605   2.241  0.0584  1.1024  0.1605
 4704TIP3    H135671   0.901   3.627   2.323 -0.5399  1.5735 -0.2676
 4704TIP3    H235672   0.918   3.514   2.224  2.7856 -0.1839  2.0856
 4705TIP3   OH235673   4.015   4.879   7.805 -0.2002 -0.2393 -0.0209
 4705TIP3    H135674   4.097   4.872   7.758 -0.0593 -1.0195  0.3186
 4705TIP3    H235675   4.038   4.861   7.897 -0.8796 -1.4683 -0.0551
 4706TIP3   OH235676   5.700   5.150   2.415 -0.1369 -0.1947 -0.3629
 4706TIP3    H135677   5.759   5.222   2.392  0.8373 -0.6701  0.5673
 4706TIP3    H235678   5.626   5.193   2.458  0.5623  0.2615  0.4355
 4707TIP3   OH235679   1.736   3.190   8.095 -0.3880 -0.4893 -0.5138
 4707TIP3    H135680   1.719   3.123   8.161  0.2421 -0.8280 -0.6811
 4707TIP3    H235681   1.652   3.203   8.051 -0.0963 -2.8095 -1.9862
 4708TIP3   OH235682   0.656   2.984   7.187 -0.1378  0.1429 -0.1239
 4708TIP3    H135683   0.602   3.001   7.264  0.9232  2.0082  0.2603
 4708TIP3    H235684   0.711   2.909   7.213 -2.1115 -1.4837 -0.3673
 4709TIP3   OH235685   5.573   4.074   1.356 -0.2455  0.5175 -0.1178
 4709TIP3    H135686   5.517   4.149   1.377 -1.2477 -0.2961  0.2120
 4709TIP3    H235687   5.576   4.071   1.261  0.5034  1.4752 -0.1322
 4710TIP3   OH235688   5.240   5.956   1.807 -0.3129 -0.8538 -0.4398
 4710TIP3    H135689   5.243   5.980   1.715 -1.5878 -0.4515 -0.3929
 4710TIP3    H235690   5.204   6.033   1.851 -0.0634 -1.1752  0.3389
 4711TIP3   OH235691   3.942   4.131   2.666  0.0511  0.0164  0.8390
 4711TIP3    H135692   3.881   4.068   2.627 -0.1915 -0.6574  2.2225
 4711TIP3    H235693   4.029   4.095   2.649  0.3106  1.8207 -2.6287
 4712TIP3   OH235694   0.159   0.554   0.492  0.3092  0.3612 -0.2484
 4712TIP3    H135695   0.197   0.640   0.473  1.5544 -0.3109 -0.9348
 4712TIP3    H235696   0.229   0.505   0.534 -0.7791  0.0567  1.3121
 4713TIP3   OH235697   0.265   5.957   0.333 -0.1034 -0.2205  0.3099
 4713TIP3    H135698   0.257   6.032   0.391 -0.0487 -0.4179  0.5731
 4713TIP3    H235699   0.209   5.890   0.372 -1.8216  0.3576 -1.0265
 4714TIP3   OH235700   4.704   3.981   0.114  0.6889  0.0648  0.1803
 4714TIP3    H135701   4.672   4.048   0.054  1.6418 -0.4037 -0.8912
 4714TIP3    H235702   4.793   4.009   0.136  1.1815 -0.9411 -0.4565
 4715TIP3   OH235703   6.039   6.031   2.763 -0.0611  0.0936  0.1251
 4715TIP3    H135704   6.034   5.946   2.807  0.1445 -0.2858 -0.5568
 4715TIP3    H235705   6.121   6.069   2.793  1.1064 -1.0482 -1.4169
 4716TIP3   OH235706   5.352   5.791   3.370  0.0697 -0.0005 -0.1217
 4716TIP3    H135707   5.268   5.793   3.416 -0.8567 -1.2992 -1.6490
 4716TIP3    H235708   5.417   5.786   3.440 -0.9668  2.5848  1.1812
 4717TIP3   OH235709   0.428   0.705   2.983  0.3499  0.2382 -0.2133
 4717TIP3    H135710   0.372   0.635   2.947 -0.0497  0.2855  0.3028
 4717TIP3    H235711   0.517   0.680   2.957  0.3814 -1.2416  1.1881
 4718TIP3   OH235712   4.419   5.609   1.154 -0.0610  0.1982 -0.4917
 4718TIP3    H135713   4.498   5.629   1.105  1.2774  0.2154  1.5360
 4718TIP3    H235714   4.428   5.659   1.235 -1.5972 -0.6988  0.2826
 4719TIP3   OH235715   3.647   5.862   7.312 -0.0942 -0.3520  0.6531
 4719TIP3    H135716   3.594   5.825   7.241 -0.4341  0.5777  0.4093
 4719TIP3    H235717   3.681   5.944   7.276 -1.8590  1.1423  2.1761
 4720TIP3   OH235718   4.222   0.832   8.094 -0.5686  0.1723  0.2595
 4720TIP3    H135719   4.157   0.855   8.160 -0.9345  0.3182 -0.1474
 4720TIP3    H235720   4.171   0.812   8.016 -0.1573 -0.3131  0.1088
 4721TIP3   OH235721   0.965   2.437   1.545 -0.7254  0.3284 -0.1172
 4721TIP3    H135722   0.957   2.344   1.567 -0.6445  0.2499 -0.4219
 4721TIP3    H235723   1.059   2.452   1.536 -0.7795  0.2364 -0.9329
 4722TIP3   OH235724   6.845   3.650   0.458  0.5675 -0.2980 -0.1432
 4722TIP3    H135725   6.767   3.664   0.405  1.2841  1.1754 -0.8922
 4722TIP3    H235726   6.829   3.569   0.505 -0.7166 -0.8847 -1.5230
 4723TIP3   OH235727   6.670   1.177   1.703  0.5000  0.1516 -0.5080
 4723TIP3    H135728   6.678   1.101   1.760  0.6509  1.1415  0.8357
 4723TIP3    H235729   6.597   1.155   1.645 -0.6354 -0.3090  1.0255
 4724TIP3   OH235730   5.719   6.853   0.836  0.2003 -0.0783 -0.2896
 4724TIP3    H135731   5.739   6.913   0.764  1.4983 -0.7282 -0.5070
 4724TIP3    H235732   5.783   6.875   0.904 -0.6658  0.1641  0.4546
 4725TIP3   OH235733   4.875   1.331   2.579 -0.0183  0.5699  0.2863
 4725TIP3    H135734   4.831   1.328   2.664 -0.7187  1.5567 -0.0212
 4725TIP3    H235735   4.861   1.244   2.542 -0.1402  0.2929  0.9584
 4726TIP3   OH235736   1.559   6.155   3.473  0.3320 -0.0015  0.1037
 4726TIP3    H135737   1.613   6.151   3.552  0.8606 -1.6161 -0.3103
 4726TIP3    H235738   1.500   6.229   3.488 -2.0563 -2.2972  3.6283
 4727TIP3   OH235739   3.250   3.396   3.052  0.2389  0.4043  0.7093
 4727TIP3    H135740   3.207   3.318   3.085  1.9739  0.0951  2.4212
 4727TIP3    H235741   3.328   3.363   3.007  0.9760  1.1170  1.4317
 4728TIP3   OH235742   0.554   1.340   7.988  0.3783  0.4683 -0.1398
 4728TIP3    H135743   0.505   1.264   7.956  0.6548  1.3928 -3.0507
 4728TIP3    H235744   0.560   1.326   8.083 -1.9607 -1.7009 -0.1956
 4729TIP3   OH235745   3.496   0.289   1.810  0.1782 -0.2910 -0.5438
 4729TIP3    H135746   3.514   0.222   1.876  1.6815  0.1893 -0.4288
 4729TIP3    H235747   3.576   0.341   1.806 -1.2459  2.0810  0.0308
 4730TIP3   OH235748   0.173   2.626   8.271 -0.3406  0.4333  0.2258
 4730TIP3    H135749   0.158   2.667   8.356 -0.9877  1.0179 -0.1587
 4730TIP3    H235750   0.089   2.634   8.225 -0.5634 -1.5015  0.2017
 4731TIP3   OH235751   0.750   0.984   0.486  0.1802  0.4581  0.1962
 4731TIP3    H135752   0.660   0.973   0.455  0.1347  1.4144 -0.0419
 4731TIP3    H235753   0.764   1.079   0.486  0.9840  0.3489  0.8240
 4732TIP3   OH235754   2.457   0.005   1.841 -0.3060 -0.1375 -0.2614
 4732TIP3    H135755   2.414  -0.059   1.785 -0.6884  0.7744 -1.0513
 4732TIP3    H235756   2.385   0.058   1.876  0.0401  0.2748 -0.1606
 4733TIP3   OH235757   6.563   2.791   8.408  0.3374 -0.0443  0.5412
 4733TIP3    H135758   6.519   2.874   8.426  0.7064  0.6218 -1.4467
 4733TIP3    H235759   6.493   2.729   8.393  0.0599  0.4457 -0.2163
 4734TIP3   OH235760   4.026   6.988   1.806 -0.1695  0.0560  0.3296
 4734TIP3    H135761   4.000   6.951   1.722 -1.0816 -0.9993  1.0367
 4734TIP3    H235762   4.099   7.047   1.786  0.5221 -1.1989 -1.0225
 4735TIP3   OH235763   3.425   6.618   1.854 -0.1713 -0.2220  0.0381
 4735TIP3    H135764   3.330   6.627   1.858 -0.2446 -1.0909  0.3160
 4735TIP3    H235765   3.448   6.562   1.928  0.2854 -2.0064 -1.3847
 4736TIP3   OH235766   4.036   1.734   0.117  0.5046 -0.4117 -0.4228
 4736TIP3    H135767   4.131   1.726   0.132  0.5439  0.5032 -0.1908
 4736TIP3    H235768   4.009   1.808   0.170 -0.3390 -0.6185 -0.5552
 4737TIP3   OH235769   2.883   2.466   6.910 -0.1978 -0.3533  0.0813
 4737TIP3    H135770   2.907   2.376   6.928 -1.2442 -0.3194  1.8448
 4737TIP3    H235771   2.911   2.481   6.819  1.1800 -2.0080  0.1928
 4738TIP3   OH235772   3.513   1.076   0.201 -0.0213  0.1035  0.9740
 4738TIP3    H135773   3.428   1.063   0.159 -0.1837  0.7313  1.0920
 4738TIP3    H235774   3.496   1.063   0.294 -0.3652  1.8431  1.1908
 4739TIP3   OH235775   6.347   0.860   7.526  0.7334  0.6200 -0.0357
 4739TIP3    H135776   6.365   0.914   7.603  1.2130  0.4427 -0.0158
 4739TIP3    H235777   6.258   0.882   7.501  0.4010  0.3523  0.8514
 4740TIP3   OH235778   0.426   3.519   1.181 -0.0881  0.3816 -0.2383
 4740TIP3    H135779   0.429   3.563   1.266 -0.9328  1.9788 -0.9983
 4740TIP3    H235780   0.462   3.583   1.119  0.7730 -0.8559 -1.0782
 4741TIP3   OH235781   3.702   3.762   0.795 -0.5383 -0.1200 -0.1109
 4741TIP3    H135782   3.636   3.831   0.782  0.1509  0.6855  0.5784
 4741TIP3    H235783   3.718   3.729   0.707 -2.0587 -0.5284 -0.2681
 4742TIP3   OH235784   0.136   2.612   2.574 -0.1044 -0.4463  0.0055
 4742TIP3    H135785   0.153   2.565   2.656  1.1826  1.1532  0.7021
 4742TIP3    H235786   0.189   2.566   2.509  0.9569 -0.1448  0.6298
 4743TIP3   OH235787   6.400   2.723   7.156 -0.0131 -0.5816  0.3223
 4743TIP3    H135788   6.476   2.771   7.188 -0.5349  0.0069  0.7087
 4743TIP3    H235789   6.326   2.763   7.202 -0.6375 -0.6155 -0.6400
 4744TIP3   OH235790   3.112   6.993   7.610 -0.2453 -0.2431  0.0767
 4744TIP3    H135791   3.175   6.936   7.566  0.8588 -0.1711  1.4870
 4744TIP3    H235792   3.040   7.003   7.547  0.6888 -1.1380 -1.1789
 4745TIP3   OH235793   5.667   5.251   0.418 -0.5655 -0.5629  0.1799
 4745TIP3    H135794   5.746   5.199   0.433  0.1483 -0.0973 -1.7517
 4745TIP3    H235795   5.671   5.276   0.326 -0.7329  3.1759  1.0160
 4746TIP3   OH235796   0.113   0.820   1.443  0.4001 -0.0956 -0.2119
 4746TIP3    H135797   0.039   0.880   1.455 -0.5676 -1.1373 -0.8651
 4746TIP3    H235798   0.162   0.826   1.525 -0.8406  0.0175  0.5409
 4747TIP3   OH235799   4.757   6.686   8.321 -0.5221  0.4083 -0.1813
 4747TIP3    H135800   4.760   6.739   8.241 -0.0284  0.1096 -0.3676
 4747TIP3    H235801   4.665   6.688   8.348 -0.6789  0.5791 -0.7132
 4748TIP3   OH235802   0.149   4.496   8.279 -0.5158 -0.0547 -0.4384
 4748TIP3    H135803   0.085   4.497   8.350 -0.4216  0.7327 -0.3496
 4748TIP3    H235804   0.184   4.407   8.279 -1.9455 -0.6331 -0.8033
 4749TIP3   OH235805   5.364   6.488   2.603  0.0817 -0.1927 -0.1398
 4749TIP3    H135806   5.336   6.575   2.577  1.2903  0.6189  1.1608
 4749TIP3    H235807   5.284   6.444   2.633 -0.3239  0.9622  0.5163
 4750TIP3   OH235808   5.925   6.218   7.267 -0.3208  0.1050 -0.1544
 4750TIP3    H135809   5.930   6.125   7.285 -1.2309  0.0894  0.0611
 4750TIP3    H235810   6.013   6.242   7.238  0.3114 -0.5241  1.1664
 4751TIP3   OH235811   1.224   3.319   3.260  0.0935  0.0615 -0.3300
 4751TIP3    H135812   1.303   3.321   3.206 -0.8841  0.7070 -1.8408
 4751TIP3    H235813   1.198   3.411   3.266 -1.3092 -0.2574 -1.0993
 4752TIP3   OH235814   6.673   0.936   2.144  0.0093 -0.5478 -0.2095
 4752TIP3    H135815   6.600   0.998   2.149  0.8884  0.5881 -0.8826
 4752TIP3    H235816   6.655   0.874   2.214 -1.1970  0.1490  0.1492
 4753TIP3   OH235817   0.825   6.089   1.300  0.6223  0.5718 -0.2348
 4753TIP3    H135818   0.805   6.095   1.206 -2.0173 -0.9135  0.1583
 4753TIP3    H235819   0.799   6.173   1.336  1.0862  0.9338 -0.7373
 4754TIP3   OH235820   5.505   0.442   2.588  0.5665 -0.1353  0.1873
 4754TIP3    H135821   5.550   0.367   2.627 -2.4052 -1.8177  0.7431
 4754TIP3    H235822   5.498   0.420   2.495  0.0081 -0.4061  0.2882
 4755TIP3   OH235823   3.615   2.455   3.337  0.7009 -0.4928 -0.0139
 4755TIP3    H135824   3.639   2.534   3.386  1.5805 -1.5544  1.3700
 4755TIP3    H235825   3.694   2.432   3.288  0.6035 -0.7580 -0.0503
 4756TIP3   OH235826   1.353   1.777   8.255  0.6100  0.2022 -0.1071
 4756TIP3    H135827   1.405   1.832   8.196  0.3854  0.6444  0.1024
 4756TIP3    H235828   1.412   1.705   8.278  0.9116  0.3571 -0.3786
 4757TIP3   OH235829   6.567   0.948   7.920 -0.3760 -0.5913  0.1390
 4757TIP3    H135830   6.498   0.976   7.981  1.9699 -1.5172  3.5152
 4757TIP3    H235831   6.647   0.986   7.956  1.3793 -2.5508 -1.4914
 4758TIP3   OH235832   4.060   1.250   7.419 -0.3811  0.2628 -0.1800
 4758TIP3    H135833   4.132   1.312   7.412 -1.3872  1.3724 -1.2855
 4758TIP3    H235834   3.985   1.303   7.446 -1.1719 -0.5284 -0.7530
 4759TIP3   OH235835   1.833   5.314   2.891 -0.1530  0.2815  0.3483
 4759TIP3    H135836   1.863   5.387   2.945 -0.5181 -0.3731  1.4700
 4759TIP3    H235837   1.912   5.264   2.872  0.2589  1.4880 -1.2761
 4760TIP3   OH235838   1.645   1.739   2.165  0.3464  0.4957 -0.4957
 4760TIP3    H135839   1.673   1.721   2.075  0.9286 -0.4803 -0.1341
 4760TIP3    H235840   1.721   1.718   2.219  0.0319  1.1595  0.2228
 4761TIP3   OH235841   4.415   5.100   8.142 -0.0076  0.0832  0.4420
 4761TIP3    H135842   4.439   5.018   8.099 -1.3514 -0.1882  0.1669
 4761TIP3    H235843   4.400   5.161   8.071  0.9062  0.5598  0.6455
 4762TIP3   OH235844   1.264   3.081   1.884  0.6915 -0.2350 -0.2505
 4762TIP3    H135845   1.248   2.987   1.896  2.3491 -0.5097  0.0553
 4762TIP3    H235846   1.294   3.089   1.793  0.9100 -0.0693 -0.1662
 4763TIP3   OH235847   4.272   6.428   1.838 -0.2861 -0.2350 -0.1090
 4763TIP3    H135848   4.339   6.460   1.778  0.1053  1.4002  1.1224
 4763TIP3    H235849   4.258   6.500   1.899 -3.1398 -0.5600 -0.2688
 4764TIP3   OH235850   0.360   4.787   1.432 -0.5577  0.6696 -0.1032
 4764TIP3    H135851   0.401   4.873   1.438 -1.0373  1.0670 -2.0063
 4764TIP3    H235852   0.432   4.728   1.409 -0.1508  0.4417  1.5922
 4765TIP3   OH235853   2.205   6.459   7.207  0.0767  0.0158  0.1131
 4765TIP3    H135854   2.185   6.366   7.203  1.9764 -0.4274 -0.0169
 4765TIP3    H235855   2.122   6.502   7.185 -0.6289 -1.6448 -0.6660
 4766TIP3   OH235856   5.081   1.956   2.073  0.1467 -0.2192  0.2189
 4766TIP3    H135857   4.998   1.937   2.118 -0.0051 -1.6588 -0.6223
 4766TIP3    H235858   5.055   2.002   1.994  0.4270  2.4678  1.5701
 4767TIP3   OH235859   2.990   1.071   8.409 -0.3295 -0.2707  0.4848
 4767TIP3    H135860   2.994   0.979   8.384 -1.5772 -0.5676  1.2728
 4767TIP3    H235861   2.951   1.116   8.334 -0.1016 -0.4420  0.2623
 4768TIP3   OH235862   5.399   1.776   1.235  0.3393 -0.3794 -0.1521
 4768TIP3    H135863   5.314   1.809   1.206 -0.6758 -1.3518  1.5570
 4768TIP3    H235864   5.460   1.804   1.167 -1.4009  0.0089 -1.6323
 4769TIP3   OH235865   1.952   2.224   7.629 -0.3204 -0.2783 -0.2266
 4769TIP3    H135866   1.992   2.279   7.561  0.5766  1.3638  1.5358
 4769TIP3    H235867   1.863   2.259   7.639 -0.1771  0.0115  0.0214
 4770TIP3   OH235868   4.262   1.521   0.083 -0.2816 -0.1047 -0.1867
 4770TIP3    H135869   4.326   1.521   0.154 -0.2066 -1.0050 -0.2487
 4770TIP3    H235870   4.314   1.534   0.003 -0.1556 -0.9882 -0.2514
 4771TIP3   OH235871   2.182   6.567   8.093 -0.0792 -0.1870 -0.4084
 4771TIP3    H135872   2.110   6.505   8.105 -0.4871  0.3463 -0.0100
 4771TIP3    H235873   2.160   6.640   8.151  1.4563 -0.5827  0.7125
 4772TIP3   OH235874   5.254   1.768   1.496 -0.5917 -0.5189 -0.1619
 4772TIP3    H135875   5.184   1.752   1.433  0.0486 -0.2154 -0.9614
 4772TIP3    H235876   5.303   1.842   1.460 -0.2524 -0.2959  0.7268
 4773TIP3   OH235877   2.120   3.940   1.681  0.1674 -0.1397 -0.0865
 4773TIP3    H135878   2.034   3.921   1.718  0.8259  0.7373  2.0013
 4773TIP3    H235879   2.180   3.884   1.729  1.1641  1.6847  0.9154
 4774TIP3   OH235880   6.092   3.299   2.510  0.1879 -0.0076 -0.4469
 4774TIP3    H135881   6.058   3.294   2.599 -0.5908 -1.0966 -0.7929
 4774TIP3    H235882   6.062   3.219   2.467  3.0098 -0.9700 -0.8472
 4775TIP3   OH235883   5.429   2.425   0.299  0.5086  0.5590  0.5510
 4775TIP3    H135884   5.369   2.479   0.248  1.5822  0.5174 -0.7940
 4775TIP3    H235885   5.442   2.346   0.246  0.8335  0.0424  1.3806
 4776TIP3   OH235886   1.698   1.413   2.149 -0.0319  0.2897 -0.4419
 4776TIP3    H135887   1.781   1.429   2.193 -1.2769  0.1886  2.1486
 4776TIP3    H235888   1.642   1.485   2.178 -0.8573  0.3761 -2.1715
 4777TIP3   OH235889   5.317   3.373   8.366 -0.0220 -0.0380 -0.1692
 4777TIP3    H135890   5.399   3.345   8.326  1.1805  0.5991  1.7163
 4777TIP3    H235891   5.270   3.417   8.295  1.4559 -0.0241 -1.1974
 4778TIP3   OH235892   2.610   1.511   1.805 -0.5893 -0.3143 -0.3382
 4778TIP3    H135893   2.568   1.427   1.823  0.1843 -0.9231 -1.2860
 4778TIP3    H235894   2.630   1.547   1.892 -1.4522 -0.8315  0.0818
 4779TIP3   OH235895   6.394   5.344   0.976  0.6082  0.4935  0.0453
 4779TIP3    H135896   6.466   5.288   1.008  0.8065 -0.8384 -2.5105
 4779TIP3    H235897   6.363   5.300   0.897 -0.9292  2.7340 -0.6800
 4780TIP3   OH235898   2.960   0.701   3.252 -0.2208  0.1061 -0.2887
 4780TIP3    H135899   3.012   0.777   3.278  1.2480 -1.2318  0.9213
 4780TIP3    H235900   2.923   0.668   3.334  1.1790 -1.8599 -0.3800
 4781TIP3   OH235901   6.869   3.434   1.407 -0.2546  0.0983 -0.4629
 4781TIP3    H135902   6.946   3.399   1.362 -0.5566  0.4500 -1.2599
 4781TIP3    H235903   6.807   3.361   1.409 -0.0602 -0.0612 -0.1871
 4782TIP3   OH235904   3.513   1.920   0.761 -0.6166  0.3056 -0.6738
 4782TIP3    H135905   3.425   1.882   0.753 -1.2258  1.7968 -1.4430
 4782TIP3    H235906   3.497   2.012   0.779  0.8208  0.5031 -0.2933
 4783TIP3   OH235907   4.061   5.836   1.423  0.1634 -0.8072  0.3414
 4783TIP3    H135908   4.067   5.930   1.438  2.4760 -0.6643 -1.0201
 4783TIP3    H235909   3.968   5.820   1.408 -0.6215  0.8446  2.7273
 4784TIP3   OH235910   2.458   1.492   0.023  0.1199 -0.2441  0.1923
 4784TIP3    H135911   2.512   1.492  -0.056  0.4855  1.1143  0.4233
 4784TIP3    H235912   2.398   1.418   0.011 -0.1867  0.2503 -1.6097
 4785TIP3   OH235913   4.616   5.664   3.638  0.2097  0.7944  0.2385
 4785TIP3    H135914   4.559   5.717   3.582  0.9311  1.2634 -0.0734
 4785TIP3    H235915   4.557   5.608   3.687 -0.4099 -0.6059 -1.9629
 4786TIP3   OH235916   6.905   1.628   8.202 -0.3303  0.3412 -0.5113
 4786TIP3    H135917   6.836   1.622   8.269 -0.2831  0.0592 -0.4873
 4786TIP3    H235918   6.942   1.540   8.198  0.2749  0.5804 -0.2645
 4787TIP3   OH235919   0.800   5.806   0.704  0.8130 -0.1384 -0.4643
 4787TIP3    H135920   0.727   5.858   0.738  0.4549  0.3356 -1.8682
 4787TIP3    H235921   0.759   5.727   0.668  1.3065 -1.1977  1.2133
 4788TIP3   OH235922   3.823   5.812   0.720  0.3778 -0.0357  0.1682
 4788TIP3    H135923   3.785   5.752   0.656  0.2978  0.7985 -0.5903
 4788TIP3    H235924   3.869   5.756   0.782 -0.3108 -0.9226 -0.1038
 4789TIP3   OH235925   5.842   1.809   2.747  0.8648 -0.4189 -0.3120
 4789TIP3    H135926   5.863   1.838   2.836  1.9795 -1.3495 -0.2511
 4789TIP3    H235927   5.780   1.875   2.715  0.7022  0.1218  1.0217
 4790TIP3   OH235928   6.616   6.051   7.724  0.3638  0.3611 -0.1284
 4790TIP3    H135929   6.561   6.078   7.650  2.1211  1.9834 -0.9134
 4790TIP3    H235930   6.703   6.083   7.702  1.9255 -2.8844  0.6184
 4791TIP3   OH235931   5.945   2.914   2.498  0.0497  0.0466 -0.1016
 4791TIP3    H135932   5.890   2.958   2.563  0.1969  0.1610 -0.0543
 4791TIP3    H235933   5.990   2.846   2.547  1.2006  1.0018  0.2122
 4792TIP3   OH235934   3.009   6.022   0.656 -0.7614 -0.6092 -0.7865
 4792TIP3    H135935   2.922   6.010   0.692 -0.7798  0.4816 -0.4424
 4792TIP3    H235936   3.033   6.112   0.678  0.5867 -0.9838 -0.5705
 4793TIP3   OH235937   4.725   1.119   1.682  0.4836 -0.1823  0.4462
 4793TIP3    H135938   4.657   1.117   1.614 -0.0669  1.2473  0.9110
 4793TIP3    H235939   4.774   1.199   1.664  3.1795 -1.9716 -0.8799
 4794TIP3   OH235940   0.098   6.481   1.674  0.1430  0.1806  0.0886
 4794TIP3    H135941   0.042   6.474   1.752 -0.4958 -0.2885 -0.4056
 4794TIP3    H235942   0.037   6.493   1.601  0.7905  1.7366 -0.2275
 4795TIP3   OH235943   0.837   1.651   8.102 -0.1101 -0.2263 -0.2047
 4795TIP3    H135944   0.900   1.676   8.169  0.6908 -0.7683 -0.7299
 4795TIP3    H235945   0.853   1.711   8.030  0.5960 -1.0689 -0.7727
 4796TIP3   OH235946   6.109   6.662   2.613  0.1226  0.1437  0.0919
 4796TIP3    H135947   6.100   6.588   2.674  0.6350  0.2544  0.3020
 4796TIP3    H235948   6.163   6.629   2.542 -0.9936 -0.1845 -0.6456
 4797TIP3   OH235949   1.052   1.480   7.320  0.4129 -0.5522 -0.4352
 4797TIP3    H135950   1.097   1.564   7.311 -2.2561  0.9000 -1.6683
 4797TIP3    H235951   1.087   1.425   7.250  2.0411 -0.4401  0.2563
 4798TIP3   OH235952   3.708   2.020   7.906 -0.2821 -0.1969 -0.2112
 4798TIP3    H135953   3.624   2.055   7.877 -0.4207  0.3984  0.8902
 4798TIP3    H235954   3.770   2.092   7.894 -0.5489  0.4729  1.9523
 4799TIP3   OH235955   1.367   3.190   1.565 -0.4404  0.0482  0.0817
 4799TIP3    H135956   1.458   3.198   1.535 -1.0971 -0.5231 -2.3464
 4799TIP3    H235957   1.343   3.279   1.592  1.1821 -0.0439  2.0121
 4800TIP3   OH235958   0.450   4.011   2.561 -0.4643 -0.0518  0.5439
 4800TIP3    H135959   0.384   3.942   2.566  0.4338 -0.9826  0.1306
 4800TIP3    H235960   0.423   4.066   2.488 -0.8112 -0.3973  0.4098
 4801TIP3   OH235961   5.966   2.987   2.833 -0.2503 -0.1936 -0.3449
 4801TIP3    H135962   5.870   2.992   2.840 -0.2122  1.1554 -0.6250
 4801TIP3    H235963   5.990   3.063   2.780  0.9482 -0.7681 -0.6473
 4802TIP3   OH235964   6.683   1.918   2.643 -0.4655  0.0743 -0.5945
 4802TIP3    H135965   6.670   1.843   2.701 -1.1554  0.7428  0.1484
 4802TIP3    H235966   6.596   1.959   2.637  0.5816  3.2805  2.5439
 4803TIP3   OH235967   6.198   0.069   7.536 -0.1661 -0.1351  0.2821
 4803TIP3    H135968   6.288   0.048   7.512  0.0436 -1.4500  1.9642
 4803TIP3    H235969   6.144   0.019   7.475  0.2676 -0.2552 -0.0015
 4804TIP3   OH235970   2.825   2.638   7.289  0.4236 -0.2086  0.1202
 4804TIP3    H135971   2.782   2.713   7.330  0.8922  0.4403 -0.5374
 4804TIP3    H235972   2.790   2.562   7.335 -0.3133  0.3908  0.5808
 4805TIP3   OH235973   0.573   2.965   1.621 -0.3212  0.0025  0.2221
 4805TIP3    H135974   0.554   2.876   1.592  1.3178 -0.2327 -0.2557
 4805TIP3    H235975   0.605   3.009   1.542  0.9728  0.3477  0.9080
 4806TIP3   OH235976   5.004   3.945   2.793 -0.3857  0.6723  0.0485
 4806TIP3    H135977   5.039   3.930   2.881  0.7640  0.2412 -0.4617
 4806TIP3    H235978   5.011   4.039   2.780  1.9079  0.4689 -0.5408
 4807TIP3   OH235979   6.226   6.114   0.307 -0.1811  0.6586 -0.4363
 4807TIP3    H135980   6.233   6.032   0.355 -1.5614  0.6593 -0.1880
 4807TIP3    H235981   6.201   6.089   0.218  0.0687  0.7835 -0.5447
 4808TIP3   OH235982   5.838   0.022   3.104  0.2387  0.5254 -0.3164
 4808TIP3    H135983   5.852   0.053   3.193 -0.2118 -0.0495 -0.0385
 4808TIP3    H235984   5.742   0.023   3.093  0.3038  0.9868 -0.9373
 4809TIP3   OH235985   3.494   3.222   1.772 -0.0813  0.5839  0.0622
 4809TIP3    H135986   3.510   3.167   1.696  0.5285  0.3900  0.3276
 4809TIP3    H235987   3.425   3.282   1.744 -1.2040 -0.6965 -0.0509
 4810TIP3   OH235988   3.219   2.559   0.423 -0.6789 -0.0039  0.1941
 4810TIP3    H135989   3.246   2.546   0.514  0.7362  1.9657  0.1274
 4810TIP3    H235990   3.168   2.640   0.425 -0.6754  0.0321 -0.7469
 4811TIP3   OH235991   2.283   6.443   0.379  0.6108 -0.1918 -0.2795
 4811TIP3    H135992   2.258   6.378   0.313 -0.6910 -1.2663  1.2012
 4811TIP3    H235993   2.379   6.446   0.374  0.5969 -0.9563 -1.5279
 4812TIP3   OH235994   0.679   5.202   2.819 -0.2718 -0.2416 -0.1581
 4812TIP3    H135995   0.689   5.296   2.837 -0.6238 -0.2048 -0.1346
 4812TIP3    H235996   0.610   5.198   2.752 -0.8282 -0.5214  0.4119
 4813TIP3   OH235997   0.131   6.237   7.708 -0.5508  0.2954  0.0545
 4813TIP3    H135998   0.119   6.152   7.751 -0.9761  0.0280 -0.5785
 4813TIP3    H235999   0.105   6.301   7.774  1.1376  0.0224  1.0495
 4814TIP3   OH236000   5.766   0.496   1.225  0.1167  0.0937 -0.6142
 4814TIP3    H136001   5.698   0.564   1.221 -1.4228 -1.3144  0.4370
 4814TIP3    H236002   5.727   0.420   1.182  1.1371 -0.6913 -0.2036
 4815TIP3   OH236003   5.063   1.903   2.718 -0.0169  0.0311  0.3749
 4815TIP3    H136004   5.058   1.920   2.812 -2.0645  0.1940  0.2815
 4815TIP3    H236005   4.979   1.863   2.697  0.1201  0.6647 -1.5128
 4816TIP3   OH236006   2.991   3.040   1.233 -0.3691 -0.3002 -0.4425
 4816TIP3    H136007   2.997   2.998   1.319 -0.0220 -1.9056 -1.1961
 4816TIP3    H236008   2.914   2.998   1.192 -1.2472  1.2989 -0.4916
 4817TIP3   OH236009   1.171   2.018   1.741 -0.1677 -0.1056 -0.1816
 4817TIP3    H136010   1.110   2.075   1.694  1.5435  1.6000 -0.4735
 4817TIP3    H236011   1.164   2.045   1.833  0.1774  0.1634 -0.2293
 4818TIP3   OH236012   3.348   6.500   2.238  0.6136 -0.0902  0.3061
 4818TIP3    H136013   3.418   6.436   2.230 -0.3653 -1.2106  0.4752
 4818TIP3    H236014   3.363   6.540   2.324  0.3725 -1.1835  0.8819
 4819TIP3   OH236015   1.167   6.498   1.154  0.1153 -0.1519 -0.4381
 4819TIP3    H136016   1.216   6.545   1.221 -0.0319  2.7571 -2.1937
 4819TIP3    H236017   1.214   6.516   1.072  0.0448 -3.1945 -1.2623
 4820TIP3   OH236018   3.030   6.587   0.677 -0.3346 -0.1336  0.0742
 4820TIP3    H136019   3.022   6.527   0.603 -2.0673 -0.9906  0.8865
 4820TIP3    H236020   2.949   6.640   0.673  1.0053  2.0090 -0.4589
 4821TIP3   OH236021   4.338   4.129   7.030 -0.3477  0.0299  0.4028
 4821TIP3    H136022   4.390   4.161   7.104  2.0576 -0.0290 -1.1520
 4821TIP3    H236023   4.351   4.194   6.961 -1.4079 -0.6085 -0.4278
 4822TIP3   OH236024   4.693   2.118   8.086 -0.4019 -0.0682 -0.1676
 4822TIP3    H136025   4.671   2.172   8.011  1.1064 -0.2716 -0.7849
 4822TIP3    H236026   4.780   2.082   8.066 -0.0262 -0.2427  1.5996
 4823TIP3   OH236027   0.509   4.784   1.109 -0.5590  0.4859 -0.2963
 4823TIP3    H136028   0.418   4.786   1.079 -0.7190  2.8565  0.2220
 4823TIP3    H236029   0.558   4.756   1.031 -1.5262  1.1335 -1.1753
 4824TIP3   OH236030   0.368   5.524   1.066  0.2819 -0.2492  0.0148
 4824TIP3    H136031   0.345   5.596   1.007 -0.0722 -1.3129 -1.1727
 4824TIP3    H236032   0.445   5.556   1.113  0.4954  0.6667 -0.9255
 4825TIP3   OH236033   5.009   2.458   8.052  0.4801 -0.0913 -0.3101
 4825TIP3    H136034   4.935   2.515   8.070  1.2724  0.3717  1.7911
 4825TIP3    H236035   5.080   2.518   8.028  0.4548 -0.4620 -1.3678
 4826TIP3   OH236036   2.401   2.267   6.995 -0.3271  0.5234 -0.5902
 4826TIP3    H136037   2.424   2.326   6.924  0.5604  1.4883  0.4617
 4826TIP3    H236038   2.322   2.305   7.034 -0.4565  0.3294 -0.6559
 4827TIP3   OH236039   0.107   3.408   8.331 -0.9289  0.0262 -0.5817
 4827TIP3    H136040   0.155   3.338   8.375  0.7358  0.2360 -1.9771
 4827TIP3    H236041   0.015   3.387   8.347 -0.4336 -1.6252  0.3151
 4828TIP3   OH236042   2.292   6.446   1.545 -0.2195  0.1674  0.2604
 4828TIP3    H136043   2.285   6.521   1.604 -2.9129  0.8622 -0.7818
 4828TIP3    H236044   2.312   6.485   1.460 -1.9350 -0.2343 -0.3522
 4829TIP3   OH236045   1.739   5.703   1.098  0.0301  0.0031  0.0624
 4829TIP3    H136046   1.729   5.793   1.066  2.0800  0.2055 -0.1197
 4829TIP3    H236047   1.775   5.655   1.024 -2.2850 -1.3433 -0.2830
 4830TIP3   OH236048   2.534   6.708   2.415  0.4767 -0.0252  0.2429
 4830TIP3    H136049   2.540   6.801   2.393  0.5118  0.0264  0.4637
 4830TIP3    H236050   2.506   6.707   2.506  0.5624 -0.2306  0.2677
 4831TIP3   OH236051   1.554   6.487   2.529 -0.1709  0.2950  0.2287
 4831TIP3    H136052   1.507   6.451   2.604  0.1351  0.4051  0.4790
 4831TIP3    H236053   1.494   6.551   2.491 -0.2783  0.3290  0.4552
 4832TIP3   OH236054   0.525   2.987   1.185 -0.2303  0.0412 -0.0782
 4832TIP3    H136055   0.502   3.076   1.210 -1.4473 -0.3224  0.1766
 4832TIP3    H236056   0.618   2.979   1.206  0.1179  1.5241 -0.9608
 4833TIP3   OH236057   0.883   0.818   7.574 -0.5641  0.2913  0.2824
 4833TIP3    H136058   0.952   0.757   7.546  0.4206  1.4036  0.2036
 4833TIP3    H236059   0.893   0.823   7.669 -1.0041 -0.0854  0.3497
 4834TIP3   OH236060   2.829   3.393   7.488  0.6227 -0.1978 -0.6792
 4834TIP3    H136061   2.817   3.462   7.423 -3.3952  2.0394  1.9984
 4834TIP3    H236062   2.752   3.337   7.479  1.4592 -1.5815  0.3021
 4835TIP3   OH236063   2.880   2.412   8.022 -0.1660 -0.4599 -0.2136
 4835TIP3    H136064   2.949   2.419   7.957 -1.8365  0.5633 -1.9943
 4835TIP3    H236065   2.922   2.371   8.098  1.9941 -1.2004 -1.7182
 4836TIP3   OH236066   4.896   2.098   2.373  0.2267  0.1348  0.1698
 4836TIP3    H136067   4.811   2.060   2.392 -0.5987  2.9917  3.0787
 4836TIP3    H236068   4.957   2.024   2.373 -2.0928 -1.9741 -1.8637
 4837TIP3   OH236069   2.862   5.122   0.286  0.3085 -0.2203 -0.4446
 4837TIP3    H136070   2.915   5.174   0.225  0.6678  0.8280  0.7152
 4837TIP3    H236071   2.774   5.124   0.249 -0.0334  2.5119  0.2842
 4838TIP3   OH236072   1.450   4.067   7.938  0.1389 -0.5486 -1.1291
 4838TIP3    H136073   1.400   4.031   7.864  2.4864 -1.0792 -2.5614
 4838TIP3    H236074   1.519   4.119   7.897  0.2715  0.9111  0.7956
 4839TIP3   OH236075   5.085   1.913   2.416 -0.5123 -0.1631 -0.8744
 4839TIP3    H136076   5.163   1.915   2.361 -1.4083 -0.4304 -2.2054
 4839TIP3    H236077   5.119   1.908   2.505  0.9923  0.6593 -1.3545
 4840TIP3   OH236078   5.409   0.942   1.883 -0.0106  0.1452 -0.5550
 4840TIP3    H136079   5.490   0.904   1.850 -0.4418 -0.5092 -0.8768
 4840TIP3    H236080   5.353   0.950   1.805  0.1860  1.7457 -0.5586
 4841TIP3   OH236081   0.592   4.699   8.335  0.2728 -0.0824 -0.9368
 4841TIP3    H136082   0.595   4.790   8.364 -0.1260 -0.7504  1.3724
 4841TIP3    H236083   0.501   4.686   8.307  0.0628 -0.0404 -0.2875
 4842TIP3   OH236084   2.126   3.551   2.631 -0.3895 -0.2093  0.0267
 4842TIP3    H136085   2.204   3.603   2.614 -2.0082  2.1920 -0.6157
 4842TIP3    H236086   2.159   3.464   2.654  2.4061  0.5168 -0.8741
 4843TIP3   OH236087   4.394   0.019   1.176 -0.1589 -0.2200 -0.1380
 4843TIP3    H136088   4.333   0.051   1.109  0.6099  0.4233 -0.5464
 4843TIP3    H236089   4.399  -0.075   1.161  0.2768 -0.0373 -1.2324
 4844TIP3   OH236090   0.913   6.945   0.486 -0.0612  0.2852 -0.0270
 4844TIP3    H136091   1.006   6.966   0.494 -0.3050  1.8822 -0.8050
 4844TIP3    H236092   0.896   6.952   0.392 -0.5644 -2.0084 -0.1487
 4845TIP3   OH236093   4.941   6.040   2.625 -0.0371  0.3391  0.1878
 4845TIP3    H136094   5.032   6.031   2.654  0.1575  1.5311 -0.0066
 4845TIP3    H236095   4.892   5.980   2.682  0.9579 -0.9131 -0.2425
 4846TIP3   OH236096   2.118   6.007   2.402  0.6233  0.1829  0.6510
 4846TIP3    H136097   2.043   5.958   2.436  0.4960  1.4509  2.3139
 4846TIP3    H236098   2.192   5.947   2.411  0.0060 -0.6960  0.0050
 4847TIP3   OH236099   0.705   5.277   3.263  0.6650  0.4209  0.4647
 4847TIP3    H136100   0.729   5.369   3.273 -1.2733  1.2445 -1.5795
 4847TIP3    H236101   0.679   5.249   3.351  1.5052  1.7280  1.1583
 4848TIP3   OH236102   1.796   1.859   7.818  0.1207  0.1183  0.5279
 4848TIP3    H136103   1.797   1.877   7.724  0.7987  1.3374  0.7459
 4848TIP3    H236104   1.873   1.804   7.833 -0.2425 -0.4552  0.3072
 4849TIP3   OH236105   4.787   1.635   3.146 -0.1157 -0.2566 -0.5741
 4849TIP3    H136106   4.741   1.583   3.211 -1.8901  0.8967 -0.8533
 4849TIP3    H236107   4.846   1.692   3.197 -0.9557  0.1212 -0.0076
 4850TIP3   OH236108   5.494   4.364   1.937 -0.3550  0.0760 -0.5257
 4850TIP3    H136109   5.511   4.280   1.980  0.3106  0.5998  0.2670
 4850TIP3    H236110   5.407   4.389   1.967  0.0320  0.3530  0.4312
 4851TIP3   OH236111   6.285   2.383   2.033  0.6890  0.0592 -0.8458
 4851TIP3    H136112   6.275   2.464   2.084  0.5051  0.1988 -1.1022
 4851TIP3    H236113   6.199   2.370   1.992 -0.0029 -1.4872  0.9647
 4852TIP3   OH236114   1.333   3.690   8.239 -0.4741 -0.2065 -0.5528
 4852TIP3    H136115   1.241   3.692   8.211 -0.8388 -0.5426  0.5659
 4852TIP3    H236116   1.362   3.602   8.219 -0.0735  0.2112 -1.8638
 4853TIP3   OH236117   1.974   5.094   0.680  0.3845 -0.4181 -0.4282
 4853TIP3    H136118   2.066   5.070   0.667  0.3072 -0.1302 -1.6695
 4853TIP3    H236119   1.964   5.177   0.632 -0.8005 -1.0667 -1.3645
 4854TIP3   OH236120   1.929   6.479   7.626  0.2785 -0.4603  0.0124
 4854TIP3    H136121   2.013   6.505   7.589  0.8081 -0.1040  1.4043
 4854TIP3    H236122   1.866   6.539   7.587  0.8755  0.1677  0.0082
 4855TIP3   OH236123   0.690   0.652   2.866  0.7040 -0.5329 -0.3061
 4855TIP3    H136124   0.702   0.730   2.812 -1.2330  0.5045  0.6475
 4855TIP3    H236125   0.777   0.632   2.901  1.1630  1.4669 -0.2332
 4856TIP3   OH236126   1.419   3.983   1.987  0.2985 -0.0921  0.5386
 4856TIP3    H136127   1.481   3.916   2.017  0.4966 -0.2528 -0.1970
 4856TIP3    H236128   1.471   4.063   1.985  0.8588 -0.4459 -1.2335
 4857TIP3   OH236129   5.118   0.167   2.696 -0.0287 -0.1357 -0.1731
 4857TIP3    H136130   5.183   0.132   2.635 -0.0340  1.8565 -1.3760
 4857TIP3    H236131   5.170   0.209   2.764 -0.0489 -0.3657 -0.0135
 4858TIP3   OH236132   5.503   1.360   0.534 -0.3016  0.5429  0.2050
 4858TIP3    H136133   5.469   1.426   0.594 -2.5822 -0.7246  0.4189
 4858TIP3    H236134   5.518   1.283   0.589 -0.0007  0.1269 -0.4424
 4859TIP3   OH236135   4.925   4.751   7.109  0.6511 -0.0332 -0.1110
 4859TIP3    H136136   4.846   4.779   7.064  1.0460  0.8820 -0.2618
 4859TIP3    H236137   4.905   4.662   7.140 -0.1213 -0.1401 -0.8721
 4860TIP3   OH236138   3.428   3.596   7.692  0.0786 -0.1894 -0.2517
 4860TIP3    H136139   3.356   3.643   7.733 -0.7507 -2.3878  0.9662
 4860TIP3    H236140   3.426   3.509   7.731  2.3007 -0.8956 -1.4941
 4861TIP3   OH236141   1.032   6.484   0.183  0.4076  0.1214 -0.2448
 4861TIP3    H136142   0.999   6.542   0.114 -2.4140  0.4266  1.2296
 4861TIP3    H236143   1.084   6.542   0.239 -0.0743  0.6112 -0.2931
 4862TIP3   OH236144   5.723   6.320   2.911  0.0973 -0.1032 -0.3209
 4862TIP3    H136145   5.675   6.320   2.828 -0.7735 -1.0234  0.1550
 4862TIP3    H236146   5.756   6.231   2.920  0.6528  0.1349  0.0695
 4863TIP3   OH236147   0.902   2.584   1.312  0.1782 -0.1108 -0.2393
 4863TIP3    H136148   0.945   2.548   1.390  0.7762  0.3952 -0.3338
 4863TIP3    H236149   0.879   2.507   1.260  0.8109 -0.3962 -0.1073
 4864TIP3   OH236150   5.954   2.629   8.406  0.0518  0.1919  0.6732
 4864TIP3    H136151   5.908   2.713   8.406  0.5627  0.4721  0.0818
 4864TIP3    H236152   5.885   2.565   8.422 -0.8831  0.4530 -1.8598
 4865TIP3   OH236153   3.703   6.509   7.959  0.1450 -0.1169  0.1262
 4865TIP3    H136154   3.749   6.514   7.875 -0.4075  0.7666 -0.1379
 4865TIP3    H236155   3.640   6.438   7.948  0.4752 -0.3957  0.0024
 4866TIP3   OH236156   3.660   1.429   8.152 -0.1623  0.2163  0.5802
 4866TIP3    H136157   3.620   1.342   8.149  2.1882 -0.9417  0.8430
 4866TIP3    H236158   3.698   1.436   8.239  2.6925 -0.0060 -0.5336
 4867TIP3   OH236159   3.771   0.818   0.121 -0.2673  0.2113  0.1628
 4867TIP3    H136160   3.683   0.835   0.153 -0.5123 -1.3016  0.3564
 4867TIP3    H236161   3.826   0.825   0.199 -0.0491  1.9667 -0.0893
 4868TIP3   OH236162   0.742   6.842   3.282 -0.7471  0.6785  0.2694
 4868TIP3    H136163   0.768   6.928   3.313 -2.5541  1.4646 -0.2669
 4868TIP3    H236164   0.824   6.798   3.260  0.1957  2.2973  0.4505
 4869TIP3   OH236165   5.328   4.433   8.342  0.2247 -0.2176 -0.2370
 4869TIP3    H136166   5.394   4.501   8.354  0.5480 -0.0450 -2.5178
 4869TIP3    H236167   5.315   4.396   8.429  0.8744  1.9768  0.8534
 4870TIP3   OH236168   3.842   2.018   7.611  0.3544 -0.3031  0.2101
 4870TIP3    H136169   3.777   1.968   7.660  0.5104 -0.9073 -0.1823
 4870TIP3    H236170   3.857   2.097   7.663 -1.6354  0.4815 -0.3015
 4871TIP3   OH236171   1.168   3.552   0.361  0.1464 -0.2250  0.1095
 4871TIP3    H136172   1.157   3.533   0.454 -0.8938 -2.7709 -0.4584
 4871TIP3    H236173   1.260   3.533   0.344  0.7573  1.7955  0.8770
 4872TIP3   OH236174   5.471   0.946   7.979 -0.2683 -0.5248 -0.3114
 4872TIP3    H136175   5.485   0.899   7.896  0.6698 -0.2594 -0.3236
 4872TIP3    H236176   5.376   0.951   7.989 -0.4160 -0.0187 -1.6938
 4873TIP3   OH236177   3.479   5.986   8.034 -0.0752  0.1163 -0.2544
 4873TIP3    H136178   3.478   5.979   7.939  1.0761 -1.7378 -0.1821
 4873TIP3    H236179   3.444   5.903   8.065  2.2363 -0.5245  0.8891
 4874TIP3   OH236180   4.557   2.004   8.308  0.2071 -0.0138  0.4209
 4874TIP3    H136181   4.599   2.024   8.225  1.1198  1.8284  1.2563
 4874TIP3    H236182   4.488   2.071   8.317 -2.5438 -2.5046 -0.5717
 4875TIP3   OH236183   6.257   2.708   0.130  0.2891 -0.2320  0.0787
 4875TIP3    H136184   6.163   2.719   0.116  0.2894  0.9477  0.8357
 4875TIP3    H236185   6.275   2.761   0.207  1.6786  0.0155 -0.3967
 4876TIP3   OH236186   5.110   6.277   3.183  0.0456  0.1021  0.5941
 4876TIP3    H136187   5.136   6.369   3.177 -1.1827  0.4987  1.0397
 4876TIP3    H236188   5.192   6.228   3.176  1.1371  1.3063  3.4062
 4877TIP3   OH236189   1.892   6.223   2.605 -0.2588 -0.2899 -0.4014
 4877TIP3    H136190   1.840   6.258   2.533 -0.3088  0.5554  0.0367
 4877TIP3    H236191   1.840   6.150   2.639 -0.2662 -0.6551 -1.1655
 4878TIP3   OH236192   2.238   6.603   2.006  0.1550 -0.0523 -0.0922
 4878TIP3    H136193   2.331   6.581   2.012  0.5780  1.5571 -0.2528
 4878TIP3    H236194   2.230   6.684   2.056 -1.0780  0.0868 -0.4945
 4879TIP3   OH236195   0.172   3.057   7.347  0.1362  0.3453 -0.5604
 4879TIP3    H136196   0.131   3.039   7.262 -0.6822  1.5412 -0.4489
 4879TIP3    H236197   0.173   2.972   7.391  1.3995 -0.5000 -2.0710
 4880TIP3   OH236198   0.919   0.147   2.724  0.7588 -0.2087  0.3396
 4880TIP3    H136199   0.915   0.212   2.654  2.0302  0.9295  1.2698
 4880TIP3    H236200   0.829   0.117   2.734  0.5866 -0.6413 -1.9609
 4881TIP3   OH236201   0.952   2.264   7.922 -0.6460  0.3522  0.3511
 4881TIP3    H136202   1.025   2.285   7.864 -2.0210  1.5623 -1.0231
 4881TIP3    H236203   0.928   2.174   7.900  0.6498 -0.2081  1.1093
 4882TIP3   OH236204   4.396   3.126   0.832 -0.4924  0.1916  0.2705
 4882TIP3    H136205   4.345   3.054   0.869  2.4822 -1.8433  0.7948
 4882TIP3    H236206   4.397   3.193   0.900 -1.1765 -0.3688  0.8432
 4883TIP3   OH236207   2.032   5.602   0.246 -0.2495  0.2778 -0.3845
 4883TIP3    H136208   2.024   5.663   0.172  0.0503  3.0069  1.6802
 4883TIP3    H236209   1.956   5.622   0.301  0.0508 -1.0247  0.5380
 4884TIP3   OH236210   1.572   0.481   0.260 -0.5749  0.3829  0.7341
 4884TIP3    H136211   1.655   0.528   0.268 -1.6163  2.4713  0.0666
 4884TIP3    H236212   1.562   0.435   0.343  1.0819  0.3699  0.9495
 4885TIP3   OH236213   3.726   6.300   1.584  0.2030  0.3577  0.2691
 4885TIP3    H136214   3.808   6.276   1.627  0.2196  1.3979  0.8696
 4885TIP3    H236215   3.676   6.218   1.581  0.5016  0.0892  1.6292
 4886TIP3   OH236216   3.947   2.404   0.639 -0.0609  0.1001 -0.4881
 4886TIP3    H136217   3.870   2.379   0.690  0.1321  1.1381  0.3455
 4886TIP3    H236218   3.923   2.383   0.548 -2.0557  2.0636 -0.5017
 4887TIP3   OH236219   4.290   4.915   0.444  0.7528 -0.5231  0.4982
 4887TIP3    H136220   4.359   4.954   0.390  1.0325 -1.4636  0.1580
 4887TIP3    H236221   4.321   4.926   0.534  1.6236 -1.4163  0.3254
 4888TIP3   OH236222   2.812   2.973   7.886 -0.2587  0.2682 -0.1065
 4888TIP3    H136223   2.812   3.013   7.799  1.7632 -0.3642 -0.4462
 4888TIP3    H236224   2.792   3.046   7.946 -1.1485  0.8139 -1.0411
 4889TIP3   OH236225   2.934   5.565   0.546  0.2586  0.2539 -0.1528
 4889TIP3    H136226   2.891   5.650   0.538  1.1664  0.8224  0.8213
 4889TIP3    H236227   2.992   5.561   0.470 -0.0027  0.3776 -0.3604
 4890TIP3   OH236228   0.607   3.442   0.883  0.2642 -0.0423  0.5412
 4890TIP3    H136229   0.632   3.448   0.975  1.1456  0.6691  0.2715
 4890TIP3    H236230   0.610   3.532   0.851  2.4269 -0.5019 -0.7763
 4891TIP3   OH236231   2.603   1.512   8.207 -0.2760  0.2023  0.5135
 4891TIP3    H136232   2.519   1.507   8.161 -0.3536  1.7736  0.4305
 4891TIP3    H236233   2.665   1.537   8.139  0.0949 -0.0256  0.7668
 4892TIP3   OH236234   4.180   4.553   1.709 -0.0301  0.3124  0.2503
 4892TIP3    H136235   4.150   4.593   1.627 -2.3966 -1.4862  0.1270
 4892TIP3    H236236   4.252   4.496   1.684 -0.0973  0.5111 -0.4050
 4893TIP3   OH236237   6.236   0.339   2.587 -0.2010  0.3847 -0.6992
 4893TIP3    H136238   6.179   0.416   2.592 -0.5343  0.1984 -1.4713
 4893TIP3    H236239   6.314   0.370   2.542  0.5338  0.7580  0.7796
 4894TIP3   OH236240   1.805   5.232   1.550 -0.0627 -0.2436 -0.3134
 4894TIP3    H136241   1.858   5.191   1.482  1.3404 -1.4349  1.3973
 4894TIP3    H236242   1.863   5.297   1.589 -0.2631 -0.6735  0.7518
 4895TIP3   OH236243   1.805   2.922   7.125  0.1759 -0.2518  0.0015
 4895TIP3    H136244   1.874   2.972   7.167 -0.6134  0.5984  0.3305
 4895TIP3    H236245   1.725   2.974   7.141 -0.7524 -1.8345  0.7663
 4896TIP3   OH236246   2.459   5.246   0.198 -0.1340 -0.1294 -0.0415
 4896TIP3    H136247   2.447   5.153   0.179 -1.6384 -0.4117  2.0023
 4896TIP3    H236248   2.426   5.290   0.120 -1.6218 -1.2917 -0.1137
 4897TIP3   OH236249   6.826   5.721   3.012 -0.3380  0.2257  0.2318
 4897TIP3    H136250   6.749   5.757   2.970 -0.2023  0.2638  0.0153
 4897TIP3    H236251   6.794   5.684   3.094 -0.4998  0.7391  0.4064
 4898TIP3   OH236252   5.697   1.100   2.294  0.0882  0.1384  0.4031
 4898TIP3    H136253   5.718   1.070   2.383  1.0739 -2.9494 -0.7420
 4898TIP3    H236254   5.611   1.060   2.276  0.7036 -0.7834 -0.6085
 4899TIP3   OH236255   3.403   4.584   0.621  0.1053 -0.2550 -0.1629
 4899TIP3    H136256   3.424   4.491   0.624  2.0986  0.1659  0.8170
 4899TIP3    H236257   3.478   4.627   0.662 -1.5098  1.6843  0.9584
 4900TIP3   OH236258   2.976   4.877   7.677  0.3953 -0.1204  0.1744
 4900TIP3    H136259   2.946   4.866   7.767  1.0159 -0.3479  0.3566
 4900TIP3    H236260   2.897   4.865   7.624  0.2458 -1.2870  0.6205
 4901TIP3   OH236261   4.323   2.822   7.190 -0.2832  0.3409 -0.4242
 4901TIP3    H136262   4.410   2.793   7.216 -0.0836  0.9219 -0.4580
 4901TIP3    H236263   4.294   2.880   7.260 -0.8264 -0.1869 -0.1918
 4902TIP3   OH236264   3.865   6.726   2.749 -0.0794  0.6729 -0.2466
 4902TIP3    H136265   3.789   6.741   2.804  0.0624 -0.1299  0.1825
 4902TIP3    H236266   3.831   6.731   2.659 -1.0660 -1.5487 -0.0771
 4903TIP3   OH236267   3.067   6.277   0.680 -0.0377  0.8679  0.1821
 4903TIP3    H136268   2.992   6.305   0.628 -1.3542 -0.5934  1.2545
 4903TIP3    H236269   3.136   6.341   0.657 -1.3452  1.8105 -1.3475
 4904TIP3   OH236270   4.782   6.365   2.274 -0.1048 -0.0493 -0.2995
 4904TIP3    H136271   4.691   6.370   2.245 -0.8059 -0.7254  1.6359
 4904TIP3    H236272   4.797   6.272   2.291  1.3404 -0.1094 -1.6588
 4905TIP3   OH236273   6.777   4.468   0.933  0.5866  0.0067 -0.4786
 4905TIP3    H136274   6.686   4.453   0.956  0.7330  1.0218  0.8358
 4905TIP3    H236275   6.776   4.487   0.839 -0.5794  0.2775 -0.4175
 4906TIP3   OH236276   3.243   6.217   7.674 -0.5586  0.2162 -0.4384
 4906TIP3    H136277   3.221   6.242   7.585  0.0933  2.0565 -0.1279
 4906TIP3    H236278   3.231   6.122   7.676 -2.7687  0.4044 -1.8366
 4907TIP3   OH236279   5.252   5.197   1.487 -0.5546 -0.3426  0.4280
 4907TIP3    H136280   5.179   5.197   1.425 -0.5641 -1.7660  0.3955
 4907TIP3    H236281   5.214   5.161   1.567  0.0906 -1.0484  0.4258
 4908TIP3   OH236282   3.600   3.317   7.146  0.1807  0.0119 -0.3249
 4908TIP3    H136283   3.679   3.348   7.103 -1.2170  1.6417 -1.8432
 4908TIP3    H236284   3.598   3.223   7.128  1.0241  0.2034 -1.5111
 4909TIP3   OH236285   4.440   0.487   2.452  0.5425  0.4577 -0.1362
 4909TIP3    H136286   4.496   0.491   2.374 -0.8423  0.7299 -1.1431
 4909TIP3    H236287   4.442   0.395   2.478  1.7364  0.5251  0.0657
 4910TIP3   OH236288   5.396   1.530   2.447  0.4747  0.7191  0.1528
 4910TIP3    H136289   5.460   1.467   2.413 -2.1164 -2.1833  0.1167
 4910TIP3    H236290   5.428   1.552   2.534  1.5170 -0.7035  0.1780
 4911TIP3   OH236291   3.232   6.226   1.184 -0.1735 -0.0098 -0.1414
 4911TIP3    H136292   3.198   6.278   1.111 -2.1430 -0.7894  0.1470
 4911TIP3    H236293   3.302   6.173   1.145  0.1973  1.0544 -0.9745
 4912TIP3   OH236294   3.731   2.571   0.943 -0.0921  0.0260  0.3982
 4912TIP3    H136295   3.780   2.526   1.012 -1.9345 -1.3335  0.8945
 4912TIP3    H236296   3.792   2.637   0.910  1.9263 -1.3283  1.2098
 4913TIP3   OH236297   5.260   6.878   1.709  0.1641  0.0681 -0.0715
 4913TIP3    H136298   5.300   6.823   1.777  2.0534  0.9545 -0.3894
 4913TIP3    H236299   5.329   6.888   1.644 -0.7379  1.3799 -0.8602
 4914TIP3   OH236300   0.758   5.588   7.323  0.3957  0.3737  0.3194
 4914TIP3    H136301   0.689   5.528   7.294  0.8348  0.2787 -0.5524
 4914TIP3    H236302   0.726   5.675   7.298  0.7049  0.3055 -0.3336
 4915TIP3   OH236303   2.748   5.934   0.721  0.4753 -0.7659  0.4264
 4915TIP3    H136304   2.657   5.935   0.753  0.2899  0.1904 -0.0896
 4915TIP3    H236305   2.790   5.865   0.771 -0.5598 -1.2762  0.6286
 4916TIP3   OH236306   3.024   6.291   2.315  0.8455  0.0027  0.2075
 4916TIP3    H136307   3.117   6.289   2.341  0.2646 -1.0143  2.5108
 4916TIP3    H236308   3.010   6.207   2.271  1.3561  0.8725 -1.7225
 4917TIP3   OH236309   1.231   6.783   2.022 -0.6424  0.2450 -0.6460
 4917TIP3    H136310   1.201   6.857   2.076 -0.8920 -0.4846  0.2418
 4917TIP3    H236311   1.198   6.706   2.067  1.8100 -0.5728 -0.0832
 4918TIP3   OH236312   3.819   5.842   2.359  0.0285 -0.0319 -0.4787
 4918TIP3    H136313   3.795   5.914   2.301 -0.0419 -1.4346 -2.2532
 4918TIP3    H236314   3.897   5.803   2.319  0.5262 -0.4950  0.8704
 4919TIP3   OH236315   2.766   4.859   8.171 -0.4045 -0.2780  0.1728
 4919TIP3    H136316   2.773   4.775   8.126 -0.8970 -1.7108  2.5891
 4919TIP3    H236317   2.715   4.840   8.250 -0.2692  2.2319  0.9572
 4920TIP3   OH236318   6.355   0.240   0.238 -0.7560 -0.1542 -0.3555
 4920TIP3    H136319   6.438   0.198   0.213 -0.3059  1.1627 -1.1898
 4920TIP3    H236320   6.287   0.181   0.205 -0.1948 -1.9035  1.4658
 4921TIP3   OH236321   0.627   6.498   8.195 -0.0423  0.0082 -0.0770
 4921TIP3    H136322   0.716   6.512   8.161 -0.1288  1.3928  0.2138
 4921TIP3    H236323   0.640   6.483   8.289 -0.1814  1.4321  0.1912
 4922TIP3   OH236324   1.505   5.144   3.384 -0.3302  0.0143  0.2446
 4922TIP3    H136325   1.588   5.158   3.338 -1.1402 -2.0590 -2.0993
 4922TIP3    H236326   1.470   5.232   3.397  1.4038  0.8427 -0.3093
 4923TIP3   OH236327   4.056   6.674   0.824 -0.2659  0.4968  0.2829
 4923TIP3    H136328   4.079   6.621   0.900 -1.5701  1.1491  1.1469
 4923TIP3    H236329   4.140   6.687   0.779  0.2602 -1.3394  0.6380
 4924TIP3   OH236330   3.936   0.934   8.007 -0.0405 -0.0788  0.3627
 4924TIP3    H136331   3.923   0.990   8.084 -0.1511 -0.8455  0.9121
 4924TIP3    H236332   3.848   0.900   7.988 -0.1198  0.5338 -0.4548
 4925TIP3   OH236333   1.362   3.763   0.459 -0.5252  0.1314 -0.1222
 4925TIP3    H136334   1.369   3.677   0.417 -0.2431  0.2785 -0.3855
 4925TIP3    H236335   1.374   3.745   0.552 -0.5252 -0.1233 -0.1697
 4926TIP3   OH236336   0.852   1.511   7.514 -0.5376  0.4451  0.3227
 4926TIP3    H136337   0.797   1.437   7.486  0.0811  0.3803 -0.8049
 4926TIP3    H236338   0.918   1.519   7.445  0.1648  1.2657  1.0585
 4927TIP3   OH236339   5.121   0.601   2.405  0.5223 -0.6849 -0.0456
 4927TIP3    H136340   5.139   0.579   2.314 -3.5867 -0.6620 -1.0767
 4927TIP3    H236341   5.092   0.519   2.445 -0.5069 -0.1307  0.3813
 4928TIP3   OH236342   2.549   3.532   0.423 -0.0408 -0.4115  0.7457
 4928TIP3    H136343   2.575   3.476   0.497  1.6925 -0.7938 -0.0889
 4928TIP3    H236344   2.570   3.621   0.452  1.0246 -0.5982  0.5893
 4929TIP3   OH236345   2.586   5.715   0.094  0.2737 -0.3756  0.0963
 4929TIP3    H136346   2.578   5.643   0.156 -1.5443  0.2080  0.6190
 4929TIP3    H236347   2.495   5.737   0.071  0.8636  0.1706 -1.9093
 4930TIP3   OH236348   0.738   5.700   1.635  0.4133 -0.0468  0.2406
 4930TIP3    H136349   0.829   5.690   1.607  0.6446  0.9289  0.5946
 4930TIP3    H236350   0.711   5.784   1.598 -0.3189 -0.2872  0.2183
 4931TIP3   OH236351   1.443   6.394   1.324  0.2222 -0.3179  0.3742
 4931TIP3    H136352   1.530   6.410   1.361 -0.4932  1.9286  1.2906
 4931TIP3    H236353   1.405   6.482   1.314 -1.3007 -1.1354 -1.6330
 4932TIP3   OH236354   1.367   3.356   2.220  0.3353 -0.2826  0.1785
 4932TIP3    H136355   1.409   3.396   2.143  1.9461 -0.5018  0.9062
 4932TIP3    H236356   1.395   3.410   2.294  0.0029 -0.9397  0.7959
 4933TIP3   OH236357   1.365   2.383   3.078 -0.3317  0.0200 -0.5496
 4933TIP3    H136358   1.369   2.453   3.143 -1.1038 -1.8662  1.6910
 4933TIP3    H236359   1.456   2.370   3.051 -0.1146  1.4799 -0.5830
 4934TIP3   OH236360   5.692   4.319   2.794 -0.0641  0.3925  0.0995
 4934TIP3    H136361   5.715   4.329   2.702  2.2434 -0.8983  0.4623
 4934TIP3    H236362   5.746   4.247   2.825 -1.1137  0.4793  2.3806
 4935TIP3   OH236363   5.860   5.448   1.477 -0.0958 -0.1179 -0.1657
 4935TIP3    H136364   5.849   5.543   1.479 -1.4586 -0.2651  1.7416
 4935TIP3    H236365   5.952   5.435   1.451  0.7601  1.8114  1.6075
 4936TIP3   OH236366   1.870   6.722   7.965  0.0825  0.1903  0.2505
 4936TIP3    H136367   1.844   6.636   7.932 -0.9064  0.8469 -0.7422
 4936TIP3    H236368   1.918   6.762   7.893 -0.8169  1.0667  0.1160
 4937TIP3   OH236369   1.706   2.724   1.194  0.2003  0.2982  0.4827
 4937TIP3    H136370   1.682   2.631   1.194 -2.8320  0.9576 -0.5506
 4937TIP3    H236371   1.630   2.769   1.230  1.5114  2.4243  0.7784
 4938TIP3   OH236372   6.008   2.728   0.682 -0.2389  0.0146  0.1070
 4938TIP3    H136373   5.989   2.663   0.750  0.5293 -0.0847  0.2365
 4938TIP3    H236374   5.925   2.774   0.669 -0.8270 -1.0571 -0.0670
 4939TIP3   OH236375   1.978   6.086   1.468  0.5476  0.1474 -0.2363
 4939TIP3    H136376   2.037   6.135   1.525 -2.3032  0.8639  2.3558
 4939TIP3    H236377   1.959   6.145   1.395  1.6264  0.5688 -0.1920
 4940TIP3   OH236378   3.357   6.338   0.503 -0.2466  0.0058  0.1829
 4940TIP3    H136379   3.435   6.307   0.549  0.6514 -1.1487 -1.9784
 4940TIP3    H236380   3.391   6.397   0.436 -1.3112  0.1717 -0.2226
 4941TIP3   OH236381   1.746   5.191   2.625  0.4579 -0.2252  0.0097
 4941TIP3    H136382   1.780   5.250   2.558  0.0867  0.2862  0.2645
 4941TIP3    H236383   1.716   5.249   2.695  0.7021 -0.7471  0.5531
 4942TIP3   OH236384   1.477   0.692   8.034 -0.3832  0.4645 -0.4928
 4942TIP3    H136385   1.517   0.629   7.974 -0.7260 -0.4736  0.2462
 4942TIP3    H236386   1.452   0.765   7.977  1.4920  0.6823 -1.1168
 4943TIP3   OH236387   0.934   5.689   2.778 -0.1730 -0.6003  0.0313
 4943TIP3    H136388   0.987   5.662   2.703 -1.8848 -2.8602 -0.4643
 4943TIP3    H236389   0.988   5.667   2.854 -0.4473 -3.2475 -0.4458
 4944TIP3   OH236390   3.217   1.305   3.118  0.6338  0.3185  0.0560
 4944TIP3    H136391   3.184   1.391   3.143 -0.8487 -0.5449  1.2437
 4944TIP3    H236392   3.206   1.251   3.196  0.7145 -1.1780 -0.9179
 4945TIP3   OH236393   5.984   3.811   2.454  0.7494  0.3990  0.5238
 4945TIP3    H136394   6.051   3.744   2.470 -1.0532 -1.4676  0.7267
 4945TIP3    H236395   5.990   3.870   2.529  1.7312 -0.0997  0.8537
 4946TIP3   OH236396   2.579   3.358   1.173 -0.0618  0.1894 -0.2193
 4946TIP3    H136397   2.596   3.306   1.251 -2.3423  0.9547  0.8639
 4946TIP3    H236398   2.642   3.430   1.179  0.9048 -0.6390 -0.0089
 4947TIP3   OH236399   6.697   6.160   1.227  0.1248  0.0769 -0.0513
 4947TIP3    H136400   6.703   6.082   1.283  0.0011 -1.0836 -1.6069
 4947TIP3    H236401   6.730   6.132   1.142 -1.2137  1.3163 -1.0401
 4948TIP3   OH236402   1.793   6.250   0.625  0.0258 -1.1088  0.1421
 4948TIP3    H136403   1.778   6.339   0.656  0.1173 -1.3069  0.7785
 4948TIP3    H236404   1.718   6.231   0.568 -0.4037 -0.9042  0.6291
 4949TIP3   OH236405   2.579   1.506   7.658 -0.1346  0.2487 -0.0787
 4949TIP3    H136406   2.589   1.433   7.597  0.9875  0.6425 -0.4084
 4949TIP3    H236407   2.667   1.544   7.663 -0.4506  0.8770  0.9672
 4950TIP3   OH236408   6.635   6.959   8.314 -0.0116  0.6104  0.1423
 4950TIP3    H136409   6.707   6.997   8.364  0.3084 -0.0598  0.2022
 4950TIP3    H236410   6.675   6.932   8.231  0.3022 -1.5976  0.9308
 4951TIP3   OH236411   2.046   3.164   0.241 -0.0242  0.0666  0.3670
 4951TIP3    H136412   2.136   3.191   0.222 -0.1186  0.4286  0.4375
 4951TIP3    H236413   2.054   3.072   0.267  0.1939 -0.2382 -0.7045
 4952TIP3   OH236414   1.741   1.974   0.783 -0.1039 -0.0759 -0.3601
 4952TIP3    H136415   1.685   2.003   0.711 -1.1856  2.3795  1.3379
 4952TIP3    H236416   1.697   1.896   0.817 -0.7039 -0.0668 -1.0783
 4953TIP3   OH236417   5.586   1.960   8.348 -0.0714  0.8182  0.3263
 4953TIP3    H136418   5.498   1.954   8.311 -1.0812  0.1801  2.6658
 4953TIP3    H236419   5.616   2.048   8.326 -0.3888  0.3330 -2.3008
 4954TIP3   OH236420   5.425   5.814   1.944 -0.2821 -0.2185  0.2966
 4954TIP3    H136421   5.485   5.877   1.983  0.8281 -1.3626  0.5347
 4954TIP3    H236422   5.352   5.866   1.910  0.4102  1.1227  0.8224
 4955TIP3   OH236423   0.345   6.922   2.065  0.0249 -0.1040  0.0366
 4955TIP3    H136424   0.266   6.885   2.104  0.6898 -0.7897  0.7851
 4955TIP3    H236425   0.368   6.860   1.996 -1.7074  1.6160 -2.2310
 4956TIP3   OH236426   1.867   5.422   8.424  0.0383 -0.1377 -0.0657
 4956TIP3    H136427   1.835   5.498   8.473 -0.2327  0.2748 -0.8604
 4956TIP3    H236428   1.829   5.433   8.337  3.7201  1.3877 -1.7076
 4957TIP3   OH236429   1.432   4.085   3.401  0.1393 -0.1811  0.2358
 4957TIP3    H136430   1.365   4.150   3.380  0.2004 -0.7171 -1.8138
 4957TIP3    H236431   1.382   4.012   3.439 -0.3799 -0.3146 -0.6688
 4958TIP3   OH236432   3.019   1.369   1.999 -0.7152 -0.1254  0.3218
 4958TIP3    H136433   3.002   1.282   1.963  0.5266 -0.0579 -0.4724
 4958TIP3    H236434   3.113   1.370   2.017 -0.4548  1.4788 -0.8899
 4959TIP3   OH236435   6.298   0.810   2.604  0.0727  0.0699  0.0993
 4959TIP3    H136436   6.308   0.897   2.641 -0.3810 -0.1220  0.6769
 4959TIP3    H236437   6.344   0.752   2.665 -1.3266 -0.3465  0.8043
 4960TIP3   OH236438   6.277   2.598   0.528  0.7215  0.2512  0.0981
 4960TIP3    H136439   6.367   2.590   0.496  0.4534 -0.5434 -0.4985
 4960TIP3    H236440   6.268   2.690   0.551  0.3561  1.4447 -3.9715
 4961TIP3   OH236441   1.340   6.308   8.325 -0.0149  0.5177  0.5215
 4961TIP3    H136442   1.378   6.232   8.370  1.2734  1.0194  0.3117
 4961TIP3    H236443   1.245   6.297   8.337  0.1800 -0.7043  1.1620
 4962TIP3   OH236444   5.562   6.067   2.401  0.7855 -0.4641  0.5309
 4962TIP3    H136445   5.637   6.008   2.405 -0.4837 -2.1101  1.5291
 4962TIP3    H236446   5.597   6.152   2.429  2.7030 -0.6249 -1.1279
 4963TIP3   OH236447   6.582   6.181   8.435  0.3151  0.5516 -0.6110
 4963TIP3    H136448   6.583   6.088   8.411 -0.8817  0.9147 -2.2335
 4963TIP3    H236449   6.674   6.203   8.450  0.5205 -1.2243  1.3131
 4964TIP3   OH236450   3.193   0.318   2.743  0.2992 -0.3037  0.3794
 4964TIP3    H136451   3.156   0.371   2.673 -1.9604 -1.6633  0.4293
 4964TIP3    H236452   3.270   0.277   2.705 -0.4821 -0.4689 -1.0946
 4965TIP3   OH236453   6.690   0.831   2.449  0.0836 -0.1578  0.2291
 4965TIP3    H136454   6.768   0.846   2.503  0.8064  0.7867 -1.0288
 4965TIP3    H236455   6.634   0.907   2.466  0.3837  0.2231 -0.4401
 4966TIP3   OH236456   5.998   3.982   1.568  0.1529 -0.1739  0.0949
 4966TIP3    H136457   5.919   3.991   1.620  0.1804  0.2389  0.0659
 4966TIP3    H236458   5.991   4.050   1.500 -0.6991 -1.7721 -1.5183
 4967TIP3   OH236459   4.943   0.965   1.412 -0.9546 -0.6263 -0.1613
 4967TIP3    H136460   4.972   0.874   1.414 -2.7329 -1.2051  0.4260
 4967TIP3    H236461   4.857   0.962   1.372 -1.1741  0.7584  0.1669
 4968TIP3   OH236462   5.461   3.776   1.043 -0.3305 -0.1648 -0.3180
 4968TIP3    H136463   5.516   3.706   1.008  0.2198  0.7827 -1.4025
 4968TIP3    H236464   5.520   3.851   1.050 -0.8993  0.2004  0.8755
 4969TIP3   OH236465   5.780   4.295   0.898  0.0851 -0.5390  0.0194
 4969TIP3    H136466   5.745   4.263   0.981 -2.3916  0.6978 -0.4614
 4969TIP3    H236467   5.805   4.215   0.850  1.7154 -1.2663  1.9272
 4970TIP3   OH236468   5.748   1.392   8.009 -0.1293  0.8878  0.1869
 4970TIP3    H136469   5.734   1.443   8.089  1.8966  0.4416  0.8722
 4970TIP3    H236470   5.842   1.376   8.006 -0.5960 -2.4352 -0.2359
 4971TIP3   OH236471   3.123   4.728   7.497 -0.1199  0.0434 -1.2493
 4971TIP3    H136472   3.052   4.680   7.454 -1.1482  1.9680 -1.8343
 4971TIP3    H236473   3.079   4.786   7.559  1.2800 -2.0568  1.9594
 4972TIP3   OH236474   1.109   4.713   2.083 -0.4602 -0.2030  0.1664
 4972TIP3    H136475   1.087   4.624   2.110  0.6015 -0.6145 -0.2603
 4972TIP3    H236476   1.161   4.702   2.004 -0.6444  0.8218 -0.1086
 4973TIP3   OH236477   5.051   6.199   0.494  0.7656  0.0516  0.0906
 4973TIP3    H136478   5.071   6.270   0.433 -2.0703  0.9474  0.0464
 4973TIP3    H236479   5.037   6.123   0.438 -3.2509  1.1879 -0.7462
 4974TIP3   OH236480   2.559   6.485   1.816 -0.1157 -0.0413 -0.8881
 4974TIP3    H136481   2.543   6.549   1.746 -0.5810 -0.7953 -1.4809
 4974TIP3    H236482   2.581   6.404   1.770 -0.6979 -0.6187 -0.1743
 4975TIP3   OH236483   1.055   5.269   2.025 -0.4236  0.0624  0.0617
 4975TIP3    H136484   1.043   5.322   2.103  0.2301 -1.2105  1.0615
 4975TIP3    H236485   0.990   5.199   2.033 -1.6762  0.9726 -1.5293
 4976TIP3   OH236486   2.397   2.136   1.587 -0.7946  0.3123 -0.1532
 4976TIP3    H136487   2.436   2.216   1.622  0.6682  0.0122 -1.0228
 4976TIP3    H236488   2.450   2.065   1.622 -1.4970 -0.2333 -0.1558
 4977TIP3   OH236489   1.627   2.888   2.663 -0.9510  0.5053 -0.1889
 4977TIP3    H136490   1.631   2.796   2.638 -0.7008  0.2567  0.7180
 4977TIP3    H236491   1.534   2.906   2.673 -0.9838  0.2297  0.0358
 4978TIP3   OH236492   3.874   5.683   8.324 -0.1611 -0.0783  0.2339
 4978TIP3    H136493   3.816   5.756   8.299 -1.2421 -0.9582  0.1012
 4978TIP3    H236494   3.842   5.609   8.272 -0.1496 -1.0644  1.5989
 4979TIP3   OH236495   0.135   1.046   0.672  0.5052  0.4548  0.2820
 4979TIP3    H136496   0.104   0.999   0.594  0.1805  1.2418 -0.0667
 4979TIP3    H236497   0.097   1.133   0.665 -0.9889  0.0218  2.2450
 4980TIP3   OH236498   6.771   3.614   1.178 -0.2750 -0.0697 -0.6203
 4980TIP3    H136499   6.812   3.549   1.234  1.4188  0.7809 -0.8274
 4980TIP3    H236500   6.698   3.648   1.231  0.2806 -0.4426  0.4115
 4981TIP3   OH236501   4.995   0.996   7.932  0.0455 -0.1162  0.7632
 4981TIP3    H136502   4.935   0.922   7.937 -0.1459 -0.0213  0.0176
 4981TIP3    H236503   4.949   1.060   7.878  1.8660 -1.1174 -2.2245
 4982TIP3   OH236504   6.417   2.323   0.113  0.2179  0.3189 -0.1029
 4982TIP3    H136505   6.330   2.363   0.118 -0.0821 -0.3317  0.0838
 4982TIP3    H236506   6.478   2.396   0.122 -0.3070  0.7817 -0.1994
 4983TIP3   OH236507   5.462   1.502   1.195  0.1042 -0.1749 -0.6978
 4983TIP3    H136508   5.554   1.520   1.179  0.2473  0.1946  0.4805
 4983TIP3    H236509   5.424   1.586   1.221 -0.3698 -0.4983 -0.3125
 4984TIP3   OH236510   0.652   5.696   2.442 -0.0985  0.2572 -0.2853
 4984TIP3    H136511   0.673   5.628   2.378  1.1013 -0.2089  0.5653
 4984TIP3    H236512   0.611   5.765   2.390 -0.6196 -0.7686 -1.2948
 4985TIP3   OH236513   0.828   2.553   0.079 -0.1953 -0.3231 -0.0532
 4985TIP3    H136514   0.827   2.497   0.001  0.6624  0.2108 -0.4665
 4985TIP3    H236515   0.910   2.530   0.124 -0.1041  0.2020  0.0589
 4986TIP3   OH236516   1.535   6.836   2.357  0.4948 -0.2152 -0.9708
 4986TIP3    H136517   1.555   6.924   2.387  1.4174 -0.1460 -1.7739
 4986TIP3    H236518   1.499   6.792   2.435 -1.4223  1.2835 -0.9271
 4987TIP3   OH236519   4.684   3.033   2.648  0.2688  0.2610  0.9574
 4987TIP3    H136520   4.767   3.016   2.603 -0.4967  0.3479 -0.5716
 4987TIP3    H236521   4.639   2.948   2.649  0.6906  0.0404  2.4893
 4988TIP3   OH236522   5.974   0.745   0.709 -0.1704  0.2092  0.1154
 4988TIP3    H136523   5.964   0.791   0.626 -1.8520  0.6394  0.5211
 4988TIP3    H236524   5.948   0.655   0.689  2.4902 -0.5131 -0.5220
 4989TIP3   OH236525   5.671   6.646   1.026 -0.2129 -0.0785  0.4995
 4989TIP3    H136526   5.576   6.640   1.026 -0.3519  1.5583 -0.4976
 4989TIP3    H236527   5.692   6.707   0.955  1.5669 -0.1484  0.8951
 4990TIP3   OH236528   2.563   2.689   7.798 -0.2913  0.3665  0.5638
 4990TIP3    H136529   2.580   2.725   7.885 -2.6403  0.2174  1.1696
 4990TIP3    H236530   2.532   2.764   7.746 -3.1255 -0.2433  1.2074
 4991TIP3   OH236531   4.039   4.622   1.008 -0.1175 -0.0892  0.1802
 4991TIP3    H136532   3.960   4.571   1.030 -0.1795 -1.2784 -2.4872
 4991TIP3    H236533   4.006   4.710   0.991 -0.8020 -0.4481 -0.4025
 4992TIP3   OH236534   5.632   4.598   0.682 -0.0811 -0.5855 -0.0843
 4992TIP3    H136535   5.639   4.589   0.587  0.5366  0.1180 -0.1136
 4992TIP3    H236536   5.708   4.551   0.716  1.7210  2.0859 -0.1279
 4993TIP3   OH236537   4.353   4.479   1.309 -0.4565  0.1927  0.1603
 4993TIP3    H136538   4.345   4.539   1.235  1.3449 -0.2961 -0.4880
 4993TIP3    H236539   4.412   4.523   1.370  0.2910 -0.5573  0.0109
 4994TIP3   OH236540   6.540   2.543   0.445 -0.0736 -0.0690  0.7957
 4994TIP3    H136541   6.552   2.609   0.513  0.5166 -1.3488  1.9768
 4994TIP3    H236542   6.523   2.462   0.493 -0.4449 -0.8521 -0.6080
 4995TIP3   OH236543   4.753   4.910   7.826  0.3708  0.5740 -0.1322
 4995TIP3    H136544   4.706   4.918   7.742  1.3852  2.9938 -0.5329
 4995TIP3    H236545   4.844   4.927   7.804  1.1160 -1.5556  1.0628
 4996TIP3   OH236546   4.589   2.004   1.998 -0.0817 -0.3190  0.2232
 4996TIP3    H136547   4.582   1.925   1.943  0.9967 -0.4778  0.2770
 4996TIP3    H236548   4.585   2.077   1.936  0.4097 -0.4764 -0.0045
 4997TIP3   OH236549   1.526   5.748   3.048  0.2353  0.3848  0.3229
 4997TIP3    H136550   1.525   5.843   3.056  0.1801  0.2501  2.4847
 4997TIP3    H236551   1.619   5.725   3.053  0.2359  0.2891 -0.0390
 4998TIP3   OH236552   3.287   2.913   0.147  0.1653 -0.1723 -0.2636
 4998TIP3    H136553   3.227   2.843   0.123 -1.1668  1.2617 -1.2921
 4998TIP3    H236554   3.370   2.890   0.105  0.5009 -2.3008  1.3673
 4999TIP3   OH236555   2.616   3.335   7.271  0.3107  0.3955  0.1562
 4999TIP3    H136556   2.616   3.274   7.198 -1.3513  0.2000  0.2760
 4999TIP3    H236557   2.628   3.421   7.232 -1.4143  0.3841 -0.4752
 5000TIP3   OH236558   1.958   3.026   1.180 -0.1197  0.4624  0.1241
 5000TIP3    H136559   1.896   3.052   1.248 -1.5209  1.6594 -1.5288
 5000TIP3    H236560   1.964   3.102   1.122  0.4850 -0.7497 -1.4832
 5001TIP3   OH236561   3.339   5.054   1.851  0.2574 -0.3425  0.2677
 5001TIP3    H136562   3.303   5.011   1.774 -0.2616 -0.5766  0.6367
 5001TIP3    H236563   3.434   5.057   1.834  0.3097 -1.5945  0.2041
 5002TIP3   OH236564   1.294   5.349   0.137  0.1844  0.0894  0.4697
 5002TIP3    H136565   1.355   5.376   0.206 -0.5787 -1.3622  1.8001
 5002TIP3    H236566   1.348   5.339   0.059  1.5362 -0.5133  1.4459
 5003TIP3   OH236567   4.620   0.425   1.489  0.3046  0.6100  0.1032
 5003TIP3    H136568   4.683   0.486   1.449 -1.0379  1.9143 -0.1327
 5003TIP3    H236569   4.626   0.443   1.583  1.4447 -0.4544  0.2542
 5004TIP3   OH236570   1.220   4.906   8.417  0.3311 -0.8391 -0.1948
 5004TIP3    H136571   1.204   4.891   8.510  0.1056 -1.0612 -0.2657
 5004TIP3    H236572   1.192   4.996   8.402  0.8779 -0.6260  0.0614
 5005TIP3   OH236573   1.607   4.296   0.413 -0.7330  0.1018 -0.3919
 5005TIP3    H136574   1.626   4.357   0.484 -1.2021  0.0076 -0.1793
 5005TIP3    H236575   1.513   4.279   0.422 -1.2865  1.7057 -2.2580
 5006TIP3   OH236576   2.653   1.677   2.942 -0.3719 -0.7474  0.0891
 5006TIP3    H136577   2.619   1.673   3.032 -0.0424  0.3265  0.2715
 5006TIP3    H236578   2.685   1.588   2.925  1.4136 -0.4953  1.7875
 5007TIP3   OH236579   2.650   3.020   2.361  0.1326  0.1459  0.3716
 5007TIP3    H136580   2.734   3.046   2.324  0.4888 -1.4362 -0.0092
 5007TIP3    H236581   2.586   3.038   2.293  0.4282 -0.3408 -0.0390
 5008TIP3   OH236582   5.810   3.708   0.048 -0.8302 -0.0452  0.3489
 5008TIP3    H136583   5.724   3.673   0.072 -1.0437 -0.8515 -1.4117
 5008TIP3    H236584   5.849   3.640  -0.007  0.8260  0.4413  0.8438
 5009TIP3   OH236585   2.893   5.308   8.240  0.6034  0.2069  0.2538
 5009TIP3    H136586   2.866   5.227   8.284 -1.6154  1.6342  1.7004
 5009TIP3    H236587   2.811   5.352   8.218  1.7522  2.1878 -0.3070
 5010TIP3   OH236588   2.622   1.201   7.546 -0.2648 -0.3249  0.5447
 5010TIP3    H136589   2.531   1.203   7.516 -0.1159 -2.5663 -0.2584
 5010TIP3    H236590   2.671   1.161   7.474  0.8801 -1.6160  1.9602
 5011TIP3   OH236591   1.251   3.306   8.030  0.0065  0.6516 -0.0994
 5011TIP3    H136592   1.212   3.384   8.068 -1.2382  0.6964 -1.3728
 5011TIP3    H236593   1.177   3.249   8.009  0.8351 -0.5300  0.0616
 5012TIP3   OH236594   2.430   3.025   0.444  0.7661 -0.8514  0.2766
 5012TIP3    H136595   2.477   2.993   0.521 -2.0896  0.3188  2.7082
 5012TIP3    H236596   2.434   3.120   0.450 -0.4732 -0.7334 -0.3693
 5013TIP3   OH236597   5.639   4.957   2.706 -0.0965  0.4404 -0.2489
 5013TIP3    H136598   5.598   4.875   2.678 -1.5854  2.0015 -3.0761
 5013TIP3    H236599   5.570   5.004   2.752  0.7651  0.1458  1.4109
 5014TIP3   OH236600   2.171   2.494   1.204  0.2651 -0.0231  0.4696
 5014TIP3    H136601   2.168   2.443   1.285  1.0885 -0.0595  0.4843
 5014TIP3    H236602   2.084   2.534   1.198 -1.0246 -2.7178 -0.4071
 5015TIP3   OH236603   4.065   5.278   7.129 -0.2680  0.1150  0.2232
 5015TIP3    H136604   4.082   5.329   7.208  0.8278  0.3240 -0.1231
 5015TIP3    H236605   3.977   5.303   7.102 -1.0754 -0.7388  1.9514
 5016TIP3   OH236606   1.362   4.468   2.277 -0.5314 -0.3866  0.5091
 5016TIP3    H136607   1.279   4.507   2.305 -0.4242 -0.9660  1.7271
 5016TIP3    H236608   1.390   4.520   2.203 -1.4994  0.4369  0.7056
 5017TIP3   OH236609   3.373   4.219   7.039 -0.4501 -0.1509  0.5743
 5017TIP3    H136610   3.371   4.183   6.951  2.8060  0.3805  0.1709
 5017TIP3    H236611   3.374   4.142   7.097 -1.4110 -0.5083  0.1408
 5018TIP3   OH236612   0.953   1.333   1.845  0.1741 -0.1895  0.4291
 5018TIP3    H136613   1.039   1.331   1.803  0.2881  0.0136  0.6515
 5018TIP3    H236614   0.967   1.294   1.931 -0.0469 -0.5460  0.3036
 5019TIP3   OH236615   4.934   1.805   8.180  0.6320 -0.3345 -0.1632
 5019TIP3    H136616   4.914   1.777   8.091 -1.2754  1.4673 -0.3912
 5019TIP3    H236617   4.853   1.789   8.229 -0.1198  3.0689  0.0104
 5020TIP3   OH236618   6.053   2.658   0.958 -0.1950  0.0141  1.1501
 5020TIP3    H136619   6.093   2.635   1.042  0.2770  0.5530  1.0806
 5020TIP3    H236620   6.073   2.751   0.946  0.7638 -0.3133 -0.0902
 5021TIP3   OH236621   5.525   0.992   7.077 -0.0180  0.1349  0.2576
 5021TIP3    H136622   5.593   1.041   7.123 -0.5976 -0.0071  1.2714
 5021TIP3    H236623   5.452   1.054   7.070 -0.0137  0.0841 -0.2810
 5022TIP3   OH236624   3.734   4.705   0.592 -0.0137  0.4097 -0.2305
 5022TIP3    H136625   3.799   4.760   0.636  1.0482 -0.2312 -0.9567
 5022TIP3    H236626   3.735   4.623   0.641 -0.2740  0.3918 -0.2526
 5023TIP3   OH236627   3.500   3.027   3.415 -0.1718 -0.5233 -0.5726
 5023TIP3    H136628   3.418   3.075   3.419  0.0078 -0.2351 -0.2376
 5023TIP3    H236629   3.480   2.947   3.366 -0.9610 -1.0868  0.6407
 5024TIP3   OH236630   2.871   6.727   8.299  0.3103  0.8632 -0.6660
 5024TIP3    H136631   2.967   6.731   8.296  0.3647 -0.4600 -1.7530
 5024TIP3    H236632   2.844   6.818   8.313  1.7217  1.2509 -0.2824
 5025TIP3   OH236633   6.839   0.303   2.171  0.3386 -0.2144  0.2755
 5025TIP3    H136634   6.930   0.273   2.164  0.5426  0.3136  0.6019
 5025TIP3    H236635   6.843   0.397   2.150 -0.1238 -0.1835  0.3198
 5026TIP3   OH236636   4.671   3.073   7.717 -0.3679  0.4049 -0.5470
 5026TIP3    H136637   4.595   3.033   7.675 -1.0029  0.4029  0.5603
 5026TIP3    H236638   4.719   3.116   7.646 -1.4544  0.4927 -1.2365
 5027TIP3   OH236639   5.120   6.707   1.350  0.4483 -0.1860  0.7880
 5027TIP3    H136640   5.101   6.725   1.442  1.9538 -0.3880  1.1604
 5027TIP3    H236641   5.180   6.633   1.351  0.7067 -0.0210 -0.3521
 5028TIP3   OH236642   3.127   3.136   1.992  0.6863 -1.1718 -0.6574
 5028TIP3    H136643   3.166   3.207   2.043 -1.6835 -0.9166  0.9845
 5028TIP3    H236644   3.177   3.059   2.015  1.6574 -0.4966 -0.4397
 5029TIP3   OH236645   6.918   0.543   0.271  0.4587 -0.5739  0.3848
 5029TIP3    H136646   6.847   0.480   0.279  0.0640 -0.3138 -0.8991
 5029TIP3    H236647   6.985   0.511   0.332  1.8770 -4.4416 -2.7127
 5030TIP3   OH236648   2.095   4.165   0.475  0.0194  0.1418  0.1991
 5030TIP3    H136649   2.004   4.138   0.472 -0.3203  1.2453 -0.0680
 5030TIP3    H236650   2.114   4.177   0.568 -0.8256  2.1138  0.1704
 5031TIP3   OH236651   5.680   4.676   0.400 -0.1687 -0.0957  0.0533
 5031TIP3    H136652   5.703   4.583   0.399 -2.0575 -0.5955 -0.5753
 5031TIP3    H236653   5.664   4.698   0.308  1.2414  1.1650  0.0579
 5032TIP3   OH236654   5.703   0.846   8.312 -0.1266  0.0996 -0.2152
 5032TIP3    H136655   5.688   0.931   8.271 -0.4288 -0.1403 -0.6056
 5032TIP3    H236656   5.619   0.801   8.307 -0.0385 -0.1228  0.2295
 5033TIP3   OH236657   3.822   1.593   2.677 -0.9085 -0.6943 -0.1072
 5033TIP3    H136658   3.873   1.652   2.733  0.8517 -1.3478 -0.9460
 5033TIP3    H236659   3.867   1.595   2.593 -1.8241 -1.9164 -0.6589
 5034TIP3   OH236660   0.703   1.005   7.787 -0.0556 -0.2924 -0.9931
 5034TIP3    H136661   0.721   0.912   7.775 -1.3864 -0.5621 -1.1077
 5034TIP3    H236662   0.655   1.030   7.708  0.6963  0.6182 -1.1738
 5035TIP3   OH236663   1.716   6.436   1.469 -0.2518  0.2291 -0.0632
 5035TIP3    H136664   1.682   6.494   1.537  2.1518 -0.0880  1.5353
 5035TIP3    H236665   1.782   6.489   1.423 -1.6578  0.3582 -2.0771
 5036TIP3   OH236666   3.799   6.404   0.986  0.7137  0.7809  0.0426
 5036TIP3    H136667   3.804   6.322   1.036  1.5968  0.5035 -0.4834
 5036TIP3    H236668   3.865   6.395   0.918  2.4108  2.8103  1.2923
 5037TIP3   OH236669   5.508   6.196   0.086  0.0921 -0.1490  0.4341
 5037TIP3    H136670   5.418   6.229   0.079  0.8357  2.0230  0.2492
 5037TIP3    H236671   5.561   6.275   0.102  2.1612 -1.1360 -1.0986
 5038TIP3   OH236672   6.024   6.143   2.299 -0.6385  0.0905 -0.2991
 5038TIP3    H136673   6.078   6.216   2.329 -0.8970 -0.8001  2.6582
 5038TIP3    H236674   5.934   6.175   2.303 -0.7781 -0.4230  1.3198
 5039TIP3   OH236675   3.501   3.393   1.203 -0.2259 -0.1389  0.3554
 5039TIP3    H136676   3.447   3.399   1.125 -0.2290  1.1964  0.4416
 5039TIP3    H236677   3.552   3.313   1.191 -2.0138 -1.2905  0.1660
 5040TIP3   OH236678   4.382   5.131   2.439 -0.1249  0.7294  0.4073
 5040TIP3    H136679   4.320   5.152   2.509 -2.0964 -0.2197 -0.9521
 5040TIP3    H236680   4.444   5.204   2.440 -1.8755  2.3102  1.1881
 5041TIP3   OH236681   3.699   1.774   0.493 -0.2761  0.1567 -0.2447
 5041TIP3    H136682   3.684   1.683   0.471 -0.9974 -0.1635  1.3981
 5041TIP3    H236683   3.612   1.808   0.515  0.2415  0.6436  1.1645
 5042TIP3   OH236684   3.433   1.384   2.631 -0.1977 -0.0660 -0.0712
 5042TIP3    H136685   3.394   1.340   2.707  2.1683 -0.8325  0.8038
 5042TIP3    H236686   3.527   1.370   2.642  0.2903  0.9159 -2.5024
 5043TIP3   OH236687   3.656   1.084   2.372 -0.8106 -0.4739  0.0431
 5043TIP3    H136688   3.630   1.079   2.464 -0.3800  0.3179  0.2177
 5043TIP3    H236689   3.574   1.073   2.323 -1.3426  0.9350  0.5678
 5044TIP3   OH236690   3.256   0.818   2.971 -0.4238  0.2903 -0.3063
 5044TIP3    H136691   3.205   0.753   3.019 -0.8324 -0.3963 -1.6382
 5044TIP3    H236692   3.346   0.788   2.977 -0.6032 -0.3697 -0.8611
 5045TIP3   OH236693   1.337   3.009   2.919 -0.4344  0.1806 -0.4646
 5045TIP3    H136694   1.415   3.033   2.970 -1.6565  1.7558  0.7712
 5045TIP3    H236695   1.330   2.914   2.930 -0.2890  0.3791  1.8699
 5046TIP3   OH236696   5.764   4.059   2.498 -0.6131 -0.5039 -0.6443
 5046TIP3    H136697   5.761   4.151   2.473 -1.5831 -0.1024  0.7839
 5046TIP3    H236698   5.853   4.046   2.532 -0.1357 -0.3947 -1.8004
 5047TIP3   OH236699   2.929   1.566   1.699 -0.1334 -0.0448 -0.7855
 5047TIP3    H136700   2.888   1.480   1.703  0.2613 -0.1764  1.2578
 5047TIP3    H236701   2.914   1.604   1.785 -0.1933  1.9083 -1.6056
 5048TIP3   OH236702   3.437   2.090   2.803  0.1793  0.4028  0.5238
 5048TIP3    H136703   3.388   2.009   2.806  0.8846 -0.0206  0.8027
 5048TIP3    H236704   3.411   2.137   2.882 -0.3007  0.4973  0.3138
 5049TIP3   OH236705   6.186   3.143   8.235  0.4149 -0.2528 -0.0740
 5049TIP3    H136706   6.236   3.080   8.184  0.6408  0.3184 -0.5643
 5049TIP3    H236707   6.094   3.119   8.220  0.3278  1.2965 -2.6648
 5050TIP3   OH236708   0.932   4.486   2.122  0.0192  0.0440 -0.1853
 5050TIP3    H136709   0.909   4.396   2.098 -1.1093  0.1332  0.4709
 5050TIP3    H236710   0.866   4.540   2.079  1.0337  0.6314 -1.0583
 5051TIP3   OH236711   3.512   4.736   0.824  0.4602  0.6532  0.5022
 5051TIP3    H136712   3.470   4.789   0.892  0.9351 -0.3715  1.6438
 5051TIP3    H236713   3.603   4.766   0.822  0.6278  0.1840  0.8575
 5052TIP3   OH236714   5.226   0.787   8.066  0.4345 -0.4758 -1.0744
 5052TIP3    H136715   5.232   0.701   8.025  0.3628 -0.2991 -1.4656
 5052TIP3    H236716   5.145   0.784   8.116  0.7979 -0.8792 -0.4997
 5053TIP3   OH236717   0.434   3.869   0.130  0.0357 -0.0344 -0.0728
 5053TIP3    H136718   0.417   3.959   0.106 -0.9945  0.0149  0.8022
 5053TIP3    H236719   0.349   3.832   0.152  0.8138  0.1436  4.1720
 5054TIP3   OH236720   2.112   3.678   1.060 -0.4526 -0.0358 -0.3226
 5054TIP3    H136721   2.194   3.666   1.106 -0.6460 -1.1213 -0.2167
 5054TIP3    H236722   2.044   3.663   1.126 -0.7487  1.3402 -0.2922
 5055TIP3   OH236723   1.604   6.025   3.035 -0.2991  0.3058 -0.0148
 5055TIP3    H136724   1.695   5.999   3.031 -0.5957 -0.9347  0.8103
 5055TIP3    H236725   1.603   6.101   3.094  0.2295  0.5389 -0.3026
 5056TIP3   OH236726   3.740   2.917   3.203 -0.7576 -0.4228  1.3119
 5056TIP3    H136727   3.732   2.956   3.290 -2.8084 -0.3756  1.1624
 5056TIP3    H236728   3.668   2.855   3.198  1.3850 -3.0649  0.9032
 5057TIP3   OH236729   2.292   3.915   7.942  0.1965 -0.4073 -0.3219
 5057TIP3    H136730   2.365   3.976   7.955  1.1032 -0.7953 -3.0568
 5057TIP3    H236731   2.239   3.925   8.022  0.7948  3.2521 -0.1837
 5058TIP3   OH236732   1.755   4.032   8.136  0.2417 -0.1845  0.3981
 5058TIP3    H136733   1.682   3.971   8.139 -0.6720  0.7652 -1.1941
 5058TIP3    H236734   1.715   4.118   8.129  1.4981  0.3762 -0.3664
 5059TIP3   OH236735   0.144   0.149   0.110 -0.0858 -0.3081 -0.1254
 5059TIP3    H136736   0.219   0.203   0.137 -0.4235 -0.6294  1.5813
 5059TIP3    H236737   0.178   0.060   0.109 -0.1690 -0.3364 -0.4352
 5060TIP3   OH236738   0.572   1.914   0.222 -0.1903  0.2404 -0.4212
 5060TIP3    H136739   0.547   1.997   0.181 -0.8057 -0.4089 -1.4182
 5060TIP3    H236740   0.666   1.923   0.239 -0.5792  1.8452  1.2573
 5061TIP3   OH236741   4.170   1.550   3.674 -0.2334  0.3834  0.0070
 5061TIP3    H136742   4.199   1.468   3.713  0.4509  1.2492  1.4198
 5061TIP3    H236743   4.185   1.539   3.580 -1.6300 -1.6592 -0.0510
 5062TIP3   OH236744   6.107   1.414   3.020  0.4190 -0.1816 -0.2241
 5062TIP3    H136745   6.059   1.339   2.985  0.2535 -0.0919 -0.1924
 5062TIP3    H236746   6.165   1.442   2.949 -1.3277  1.2429 -1.1856
 5063TIP3   OH236747   1.243   2.173   1.434  0.0774  0.5481  0.1479
 5063TIP3    H136748   1.266   2.243   1.495 -1.8203  1.3588 -0.0129
 5063TIP3    H236749   1.200   2.217   1.361 -0.0483 -0.6709 -0.5475
 5064TIP3   OH236750   1.152   3.653   1.310 -0.0748 -0.4163 -0.4776
 5064TIP3    H136751   1.198   3.570   1.299 -0.1964 -0.3345 -1.6248
 5064TIP3    H236752   1.146   3.690   1.222  0.3940  1.0350  0.0594
 5065TIP3   OH236753   6.739   2.872   0.175  0.2980 -0.7031  0.0593
 5065TIP3    H136754   6.681   2.816   0.125 -0.3034 -1.0385  1.0928
 5065TIP3    H236755   6.814   2.817   0.197  0.1093 -0.8470  0.3451
 5066TIP3   OH236756   2.956   1.596   1.310 -0.4965 -0.4995  0.6795
 5066TIP3    H136757   2.885   1.546   1.351  0.0260 -0.7180  1.3322
 5066TIP3    H236758   2.919   1.684   1.300 -1.2798 -0.9031 -0.1111
 5067TIP3   OH236759   2.548   1.819   0.070 -1.1311 -0.2509  0.1060
 5067TIP3    H136760   2.529   1.909   0.045  1.9354  0.1722 -1.0890
 5067TIP3    H236761   2.512   1.766  -0.000  1.0198  0.4475 -1.6320
 5068TIP3   OH236762   6.830   3.616   0.882  0.2705 -0.0340 -0.4296
 5068TIP3    H136763   6.801   3.591   0.969  2.0218 -0.6496  0.0208
 5068TIP3    H236764   6.880   3.541   0.851  0.1616  0.4048 -1.7351
 5069TIP3   OH236765   6.366   2.679   2.793  0.2624 -0.2211 -0.1599
 5069TIP3    H136766   6.449   2.632   2.787 -0.7917 -2.2869  0.6128
 5069TIP3    H236767   6.323   2.663   2.709  1.3957  2.5345 -1.3915
 5070TIP3   OH236768   1.200   6.271   1.401  0.1044  0.2640  0.5733
 5070TIP3    H136769   1.181   6.196   1.345  1.2165 -0.3534  0.9780
 5070TIP3    H236770   1.291   6.293   1.381  1.2513 -1.2675  3.4869
 5071TIP3   OH236771   1.083   0.510   8.137 -0.0831  0.0906  0.0290
 5071TIP3    H136772   1.112   0.577   8.198  0.1654 -0.2165  0.2513
 5071TIP3    H236773   1.164   0.468   8.107 -0.1882  0.3285 -0.6191
 5072TIP3   OH236774   5.436   1.270   0.052  0.4740 -0.0004 -0.4251
 5072TIP3    H136775   5.357   1.247   0.003  1.1259 -0.2666 -1.3855
 5072TIP3    H236776   5.406   1.280   0.142 -1.0369  1.8358 -1.0523
 5073TIP3   OH236777   1.621   3.296   2.842  0.5012  0.2499  0.1890
 5073TIP3    H136778   1.654   3.212   2.874 -0.4783 -0.0624  0.4093
 5073TIP3    H236779   1.652   3.359   2.907  1.9404  0.1967 -0.4065
 5074TIP3   OH236780   0.722   0.552   1.345 -0.0822 -0.5676 -0.3225
 5074TIP3    H136781   0.783   0.481   1.328  1.1352 -0.2419  2.2045
 5074TIP3    H236782   0.642   0.508   1.373  0.3546 -0.9678  0.3227
 5075TIP3   OH236783   0.111   1.038   0.987  0.0676  0.4561 -0.6782
 5075TIP3    H136784   0.142   1.008   0.902  0.6291 -1.0631  0.0151
 5075TIP3    H236785   0.030   1.086   0.968  0.5339  0.7339 -2.1059
 5076TIP3   OH236786   4.888   3.226   7.828 -0.2853  0.6368  0.0233
 5076TIP3    H136787   4.854   3.209   7.740 -0.5090  0.9887  0.0390
 5076TIP3    H236788   4.812   3.258   7.877 -0.1284  0.5796  0.3042
 5077TIP3   OH236789   0.191   3.328   1.697 -0.5001  0.2915  0.2861
 5077TIP3    H136790   0.103   3.324   1.733 -0.7230  1.7976 -0.0304
 5077TIP3    H236791   0.187   3.277   1.616 -1.1059  0.4447  0.2171
 5078TIP3   OH236792   0.349   3.666   1.407  0.1827  0.0018  0.6310
 5078TIP3    H136793   0.386   3.729   1.469  2.1214  1.3642 -1.7352
 5078TIP3    H236794   0.256   3.689   1.402  0.6244  2.0128  0.6477
 5079TIP3   OH236795   2.384   4.675   2.537 -0.0429  0.3895 -0.0178
 5079TIP3    H136796   2.412   4.689   2.447  1.1647  1.4403  0.5017
 5079TIP3    H236797   2.358   4.761   2.569  1.0085  0.3149  1.1115
 5080TIP3   OH236798   0.531   5.463   1.355 -0.5159 -0.3442  0.2475
 5080TIP3    H136799   0.531   5.543   1.303  2.2751  0.1374  0.8381
 5080TIP3    H236800   0.590   5.404   1.308  1.9523  0.0375  2.6253
 5081TIP3   OH236801   3.887   4.972   0.218 -0.0142 -0.1106  0.6516
 5081TIP3    H136802   3.867   5.044   0.278  1.0300 -0.5355  1.5326
 5081TIP3    H236803   3.809   4.917   0.221 -0.4937  0.5471  0.5927
 5082TIP3   OH236804   5.080   4.621   1.492 -0.3234 -0.0390  0.2221
 5082TIP3    H136805   4.991   4.656   1.493  0.0130  0.9150 -0.7503
 5082TIP3    H236806   5.084   4.563   1.568 -1.0344  1.7826  1.7513
 5083TIP3   OH236807   1.469   2.613   0.426  0.3088 -0.2717 -0.8046
 5083TIP3    H136808   1.413   2.609   0.503  0.6043  2.3027 -0.3826
 5083TIP3    H236809   1.411   2.641   0.355  0.8730  1.8453 -0.4867
 5084TIP3   OH236810   6.252   2.111   7.664 -0.1882 -0.7753 -0.5864
 5084TIP3    H136811   6.282   2.142   7.578 -0.6316 -0.9373 -0.8027
 5084TIP3    H236812   6.218   2.023   7.647 -0.1604 -0.8567 -0.2201
 5085TIP3   OH236813   2.221   5.547   2.278  0.2945 -0.2908  0.2415
 5085TIP3    H136814   2.211   5.459   2.314  0.4528 -0.5043 -0.2258
 5085TIP3    H236815   2.255   5.599   2.350 -0.6754 -0.4041  0.7855
 5086TIP3   OH236816   0.468   0.248   7.320 -0.3253 -0.0584 -0.2582
 5086TIP3    H136817   0.377   0.239   7.348 -0.8826  0.7125 -1.6791
 5086TIP3    H236818   0.478   0.342   7.303  0.7806 -0.1214  0.0061
 5087TIP3   OH236819   2.999   0.774   2.588  0.0954 -0.2623  0.0539
 5087TIP3    H136820   3.005   0.680   2.604 -0.3884 -0.4199 -0.6223
 5087TIP3    H236821   2.906   0.794   2.595  0.1668  0.1170 -0.0614
 5088TIP3   OH236822   5.698   3.957   7.406 -0.5735  0.3859  0.6940
 5088TIP3    H136823   5.682   3.892   7.474  1.5205 -0.1419  0.7312
 5088TIP3    H236824   5.638   4.029   7.427 -3.7334 -1.8348  0.0656
 5089TIP3   OH236825   1.898   2.205   0.286  0.3467 -0.0792 -0.3079
 5089TIP3    H136826   1.803   2.213   0.284  0.2996 -0.1949  0.9354
 5089TIP3    H236827   1.920   2.166   0.201 -0.7042 -0.0903 -0.5945
 5090TIP3   OH236828   0.066   6.481   2.393  0.4359  0.1489  0.2353
 5090TIP3    H136829   0.021   6.560   2.425  0.5775  1.2149 -1.9957
 5090TIP3    H236830   0.006   6.409   2.413  0.0273  0.8693  1.7743
 5091TIP3   OH236831   1.712   0.365   1.938 -0.8654  0.0261 -0.1343
 5091TIP3    H136832   1.650   0.399   2.003 -0.0600  1.7301 -0.1821
 5091TIP3    H236833   1.690   0.412   1.858 -1.1626 -1.2812 -0.8455
 5092TIP3   OH236834   3.688   4.123   7.467 -0.0104  0.0015 -0.1044
 5092TIP3    H136835   3.687   4.047   7.409  1.7372  1.5039 -2.2955
 5092TIP3    H236836   3.777   4.128   7.499 -0.0622  1.1819 -0.1022
 5093TIP3   OH236837   0.605   1.724   2.231  0.3802 -0.2494  0.8005
 5093TIP3    H136838   0.542   1.752   2.165  1.3634  0.4259  0.1277
 5093TIP3    H236839   0.597   1.790   2.301 -0.6057 -0.9230  1.3467
 5094TIP3   OH236840   5.624   4.444   0.049 -0.2573 -0.1362 -0.1688
 5094TIP3    H136841   5.577   4.522   0.020  0.0748 -0.1262 -0.7034
 5094TIP3    H236842   5.700   4.439  -0.009  0.2646 -0.2945  0.5199
 5095TIP3   OH236843   1.728   5.092   3.025 -0.0884  0.3700 -0.0907
 5095TIP3    H136844   1.775   5.157   2.972  2.3581  0.7369  2.2923
 5095TIP3    H236845   1.725   5.131   3.112 -0.6059 -1.7440  0.8784
 5096TIP3   OH236846   2.758   5.143   7.865  0.1436  0.3913 -0.1597
 5096TIP3    H136847   2.698   5.069   7.854  0.2897  0.1413  0.6443
 5096TIP3    H236848   2.701   5.220   7.864 -0.1305  0.1924  0.0600
 5097TIP3   OH236849   2.330   3.351   2.602  0.1363 -0.1446  0.0541
 5097TIP3    H136850   2.408   3.397   2.633  1.6024 -1.3469 -1.6537
 5097TIP3    H236851   2.335   3.266   2.645 -0.9149  0.1830  0.8556
 5098TIP3   OH236852   4.026   3.439   8.252  0.7141 -0.4659 -0.0134
 5098TIP3    H136853   4.011   3.523   8.296  1.4453 -0.6676  0.6336
 5098TIP3    H236854   4.109   3.450   8.206  0.3202 -0.5097 -0.7529
 5099TIP3   OH236855   5.088   3.021   1.532 -0.6110  0.2408  0.0798
 5099TIP3    H136856   5.028   3.088   1.501  2.1667  2.8099 -0.2615
 5099TIP3    H236857   5.099   3.040   1.625  0.4275  0.5459 -0.0857
 5100TIP3   OH236858   1.906   1.236   8.397 -0.3223 -0.3976  0.1669
 5100TIP3    H136859   1.960   1.199   8.467 -0.0321 -0.2548  0.0169
 5100TIP3    H236860   1.925   1.330   8.397 -0.2625 -0.4069 -0.1543
 5101TIP3   OH236861   6.006   2.835   3.263 -0.1466  0.2651 -0.0397
 5101TIP3    H136862   5.937   2.899   3.281 -0.3114  0.4045 -1.1267
 5101TIP3    H236863   5.962   2.750   3.271 -0.5480  0.3644 -1.1297
 5102TIP3   OH236864   4.634   3.802   1.110  0.1480  0.1851 -0.3457
 5102TIP3    H136865   4.595   3.816   1.023  1.8082 -0.2962 -1.2033
 5102TIP3    H236866   4.661   3.711   1.110  1.0132  0.4289  0.3184
 5103TIP3   OH236867   0.395   2.212   2.988 -0.6350  0.4729  0.2757
 5103TIP3    H136868   0.301   2.202   2.970 -0.2541 -2.8236 -0.4725
 5103TIP3    H236869   0.413   2.149   3.057  1.2843 -0.1901 -0.7547
 5104TIP3   OH236870   2.422   0.047   1.094  0.1631 -0.2755 -0.1780
 5104TIP3    H136871   2.340   0.095   1.078 -0.2967 -1.1686 -0.5380
 5104TIP3    H236872   2.491   0.107   1.063 -0.4954 -0.4102 -2.0144
 5105TIP3   OH236873   3.595   1.122   2.661 -0.3051 -0.2692  0.1066
 5105TIP3    H136874   3.658   1.171   2.714 -0.9383  0.0830  0.5456
 5105TIP3    H236875   3.622   1.030   2.669  0.3340 -0.0861  0.0388
 5106TIP3   OH236876   6.012   2.417   2.239 -0.0377 -0.1770 -0.4579
 5106TIP3    H136877   6.003   2.510   2.259  0.4925 -0.6716  2.5606
 5106TIP3    H236878   6.089   2.389   2.290 -0.3511 -2.3194 -1.0689
 5107TIP3   OH236879   0.515   5.866   2.235 -0.5487  0.2649 -0.3029
 5107TIP3    H136880   0.610   5.868   2.244 -0.5305 -2.3609  0.9756
 5107TIP3    H236881   0.497   5.925   2.161  2.1558 -0.1887 -1.4563
 5108TIP3   OH236882   2.784   6.046   3.420  0.8841 -0.3951 -0.1770
 5108TIP3    H136883   2.767   5.973   3.359 -0.4338 -0.4196  0.1738
 5108TIP3    H236884   2.701   6.094   3.423  1.9690  1.6429 -1.0328
 5109TIP3   OH236885   3.718   6.538   7.668 -0.0909  0.3493 -0.9118
 5109TIP3    H136886   3.626   6.561   7.655 -0.2805  0.1481 -0.0295
 5109TIP3    H236887   3.722   6.444   7.647 -0.1095  0.3358 -0.8549
 5110TIP3   OH236888   1.000   1.285   0.372  0.5487 -0.2106  0.0751
 5110TIP3    H136889   1.089   1.252   0.361  0.1812 -0.8428 -1.1584
 5110TIP3    H236890   0.967   1.297   0.283 -0.3564  0.7085  0.5076
 5111TIP3   OH236891   1.939   6.138   1.179 -0.5121 -0.4072 -0.3676
 5111TIP3    H136892   2.011   6.200   1.191 -0.2548 -0.7962  0.1355
 5111TIP3    H236893   1.983   6.055   1.160 -0.8494 -0.4883 -0.8061
 5112TIP3   OH236894   0.507   4.612   7.396 -0.4582 -0.2447  0.3586
 5112TIP3    H136895   0.597   4.604   7.427 -1.0158 -0.2143  2.1006
 5112TIP3    H236896   0.498   4.545   7.329  1.2408  0.6634 -0.8407
 5113TIP3   OH236897   0.374   1.092   1.006  0.6100  0.4121 -0.2521
 5113TIP3    H136898   0.426   1.013   0.990  1.0128  0.7723 -0.7163
 5113TIP3    H236899   0.285   1.059   1.023  0.7812 -0.1410 -0.4190
 5114TIP3   OH236900   2.658   3.010   3.132 -0.1432 -0.0020  0.0673
 5114TIP3    H136901   2.594   3.081   3.141 -0.9063 -0.4946 -1.1589
 5114TIP3    H236902   2.737   3.053   3.101  0.0015  0.5619  1.1857
 5115TIP3   OH236903   0.623   5.010   1.204  0.2517 -0.1555  0.5990
 5115TIP3    H136904   0.566   5.051   1.270  1.1088 -1.4335  2.2221
 5115TIP3    H236905   0.578   4.929   1.181 -0.2189  0.4510 -0.7167
 5116TIP3   OH236906   3.719   2.081   0.038 -0.2873  0.6291 -0.4698
 5116TIP3    H136907   3.628   2.050   0.031 -0.1799  0.5128 -1.5575
 5116TIP3    H236908   3.738   2.077   0.131 -0.7332 -1.3065 -0.4120
 5117TIP3   OH236909   2.060   3.915   0.941 -0.2220  0.4541 -0.3287
 5117TIP3    H136910   2.136   3.960   0.978 -1.2927  1.9140  0.2049
 5117TIP3    H236911   2.052   3.835   0.992  0.5274  0.6418  0.0991
 5118TIP3   OH236912   3.412   5.354   0.597 -0.1835 -0.1024 -0.1450
 5118TIP3    H136913   3.362   5.422   0.553  1.9469  0.7756 -1.3797
 5118TIP3    H236914   3.352   5.280   0.603 -1.6460  0.9079 -1.4696
 5119TIP3   OH236915   4.948   3.712   3.101  0.2745 -0.2816  0.0260
 5119TIP3    H136916   4.930   3.654   3.175  0.5913 -3.1281 -1.9525
 5119TIP3    H236917   4.880   3.779   3.105 -0.8641 -1.4751  1.8041
 5120TIP3   OH236918   6.655   2.957   3.229 -0.0824  0.0576 -0.2153
 5120TIP3    H136919   6.706   3.021   3.180  0.9679 -0.1777  0.5431
 5120TIP3    H236920   6.620   3.005   3.303  2.3397 -0.5978  1.4736
 5121TIP3   OH236921   1.443   1.962   1.114  0.3215  0.6208  0.2132
 5121TIP3    H136922   1.465   2.016   1.189  0.0002  1.9074 -0.5991
 5121TIP3    H236923   1.425   1.875   1.152 -0.8838  1.4875  1.7530
 5122TIP3   OH236924   1.259   5.789   0.932 -0.2192  0.2035  0.4996
 5122TIP3    H136925   1.352   5.768   0.948 -0.2062  0.7054  1.1280
 5122TIP3    H236926   1.213   5.706   0.947 -0.1253  0.4645  2.5618
 5123TIP3   OH236927   2.836   5.054   8.373 -0.0431 -0.0288 -0.1913
 5123TIP3    H136928   2.755   5.040   8.423  0.8554 -1.0935  0.9969
 5123TIP3    H236929   2.842   4.978   8.315  0.5906 -0.4368  0.4012
 5124TIP3   OH236930   2.220   1.085   0.388  0.0478 -0.2024  0.3636
 5124TIP3    H136931   2.291   1.046   0.439  1.2434 -2.0806 -2.4746
 5124TIP3    H236932   2.146   1.026   0.400  0.0538 -0.1664  0.5810
 5125TIP3   OH236933   6.474   6.154   2.404 -0.4146  0.3225 -0.3951
 5125TIP3    H136934   6.503   6.224   2.345 -0.4341  0.9211  0.2854
 5125TIP3    H236935   6.511   6.178   2.489  1.6400 -1.7640 -0.6051
 5126TIP3   OH236936   1.952   0.958   3.174 -0.0618 -0.0325  0.2563
 5126TIP3    H136937   2.014   0.958   3.247 -0.4914  0.5239  0.6318
 5126TIP3    H236938   1.955   1.047   3.139 -2.7098  0.8979  2.0986
 5127TIP3   OH236939   5.832   2.572   2.577  0.3952  0.1072 -0.2216
 5127TIP3    H136940   5.883   2.648   2.604  0.4046 -0.1795  0.5938
 5127TIP3    H236941   5.786   2.544   2.656  0.5332 -0.8398 -0.4637
 5128TIP3   OH236942   0.016   5.693   2.355 -0.0924  0.0083 -0.4057
 5128TIP3    H136943   0.004   5.681   2.449 -0.8308  0.5507 -0.4229
 5128TIP3    H236944   0.092   5.751   2.348  0.6493 -0.9096 -0.1889
 5129TIP3   OH236945   2.506   1.124   0.129 -0.4642 -0.2288  0.6577
 5129TIP3    H136946   2.424   1.148   0.087 -0.1462 -1.6517 -0.9353
 5129TIP3    H236947   2.571   1.130   0.059  0.4187 -1.0182  1.3791
 5130TIP3   OH236948   4.072   4.648   0.080 -0.0035  0.2878 -0.4688
 5130TIP3    H136949   3.993   4.602   0.108 -0.6742 -0.8166 -3.7593
 5130TIP3    H236950   4.087   4.713   0.148 -2.7256 -0.6196  1.1478
 5131TIP3   OH236951   1.438   3.357   3.091 -0.0137 -0.0244 -0.2935
 5131TIP3    H136952   1.441   3.261   3.095 -0.5003 -0.1060 -1.6456
 5131TIP3    H236953   1.404   3.377   3.004  1.7313  1.4081 -0.7062
 5132TIP3   OH236954   6.827   5.050   0.052  0.2146  0.4597 -0.4986
 5132TIP3    H136955   6.888   4.978   0.037  0.8224  1.0528 -0.9056
 5132TIP3    H236956   6.820   5.055   0.148 -0.9640 -1.0602 -0.4547
 5133TIP3   OH236957   3.745   2.572   1.321  0.3038 -0.0904  0.4017
 5133TIP3    H136958   3.733   2.492   1.372  1.8579  0.3644  1.5661
 5133TIP3    H236959   3.681   2.565   1.250  0.0600 -2.1183  0.7505
 5134TIP3   OH236960   3.494   2.831   7.918  0.3003  0.3947 -0.6564
 5134TIP3    H136961   3.587   2.811   7.909 -0.1046 -1.4097 -1.2479
 5134TIP3    H236962   3.452   2.783   7.847 -1.3030 -0.7617  0.9543
 5135TIP3   OH236963   6.979   0.295   0.924 -0.3923 -0.6648 -0.1998
 5135TIP3    H136964   6.885   0.308   0.939 -0.6486 -1.3078 -1.1610
 5135TIP3    H236965   6.985   0.207   0.886  0.8079 -1.5475  1.8230
 5136TIP3   OH236966   3.669   2.363   2.165 -0.5816  0.9856 -0.1239
 5136TIP3    H136967   3.618   2.442   2.182 -1.7054  0.2972 -0.1864
 5136TIP3    H236968   3.614   2.310   2.108 -0.4091 -0.3824  0.9068
 5137TIP3   OH236969   0.502   2.911   7.688 -0.4847 -0.3061  0.1875
 5137TIP3    H136970   0.437   2.859   7.736 -0.3090 -0.8293 -0.1436
 5137TIP3    H236971   0.483   2.894   7.596  0.4118 -0.8216  0.0904
 5138TIP3   OH236972   6.502   1.796   7.574 -0.2157  0.2652 -0.1635
 5138TIP3    H136973   6.493   1.873   7.518  0.6090 -0.0433 -0.7357
 5138TIP3    H236974   6.451   1.729   7.530  0.3058  0.0662 -0.4736
 5139TIP3   OH236975   2.487   2.166   2.653 -0.4095 -0.0931 -0.3519
 5139TIP3    H136976   2.455   2.245   2.610 -0.7247  0.3657  0.6843
 5139TIP3    H236977   2.408   2.116   2.672 -0.5864  0.9628  2.0597
 5140TIP3   OH236978   5.165   1.627   2.514  0.4108 -0.1365  0.0835
 5140TIP3    H136979   5.123   1.640   2.429 -1.3828 -1.5476  0.6953
 5140TIP3    H236980   5.247   1.583   2.493  0.1517 -0.1634 -0.9417
 5141TIP3   OH236981   3.507   4.088   2.900  0.1134 -0.0739  0.4910
 5141TIP3    H136982   3.429   4.033   2.901 -0.7543  1.1387  0.7352
 5141TIP3    H236983   3.474   4.177   2.896  1.4836  0.4770  0.8802
 5142TIP3   OH236984   1.049   0.231   8.235  0.0670  0.0747  0.3414
 5142TIP3    H136985   0.999   0.300   8.193 -2.2750 -2.0673 -0.6336
 5142TIP3    H236986   1.133   0.230   8.190  0.3685  2.5472  0.7439
 5143TIP3   OH236987   1.241   2.999   8.192  0.3217  0.4881  0.5168
 5143TIP3    H136988   1.152   3.035   8.186 -0.0165  0.0986  2.4558
 5143TIP3    H236989   1.296   3.076   8.209  0.3151  0.6838 -0.3168
 5144TIP3   OH236990   5.478   1.167   0.942 -0.1786 -0.3797 -0.7817
 5144TIP3    H136991   5.413   1.219   0.990 -0.1878 -0.8738 -0.2455
 5144TIP3    H236992   5.562   1.199   0.974 -0.1914 -1.6596  0.6365
 5145TIP3   OH236993   3.483   6.875   0.076 -0.1835 -0.2391  0.3609
 5145TIP3    H136994   3.501   6.845  -0.013  0.8273  0.0628  0.4596
 5145TIP3    H236995   3.401   6.830   0.100 -0.5183 -0.2545 -0.7437
 5146TIP3   OH236996   6.500   3.091   0.461  0.1754 -0.7966  0.5144
 5146TIP3    H136997   6.501   3.163   0.523 -0.1610 -0.7234  0.4392
 5146TIP3    H236998   6.553   3.122   0.387 -1.0329 -0.0953 -0.0907
 5147TIP3   OH236999   6.640   4.327   0.611  0.0636  0.6960  0.0508
 5147TIP3    H137000   6.666   4.238   0.637 -0.7467 -0.0694 -1.6275
 5147TIP3    H237001   6.545   4.328   0.623  0.2077  1.8433  1.4050
 5148TIP3   OH237002   1.412   1.109   0.549  0.2364  0.4663 -0.2409
 5148TIP3    H137003   1.352   1.106   0.623  0.4225  1.7232 -0.0201
 5148TIP3    H237004   1.363   1.153   0.480  1.0372  1.9249  0.0923
 5149TIP3   OH237005   5.187   3.701   2.685 -0.1815 -0.2553 -0.3056
 5149TIP3    H137006   5.159   3.629   2.741 -1.3529  1.6535  1.7550
 5149TIP3    H237007   5.105   3.738   2.651  0.3204  0.6479 -0.5651
 5150TIP3   OH237008   5.681   5.852   7.656 -0.7407 -0.4377  0.3241
 5150TIP3    H137009   5.692   5.942   7.687  0.1387 -0.9646  1.6230
 5150TIP3    H237010   5.682   5.859   7.561  0.7089  0.7813  0.3977
 5151TIP3   OH237011   2.245   0.816   0.139 -0.3614  0.6884 -0.5923
 5151TIP3    H137012   2.340   0.825   0.134 -0.0880 -1.4930 -0.4501
 5151TIP3    H237013   2.229   0.723   0.122 -2.5729  1.2122 -1.7594
 5152TIP3   OH237014   5.164   3.876   0.857 -0.0052  0.1875  0.0791
 5152TIP3    H137015   5.116   3.800   0.888 -0.3194  0.2575 -0.2321
 5152TIP3    H237016   5.147   3.944   0.922  0.6521 -0.1418  0.6003
 5153TIP3   OH237017   5.533   5.766   0.276  0.0253 -0.3028  0.2951
 5153TIP3    H137018   5.570   5.721   0.200  0.7487  0.5392  0.1373
 5153TIP3    H237019   5.447   5.796   0.247  0.7510  1.0123 -0.5858
 5154TIP3   OH237020   4.122   6.299   2.729  0.1510 -0.1891  0.0436
 5154TIP3    H137021   4.210   6.278   2.698 -1.0110 -1.7229 -2.6211
 5154TIP3    H237022   4.069   6.302   2.650 -2.0724  1.5255  1.4771
 5155TIP3   OH237023   3.337   3.809   2.025  0.3116 -0.3012 -0.1747
 5155TIP3    H137024   3.241   3.806   2.018  0.2354 -0.5603  0.8545
 5155TIP3    H237025   3.354   3.805   2.119  1.2135  3.2677 -0.0171
 5156TIP3   OH237026   4.070   4.103   1.458  0.1876  0.4767  0.5913
 5156TIP3    H137027   4.105   4.087   1.546  0.0326  1.7414  0.9018
 5156TIP3    H237028   4.109   4.186   1.432 -0.4363  0.5279 -0.1996
 5157TIP3   OH237029   1.749   1.592   0.464  0.8885 -0.1224  0.1848
 5157TIP3    H137030   1.662   1.618   0.436  1.0029  1.9118  1.4849
 5157TIP3    H237031   1.805   1.665   0.439  2.0885 -1.0278  0.1220
 5158TIP3   OH237032   5.730   5.270   2.982  0.0381  0.3808  0.5105
 5158TIP3    H137033   5.639   5.294   2.962 -0.3283 -2.6348 -2.4623
 5158TIP3    H237034   5.723   5.197   3.042  0.4606  0.0370  0.1509
 5159TIP3   OH237035   5.333   1.267   0.321  0.1898 -0.4378 -1.0260
 5159TIP3    H137036   5.401   1.277   0.388  1.6202 -1.2882 -2.2806
 5159TIP3    H237037   5.269   1.209   0.360 -1.0678  2.1671  1.0537
 5160TIP3   OH237038   1.109   2.031   2.063  0.1992 -0.4326  0.3665
 5160TIP3    H137039   1.106   1.977   2.142 -2.4575  0.3214  0.8793
 5160TIP3    H237040   1.090   2.120   2.095 -0.5130 -0.0534 -1.0524
 5161TIP3   OH237041   3.975   6.517   0.067 -0.3523  0.3701 -0.3769
 5161TIP3    H137042   4.013   6.506   0.154  0.4780  1.2778 -0.6121
 5161TIP3    H237043   3.881   6.524   0.083 -0.1781  0.8935  0.4788
 5162TIP3   OH237044   6.647   3.727   0.282  0.4115  0.2852 -0.3167
 5162TIP3    H137045   6.634   3.817   0.252 -2.9254  1.0527  2.6921
 5162TIP3    H237046   6.570   3.680   0.248  0.4268 -0.5849  0.8158
 5163TIP3   OH237047   6.695   4.233   1.797  0.3615  0.2829  0.1473
 5163TIP3    H137048   6.767   4.289   1.827 -0.2294  1.0027  0.2554
 5163TIP3    H237049   6.620   4.293   1.789  0.2972 -0.0361 -2.0439
 5164TIP3   OH237050   4.237   4.303   0.894  0.2062  0.8052 -0.1932
 5164TIP3    H137051   4.168   4.243   0.924 -1.2696  1.7704 -1.4841
 5164TIP3    H237052   4.275   4.337   0.975  0.1631 -0.8215  0.5588
 5165TIP3   OH237053   3.403   1.096   1.222  0.4183 -0.0317  0.2593
 5165TIP3    H137054   3.420   1.021   1.166  0.4075  1.5573 -2.0538
 5165TIP3    H237055   3.331   1.068   1.279 -1.9689 -0.7984 -2.8241
 5166TIP3   OH237056   3.374   2.552   0.198 -0.0029 -0.0248  0.7073
 5166TIP3    H137057   3.327   2.531   0.279  1.0232 -1.4239  0.9933
 5166TIP3    H237058   3.455   2.592   0.228  0.5748 -0.9441  0.4177
 5167TIP3   OH237059   1.784   2.493   0.403  0.3186  0.1431 -0.0845
 5167TIP3    H137060   1.740   2.411   0.426 -1.0691  0.6636 -0.7456
 5167TIP3    H237061   1.869   2.488   0.446  0.6380 -2.0433 -0.8387
 5168TIP3   OH237062   5.112   4.246   8.009  0.0661 -0.1598 -0.6199
 5168TIP3    H137063   5.076   4.173   8.059 -1.3156  1.7598  1.3686
 5168TIP3    H237064   5.112   4.215   7.918  0.5823 -2.9866  0.2531
 5169TIP3   OH237065   2.151   3.217   2.171  0.1180  0.0152  0.6848
 5169TIP3    H137066   2.115   3.255   2.252 -0.1231  0.1041  0.5353
 5169TIP3    H237067   2.178   3.292   2.119  1.2580 -0.0740  1.1303
 5170TIP3   OH237068   4.248   3.540   8.118 -0.0218 -0.3196 -0.2660
 5170TIP3    H137069   4.279   3.554   8.207  0.5771 -0.4309 -0.4539
 5170TIP3    H237070   4.267   3.622   8.073 -1.2953  0.1255 -0.0273
 5171TIP3   OH237071   2.473   0.294   8.297 -0.4616  0.1873  0.0203
 5171TIP3    H137072   2.525   0.374   8.302  0.0370 -0.1970  2.6486
 5171TIP3    H237073   2.490   0.260   8.209 -0.0351  2.4984 -0.8573
 5172TIP3   OH237074   1.472   5.417   1.976  0.1391  0.1305  0.4483
 5172TIP3    H137075   1.452   5.435   1.885  1.7589  0.4986  0.1415
 5172TIP3    H237076   1.504   5.500   2.011  1.4353 -0.4841  0.7916
 5173TIP3   OH237077   4.241   5.074   0.049  0.5831 -0.7456 -0.2788
 5173TIP3    H137078   4.286   5.080   0.134 -0.3966 -1.2994  0.3005
 5173TIP3    H237079   4.193   5.157   0.042 -0.4798 -1.2681  0.4096
 5174TIP3   OH237080   5.641   0.650   0.091  0.1279  0.1446 -0.5609
 5174TIP3    H137081   5.632   0.731   0.142  1.4355 -0.9104  1.4647
 5174TIP3    H237082   5.710   0.669   0.028  0.0619  0.7826 -0.4466
 5175TIP3   OH237083   1.539   3.895   8.147  0.1510  0.5542 -0.1742
 5175TIP3    H137084   1.487   3.952   8.089  2.0583  1.6610 -0.8762
 5175TIP3    H237085   1.473   3.849   8.199 -1.5440  1.8839 -1.0028
 5176TIP3   OH237086   4.546   4.518   8.331 -0.3648  0.1029  0.0647
 5176TIP3    H137087   4.609   4.526   8.403 -1.0415 -0.2101  0.7081
 5176TIP3    H237088   4.517   4.608   8.315 -1.0364  0.0693  0.9612
 5177TIP3   OH237089   5.944   2.732   1.235  0.0354 -0.5379 -0.6653
 5177TIP3    H137090   6.030   2.727   1.276 -0.8277 -1.5519  1.1572
 5177TIP3    H237091   5.921   2.642   1.214 -1.0933 -0.4482  0.0659
 5178TIP3   OH237092   0.475   0.062   1.743 -0.8760  0.7752  0.3447
 5178TIP3    H137093   0.495   0.074   1.836  2.0799  2.5967 -0.4095
 5178TIP3    H237094   0.447  -0.029   1.736  1.4820 -0.2316  2.6332
 5179TIP3   OH237095   1.640   2.633   0.159  0.2443  0.2475 -0.4565
 5179TIP3    H137096   1.667   2.544   0.135 -1.2122  0.0013 -1.3513
 5179TIP3    H237097   1.677   2.688   0.090  1.1349  0.3489  0.0899
 5180TIP3   OH237098   3.747   2.314   2.825  0.4462  0.2331 -0.1683
 5180TIP3    H137099   3.825   2.299   2.771 -1.2722  0.3989 -2.9239
 5180TIP3    H237100   3.697   2.232   2.817  1.0534 -0.5909  3.0662
 5181TIP3   OH237101   1.207   4.252   1.317 -0.4152  0.2693 -0.3041
 5181TIP3    H137102   1.222   4.157   1.321 -0.9231  0.1522 -1.1103
 5181TIP3    H237103   1.160   4.266   1.235  1.1307  1.4249 -1.0641
 5182TIP3   OH237104   0.317   6.592   2.200 -1.1949 -0.2596 -0.3648
 5182TIP3    H137105   0.285   6.610   2.112  1.5169 -0.5032 -1.5010
 5182TIP3    H237106   0.409   6.618   2.198 -0.6608 -1.6380  1.9750
 5183TIP3   OH237107   6.331   5.399   3.264  0.1853  0.3703 -0.2311
 5183TIP3    H137108   6.263   5.466   3.256  0.9773  1.2414  0.1528
 5183TIP3    H237109   6.313   5.356   3.347 -1.2786 -1.0040 -1.2149
 5184TIP3   OH237110   6.204   1.802   0.041  0.3739 -0.8078 -0.9403
 5184TIP3    H137111   6.165   1.716   0.060 -0.7705  0.3851  3.0065
 5184TIP3    H237112   6.133   1.852   0.000 -1.9197  0.5825  4.0331
 5185TIP3   OH237113   0.419   5.569   3.227 -0.0052  0.5097 -0.0314
 5185TIP3    H137114   0.507   5.561   3.264  0.4341  0.4902 -1.0640
 5185TIP3    H237115   0.378   5.638   3.280  0.8487  0.9813  0.0452
 5186TIP3   OH237116   5.660   3.592   1.030 -0.2610 -0.5848 -0.1014
 5186TIP3    H137117   5.749   3.618   1.054  0.6275  0.6246 -4.0155
 5186TIP3    H237118   5.668   3.503   0.998 -0.3591 -0.3347 -0.8398
 5187TIP3   OH237119   0.349   6.278   8.126 -0.8018  0.0423  0.2618
 5187TIP3    H137120   0.333   6.294   8.033 -2.6895 -0.8171  0.3892
 5187TIP3    H237121   0.441   6.252   8.130 -0.6008  0.4010 -1.3167
 5188TIP3   OH237122   6.042   1.297   2.130 -0.1158  0.3762  0.2919
 5188TIP3    H137123   6.064   1.385   2.099 -0.0158  0.5888  0.9334
 5188TIP3    H237124   5.982   1.312   2.204 -2.2588 -0.1819 -1.2346
 5189TIP3   OH237125   4.910   3.537   1.220  0.5624  0.2418 -0.6236
 5189TIP3    H137126   4.828   3.508   1.181 -0.6136 -0.9088  2.4014
 5189TIP3    H237127   4.972   3.466   1.203 -0.2101 -0.6995  0.4142
 5190TIP3   OH237128   2.052   6.318   7.826  1.1341  0.5318  0.0752
 5190TIP3    H137129   2.023   6.235   7.789  0.3654  0.5887  0.5339
 5190TIP3    H237130   2.018   6.384   7.765  1.4430  0.5360 -0.0979
 5191TIP3   OH237131   5.218   1.954   0.075  0.1475  0.3273  0.0613
 5191TIP3    H137132   5.246   1.999  -0.005  0.4260 -0.5400 -0.3364
 5191TIP3    H237133   5.281   1.883   0.086  0.6533  0.9633  1.5506
 5192TIP3   OH237134   1.479   2.550   0.819  0.0670 -0.2182  0.1941
 5192TIP3    H137135   1.434   2.511   0.744  0.6448  1.6912 -1.2178
 5192TIP3    H237136   1.546   2.486   0.843  0.1749 -0.6743 -1.2439
 5193TIP3   OH237137   2.706   6.037   1.790 -1.0381  0.2412 -0.3301
 5193TIP3    H137138   2.794   6.000   1.798 -1.4312 -0.5038  0.9016
 5193TIP3    H237139   2.648   5.964   1.812 -1.9019  1.1023  0.2992
 5194TIP3   OH237140   0.415   5.714   7.451  0.1876  0.2204 -0.1623
 5194TIP3    H137141   0.345   5.656   7.482 -2.1910  0.7562 -3.8068
 5194TIP3    H237142   0.371   5.798   7.438  2.2321  1.3559 -0.0213
 5195TIP3   OH237143   4.420   4.125   2.640 -0.2092  0.1934  0.1981
 5195TIP3    H137144   4.344   4.082   2.602  0.0735  0.5016 -0.7551
 5195TIP3    H237145   4.394   4.147   2.729 -0.9858 -0.3170  0.1050
 5196TIP3   OH237146   1.188   0.538   1.776 -0.0179  0.4678  0.5664
 5196TIP3    H137147   1.282   0.522   1.772 -0.5581 -4.0733  0.5469
 5196TIP3    H237148   1.157   0.521   1.687 -0.9277  1.8854  0.5720
 5197TIP3   OH237149   6.917   2.001   7.285  0.3931 -0.2770 -0.9460
 5197TIP3    H137150   6.868   1.940   7.340 -0.9506  0.5834 -1.1598
 5197TIP3    H237151   6.974   1.944   7.232 -1.1788 -1.4169 -1.5066
 5198TIP3   OH237152   0.287   1.431   7.408 -0.7107  0.1075 -0.2686
 5198TIP3    H137153   0.352   1.366   7.433 -2.0516 -0.9040  0.8091
 5198TIP3    H237154   0.269   1.414   7.316 -1.8346 -1.8839  0.2404
 5199TIP3   OH237155   2.301   3.504   7.739  0.2314  0.2633  0.0401
 5199TIP3    H137156   2.254   3.454   7.673 -0.7453  0.8352  0.2825
 5199TIP3    H237157   2.338   3.578   7.690 -0.7362  0.8461  0.1621
 5200TIP3   OH237158   6.866   2.366   0.619  0.2158 -0.1940 -0.2339
 5200TIP3    H137159   6.815   2.285   0.615  0.6204 -0.4988  0.5579
 5200TIP3    H237160   6.931   2.357   0.549  0.5130 -0.7372  0.1064
 5201TIP3   OH237161   5.007   0.782   0.097 -0.3024  0.2519  0.3450
 5201TIP3    H137162   5.026   0.709   0.037 -1.7048 -1.2316  1.6023
 5201TIP3    H237163   4.943   0.746   0.159 -0.5607  2.3871  1.4124
 5202TIP3   OH237164   3.260   2.136   1.893  0.0640  0.2022 -0.0314
 5202TIP3    H137165   3.205   2.186   1.833  0.3294  0.6604  0.1064
 5202TIP3    H237166   3.280   2.056   1.845  0.1926  0.5206 -0.5129
 5203TIP3   OH237167   5.014   1.695   1.324 -0.1496 -0.4561 -0.3945
 5203TIP3    H137168   5.054   1.758   1.264  0.6862 -0.8044 -0.2146
 5203TIP3    H237169   4.921   1.718   1.324 -0.1142 -0.2537 -1.5765
 5204TIP3   OH237170   4.641   2.610   0.429 -0.8174 -0.4439 -0.4060
 5204TIP3    H137171   4.606   2.699   0.442  2.4647  1.2173 -1.8812
 5204TIP3    H237172   4.735   2.622   0.419 -0.1247 -4.2395  0.0145
 5205TIP3   OH237173   2.632   4.637   2.640 -0.8870  0.6020 -0.2116
 5205TIP3    H137174   2.552   4.674   2.605 -0.4654 -1.2935 -3.7394
 5205TIP3    H237175   2.671   4.591   2.565  2.2949 -0.5300  1.9289
 5206TIP3   OH237176   2.257   3.374   1.608  0.2509 -0.5006  0.0498
 5206TIP3    H137177   2.232   3.446   1.667 -2.4057 -1.3215  0.0788
 5206TIP3    H237178   2.325   3.327   1.656  0.0534  0.3991  1.2767
 5207TIP3   OH237179   5.497   3.924   1.837  0.1902  0.3360  0.5006
 5207TIP3    H137180   5.416   3.968   1.813  1.2197  1.5720 -0.8560
 5207TIP3    H237181   5.469   3.854   1.897 -2.0799 -0.3828 -1.2489
 5208TIP3   OH237182   0.213   4.318   0.930  0.0355 -0.2483 -0.3756
 5208TIP3    H137183   0.144   4.382   0.946  1.0186  0.2743  2.3596
 5208TIP3    H237184   0.186   4.241   0.980  1.4644  0.0456  0.9177
 5209TIP3   OH237185   3.246   5.398   0.929  0.9353  0.4427  0.1114
 5209TIP3    H137186   3.335   5.363   0.921  0.4561 -0.9359  0.5363
 5209TIP3    H237187   3.195   5.349   0.865 -0.2343 -1.4183  2.3189
 5210TIP3   OH237188   6.970   4.970   7.370  0.2949 -0.2091  0.3940
 5210TIP3    H137189   6.881   4.967   7.333  1.1956  0.6275 -2.0278
 5210TIP3    H237190   7.022   4.916   7.311  2.0042  1.9622 -0.1746
 5211TIP3   OH237191   6.237   3.783   7.539  0.2284  0.1773 -0.5216
 5211TIP3    H137192   6.306   3.802   7.602 -0.2607  0.4760 -0.0642
 5211TIP3    H237193   6.180   3.860   7.541 -1.4593 -1.0385  0.9325
 5212TIP3   OH237194   4.324   1.263   2.313  0.1244  0.6030  0.7522
 5212TIP3    H137195   4.316   1.347   2.358 -0.9107 -0.7263  3.2541
 5212TIP3    H237196   4.397   1.219   2.356  1.8888  0.8396 -1.7715
 5213TIP3   OH237197   0.062   4.141   1.106  0.4148  0.6839  0.1917
 5213TIP3    H137198   0.044   4.047   1.100  0.1212  0.7126  0.5374
 5213TIP3    H237199  -0.025   4.182   1.102  0.6312  1.0763 -1.9941
 5214TIP3   OH237200   5.016   0.977   1.719 -0.1048  0.1205 -0.1627
 5214TIP3    H137201   4.950   1.006   1.657 -1.4000  0.0761  1.1428
 5214TIP3    H237202   4.973   0.909   1.772  0.2692  1.4630  2.0145
 5215TIP3   OH237203   0.648   6.411   0.304 -0.3500 -0.1984  0.7396
 5215TIP3    H137204   0.625   6.391   0.395 -1.1172  0.8272  0.7917
 5215TIP3    H237205   0.720   6.351   0.283  1.2409  0.9241  2.6843
 5216TIP3   OH237206   4.675   5.464   2.721 -0.3840  0.2070  0.4092
 5216TIP3    H137207   4.762   5.429   2.743 -1.1357 -2.5703 -0.5796
 5216TIP3    H237208   4.643   5.500   2.804  0.6713 -1.1784  1.4948
 5217TIP3   OH237209   6.807   5.095   1.397  0.7657  0.0958 -0.0696
 5217TIP3    H137210   6.822   5.010   1.440 -3.0895  0.4784  2.5905
 5217TIP3    H237211   6.867   5.096   1.323  0.0260 -5.6307 -1.2059
 5218TIP3   OH237212   6.073   4.503   2.381  0.0913 -0.1414 -0.0962
 5218TIP3    H137213   6.042   4.532   2.296 -0.8418 -0.2938  0.1730
 5218TIP3    H237214   6.073   4.407   2.375 -1.3834 -0.2118  0.5182
 5219TIP3   OH237215   3.086   1.572   2.486 -0.0308 -0.1348 -0.4899
 5219TIP3    H137216   3.052   1.518   2.556  0.8048 -0.4783 -0.3338
 5219TIP3    H237217   3.144   1.635   2.530 -1.3172  1.1905 -0.6124
 5220TIP3   OH237218   5.342   4.676   2.155 -0.3124  0.4488  0.5634
 5220TIP3    H137219   5.367   4.746   2.215  0.5940 -0.6297  1.4796
 5220TIP3    H237220   5.259   4.642   2.190 -0.5674  0.8059  0.3201
 5221TIP3   OH237221   6.811   5.634   2.118  0.5749 -0.5104 -0.1886
 5221TIP3    H137222   6.787   5.668   2.032  2.4088 -1.3184 -1.0933
 5221TIP3    H237223   6.788   5.541   2.115  0.4980 -0.5105  0.2536
 5222TIP3   OH237224   4.035   5.186   1.800  0.0150  0.0022 -0.1300
 5222TIP3    H137225   4.012   5.248   1.870  4.0468  1.1910  0.4278
 5222TIP3    H237226   3.971   5.202   1.731 -1.7468  1.6130  1.7569
 5223TIP3   OH237227   1.325   4.133   8.217  0.0666 -0.2210  0.0271
 5223TIP3    H137228   1.416   4.148   8.190  0.4942 -0.4341  1.2571
 5223TIP3    H237229   1.292   4.220   8.239  0.0450 -0.1650 -0.2338
 5224TIP3   OH237230   3.755   0.342   1.800 -0.0182  0.2326 -0.5049
 5224TIP3    H137231   3.789   0.278   1.862 -0.4262  0.4761 -0.0211
 5224TIP3    H237232   3.829   0.402   1.785  0.3815 -0.3806 -1.0087
 5225TIP3   OH237233   0.625   2.551   1.880  0.1333 -0.1875  0.4850
 5225TIP3    H137234   0.622   2.578   1.788 -0.0629 -0.2135  0.4833
 5225TIP3    H237235   0.620   2.633   1.929 -0.7929 -0.2291  0.4841
 5226TIP3   OH237236   1.909   5.568   0.508  0.4066  0.1395  0.2375
 5226TIP3    H137237   1.878   5.649   0.548  0.3333  1.7514 -2.7775
 5226TIP3    H237238   1.998   5.558   0.540  0.8411  2.0960 -0.2193
 5227TIP3   OH237239   4.198   6.271   0.895  0.2718  0.1184 -0.3367
 5227TIP3    H137240   4.170   6.180   0.890  2.3861 -0.6560  0.6988
 5227TIP3    H237241   4.239   6.288   0.810 -1.4049  0.6395 -1.0993
 5228TIP3   OH237242   1.442   3.170   8.321  0.3513 -0.7502  0.1543
 5228TIP3    H137243   1.532   3.153   8.346 -0.3125 -1.3697  2.3093
 5228TIP3    H237244   1.390   3.146   8.398 -1.4122  2.5911  0.2046
 5229TIP3   OH237245   2.934   5.658   2.681  0.4474  0.3283  0.2649
 5229TIP3    H137246   2.979   5.659   2.765 -0.3262  1.5106  0.7007
 5229TIP3    H237247   2.854   5.709   2.696  1.1099  2.0560 -1.6163
 5230TIP3   OH237248   5.593   6.936   3.614  0.0975 -0.4894 -0.2824
 5230TIP3    H137249   5.657   6.934   3.543 -0.4988 -3.7965 -0.9300
 5230TIP3    H237250   5.523   6.877   3.584 -0.5903 -1.3411  2.6562
 5231TIP3   OH237251   2.028   0.878   0.333  0.4539 -0.0612 -0.3978
 5231TIP3    H137252   1.955   0.882   0.271  0.0026 -2.0760 -0.0819
 5231TIP3    H237253   2.100   0.840   0.283  0.1007 -1.6605  0.2445
 5232TIP3   OH237254   2.020   3.440   8.379 -0.3908  0.7576  0.8386
 5232TIP3    H137255   2.088   3.452   8.313  0.8453  2.1188  2.2976
 5232TIP3    H237256   1.975   3.524   8.382 -0.6663  0.5864  1.4921
 5233TIP3   OH237257   0.709   2.616   2.484 -0.3898 -0.3538  0.1401
 5233TIP3    H137258   0.698   2.709   2.467  0.2280 -0.4339 -0.7448
 5233TIP3    H237259   0.625   2.588   2.521 -1.0687  0.2559 -0.9020
 5234TIP3   OH237260   0.641   5.738   3.062  0.5354  0.3876 -0.4764
 5234TIP3    H137261   0.617   5.684   3.138 -0.5907  1.7554  0.1797
 5234TIP3    H237262   0.679   5.817   3.100  2.1171  0.1235 -1.4284
 5235TIP3   OH237263   2.540   3.695   0.977  0.3400  0.0773 -0.2817
 5235TIP3    H137264   2.519   3.747   0.900 -0.1781  0.5825  0.2026
 5235TIP3    H237265   2.457   3.684   1.023  0.9717  1.6374  1.3544
 5236TIP3   OH237266   5.425   1.644   8.300 -0.0796  0.6967  0.0087
 5236TIP3    H137267   5.347   1.613   8.347 -0.4326  1.7013  0.1268
 5236TIP3    H237268   5.396   1.654   8.210  0.8225 -2.0177 -0.6527
 5237TIP3   OH237269   3.075   5.350   1.948  0.2456 -0.4439 -0.2671
 5237TIP3    H137270   2.997   5.405   1.949  0.8537  0.4686 -1.0784
 5237TIP3    H237271   3.043   5.262   1.931 -0.5781 -0.0418 -0.8335
 5238TIP3   OH237272   0.541   1.234   0.287 -0.0605  0.8034  0.4480
 5238TIP3    H137273   0.481   1.181   0.339  1.0241 -2.2071 -1.1179
 5238TIP3    H237274   0.554   1.184   0.206  0.6325  3.8149 -1.4712
 5239TIP3   OH237275   2.318   0.399   1.914 -0.4162 -0.1663 -0.1603
 5239TIP3    H137276   2.329   0.385   1.820 -0.8331 -1.8831  0.0145
 5239TIP3    H237277   2.261   0.476   1.920  0.7217  0.8140 -1.2607
 5240TIP3   OH237278   5.254   4.816   8.307  0.5864  0.2646  0.0295
 5240TIP3    H137279   5.247   4.886   8.371 -1.5191  0.1812 -0.0374
 5240TIP3    H237280   5.186   4.753   8.332 -1.3601  0.9309 -3.0569
 5241TIP3   OH237281   5.331   3.960   2.626 -0.1453  0.5845 -0.0838
 5241TIP3    H137282   5.315   3.866   2.613  0.2302  0.4669  0.2949
 5241TIP3    H237283   5.391   3.964   2.700  1.1020  1.0564 -1.0842
 5242TIP3   OH237284   2.718   3.599   8.031  0.2299  0.1619 -0.5508
 5242TIP3    H137285   2.689   3.684   8.064  1.5941  0.2964  0.4405
 5242TIP3    H237286   2.795   3.579   8.085  1.2774 -0.6472 -2.2878
 5243TIP3   OH237287   1.921   1.948   2.122 -0.2981  0.3697 -0.4453
 5243TIP3    H137288   1.976   1.932   2.045 -0.4502  1.1354 -0.7104
 5243TIP3    H237289   1.959   2.026   2.163  0.8755 -0.9953  1.2451
 5244TIP3   OH237290   0.544   3.245   3.142 -0.1789 -0.1303 -0.0045
 5244TIP3    H137291   0.617   3.226   3.202 -1.6294 -1.5219  1.4395
 5244TIP3    H237292   0.530   3.163   3.094 -1.4342 -0.2605  0.5252
 5245TIP3   OH237293   6.361   6.326   7.554  0.6056 -0.7363  0.1818
 5245TIP3    H137294   6.296   6.395   7.565  1.4238  0.1606 -0.4267
 5245TIP3    H237295   6.318   6.261   7.499 -0.2549 -0.8383  0.9453
 5246TIP3   OH237296   2.003   1.792   0.698  0.2258  0.4307 -0.2870
 5246TIP3    H137297   1.911   1.777   0.720  0.2127  1.3682  0.3185
 5246TIP3    H237298   2.001   1.860   0.630  0.4865  0.7862  0.0556
 5247TIP3   OH237299   5.395   5.517   0.393 -0.0006  0.2537  0.6276
 5247TIP3    H137300   5.331   5.573   0.348 -0.6118 -0.3973  0.6644
 5247TIP3    H237301   5.480   5.546   0.361 -0.1306  2.6152  2.1785
 5248TIP3   OH237302   3.381   3.578   1.352 -0.8471 -0.4065  0.1446
 5248TIP3    H137303   3.402   3.501   1.299 -1.7706  0.6159 -1.8030
 5248TIP3    H237304   3.315   3.547   1.414 -0.4843 -1.4048  0.0506
 5249TIP3   OH237305   3.344   5.963   2.114 -0.9191  0.1783  0.4775
 5249TIP3    H137306   3.374   6.053   2.125  0.8566 -0.5259  1.6938
 5249TIP3    H237307   3.359   5.943   2.021  2.5222 -0.1174  0.9863
 5250TIP3   OH237308   3.622   1.510   1.858  0.3296 -0.0612  0.2520
 5250TIP3    H137309   3.635   1.521   1.763  0.1581 -0.1939  0.2135
 5250TIP3    H237310   3.620   1.600   1.892 -2.4127  0.1439 -0.2295
 5251TIP3   OH237311   5.941   0.678   7.436  0.4455 -0.2665  0.8701
 5251TIP3    H137312   5.993   0.602   7.462  2.3992  0.0144 -1.8387
 5251TIP3    H237313   6.000   0.752   7.446  0.3617  0.1787 -1.3931
 5252TIP3   OH237314   3.613   1.674   3.342 -0.4708 -0.1484 -0.3078
 5252TIP3    H137315   3.644   1.659   3.431  0.2923 -0.6029 -0.6419
 5252TIP3    H237316   3.648   1.600   3.291  2.8527  2.2798 -1.8863
 5253TIP3   OH237317   5.001   6.101   2.968  0.1328  0.0093  0.2177
 5253TIP3    H137318   4.993   6.176   3.027  1.7430  0.5213 -0.1730
 5253TIP3    H237319   5.090   6.068   2.982 -0.0174 -0.8677 -0.7439
 5254TIP3   OH237320   2.521   0.819   2.127  0.6034  0.9219  0.3973
 5254TIP3    H137321   2.428   0.836   2.138  0.0284 -1.2066 -0.8367
 5254TIP3    H237322   2.527   0.728   2.100  2.9914  1.2662 -0.4988
 5255TIP3   OH237323   4.213   3.860   2.006 -0.2141  0.6264 -0.1665
 5255TIP3    H137324   4.122   3.841   1.985 -0.5859  1.4404  0.6321
 5255TIP3    H237325   4.221   3.955   1.997  0.4812  0.5961  0.0368
 5256TIP3   OH237326   6.766   6.487   2.623  0.1554  0.8794  0.2214
 5256TIP3    H137327   6.824   6.504   2.698  0.1097  0.8678  0.2590
 5256TIP3    H237328   6.759   6.572   2.579 -0.0370  0.9482  0.3847
 5257TIP3   OH237329   3.951   6.910   2.447  0.0851 -0.0025 -0.3192
 5257TIP3    H137330   3.892   6.964   2.500 -0.8758 -1.2608 -0.0545
 5257TIP3    H237331   3.985   6.845   2.509 -0.0396 -0.6864 -0.9502
 5258TIP3   OH237332   6.518   4.406   0.059  0.0150  0.3416  0.0651
 5258TIP3    H137333   6.601   4.380   0.099  1.6771 -0.3767 -3.4322
 5258TIP3    H237334   6.533   4.495   0.028 -0.0246 -0.2229 -1.6631
 5259TIP3   OH237335   3.728   6.734   1.865  0.1764 -0.5800  0.3653
 5259TIP3    H137336   3.768   6.792   1.929  1.3452 -0.8047 -0.1367
 5259TIP3    H237337   3.635   6.756   1.868  0.6591  1.9265 -0.3940
 5260TIP3   OH237338   2.237   5.293   0.437 -0.2451  0.0526  0.3467
 5260TIP3    H137339   2.198   5.290   0.350 -0.4562  1.4898  0.3646
 5260TIP3    H237340   2.289   5.374   0.437  1.5611 -1.0347  0.8211
 5261TIP3   OH237341   6.803   2.960   8.251  0.2957  0.1297 -0.1019
 5261TIP3    H137342   6.799   3.022   8.178  0.0764 -0.0346 -0.2306
 5261TIP3    H237343   6.713   2.932   8.264  0.4186 -0.3065 -0.1682
 5262TIP3   OH237344   5.649   2.804   1.533 -0.0342  0.1531 -0.1641
 5262TIP3    H137345   5.683   2.865   1.468  0.1828 -0.6578 -0.8268
 5262TIP3    H237346   5.561   2.837   1.553 -0.5475 -0.1928 -1.6964
 5263TIP3   OH237347   2.465   6.519   0.915  0.5408 -0.2723 -0.4291
 5263TIP3    H137348   2.427   6.598   0.952 -1.7385 -1.4627 -0.0617
 5263TIP3    H237349   2.479   6.461   0.990 -1.3138 -1.5647 -0.9999
 5264TIP3   OH237350   6.899   5.898   2.799  0.3080  0.1823  0.4569
 5264TIP3    H137351   6.877   5.990   2.784  0.2120  0.2712  1.1168
 5264TIP3    H237352   6.908   5.891   2.894 -0.5611 -0.6893  0.4803
 5265TIP3   OH237353   2.853   0.169   2.460  0.1170  0.0204  0.5935
 5265TIP3    H137354   2.765   0.206   2.467  0.4249  0.9106 -0.0229
 5265TIP3    H237355   2.901   0.231   2.405  0.6825 -1.2686 -0.4169
 5266TIP3   OH237356   2.556   0.253   1.627  0.0451 -0.4899  0.1754
 5266TIP3    H137357   2.530   0.208   1.708 -0.5080 -1.7342 -0.6552
 5266TIP3    H237358   2.643   0.288   1.646 -1.3879  2.2929  2.4644
 5267TIP3   OH237359   6.755   5.908   2.563  0.5390  0.3783  0.0576
 5267TIP3    H137360   6.664   5.926   2.585  0.9804  1.8240  0.8522
 5267TIP3    H237361   6.790   5.866   2.642  0.3378 -1.1526 -0.6204
 5268TIP3   OH237362   3.452   0.793   1.412 -0.0731  0.3313  0.3763
 5268TIP3    H137363   3.369   0.807   1.366 -0.5023  0.1355  1.0929
 5268TIP3    H237364   3.513   0.852   1.367 -0.1620 -0.7848 -1.3003
 5269TIP3   OH237365   0.374   3.103   3.342 -0.1418  0.0066 -0.1932
 5269TIP3    H137366   0.362   3.198   3.346 -0.2814 -0.0308  0.2690
 5269TIP3    H237367   0.447   3.085   3.401 -0.8519 -0.2993  0.6200
 5270TIP3   OH237368   5.172   3.087   1.115 -0.1101 -0.2873  0.2644
 5270TIP3    H137369   5.130   3.066   1.032  0.4466 -0.4169  0.0108
 5270TIP3    H237370   5.168   3.183   1.120 -0.6163 -0.3094  0.3435
 5271TIP3   OH237371   5.126   3.943   3.043  0.2213 -0.1793 -0.1481
 5271TIP3    H137372   5.081   3.864   3.073 -0.0272 -0.3285 -0.8890
 5271TIP3    H237373   5.135   3.997   3.122  0.6218 -1.0467  0.4177
 5272TIP3   OH237374   6.898   5.907   7.962  0.4199  0.1971  0.1365
 5272TIP3    H137375   6.859   5.992   7.984  1.1286  0.7481 -0.6286
 5272TIP3    H237376   6.919   5.868   8.046  1.9514  1.7040  0.5242
 5273TIP3   OH237377   6.387   3.741   0.117  0.2936 -0.1079 -0.2522
 5273TIP3    H137378   6.396   3.739   0.022 -1.7187  1.4445 -0.5452
 5273TIP3    H237379   6.406   3.832   0.141  1.0103 -0.5318  0.8771
 5274TIP3   OH237380   2.561   0.259   2.592 -0.6197 -0.5582 -0.5062
 5274TIP3    H137381   2.558   0.196   2.664  1.4101 -1.9134 -1.5092
 5274TIP3    H237382   2.532   0.341   2.631  0.0200 -1.3327  1.7607
 5275TIP3   OH237383   2.957   4.528   0.185 -0.3214  0.4386 -0.1153
 5275TIP3    H137384   3.039   4.526   0.135 -1.4201 -0.4546 -1.9867
 5275TIP3    H237385   2.903   4.592   0.139 -0.9262  0.5085  0.6836
 5276TIP3   OH237386   6.589   0.963   0.150 -0.1547 -0.5966 -0.5006
 5276TIP3    H137387   6.647   0.913   0.208  0.1498  0.1253 -0.1614
 5276TIP3    H237388   6.514   0.906   0.135 -0.8395 -0.3382  1.6321
 5277TIP3   OH237389   4.144   2.457   1.817  0.3119 -0.9361 -0.0676
 5277TIP3    H137390   4.187   2.455   1.731  0.2928  1.0050 -0.1686
 5277TIP3    H237391   4.214   2.439   1.880  0.7622 -0.3237 -0.3820
 5278TIP3   OH237392   4.260   5.091   7.162 -0.3071  1.2939  0.3768
 5278TIP3    H137393   4.199   5.161   7.138 -0.9532  0.7899  0.5380
 5278TIP3    H237394   4.319   5.132   7.226 -0.1603  1.9216 -0.1505
 5279TIP3   OH237395   6.221   1.657   0.333  0.0983  1.1713 -0.3168
 5279TIP3    H137396   6.132   1.687   0.315 -0.3237  0.2242  0.0988
 5279TIP3    H237397   6.210   1.571   0.374  1.2829 -0.3190 -2.8437
 5280TIP3   OH237398   2.193   1.411   0.496  0.0776 -0.1878 -0.2109
 5280TIP3    H137399   2.166   1.487   0.547  0.1576  0.0535 -0.5240
 5280TIP3    H237400   2.251   1.361   0.554  0.6297  0.3809 -0.2633
 5281TIP3   OH237401   6.804   2.569   0.174  0.1835  0.5507  0.0326
 5281TIP3    H137402   6.712   2.545   0.170  0.1671  0.5332  0.4874
 5281TIP3    H237403   6.846   2.514   0.108 -0.2774  1.2658 -0.8837
 5282TIP3   OH237404   2.540   4.256   1.393  0.2640 -0.5959 -0.0207
 5282TIP3    H137405   2.484   4.293   1.461  1.4245 -2.4427  2.1058
 5282TIP3    H237406   2.484   4.194   1.347 -0.6856  1.0714 -1.1738
 5283TIP3   OH237407   1.854   6.349   1.019  0.9066  0.5449 -0.0298
 5283TIP3    H137408   1.862   6.272   1.075  0.4684  0.0031 -0.6955
 5283TIP3    H237409   1.910   6.331   0.943  1.1543  1.0791  0.0178
 5284TIP3   OH237410   5.168   3.582   0.098 -0.7512  0.1420  0.7808
 5284TIP3    H137411   5.194   3.521   0.030  1.5134  0.5310  1.2340
 5284TIP3    H237412   5.140   3.660   0.050  2.0648  0.9002  0.2196
 5285TIP3   OH237413   1.174   5.798   7.978 -0.1447 -0.1182  0.3921
 5285TIP3    H137414   1.120   5.874   8.000 -2.0001 -1.0881 -0.5326
 5285TIP3    H237415   1.227   5.825   7.904  0.7749  0.8855  1.3754
 5286TIP3   OH237416   6.868   2.362   8.430  0.7399  0.5456 -0.0686
 5286TIP3    H137417   6.807   2.316   8.371 -0.6318 -1.5688  2.7414
 5286TIP3    H237418   6.936   2.297   8.449  0.5884  0.7742  1.4095
 5287TIP3   OH237419   1.117   4.716   2.637 -0.7877  0.4208  0.4218
 5287TIP3    H137420   1.203   4.684   2.666 -0.2190  1.0486 -0.4988
 5287TIP3    H237421   1.076   4.750   2.716 -0.0810  0.3190  0.8386
 5288TIP3   OH237422   4.019   4.240   1.062  0.0607  0.0172  0.1285
 5288TIP3    H137423   4.056   4.270   1.146  0.3642  0.6146 -0.2102
 5288TIP3    H237424   3.972   4.316   1.028  0.2671 -0.0986 -0.4271
 5289TIP3   OH237425   4.157   0.227   1.792  0.4260  0.3053 -0.0146
 5289TIP3    H137426   4.125   0.250   1.705 -0.5146 -0.2752  0.1620
 5289TIP3    H237427   4.122   0.295   1.850  1.3749  0.9111 -0.1317
 5290TIP3   OH237428   4.306   5.974   0.346 -0.0056  0.0099 -0.2583
 5290TIP3    H137429   4.287   6.038   0.415 -1.8274 -1.2525  0.4869
 5290TIP3    H237430   4.246   5.902   0.364  1.5173 -1.6233 -1.4782
 5291TIP3   OH237431   0.084   1.533   2.193 -0.2411  0.0745 -0.4218
 5291TIP3    H137432   0.054   1.524   2.102  0.4765 -0.7618 -0.5868
 5291TIP3    H237433   0.008   1.567   2.240 -0.1777  2.0397 -1.6239
 5292TIP3   OH237434   3.334   5.287   1.435 -0.2429  0.0867  0.6598
 5292TIP3    H137435   3.375   5.339   1.366 -0.5290  1.3997  1.4452
 5292TIP3    H237436   3.266   5.237   1.390  0.9451 -0.6949 -0.3377
 5293TIP3   OH237437   1.251   3.146   2.622 -0.3145 -0.2481  0.5645
 5293TIP3    H137438   1.181   3.167   2.684  0.4136 -0.0240  1.3233
 5293TIP3    H237439   1.206   3.106   2.548 -1.1018 -1.7113  1.7662
 5294TIP3   OH237440   3.947   6.505   8.184  0.3789 -0.1866  0.1518
 5294TIP3    H137441   3.919   6.479   8.272 -0.3123  0.5952  0.1722
 5294TIP3    H237442   3.865   6.525   8.138  0.7441 -0.4411 -0.6276
 5295TIP3   OH237443   0.669   2.319   8.023  0.4603 -0.1175 -0.1981
 5295TIP3    H137444   0.751   2.274   8.006  0.2821  0.0787 -1.6760
 5295TIP3    H237445   0.601   2.257   7.995  0.1482  0.2662 -0.3022
 5296TIP3   OH237446   1.144   4.084   0.646  0.3723 -0.4574  0.1996
 5296TIP3    H137447   1.109   4.011   0.594  0.9152  0.1319 -1.0198
 5296TIP3    H237448   1.171   4.043   0.729 -1.5697 -1.2200  0.5183
 5297TIP3   OH237449   6.908   2.218   1.619  0.4464  0.3602  0.7739
 5297TIP3    H137450   6.986   2.167   1.638  0.8399 -0.5752 -2.6850
 5297TIP3    H237451   6.836   2.164   1.651  0.9766 -1.6784 -1.1855
 5298TIP3   OH237452   5.224   0.638   1.851 -0.1868  0.1242  0.0792
 5298TIP3    H137453   5.222   0.732   1.867  1.5773  0.3608 -0.7985
 5298TIP3    H237454   5.288   0.604   1.914  1.0236 -0.0905 -1.2262
 5299TIP3   OH237455   6.849   4.811   3.342 -0.4214 -1.0198 -0.3714
 5299TIP3    H137456   6.755   4.798   3.331 -0.3740 -1.8494  0.0720
 5299TIP3    H237457   6.860   4.905   3.350 -1.0611 -0.8026 -1.7649
 5300TIP3   OH237458   5.606   4.905   8.090  0.0814  0.3104  0.5468
 5300TIP3    H137459   5.521   4.903   8.046  0.0426 -1.8486  0.6508
 5300TIP3    H237460   5.589   4.947   8.174 -0.8468  0.0687  0.4873
 5301TIP3   OH237461   6.966   5.128   8.189  0.1595 -0.4210  0.1354
 5301TIP3    H137462   6.996   5.155   8.102  1.9867  1.8944  1.3785
 5301TIP3    H237463   7.042   5.082   8.227 -1.0913 -2.6855  0.0823
 5302TIP3   OH237464   3.966   1.468   1.192 -0.0987  0.2307  0.4914
 5302TIP3    H137465   3.882   1.473   1.237  0.5797  1.8605  1.7073
 5302TIP3    H237466   4.018   1.408   1.246  0.6865  2.1200  2.0084
 5303TIP3   OH237467   1.621   0.670   3.019  0.1117  0.7195 -0.6684
 5303TIP3    H137468   1.536   0.628   3.027 -0.3296  1.6677 -0.3137
 5303TIP3    H237469   1.613   0.727   2.942  0.4578  0.7353 -0.6949
 5304TIP3   OH237470   0.991   0.744   0.178  0.0078  0.0436  0.0943
 5304TIP3    H137471   0.952   0.759   0.264  0.5992 -0.1776  0.4088
 5304TIP3    H237472   1.063   0.683   0.195  0.3689  0.2943 -0.4994
 5305TIP3   OH237473   3.785   2.799   7.885 -0.0071 -0.2430 -0.5977
 5305TIP3    H137474   3.836   2.861   7.936 -1.2784 -0.5235  1.1239
 5305TIP3    H237475   3.841   2.775   7.812  1.2555  1.4417 -0.2335
 5306TIP3   OH237476   5.240   1.141   8.363  0.4829  0.2686 -0.0732
 5306TIP3    H137477   5.257   1.061   8.412 -0.7632  0.1310  0.1640
 5306TIP3    H237478   5.149   1.133   8.334  0.7065  1.0641 -1.0637
 5307TIP3   OH237479   3.420   1.421   1.065  0.2333  0.0268  0.4519
 5307TIP3    H137480   3.383   1.487   1.006  0.6297  0.5738  0.8070
 5307TIP3    H237481   3.428   1.466   1.149 -0.1318 -0.6833  0.8770
 5308TIP3   OH237482   5.666   4.887   7.791 -0.3146 -0.4782  0.2232
 5308TIP3    H137483   5.656   4.907   7.698 -0.1784 -0.2612  0.2550
 5308TIP3    H237484   5.578   4.894   7.826 -0.1348  0.9975  0.4152
 5309TIP3   OH237485   0.912   6.154   3.160 -0.1479  0.1847  0.1794
 5309TIP3    H137486   0.823   6.189   3.153  0.9784  2.9758 -3.1318
 5309TIP3    H237487   0.969   6.229   3.145  2.6847 -2.0774 -1.4438
 5310TIP3   OH237488   5.862   4.503   7.070 -0.1306  0.3382 -0.2214
 5310TIP3    H137489   5.803   4.497   6.994  0.8315 -2.0843 -0.8418
 5310TIP3    H237490   5.803   4.501   7.145 -1.0264  1.5379 -0.8466
 5311TIP3   OH237491   3.851   4.661   2.215  0.3483 -0.0373  0.6424
 5311TIP3    H137492   3.888   4.700   2.137 -0.2659  0.7668  0.7363
 5311TIP3    H237493   3.830   4.570   2.190  1.2061 -0.1253  0.2323
 5312TIP3   OH237494   4.467   2.939   7.850 -0.4526  0.6925  0.4869
 5312TIP3    H137495   4.548   2.951   7.899 -0.4280  0.1223  0.5890
 5312TIP3    H237496   4.398   2.972   7.908 -0.3715  0.4804  0.7041
 5313TIP3   OH237497   2.963   6.626   3.108 -0.6022  0.0826  0.1875
 5313TIP3    H137498   3.029   6.612   3.176 -0.5078  1.6795  0.4530
 5313TIP3    H237499   2.902   6.690   3.146 -1.5978 -0.3989 -0.5400
 5314TIP3   OH237500   4.370   4.919   1.234 -0.1529 -0.2028 -0.2391
 5314TIP3    H137501   4.373   4.899   1.328 -0.8721  2.1806  0.3701
 5314TIP3    H237502   4.462   4.924   1.208  0.0980  0.8179  0.7795
 5315TIP3   OH237503   4.278   2.116   1.819  0.5573 -0.3447  0.8918
 5315TIP3    H137504   4.227   2.092   1.896  0.6740 -0.9826  0.7754
 5315TIP3    H237505   4.214   2.149   1.756  0.4335 -0.0426  1.1800
 5316TIP3   OH237506   1.013   0.920   0.738  0.4557 -0.0893 -0.6630
 5316TIP3    H137507   1.056   0.936   0.654  1.6434  1.5349  0.1908
 5316TIP3    H237508   1.023   1.003   0.785 -3.3628  0.3445 -0.2532
 5317TIP3   OH237509   0.906   4.661   7.560  0.2446 -0.6401 -0.9229
 5317TIP3    H137510   0.859   4.699   7.486 -0.1806 -3.7418 -2.4186
 5317TIP3    H237511   0.993   4.639   7.525  0.6791 -0.5275  0.0419
 5318TIP3   OH237512   2.894   3.997   2.529  0.1346 -0.4128  0.4373
 5318TIP3    H137513   2.804   3.999   2.561  0.1014  1.2931  0.3255
 5318TIP3    H237514   2.945   3.968   2.605 -0.2609  0.9253  1.2513
 5319TIP3   OH237515   0.984   0.352   0.336  0.1644 -0.1863  0.0024
 5319TIP3    H137516   1.018   0.424   0.388 -1.0465 -0.8740  1.8444
 5319TIP3    H237517   0.944   0.393   0.260  0.7657  0.9679  0.2948
 5320TIP3   OH237518   1.449   3.520   0.378  0.4869 -0.3039 -0.1530
 5320TIP3    H137519   1.446   3.434   0.419  0.1736 -1.2353 -2.0138
 5320TIP3    H237520   1.542   3.541   0.371  0.5764 -0.7061 -0.1361
 5321TIP3   OH237521   6.872   6.730   2.826  0.0615  0.3952 -0.3603
 5321TIP3    H137522   6.798   6.700   2.880 -1.3589  2.7137 -0.8912
 5321TIP3    H237523   6.930   6.654   2.821 -1.3607 -0.9265  1.6486
 5322TIP3   OH237524   0.449   5.031   1.511  0.6902 -0.0996  0.2440
 5322TIP3    H137525   0.544   5.032   1.510  0.7038  1.1820  0.5318
 5322TIP3    H237526   0.424   5.115   1.473 -0.4277 -2.1483 -4.1210
 5323TIP3   OH237527   4.495   6.956   8.210  0.4539  0.1545 -0.0187
 5323TIP3    H137528   4.545   7.000   8.142  0.2540 -1.0415 -0.9818
 5323TIP3    H237529   4.421   6.916   8.163 -0.5469  0.5777  1.1334
 5324TIP3   OH237530   5.035   1.181   1.946 -0.0152  0.1369 -0.1366
 5324TIP3    H137531   5.094   1.235   2.000  0.0104 -1.0590  1.0818
 5324TIP3    H237532   5.086   1.102   1.928 -1.0804 -0.7488  0.6122
 5325TIP3   OH237533   4.919   2.433   0.826  0.2131 -0.2560 -0.0644
 5325TIP3    H137534   4.877   2.453   0.743  3.3303 -1.5403 -2.1525
 5325TIP3    H237535   4.969   2.353   0.809  1.1516 -0.4572  2.9882
 5326TIP3   OH237536   0.151   4.373   2.274  0.4878  0.0927  0.1679
 5326TIP3    H137537   0.123   4.310   2.207 -0.0173  1.5201 -0.9959
 5326TIP3    H237538   0.246   4.361   2.279  0.3698 -0.9514  0.1798
 5327TIP3   OH237539   4.227   2.997   0.405 -0.4151  0.4556 -0.5214
 5327TIP3    H137540   4.134   2.980   0.418 -0.5261  0.4849 -1.2390
 5327TIP3    H237541   4.241   2.986   0.311  0.8369 -2.1428 -0.1123
 5328TIP3   OH237542   3.432   2.893   1.291  0.1822 -0.3805  0.1778
 5328TIP3    H137543   3.450   2.875   1.198 -0.9939 -1.7833  0.1945
 5328TIP3    H237544   3.364   2.831   1.315 -0.6379  0.9961  1.5945
 5329TIP3   OH237545   2.500   3.427   2.310  0.9786 -0.3992  0.0608
 5329TIP3    H137546   2.578   3.425   2.366 -0.5857 -0.7936  2.3576
 5329TIP3    H237547   2.455   3.344   2.329 -0.6454  0.3798 -0.2277
 5330TIP3   OH237548   5.356   3.857   0.680 -0.0721  0.1991  0.1681
 5330TIP3    H137549   5.422   3.919   0.710  1.6094 -0.7468 -1.4079
 5330TIP3    H237550   5.286   3.863   0.745  2.8123 -0.9486  3.6617
 5331TIP3   OH237551   6.663   1.801   0.907  0.1190  0.8564  0.0761
 5331TIP3    H137552   6.681   1.861   0.979 -0.9728 -0.2736  1.3630
 5331TIP3    H237553   6.708   1.720   0.932 -0.5987  0.3262 -0.3223
 5332TIP3   OH237554   0.987   3.846   0.531 -0.2623  0.4591 -0.6466
 5332TIP3    H137555   1.054   3.808   0.474  0.3656 -0.4156  0.6355
 5332TIP3    H237556   0.974   3.781   0.600 -0.4249  1.8213  0.6554
 5333TIP3   OH237557   1.448   1.659   1.608 -0.3087 -0.3509 -0.1679
 5333TIP3    H137558   1.481   1.702   1.529 -0.1812 -1.5476 -0.7953
 5333TIP3    H237559   1.353   1.671   1.603 -0.2653 -0.0337 -0.2701
 5334TIP3   OH237560   1.290   0.310   8.039  0.5807  0.0884  0.2894
 5334TIP3    H137561   1.332   0.362   7.970 -0.3555 -0.3847 -0.6777
 5334TIP3    H237562   1.270   0.226   7.997 -0.4518 -0.0373  0.9925
 5335TIP3   OH237563   0.565   1.948   2.369  0.3716  0.1953 -0.2912
 5335TIP3    H137564   0.649   1.991   2.381  0.4773  0.1803 -0.9806
 5335TIP3    H237565   0.505   2.018   2.345  0.4923 -0.0039 -1.1790
 5336TIP3   OH237566   1.079   0.928   2.956  0.0758 -0.6604  0.3404
 5336TIP3    H137567   1.064   1.022   2.955 -1.5623 -0.8681  1.8763
 5336TIP3    H237568   1.159   0.917   3.008  1.4071 -0.0672 -1.4287
 5337TIP3   OH237569   4.732   0.730   2.635 -0.6730  0.8028 -0.4598
 5337TIP3    H137570   4.791   0.771   2.699 -0.4278  0.8916 -0.7423
 5337TIP3    H237571   4.682   0.667   2.686  0.3517  0.0151 -0.3937
 5338TIP3   OH237572   6.625   0.397   3.532 -0.0857 -0.3190  0.1457
 5338TIP3    H137573   6.714   0.379   3.559 -0.0504  0.1185  0.3248
 5338TIP3    H237574   6.618   0.356   3.445  0.1644 -0.6860  0.2962
 5339TIP3   OH237575   4.542   6.100   0.754  0.0812 -0.6838 -0.3764
 5339TIP3    H137576   4.528   6.136   0.842 -0.2698  0.5351 -0.9123
 5339TIP3    H237577   4.626   6.135   0.726 -0.5184  0.2142 -1.1215
 5340TIP3   OH237578   2.442   0.923   1.111  0.0753 -0.7091 -0.1241
 5340TIP3    H137579   2.376   0.860   1.081  0.7878 -1.1908 -0.7381
 5340TIP3    H237580   2.519   0.869   1.128  0.8899  0.0599 -1.2474
 5341TIP3   OH237581   4.541   5.936   2.020 -0.7281 -0.7373  0.4026
 5341TIP3    H137582   4.605   5.868   2.039  2.6636  1.6000 -1.5334
 5341TIP3    H237583   4.489   5.902   1.947 -0.4079 -1.9349  0.7194
 5342TIP3   OH237584   2.331   0.793   8.278 -0.3018 -0.3854 -0.0899
 5342TIP3    H137585   2.415   0.836   8.293 -1.3012  1.5107  0.5364
 5342TIP3    H237586   2.327   0.780   8.183  1.4266 -2.2051  0.0398
 5343TIP3   OH237587   0.208   0.796   0.335  0.3648 -0.2671 -0.2744
 5343TIP3    H137588   0.133   0.850   0.358 -0.8438 -2.0408  0.1834
 5343TIP3    H237589   0.212   0.799   0.240 -0.1178  0.0843 -0.2861
 5344TIP3   OH237590   3.014   4.353   1.042  0.4750  0.1684 -0.2204
 5344TIP3    H137591   2.974   4.321   0.961  1.9872 -1.9971 -0.1605
 5344TIP3    H237592   3.099   4.311   1.046  2.1673  3.3648  0.5053
 5345TIP3   OH237593   4.241   4.694   6.897  0.2409 -0.0857  0.0962
 5345TIP3    H137594   4.236   4.601   6.920 -0.9839 -0.6034 -2.0123
 5345TIP3    H237595   4.157   4.730   6.926  0.3782  0.1867  0.1579
 5346TIP3   OH237596   4.769   5.570   0.160  0.1525 -0.2997 -0.3610
 5346TIP3    H137597   4.715   5.497   0.131 -0.2123  0.0034 -0.4378
 5346TIP3    H237598   4.714   5.619   0.220  0.0713  0.4341 -1.0142
 5347TIP3   OH237599   6.402   0.002   2.874  0.7469  0.5205  0.3327
 5347TIP3    H137600   6.432   0.065   2.808  2.0508  0.0145  0.4098
 5347TIP3    H237601   6.319  -0.031   2.840  0.4520  1.6538 -0.1103
 5348TIP3   OH237602   3.719   1.502   3.051 -0.4595 -0.0883 -0.3029
 5348TIP3    H137603   3.767   1.585   3.042 -2.7775  1.3683 -0.0089
 5348TIP3    H237604   3.746   1.468   3.136 -1.3288  1.6707  0.7195
 5349TIP3   OH237605   4.178   4.659   1.969 -0.7619 -0.3657 -0.5138
 5349TIP3    H137606   4.191   4.611   1.887 -0.6679 -1.1953 -0.0301
 5349TIP3    H237607   4.262   4.651   2.015 -1.3134 -1.3044  0.3670
 5350TIP3   OH237608   3.391   0.968   3.670  0.1009 -0.1852 -0.0932
 5350TIP3    H137609   3.337   1.029   3.721 -1.4319 -1.7998  0.3275
 5350TIP3    H237610   3.329   0.926   3.610  1.1476 -1.1480 -0.5373
 5351TIP3   OH237611   6.770   1.310   2.311 -0.0922  0.1035  0.1120
 5351TIP3    H137612   6.821   1.301   2.392 -0.6216 -1.4474  0.3164
 5351TIP3    H237613   6.824   1.269   2.244 -0.5313 -0.4636  0.0954
 5352TIP3   OH237614   5.276   0.545   2.689  0.4337  0.3620 -0.1275
 5352TIP3    H137615   5.349   0.499   2.648  0.0106  0.4332 -0.9851
 5352TIP3    H237616   5.310   0.575   2.773  0.8097 -1.2553  0.3248
 5353TIP3   OH237617   0.644   5.824   7.233  0.1555  0.4334  0.3130
 5353TIP3    H137618   0.710   5.830   7.165  1.8869 -3.7911  1.2913
 5353TIP3    H237619   0.561   5.836   7.187  1.3382 -0.5285 -2.2567
 5354TIP3   OH237620   3.951   1.930   2.362 -0.4664  0.7098 -0.3758
 5354TIP3    H137621   3.946   1.844   2.320 -0.7248 -1.0207  2.8408
 5354TIP3    H237622   4.044   1.945   2.374 -0.4083  1.0370 -1.1812
 5355TIP3   OH237623   0.324   4.097   1.861 -0.3317 -0.2691 -0.0599
 5355TIP3    H137624   0.254   4.127   1.803  0.1116  0.1979 -0.3594
 5355TIP3    H237625   0.398   4.079   1.803 -0.1106 -0.4713  0.2838
 5356TIP3   OH237626   1.394   6.299   1.088 -0.4934 -0.0663  0.3971
 5356TIP3    H137627   1.299   6.297   1.078 -0.3631  0.1017 -1.0573
 5356TIP3    H237628   1.408   6.311   1.182 -1.8796 -1.6848  0.8651
 5357TIP3   OH237629   0.870   6.370   2.129 -1.0126  0.3647  0.3457
 5357TIP3    H137630   0.788   6.346   2.086 -1.2604 -0.8712  1.4432
 5357TIP3    H237631   0.935   6.311   2.092 -0.8403  0.5759  0.3070
 5358TIP3   OH237632   6.360   3.370   1.646  0.8390  0.1473  0.1560
 5358TIP3    H137633   6.340   3.294   1.591  1.2051 -1.7609  2.4790
 5358TIP3    H237634   6.342   3.340   1.735  4.7538  1.3787  1.5689
 5359TIP3   OH237635   5.194   2.269   1.857  0.0732 -0.5213  0.1099
 5359TIP3    H137636   5.167   2.291   1.946  0.0040  1.4124 -0.3409
 5359TIP3    H237637   5.282   2.305   1.848  0.2405 -1.0497 -0.4940
 5360TIP3   OH237638   4.274   5.021   1.885 -0.3800  0.6577  0.1569
 5360TIP3    H137639   4.259   4.938   1.839 -0.6500  0.6290  0.2956
 5360TIP3    H237640   4.223   5.085   1.835 -2.0133  0.3417  1.3484
 5361TIP3   OH237641   3.109   6.419   1.801  0.2489 -0.1687  0.8730
 5361TIP3    H137642   3.148   6.481   1.862  1.7343 -1.3392  1.1983
 5361TIP3    H237643   3.167   6.420   1.725 -1.4657  1.1172 -0.4907
 5362TIP3   OH237644   4.832   3.973   0.984  0.2561  0.1270  0.2012
 5362TIP3    H137645   4.812   3.893   1.033 -0.7780  0.7550  0.8376
 5362TIP3    H237646   4.747   4.008   0.959  0.7514  0.1900 -1.4776
 5363TIP3   OH237647   4.954   1.354   8.329  0.1538 -0.2380  0.3507
 5363TIP3    H137648   4.868   1.397   8.330 -1.5899 -3.4401  0.4008
 5363TIP3    H237649   4.954   1.300   8.408  0.2042 -3.7841 -1.8880
 5364TIP3   OH237650   3.344   3.291   1.006  0.5691 -0.5241  0.2074
 5364TIP3    H137651   3.293   3.277   1.086  1.0267 -1.3852  0.3634
 5364TIP3    H237652   3.363   3.203   0.974  1.9516 -0.2376  0.1557
 5365TIP3   OH237653   3.031   2.453   2.168  0.3814  0.4468 -0.1328
 5365TIP3    H137654   3.093   2.381   2.160  0.0934  0.0724  0.8655
 5365TIP3    H237655   3.074   2.527   2.125  0.7204 -0.2812 -1.0748
 5366TIP3   OH237656   1.179   4.246   3.309 -0.0536 -0.3288 -0.3138
 5366TIP3    H137657   1.142   4.265   3.396 -0.4360  0.1581 -0.5769
 5366TIP3    H237658   1.145   4.316   3.253  1.4316  0.2572 -0.5304
 5367TIP3   OH237659   3.679   6.112   0.291 -0.0857  0.0363 -0.4926
 5367TIP3    H137660   3.600   6.068   0.320 -0.3296  0.9755  0.3107
 5367TIP3    H237661   3.648   6.185   0.236  0.2254  0.2729 -0.3629
 5368TIP3   OH237662   1.243   3.686   1.640 -0.1279 -0.1966  0.1905
 5368TIP3    H137663   1.294   3.720   1.567 -1.0840  1.0976  0.0950
 5368TIP3    H237664   1.243   3.591   1.627  2.6261 -0.3136  0.4697
 5369TIP3   OH237665   2.295   6.027   7.582 -0.5864 -0.7923  0.6284
 5369TIP3    H137666   2.243   6.093   7.536 -2.0979 -1.4200  1.3805
 5369TIP3    H237667   2.327   5.969   7.513 -0.8960 -0.4020  0.1540
 5370TIP3   OH237668   0.872   6.688   7.853 -0.6938  0.0916 -0.1578
 5370TIP3    H137669   0.883   6.649   7.940  0.5625 -2.0782 -1.1968
 5370TIP3    H237670   0.900   6.779   7.864  1.7569 -0.7205  1.2783
 5371TIP3   OH237671   1.754   3.821   0.971 -0.3891  0.4054  0.0334
 5371TIP3    H137672   1.825   3.869   1.014  0.5546 -0.4750 -0.5005
 5371TIP3    H237673   1.680   3.829   1.031 -0.1571  2.2228  0.1095
 5372TIP3   OH237674   4.087   3.718   6.411 -0.2169  0.1500 -0.0933
 5372TIP3    H137675   4.111   3.782   6.478 -2.1517 -0.4378  1.2405
 5372TIP3    H237676   4.020   3.760   6.359  0.6772  0.2860 -1.1744
 5373TIP3   OH237677   4.578   1.214   0.146 -0.0675 -0.2152  0.6630
 5373TIP3    H137678   4.549   1.154   0.214 -0.5043 -0.5482  0.1956
 5373TIP3    H237679   4.497   1.241   0.102  0.2895 -0.8895 -0.4432
 5374TIP3   OH237680   1.858   1.426   0.790 -0.7793 -0.3598 -0.0066
 5374TIP3    H137681   1.898   1.341   0.808  0.9671  0.3271 -0.4156
 5374TIP3    H237682   1.897   1.485   0.855 -0.9154  0.3869 -0.5860
 5375TIP3   OH237683   2.171   6.673   7.541 -0.2547  0.0291  0.7877
 5375TIP3    H137684   2.203   6.731   7.610  1.4524 -0.3932  0.3824
 5375TIP3    H237685   2.240   6.673   7.475 -0.7860 -1.4705  0.1910
 5376TIP3   OH237686   4.730   3.053   0.775  0.0198 -0.1768 -0.2336
 5376TIP3    H137687   4.759   2.999   0.701  0.0741  0.0543 -0.3848
 5376TIP3    H237688   4.726   3.142   0.739 -0.7914 -0.1905 -0.1915
 5377TIP3   OH237689   0.913   4.043   8.018 -0.4668 -0.0788  0.6431
 5377TIP3    H137690   0.939   4.083   7.934 -1.4543 -2.4350 -0.8744
 5377TIP3    H237691   0.964   4.092   8.084 -0.0843  2.2488 -1.2231
 5378TIP3   OH237692   2.142   4.185   1.578  0.5118  0.1336 -0.1368
 5378TIP3    H137693   2.135   4.095   1.609 -0.0888  0.3268  0.2992
 5378TIP3    H237694   2.201   4.228   1.640 -0.4447  0.4395  0.5843
 5379TIP3   OH237695   3.468   3.767   1.027  0.0263  0.2474 -0.0981
 5379TIP3    H137696   3.433   3.689   0.984 -2.1617  1.2311 -0.2014
 5379TIP3    H237697   3.413   3.780   1.104  0.7631  1.3270  0.2779
 5380TIP3   OH237698   3.722   3.826   8.402  0.1348 -0.4665  0.1311
 5380TIP3    H137699   3.814   3.807   8.422  0.6897  2.1820  0.5197
 5380TIP3    H237700   3.691   3.876   8.477 -1.0421  0.3528 -0.8513
 5381TIP3   OH237701   1.704   4.252   2.588  0.4551 -0.1677 -0.1869
 5381TIP3    H137702   1.719   4.291   2.674 -2.0790 -2.1673  1.3101
 5381TIP3    H237703   1.634   4.304   2.549 -0.0646 -0.6896  0.0316
 5382TIP3   OH237704   1.258   5.617   0.569 -0.0797  0.4523 -0.0786
 5382TIP3    H137705   1.309   5.689   0.606  1.6005 -0.5953 -0.2467
 5382TIP3    H237706   1.176   5.619   0.618  1.0246  0.7577  1.8967
 5383TIP3   OH237707   3.149   1.620   3.008 -0.0113  0.1757 -0.2851
 5383TIP3    H137708   3.091   1.651   2.939  0.1299  0.7058 -0.1723
 5383TIP3    H237709   3.105   1.543   3.044 -1.3914  1.4073  0.7963
 5384TIP3   OH237710   2.847   2.577   0.873 -0.2797  0.2547  0.5594
 5384TIP3    H137711   2.791   2.502   0.849  0.7654 -0.8064  1.3172
 5384TIP3    H237712   2.785   2.647   0.893 -1.3654 -0.8131  1.1171
 5385TIP3   OH237713   6.360   2.900   1.960 -0.8403  0.1187 -0.7646
 5385TIP3    H137714   6.426   2.968   1.976 -1.8056  0.7052  0.9849
 5385TIP3    H237715   6.279   2.936   1.994 -1.4768 -1.7316 -0.1874
 5386TIP3   OH237716   5.568   4.531   2.157 -0.1128 -0.1120  0.3560
 5386TIP3    H137717   5.563   4.470   2.084  1.9538  0.6964 -0.5573
 5386TIP3    H237718   5.479   4.566   2.166 -1.0383 -2.2285  0.0802
 5387TIP3   OH237719   3.850   1.150   0.989  0.0810  0.3955 -0.1324
 5387TIP3    H137720   3.783   1.217   1.000 -0.4186 -0.2212  0.7925
 5387TIP3    H237721   3.904   1.158   1.067 -0.6126 -0.9384  0.5237
 5388TIP3   OH237722   2.122   4.511   0.379  0.3086 -0.1178  0.6171
 5388TIP3    H137723   2.054   4.488   0.316 -0.6112  1.0419  1.1418
 5388TIP3    H237724   2.148   4.428   0.418 -0.9539 -0.5737  0.5373
 5389TIP3   OH237725   2.465   0.587   0.189  0.9164 -0.1319 -0.0838
 5389TIP3    H137726   2.527   0.652   0.222 -1.2345  2.6583 -1.1072
 5389TIP3    H237727   2.407   0.570   0.263 -0.8927  2.2769 -0.8492
 5390TIP3   OH237728   1.602   0.021   8.213 -0.2155  0.2725 -0.2833
 5390TIP3    H137729   1.685   0.059   8.241  0.4271 -1.0330 -0.3539
 5390TIP3    H237730   1.623  -0.069   8.190 -1.8239 -0.3501  0.5563
 5391TIP3   OH237731   1.219   2.871   0.335  0.0533 -0.3194  0.4609
 5391TIP3    H137732   1.129   2.840   0.326  0.3952 -0.8321 -1.7578
 5391TIP3    H237733   1.272   2.807   0.287  1.4937  0.5060  0.8651
 5392TIP3   OH237734   5.410   6.746   1.893 -0.3454 -0.3913 -0.2508
 5392TIP3    H137735   5.424   6.651   1.897 -2.9726 -0.8410  0.1677
 5392TIP3    H237736   5.468   6.781   1.961 -1.4017 -2.0172  1.5879
 5393TIP3   OH237737   2.299   0.054   7.528  0.9347  0.4605 -0.4268
 5393TIP3    H137738   2.325   0.027   7.440  0.0959  0.0202 -0.5533
 5393TIP3    H237739   2.264   0.142   7.518 -0.3703 -0.0660 -0.7853
 5394TIP3   OH237740   2.620   6.951   7.561  0.4775  0.1495 -0.0540
 5394TIP3    H137741   2.594   7.017   7.626 -0.8878 -0.5241  0.1291
 5394TIP3    H237742   2.537   6.919   7.525  1.1795 -0.0993 -1.5414
 5395TIP3   OH237743   4.121   0.640   2.696 -0.3162  0.0528 -0.0307
 5395TIP3    H137744   4.191   0.705   2.700 -1.6498  1.6690 -1.1252
 5395TIP3    H237745   4.116   0.604   2.785  0.8668  1.0034  0.4475
 5396TIP3   OH237746   2.305   6.838   7.720  0.6069  0.3939  0.2578
 5396TIP3    H137747   2.323   6.883   7.803 -0.6717  1.3717  0.0386
 5396TIP3    H237748   2.313   6.907   7.654  2.5844 -0.5703 -0.5863
 5397TIP3   OH237749   6.100   3.804   1.332  0.4738  0.0110  0.7367
 5397TIP3    H137750   6.048   3.867   1.383  1.7777  1.8753 -0.1323
 5397TIP3    H237751   6.075   3.822   1.241  0.8744 -0.7408  0.4787
 5398TIP3   OH237752   6.092   6.007   1.359  0.6265 -0.0245  0.1517
 5398TIP3    H137753   6.034   6.083   1.359  0.3682 -0.2213 -0.0559
 5398TIP3    H237754   6.060   5.951   1.288 -1.0822 -1.7547  2.1435
 5399TIP3   OH237755   3.263   4.929   0.234 -0.0500 -0.0789 -0.8453
 5399TIP3    H137756   3.336   4.934   0.172 -0.3229 -0.1163 -1.1792
 5399TIP3    H237757   3.258   5.016   0.273  0.4725 -0.2176 -0.4688
 5400TIP3   OH237758   6.402   0.415   0.728 -0.1426 -0.1496  0.3473
 5400TIP3    H137759   6.456   0.454   0.660  0.9072  0.2470  1.3691
 5400TIP3    H237760   6.428   0.323   0.730 -0.5055 -0.2619 -0.0942
 5401TIP3   OH237761   4.344   2.586   0.566 -0.0272  0.0058 -0.3264
 5401TIP3    H137762   4.263   2.611   0.520  0.6890  1.1586 -1.0258
 5401TIP3    H237763   4.390   2.530   0.504  0.1699  0.1824 -0.3399
 5402TIP3   OH237764   4.331   4.448   2.950 -0.1889 -0.2931  0.6619
 5402TIP3    H137765   4.381   4.404   3.019  0.2673  0.0446  0.5565
 5402TIP3    H237766   4.332   4.540   2.975  0.2535 -0.1231  0.0476
 5403TIP3   OH237767   1.159   1.644   3.346 -0.5497 -0.0206  0.4025
 5403TIP3    H137768   1.227   1.577   3.338 -2.3561 -1.9691  0.3495
 5403TIP3    H237769   1.078   1.599   3.322 -2.4541  1.0511  3.9504
 5404TIP3   OH237770   3.434   3.223   7.456 -0.1543  0.1928 -0.1242
 5404TIP3    H137771   3.344   3.203   7.431 -0.2782  1.8324 -1.0818
 5404TIP3    H237772   3.474   3.137   7.469 -0.9415 -0.7192 -2.9949
 5405TIP3   OH237773   6.512   4.043   8.243 -0.3631 -0.2059 -0.0874
 5405TIP3    H137774   6.534   3.966   8.191  0.0805  0.0437 -0.2738
 5405TIP3    H237775   6.573   4.041   8.317  1.6018  1.4540 -1.5341
 5406TIP3   OH237776   6.772   0.737   7.537  0.9201 -0.4742  0.3895
 5406TIP3    H137777   6.721   0.722   7.618 -1.1456 -1.1517 -0.9413
 5406TIP3    H237778   6.744   0.666   7.479  0.2531  1.5115 -1.8726
 5407TIP3   OH237779   0.558   2.115   8.437 -0.1304 -0.0291 -0.5644
 5407TIP3    H137780   0.545   2.050   8.368 -0.7849  1.9301 -2.4357
 5407TIP3    H237781   0.649   2.145   8.424  0.4587 -1.1185  0.8399
 5408TIP3   OH237782   3.734   5.509   0.845  0.9398 -0.0086 -0.6894
 5408TIP3    H137783   3.795   5.571   0.885  0.1081 -0.2579  1.0710
 5408TIP3    H237784   3.790   5.446   0.799  1.9201  0.6136 -0.3767
 5409TIP3   OH237785   4.200   6.661   7.959 -0.2353 -0.5757  0.3679
 5409TIP3    H137786   4.293   6.638   7.961  0.3623  1.5613 -0.1387
 5409TIP3    H237787   4.181   6.690   8.048 -0.0572  0.1968  0.1619
 5410TIP3   OH237788   4.357   3.349   2.715 -0.0022 -0.2037 -0.1282
 5410TIP3    H137789   4.443   3.390   2.700 -1.2448  2.4863 -0.3964
 5410TIP3    H237790   4.341   3.360   2.808  0.0613 -1.0070 -0.0146
 5411TIP3   OH237791   2.610   2.710   2.293 -0.3022  0.1198 -0.4392
 5411TIP3    H137792   2.595   2.790   2.344 -0.1660 -1.0168  1.4778
 5411TIP3    H237793   2.703   2.713   2.271 -0.2233  0.3496 -0.0932
 5412TIP3   OH237794   3.091   3.076   7.567  0.4927 -0.6599  0.4721
 5412TIP3    H137795   3.112   2.984   7.579  0.3465 -0.9103 -0.9323
 5412TIP3    H237796   3.127   3.097   7.480  0.4734  0.5829  0.7484
 5413TIP3   OH237797   3.016   2.428   7.792  0.3117  0.4267  0.0235
 5413TIP3    H137798   2.940   2.381   7.757 -0.2543 -0.1182  1.8762
 5413TIP3    H237799   2.994   2.520   7.783  0.9995  0.4023 -2.7218
 5414TIP3   OH237800   4.116   2.299   2.810 -0.7816  0.8881 -0.2924
 5414TIP3    H137801   4.164   2.217   2.802  0.1683  1.6318 -3.2038
 5414TIP3    H237802   4.041   2.289   2.752 -0.2850  2.2856 -1.2274
 5415TIP3   OH237803   3.973   6.299   2.980  0.3827  0.6610  0.2518
 5415TIP3    H137804   4.018   6.310   2.896  0.8298 -1.3078  0.1721
 5415TIP3    H237805   4.043   6.308   3.045 -0.3151  4.4806  0.6760
 5416TIP3   OH237806   4.533   2.970   2.258  0.0033 -0.0026  0.2033
 5416TIP3    H137807   4.557   3.059   2.235 -1.2678 -0.0431 -1.4477
 5416TIP3    H237808   4.468   2.979   2.328 -1.7105  0.5126 -1.3864
 5417TIP3   OH237809   4.294   5.325   3.659 -0.2003  0.0203 -0.6433
 5417TIP3    H137810   4.248   5.370   3.589 -2.1598  2.5181  1.9881
 5417TIP3    H237811   4.237   5.251   3.682 -0.3324  0.0994 -0.7174
 5418TIP3   OH237812   4.441   1.822   7.965 -0.1694 -0.3596 -0.1628
 5418TIP3    H137813   4.385   1.891   7.930 -0.5500 -0.3185  0.5123
 5418TIP3    H237814   4.467   1.771   7.888  1.4884  1.4934 -0.9294
 5419TIP3   OH237815   0.268   5.317   3.162  0.7271 -0.5392 -0.1445
 5419TIP3    H137816   0.358   5.284   3.164  0.2252 -2.0885 -1.1647
 5419TIP3    H237817   0.221   5.263   3.225  0.3666 -0.1554 -0.0776
 5420TIP3   OH237818   3.454   3.718   0.460  0.1777  0.2403  0.1901
 5420TIP3    H137819   3.516   3.709   0.532  1.0458 -1.1356 -0.6914
 5420TIP3    H237820   3.466   3.807   0.428  0.3395  0.6036  1.2376
 5421TIP3   OH237821   6.052   5.170   7.915 -0.1059  0.3217  0.2552
 5421TIP3    H137822   5.991   5.127   7.975  1.9928  0.2147  2.5096
 5421TIP3    H237823   6.081   5.099   7.857  1.2673 -0.8176  2.1844
 5422TIP3   OH237824   3.765   4.678   1.174 -0.3113  0.2992  0.0296
 5422TIP3    H137825   3.800   4.757   1.132 -0.1613 -0.8134 -2.0458
 5422TIP3    H237826   3.763   4.700   1.267  1.5974  2.0476 -0.2674
 5423TIP3   OH237827   4.657   5.491   3.017 -0.3347  0.3346 -0.3468
 5423TIP3    H137828   4.644   5.537   3.100  0.0395  1.5721 -0.9604
 5423TIP3    H237829   4.743   5.450   3.026 -1.3305 -1.6981  0.8335
 5424TIP3   OH237830   4.121   6.991   7.951 -0.2773  0.4003 -0.4551
 5424TIP3    H137831   4.124   6.993   8.047 -0.4054 -1.7544 -0.3408
 5424TIP3    H237832   4.030   7.012   7.929 -0.3269  0.5723 -0.0862
 5425TIP3   OH237833   4.603   1.523   2.015  0.0573  0.1227 -0.2530
 5425TIP3    H137834   4.557   1.444   1.986  0.7972 -0.4845  0.1884
 5425TIP3    H237835   4.640   1.560   1.935  3.0105 -2.1281 -0.1118
 5426TIP3   OH237836   1.168   2.668   8.130  0.1557  0.4404  0.2745
 5426TIP3    H137837   1.217   2.675   8.212 -0.2280  1.6332  0.4257
 5426TIP3    H237838   1.108   2.596   8.144 -0.2540  0.9479  1.2487
 5427TIP3   OH237839   6.969   1.819   1.403 -0.3071 -0.4369  0.0963
 5427TIP3    H137840   7.032   1.774   1.345 -1.1492 -1.1027 -0.3277
 5427TIP3    H237841   6.996   1.911   1.401  1.0572 -0.7923  0.4522
 5428TIP3   OH237842   6.937   3.863   0.301 -0.1203 -0.4637 -0.4947
 5428TIP3    H137843   6.948   3.913   0.382 -2.1926  0.5539 -0.7732
 5428TIP3    H237844   6.907   3.777   0.330 -0.6780 -0.1627 -0.1567
 5429TIP3   OH237845   1.099   6.022   0.988  0.3954 -0.3071  0.4862
 5429TIP3    H137846   1.156   5.964   0.937  0.0550  0.1401 -0.4231
 5429TIP3    H237847   1.014   5.978   0.988 -0.6966  1.4349 -2.6945
 5430TIP3   OH237848   5.528   2.234   7.723 -0.1973 -0.1690  0.2810
 5430TIP3    H137849   5.586   2.159   7.707  1.2448  0.5370  1.9246
 5430TIP3    H237850   5.565   2.305   7.671  0.3899  0.2439  1.2247
 5431TIP3   OH237851   2.092   5.254   2.174  0.2321  0.3446 -0.3516
 5431TIP3    H137852   2.063   5.170   2.138 -0.4074 -0.9901  2.9443
 5431TIP3    H237853   2.023   5.316   2.149 -0.0467 -0.4024 -1.5413
 5432TIP3   OH237854   6.178   1.446   1.129 -0.0808 -0.3218  0.4206
 5432TIP3    H137855   6.214   1.386   1.064 -1.8608 -0.7336 -0.2353
 5432TIP3    H237856   6.130   1.390   1.190 -0.2290  0.2706  0.8588
 5433TIP3   OH237857   2.654   6.015   2.193 -0.4183 -0.0984 -0.5703
 5433TIP3    H137858   2.748   5.999   2.201 -0.1700  0.7654 -1.4962
 5433TIP3    H237859   2.627   6.048   2.279  0.3461  0.6644 -0.6165
 5434TIP3   OH237860   5.958   4.842   0.629 -0.2608 -0.2477  0.0871
 5434TIP3    H137861   5.899   4.812   0.699 -1.5626 -0.0374 -0.8827
 5434TIP3    H237862   5.906   4.836   0.550  0.8886  0.4181 -0.7502
 5435TIP3   OH237863   6.219   2.438   0.744  0.4231 -0.5105 -0.0385
 5435TIP3    H137864   6.259   2.485   0.671  1.7416  0.3917  1.2180
 5435TIP3    H237865   6.133   2.478   0.755  0.4797 -0.2069 -0.6646
 5436TIP3   OH237866   5.294   3.636   0.352 -0.1881 -0.1517  0.0173
 5436TIP3    H137867   5.307   3.731   0.344 -0.1566 -0.2597 -1.5467
 5436TIP3    H237868   5.248   3.612   0.272  1.1875 -1.6957 -0.3524
 5437TIP3   OH237869   0.098   0.320   2.647 -0.7908  0.0830 -0.3011
 5437TIP3    H137870   0.078   0.338   2.738 -0.2990  0.3096 -0.2334
 5437TIP3    H237871   0.017   0.337   2.600 -1.0592 -0.0891  0.1007
 5438TIP3   OH237872   5.238   5.710   7.660 -0.1963 -0.2337 -0.3378
 5438TIP3    H137873   5.200   5.630   7.622  1.2535 -0.8773 -0.5028
 5438TIP3    H237874   5.310   5.678   7.715 -1.9936  0.6565  2.8138
 5439TIP3   OH237875   1.975   2.836   1.443 -0.0739 -0.0145  0.0108
 5439TIP3    H137876   2.057   2.883   1.434  0.3208 -0.9171 -1.4757
 5439TIP3    H237877   1.978   2.799   1.531  1.9303 -1.4540 -0.5955
 5440TIP3   OH237878   2.843   3.560   2.242 -0.5751 -0.7662 -0.1859
 5440TIP3    H137879   2.878   3.643   2.273 -0.5272  0.2505 -2.6924
 5440TIP3    H237880   2.796   3.524   2.318  1.7144  0.1515  1.7903
 5441TIP3   OH237881   4.867   3.740   0.217 -0.1767 -0.5043  0.3776
 5441TIP3    H137882   4.860   3.725   0.123  0.1334  1.5429 -0.0223
 5441TIP3    H237883   4.846   3.655   0.257 -1.9495 -0.9947 -1.4565
 5442TIP3   OH237884   5.792   5.312   2.169  0.4824  0.0628 -0.4037
 5442TIP3    H137885   5.884   5.307   2.193  0.1854  1.2753  1.1718
 5442TIP3    H237886   5.779   5.404   2.145 -0.6619  0.3289  1.0691
 5443TIP3   OH237887   6.463   1.063   0.687 -0.0192  0.1087  0.3656
 5443TIP3    H137888   6.492   1.043   0.598 -0.7217 -0.5957  0.2847
 5443TIP3    H237889   6.414   0.985   0.715  1.9633 -0.5836  2.1718
 5444TIP3   OH237890   0.552   5.848   8.175 -0.4548 -0.2877 -0.2937
 5444TIP3    H137891   0.477   5.816   8.125 -0.5782  1.5600 -1.4053
 5444TIP3    H237892   0.586   5.921   8.123  1.6196 -0.5344  0.5948
 5445TIP3   OH237893   4.215   5.097   7.526  0.5513 -0.0514  0.7750
 5445TIP3    H137894   4.277   5.128   7.460  3.2301 -2.0665  2.1493
 5445TIP3    H237895   4.214   5.166   7.592 -0.6387  1.0870 -0.3776
 5446TIP3   OH237896   2.188   1.149   0.886  0.2198 -0.1099 -0.2536
 5446TIP3    H137897   2.273   1.112   0.907 -0.0766  0.1427  1.5616
 5446TIP3    H237898   2.208   1.221   0.826  1.4617  0.8093  1.1801
 5447TIP3   OH237899   1.737   3.782   0.115  0.2506 -0.0396  0.2520
 5447TIP3    H137900   1.813   3.838   0.126  2.1303 -2.0261 -1.6784
 5447TIP3    H237901   1.747   3.715   0.183  1.2298 -1.2606 -1.0399
 5448TIP3   OH237902   4.104   2.757   1.815  0.6006  0.4970  0.1214
 5448TIP3    H137903   4.129   2.757   1.722 -0.0988  1.2104 -0.0818
 5448TIP3    H237904   4.115   2.666   1.842  0.3983  0.1826 -0.7878
 5449TIP3   OH237905   4.148   4.391   0.017 -0.0339 -0.1839  0.9687
 5449TIP3    H137906   4.218   4.384  -0.048 -1.3717 -0.6082 -0.4992
 5449TIP3    H237907   4.148   4.483   0.042 -0.3845  0.3015 -0.7085
 5450TIP3   OH237908   0.199   3.722   2.776 -0.4832 -0.0579  0.2916
 5450TIP3    H137909   0.167   3.646   2.825 -0.2857 -0.0124  0.4939
 5450TIP3    H237910   0.160   3.797   2.821  1.0369  0.0894  1.4404
 5451TIP3   OH237911   0.737   4.837   2.196  0.1330  0.3927  0.3274
 5451TIP3    H137912   0.683   4.898   2.246  0.3569  1.1645 -0.3512
 5451TIP3    H237913   0.683   4.814   2.120 -0.4708 -1.2836  1.2109
 5452TIP3   OH237914   6.196   3.683   1.820  0.0856 -0.3444 -0.0534
 5452TIP3    H137915   6.251   3.711   1.747 -2.0074  0.3228 -1.4335
 5452TIP3    H237916   6.235   3.727   1.896  1.2854  0.3389 -1.0190
 5453TIP3   OH237917   4.408   2.542   7.306  0.0982  0.0107 -0.0655
 5453TIP3    H137918   4.493   2.581   7.324  0.5365 -0.9231 -0.0688
 5453TIP3    H237919   4.394   2.558   7.212  0.6561 -0.5655 -0.2498
 5454TIP3   OH237920   4.462   5.344   0.372  0.2639 -0.6132  0.0889
 5454TIP3    H137921   4.529   5.408   0.349 -0.3313 -1.2044 -4.3229
 5454TIP3    H237922   4.404   5.389   0.433  2.3161  1.4072  0.6363
 5455TIP3   OH237923   6.141   5.114   3.379 -0.9409  0.4127  0.7575
 5455TIP3    H137924   6.234   5.100   3.401 -0.4610  1.5042 -0.4727
 5455TIP3    H237925   6.097   5.038   3.416  0.3783  0.0863  1.7647
 5456TIP3   OH237926   0.432   4.378   2.282  0.2381  0.0707  0.6522
 5456TIP3    H137927   0.435   4.468   2.250  1.6324 -0.5077 -0.9242
 5456TIP3    H237928   0.489   4.378   2.358  0.3563  0.4736  0.5668
 5457TIP3   OH237929   3.608   0.827   2.532  0.0233  0.0964  0.5094
 5457TIP3    H137930   3.671   0.755   2.526 -1.0207 -0.7342 -2.7630
 5457TIP3    H237931   3.560   0.824   2.449 -1.4911  3.3155  1.1023
 5458TIP3   OH237932   2.936   6.062   2.196 -1.1771 -0.0334  0.3386
 5458TIP3    H137933   2.931   6.112   2.114 -0.1517 -1.0343 -0.3676
 5458TIP3    H237934   2.990   5.986   2.175  0.5642  0.5245  2.3497
 5459TIP3   OH237935   0.894   6.279   7.998 -0.0430 -0.4895  0.2653
 5459TIP3    H137936   0.978   6.249   8.033 -0.3750 -1.2909  0.4152
 5459TIP3    H237937   0.900   6.374   7.999  0.6987 -0.5295  0.6795
 5460TIP3   OH237938   4.711   5.148   2.546 -0.0317  0.2814  0.2001
 5460TIP3    H137939   4.652   5.222   2.536  2.2089  2.0489 -0.8486
 5460TIP3    H237940   4.655   5.076   2.574 -2.5072  2.0317  0.0457
 5461TIP3   OH237941   1.834   3.333   2.517  0.4430 -1.2403  0.3308
 5461TIP3    H137942   1.833   3.367   2.427  0.0424  2.5909  1.5978
 5461TIP3    H237943   1.741   3.318   2.537  0.4567 -1.2492  0.3852
 5462TIP3   OH237944   6.453   1.615   1.696 -0.0312 -0.1401  0.1744
 5462TIP3    H137945   6.442   1.669   1.618  0.9455 -1.5673 -1.0242
 5462TIP3    H237946   6.387   1.546   1.687 -0.0126 -0.2328  0.7013
 5463TIP3   OH237947   6.313   4.945   0.976 -0.0821 -0.0035  0.0700
 5463TIP3    H137948   6.228   4.914   1.008  0.9814 -3.4867 -0.0458
 5463TIP3    H237949   6.361   4.970   1.054 -0.8166  0.9520  0.2310
 5464TIP3   OH237950   1.927   5.039   2.738  0.0801  0.2157  0.6795
 5464TIP3    H137951   1.888   4.952   2.732 -1.6193  0.8927  1.2323
 5464TIP3    H237952   1.855   5.099   2.720  0.3960  1.6054  3.4722
 5465TIP3   OH237953   4.872   5.259   2.803 -0.3489 -0.2138  0.4670
 5465TIP3    H137954   4.817   5.208   2.862  1.1125 -1.1104  1.1165
 5465TIP3    H237955   4.852   5.225   2.716 -1.7048  0.3443  0.5408
 5466TIP3   OH237956   6.829   6.874   0.922 -0.0664  0.3853  0.0699
 5466TIP3    H137957   6.913   6.837   0.952 -0.5659  0.1606  1.2608
 5466TIP3    H237958   6.790   6.911   1.001 -0.7849  1.1233 -0.6065
 5467TIP3   OH237959   4.879   6.270   7.744  0.3846 -0.1421  0.4123
 5467TIP3    H137960   4.931   6.341   7.782 -0.3427  0.0456  1.0765
 5467TIP3    H237961   4.865   6.296   7.653  0.9203  0.1026  0.3975
 5468TIP3   OH237962   1.465   4.250   1.737  0.3873 -0.7113 -0.1575
 5468TIP3    H137963   1.417   4.234   1.656 -0.6609  1.4118 -0.0156
 5468TIP3    H237964   1.409   4.309   1.787  2.0117 -0.2201  1.1730
 5469TIP3   OH237965   4.124   4.655   2.379  0.5668 -0.1642 -0.4247
 5469TIP3    H137966   4.032   4.681   2.373  0.3017 -0.8715  0.5287
 5469TIP3    H237967   4.122   4.560   2.385  1.5082 -0.4861 -3.3495
 5470TIP3   OH237968   3.523   2.207   0.504 -0.1721  0.3442  0.3953
 5470TIP3    H137969   3.539   2.287   0.454 -1.1260  0.5197  0.3504
 5470TIP3    H237970   3.441   2.173   0.468  0.1843 -0.6104  0.4741
 5471TIP3   OH237971   5.720   5.423   2.496 -0.0438 -0.2056 -0.2922
 5471TIP3    H137972   5.659   5.405   2.568  0.1549  0.4115  0.0345
 5471TIP3    H237973   5.667   5.468   2.431  0.1306  0.6422  0.1388
 5472TIP3   OH237974   5.576   2.867   3.440  0.2854 -0.0176  0.2736
 5472TIP3    H137975   5.600   2.782   3.402  0.0246 -0.1152  0.3227
 5472TIP3    H237976   5.480   2.864   3.447  0.1710  0.7180 -0.7623
 5473TIP3   OH237977   3.390   6.812   2.414 -0.0964  0.4830  0.4484
 5473TIP3    H137978   3.467   6.803   2.357 -0.3532 -1.2755  0.3174
 5473TIP3    H237979   3.358   6.901   2.397  0.3444  0.3239 -1.5161
 5474TIP3   OH237980   2.464   6.881   7.333  0.4460 -0.0075 -0.1905
 5474TIP3    H137981   2.547   6.895   7.288  2.3618 -0.1085  3.0254
 5474TIP3    H237982   2.442   6.790   7.315  1.7469 -0.3684 -0.0778
 5475TIP3   OH237983   1.743   3.943   0.723  0.3759  0.2621 -0.3443
 5475TIP3    H137984   1.777   4.030   0.743 -0.8882  0.7822 -0.3535
 5475TIP3    H237985   1.775   3.888   0.794  0.6998  0.8518 -0.0230
 5476TIP3   OH237986   3.775   1.352   2.325  0.1434 -0.1601  0.3019
 5476TIP3    H137987   3.742   1.266   2.353 -0.2880  0.3465  1.4269
 5476TIP3    H237988   3.696   1.404   2.311  0.2863 -0.6353 -2.8857
 5477TIP3   OH237989   4.028   4.428   2.938  0.3283 -0.1729  0.2002
 5477TIP3    H137990   4.018   4.334   2.951  2.5837 -0.1945  2.5455
 5477TIP3    H237991   4.122   4.443   2.945 -0.0928  2.4246  1.3322
 5478TIP3   OH237992   0.948   3.321   2.183 -0.6485 -0.0786 -0.7848
 5478TIP3    H137993   1.034   3.280   2.176 -0.5967  0.0245 -0.7544
 5478TIP3    H237994   0.902   3.293   2.105 -0.7997 -0.6284 -0.5045
 5479TIP3   OH237995   1.352   0.422   0.018  0.4232 -0.0582 -0.0605
 5479TIP3    H137996   1.341   0.343  -0.035  0.1216 -0.2102  0.2277
 5479TIP3    H237997   1.417   0.474  -0.030 -0.7990  0.4070 -1.2841
 5480TIP3   OH237998   4.136   0.523   2.936  0.0162  0.4376 -0.0151
 5480TIP3    H137999   4.099   0.439   2.963  1.6660 -0.1218  0.6624
 5480TIP3    H238000   4.185   0.554   3.012  0.1556  1.5970 -0.5502
 5481TIP3   OH238001   5.809   0.485   2.307  0.5974  0.1493 -0.0868
 5481TIP3    H138002   5.770   0.463   2.223 -0.1396 -1.4501  0.6339
 5481TIP3    H238003   5.841   0.402   2.341  1.3125  0.8467  1.0086
 5482TIP3   OH238004   4.610   0.108   0.831 -0.2332  0.0992  0.1928
 5482TIP3    H138005   4.598   0.133   0.923  2.0711  0.0995  0.5581
 5482TIP3    H238006   4.539   0.046   0.813 -1.4413  1.0153  1.5840
 5483TIP3   OH238007   1.658   1.695   0.775 -0.3881  0.0354 -0.0302
 5483TIP3    H138008   1.628   1.719   0.687 -0.0182 -1.0513 -0.4737
 5483TIP3    H238009   1.721   1.625   0.760  1.7294  1.6424  0.9295
 5484TIP3   OH238010   3.523   6.219   8.367 -0.1999 -0.1133 -0.0505
 5484TIP3    H138011   3.445   6.267   8.338 -1.2622 -0.6323  1.8103
 5484TIP3    H238012   3.496   6.128   8.370 -0.0231 -0.1522  1.9938
 5485TIP3   OH238013   3.789   5.966   1.924 -0.1655  0.0006 -0.2999
 5485TIP3    H138014   3.770   5.885   1.877 -1.3201  1.3545 -2.2832
 5485TIP3    H238015   3.781   6.035   1.858  0.6026  1.7704  1.3612
 5486TIP3   OH238016   0.799   3.771   0.887 -0.0304 -0.5211 -0.1947
 5486TIP3    H138017   0.881   3.735   0.853  0.8813  1.0915  0.2013
 5486TIP3    H238018   0.739   3.766   0.813  0.6078 -1.1470 -0.6878
 5487TIP3   OH238019   3.485   0.047   7.743  0.1161 -0.1036 -0.1584
 5487TIP3    H138020   3.546   0.111   7.705  0.8914 -0.7377 -0.0047
 5487TIP3    H238021   3.498  -0.032   7.691 -0.0481 -0.4709  0.3541
 5488TIP3   OH238022   1.665   6.471   7.095 -0.0166  0.0702  0.3762
 5488TIP3    H138023   1.631   6.442   7.010  1.3058 -3.9093  1.0104
 5488TIP3    H238024   1.590   6.464   7.154 -0.1905 -0.2198  0.1264
 5489TIP3   OH238025   2.682   3.785   1.630  0.1923 -0.7643  0.4020
 5489TIP3    H138026   2.774   3.792   1.656  0.3393 -1.9692  0.2384
 5489TIP3    H238027   2.661   3.871   1.595  1.3538 -0.5755  0.1311
 5490TIP3   OH238028   3.807   3.367   1.246 -0.2952 -0.4143  0.1342
 5490TIP3    H138029   3.740   3.425   1.211  1.2988  2.3901  1.3625
 5490TIP3    H238030   3.849   3.328   1.169 -0.3939  1.3611 -0.8765
 5491TIP3   OH238031   4.267   3.288   0.413 -0.2098 -0.2389  0.3433
 5491TIP3    H138032   4.315   3.317   0.335  0.6928  0.0379  0.9872
 5491TIP3    H238033   4.271   3.193   0.410 -0.0149 -0.2252  0.1515
 5492TIP3   OH238034   0.954   3.468   3.471  0.2191 -0.0851 -0.2874
 5492TIP3    H138035   1.034   3.497   3.428  1.4586 -0.4749  1.6321
 5492TIP3    H238036   0.896   3.544   3.468  1.3385  0.8044 -0.1206
 5493TIP3   OH238037   0.289   2.961   1.952 -0.4680 -0.6299  0.4025
 5493TIP3    H138038   0.216   2.902   1.972  0.4124 -1.5834  0.8583
 5493TIP3    H238039   0.259   3.046   1.985 -1.4077 -0.9827  0.5078
 5494TIP3   OH238040   2.391   1.915   1.391  0.3147 -0.3282  0.1993
 5494TIP3    H138041   2.447   1.934   1.467  1.6129 -0.1278 -0.7806
 5494TIP3    H238042   2.351   1.830   1.412  0.7181 -0.3152  1.0736
 5495TIP3   OH238043   3.749   5.827   3.233 -0.2466 -0.0387 -0.5687
 5495TIP3    H138044   3.834   5.851   3.196 -0.0299 -2.2892 -1.6972
 5495TIP3    H238045   3.768   5.754   3.292 -1.5311 -1.9779 -2.3899
 5496TIP3   OH238046   2.469   4.794   0.245  0.3895 -0.0638  0.1338
 5496TIP3    H138047   2.451   4.716   0.192  1.3505  1.2703 -2.3607
 5496TIP3    H238048   2.406   4.859   0.214  0.9608  0.7572  0.6522
 5497TIP3   OH238049   1.722   2.362   7.672  0.0405  0.1263  0.4444
 5497TIP3    H138050   1.726   2.438   7.613  0.7665 -0.8918 -0.8633
 5497TIP3    H238051   1.628   2.351   7.689 -0.3342 -0.2706 -1.5368
 5498TIP3   OH238052   4.201   1.140   8.121  0.1559  0.3768 -0.2558
 5498TIP3    H138053   4.218   1.046   8.129  1.6911  0.6273 -0.2439
 5498TIP3    H238054   4.178   1.169   8.210 -3.9131 -0.5580 -0.8242
 5499TIP3   OH238055   4.896   4.376   1.151 -0.5103  0.1767  0.2571
 5499TIP3    H138056   4.941   4.456   1.122 -0.2031 -0.0980 -0.0255
 5499TIP3    H238057   4.824   4.365   1.089  0.2784 -0.5333 -0.5473
 5500TIP3   OH238058   4.670   0.880   7.675  0.6332 -0.1599 -0.0245
 5500TIP3    H138059   4.598   0.878   7.737  0.5248 -0.7954 -0.1648
 5500TIP3    H238060   4.646   0.816   7.608  1.4566 -0.5949  0.0819
 5501TIP3   OH238061   5.945   4.674   0.147 -0.0598  0.0927 -0.3055
 5501TIP3    H138062   5.984   4.705   0.066 -1.3253  1.5139 -0.4156
 5501TIP3    H238063   5.854   4.704   0.143 -0.8810 -2.0738  0.4597
 5502TIP3   OH238064   0.227   5.194   8.366 -0.5181 -0.3546  0.6501
 5502TIP3    H138065   0.207   5.100   8.362  1.2622 -0.7527  0.4845
 5502TIP3    H238066   0.308   5.203   8.317 -1.2803  1.4819 -0.3647
 5503TIP3   OH238067   6.345   3.154   0.798  0.8026 -0.1971  0.9768
 5503TIP3    H138068   6.286   3.146   0.722  2.1540 -0.1033 -0.1180
 5503TIP3    H238069   6.375   3.245   0.794  0.8944 -0.1998  1.6229
 5504TIP3   OH238070   0.550   0.418   2.314  0.4683 -0.5148  0.0402
 5504TIP3    H138071   0.638   0.431   2.347  0.3986  0.3480 -0.0970
 5504TIP3    H238072   0.545   0.324   2.295  1.6546 -0.4238 -0.8066
 5505TIP3   OH238073   6.158   0.172   8.201  0.1041  0.3653  0.7670
 5505TIP3    H138074   6.135   0.255   8.159  2.5455  1.8008  2.0436
 5505TIP3    H238075   6.112   0.173   8.285 -0.9868 -0.2882  0.2034
 5506TIP3   OH238076   5.465   3.650   2.510  0.6763  0.0614  0.4361
 5506TIP3    H138077   5.488   3.563   2.477  2.1871  0.3429  0.6414
 5506TIP3    H238078   5.392   3.635   2.570  2.0764 -1.3531  1.8959
 5507TIP3   OH238079   1.784   6.137   1.885 -0.0947 -0.1566 -0.1009
 5507TIP3    H138080   1.718   6.160   1.950  0.5862  1.7304 -0.0209
 5507TIP3    H238081   1.799   6.217   1.835  2.8338 -0.1594  0.5515
 5508TIP3   OH238082   5.500   0.610   1.443 -0.0732  0.3004 -0.1921
 5508TIP3    H138083   5.521   0.531   1.494  1.0220  0.3130 -0.6107
 5508TIP3    H238084   5.569   0.672   1.465  0.1888  0.4482 -1.3919
 5509TIP3   OH238085   2.156   6.310   1.205 -0.1367 -0.6962  0.8241
 5509TIP3    H138086   2.149   6.397   1.244  1.2068  0.5379 -1.4949
 5509TIP3    H238087   2.246   6.304   1.175 -0.3625 -2.6668  0.3935
 5510TIP3   OH238088   0.699   6.727   0.540 -0.2385  0.4527 -0.3985
 5510TIP3    H138089   0.729   6.789   0.607  0.2738  0.8919 -1.0152
 5510TIP3    H238090   0.716   6.772   0.457 -1.6411  0.2671 -0.8060
 5511TIP3   OH238091   0.545   0.210   7.843  0.1551 -0.0461 -0.3451
 5511TIP3    H138092   0.466   0.220   7.791  0.3433 -0.2763 -0.6809
 5511TIP3    H238093   0.514   0.193   7.932 -0.1701  0.9011 -0.2727
 5512TIP3   OH238094   3.063   6.275   2.956 -0.1658  0.4428  0.1322
 5512TIP3    H138095   3.007   6.261   3.032  0.3051  0.9505  0.5866
 5512TIP3    H238096   3.136   6.328   2.989  0.0940  0.5988 -0.6533
 5513TIP3   OH238097   1.532   6.096   8.353 -0.0486  0.2399  0.0951
 5513TIP3    H138098   1.598   6.087   8.285 -1.5615  0.1050 -1.4209
 5513TIP3    H238099   1.454   6.053   8.317 -0.6931 -0.5453  2.2458
 5514TIP3   OH238100   2.711   1.084   7.787 -0.0018  0.0429 -0.4200
 5514TIP3    H138101   2.702   0.992   7.764  1.9940  0.4296 -3.3016
 5514TIP3    H238102   2.670   1.131   7.714  1.2214  1.4134 -0.2770
 5515TIP3   OH238103   0.632   0.112   2.771  0.1766 -0.0848  0.2784
 5515TIP3    H138104   0.538   0.108   2.788  0.2347  0.0735  0.6625
 5515TIP3    H238105   0.672   0.109   2.858  0.6004 -1.8141  0.0747
 5516TIP3   OH238106   3.701   0.453   2.273 -0.2092 -0.6585  0.2877
 5516TIP3    H138107   3.778   0.452   2.216 -1.7443 -3.6868 -2.0254
 5516TIP3    H238108   3.731   0.417   2.356  1.1328 -0.4732 -0.0955
 5517TIP3   OH238109   0.157   1.682   0.864 -0.5470  0.0137  0.2852
 5517TIP3    H138110   0.164   1.615   0.933 -2.6385  0.3352  0.8976
 5517TIP3    H238111   0.186   1.637   0.784  3.0486 -0.0296  1.4708
 5518TIP3   OH238112   0.320   4.668   7.112  0.4942 -0.2035 -0.2753
 5518TIP3    H138113   0.307   4.646   7.019  0.5282 -0.3419 -0.2466
 5518TIP3    H238114   0.347   4.586   7.153  0.6814 -0.0965 -0.1818
 5519TIP3   OH238115   3.299   5.540   2.326 -0.1825 -0.5605 -0.2547
 5519TIP3    H138116   3.344   5.490   2.395 -0.4028  0.4518  0.6424
 5519TIP3    H238117   3.261   5.615   2.371 -2.1169 -0.9592 -1.1252
 5520TIP3   OH238118   0.122   1.270   1.634 -0.1973 -0.1602 -0.3092
 5520TIP3    H138119   0.062   1.274   1.561 -1.0652 -0.1291  0.3930
 5520TIP3    H238120   0.201   1.229   1.599 -1.6096 -2.8833 -0.5784
 5521TIP3   OH238121   4.304   6.879   1.531 -0.5346  0.3961 -0.2363
 5521TIP3    H138122   4.210   6.873   1.550 -0.5616 -0.3961 -0.5490
 5521TIP3    H238123   4.321   6.804   1.473  0.4361  0.0893  0.4227
 5522TIP3   OH238124   3.372   5.028   8.157 -0.2729  0.1942  0.6143
 5522TIP3    H138125   3.398   5.111   8.119  0.2815  0.3723  1.3651
 5522TIP3    H238126   3.397   4.963   8.092 -1.5200  0.6627 -0.3747
 5523TIP3   OH238127   4.685   1.018   0.417  0.1093 -0.3509  0.5202
 5523TIP3    H138128   4.740   1.015   0.338  0.0472  1.3643  0.3673
 5523TIP3    H238129   4.748   1.026   0.489  0.1149  0.3725  0.4438
 5524TIP3   OH238130   0.644   6.783   8.311 -0.1775  0.1798  0.4370
 5524TIP3    H138131   0.632   6.818   8.399 -0.4977  0.1750  0.3994
 5524TIP3    H238132   0.613   6.693   8.317 -0.8167  0.3759  0.1672
 5525TIP3   OH238133   6.762   3.364   0.212  0.7539 -0.5332 -0.0430
 5525TIP3    H138134   6.746   3.424   0.286 -0.7280 -0.8209 -0.1099
 5525TIP3    H238135   6.694   3.297   0.220 -0.9161  0.6173 -2.9114
 5526TIP3   OH238136   0.988   4.120   0.345  0.2970 -0.7609 -0.4553
 5526TIP3    H138137   0.943   4.129   0.430  1.7381  0.3309  0.2323
 5526TIP3    H238138   1.052   4.050   0.360  1.3230  0.1992 -0.2766
 5527TIP3   OH238139   3.993   0.594   8.399 -0.1206  0.2576  0.9569
 5527TIP3    H138140   4.030   0.522   8.449  0.3104 -1.5664 -1.7566
 5527TIP3    H238141   3.898   0.584   8.409 -0.1911 -2.1339 -1.0119
 5528TIP3   OH238142   0.775   4.286   2.591 -0.0230 -0.0308  0.0928
 5528TIP3    H138143   0.812   4.358   2.643 -1.1850  1.0264 -0.4904
 5528TIP3    H238144   0.739   4.329   2.513  1.3375 -1.5387 -1.4211
 5529TIP3   OH238145   5.489   4.477   7.646  0.1363  0.6813  0.1233
 5529TIP3    H138146   5.427   4.405   7.658 -0.3376  1.1435  0.4398
 5529TIP3    H238147   5.485   4.496   7.552  0.2663  0.2911  0.0389
 5530TIP3   OH238148   5.457   2.959   8.166  0.2966 -0.0374 -0.5385
 5530TIP3    H138149   5.438   2.981   8.074  1.3015 -0.2406 -0.8107
 5530TIP3    H238150   5.532   2.901   8.161  0.4242  0.0323  0.4300
 5531TIP3   OH238151   0.469   4.606   0.896  0.1819  0.4181 -0.8107
 5531TIP3    H138152   0.433   4.643   0.815 -0.6266  2.7204  0.4792
 5531TIP3    H238153   0.402   4.625   0.962  1.4317 -0.0790  0.6655
 5532TIP3   OH238154   2.393   1.247   7.432  0.0551 -0.1055 -0.0899
 5532TIP3    H138155   2.376   1.260   7.339  2.6897 -1.7814 -0.8980
 5532TIP3    H238156   2.320   1.194   7.463 -1.7731  1.9074 -0.7058
 5533TIP3   OH238157   1.662   0.583   0.906 -0.1924 -0.1903 -0.1717
 5533TIP3    H138158   1.741   0.528   0.908 -0.3097 -0.3634 -0.2105
 5533TIP3    H238159   1.600   0.538   0.963  0.7473  1.5537  2.3966
 5534TIP3   OH238160   0.606   4.734   7.721 -0.0901 -0.0769  0.6409
 5534TIP3    H138161   0.650   4.789   7.785  2.8351 -1.4526 -0.0486
 5534TIP3    H238162   0.628   4.773   7.636 -2.4343  0.6833  0.2944
 5535TIP3   OH238163   2.087   4.978   8.348 -0.0375 -0.3342  0.1993
 5535TIP3    H138164   2.046   5.063   8.365  0.3868  0.2147 -1.3671
 5535TIP3    H238165   2.164   4.998   8.293  1.8269 -1.4220  2.2324
 5536TIP3   OH238166   6.877   1.233   7.701  0.3463  0.3287  0.0212
 5536TIP3    H138167   6.827   1.250   7.621 -0.3579  1.3477  0.6524
 5536TIP3    H238168   6.949   1.177   7.673  0.1775  0.7587 -1.3428
 5537TIP3   OH238169   4.835   0.629   7.528  0.2927 -0.1936  0.2141
 5537TIP3    H138170   4.914   0.652   7.576  0.5673  2.1703 -1.2187
 5537TIP3    H238171   4.867   0.585   7.450  0.0649 -0.8193  0.4687
 5538TIP3   OH238172   4.447   2.106   0.804  0.1964  0.7341  0.7969
 5538TIP3    H138173   4.389   2.175   0.834 -0.7857  0.9164 -1.3547
 5538TIP3    H238174   4.390   2.031   0.789  0.5510  0.7549 -0.8579
 5539TIP3   OH238175   2.957   6.230   1.934  0.0659 -0.0498  0.3896
 5539TIP3    H138176   2.937   6.149   1.886 -0.3258 -0.7848  1.7212
 5539TIP3    H238177   3.005   6.284   1.872 -0.2460 -1.0395 -0.7496
 5540TIP3   OH238178   2.769   3.857   1.336 -0.2405 -0.0633 -0.1883
 5540TIP3    H138179   2.816   3.930   1.293 -0.8091  0.5173  0.1590
 5540TIP3    H238180   2.711   3.900   1.398  1.0180 -0.9152  1.6473
 5541TIP3   OH238181   3.458   2.052   0.076  0.4208  0.1468  0.2911
 5541TIP3    H138182   3.390   2.095   0.129  0.4794  0.2565  0.2773
 5541TIP3    H238183   3.486   1.978   0.130 -1.0643 -1.0525 -0.5155
 5542TIP3   OH238184   0.283   2.818   1.425  0.1807  0.4524 -0.4235
 5542TIP3    H138185   0.193   2.787   1.413 -1.1908  4.1693 -1.2944
 5542TIP3    H238186   0.337   2.740   1.416 -2.7741 -1.5719 -2.7129
 5543TIP3   OH238187   5.245   0.668   1.580  0.1972 -0.4993  0.2446
 5543TIP3    H138188   5.328   0.638   1.544  0.4685  0.1434  0.3191
 5543TIP3    H238189   5.228   0.609   1.654 -0.2287 -1.6506 -0.7348
 5544TIP3   OH238190   5.179   0.340   1.456 -0.2543 -0.3493 -0.3763
 5544TIP3    H138191   5.105   0.362   1.399 -0.1307  0.5153 -0.2246
 5544TIP3    H238192   5.186   0.245   1.450 -0.8101 -0.3608 -1.0944
 5545TIP3   OH238193   5.319   0.379   1.116  0.5440 -0.2453  0.2527
 5545TIP3    H138194   5.362   0.305   1.072  0.5321  0.0349 -0.2326
 5545TIP3    H238195   5.334   0.362   1.209  1.0822 -0.5341  0.1241
 5546TIP3   OH238196   1.823   1.549   1.808 -0.5203  0.0318  0.1041
 5546TIP3    H138197   1.868   1.477   1.764  0.2363  0.3441  0.3554
 5546TIP3    H238198   1.890   1.589   1.864 -1.3255 -0.0616  1.1810
 5547TIP3   OH238199   2.495   1.635   3.403  0.1071 -0.0862 -0.4060
 5547TIP3    H138200   2.403   1.627   3.429  0.2086  2.2499  0.9796
 5547TIP3    H238201   2.544   1.596   3.476  0.2377  0.2458 -0.3137
 5548TIP3   OH238202   1.159   3.601   3.299  0.1251  0.1486 -0.1799
 5548TIP3    H138203   1.145   3.680   3.351  2.5711 -0.9722  2.4302
 5548TIP3    H238204   1.214   3.631   3.226 -0.9196  1.2303 -0.5601
 5549TIP3   OH238205   0.861   0.260   1.815  0.5268 -0.0641 -0.6910
 5549TIP3    H138206   0.833   0.350   1.834 -0.0516 -0.6368  1.5593
 5549TIP3    H238207   0.792   0.225   1.759  0.2701  0.6304 -0.8195
 5550TIP3   OH238208   3.343   5.696   7.577  0.3161 -0.0434 -0.2968
 5550TIP3    H138209   3.277   5.706   7.509 -0.7266 -1.6775  0.4216
 5550TIP3    H238210   3.403   5.630   7.543 -0.2329 -0.8967  0.3587
 5551TIP3   OH238211   3.928   5.696   0.954 -0.4475 -0.5038  0.5643
 5551TIP3    H138212   3.889   5.781   0.972  0.0063 -0.0194 -0.6617
 5551TIP3    H238213   3.991   5.683   1.025 -0.2686  0.3336  0.5660
 5552TIP3   OH238214   0.346   2.279   0.051  0.3814  0.1389 -0.2143
 5552TIP3    H138215   0.417   2.217   0.067 -0.0950 -0.6839 -1.1463
 5552TIP3    H238216   0.338   2.282  -0.044 -0.7038  0.3492 -0.1290
 5553TIP3   OH238217   2.969   1.274   8.006 -0.3025  0.1242 -0.2606
 5553TIP3    H138218   3.025   1.236   8.074  1.7722 -3.1945 -3.4570
 5553TIP3    H238219   2.883   1.235   8.020 -0.2064  0.3033  0.9740
 5554TIP3   OH238220   2.417   2.130   7.261  0.1870  0.3250 -0.3149
 5554TIP3    H138221   2.365   2.207   7.238 -1.3870 -0.4531  0.5210
 5554TIP3    H238222   2.379   2.099   7.344  0.9353 -1.2240 -0.5183
 5555TIP3   OH238223   6.192   4.981   0.644  0.6337 -0.1282  0.2333
 5555TIP3    H138224   6.100   4.957   0.651  0.4039  0.7594  0.3074
 5555TIP3    H238225   6.239   4.900   0.665 -0.1099 -1.0065 -1.3054
 5556TIP3   OH238226   5.998   0.547   0.127 -0.0343  0.4850  0.4875
 5556TIP3    H138227   5.908   0.526   0.149 -0.3851  0.6571 -0.7047
 5556TIP3    H238228   6.003   0.533   0.032  2.0797 -2.8940  0.9329
 5557TIP3   OH238229   1.334   1.172   7.905 -0.0606  0.4226  0.5012
 5557TIP3    H138230   1.302   1.245   7.959 -2.8446  0.4234 -0.9606
 5557TIP3    H238231   1.408   1.209   7.857 -2.0462  2.7715 -1.0120
 5558TIP3   OH238232   1.431   2.764   7.124  0.0133 -0.5597 -0.1656
 5558TIP3    H138233   1.498   2.707   7.163  1.1301 -0.8220 -2.2819
 5558TIP3    H238234   1.481   2.827   7.072 -1.3667 -0.5031 -1.4880
 5559TIP3   OH238235   3.410   2.465   2.256  0.5810  0.4112 -0.3988
 5559TIP3    H138236   3.379   2.544   2.212 -0.3476  0.0508 -0.4106
 5559TIP3    H238237   3.356   2.459   2.335  2.9818  1.6901  1.4885
 5560TIP3   OH238238   2.960   5.703   1.611  0.1680 -0.1467  0.6371
 5560TIP3    H138239   2.873   5.678   1.578 -0.0949  0.2708  1.0066
 5560TIP3    H238240   2.943   5.777   1.669  0.8896  0.5994 -0.0843
 5561TIP3   OH238241   0.328   3.788   3.106  0.3834 -0.4818  0.4886
 5561TIP3    H138242   0.329   3.855   3.037  0.1677  0.5664  1.4678
 5561TIP3    H238243   0.382   3.826   3.175 -0.4124 -0.9720  1.3857
 5562TIP3   OH238244   4.850   6.230   1.908  0.2104 -0.9922  0.4375
 5562TIP3    H138245   4.911   6.157   1.896  0.3814 -0.6991 -0.5367
 5562TIP3    H238246   4.772   6.206   1.858  0.5269 -0.2274 -0.4587
 5563TIP3   OH238247   1.266   5.913   7.509 -0.2383  0.4146 -0.0108
 5563TIP3    H138248   1.220   5.992   7.539  0.7052 -0.0312  2.9734
 5563TIP3    H238249   1.353   5.944   7.485  0.7679  0.2140  2.9093
 5564TIP3   OH238250   2.426   4.711   2.235  0.5348 -0.1057  0.5338
 5564TIP3    H138251   2.467   4.631   2.202 -0.3225 -0.4016  0.1563
 5564TIP3    H238252   2.499   4.770   2.252  1.1531 -0.8317  0.4531
 5565TIP3   OH238253   1.757   1.663   8.073 -0.3626  0.4284 -0.1144
 5565TIP3    H138254   1.697   1.599   8.036 -0.5041 -0.1268  1.0515
 5565TIP3    H238255   1.715   1.748   8.056 -0.3211  0.2164 -1.3816
 5566TIP3   OH238256   6.952   0.648   7.806  0.0088  0.3258 -0.2559
 5566TIP3    H138257   6.862   0.679   7.809  0.2293  0.9182  0.9112
 5566TIP3    H238258   7.005   0.728   7.812  0.6181 -0.0086 -0.9990
 5567TIP3   OH238259   1.109   3.106   7.878 -0.5380 -0.0399 -0.0422
 5567TIP3    H138260   1.082   3.022   7.916 -2.5115  0.5520 -0.0651
 5567TIP3    H238261   1.100   3.093   7.784 -0.9325  0.2338 -0.0404
 5568TIP3   OH238262   3.127   5.497   1.717  0.1942 -0.6289  0.0753
 5568TIP3    H138263   3.036   5.516   1.696  0.2787 -1.6417 -1.3334
 5568TIP3    H238264   3.123   5.451   1.801 -0.4627  0.4590  0.6560
 5569TIP3   OH238265   4.894   0.574   0.320  0.1849  0.2646 -0.2839
 5569TIP3    H138266   4.803   0.545   0.315  0.1395 -0.2702  2.2048
 5569TIP3    H238267   4.940   0.520   0.257 -1.2404  0.8083 -1.8679
 5570TIP3   OH238268   5.770   4.342   2.494  0.4412  0.2219  0.2070
 5570TIP3    H138269   5.825   4.321   2.418 -0.3522 -0.3066 -0.2366
 5570TIP3    H238270   5.780   4.437   2.505 -1.5374  0.8391 -2.2992
 5571TIP3   OH238271   0.362   1.626   7.766  0.0931 -0.3086  0.6231
 5571TIP3    H138272   0.344   1.718   7.745  1.9093  0.0448  0.4497
 5571TIP3    H238273   0.454   1.614   7.741 -0.6136 -2.7055 -1.1198
 5572TIP3   OH238274   3.650   5.055   2.361 -0.2197  0.2851  0.1012
 5572TIP3    H138275   3.638   5.126   2.298  0.9353  0.3767 -0.0395
 5572TIP3    H238276   3.602   5.083   2.439 -0.3559  0.8971 -0.1985
 5573TIP3   OH238277   5.841   4.825   1.415  0.1391  0.6348 -0.8878
 5573TIP3    H138278   5.838   4.919   1.434  0.1051  0.8759 -1.9899
 5573TIP3    H238279   5.780   4.786   1.477 -0.5884  1.4693 -1.0545
 5574TIP3   OH238280   3.193   2.705   6.763 -0.1462  0.0161 -0.2761
 5574TIP3    H138281   3.272   2.702   6.818 -0.5122 -3.1446  0.3072
 5574TIP3    H238282   3.122   2.720   6.825 -0.2146  0.3583 -0.4391
 5575TIP3   OH238283   1.879   1.881   7.536  0.0069  0.0610 -0.0789
 5575TIP3    H138284   1.832   1.809   7.494 -0.4423 -0.2734  0.9610
 5575TIP3    H238285   1.907   1.937   7.463  2.0563 -2.0984 -1.0811
 5576TIP3   OH238286   4.327   6.975   7.758 -0.6748  0.7077  0.2396
 5576TIP3    H138287   4.409   6.950   7.799  0.5635 -0.0429 -2.4475
 5576TIP3    H238288   4.267   6.990   7.831  2.2240  2.9054  2.4063
 5577TIP3   OH238289   2.032   0.542   1.653 -0.7474  0.6042 -0.0852
 5577TIP3    H138290   2.122   0.572   1.659 -0.5231  0.3280 -1.5700
 5577TIP3    H238291   2.039   0.452   1.622 -1.5021  0.0421  1.2861
 5578TIP3   OH238292   2.211   3.365   7.523  0.2129 -0.1320 -0.6821
 5578TIP3    H138293   2.226   3.287   7.469 -1.7999 -1.1113  0.0971
 5578TIP3    H238294   2.142   3.413   7.478  0.5562  0.5663 -0.4836
 5579TIP3   OH238295   4.164   3.345   2.143  0.0834 -0.0221 -0.5719
 5579TIP3    H138296   4.186   3.428   2.100 -0.1095 -0.2515 -1.1331
 5579TIP3    H238297   4.203   3.278   2.086  0.0495 -0.3258 -0.2416
 5580TIP3   OH238298   3.402   3.754   2.898  0.1548  0.1034  0.3677
 5580TIP3    H138299   3.474   3.809   2.870 -0.0359 -0.1604 -0.6859
 5580TIP3    H238300   3.418   3.669   2.856 -0.6730 -0.0070  0.2490
 5581TIP3   OH238301   3.740   2.880   2.493  0.2876 -0.2920  0.8415
 5581TIP3    H138302   3.725   2.834   2.575 -0.3949  1.2444  1.6300
 5581TIP3    H238303   3.673   2.846   2.434  1.8951 -2.7101  0.2894
 5582TIP3   OH238304   6.430   0.100   1.931  0.3397 -0.5086 -0.3380
 5582TIP3    H138305   6.371   0.074   1.860 -1.3961  2.6781 -0.2363
 5582TIP3    H238306   6.417   0.033   1.998 -3.9798  0.4186  0.0353
 5583TIP3   OH238307   3.595   6.486   2.487  0.1462  0.0181  0.2728
 5583TIP3    H138308   3.631   6.560   2.440  1.4432 -2.4295 -2.9744
 5583TIP3    H238309   3.667   6.456   2.543 -0.1344  0.7296  1.0298
 5584TIP3   OH238310   6.222   3.190   1.846 -0.3125 -0.0215  0.0853
 5584TIP3    H138311   6.160   3.127   1.809 -1.5181  0.8365  0.5605
 5584TIP3    H238312   6.238   3.158   1.935  0.2030 -0.4430 -0.1628
 5585TIP3   OH238313   1.118   2.982   7.568 -0.5825 -0.2663 -0.2544
 5585TIP3    H138314   1.138   2.911   7.629  1.6108 -0.1612 -0.7934
 5585TIP3    H238315   1.024   2.974   7.553 -0.9127 -1.2349  1.9380
 5586TIP3   OH238316   0.866   5.171   0.607 -0.0889 -0.2170 -0.4749
 5586TIP3    H138317   0.906   5.087   0.629  0.0142 -0.5440 -1.8249
 5586TIP3    H238318   0.938   5.223   0.571 -0.1605  0.4359  0.3117
 5587TIP3   OH238319   5.196   4.902   0.919  0.9294  0.5406 -0.4628
 5587TIP3    H138320   5.284   4.898   0.957  0.5738  0.7784  0.3972
 5587TIP3    H238321   5.211   4.892   0.825  1.7995 -0.4018 -0.2487
 5588TIP3   OH238322   2.866   0.174   8.309 -0.0569 -0.0437 -0.1852
 5588TIP3    H138323   2.925   0.242   8.341 -0.0931 -0.8437  1.7164
 5588TIP3    H238324   2.888   0.165   8.217  0.8080  1.6543 -0.1843
 5589TIP3   OH238325   3.941   4.202   0.433  0.3648 -0.2620 -0.0696
 5589TIP3    H138326   3.898   4.178   0.516 -0.2553  1.3442  0.1233
 5589TIP3    H238327   3.868   4.227   0.375  0.9176  0.8661 -0.3072
 5590TIP3   OH238328   0.934   1.862   1.954  0.3568  0.3397 -0.8527
 5590TIP3    H138329   0.953   1.774   1.988 -1.0913 -0.0835 -1.0716
 5590TIP3    H238330   1.016   1.910   1.964  1.4172 -1.2724 -1.4571
 5591TIP3   OH238331   0.471   4.464   1.611  0.1486  0.1324  0.2722
 5591TIP3    H138332   0.509   4.524   1.546 -0.9614 -0.4789 -0.9840
 5591TIP3    H238333   0.414   4.520   1.664  0.1667  0.4390 -0.0239
 5592TIP3   OH238334   0.503   2.545   0.014 -0.0715 -0.4076 -0.1216
 5592TIP3    H138335   0.449   2.469   0.035  0.0682 -1.2101 -2.3883
 5592TIP3    H238336   0.528   2.532  -0.077  0.1401  2.2564 -0.5298
 5593TIP3   OH238337   4.825   3.598   1.485  0.7413 -0.1757  0.5036
 5593TIP3    H138338   4.769   3.522   1.495 -2.1634  1.3399 -2.5905
 5593TIP3    H238339   4.868   3.586   1.401 -0.4941  1.9461 -0.4918
 5594TIP3   OH238340   6.497   0.347   2.468  0.4519 -0.2055 -0.3799
 5594TIP3    H138341   6.513   0.435   2.434 -0.6379  0.1127 -0.1078
 5594TIP3    H238342   6.559   0.292   2.420  2.6393  0.9673  0.9281
 5595TIP3   OH238343   3.113   1.848   8.094  0.1531 -0.2347  0.3850
 5595TIP3    H138344   3.184   1.861   8.157  0.1104 -1.8253  0.8019
 5595TIP3    H238345   3.154   1.859   8.009  1.0579 -1.6381  0.6044
 5596TIP3   OH238346   4.976   1.746   0.143 -0.4268  0.0116 -0.1806
 5596TIP3    H138347   5.042   1.815   0.146  0.0984 -0.4800 -0.4241
 5596TIP3    H238348   4.903   1.786   0.095 -0.4436  0.6583  0.3562
 5597TIP3   OH238349   3.759   3.998   1.377  0.1007  0.1487 -0.0258
 5597TIP3    H138350   3.689   4.061   1.394 -0.6457 -0.1326 -1.8486
 5597TIP3    H238351   3.840   4.050   1.379 -0.4264  1.0127 -0.6459
 5598TIP3   OH238352   0.648   0.213   0.110 -0.0830  0.0379  0.2080
 5598TIP3    H138353   0.668   0.302   0.141  1.3441 -0.3150  0.3715
 5598TIP3    H238354   0.713   0.197   0.042  0.3665 -1.2631  0.9173
 5599TIP3   OH238355   6.974   5.438   1.995  0.3228  0.1556  0.0070
 5599TIP3    H138356   6.955   5.345   2.001  0.4919 -0.0054 -1.5770
 5599TIP3    H238357   7.018   5.459   2.078  1.1357 -1.3657 -0.0093
 5600TIP3   OH238358   1.778   2.388   0.016  0.6252 -0.3464  0.3975
 5600TIP3    H138359   1.777   2.342  -0.068  1.4378  1.0638 -0.4180
 5600TIP3    H238360   1.871   2.403   0.034  0.4513 -0.5275  1.5080
 5601TIP3   OH238361   2.899   4.610   0.442  0.0128  0.3334 -0.3476
 5601TIP3    H138362   2.928   4.700   0.432  1.6274  0.0693  1.3871
 5601TIP3    H238363   2.898   4.575   0.353  0.3880  1.7461 -0.9369
 5602TIP3   OH238364   6.082   2.052   2.339 -0.1880 -0.3968  0.4480
 5602TIP3    H138365   6.160   2.018   2.297 -0.4592 -0.4453 -0.0154
 5602TIP3    H238366   6.020   2.066   2.268 -0.7965 -0.8846  0.8745
 5603TIP3   OH238367   5.064   3.322   2.121 -0.2851 -0.5112 -0.2554
 5603TIP3    H138368   5.052   3.315   2.026  1.2765 -0.7741 -0.4572
 5603TIP3    H238369   5.028   3.408   2.143 -0.8933 -0.5535 -1.0424
 5604TIP3   OH238370   4.118   6.400   8.008 -0.1076  0.1037  0.0685
 5604TIP3    H138371   4.045   6.445   8.051  0.3388  2.2537 -1.2592
 5604TIP3    H238372   4.076   6.347   7.939 -0.5742 -0.8835  1.0756
 5605TIP3   OH238373   0.048   5.702   1.044 -0.0855 -0.1910 -0.1874
 5605TIP3    H138374   0.058   5.634   0.978  1.2415 -1.3861  1.1718
 5605TIP3    H238375   0.121   5.762   1.029  0.3728 -0.6111  0.3545
 5606TIP3   OH238376   2.555   6.546   0.655 -0.1142 -0.0772  0.0961
 5606TIP3    H138377   2.522   6.481   0.593  1.6959 -1.9106  0.9214
 5606TIP3    H238378   2.506   6.530   0.736  0.6832 -0.8253  0.4528
 5607TIP3   OH238379   5.782   4.121   0.184  0.3215 -0.9709 -0.1846
 5607TIP3    H138380   5.775   4.217   0.187 -2.6391 -1.1019  1.0580
 5607TIP3    H238381   5.851   4.104   0.120  0.8334  1.9804 -0.5766
 5608TIP3   OH238382   6.493   4.357   0.923  0.1237 -0.3341 -0.3347
 5608TIP3    H138383   6.431   4.425   0.898  0.5510  0.1222 -0.1470
 5608TIP3    H238384   6.451   4.275   0.894 -0.3972  0.0002 -0.5355
 5609TIP3   OH238385   5.147   3.836   8.015  0.8041  0.0461 -0.4585
 5609TIP3    H138386   5.127   3.830   7.922  0.8716 -1.1653 -0.4181
 5609TIP3    H238387   5.177   3.748   8.039  1.1840  0.4452  0.6170
 5610TIP3   OH238388   6.583   5.887   2.310 -0.5223 -0.3054  0.4148
 5610TIP3    H138389   6.541   5.900   2.224 -0.1156 -0.6693  0.1608
 5610TIP3    H238390   6.573   5.972   2.354 -0.4440 -0.0116 -0.1194
 5611TIP3   OH238391   3.738   3.280   7.636 -0.2958 -0.0837  0.5995
 5611TIP3    H138392   3.719   3.235   7.718  0.9226 -0.3503  0.7457
 5611TIP3    H238393   3.742   3.210   7.570  3.6785 -0.5749  1.1647
 5612TIP3   OH238394   6.700   6.160   1.723 -0.7808 -0.3205  0.3171
 5612TIP3    H138395   6.681   6.133   1.812 -0.7277  0.0703  0.4481
 5612TIP3    H238396   6.629   6.122   1.670 -0.8715 -0.4578  0.5377
 5613TIP3   OH238397   3.851   5.219   3.164  0.1069  0.2529 -0.1304
 5613TIP3    H138398   3.856   5.285   3.233 -1.5400 -0.6952  0.9744
 5613TIP3    H238399   3.760   5.190   3.165 -0.0415  0.3743 -2.9055
 5614TIP3   OH238400   6.756   0.678   0.953  0.5857  0.1649  0.6093
 5614TIP3    H138401   6.672   0.638   0.930  1.5346 -1.0597 -0.9546
 5614TIP3    H238402   6.795   0.617   1.016 -0.8874  2.2130  3.6873
 5615TIP3   OH238403   3.531   1.657   8.034  0.2499 -0.1954  0.4929
 5615TIP3    H138404   3.564   1.576   8.071  2.2876  0.3445  0.0356
 5615TIP3    H238405   3.542   1.646   7.939  0.4554  0.5664  0.4215
 5616TIP3   OH238406   2.388   5.285   2.065 -0.2586 -0.2004  0.0606
 5616TIP3    H138407   2.386   5.194   2.095  1.6054 -0.3932 -0.3082
 5616TIP3    H238408   2.331   5.332   2.126 -0.2370 -1.3996  1.0271
 5617TIP3   OH238409   2.346   3.725   2.629 -0.1687 -0.0360 -0.5113
 5617TIP3    H138410   2.327   3.810   2.590 -0.6207  0.0459 -0.1252
 5617TIP3    H238411   2.344   3.741   2.723 -1.7728 -0.7623 -0.3852
 5618TIP3   OH238412   4.375   4.004   1.389  0.2633 -0.3351  0.1246
 5618TIP3    H138413   4.352   3.914   1.409  0.3528 -0.0973  1.4036
 5618TIP3    H238414   4.355   4.052   1.469 -0.5233  0.9253 -0.7865
 5619TIP3   OH238415   5.566   1.901   1.725 -0.2583 -0.1445 -0.3758
 5619TIP3    H138416   5.556   1.980   1.673  2.0006  0.6594  0.2993
 5619TIP3    H238417   5.490   1.901   1.784 -0.2036  1.6209 -0.2578
 5620TIP3   OH238418   4.795   0.096   1.142  0.3803 -0.3339  0.2084
 5620TIP3    H138419   4.731   0.166   1.143 -0.1877 -0.8442 -0.1113
 5620TIP3    H238420   4.774   0.043   1.219 -0.1873 -1.0308 -0.4104
 5621TIP3   OH238421   3.231   6.933   8.075  0.0834 -0.3553 -0.1189
 5621TIP3    H138422   3.181   6.909   7.997  1.4311 -2.1930 -0.4920
 5621TIP3    H238423   3.322   6.934   8.046  0.7130 -1.9906  1.5811
 5622TIP3   OH238424   0.451   5.520   2.915 -0.3721 -0.7415 -0.1500
 5622TIP3    H138425   0.428   5.563   2.833 -1.5362 -0.5422  0.2738
 5622TIP3    H238426   0.547   5.514   2.912 -0.3053  0.3999 -0.9497
 5623TIP3   OH238427   3.381   6.862   0.414 -0.1405  0.0233  0.0983
 5623TIP3    H138428   3.394   6.956   0.426  1.1234 -0.2279  0.8635
 5623TIP3    H238429   3.316   6.838   0.480 -1.9295  0.6607 -1.3530
 5624TIP3   OH238430   0.172   1.555   8.289  0.3836 -0.7775  0.3752
 5624TIP3    H138431   0.099   1.614   8.270  1.8240  1.4643  1.2912
 5624TIP3    H238432   0.151   1.517   8.374  0.1879 -0.2589  0.5641
 5625TIP3   OH238433   1.339   4.646   2.825  0.3379  0.0190  0.1607
 5625TIP3    H138434   1.339   4.738   2.849  0.3633  0.1853 -0.4542
 5625TIP3    H238435   1.412   4.608   2.875  2.5903  1.0283 -2.0995
 5626TIP3   OH238436   0.582   2.162   1.189  0.3503 -0.0207 -0.7719
 5626TIP3    H138437   0.658   2.217   1.172  1.3982 -1.2091 -0.1256
 5626TIP3    H238438   0.530   2.168   1.109  1.5265  0.1813 -1.5466
 5627TIP3   OH238439   4.850   1.762   7.649 -0.5218 -0.1855 -0.4198
 5627TIP3    H138440   4.896   1.801   7.575  0.3209 -1.2898 -0.4962
 5627TIP3    H238441   4.792   1.697   7.610  1.0314 -1.8604 -0.0550
 5628TIP3   OH238442   4.587   5.595   1.928  0.3403  0.6408 -0.2706
 5628TIP3    H138443   4.620   5.648   2.001 -0.4937  1.2410 -0.3100
 5628TIP3    H238444   4.665   5.554   1.890  1.0531  2.0131 -0.3628
 5629TIP3   OH238445   3.058   3.423   0.820 -0.2054 -0.1886  0.2409
 5629TIP3    H138446   3.085   3.331   0.820 -0.0967 -0.1628 -0.4415
 5629TIP3    H238447   2.963   3.420   0.826 -0.3535 -0.4222 -1.5280
 5630TIP3   OH238448   6.160   4.213   2.246 -0.8782  0.2239 -0.8977
 5630TIP3    H138449   6.162   4.228   2.152 -1.0641 -0.0781 -0.9499
 5630TIP3    H238450   6.252   4.203   2.271 -0.6320  2.5928 -0.6740
 5631TIP3   OH238451   5.998   1.644   1.265  0.3165 -0.1037 -0.1728
 5631TIP3    H138452   6.015   1.606   1.351  0.8619 -0.1816 -0.3100
 5631TIP3    H238453   6.061   1.602   1.207 -0.2984 -0.3317 -0.6937
 5632TIP3   OH238454   0.385   1.353   8.250 -0.1954  0.3675 -0.4726
 5632TIP3    H138455   0.428   1.290   8.308  0.2711 -0.5562 -1.7850
 5632TIP3    H238456   0.293   1.348   8.274 -0.2067 -1.0039 -0.6961
 5633TIP3   OH238457   5.577   5.557   1.424 -0.0506  0.3283 -0.1563
 5633TIP3    H138458   5.512   5.525   1.487  1.1009 -2.4185 -0.2192
 5633TIP3    H238459   5.639   5.608   1.476 -1.0903  1.2413  0.2368
 5634TIP3   OH238460   3.300   0.595   1.000 -0.5282  0.4561 -0.0856
 5634TIP3    H138461   3.260   0.606   1.087  0.5333 -0.1236  0.4893
 5634TIP3    H238462   3.276   0.506   0.974 -1.7148  0.9710 -0.8736
 5635TIP3   OH238463   6.618   3.354   8.247  0.1607  0.2767  0.0681
 5635TIP3    H138464   6.529   3.368   8.280  0.5801  1.9986  0.5973
 5635TIP3    H238465   6.610   3.280   8.187 -1.3160 -0.6377  1.2940
 5636TIP3   OH238466   2.219   4.138   0.120  0.5081 -0.7067 -0.2254
 5636TIP3    H138467   2.231   4.066   0.182 -0.1553  0.4578  1.3306
 5636TIP3    H238468   2.130   4.169   0.136  1.4123  1.7511  0.6471
 5637TIP3   OH238469   2.969   3.250   1.804  0.2350 -0.2868  0.5286
 5637TIP3    H138470   3.047   3.198   1.821  0.3278  0.0882  1.2792
 5637TIP3    H238471   2.948   3.291   1.888 -0.5186 -0.0444  0.2336
 5638TIP3   OH238472   3.346   1.697   3.245 -0.1094  0.0124  0.4584
 5638TIP3    H138473   3.305   1.736   3.322  0.4185  1.1005  0.2147
 5638TIP3    H238474   3.440   1.700   3.265 -0.0063 -0.2406  0.0189
 5639TIP3   OH238475   1.654   5.598   2.754 -0.1839 -0.3507 -0.3289
 5639TIP3    H138476   1.562   5.573   2.750 -1.0852  2.5455 -0.1074
 5639TIP3    H238477   1.674   5.603   2.848 -0.8581  2.2025 -0.2576
 5640TIP3   OH238478   4.379   3.884   2.229  0.0392 -0.3947 -0.3621
 5640TIP3    H138479   4.307   3.907   2.288  0.6706 -0.7414  0.5502
 5640TIP3    H238480   4.339   3.888   2.142 -1.1176 -0.6539  0.1301
 5641TIP3   OH238481   2.984   4.642   1.330  0.2296  0.0601  0.3936
 5641TIP3    H138482   3.029   4.586   1.393  0.7712  1.2199  1.0670
 5641TIP3    H238483   2.910   4.678   1.379 -0.6931 -0.8044 -0.3224
 5642TIP3   OH238484   4.342   0.794   1.130 -0.1570  0.2209  0.3915
 5642TIP3    H138485   4.335   0.800   1.035 -1.3061  0.9491  0.5069
 5642TIP3    H238486   4.377   0.879   1.157  0.8592 -0.2401  0.5765
 5643TIP3   OH238487   0.968   6.108   0.718  0.0358  0.0097  0.2488
 5643TIP3    H138488   0.979   6.012   0.721  0.5280 -0.0187 -1.3770
 5643TIP3    H238489   1.031   6.140   0.783  0.9512 -0.7316 -0.2268
 5644TIP3   OH238490   6.498   2.018   7.413 -0.5310 -0.0512  0.4525
 5644TIP3    H138491   6.437   2.086   7.440 -1.1870 -0.8810  1.0799
 5644TIP3    H238492   6.556   2.062   7.351 -2.8273  0.3522 -1.5598
 5645TIP3   OH238493   4.919   2.697   0.540 -0.5266 -0.0017  0.3391
 5645TIP3    H138494   4.982   2.667   0.605  0.1258  1.3458  0.3631
 5645TIP3    H238495   4.892   2.784   0.571 -0.0369  0.7571 -1.2690
 5646TIP3   OH238496   1.830   0.297   0.264  0.3965  0.1468 -0.3812
 5646TIP3    H138497   1.889   0.361   0.225  1.3203 -1.8142 -2.4031
 5646TIP3    H238498   1.762   0.284   0.198 -1.5739  1.2786  1.3126
 5647TIP3   OH238499   1.310   1.637   7.849 -0.2611 -0.0678 -0.4967
 5647TIP3    H138500   1.273   1.599   7.770 -0.5699  0.6097 -0.6804
 5647TIP3    H238501   1.266   1.590   7.921  0.0861 -0.7440 -0.7166
 5648TIP3   OH238502   1.514   2.415   1.523 -0.4779  0.7140 -0.2054
 5648TIP3    H138503   1.563   2.406   1.604  0.4909  0.1398 -0.8268
 5648TIP3    H238504   1.432   2.458   1.548  0.0174  0.9936  0.9796
 5649TIP3   OH238505   5.964   1.726   0.272  0.4631 -0.7332 -0.5860
 5649TIP3    H138506   5.953   1.816   0.242  0.0257 -0.6479 -0.1845
 5649TIP3    H238507   5.879   1.703   0.309  0.8354 -1.0059  0.1245
 5650TIP3   OH238508   2.990   1.484   3.203  0.3489 -0.3772  0.2434
 5650TIP3    H138509   2.895   1.495   3.204  0.2411 -1.2365  1.3817
 5650TIP3    H238510   3.018   1.504   3.292  1.2152 -0.2669 -0.0449
 5651TIP3   OH238511   5.356   3.624   1.762  0.4926  0.2784 -0.2398
 5651TIP3    H138512   5.298   3.691   1.800  0.4000 -0.3942  0.8514
 5651TIP3    H238513   5.395   3.667   1.685 -0.6913  1.0796 -0.4293
 5652TIP3   OH238514   1.465   3.976   0.833 -0.5128 -0.2947  0.5117
 5652TIP3    H138515   1.497   3.959   0.744 -0.0589  1.6010  0.2656
 5652TIP3    H238516   1.522   3.925   0.890  1.6191  1.2920 -0.0750
 5653TIP3   OH238517   5.893   5.479   8.082 -0.0527  0.5226 -0.5515
 5653TIP3    H138518   5.865   5.453   7.995  0.0137  0.6961 -0.6251
 5653TIP3    H238519   5.816   5.520   8.122 -0.6861 -1.2815  0.1882
 5654TIP3   OH238520   1.272   6.126   0.598 -0.1819  0.3524 -0.1391
 5654TIP3    H138521   1.240   6.036   0.590 -3.2393  1.4011 -1.1892
 5654TIP3    H238522   1.291   6.136   0.691 -2.2855 -0.6657  0.4615
 5655TIP3   OH238523   4.591   3.498   2.677  0.1638 -0.0422  0.3441
 5655TIP3    H138524   4.540   3.578   2.677 -0.0331 -0.1426  1.5705
 5655TIP3    H238525   4.658   3.511   2.610 -0.7779  0.5305 -0.5080
 5656TIP3   OH238526   5.265   6.790   0.463  0.1287  0.0933  0.4848
 5656TIP3    H138527   5.178   6.751   0.454  0.0724  0.0220  1.2491
 5656TIP3    H238528   5.321   6.718   0.491  0.4523  0.1274 -0.0689
 5657TIP3   OH238529   6.761   1.065   8.093  0.6038 -0.2738 -0.3926
 5657TIP3    H138530   6.856   1.067   8.106  0.7126  3.2324 -0.8313
 5657TIP3    H238531   6.725   1.049   8.180  1.6008  1.0510  0.2983
 5658TIP3   OH238532   2.868   0.084   7.511  0.2910  0.2736  0.2833
 5658TIP3    H138533   2.778   0.054   7.524 -0.9561  2.7367 -1.8010
 5658TIP3    H238534   2.875   0.163   7.565  1.3118 -0.0334  0.6286
 5659TIP3   OH238535   5.457   2.977   7.867 -0.0619  0.5456 -0.6260
 5659TIP3    H138536   5.411   2.910   7.816  0.9138 -0.1949 -0.5670
 5659TIP3    H238537   5.535   2.997   7.815  2.1125 -1.7826  1.4374
 5660TIP3   OH238538   6.014   5.269   3.200 -0.0958 -0.5226  0.3665
 5660TIP3    H138539   6.029   5.359   3.228 -0.0675 -0.5047  0.2948
 5660TIP3    H238540   6.057   5.216   3.267 -1.5724 -0.5430  1.3443
 5661TIP3   OH238541   1.120   1.275   8.330  0.1450 -0.0865 -0.3175
 5661TIP3    H138542   1.176   1.235   8.397 -1.7923 -4.3987 -0.9315
 5661TIP3    H238543   1.175   1.275   8.251 -0.3294 -3.9855 -0.8443
 5662TIP3   OH238544   2.388   5.858   2.652  0.1366  0.3655  0.4705
 5662TIP3    H138545   2.332   5.936   2.649  0.5306  0.6415  0.1601
 5662TIP3    H238546   2.353   5.806   2.724 -1.0770  0.1050 -0.2806
 5663TIP3   OH238547   4.676   6.390   7.968  0.6310 -0.4617 -0.0593
 5663TIP3    H138548   4.714   6.339   7.897  0.6331 -0.3641 -0.1295
 5663TIP3    H238549   4.747   6.447   7.997 -0.4201  2.5558 -2.7860
 5664TIP3   OH238550   0.034   2.522   7.930 -0.0992  0.4339  0.2484
 5664TIP3    H138551   0.072   2.535   7.843 -3.0819  0.7287 -1.1215
 5664TIP3    H238552  -0.020   2.443   7.921  0.1915 -0.0312  2.1225
 5665TIP3   OH238553   0.400   5.690   2.696 -0.5873  0.1407 -0.1827
 5665TIP3    H138554   0.461   5.737   2.754 -0.5320 -0.0495 -0.0845
 5665TIP3    H238555   0.316   5.733   2.709 -0.9826 -1.0059  1.3749
 5666TIP3   OH238556   4.175   3.578   0.115 -0.4851  0.1252 -0.6307
 5666TIP3    H138557   4.084   3.592   0.088 -1.2372 -1.8912  0.6499
 5666TIP3    H238558   4.178   3.609   0.206  0.6827  2.0311 -1.2573
 5667TIP3   OH238559   0.931   6.009   7.724  0.3404  0.0205 -0.5335
 5667TIP3    H138560   0.905   6.033   7.636 -0.8730  1.2107  0.1120
 5667TIP3    H238561   1.018   6.049   7.735  1.0150 -1.0879 -1.5260
 5668TIP3   OH238562   1.221   3.983   7.415  0.3821 -0.5828  0.2313
 5668TIP3    H138563   1.137   4.007   7.454  0.2038 -0.4401 -0.2263
 5668TIP3    H238564   1.263   3.927   7.480 -0.1891 -0.8923  0.3450
 5669TIP3   OH238565   4.590   2.452   8.053  0.4147 -0.3740  0.1661
 5669TIP3    H138566   4.676   2.470   8.091  1.2825 -2.5037 -0.6486
 5669TIP3    H238567   4.607   2.389   7.984 -2.0161 -2.5634  1.3828
 5670TIP3   OH238568   4.151   6.406   3.172  0.3265 -0.0124 -0.0503
 5670TIP3    H138569   4.191   6.474   3.119  0.7118  0.3147  0.6560
 5670TIP3    H238570   4.216   6.385   3.239  0.0376 -0.7574  0.0152
 5671TIP3   OH238571   4.085   0.810   1.880  0.1319 -0.1029  0.9830
 5671TIP3    H138572   4.001   0.844   1.848  0.2854 -0.7644 -0.1697
 5671TIP3    H238573   4.060   0.746   1.947 -0.4581 -2.0766 -0.9925
 5672TIP3   OH238574   0.913   4.878   1.418 -0.0996  0.0031 -0.1263
 5672TIP3    H138575   0.995   4.924   1.400  1.1001 -1.9901 -0.1036
 5672TIP3    H238576   0.931   4.787   1.393 -2.6777 -0.3156 -1.1852
 5673TIP3   OH238577   6.632   6.118   7.166  0.7361  0.2001 -0.3320
 5673TIP3    H138578   6.557   6.059   7.163 -0.1616  1.3774 -1.3158
 5673TIP3    H238579   6.693   6.082   7.102 -0.3078  0.9704 -1.8035
 5674TIP3   OH238580   0.855   2.776   1.790  0.0083  0.2300  0.0173
 5674TIP3    H138581   0.940   2.754   1.826  0.0866  0.6179  0.0746
 5674TIP3    H238582   0.840   2.867   1.816 -0.6591  0.0077  0.4593
 5675TIP3   OH238583   3.360   0.053   1.197 -0.3036  0.4814 -0.9490
 5675TIP3    H138584   3.417   0.051   1.274 -0.4582  2.2608 -0.7547
 5675TIP3    H238585   3.375  -0.031   1.154  1.3633  0.3230 -0.1209
 5676TIP3   OH238586   6.779   2.014   8.170 -0.4599 -0.0137  0.2875
 5676TIP3    H138587   6.690   2.029   8.137  0.7601  1.8915 -2.5120
 5676TIP3    H238588   6.811   1.938   8.121 -0.0003  0.3380  0.0305
 5677TIP3   OH238589   2.445   5.302   0.765 -0.3436 -0.2133 -0.2872
 5677TIP3    H138590   2.495   5.361   0.708 -1.4365 -0.0420 -1.1100
 5677TIP3    H238591   2.494   5.220   0.763 -0.2948 -0.1705 -1.4024
 5678TIP3   OH238592   3.143   4.811   7.991 -0.0695 -0.7142 -0.6151
 5678TIP3    H138593   3.065   4.847   7.949 -0.7615 -2.1916 -0.6382
 5678TIP3    H238594   3.119   4.806   8.084 -0.6630 -2.7397 -0.8416
 5679TIP3   OH238595   4.958   0.786   1.947 -0.1965  0.0016  0.1563
 5679TIP3    H138596   4.939   0.702   1.990 -4.4966  0.1042 -1.0844
 5679TIP3    H238597   4.977   0.846   2.019  0.4559 -1.4768  1.2653
 5680TIP3   OH238598   6.916   3.637   8.094  0.2786  0.3879 -0.3538
 5680TIP3    H138599   6.957   3.674   8.016 -0.1832  2.0509  0.1438
 5680TIP3    H238600   6.988   3.623   8.156  0.6979 -1.2870 -1.1634
 5681TIP3   OH238601   1.274   1.387   1.855 -0.5123  0.8722  0.7233
 5681TIP3    H138602   1.357   1.363   1.896 -0.8565  1.3581  1.7391
 5681TIP3    H238603   1.265   1.325   1.783  0.9374  1.0962  0.3080
 5682TIP3   OH238604   1.750   0.300   1.588  0.1224 -0.1873 -0.0442
 5682TIP3    H138605   1.739   0.392   1.614 -0.7902 -0.1130 -0.6546
 5682TIP3    H238606   1.837   0.277   1.620  1.3056  1.5356 -1.7487
 5683TIP3   OH238607   3.006   5.252   0.077  0.3347  0.4281 -0.0187
 5683TIP3    H138608   2.930   5.288   0.030  0.6666  0.8111 -0.2610
 5683TIP3    H238609   3.061   5.216   0.007 -0.2904 -1.1410  0.2523
 5684TIP3   OH238610   2.793   3.869   7.501 -0.0798 -0.0234  0.6635
 5684TIP3    H138611   2.755   3.782   7.501 -0.4744  0.1034 -1.5851
 5684TIP3    H238612   2.888   3.854   7.501 -0.1431 -0.4331  0.7389
 5685TIP3   OH238613   5.598   6.846   2.047  0.3290  0.3235  0.3020
 5685TIP3    H138614   5.613   6.775   2.109  1.5096  0.2341 -0.0644
 5685TIP3    H238615   5.665   6.834   1.980 -0.0777  1.2084 -0.2825
 5686TIP3   OH238616   6.588   5.410   3.073  0.2391  0.0948 -0.2385
 5686TIP3    H138617   6.607   5.316   3.079  1.0048  0.0645 -2.2517
 5686TIP3    H238618   6.511   5.422   3.129  0.4621 -1.6158  0.5204
 5687TIP3   OH238619   4.149   5.633   1.119  0.1290  0.1327 -0.2185
 5687TIP3    H138620   4.244   5.642   1.132 -0.1507  1.2776  1.3235
 5687TIP3    H238621   4.130   5.543   1.146  0.4792  0.6183  1.8691
 5688TIP3   OH238622   0.539   2.704   1.454 -0.1710 -0.3634  0.3668
 5688TIP3    H138623   0.566   2.703   1.363  1.1083  0.3637  0.7119
 5688TIP3    H238624   0.604   2.651   1.499  0.0779  0.5022  1.0620
 5689TIP3   OH238625   5.003   1.891   7.429  0.1727  0.1803 -0.0067
 5689TIP3    H138626   5.023   1.830   7.358  2.3419 -0.3454  0.9799
 5689TIP3    H238627   5.086   1.936   7.447 -1.2892  3.4741 -0.6491
 5690TIP3   OH238628   1.008   2.736   0.456 -0.4880 -0.3400  0.0206
 5690TIP3    H138629   1.006   2.649   0.416 -0.6294 -0.4760  0.3194
 5690TIP3    H238630   0.924   2.776   0.431 -0.5871 -0.4345  0.1977
 5691TIP3   OH238631   0.149   3.123   7.653  0.3301 -0.0665 -0.4868
 5691TIP3    H138632   0.200   3.124   7.734  3.0442 -2.0102 -2.0034
 5691TIP3    H238633   0.121   3.032   7.644 -0.2865  0.2194 -1.5407
 5692TIP3   OH238634   2.029   2.215   2.139 -0.4999  0.6828  0.3949
 5692TIP3    H138635   2.095   2.254   2.195 -0.9774 -1.2904  2.4522
 5692TIP3    H238636   2.062   2.228   2.050  1.7291  1.3338  1.2607
 5693TIP3   OH238637   4.647   5.333   1.630  0.1353 -0.6130  0.0785
 5693TIP3    H138638   4.628   5.264   1.694  0.7791 -1.6292 -0.8000
 5693TIP3    H238639   4.619   5.414   1.673 -1.0316 -1.4582  0.9631
 5694TIP3   OH238640   6.124   6.465   7.625  0.4646  0.0995 -0.4548
 5694TIP3    H138641   6.059   6.442   7.559  2.2588 -1.6880 -1.7107
 5694TIP3    H238642   6.143   6.557   7.609 -2.9789  1.2921  1.1547
 5695TIP3   OH238643   2.290   3.201   0.104 -0.4977 -0.2957  0.1959
 5695TIP3    H138644   2.334   3.275   0.063  0.0938  0.2364  1.7026
 5695TIP3    H238645   2.360   3.136   0.117 -1.3147 -1.8987 -2.6514
 5696TIP3   OH238646   1.720   4.985   1.635 -0.1605 -0.2784 -0.0973
 5696TIP3    H138647   1.764   5.062   1.597 -0.2385 -0.8333 -1.3794
 5696TIP3    H238648   1.628   5.010   1.640 -0.3170 -0.5217 -1.2524
 5697TIP3   OH238649   4.303   5.466   0.614  0.0590 -0.1297 -0.2500
 5697TIP3    H138650   4.372   5.464   0.680 -0.9096  2.5862  0.9870
 5697TIP3    H238651   4.226   5.501   0.660 -1.4765 -0.7876 -2.1537
 5698TIP3   OH238652   3.116   4.547   7.937 -0.1953  0.0516  0.0573
 5698TIP3    H138653   3.158   4.628   7.967 -0.6484 -0.5844  2.6194
 5698TIP3    H238654   3.159   4.527   7.854  2.7507  0.7732  1.2977
 5699TIP3   OH238655   5.066   1.658   2.266  0.1165  0.3536  0.3321
 5699TIP3    H138656   5.042   1.676   2.175 -1.4709 -0.2424  0.6006
 5699TIP3    H238657   4.993   1.606   2.301  1.8182 -1.6064  1.2337
 5700TIP3   OH238658   5.156   6.332   2.701  0.0222  0.1236 -0.8386
 5700TIP3    H138659   5.109   6.321   2.784 -0.0008  0.7825 -0.7533
 5700TIP3    H238660   5.190   6.245   2.680 -1.1631 -0.3499 -0.8670
 5701TIP3   OH238661   6.842   4.414   8.177  0.1212  0.4731  0.1551
 5701TIP3    H138662   6.819   4.333   8.222 -0.3353  0.7041  0.3467
 5701TIP3    H238663   6.765   4.470   8.188 -0.3776  0.2128 -1.6908
 5702TIP3   OH238664   6.650   1.393   2.983  0.4687  0.0024  0.1584
 5702TIP3    H138665   6.629   1.325   3.047  0.3884  0.4978  0.6740
 5702TIP3    H238666   6.586   1.462   3.001 -0.2204 -0.2658 -1.1360
 5703TIP3   OH238667   4.848   5.934   0.746  0.4064  0.1158  0.3996
 5703TIP3    H138668   4.851   6.021   0.705  1.3174  0.7136  1.6591
 5703TIP3    H238669   4.913   5.883   0.697  1.5891  0.8620  1.1441
 5704TIP3   OH238670   1.690   6.055   0.821  0.2419 -0.2165  0.0620
 5704TIP3    H138671   1.723   6.136   0.782 -0.5352 -0.9535 -2.2602
 5704TIP3    H238672   1.744   5.986   0.783  0.6989 -0.8812  1.7890
 5705TIP3   OH238673   4.424   1.111   2.658 -0.0830 -0.5637  0.9219
 5705TIP3    H138674   4.449   1.087   2.569 -1.0422 -0.6486  0.6652
 5705TIP3    H238675   4.477   1.188   2.679 -0.7331  0.2195 -0.1984
 5706TIP3   OH238676   4.733   4.181   7.661  0.4229 -0.0808  0.0210
 5706TIP3    H138677   4.695   4.246   7.602 -0.0888 -2.3942 -2.3540
 5706TIP3    H238678   4.689   4.197   7.745  0.9841  3.1477 -0.1738
 5707TIP3   OH238679   5.871   2.067   8.080 -0.2991  0.0246  0.2827
 5707TIP3    H138680   5.963   2.090   8.087 -0.4439  0.3093  1.7207
 5707TIP3    H238681   5.846   2.092   7.992  0.3971  2.2720  0.6588
 5708TIP3   OH238682   1.197   3.638   2.122  0.0882  0.0535  0.0997
 5708TIP3    H138683   1.107   3.619   2.149 -0.5212  1.3734 -0.8349
 5708TIP3    H238684   1.249   3.626   2.201 -0.4450 -3.2875  0.1030
 5709TIP3   OH238685   4.402   4.983   0.684  0.2360 -0.7210  0.3031
 5709TIP3    H138686   4.465   5.054   0.681  1.3138 -1.6399  0.2773
 5709TIP3    H238687   4.419   4.940   0.768 -0.7296 -0.6748  0.5425
 5710TIP3   OH238688   3.485   6.082   3.536  0.1647 -0.9366 -0.2903
 5710TIP3    H138689   3.546   6.077   3.462 -0.3114 -1.3208 -0.6642
 5710TIP3    H238690   3.432   6.003   3.529 -0.9303 -0.2161 -0.4662
 5711TIP3   OH238691   3.595   4.210   0.839 -0.5515 -0.1196  0.0789
 5711TIP3    H138692   3.564   4.297   0.867  0.2925 -0.2214  1.3950
 5711TIP3    H238693   3.641   4.176   0.915  1.1075 -0.7882 -1.1878
 5712TIP3   OH238694   2.641   4.095   7.332  0.1024  0.1429 -0.2291
 5712TIP3    H138695   2.674   4.062   7.416 -2.3775 -0.6992  0.4819
 5712TIP3    H238696   2.604   4.019   7.289 -1.0798  1.0565 -0.8804
 5713TIP3   OH238697   2.398   5.903   2.356  0.2023  0.0602 -0.2679
 5713TIP3    H138698   2.452   5.981   2.357 -0.4878  0.5986 -1.8583
 5713TIP3    H238699   2.402   5.870   2.446  2.1271  0.7654 -0.0533
 5714TIP3   OH238700   5.658   3.362   0.561  0.2972  0.2974  0.1518
 5714TIP3    H138701   5.700   3.400   0.484  0.5210  1.8957  1.0269
 5714TIP3    H238702   5.569   3.397   0.559  0.0407 -0.3394  0.1752
 5715TIP3   OH238703   5.999   3.594   0.707 -0.1441  0.3734  0.9152
 5715TIP3    H138704   6.060   3.584   0.634  0.4811  0.7958  1.3659
 5715TIP3    H238705   5.956   3.677   0.691 -0.9131 -0.1234  0.3758
 5716TIP3   OH238706   4.818   5.015   1.690 -0.0947 -0.7659 -0.3378
 5716TIP3    H138707   4.786   4.945   1.746 -1.2041 -0.0440 -0.0346
 5716TIP3    H238708   4.852   5.081   1.751 -0.9268 -0.1572 -0.5238
 5717TIP3   OH238709   3.513   5.668   0.827  0.0854 -0.0627  0.1656
 5717TIP3    H138710   3.583   5.605   0.845 -1.8788 -2.5960 -0.5334
 5717TIP3    H238711   3.441   5.642   0.884 -1.0760  1.0834 -0.7063
 5718TIP3   OH238712   2.008   5.068   7.117  0.1900  0.8697 -0.8819
 5718TIP3    H138713   1.946   5.062   7.189 -0.1841 -0.8594 -1.3008
 5718TIP3    H238714   2.045   5.157   7.124 -1.1055  1.3457  0.3514
 5719TIP3   OH238715   0.959   0.575   2.900  0.3951 -0.4323  0.1965
 5719TIP3    H138716   0.911   0.494   2.914 -1.3525  0.0452 -2.2557
 5719TIP3    H238717   1.050   0.548   2.888 -0.0552 -1.9689  0.0192
 5720TIP3   OH238718   3.406   5.264   2.822 -0.2676  0.6448 -0.2112
 5720TIP3    H138719   3.431   5.223   2.905  1.0055  2.3057  0.2697
 5720TIP3    H238720   3.484   5.257   2.767 -0.1036  2.1318 -0.2095
 5721TIP3   OH238721   2.312   1.357   1.757  0.7872  0.2185 -0.0589
 5721TIP3    H138722   2.378   1.309   1.808  0.2474  0.8391  1.2464
 5721TIP3    H238723   2.296   1.300   1.681  1.2676 -0.9492  0.6775
 5722TIP3   OH238724   6.160   3.899   0.724  0.3337 -0.3916  0.0369
 5722TIP3    H138725   6.076   3.937   0.699  0.6309  1.3377  1.4259
 5722TIP3    H238726   6.225   3.960   0.691  1.0270 -1.3573 -0.4327
 5723TIP3   OH238727   2.408   0.769   2.417  0.2629  0.2559  0.9051
 5723TIP3    H138728   2.343   0.779   2.347  0.5590  1.4475  0.7692
 5723TIP3    H238729   2.425   0.675   2.422 -0.1319  0.1066 -0.2853
 5724TIP3   OH238730   3.729   1.861   1.790 -0.2904 -0.9023 -0.0411
 5724TIP3    H138731   3.804   1.881   1.846 -1.1027  1.4336  0.3365
 5724TIP3    H238732   3.742   1.916   1.712 -2.5232  1.1890  0.9075
 5725TIP3   OH238733   1.547   0.160   2.203 -0.0135  0.0491  0.2038
 5725TIP3    H138734   1.592   0.133   2.284  0.1958 -1.2965 -0.3378
 5725TIP3    H238735   1.510   0.079   2.168 -0.9992  0.7927 -0.5123
 5726TIP3   OH238736   4.186   3.761   7.970  0.1140  0.1215 -0.2095
 5726TIP3    H138737   4.096   3.730   7.957  0.1674 -0.4448  0.6656
 5726TIP3    H238738   4.208   3.806   7.888 -0.9542  0.2457 -0.4415
 5727TIP3   OH238739   1.092   4.403   7.771  0.3641  0.4866 -0.5064
 5727TIP3    H138740   1.185   4.421   7.760  0.3975  1.7421  1.3406
 5727TIP3    H238741   1.066   4.458   7.845 -1.5206 -0.9418 -0.0437
 5728TIP3   OH238742   2.583   4.610   1.295 -0.5040  0.3436 -0.2977
 5728TIP3    H138743   2.505   4.568   1.332 -0.6168 -1.7631 -2.6647
 5728TIP3    H238744   2.581   4.699   1.330 -2.1737 -0.5805  2.2610
 5729TIP3   OH238745   6.802   3.887   1.430  0.6551  0.1014 -0.2076
 5729TIP3    H138746   6.814   3.806   1.480  0.4358  0.4765  0.4744
 5729TIP3    H238747   6.885   3.934   1.440 -0.1701  1.2723  1.8750
 5730TIP3   OH238748   3.632   3.563   2.572  0.0729  0.0501  0.2962
 5730TIP3    H138749   3.590   3.645   2.546 -1.5396 -1.0145 -0.7333
 5730TIP3    H238750   3.609   3.552   2.664  2.2236  1.8083  1.1003
 5731TIP3   OH238751   3.921   4.020   2.233 -0.5064 -0.0972  0.1773
 5731TIP3    H138752   3.986   4.004   2.301 -0.9404 -0.7000  0.4625
 5731TIP3    H238753   3.942   4.106   2.199  0.7772 -0.5157 -0.1116
 5732TIP3   OH238754   3.543   1.947   3.558 -0.2273  0.0480  0.1995
 5732TIP3    H138755   3.615   1.992   3.601 -0.9391  0.3148  1.1415
 5732TIP3    H238756   3.566   1.854   3.562 -0.1545  0.0976  0.9104
 5733TIP3   OH238757   6.581   1.604   1.250 -0.7401 -0.3999  0.1985
 5733TIP3    H138758   6.513   1.659   1.288  0.3273  1.2329 -0.1067
 5733TIP3    H238759   6.618   1.658   1.180  0.4868 -1.4478  0.0041
 5734TIP3   OH238760   3.235   4.151   8.087  0.1300  0.0593 -0.3815
 5734TIP3    H138761   3.258   4.230   8.038 -1.5127 -0.3218 -1.8726
 5734TIP3    H238762   3.295   4.084   8.054  0.1828  0.2010 -0.5734
 5735TIP3   OH238763   1.891   1.803   2.928 -0.1772  0.4662 -0.0301
 5735TIP3    H138764   1.823   1.767   2.871 -0.6959  1.5058 -0.0747
 5735TIP3    H238765   1.971   1.798   2.876 -0.3061 -0.2899 -0.1641
 5736TIP3   OH238766   2.885   0.890   8.046  0.2613  0.6750 -0.1077
 5736TIP3    H138767   2.940   0.847   7.980 -1.2737  1.5272 -2.0694
 5736TIP3    H238768   2.796   0.861   8.025 -0.3879  1.8610  0.8717
 5737TIP3   OH238769   3.204   4.795   1.269  0.3276 -0.0108 -0.3979
 5737TIP3    H138770   3.126   4.739   1.269  0.6336 -0.5059 -2.5518
 5737TIP3    H238771   3.276   4.737   1.293  0.5786 -0.5017 -2.2082
 5738TIP3   OH238772   0.825   0.630   2.046  0.5525 -0.4167  0.1767
 5738TIP3    H138773   0.814   0.633   1.951  1.6750 -0.0714  0.0369
 5738TIP3    H238774   0.738   0.610   2.081  0.0097  0.0409 -0.8916
 5739TIP3   OH238775   6.472   3.460   7.619  0.4134  0.1229  0.1792
 5739TIP3    H138776   6.412   3.535   7.621  0.2788  0.0068  1.6533
 5739TIP3    H238777   6.506   3.459   7.529 -1.0434  0.7731 -0.4116
 5740TIP3   OH238778   5.642   1.984   0.186 -0.6608 -0.3068 -0.2187
 5740TIP3    H138779   5.737   1.983   0.185 -0.6393  0.2845  0.6444
 5740TIP3    H238780   5.617   1.989   0.093  0.2389  5.5126 -0.4776
 5741TIP3   OH238781   1.871   3.342   0.328  0.1159 -0.2494 -0.7094
 5741TIP3    H138782   1.907   3.264   0.287  1.3399  0.6984 -1.5380
 5741TIP3    H238783   1.942   3.406   0.324  0.0561  0.1606  2.2296
 5742TIP3   OH238784   3.221   6.703   2.829  0.0579 -0.2755 -0.0270
 5742TIP3    H138785   3.232   6.780   2.884 -0.8321 -1.4737  1.9425
 5742TIP3    H238786   3.300   6.700   2.775  1.4932  0.3996  1.9271
 5743TIP3   OH238787   0.263   2.835   2.240  0.2674 -0.4466 -0.4149
 5743TIP3    H138788   0.215   2.861   2.318  0.2661 -3.2556  0.6572
 5743TIP3    H238789   0.338   2.894   2.236 -2.1756  2.8510 -1.1120
 5744TIP3   OH238790   1.357   3.131   0.397  0.0392  0.3083  0.4115
 5744TIP3    H138791   1.330   3.052   0.443  1.2984 -0.0502  0.5977
 5744TIP3    H238792   1.367   3.197   0.465 -1.3379  0.7386  0.2144
 5745TIP3   OH238793   4.294   1.175   0.353  0.2086  0.5238 -0.7058
 5745TIP3    H138794   4.209   1.161   0.394 -1.5026  1.5491 -3.6193
 5745TIP3    H238795   4.322   1.088   0.326  0.5800  0.0629  1.0039
 5746TIP3   OH238796   1.142   5.520   1.969  0.8261  0.0046  0.1382
 5746TIP3    H138797   1.158   5.430   1.938  0.4917  0.1129 -0.3638
 5746TIP3    H238798   1.154   5.515   2.063  0.7624 -0.5838  0.1214
 5747TIP3   OH238799   4.086   3.024   3.163  0.1738 -0.7701  0.3797
 5747TIP3    H138800   4.144   3.037   3.238  0.4215  0.1613  0.0362
 5747TIP3    H238801   4.119   3.084   3.096 -0.9436 -0.5163  0.0368
 5748TIP3   OH238802   0.846   6.455   2.849  0.2140  0.2115  0.2546
 5748TIP3    H138803   0.805   6.509   2.917 -1.7038  0.4120 -0.9787
 5748TIP3    H238804   0.788   6.380   2.839  1.7811 -1.0858  0.5219
 5749TIP3   OH238805   5.800   6.908   7.957  0.1695 -0.0267 -0.2191
 5749TIP3    H138806   5.731   6.868   8.010  1.6720 -0.7475  1.2632
 5749TIP3    H238807   5.879   6.900   8.009  1.0461  2.6870 -0.9339
 5750TIP3   OH238808   1.911   6.118   7.679  0.1751 -0.0889 -0.8840
 5750TIP3    H138809   1.921   6.040   7.624  1.6164 -1.7646  1.6006
 5750TIP3    H238810   1.850   6.173   7.630 -2.8531 -3.7614 -1.7003
 5751TIP3   OH238811   4.746   3.330   0.709  0.1774 -0.4910  0.0375
 5751TIP3    H138812   4.826   3.334   0.656 -0.1755  1.2574 -0.4290
 5751TIP3    H238813   4.675   3.332   0.645 -0.2482  1.3729  0.5204
 5752TIP3   OH238814   0.061   1.212   3.000 -0.6843 -0.1526 -0.0889
 5752TIP3    H138815   0.033   1.203   2.909 -2.8637 -0.0750  0.5187
 5752TIP3    H238816   0.146   1.256   2.995 -1.0272  0.3588 -2.0620
 5753TIP3   OH238817   3.790   0.874   2.235  0.3236  0.2013 -0.4650
 5753TIP3    H138818   3.872   0.919   2.218  0.4918 -0.8015 -2.5921
 5753TIP3    H238819   3.731   0.943   2.266  1.6474  1.1231  0.0964
 5754TIP3   OH238820   6.303   4.912   0.098  0.1251  0.0641  0.2014
 5754TIP3    H138821   6.358   4.904   0.176  1.7113 -0.5162 -0.9251
 5754TIP3    H238822   6.297   5.006   0.083 -2.6038  0.4168  2.5761
 5755TIP3   OH238823   0.527   4.808   1.772 -0.1267  0.2012  0.0018
 5755TIP3    H138824   0.457   4.853   1.725  1.2678  1.8673 -0.5888
 5755TIP3    H238825   0.598   4.800   1.708  0.3913 -1.0741  0.6976
 5756TIP3   OH238826   6.462   0.218   0.502 -0.7419 -0.2326  0.0871
 5756TIP3    H138827   6.518   0.295   0.515 -2.1265  0.7361  0.4960
 5756TIP3    H238828   6.397   0.247   0.438 -2.4956 -0.3747  1.7234
 5757TIP3   OH238829   2.202   3.023   0.749 -0.3178 -0.1695  0.6184
 5757TIP3    H138830   2.170   2.933   0.736 -0.4464  0.0950 -1.0511
 5757TIP3    H238831   2.132   3.065   0.799 -1.3289 -0.3927 -0.5462
 5758TIP3   OH238832   4.534   4.918   7.999 -0.4459 -0.0225 -0.0076
 5758TIP3    H138833   4.517   4.829   7.968  2.5354 -1.6621  2.4415
 5758TIP3    H238834   4.622   4.938   7.967 -0.1900  1.1292  1.3052
 5759TIP3   OH238835   3.934   0.791   1.206 -0.2449 -0.0477 -0.3013
 5759TIP3    H138836   3.869   0.741   1.256  0.0387  0.5404  0.6809
 5759TIP3    H238837   4.018   0.751   1.228  0.0472  1.1533  0.9281
 5760TIP3   OH238838   4.618   3.074   1.508  0.2047  0.4087  0.0790
 5760TIP3    H138839   4.574   3.053   1.425 -1.4316  0.2978  0.9242
 5760TIP3    H238840   4.547   3.105   1.565  0.5765 -2.8254  2.5827
 5761TIP3   OH238841   6.644   0.982   3.296 -0.3268  1.0114  0.4235
 5761TIP3    H138842   6.694   0.991   3.215 -0.9150  0.3140 -0.0339
 5761TIP3    H238843   6.709   0.961   3.362 -0.0286 -0.1532 -0.2146
 5762TIP3   OH238844   4.475   5.375   1.273  0.5019 -0.2092 -0.5679
 5762TIP3    H138845   4.516   5.344   1.192 -1.8747 -0.8603 -1.6093
 5762TIP3    H238846   4.425   5.452   1.246  0.6638  0.3036  0.5573
 5763TIP3   OH238847   1.420   5.370   0.969 -0.0918 -0.5386  0.1445
 5763TIP3    H138848   1.356   5.424   1.016  1.3185  0.9066  0.4926
 5763TIP3    H238849   1.376   5.286   0.957 -1.5298 -0.0473  1.5983
 5764TIP3   OH238850   5.605   3.378   1.253  0.3300 -0.1244  0.3484
 5764TIP3    H138851   5.686   3.406   1.210  1.2615  1.4574  2.9074
 5764TIP3    H238852   5.537   3.394   1.188  1.8792  0.0435 -1.3048
 5765TIP3   OH238853   5.341   4.881   2.357  0.1175 -0.0914 -0.5500
 5765TIP3    H138854   5.250   4.910   2.357 -0.5574 -1.9523  1.0778
 5765TIP3    H238855   5.390   4.958   2.385 -1.2712  0.3015  0.9859
 5766TIP3   OH238856   0.913   6.386   1.171 -0.4914  0.5680 -0.2286
 5766TIP3    H138857   0.924   6.346   1.257  0.7423  0.3062 -0.4919
 5766TIP3    H238858   0.997   6.426   1.152 -0.4692 -0.0978 -1.6848
 5767TIP3   OH238859   2.863   0.888   1.367  0.0590 -0.1492 -0.1679
 5767TIP3    H138860   2.796   0.956   1.380  0.0027 -0.3443  0.6244
 5767TIP3    H238861   2.926   0.902   1.437 -0.1468 -1.1412  0.2318
 5768TIP3   OH238862   2.502   5.717   0.412  0.1056  0.1465  0.1457
 5768TIP3    H138863   2.525   5.793   0.466 -2.5875 -0.1541  1.9110
 5768TIP3    H238864   2.406   5.711   0.419  0.2309 -3.8038  0.6457
 5769TIP3   OH238865   0.708   4.786   1.564  1.0442 -0.4948 -0.1531
 5769TIP3    H138866   0.769   4.820   1.498 -0.4694  1.1807 -0.7992
 5769TIP3    H238867   0.668   4.710   1.523  1.4915 -0.5928 -0.4091
 5770TIP3   OH238868   6.591   3.013   1.031 -0.1330  0.1824 -0.2990
 5770TIP3    H138869   6.542   3.004   0.949 -0.2985 -1.1897 -0.0787
 5770TIP3    H238870   6.611   3.106   1.037 -0.5300  0.3797 -1.6615
 5771TIP3   OH238871   1.041   5.392   0.236 -0.3655 -0.1675  0.2399
 5771TIP3    H138872   1.130   5.367   0.211  0.2709  0.3997  1.7977
 5771TIP3    H238873   1.043   5.488   0.238 -1.9684  0.0400 -2.8899
 5772TIP3   OH238874   1.236   0.748   2.780  0.4733 -0.0018  0.1721
 5772TIP3    H138875   1.170   0.802   2.823  0.4954 -0.3080  0.5953
 5772TIP3    H238876   1.227   0.662   2.821  0.9899 -0.1012  0.0777
 5773TIP3   OH238877   1.140   3.830   2.389 -0.0544  0.0242  0.1658
 5773TIP3    H138878   1.063   3.874   2.424 -0.6099 -0.1702 -0.7656
 5773TIP3    H238879   1.143   3.746   2.435  0.5706  0.7077  1.3992
 5774TIP3   OH238880   0.429   5.443   8.154 -0.0431  0.1082 -0.6817
 5774TIP3    H138881   0.509   5.432   8.103  1.4702 -0.9194  1.7114
 5774TIP3    H238882   0.447   5.519   8.211 -0.5511 -0.4112  0.1957
 5775TIP3   OH238883   0.559   0.341   2.972 -0.3895 -0.0465 -0.2805
 5775TIP3    H138884   0.485   0.285   2.994 -0.0474  0.0580  1.2929
 5775TIP3    H238885   0.604   0.355   3.056  1.7132 -0.5470 -1.2676
 5776TIP3   OH238886   4.814   4.819   1.861 -0.3145  0.5499  0.8985
 5776TIP3    H138887   4.848   4.732   1.838 -1.5740  0.1663  0.3863
 5776TIP3    H238888   4.884   4.860   1.911  0.8544 -0.2322 -0.0480
 5777TIP3   OH238889   5.209   6.913   8.091 -0.0194 -0.1739  0.0660
 5777TIP3    H138890   5.282   6.922   8.029  0.8671 -1.5460  0.8588
 5777TIP3    H238891   5.251   6.886   8.173 -1.4932 -2.2123  0.2329
 5778TIP3   OH238892   3.267   3.038   7.937 -0.0080 -0.2405  0.1422
 5778TIP3    H138893   3.222   2.956   7.959 -0.8118  0.4595  1.2453
 5778TIP3    H238894   3.297   3.026   7.847 -2.7684 -0.6015 -0.8153
 5779TIP3   OH238895   1.092   5.888   3.585 -0.3205  0.5682  0.1549
 5779TIP3    H138896   1.043   5.940   3.522 -0.0773  0.5495 -0.0518
 5779TIP3    H238897   1.144   5.828   3.531  0.3359  0.9470  0.3448
 5780TIP3   OH238898   1.956   5.962   7.281  0.7750 -0.2462  0.2425
 5780TIP3    H138899   1.925   6.020   7.350  0.8142  0.0915 -0.0159
 5780TIP3    H238900   1.933   5.874   7.310 -0.7095  0.0089 -0.0720
 5781TIP3   OH238901   6.088   6.608   3.213  0.2547 -1.1191  0.0224
 5781TIP3    H138902   6.008   6.555   3.201  1.4239 -2.6181 -1.7690
 5781TIP3    H238903   6.156   6.544   3.232  1.2796  0.0333  0.3435
 5782TIP3   OH238904   6.251   4.949   1.919  0.0580  0.0443 -0.3474
 5782TIP3    H138905   6.312   5.023   1.926  0.2630 -0.1860  0.3464
 5782TIP3    H238906   6.165   4.986   1.939  0.2060  0.0337  0.3211
 5783TIP3   OH238907   1.455   2.903   2.378  0.0808  0.5997  0.5352
 5783TIP3    H138908   1.488   2.984   2.339 -1.0371  1.0479  0.4986
 5783TIP3    H238909   1.421   2.929   2.463 -0.5133  0.2259  0.4191
 5784TIP3   OH238910   0.056   5.644   1.574 -1.1055  0.0259 -0.2591
 5784TIP3    H138911   0.023   5.574   1.517  0.4647 -0.7583 -0.2581
 5784TIP3    H238912   0.148   5.652   1.552 -0.9579  1.2115  0.6724
 5785TIP3   OH238913   4.475   6.927   0.248  0.2612 -0.0263  0.0032
 5785TIP3    H138914   4.445   7.014   0.274 -0.1985 -0.3569  0.5995
 5785TIP3    H238915   4.531   6.943   0.172  0.6136  0.8346  0.4304
 5786TIP3   OH238916   3.137   0.598   3.092  0.0679  0.4086  0.2482
 5786TIP3    H138917   3.151   0.513   3.133 -2.1812 -0.1073  0.1171
 5786TIP3    H238918   3.065   0.638   3.142  0.6835  1.9821 -0.0523
 5787TIP3   OH238919   0.404   2.656   8.003 -0.0796  0.1638  0.0635
 5787TIP3    H138920   0.344   2.699   8.064 -1.3283 -0.9994 -0.3031
 5787TIP3    H238921   0.354   2.647   7.922 -0.7114 -3.7673  0.6934
 5788TIP3   OH238922   5.878   0.921   2.795  0.1539 -0.9737 -0.0004
 5788TIP3    H138923   5.805   0.906   2.855  0.5764  1.1161  1.1459
 5788TIP3    H238924   5.838   0.934   2.710 -0.9853  1.0665  0.7696
 5789TIP3   OH238925   1.555   3.667   2.700  0.0257  0.2243 -0.1142
 5789TIP3    H138926   1.503   3.606   2.648  2.3058 -1.9166 -0.1115
 5789TIP3    H238927   1.541   3.640   2.790  1.7506 -1.0389 -0.1636
 5790TIP3   OH238928   2.216   1.357   1.384 -0.2369 -0.0102 -0.2882
 5790TIP3    H138929   2.169   1.317   1.312  0.4392 -0.5437 -0.4393
 5790TIP3    H238930   2.238   1.445   1.353 -0.3049 -0.0953 -0.5726
 5791TIP3   OH238931   6.063   6.850   0.167 -0.2329  0.2687  0.6144
 5791TIP3    H138932   6.040   6.849   0.260  0.1203  0.8871  0.7160
 5791TIP3    H238933   6.109   6.933   0.155 -1.3071  0.7529 -0.3530
 5792TIP3   OH238934   2.177   5.360   0.689  0.6965 -0.1787  0.3534
 5792TIP3    H138935   2.262   5.341   0.730  0.6437 -0.1441  0.4787
 5792TIP3    H238936   2.190   5.340   0.597  0.9592  0.1978  0.3041
 5793TIP3   OH238937   5.549   4.878   7.527  0.2105  0.0521 -0.2406
 5793TIP3    H138938   5.573   4.828   7.449  1.8084  0.7560 -0.2406
 5793TIP3    H238939   5.461   4.909   7.510 -1.0148 -2.9679 -0.1265
 5794TIP3   OH238940   4.248   5.004   0.965 -1.0737 -0.0575  0.4014
 5794TIP3    H138941   4.327   4.950   0.974 -1.6622 -0.8119  1.1629
 5794TIP3    H238942   4.217   5.016   1.054 -2.2931 -0.4958  0.0642
 5795TIP3   OH238943   0.776   2.096   3.309  0.2661  0.4182  0.4451
 5795TIP3    H138944   0.740   2.125   3.393 -1.7619  0.9972 -0.5352
 5795TIP3    H238945   0.767   2.173   3.252 -1.3418 -0.8446 -1.1050
 5796TIP3   OH238946   6.273   6.515   2.179 -0.1265  0.1690 -0.1971
 5796TIP3    H138947   6.258   6.569   2.102  1.4659  1.8521  0.5802
 5796TIP3    H238948   6.252   6.426   2.152 -0.8975  0.9042 -2.1397
 5797TIP3   OH238949   4.349   4.349   2.073 -0.4753 -0.8156 -0.0469
 5797TIP3    H138950   4.400   4.342   2.153 -1.1535  0.2627  0.5117
 5797TIP3    H238951   4.411   4.378   2.007 -0.7042  2.9469  1.1654
 5798TIP3   OH238952   3.994   5.022   2.027  0.1512 -0.0848  0.1385
 5798TIP3    H138953   4.066   5.059   1.977  0.7264  0.1174  1.0758
 5798TIP3    H238954   3.940   5.098   2.050 -0.0861 -0.1696 -0.1520
 5799TIP3   OH238955   4.392   0.856   2.133 -0.7771  0.0973  0.0661
 5799TIP3    H138956   4.407   0.817   2.219  1.1934 -1.9942 -1.1036
 5799TIP3    H238957   4.362   0.784   2.078 -2.6507  1.5302 -0.9008
 5800TIP3   OH238958   2.577   6.123   2.429  0.2358  0.4991 -0.3572
 5800TIP3    H138959   2.522   6.145   2.504 -0.2257  0.0967 -0.5651
 5800TIP3    H238960   2.645   6.190   2.428 -0.2918  1.0489 -0.1341
 5801TIP3   OH238961   4.259   6.511   8.314 -0.0326  0.3472  0.5176
 5801TIP3    H138962   4.232   6.433   8.265  0.9947 -0.3685  1.0499
 5801TIP3    H238963   4.186   6.531   8.372 -0.8187  0.5499 -0.5224
 5802TIP3   OH238964   3.770   2.323   8.338  0.2133  0.3385 -0.1217
 5802TIP3    H138965   3.727   2.243   8.368  0.0179  0.4760 -0.0343
 5802TIP3    H238966   3.699   2.379   8.308  0.1378  1.3062  1.7099
 5803TIP3   OH238967   2.108   6.196   7.477  0.0073  0.0384  0.1149
 5803TIP3    H138968   2.094   6.226   7.387  0.0794  0.3711  0.2145
 5803TIP3    H238969   2.020   6.193   7.515 -0.1814 -1.3904 -0.3652
 5804TIP3   OH238970   3.315   4.318   1.934 -0.2636 -0.1222 -0.0607
 5804TIP3    H138971   3.399   4.362   1.920 -0.5886  0.5210 -0.0315
 5804TIP3    H238972   3.338   4.226   1.948  0.6488  0.3771  2.1591
 5805TIP3   OH238973   6.546   6.754   2.008 -0.3413  0.1687  0.5369
 5805TIP3    H138974   6.486   6.804   2.063  0.1373 -0.3328  1.5333
 5805TIP3    H238975   6.624   6.742   2.062 -0.2100 -1.1270  0.0810
 5806TIP3   OH238976   0.880   4.511   2.706 -0.1019 -0.3163  0.1090
 5806TIP3    H138977   0.947   4.523   2.773  0.2865 -1.9989  0.0491
 5806TIP3    H238978   0.920   4.545   2.625  1.5463 -3.0839 -0.3707
 5807TIP3   OH238979   4.020   3.444   1.464 -0.0765 -0.3157 -0.3420
 5807TIP3    H138980   4.040   3.516   1.524 -2.4189  0.4779 -0.4141
 5807TIP3    H238981   3.929   3.421   1.485 -0.2204 -1.4827 -2.1184
 5808TIP3   OH238982   0.352   3.340   2.633  0.5132 -0.4948 -0.9017
 5808TIP3    H138983   0.376   3.433   2.627  0.2628 -0.3346  0.2608
 5808TIP3    H238984   0.433   3.296   2.659  0.1924 -0.3048  0.5139
 5809TIP3   OH238985   2.181   5.503   7.672  0.0212  0.3001  0.1265
 5809TIP3    H138986   2.249   5.569   7.687  0.5828 -0.2065 -0.1241
 5809TIP3    H238987   2.107   5.552   7.636  0.1691  0.8936  0.6064
 5810TIP3   OH238988   3.163   3.480   1.464 -0.1105  0.2046  0.2594
 5810TIP3    H138989   3.111   3.420   1.411 -1.2017  0.8467  0.5535
 5810TIP3    H238990   3.107   3.499   1.540  1.2293 -0.3468  1.4260
 5811TIP3   OH238991   6.223   0.155   7.841 -0.0248  0.4727 -0.2510
 5811TIP3    H138992   6.145   0.122   7.796 -0.5352 -2.3222  2.3269
 5811TIP3    H238993   6.194   0.235   7.885 -1.1525  0.0554 -0.2077
 5812TIP3   OH238994   5.526   0.003   0.627 -0.3152  0.0544 -0.2655
 5812TIP3    H138995   5.457  -0.062   0.630  0.6052 -0.9639 -0.4441
 5812TIP3    H238996   5.500   0.064   0.558 -0.7033 -0.6984 -0.7902
 5813TIP3   OH238997   0.151   2.489   0.520  0.2960  0.3348  0.0722
 5813TIP3    H138998   0.060   2.504   0.496 -0.0074 -1.6362 -0.1984
 5813TIP3    H238999   0.200   2.502   0.439  0.1470  0.5332  0.0151
 5814TIP3   OH239000   0.526   1.164   2.423 -0.2414  0.5329  0.5854
 5814TIP3    H139001   0.487   1.092   2.473 -1.1897  1.3410  1.0527
 5814TIP3    H239002   0.530   1.131   2.334  1.1435 -0.8019  1.1066
 5815TIP3   OH239003   6.216   1.197   0.590  0.0133  0.4043 -0.2444
 5815TIP3    H139004   6.139   1.142   0.602 -0.1229 -0.2142 -3.2485
 5815TIP3    H239005   6.289   1.143   0.619 -0.4741  0.2648  0.7744
 5816TIP3   OH239006   4.552   2.139   0.228 -0.2902  0.0376  0.0137
 5816TIP3    H139007   4.522   2.191   0.153 -1.4886 -0.3699  0.2006
 5816TIP3    H239008   4.522   2.050   0.209  1.9758 -0.7052 -0.4397
 5817TIP3   OH239009   1.319   2.240   0.568 -0.2635  0.1373  0.3541
 5817TIP3    H139010   1.310   2.237   0.663 -1.0731  0.4701  0.2922
 5817TIP3    H239011   1.241   2.286   0.537 -0.8706 -1.4257 -0.5984
 5818TIP3   OH239012   2.281   6.651   1.729 -0.5200  0.0877 -0.0038
 5818TIP3    H139013   2.284   6.631   1.823  0.9401  1.0892  0.1941
 5818TIP3    H239014   2.234   6.734   1.723  2.5943  2.0599  0.3185
 5819TIP3   OH239015   1.544   1.303   0.165  0.0082  0.5647  0.1018
 5819TIP3    H139016   1.621   1.348   0.198  0.6622  0.6980 -1.5261
 5819TIP3    H239017   1.548   1.216   0.206  0.3151  0.9867  0.9993
 5820TIP3   OH239018   3.670   1.348   0.998 -0.2427 -0.1619  0.3510
 5820TIP3    H139019   3.686   1.383   0.910 -0.4911 -2.7174 -0.8049
 5820TIP3    H239020   3.584   1.381   1.022 -0.5930 -0.1836 -0.8142
 5821TIP3   OH239021   0.276   5.022   7.972 -0.0744  0.2044  0.1588
 5821TIP3    H139022   0.288   4.980   7.887  1.2846  2.0402 -0.6270
 5821TIP3    H239023   0.187   5.057   7.969 -0.7186 -1.3549  0.2828
 5822TIP3   OH239024   4.868   5.812   2.370  0.1572  0.0398 -0.1885
 5822TIP3    H139025   4.856   5.726   2.409 -0.1522  0.2211  0.1272
 5822TIP3    H239026   4.954   5.840   2.399 -0.6169  0.7608  1.5489
 5823TIP3   OH239027   6.346   6.476   7.900  0.5502 -0.5126  0.4006
 5823TIP3    H139028   6.328   6.513   7.814  2.1057  0.7007  0.5528
 5823TIP3    H239029   6.315   6.542   7.962  1.3900 -0.3846  0.7091
 5824TIP3   OH239030   2.916   4.280   8.025  0.4213  0.3837  0.0421
 5824TIP3    H139031   2.982   4.335   8.067  0.9483 -0.3949  0.2504
 5824TIP3    H239032   2.921   4.196   8.071  0.8515 -0.4235 -1.3910
 5825TIP3   OH239033   4.964   5.244   7.948 -0.3245 -0.0213  0.0747
 5825TIP3    H139034   4.916   5.204   7.876  0.1496  1.1000 -0.8981
 5825TIP3    H239035   5.041   5.283   7.907  0.2107  0.2339  1.2608
 5826TIP3   OH239036   6.376   4.712   1.302  0.3315 -0.6122 -0.2008
 5826TIP3    H139037   6.365   4.726   1.208 -1.0727 -0.4627 -0.0326
 5826TIP3    H239038   6.288   4.720   1.338  0.8555 -0.6180  1.1421
 5827TIP3   OH239039   1.783   3.661   8.313 -0.1463  0.1707 -0.2631
 5827TIP3    H139040   1.748   3.709   8.389  0.0455 -0.0117 -0.0573
 5827TIP3    H239041   1.754   3.570   8.327 -2.2930  0.5551 -1.6936
 5828TIP3   OH239042   0.259   1.107   1.334  0.2941  0.2086 -0.3906
 5828TIP3    H139043   0.277   1.190   1.291  2.1067 -0.0009 -0.1091
 5828TIP3    H239044   0.342   1.082   1.374 -0.2804 -1.6193 -0.2465
 5829TIP3   OH239045   1.895   6.923   1.593 -0.1265  0.0398  0.4292
 5829TIP3    H139046   1.815   6.973   1.611  0.1168 -0.2528  2.5718
 5829TIP3    H239047   1.963   6.969   1.642  0.8590 -0.2207 -0.6701
 5830TIP3   OH239048   4.912   5.826   2.842  0.4546  0.2396  0.4257
 5830TIP3    H139049   4.980   5.892   2.827  0.8685 -0.3813 -0.4847
 5830TIP3    H239050   4.900   5.826   2.937  2.9642 -0.8534  0.8239
 5831TIP3   OH239051   1.188   5.208   8.293 -0.1547 -0.1468 -0.2781
 5831TIP3    H139052   1.283   5.223   8.291  0.0435 -1.3116 -0.3470
 5831TIP3    H239053   1.154   5.261   8.220  0.8501 -2.1215 -2.3013
 5832TIP3   OH239054   1.108   4.779   1.152  0.0704  0.2040  0.2123
 5832TIP3    H139055   1.168   4.709   1.179  0.9516  1.2771  1.1313
 5832TIP3    H239056   1.139   4.856   1.199 -1.3184  1.0616 -0.2360
 5833TIP3   OH239057   5.691   3.444   8.043 -0.0769 -0.6479  1.0692
 5833TIP3    H139058   5.669   3.442   7.950  0.7732 -1.2019  0.8719
 5833TIP3    H239059   5.786   3.459   8.045 -0.0767 -0.7203  1.8425
 5834TIP3   OH239060   1.943   5.382   7.470 -0.0142  0.6366  0.1391
 5834TIP3    H139061   1.856   5.369   7.508  0.4642  0.9714  1.4405
 5834TIP3    H239062   1.971   5.467   7.505 -0.7247  2.4954 -3.4172
 5835TIP3   OH239063   1.339   6.238   7.281  0.3944 -0.7099  0.4671
 5835TIP3    H139064   1.288   6.223   7.201  0.5151 -0.4087  0.3297
 5835TIP3    H239065   1.275   6.231   7.352  0.6400 -3.0037  0.5257
 5836TIP3   OH239066   2.581   1.881   3.371  0.2263  0.1217  0.2892
 5836TIP3    H139067   2.538   1.913   3.292  0.4904 -0.8231 -0.2563
 5836TIP3    H239068   2.548   1.791   3.382  0.9731 -0.1204  0.6640
 5837TIP3   OH239069   1.444   3.610   2.314  0.5598  0.2234  0.1030
 5837TIP3    H139070   1.431   3.615   2.408 -0.5559  0.6018 -0.0605
 5837TIP3    H239071   1.539   3.607   2.303  0.6947 -0.2226  1.2478
 5838TIP3   OH239072   1.250   1.557   7.596 -0.2507  0.8533  0.4479
 5838TIP3    H139073   1.325   1.517   7.552 -1.3652 -0.7641 -0.0430
 5838TIP3    H239074   1.227   1.632   7.540 -0.4010  0.0095 -0.6483
 5839TIP3   OH239075   5.803   1.123   2.023  0.4759 -0.7854  0.5996
 5839TIP3    H139076   5.888   1.165   2.011  1.0885 -1.7164  1.4893
 5839TIP3    H239077   5.804   1.093   2.114 -2.1194  2.0097  1.7207
 5840TIP3   OH239078   2.112   1.165   1.543  0.2684 -0.0203  0.4276
 5840TIP3    H139079   2.141   1.080   1.509 -0.8447  0.0526 -0.7587
 5840TIP3    H239080   2.150   1.229   1.483 -1.2393  0.1380 -0.4106
 5841TIP3   OH239081   5.779   0.393   7.946  0.2326  0.4558  0.1748
 5841TIP3    H139082   5.795   0.328   7.878 -1.0267  1.5424 -1.2360
 5841TIP3    H239083   5.692   0.428   7.927  0.3075  1.6114  1.6787
 5842TIP3   OH239084   6.209   2.502   7.933 -0.0799  0.4371 -0.1328
 5842TIP3    H139085   6.249   2.587   7.955  1.3683  0.3644 -2.2181
 5842TIP3    H239086   6.134   2.524   7.879 -0.7577  0.4286  0.7839
 5843TIP3   OH239087   0.519   2.830   0.094  0.5388 -0.0126 -0.2780
 5843TIP3    H139088   0.519   2.743   0.053 -0.7345  0.8390 -2.2380
 5843TIP3    H239089   0.611   2.849   0.111  0.9094 -1.3497 -0.7033
 5844TIP3   OH239090   5.763   0.278   1.587  0.5319 -0.1128  0.7660
 5844TIP3    H139091   5.719   0.348   1.635 -1.2970 -1.8509  1.8015
 5844TIP3    H239092   5.838   0.320   1.545  1.0910  1.9022  3.5247
 5845TIP3   OH239093   0.810   6.992   1.208 -0.0110  0.1151  0.0169
 5845TIP3    H139094   0.747   7.064   1.202 -0.2914 -0.2604 -2.3802
 5845TIP3    H239095   0.882   7.018   1.151 -0.0020 -1.3658 -0.6947
 5846TIP3   OH239096   1.874   6.887   0.295 -0.0925  0.5808 -0.3555
 5846TIP3    H139097   1.825   6.806   0.308 -2.1466  1.8572  0.3831
 5846TIP3    H239098   1.842   6.921   0.212 -0.1899  1.2199 -0.0664
 5847TIP3   OH239099   1.206   5.646   3.479  0.0730 -0.3501  0.4943
 5847TIP3    H139100   1.158   5.572   3.517  0.2039 -0.4277  0.5108
 5847TIP3    H239101   1.291   5.643   3.523  0.2246 -0.4398  0.1959
 5848TIP3   OH239102   5.512   3.078   2.270 -0.3891  0.2040 -0.4507
 5848TIP3    H139103   5.418   3.062   2.258 -0.8135  0.6197  1.8917
 5848TIP3    H239104   5.522   3.172   2.255 -0.5277  0.3297  0.2226
 5849TIP3   OH239105   0.824   1.264   8.021 -0.2158 -0.6675  0.8027
 5849TIP3    H139106   0.836   1.181   8.067 -0.1963 -2.7518 -2.6191
 5849TIP3    H239107   0.746   1.250   7.968  1.3516  0.3409 -1.9856
 5850TIP3   OH239108   5.156   0.653   1.090 -0.1984 -0.2685  0.5426
 5850TIP3    H139109   5.179   0.563   1.114 -0.0616 -0.3048  0.2781
 5850TIP3    H239110   5.157   0.653   0.994 -2.0927 -0.4927  0.4834
 5851TIP3   OH239111   5.956   3.979   2.668  0.4297  0.7218 -0.2835
 5851TIP3    H139112   5.959   4.074   2.675  0.9969  0.6445  0.6392
 5851TIP3    H239113   5.937   3.948   2.756  0.5461 -0.0327 -0.5117
 5852TIP3   OH239114   5.933   3.567   8.278  0.3913  0.1905  0.6546
 5852TIP3    H139115   6.022   3.539   8.256  0.8959  0.5972  2.0782
 5852TIP3    H239116   5.908   3.625   8.206  1.1661 -0.1277  0.1086
 5853TIP3   OH239117   4.863   3.098   8.223 -0.1877  0.5289  0.2543
 5853TIP3    H139118   4.769   3.114   8.232 -0.1247  0.9481  0.2028
 5853TIP3    H239119   4.903   3.185   8.232  0.0855  0.5928 -1.3633
 5854TIP3   OH239120   2.068   2.631   7.962 -0.2100 -0.2833 -0.2435
 5854TIP3    H139121   2.024   2.555   8.000  0.9983 -1.6232 -1.3593
 5854TIP3    H239122   2.098   2.682   8.036 -1.6298 -0.5230  0.5312
 5855TIP3   OH239123   6.706   4.262   2.350 -0.2133  0.6481 -0.5520
 5855TIP3    H139124   6.707   4.223   2.262 -1.6590  0.3149 -0.4402
 5855TIP3    H239125   6.798   4.275   2.371  0.4044 -2.8744 -0.5231
 5856TIP3   OH239126   0.196   5.208   1.800 -0.3846  0.0924  0.2043
 5856TIP3    H139127   0.203   5.299   1.771 -1.6442  0.4229  0.8797
 5856TIP3    H239128   0.109   5.201   1.839 -0.6958 -1.6605 -0.6981
 5857TIP3   OH239129   3.445   6.066   3.060 -0.3435  0.3772 -0.5129
 5857TIP3    H139130   3.378   6.096   2.999 -1.5432 -1.1934 -0.0170
 5857TIP3    H239131   3.398   6.047   3.141  1.2284  2.5290  1.0290
 5858TIP3   OH239132   2.466   5.223   8.028  0.3720  0.9562  0.1335
 5858TIP3    H139133   2.519   5.277   7.969  1.1102 -1.0272 -1.1121
 5858TIP3    H239134   2.376   5.239   8.001  0.6547  0.6671 -1.0251
 5859TIP3   OH239135   4.525   3.411   7.559 -0.2674 -0.1126 -0.3586
 5859TIP3    H139136   4.612   3.421   7.521 -0.8547 -1.1453 -2.0522
 5859TIP3    H239137   4.479   3.352   7.500 -1.9118 -0.1428  0.8757
 5860TIP3   OH239138   4.054   0.365   0.079 -0.0461 -0.0472  0.1927
 5860TIP3    H139139   4.113   0.408   0.140 -0.5714  0.3409  0.4384
 5860TIP3    H239140   4.109   0.303   0.031  0.7414  0.9819 -0.2579
 5861TIP3   OH239141   5.408   5.926   0.066 -0.0389 -0.0166  0.7563
 5861TIP3    H139142   5.344   5.990   0.035  1.0957  1.5079  1.4332
 5861TIP3    H239143   5.471   5.918  -0.007 -0.4937 -0.8677  0.4318
 5862TIP3   OH239144   0.495   5.277   7.428  0.3270 -0.4234  0.2738
 5862TIP3    H139145   0.531   5.318   7.507 -1.0538 -0.6886  1.0626
 5862TIP3    H239146   0.513   5.340   7.358  1.0546  0.0763  0.8870
 5863TIP3   OH239147   2.141   6.847   1.420  0.4670  0.2426  0.7027
 5863TIP3    H139148   2.068   6.894   1.381 -0.1018 -0.2763  1.1228
 5863TIP3    H239149   2.211   6.854   1.355 -0.9057 -1.8520 -1.1468
 5864TIP3   OH239150   3.527   3.031   2.596  0.3306  0.0918 -0.3814
 5864TIP3    H139151   3.606   2.976   2.598  0.2307 -0.0521  1.5858
 5864TIP3    H239152   3.561   3.120   2.585  0.7513  0.0005  0.1317
 5865TIP3   OH239153   3.997   3.037   7.645 -1.0034  0.2063 -0.6369
 5865TIP3    H139154   3.914   3.052   7.600 -0.4829  2.0927 -1.0555
 5865TIP3    H239155   4.057   3.101   7.606  0.6399 -1.0823 -0.3097
 5866TIP3   OH239156   1.223   6.323   2.287 -0.1328  0.0738  0.7404
 5866TIP3    H139157   1.292   6.349   2.226  0.9320 -0.9397  1.4733
 5866TIP3    H239158   1.146   6.309   2.232  0.2571  1.1148 -0.1100
 5867TIP3   OH239159   0.423   1.428   1.528  0.4125  0.6906 -0.0438
 5867TIP3    H139160   0.440   1.383   1.610 -0.9046 -0.1761 -0.2149
 5867TIP3    H239161   0.350   1.486   1.547  0.5678  1.0214 -0.4266
 5868TIP3   OH239162   4.314   6.724   1.165  0.1476  0.9542 -1.2639
 5868TIP3    H139163   4.316   6.702   1.258 -0.6837  1.8428 -1.0251
 5868TIP3    H239164   4.277   6.646   1.123 -1.0755  1.1720 -0.6416
 5869TIP3   OH239165   5.466   6.141   1.756  0.5088  0.0434  0.1503
 5869TIP3    H139166   5.520   6.115   1.830 -1.0633 -0.1695  1.2704
 5869TIP3    H239167   5.388   6.085   1.762 -0.0481  0.6283 -1.1624
 5870TIP3   OH239168   3.373   0.281   1.055 -0.1676 -0.0958  0.1114
 5870TIP3    H139169   3.449   0.317   1.101 -0.6949 -0.5026  1.3327
 5870TIP3    H239170   3.360   0.195   1.094 -1.2968 -0.0022 -0.0417
 5871TIP3   OH239171   6.457   6.668   1.592 -0.0997 -0.0795 -0.3122
 5871TIP3    H139172   6.463   6.573   1.580 -1.2636 -0.2232  0.1358
 5871TIP3    H239173   6.516   6.687   1.665  0.1175 -0.4517 -0.3869
 5872TIP3   OH239174   1.206   1.773   1.617  0.4994  0.5866 -0.6626
 5872TIP3    H139175   1.193   1.840   1.549 -0.0654  1.2346  0.0617
 5872TIP3    H239176   1.171   1.813   1.697  1.6322  0.0434  0.1280
 5873TIP3   OH239177   1.618   5.576   1.309  0.4066 -0.3002 -0.6232
 5873TIP3    H139178   1.689   5.605   1.252  3.0334 -0.6474  2.2146
 5873TIP3    H239179   1.593   5.654   1.358  0.1288 -0.5635 -0.3403
 5874TIP3   OH239180   4.611   1.003   0.942 -0.3790  0.3805  0.2428
 5874TIP3    H139181   4.618   1.055   1.022  0.3497  0.4449  0.1386
 5874TIP3    H239182   4.624   1.066   0.871 -1.2355  0.3636  0.0560
 5875TIP3   OH239183   1.263   6.641   0.928  0.4586 -0.1757  0.2442
 5875TIP3    H139184   1.353   6.619   0.952 -0.0947 -0.9594  1.7974
 5875TIP3    H239185   1.248   6.726   0.967  0.8796  0.5240 -1.0633
 5876TIP3   OH239186   6.337   2.217   7.917  0.2713 -0.5074  0.1122
 5876TIP3    H139187   6.267   2.281   7.934  0.7900 -0.2044  1.2389
 5876TIP3    H239188   6.320   2.185   7.829  0.4177  1.7643 -0.8174
 5877TIP3   OH239189   6.614   5.066   8.334  0.0644  0.6717  0.1609
 5877TIP3    H139190   6.687   5.062   8.396  0.1023  0.2258  0.0895
 5877TIP3    H239191   6.641   5.011   8.261 -0.0023  1.1570 -0.2362
 5878TIP3   OH239192   2.863   6.468   8.244 -0.3334  0.3355  0.4604
 5878TIP3    H139193   2.779   6.433   8.275 -0.1205 -0.1711  0.4721
 5878TIP3    H239194   2.855   6.563   8.257 -1.3005  0.4052 -0.5172
 5879TIP3   OH239195   6.062   3.686   0.995 -0.3556  0.3933  0.4906
 5879TIP3    H139196   6.112   3.614   1.033  1.4930  1.6734  0.5797
 5879TIP3    H239197   6.050   3.662   0.903  2.7302  1.1861 -0.2158
 5880TIP3   OH239198   2.431   5.592   2.461  0.2200 -0.1206 -0.2279
 5880TIP3    H139199   2.390   5.602   2.548  0.4390  1.3228 -0.2578
 5880TIP3    H239200   2.435   5.498   2.447 -0.5263 -0.3632  1.0028
 5881TIP3   OH239201   0.430   0.581   0.634  0.6752 -0.4651  0.6065
 5881TIP3    H139202   0.388   0.616   0.712  0.0828 -0.4674  0.2942
 5881TIP3    H239203   0.419   0.486   0.641  0.4331 -0.4526  0.4193
 5882TIP3   OH239204   1.280   0.666   2.323 -0.0804 -0.2576  0.4785
 5882TIP3    H139205   1.308   0.709   2.404 -0.0466 -0.2826  0.4799
 5882TIP3    H239206   1.202   0.714   2.296 -1.3453 -1.5848  1.6509
 5883TIP3   OH239207   3.814   5.709   1.782 -0.3441 -0.5085 -0.2012
 5883TIP3    H139208   3.825   5.654   1.860 -0.0926  1.1485  0.9743
 5883TIP3    H239209   3.850   5.656   1.711 -1.6639 -2.5665  0.5617
 5884TIP3   OH239210   6.180   3.655   2.663 -0.1793 -0.2314  0.2516
 5884TIP3    H139211   6.240   3.642   2.737  1.2353 -1.7348 -1.0880
 5884TIP3    H239212   6.216   3.601   2.593 -2.9044 -0.8879 -0.7684
 5885TIP3   OH239213   5.706   0.782   7.519 -0.2130  0.4556  0.2110
 5885TIP3    H139214   5.660   0.711   7.564  2.8254  0.2875  3.5001
 5885TIP3    H239215   5.773   0.739   7.467 -0.4694  0.8626 -0.4795
 5886TIP3   OH239216   2.750   5.036   7.566 -0.5469 -0.5143  0.1864
 5886TIP3    H139217   2.774   5.089   7.642 -1.6388 -1.6641  1.3750
 5886TIP3    H239218   2.675   5.083   7.528  0.9440  0.9080 -1.1723
 5887TIP3   OH239219   2.652   5.732   1.629  0.4886 -0.4787 -0.4615
 5887TIP3    H139220   2.605   5.652   1.606 -1.6428  0.9087 -1.2313
 5887TIP3    H239221   2.641   5.739   1.724 -0.1150 -0.6517 -0.5099
 5888TIP3   OH239222   0.345   0.495   2.603  0.4300  0.2071 -0.0554
 5888TIP3    H139223   0.438   0.509   2.625 -0.0452  2.2071  0.8872
 5888TIP3    H239224   0.302   0.485   2.688 -0.2995 -0.2697 -0.4740
 5889TIP3   OH239225   5.109   1.194   1.343  0.1029 -0.3884 -0.0120
 5889TIP3    H139226   5.031   1.140   1.349  0.1827 -0.4438  0.5196
 5889TIP3    H239227   5.103   1.254   1.417  0.5780 -0.4121  0.0489
 5890TIP3   OH239228   6.649   0.282   7.766 -0.1810  0.1996 -0.2836
 5890TIP3    H139229   6.588   0.208   7.769  0.3226 -0.3086  4.0490
 5890TIP3    H239230   6.733   0.244   7.739 -0.6929  0.0055 -1.6924
 5891TIP3   OH239231   3.923   5.135   2.339  0.1394 -0.1729 -1.0022
 5891TIP3    H139232   3.981   5.060   2.350  0.8497  0.6249  1.4458
 5891TIP3    H239233   3.835   5.100   2.354  0.4587 -0.5597  0.0769
 5892TIP3   OH239234   3.302   0.562   0.260 -0.2561  0.4316 -0.5299
 5892TIP3    H139235   3.308   0.490   0.323  0.5839  1.1367  0.2420
 5892TIP3    H239236   3.211   0.591   0.264  0.2137  1.8705  2.0562
 5893TIP3   OH239237   1.369   6.679   8.345  0.1246  0.0144  0.4884
 5893TIP3    H139238   1.275   6.697   8.353 -0.0205 -0.9915  1.2745
 5893TIP3    H239239   1.385   6.672   8.251 -0.1453  2.3405  0.2052
 5894TIP3   OH239240   3.920   6.457   1.282  0.0873  0.1341 -0.0002
 5894TIP3    H139241   3.903   6.504   1.200  0.8555 -2.7733 -2.0065
 5894TIP3    H239242   3.858   6.384   1.280  1.1112 -0.8120  1.2794
 5895TIP3   OH239243   3.145   2.371   2.869 -0.3855  1.0405 -0.2118
 5895TIP3    H139244   3.114   2.460   2.889  0.2735  1.3503 -0.5314
 5895TIP3    H239245   3.119   2.319   2.945  0.2559  1.7668  0.5255
 5896TIP3   OH239246   0.143   2.746   0.638  0.1413  0.2834  0.2122
 5896TIP3    H139247   0.229   2.788   0.647  0.1462  0.3053  0.0642
 5896TIP3    H239248   0.163   2.656   0.612  0.1281  0.2118  0.4484
 5897TIP3   OH239249   1.038   2.475   0.345 -0.6076  0.0292  0.0203
 5897TIP3    H139250   1.024   2.386   0.378 -1.8017 -0.6366 -2.1179
 5897TIP3    H239251   1.083   2.463   0.262  1.0095  1.5784  0.6102
 5898TIP3   OH239252   6.538   2.687   0.661 -0.7118  1.0120 -0.0473
 5898TIP3    H139253   6.466   2.693   0.724  0.6916  0.1121  1.7211
 5898TIP3    H239254   6.576   2.775   0.660  0.9890  0.4083  2.5989
 5899TIP3   OH239255   6.183   6.640   8.068 -0.3039  0.2059  0.0552
 5899TIP3    H139256   6.106   6.619   8.120 -0.9088  1.6248 -0.2311
 5899TIP3    H239257   6.149   6.683   7.990  0.7325  0.0736 -0.4963
 5900TIP3   OH239258   2.416   0.863   7.448 -0.5501 -0.2033  0.3972
 5900TIP3    H139259   2.409   0.768   7.450 -1.1128 -0.1731 -0.0118
 5900TIP3    H239260   2.346   0.891   7.390  1.1579  0.3032 -1.5116
 5901TIP3   OH239261   3.186   5.215   0.311 -0.0680 -0.3176 -0.5357
 5901TIP3    H139262   3.131   5.160   0.367 -1.6721 -0.2199 -1.9222
 5901TIP3    H239263   3.128   5.240   0.238  1.4770  0.8193 -1.4319
 5902TIP3   OH239264   1.647   5.058   0.049  0.3810  0.7939 -0.1386
 5902TIP3    H139265   1.621   5.062   0.141  0.1595  0.2113 -0.1712
 5902TIP3    H239266   1.722   5.117   0.043 -0.3278  1.7522  0.1535
 5903TIP3   OH239267   4.364   6.257   1.296 -0.3029 -0.3109 -0.5537
 5903TIP3    H139268   4.298   6.326   1.305  1.0710  0.9728  0.0516
 5903TIP3    H239269   4.445   6.298   1.325  1.2620 -1.0936 -3.4572
 5904TIP3   OH239270   3.627   0.403   7.921  0.1652 -0.6260  0.2310
 5904TIP3    H139271   3.656   0.358   8.000  1.6314 -1.1835 -0.5933
 5904TIP3    H239272   3.644   0.340   7.850 -1.4696 -0.2985 -0.5214
 5905TIP3   OH239273   3.344   6.888   2.055 -0.1996  0.3384 -0.0340
 5905TIP3    H139274   3.311   6.974   2.028 -0.6527 -0.2149 -1.2743
 5905TIP3    H239275   3.396   6.858   1.982  1.0263  0.0927  0.9113
 5906TIP3   OH239276   3.856   3.220   1.001  0.1925 -0.0129 -0.5584
 5906TIP3    H139277   3.917   3.158   0.962  1.4852  0.2446  0.9629
 5906TIP3    H239278   3.858   3.295   0.941  0.4517 -0.4841 -1.1513
 5907TIP3   OH239279   2.636   4.447   8.064 -0.1278 -0.2495  0.2487
 5907TIP3    H139280   2.702   4.516   8.057  0.0834 -0.6070 -2.5470
 5907TIP3    H239281   2.686   4.367   8.078  0.0422 -0.4195 -1.1550
 5908TIP3   OH239282   2.399   5.987   1.653 -0.3588  0.2633 -0.6036
 5908TIP3    H139283   2.370   6.062   1.601  0.3650  0.6159 -0.5194
 5908TIP3    H239284   2.494   5.993   1.653 -0.3253  0.0395  0.4122
 5909TIP3   OH239285   1.654   4.721   1.601  0.3527 -0.4134  0.3263
 5909TIP3    H139286   1.650   4.816   1.610  0.2898 -0.4732  1.0256
 5909TIP3    H239287   1.689   4.706   1.513 -0.8426  0.2488 -0.2825
 5910TIP3   OH239288   0.571   2.131   2.666 -0.1026 -0.5991 -0.2522
 5910TIP3    H139289   0.592   2.118   2.573  1.0975  0.3980 -0.1396
 5910TIP3    H239290   0.617   2.059   2.711 -1.6966 -1.8357 -0.5009
 5911TIP3   OH239291   5.891   5.469   2.986  0.2254 -0.2494 -0.2562
 5911TIP3    H139292   5.844   5.387   3.003 -0.5797 -0.0566 -1.4411
 5911TIP3    H239293   5.938   5.487   3.067  0.4366 -1.8959  0.0153
 5912TIP3   OH239294   2.036   5.431   0.946  0.0713  0.3168  0.5256
 5912TIP3    H139295   2.074   5.375   0.878 -0.2181 -0.3805  0.9256
 5912TIP3    H239296   1.958   5.469   0.905  0.7647  1.1627 -0.0494
 5913TIP3   OH239297   6.841   1.725   2.255 -0.5678 -0.0637  0.1675
 5913TIP3    H139298   6.865   1.760   2.341 -0.0619  0.5449 -0.2144
 5913TIP3    H239299   6.821   1.802   2.203  0.5583 -0.3264 -0.6878
 5914TIP3   OH239300   0.333   4.703   8.326  0.1836 -0.2243 -0.2330
 5914TIP3    H139301   0.357   4.670   8.412 -2.0482  1.6415  1.2250
 5914TIP3    H239302   0.270   4.640   8.293 -0.9658  0.3962  0.7201
 5915TIP3   OH239303   0.448   1.489   0.164 -0.8531  0.0938  0.0190
 5915TIP3    H139304   0.476   1.404   0.198 -1.6285 -0.2216 -0.1318
 5915TIP3    H239305   0.465   1.550   0.236  2.3115  0.3477 -0.7669
 5916TIP3   OH239306   3.466   3.222   8.031  0.0102  0.1407  0.5742
 5916TIP3    H139307   3.481   3.226   8.125  0.2795 -0.4588  0.5617
 5916TIP3    H239308   3.398   3.157   8.019  0.9987 -0.8789  0.2646
 5917TIP3   OH239309   3.400   5.372   2.533  0.2370  0.3520  0.0923
 5917TIP3    H139310   3.423   5.283   2.558 -1.5513 -0.8043 -2.0635
 5917TIP3    H239311   3.304   5.373   2.534  0.2115  2.2408 -0.0360
 5918TIP3   OH239312   2.145   0.519   3.236  0.3838  0.3613  0.1323
 5918TIP3    H139313   2.129   0.440   3.287 -0.1111 -0.1887 -0.8326
 5918TIP3    H239314   2.205   0.571   3.289  0.6033 -0.5999  0.8471
 5919TIP3   OH239315   3.218   0.977   2.290 -0.0881 -0.1169 -0.4244
 5919TIP3    H139316   3.157   1.049   2.304  0.0975 -0.1828  0.8242
 5919TIP3    H239317   3.277   0.980   2.365 -0.8604 -2.3296  0.3516
 5920TIP3   OH239318   6.691   5.203   1.971  0.0081  0.1875 -0.1542
 5920TIP3    H139319   6.641   5.124   1.994  0.2562 -0.0657 -0.4753
 5920TIP3    H239320   6.782   5.174   1.969  0.0980  0.4769 -0.3063
 5921TIP3   OH239321   0.353   5.241   0.488  0.1408 -0.3847  0.4135
 5921TIP3    H139322   0.363   5.313   0.426 -1.1684  0.3160  0.9868
 5921TIP3    H239323   0.430   5.249   0.546  0.2154  0.3032  0.2320
 5922TIP3   OH239324   5.868   5.114   2.804  0.1509 -0.2786 -0.3101
 5922TIP3    H139325   5.793   5.064   2.772 -0.4246 -0.1853  0.8220
 5922TIP3    H239326   5.829   5.178   2.864  1.2026 -0.7409  0.9143
 5923TIP3   OH239327   1.678   3.932   2.261 -0.4640 -0.2178 -0.7246
 5923TIP3    H139328   1.586   3.918   2.285 -0.9432  0.1349 -2.2627
 5923TIP3    H239329   1.723   3.942   2.345 -1.6692 -1.2937  0.0912
 5924TIP3   OH239330   2.079   0.630   2.549  0.5489  0.2611  0.1333
 5924TIP3    H139331   2.024   0.587   2.483  1.3321  1.7433 -1.5528
 5924TIP3    H239332   2.017   0.660   2.616 -0.6232  1.1224 -1.2946
 5925TIP3   OH239333   5.329   2.609   1.976  0.0730  0.1093 -0.6043
 5925TIP3    H139334   5.238   2.587   1.995  0.1065  0.6372  0.2115
 5925TIP3    H239335   5.327   2.651   1.890 -0.5076  0.4592 -0.4233
 5926TIP3   OH239336   1.434   4.815   0.273 -0.6640 -0.1708  0.0756
 5926TIP3    H139337   1.346   4.852   0.265 -0.2569  0.4164 -2.3673
 5926TIP3    H239338   1.422   4.722   0.255 -1.2437 -0.8613  3.3574
 5927TIP3   OH239339   0.195   1.834   0.314 -0.3695  0.1363 -0.0441
 5927TIP3    H139340   0.149   1.856   0.232 -1.3500  0.6043  0.6094
 5927TIP3    H239341   0.221   1.743   0.303  2.7218  1.1308 -2.3431
 5928TIP3   OH239342   3.938   1.972   1.056 -0.0981  0.1663  0.2795
 5928TIP3    H139343   3.847   1.999   1.045 -0.1510  0.1175  0.5787
 5928TIP3    H239344   3.973   1.967   0.967 -0.1933  0.8662  0.1952
 5929TIP3   OH239345   2.766   4.253   3.068  0.3411  0.1454 -0.4076
 5929TIP3    H139346   2.745   4.265   3.161  0.9897 -0.8918 -0.1136
 5929TIP3    H239347   2.784   4.159   3.060  2.5526  0.5818 -1.0984
 5930TIP3   OH239348   1.054   4.589   0.087 -0.4848 -0.7197  0.4684
 5930TIP3    H139349   1.059   4.683   0.066  0.2990 -0.3641  2.1334
 5930TIP3    H239350   0.970   4.561   0.050 -1.4001  0.9624  1.1652
 5931TIP3   OH239351   6.655   4.843   7.637 -0.3587  1.0074 -0.0783
 5931TIP3    H139352   6.600   4.837   7.715 -3.0731  1.2389 -1.8352
 5931TIP3    H239353   6.668   4.937   7.622  1.2035  0.9540  0.6989
 5932TIP3   OH239354   3.391   2.240   1.113  1.1380  0.3361 -0.0629
 5932TIP3    H139355   3.409   2.332   1.095  1.1811  0.1541 -0.9800
 5932TIP3    H239356   3.341   2.241   1.195  2.3453  1.0710  0.6869
 5933TIP3   OH239357   1.057   0.945   0.012 -0.0546  0.0835  0.1919
 5933TIP3    H139358   1.040   0.870   0.069 -0.0764  0.1461  0.2686
 5933TIP3    H239359   0.999   1.013   0.045 -0.8710 -0.2157 -0.6057
 5934TIP3   OH239360   0.974   5.204   0.031  0.6775 -0.7458  0.1950
 5934TIP3    H139361   0.978   5.270   0.100  0.7709 -0.3872 -0.1494
 5934TIP3    H239362   1.051   5.221  -0.023 -0.1289 -0.1367 -0.7844
 5935TIP3   OH239363   5.965   4.651   3.002 -0.1772 -0.0840 -0.0781
 5935TIP3    H139364   6.034   4.703   2.960 -2.0537  0.6550 -2.5401
 5935TIP3    H239365   6.006   4.567   3.021  1.8828  0.9491  0.3429
 5936TIP3   OH239366   5.771   0.951   2.527 -0.2641 -0.2419 -0.3340
 5936TIP3    H139367   5.773   0.856   2.515 -0.7929 -0.1396 -1.4068
 5936TIP3    H239368   5.862   0.978   2.521  0.0779 -0.8400  1.6052
 5937TIP3   OH239369   4.487   0.370   1.827 -0.3709 -0.3662  0.2690
 5937TIP3    H139370   4.570   0.393   1.786 -0.8913 -1.6480 -1.6197
 5937TIP3    H239371   4.431   0.447   1.812  0.0135 -0.0971  0.2019
 5938TIP3   OH239372   6.649   0.244   1.587  0.0819  0.3874 -0.1828
 5938TIP3    H139373   6.601   0.266   1.667  0.2228 -0.5029  0.1529
 5938TIP3    H239374   6.683   0.156   1.603  2.0496  1.0837 -0.3119
 5939TIP3   OH239375   2.431   3.182   1.660  0.1975  0.8337  0.0619
 5939TIP3    H139376   2.508   3.209   1.610  0.1518  0.6606 -0.1014
 5939TIP3    H239377   2.440   3.087   1.669  1.1800  1.0493  1.9885
 5940TIP3   OH239378   6.499   0.986   0.422  0.1849 -0.0512  0.0241
 5940TIP3    H139379   6.425   0.925   0.422 -1.2448  1.5802  1.4305
 5940TIP3    H239380   6.502   1.020   0.333  0.2038 -1.2041 -0.4359
 5941TIP3   OH239381   1.958   0.091   0.487  0.2222 -0.4877  0.1650
 5941TIP3    H139382   2.001   0.051   0.562  1.2206 -0.0573 -0.1683
 5941TIP3    H239383   1.959   0.023   0.420 -1.3286 -1.1337  0.7423
 5942TIP3   OH239384   3.680   4.783   1.592  0.3136 -0.3826  0.2332
 5942TIP3    H139385   3.668   4.800   1.685  1.6248 -1.9111  0.7237
 5942TIP3    H239386   3.612   4.835   1.549 -1.6643 -1.2399  2.1471
 5943TIP3   OH239387   6.768   1.394   0.686 -0.1645 -0.4041 -0.2920
 5943TIP3    H139388   6.847   1.354   0.721 -0.9026 -0.3574  1.5504
 5943TIP3    H239389   6.782   1.396   0.591  2.2495  0.1071  0.0175
 5944TIP3   OH239390   1.332   4.375   7.544  0.0902  0.3511  0.6792
 5944TIP3    H139391   1.388   4.415   7.611  0.1535  0.4089  0.5927
 5944TIP3    H239392   1.393   4.327   7.488  0.1826  1.2211  0.0070
 5945TIP3   OH239393   4.474   3.538   0.333 -0.1419 -0.3269 -0.2435
 5945TIP3    H139394   4.472   3.629   0.304  1.5950  0.1388  0.9061
 5945TIP3    H239395   4.450   3.487   0.255 -2.7444  1.1221 -0.4847
 5946TIP3   OH239396   6.067   0.448   2.844  0.1180  0.4619  0.0219
 5946TIP3    H139397   6.075   0.541   2.869  3.6348  0.4417 -0.4653
 5946TIP3    H239398   6.155   0.412   2.860 -0.9671 -2.6611 -0.4414
 5947TIP3   OH239399   2.014   0.190   8.122 -0.3892 -0.6035 -0.3962
 5947TIP3    H139400   2.079   0.129   8.087 -0.8476 -1.5052  0.3169
 5947TIP3    H239401   2.020   0.266   8.064  1.0533 -0.8143 -0.5486
 5948TIP3   OH239402   5.248   5.909   1.168 -0.1567  0.6082  0.2573
 5948TIP3    H139403   5.299   5.838   1.208 -1.5885 -0.2434  0.6689
 5948TIP3    H239404   5.304   5.943   1.099  0.6431 -0.8393  0.1390
 5949TIP3   OH239405   2.085   5.155   3.087 -0.1591  0.2811 -0.0332
 5949TIP3    H139406   2.157   5.100   3.118 -0.6620 -0.6738 -0.5153
 5949TIP3    H239407   2.048   5.193   3.166  0.7955  0.6914  0.2290
 5950TIP3   OH239408   3.844   6.367   0.668  0.0872 -0.1176  0.2865
 5950TIP3    H139409   3.864   6.287   0.715 -1.1442  0.9209  2.7777
 5950TIP3    H239410   3.750   6.382   0.684 -0.1631  0.8161 -1.7461
 5951TIP3   OH239411   1.513   2.271   0.060  0.0553 -0.4546 -0.6600
 5951TIP3    H139412   1.543   2.182   0.043  1.4888 -0.4117  1.2649
 5951TIP3    H239413   1.593   2.323   0.067 -0.7301  0.8971 -1.1890
 5952TIP3   OH239414   6.761   5.748   7.774 -0.4304  0.2803  0.1330
 5952TIP3    H139415   6.736   5.782   7.688 -1.0720 -0.9353 -0.1855
 5952TIP3    H239416   6.813   5.818   7.813  1.1359  0.2941 -1.8147
 5953TIP3   OH239417   1.961   6.698   1.908  0.4804 -0.3660 -0.1168
 5953TIP3    H139418   2.029   6.752   1.950  2.9043 -1.9839 -1.6806
 5953TIP3    H239419   1.969   6.612   1.951 -1.4937 -0.2651  0.5296
 5954TIP3   OH239420   6.338   3.793   0.911 -0.5869 -0.7219 -0.1829
 5954TIP3    H139421   6.243   3.800   0.906 -0.4524  0.3143 -2.0118
 5954TIP3    H239422   6.367   3.792   0.820  1.2098 -0.2642  0.3414
 5955TIP3   OH239423   1.639   0.827   2.559  0.2592 -0.3406 -0.5063
 5955TIP3    H139424   1.625   0.805   2.651  1.0720  3.2347  0.6161
 5955TIP3    H239425   1.553   0.856   2.528 -0.1713 -2.1723 -1.1622
 5956TIP3   OH239426   1.896   5.474   2.141  0.2434 -0.2087  0.0541
 5956TIP3    H139427   1.973   5.531   2.152 -1.8396  2.6170  1.4285
 5956TIP3    H239428   1.880   5.473   2.047  1.5520 -0.2978 -0.1875
 5957TIP3   OH239429   6.184   5.155   0.380  0.5576  0.5918  0.3023
 5957TIP3    H139430   6.259   5.118   0.426  0.6355  0.2979 -0.0517
 5957TIP3    H239431   6.140   5.080   0.341  0.1974  0.7839  0.3321
 5958TIP3   OH239432   3.611   4.441   8.358 -0.2653  0.4274  0.0894
 5958TIP3    H139433   3.547   4.443   8.286 -1.1564 -1.9627  0.7155
 5958TIP3    H239434   3.642   4.531   8.365 -1.0135  0.9818 -2.5112
 5959TIP3   OH239435   5.219   0.156   0.753 -0.3427  0.5794 -0.0961
 5959TIP3    H139436   5.185   0.243   0.733 -0.5962  0.6093  0.4579
 5959TIP3    H239437   5.292   0.172   0.813  0.3974  0.4879 -0.9558
 5960TIP3   OH239438   0.912   0.781   7.846 -0.6972  0.0039 -0.2075
 5960TIP3    H139439   0.893   0.748   7.933 -0.8431 -0.5761 -0.4549
 5960TIP3    H239440   0.996   0.742   7.822 -0.4502  0.4987 -0.1582
 5961TIP3   OH239441   2.455   6.038   1.266 -0.6770 -0.2753 -0.1145
 5961TIP3    H139442   2.451   6.103   1.337 -1.4492 -0.2403 -0.1840
 5961TIP3    H239443   2.549   6.023   1.253 -0.5432 -1.2562  1.7826
 5962TIP3   OH239444   6.669   6.046   3.580  0.0889 -0.2019  0.2717
 5962TIP3    H139445   6.635   6.000   3.657  2.8490 -0.9305  1.1834
 5962TIP3    H239446   6.715   5.978   3.531  0.6131  0.7681 -0.6122
 5963TIP3   OH239447   5.461   2.225   0.113 -0.2010 -0.2162 -0.1526
 5963TIP3    H139448   5.411   2.188   0.040  0.2799  0.4764 -0.8535
 5963TIP3    H239449   5.552   2.219   0.084  0.0819 -0.8854  0.8442
 5964TIP3   OH239450   4.344   3.150   8.304 -0.2113 -0.0890 -0.0087
 5964TIP3    H139451   4.321   3.193   8.221 -1.7507 -1.1205 -0.1586
 5964TIP3    H239452   4.264   3.155   8.357  0.1834 -1.0133  0.7051
 5965TIP3   OH239453   0.791   6.819   0.994  0.0003  0.1271  0.4186
 5965TIP3    H139454   0.736   6.872   0.936 -0.1582 -0.1804  0.2813
 5965TIP3    H239455   0.790   6.865   1.077 -0.3953  0.1732  0.3926
 5966TIP3   OH239456   1.831   4.696   1.838 -0.9723  0.1581  0.6243
 5966TIP3    H139457   1.760   4.733   1.891 -0.5678  1.7914  0.0868
 5966TIP3    H239458   1.792   4.682   1.752 -1.2670 -1.2449  0.9590
 5967TIP3   OH239459   1.848   0.417   8.420  0.1854 -0.8993  0.1446
 5967TIP3    H139460   1.776   0.474   8.393 -0.4596 -1.9273 -0.3580
 5967TIP3    H239461   1.926   0.470   8.406 -0.3485 -0.3455 -0.8973
 5968TIP3   OH239462   0.705   5.547   2.881  0.0531 -0.1514 -0.0375
 5968TIP3    H139463   0.767   5.580   2.816  2.0219 -2.6520  0.3890
 5968TIP3    H239464   0.700   5.615   2.948  1.0026  0.8171 -0.9155
 5969TIP3   OH239465   2.932   1.192   2.837 -0.1391  0.4286  0.0210
 5969TIP3    H139466   2.871   1.119   2.823 -0.1404  0.6370 -1.1528
 5969TIP3    H239467   3.016   1.150   2.855 -0.5149  0.1421  1.2363
 5970TIP3   OH239468   4.107   0.779   3.603  0.4429 -0.6024 -0.1993
 5970TIP3    H139469   4.033   0.840   3.599  0.9973  0.0315 -1.1037
 5970TIP3    H239470   4.066   0.693   3.616 -0.2718  0.1110  3.3100
 5971TIP3   OH239471   3.149   6.233   7.943  0.1601  0.0598  0.4407
 5971TIP3    H139472   3.178   6.221   7.852 -0.5859  0.2535  0.1667
 5971TIP3    H239473   3.053   6.225   7.938 -0.2625  3.5669  0.6327
 5972TIP3   OH239474   3.319   1.763   1.381 -0.3624 -0.4543 -0.3235
 5972TIP3    H139475   3.390   1.824   1.361 -0.5944  0.7137  2.0067
 5972TIP3    H239476   3.364   1.681   1.404  0.3944  0.4653  1.8128
 5973TIP3   OH239477   5.006   1.247   0.185 -0.2371 -0.1164  0.0789
 5973TIP3    H139478   5.093   1.208   0.191 -0.4138 -0.3096  1.9712
 5973TIP3    H239479   5.019   1.339   0.210 -0.3825  0.1862 -0.9229
 5974TIP3   OH239480   6.881   6.270   0.963 -0.2493  0.4693  0.6003
 5974TIP3    H139481   6.933   6.233   1.035  1.8192  1.7880 -0.1137
 5974TIP3    H239482   6.794   6.232   0.973  1.3617 -3.6974  0.5762
 5975TIP3   OH239483   0.834   6.569   0.939 -0.1937 -0.3382  0.3028
 5975TIP3    H139484   0.797   6.651   0.970  0.8536  0.7102 -1.1307
 5975TIP3    H239485   0.836   6.513   1.017 -1.6629  0.6964  1.1251
 5976TIP3   OH239486   4.285   6.261   7.785  0.0122 -0.3032 -0.5062
 5976TIP3    H139487   4.303   6.341   7.736  1.0918  0.6490  1.3183
 5976TIP3    H239488   4.195   6.273   7.818 -0.3708 -0.5283 -1.4415
 5977TIP3   OH239489   6.157   2.127   0.069 -0.0763  0.9205  0.2779
 5977TIP3    H139490   6.168   2.200   0.131  2.4146  2.0451 -1.3598
 5977TIP3    H239491   6.221   2.062   0.098 -0.9610  0.1536  0.5742
 5978TIP3   OH239492   6.682   5.689   0.772  0.2570 -0.7294 -0.6617
 5978TIP3    H139493   6.720   5.633   0.839 -1.2531 -2.6400 -1.3246
 5978TIP3    H239494   6.693   5.640   0.691  0.1742  0.5969 -1.5061
 5979TIP3   OH239495   2.927   6.132   1.189 -0.0982 -0.4248 -0.3283
 5979TIP3    H139496   2.953   6.051   1.145 -0.5484 -0.7961  0.0753
 5979TIP3    H239497   3.000   6.192   1.174 -0.2299 -0.5515 -1.5427
 5980TIP3   OH239498   1.133   6.952   0.259 -0.5092  0.0611 -0.1289
 5980TIP3    H139499   1.137   7.037   0.215 -1.3953 -0.7300 -1.8277
 5980TIP3    H239500   1.044   6.920   0.242  0.4752 -2.1961 -1.5139
 5981TIP3   OH239501   0.896   0.539   0.731 -0.2544  0.6344  0.2707
 5981TIP3    H139502   0.876   0.629   0.756  0.8210  0.6696  1.0756
 5981TIP3    H239503   0.950   0.505   0.802 -0.2191 -0.4909 -0.2571
 5982TIP3   OH239504   1.930   6.455   2.340 -0.1460 -0.6471 -0.0779
 5982TIP3    H139505   1.886   6.370   2.338 -1.3169 -0.1712  2.0985
 5982TIP3    H239506   2.023   6.435   2.344 -0.4036 -1.8110  0.3036
 5983TIP3   OH239507   5.374   5.886   2.290 -0.2773  0.3730  0.1757
 5983TIP3    H139508   5.430   5.957   2.320 -1.5010  2.0067 -1.1618
 5983TIP3    H239509   5.433   5.826   2.245  0.6508  1.1129  0.3653
 5984TIP3   OH239510   6.400   4.865   0.354 -0.7395  0.0439  0.2352
 5984TIP3    H139511   6.476   4.809   0.366 -2.0497 -2.0613 -0.7127
 5984TIP3    H239512   6.397   4.919   0.433  1.7360  0.2371  0.2539
 5985TIP3   OH239513   0.674   1.538   7.873 -0.0581 -0.3126  0.3559
 5985TIP3    H139514   0.626   1.455   7.869  1.3330 -1.1313  0.2783
 5985TIP3    H239515   0.712   1.539   7.960 -1.6994  1.2180  1.1114
 5986TIP3   OH239516   4.416   0.912   1.527  0.1763 -0.2447 -0.4491
 5986TIP3    H139517   4.417   0.817   1.524 -0.5075 -0.3861  1.6924
 5986TIP3    H239518   4.389   0.933   1.617 -0.2802  1.9659 -1.0274
 5987TIP3   OH239519   4.672   6.441   1.923 -0.1823  0.0299  0.0611
 5987TIP3    H139520   4.605   6.404   1.865  0.4864 -0.4218 -0.4389
 5987TIP3    H239521   4.740   6.373   1.928 -0.1719  0.1056  1.2860
 5988TIP3   OH239522   4.195   4.062   7.698  0.1836 -0.2204  0.0055
 5988TIP3    H139523   4.138   4.116   7.644 -0.0959 -1.7437 -1.3052
 5988TIP3    H239524   4.255   4.124   7.739 -0.8036  1.1708 -0.5724
 5989TIP3   OH239525   6.929   3.617   2.687 -0.9086  0.4858 -0.3359
 5989TIP3    H139526   6.860   3.651   2.744 -1.0040 -1.3677  0.7228
 5989TIP3    H239527   6.902   3.527   2.666  0.6411  0.0901 -0.8044
 5990TIP3   OH239528   1.183   5.867   0.680  0.3832 -0.3356  0.0665
 5990TIP3    H139529   1.107   5.810   0.673  0.4237 -0.1617 -2.8250
 5990TIP3    H239530   1.234   5.830   0.752 -0.4500 -2.8810 -0.5483
 5991TIP3   OH239531   0.010   5.161   1.049  0.2730 -0.2121 -0.7488
 5991TIP3    H139532  -0.066   5.172   0.991  1.0182  1.8181 -1.4234
 5991TIP3    H239533   0.014   5.243   1.098  0.3593 -1.4310  1.3789
 5992TIP3   OH239534   5.144   1.552   8.378 -0.1715  0.3439 -0.0665
 5992TIP3    H139535   5.077   1.488   8.356  0.7602 -0.8312  0.3744
 5992TIP3    H239536   5.103   1.609   8.443 -1.0785  0.3270 -0.6076
 5993TIP3   OH239537   2.671   6.452   2.289  0.3265 -0.5592  0.2777
 5993TIP3    H139538   2.718   6.416   2.364  2.5760  0.3597 -0.5993
 5993TIP3    H239539   2.726   6.431   2.214 -0.2392  1.3292 -0.7244
 5994TIP3   OH239540   6.629   1.254   7.436 -0.4598  0.5693 -0.3612
 5994TIP3    H139541   6.551   1.276   7.385 -1.1567 -0.3687  0.2740
 5994TIP3    H239542   6.611   1.167   7.472  1.0124  0.1884 -0.4594
 5995TIP3   OH239543   4.388   2.399   1.281 -0.2218  0.5323 -0.6859
 5995TIP3    H139544   4.461   2.385   1.221 -0.6273 -2.5501 -0.5936
 5995TIP3    H239545   4.427   2.446   1.355  1.5902 -0.6285 -0.8489
 5996TIP3   OH239546   2.818   3.028   7.581 -0.5548 -0.0025  0.3487
 5996TIP3    H139547   2.906   3.057   7.557 -1.1721  0.5397 -1.3959
 5996TIP3    H239548   2.759   3.094   7.543 -1.7834 -1.1008  0.2527
 5997TIP3   OH239549   2.389   6.876   1.284 -0.0520 -0.0166 -0.4495
 5997TIP3    H139550   2.474   6.868   1.326 -0.4789  1.3468  0.7556
 5997TIP3    H239551   2.402   6.940   1.214  0.3324 -1.2376 -1.5229
 5998TIP3   OH239552   1.610   6.142   2.103  0.2345 -0.0769  0.7042
 5998TIP3    H139553   1.538   6.184   2.056  0.1161 -0.8927  0.1516
 5998TIP3    H239554   1.654   6.215   2.148  1.7173  1.1598 -2.4134
 5999TIP3   OH239555   5.813   6.448   8.191  0.3994 -0.5898 -0.7006
 5999TIP3    H139556   5.845   6.374   8.243 -1.3870  0.1372  1.6139
 5999TIP3    H239557   5.849   6.525   8.236 -0.1839  0.0350 -1.3022
 6000TIP3   OH239558   3.816   0.670   2.484 -1.0679 -0.2286 -0.0462
 6000TIP3    H139559   3.908   0.653   2.462 -1.0862  0.2761 -0.5327
 6000TIP3    H239560   3.776   0.697   2.401 -1.5268  0.1023  0.2767
 6001TIP3   OH239561   6.120   5.964   1.967 -0.2372  0.1532  0.2744
 6001TIP3    H139562   6.210   5.944   1.991  1.2004  1.9897 -2.9339
 6001TIP3    H239563   6.117   6.060   1.961 -2.7943  0.2389  1.4116
 6002TIP3   OH239564   3.235   1.839   7.300  0.5221 -0.1139  0.3704
 6002TIP3    H139565   3.271   1.913   7.253 -0.5235  0.6173  0.6848
 6002TIP3    H239566   3.140   1.852   7.297  0.2957 -1.5739  0.2030
 6003TIP3   OH239567   0.610   0.799   7.536 -0.7011 -0.4900 -0.4199
 6003TIP3    H139568   0.698   0.777   7.503  0.6818  0.3494  2.3902
 6003TIP3    H239569   0.599   0.891   7.514 -0.2286 -0.2126  0.4524
 6004TIP3   OH239570   4.820   6.836   2.811  0.0676 -0.0719  0.5318
 6004TIP3    H139571   4.743   6.780   2.804  0.0439  0.1002 -0.8549
 6004TIP3    H239572   4.836   6.843   2.906 -1.4899 -0.2667  0.8421
 6005TIP3   OH239573   6.677   4.640   1.721  0.0824 -0.1917  0.3083
 6005TIP3    H139574   6.647   4.648   1.812  0.8830 -0.2635  0.5858
 6005TIP3    H239575   6.735   4.715   1.709 -1.3626  0.8133 -0.7010
 6006TIP3   OH239576   5.116   6.360   0.293 -0.0231 -0.5766 -0.3094
 6006TIP3    H139577   5.197   6.399   0.324 -0.9370  0.2839  1.0994
 6006TIP3    H239578   5.078   6.426   0.236  0.1763 -0.9204 -0.8527
 6007TIP3   OH239579   0.294   5.789   0.965  0.1356  0.0507  0.4319
 6007TIP3    H139580   0.341   5.871   0.980 -0.0389  0.1012  0.7172
 6007TIP3    H239581   0.281   5.785   0.870 -0.8390  0.9020  0.5136
 6008TIP3   OH239582   3.306   0.084   2.410  1.0434  0.3238  0.3198
 6008TIP3    H139583   3.314   0.154   2.475 -2.5025  1.0404  0.1834
 6008TIP3    H239584   3.283   0.129   2.329  2.0917 -0.8044 -0.6278
 6009TIP3   OH239585   6.080   2.225   1.634 -0.6348 -0.2543 -0.1759
 6009TIP3    H139586   6.024   2.149   1.621  0.9910 -1.4727 -0.2354
 6009TIP3    H239587   6.062   2.282   1.559 -0.8914 -1.1879 -0.8292
 6010TIP3   OH239588   6.345   5.481   2.355 -0.1950  0.6781  0.1969
 6010TIP3    H139589   6.287   5.419   2.311  1.3150  0.1471 -1.1244
 6010TIP3    H239590   6.362   5.549   2.289  0.4218  0.9997  0.6811
 6011TIP3   OH239591   6.941   6.400   2.859  0.0609 -0.3356 -0.0951
 6011TIP3    H139592   7.026   6.443   2.846  1.2945 -3.1574 -2.5394
 6011TIP3    H239593   6.943   6.369   2.950  1.8487 -0.6846 -0.2180
 6012TIP3   OH239594   2.589   5.090   0.471  0.1579 -0.3302  0.0342
 6012TIP3    H139595   2.536   5.074   0.549 -1.7467  0.7904 -0.9764
 6012TIP3    H239596   2.559   5.025   0.407 -0.2015  0.4800 -0.6368
 6013TIP3   OH239597   3.499   1.833   0.215  0.5724  0.0258 -0.0276
 6013TIP3    H139598   3.454   1.810   0.297 -0.7865  0.2348 -0.6760
 6013TIP3    H239599   3.578   1.780   0.216 -0.7407 -2.0595  0.1760
 6014TIP3   OH239600   5.022   6.063   6.920  0.3368 -0.1549  0.4431
 6014TIP3    H139601   4.985   6.096   7.003 -2.2377 -2.8030  0.5056
 6014TIP3    H239602   4.983   6.119   6.853 -0.0007  0.0924  0.8412
 6015TIP3   OH239603   2.753   2.721   3.189 -0.5026 -0.3717  0.0456
 6015TIP3    H139604   2.723   2.775   3.262 -0.9934 -0.4132 -0.1260
 6015TIP3    H239605   2.727   2.770   3.111 -0.5330 -0.6296 -0.1068
 6016TIP3   OH239606   5.426   3.026   2.767 -0.3762 -0.6710  0.1211
 6016TIP3    H139607   5.382   3.106   2.794 -0.8965 -1.1757  0.7983
 6016TIP3    H239608   5.434   2.974   2.847  2.1507 -0.2890  0.1866
 6017TIP3   OH239609   2.708   6.202   0.323  0.4634  0.0935 -0.0669
 6017TIP3    H139610   2.795   6.216   0.285  0.6869  0.4243  0.5516
 6017TIP3    H239611   2.664   6.144   0.261  1.3047 -0.4951 -0.1217
 6018TIP3   OH239612   1.233   3.900   2.716 -0.1550  0.6615  0.3275
 6018TIP3    H139613   1.240   3.807   2.737  1.4061  0.9782  1.3810
 6018TIP3    H239614   1.139   3.917   2.711 -0.4538 -1.1690 -0.8796
 6019TIP3   OH239615   4.124   2.465   2.121 -0.7027  0.3404 -0.1542
 6019TIP3    H139616   4.108   2.492   2.211  2.3339 -0.2765  0.6728
 6019TIP3    H239617   4.187   2.529   2.087 -0.7073 -0.2585 -1.3665
 6020TIP3   OH239618   6.327   4.200   2.627  0.1641  0.1311 -0.7117
 6020TIP3    H139619   6.390   4.226   2.695  3.0263  0.6098 -3.3279
 6020TIP3    H239620   6.338   4.106   2.619  1.5867  0.3833 -2.0483
 6021TIP3   OH239621   4.178   0.658   7.406  0.2234 -0.3156 -0.0465
 6021TIP3    H139622   4.127   0.723   7.359  0.7799  1.2140  1.3608
 6021TIP3    H239623   4.118   0.622   7.472  0.7726  1.2337  1.3779
 6022TIP3   OH239624   3.451   5.012   1.183 -0.0121 -0.4449 -0.3047
 6022TIP3    H139625   3.391   5.084   1.202 -1.3488 -1.7917  0.7812
 6022TIP3    H239626   3.398   4.948   1.135  0.2101 -2.1034  1.5318
 6023TIP3   OH239627   3.528   2.778   2.357  0.0245  0.2166 -0.1985
 6023TIP3    H139628   3.460   2.787   2.424  0.3662 -2.0700  0.5351
 6023TIP3    H239629   3.480   2.767   2.275 -0.6019 -2.3424  0.4318
 6024TIP3   OH239630   5.300   6.414   0.907 -0.6219 -0.3704 -1.2258
 6024TIP3    H139631   5.211   6.426   0.875 -0.9525 -1.4954 -0.7850
 6024TIP3    H239632   5.296   6.333   0.958 -0.1626  1.3412  1.7458
 6025TIP3   OH239633   5.719   6.973   2.658  0.0358 -0.3472  0.7006
 6025TIP3    H139634   5.746   6.968   2.567 -0.6522  2.3379  0.2738
 6025TIP3    H239635   5.734   6.885   2.693 -0.3827 -1.6493 -2.1725
 6026TIP3   OH239636   1.508   3.217   7.954  0.1886  0.5620  0.4954
 6026TIP3    H139637   1.466   3.249   7.874  2.0892 -0.6854 -1.0879
 6026TIP3    H239638   1.439   3.224   8.021 -2.5821 -1.2558 -1.8877
 6027TIP3   OH239639   3.032   0.762   1.140  0.1608  0.0824 -0.5676
 6027TIP3    H139640   3.062   0.832   1.083  0.0682  0.5590 -0.0399
 6027TIP3    H239641   2.971   0.712   1.086  0.9346 -0.1564 -1.2495
 6028TIP3   OH239642   4.871   2.584   1.455 -0.2497 -0.1908  0.2709
 6028TIP3    H139643   4.815   2.661   1.445 -0.4806 -0.6058 -1.9662
 6028TIP3    H239644   4.918   2.577   1.372  2.2371 -0.5894  1.6036
 6029TIP3   OH239645   6.089   1.450   1.772 -0.0649 -0.0819  0.3300
 6029TIP3    H139646   6.140   1.370   1.784  0.1741  0.0536  0.2192
 6029TIP3    H239647   6.037   1.433   1.693 -1.6407 -0.9754  1.5142
 6030TIP3   OH239648   2.103   6.323   0.864 -0.0420 -0.2396  0.0155
 6030TIP3    H139649   2.145   6.310   0.779  1.1518  1.2619  0.3446
 6030TIP3    H239650   2.158   6.275   0.926  0.3440  0.4697  0.2330
 6031TIP3   OH239651   5.528   2.435   2.046 -0.1588 -0.3152  0.2274
 6031TIP3    H139652   5.447   2.465   2.004 -1.1584  1.1168  2.9682
 6031TIP3    H239653   5.503   2.353   2.089 -0.9130  1.2158  2.9378
 6032TIP3   OH239654   4.667   0.820   1.946  1.1228 -0.0253  0.7915
 6032TIP3    H139655   4.726   0.889   1.975  0.5634  0.3059  1.1610
 6032TIP3    H239656   4.683   0.812   1.852  0.4613  1.3319  0.5359
 6033TIP3   OH239657   6.271   4.320   7.049  0.4185 -0.6662  0.5317
 6033TIP3    H139658   6.244   4.404   7.010 -0.7985  0.3660  3.3188
 6033TIP3    H239659   6.193   4.265   7.042 -0.3731  0.0801  2.7855
 6034TIP3   OH239660   6.209   3.978   2.016 -0.1018 -0.2513 -0.2101
 6034TIP3    H139661   6.157   3.898   2.025  0.1564 -0.4423 -0.4025
 6034TIP3    H239662   6.298   3.951   2.036 -0.0952  0.1052  0.2641
 6035TIP3   OH239663   4.728   6.441   0.688  0.1073  0.1834  0.2711
 6035TIP3    H139664   4.743   6.508   0.621 -3.2278  0.3887 -0.4263
 6035TIP3    H239665   4.663   6.480   0.747 -0.7689 -1.8423  0.7240
 6036TIP3   OH239666   5.456   2.913   0.028 -0.2932  0.6003 -0.7864
 6036TIP3    H139667   5.530   2.967   0.001 -0.6341  0.2600 -2.4714
 6036TIP3    H239668   5.419   2.879  -0.053 -0.8175 -1.2148  0.1423
 6037TIP3   OH239669   6.974   0.833   7.403 -0.2028 -0.0889 -0.1693
 6037TIP3    H139670   6.954   0.797   7.316 -1.4632  2.3823 -1.0220
 6037TIP3    H239671   6.904   0.799   7.459 -0.8661  0.2774 -0.7471
 6038TIP3   OH239672   0.134   4.704   3.393  0.2929 -0.6128 -0.0761
 6038TIP3    H139673   0.049   4.697   3.349 -0.4079 -1.3759  1.3231
 6038TIP3    H239674   0.119   4.765   3.465  1.5061  0.8627 -1.0068
 6039TIP3   OH239675   4.071   3.886   1.282  0.4114  0.4783  0.1910
 6039TIP3    H139676   4.048   3.962   1.335 -1.1502 -0.4206  0.8784
 6039TIP3    H239677   4.150   3.851   1.323  0.6823  1.2517  0.3505
 6040TIP3   OH239678   2.200   5.466   1.398 -0.1160  0.2188 -0.6894
 6040TIP3    H139679   2.235   5.388   1.441 -2.7780  1.2404  3.8783
 6040TIP3    H239680   2.250   5.538   1.435 -1.5453  1.0675 -0.3583
 6041TIP3   OH239681   3.182   6.063   0.444  0.3436 -0.9756  0.3813
 6041TIP3    H139682   3.139   6.055   0.529 -2.4198  0.0157 -0.8091
 6041TIP3    H239683   3.200   6.157   0.434 -1.9571 -0.6188 -1.2000
 6042TIP3   OH239684   5.881   3.146   0.612 -0.0375 -0.2987 -0.0448
 6042TIP3    H139685   5.832   3.217   0.569  0.0725  0.2211  0.6622
 6042TIP3    H239686   5.813   3.096   0.657  0.0762  0.5478  1.1126
 6043TIP3   OH239687   0.448   6.918   0.372 -0.4978 -0.2162 -0.2962
 6043TIP3    H139688   0.492   6.834   0.356 -0.4591 -0.4134  0.7889
 6043TIP3    H239689   0.442   6.925   0.467 -0.7811  0.8754 -0.3757
 6044TIP3   OH239690   6.656   4.397   1.378 -0.0840 -0.6136 -0.6792
 6044TIP3    H139691   6.674   4.485   1.344 -2.4298  0.5163  0.7728
 6044TIP3    H239692   6.573   4.372   1.336 -1.2702 -0.5964  1.5311
 6045TIP3   OH239693   5.863   2.615   0.258  0.0193 -0.2173 -0.9629
 6045TIP3    H139694   5.894   2.705   0.267 -1.1671  0.2362 -1.2271
 6045TIP3    H239695   5.931   2.562   0.301  0.2337  0.8776  0.1184
 6046TIP3   OH239696   3.924   1.580   2.425 -0.1594  0.7972  0.1379
 6046TIP3    H139697   3.877   1.507   2.384 -0.8485  1.0266  0.4919
 6046TIP3    H239698   3.988   1.607   2.360  1.4333 -1.3461  0.7090
 6047TIP3   OH239699   0.396   2.414   3.189  0.2596  0.8048  0.3108
 6047TIP3    H139700   0.420   2.501   3.157  1.2862  1.0717  1.7281
 6047TIP3    H239701   0.378   2.363   3.109 -0.2631  2.2640 -0.5417
 6048TIP3   OH239702   6.377   2.862   2.319  0.0024  0.3314 -0.6855
 6048TIP3    H139703   6.438   2.934   2.304 -0.8916  0.7804 -2.3833
 6048TIP3    H239704   6.417   2.811   2.390  1.2072  1.8549 -0.2089
 6049TIP3   OH239705   3.555   4.676   0.061 -0.5644  0.4620  0.3164
 6049TIP3    H139706   3.506   4.643   0.136  1.6110  1.1867  2.2018
 6049TIP3    H239707   3.518   4.762   0.044  0.4965  1.3764  2.2905
 6050TIP3   OH239708   0.152   3.819   0.698 -0.1775 -0.0247  0.1078
 6050TIP3    H139709   0.228   3.876   0.687  0.6459 -0.9613  0.8367
 6050TIP3    H239710   0.149   3.800   0.792  0.2100 -2.0316 -0.2473
 6051TIP3   OH239711   3.886   0.987   1.478 -0.0297 -0.2767 -0.0035
 6051TIP3    H139712   3.922   0.990   1.567  0.0123  0.8801 -0.0365
 6051TIP3    H239713   3.820   0.919   1.481 -0.3119  0.0206  1.0392
 6052TIP3   OH239714   1.545   1.773   2.514 -0.1122 -0.7425 -0.3349
 6052TIP3    H139715   1.609   1.703   2.497 -1.2335 -1.7433 -0.5930
 6052TIP3    H239716   1.550   1.829   2.437  0.3434 -0.8907 -0.4215
 6053TIP3   OH239717   2.968   3.819   8.371 -0.4008  0.7408 -0.0118
 6053TIP3    H139718   2.949   3.738   8.418 -0.3941  1.3765  1.1201
 6053TIP3    H239719   2.883   3.850   8.341 -0.3725  0.1807 -0.6862
 6054TIP3   OH239720   1.481   4.914   1.367 -0.3421 -0.1306  0.3117
 6054TIP3    H139721   1.475   4.947   1.457 -1.5654 -0.4410  0.3646
 6054TIP3    H239722   1.447   4.985   1.313  0.2064 -0.0207  0.1063
 6055TIP3   OH239723   4.850   3.561   0.912 -0.1380  0.4177  0.3945
 6055TIP3    H139724   4.821   3.474   0.887  0.1804  0.0021  1.4020
 6055TIP3    H239725   4.865   3.607   0.829 -2.2105  0.1760 -0.1551
 6056TIP3   OH239726   6.405   4.897   7.877 -0.2922 -0.5043  0.1358
 6056TIP3    H139727   6.393   4.964   7.944 -0.6963  0.1644 -0.5785
 6056TIP3    H239728   6.344   4.922   7.807  1.1024 -0.3720 -1.0859
 6057TIP3   OH239729   6.503   0.116   8.066  0.0565 -0.3009 -0.0446
 6057TIP3    H139730   6.435   0.075   8.012 -0.0125 -0.5682  0.2430
 6057TIP3    H239731   6.455   0.160   8.136  0.1265  0.3391 -0.3906
 6058TIP3   OH239732   0.759   1.745   1.786 -0.3823  0.1260 -0.2127
 6058TIP3    H139733   0.691   1.792   1.739 -0.7130  0.3345  0.4596
 6058TIP3    H239734   0.805   1.813   1.837 -1.3767 -0.3449  1.3941
 6059TIP3   OH239735   1.844   6.515   2.672  0.0207 -0.2006 -1.0435
 6059TIP3    H139736   1.841   6.522   2.577  0.0870 -1.9592 -1.2080
 6059TIP3    H239737   1.791   6.438   2.692  0.5571 -0.2467  0.2875
 6060TIP3   OH239738   4.019   3.731   8.341 -0.3841  0.4940  0.0345
 6060TIP3    H139739   4.017   3.789   8.417 -0.8178  0.0051  0.3975
 6060TIP3    H239740   4.027   3.791   8.266  1.1097  0.9246  0.5143
 6061TIP3   OH239741   1.184   0.612   1.346  0.1195  0.1734  0.3604
 6061TIP3    H139742   1.190   0.694   1.298  1.3790  0.3849  0.8636
 6061TIP3    H239743   1.181   0.545   1.277  3.5317  0.3457 -0.1215
 6062TIP3   OH239744   0.669   1.725   2.789 -0.2902 -0.3239 -0.1101
 6062TIP3    H139745   0.605   1.699   2.723  1.0944 -0.2119 -1.5781
 6062TIP3    H239746   0.645   1.815   2.811 -1.4290 -0.7331  0.4052
 6063TIP3   OH239747   1.026   1.525   2.211 -0.1711  0.4693  0.0284
 6063TIP3    H139748   0.964   1.516   2.139 -0.5114 -0.0196  0.3757
 6063TIP3    H239749   0.978   1.573   2.278  0.2380  1.1740 -0.1755
 6064TIP3   OH239750   5.768   0.349   0.516  0.1718 -0.5208 -0.0058
 6064TIP3    H139751   5.826   0.287   0.472 -0.8524 -2.1514  0.8364
 6064TIP3    H239752   5.685   0.342   0.469 -0.1993 -0.4307  0.6181
 6065TIP3   OH239753   6.101   1.301   7.875  0.7775  0.7084  0.3612
 6065TIP3    H139754   6.030   1.314   7.812 -1.0395 -1.1830  1.8913
 6065TIP3    H239755   6.067   1.337   7.957  0.1971 -2.9016  1.8763
 6066TIP3   OH239756   1.041   1.851   0.144 -0.3202  0.5778  0.0414
 6066TIP3    H139757   1.065   1.765   0.179 -0.4320  0.0199 -1.2225
 6066TIP3    H239758   0.982   1.888   0.211 -0.5328 -0.4609  0.4489
 6067TIP3   OH239759   5.989   1.967   7.762  0.8290  0.0736  0.0894
 6067TIP3    H139760   5.991   1.874   7.740 -2.0836  0.2945 -1.5313
 6067TIP3    H239761   6.018   1.970   7.853 -0.6932 -2.6670  0.7966
 6068TIP3   OH239762   1.408   1.047   1.205  0.0046 -0.4080 -0.2324
 6068TIP3    H139763   1.497   1.015   1.222  0.2418  0.4349  0.1675
 6068TIP3    H239764   1.421   1.131   1.161 -0.5829  0.0002  0.3539
 6069TIP3   OH239765   6.773   0.240   8.186  0.3717  0.0532  0.0506
 6069TIP3    H139766   6.679   0.231   8.170 -0.0236  0.5568  1.8515
 6069TIP3    H239767   6.803   0.305   8.123 -0.4339 -0.2625 -0.6743
 6070TIP3   OH239768   1.460   0.640   0.720  0.3310  0.1158  0.2531
 6070TIP3    H139769   1.545   0.634   0.764  0.4388  0.8688  0.1447
 6070TIP3    H239770   1.405   0.690   0.781  0.2556  0.4911 -0.1210
 6071TIP3   OH239771   1.360   2.430   1.823  0.6867 -0.2516  0.3827
 6071TIP3    H139772   1.398   2.469   1.901  0.7337 -1.1513  0.8166
 6071TIP3    H239773   1.376   2.336   1.832 -1.2622 -0.6351  0.3897
 6072TIP3   OH239774   2.368   5.653   3.139  0.0303  0.3357  0.0791
 6072TIP3    H139775   2.410   5.591   3.081  0.5686  0.0449  0.7707
 6072TIP3    H239776   2.394   5.626   3.227 -1.4820  0.2211  0.5292
 6073TIP3   OH239777   5.399   6.296   8.146 -0.0197  0.2709  0.2419
 6073TIP3    H139778   5.359   6.377   8.113 -0.4345 -0.5005 -1.2332
 6073TIP3    H239779   5.475   6.326   8.197  2.3663  1.5772 -3.6170
 6074TIP3   OH239780   4.677   6.354   8.391  0.2659  0.7830 -0.1754
 6074TIP3    H139781   4.595   6.390   8.425 -0.2578 -0.1442 -0.4328
 6074TIP3    H239782   4.650   6.282   8.335  1.3618 -2.7181  3.3517
 6075TIP3   OH239783   2.594   2.811   2.948  0.4447  0.5836  0.4442
 6075TIP3    H139784   2.507   2.843   2.926  0.5761  0.5688 -0.1074
 6075TIP3    H239785   2.626   2.872   3.014 -0.3210  0.0824  1.2904
 6076TIP3   OH239786   1.840   6.101   8.424 -0.4217  0.1432 -0.7082
 6076TIP3    H139787   1.829   6.177   8.482  0.9046  1.8251 -2.5170
 6076TIP3    H239788   1.797   6.128   8.342  0.6342 -0.7836 -1.5953
 6077TIP3   OH239789   1.975   1.341   1.696 -0.0199  0.1764 -0.4626
 6077TIP3    H139790   2.009   1.270   1.643 -0.6089  0.5449 -1.3706
 6077TIP3    H239791   1.982   1.310   1.786  0.3487 -0.7517 -0.8001
 6078TIP3   OH239792   0.985   4.098   1.708 -0.5800 -0.1599 -0.0556
 6078TIP3    H139793   0.999   4.004   1.714 -0.0288 -0.2071 -1.7063
 6078TIP3    H239794   1.038   4.134   1.780 -0.4549 -1.0600  0.3231
 6079TIP3   OH239795   5.673   6.837   7.654 -0.2109 -0.5092  0.0128
 6079TIP3    H139796   5.687   6.868   7.744  0.5277 -3.7225  1.1300
 6079TIP3    H239797   5.675   6.917   7.601 -1.4622  1.6197  2.8734
 6080TIP3   OH239798   3.162   5.963   2.512 -0.1553 -0.6220  0.2028
 6080TIP3    H139799   3.156   5.915   2.429 -0.0642  0.9431 -0.7479
 6080TIP3    H239800   3.228   5.917   2.562  2.2091  0.2381 -1.9167
 6081TIP3   OH239801   6.536   1.494   0.561 -0.5647 -0.4668 -0.2459
 6081TIP3    H139802   6.578   1.438   0.627  1.3144  1.5516  0.3774
 6081TIP3    H239803   6.603   1.507   0.495 -1.0220  0.8790 -0.4683
 6082TIP3   OH239804   2.845   2.160   0.255  0.4210 -0.0594  0.0574
 6082TIP3    H139805   2.756   2.197   0.249 -0.0205 -1.1741 -0.5616
 6082TIP3    H239806   2.899   2.233   0.285  0.1535  2.1194 -4.0580
 6083TIP3   OH239807   5.736   4.632   7.843  0.3618  0.4956  0.3434
 6083TIP3    H139808   5.659   4.615   7.898  0.6318 -2.0646  0.0191
 6083TIP3    H239809   5.730   4.726   7.822 -1.9373  0.6439  1.4044
 6084TIP3   OH239810   1.757   6.978   0.087 -0.0951 -0.1826  0.5632
 6084TIP3    H139811   1.777   7.034   0.012 -0.8672  0.0518  0.5262
 6084TIP3    H239812   1.680   7.019   0.128  0.5206 -0.1052  1.6856
 6085TIP3   OH239813   4.371   2.308   7.434  0.1432  0.5368  0.2533
 6085TIP3    H139814   4.285   2.268   7.419  1.0301 -0.5803 -2.3637
 6085TIP3    H239815   4.367   2.391   7.386 -0.4840  2.1074  2.8074
 6086TIP3   OH239816   0.709   1.928   3.114  0.2420 -0.1565  0.5445
 6086TIP3    H139817   0.751   1.981   3.183 -0.5076  0.1316  0.7941
 6086TIP3    H239818   0.758   1.846   3.114 -0.1624 -0.4244  1.8990
 6087TIP3   OH239819   4.742   1.374   7.337 -0.1787  0.0685  0.2586
 6087TIP3    H139820   4.667   1.333   7.379 -1.0168  1.3158  0.0395
 6087TIP3    H239821   4.710   1.400   7.250 -0.0779  2.2006  0.7979
 6088TIP3   OH239822   0.574   6.237   7.465 -0.0099 -0.1532 -0.4920
 6088TIP3    H139823   0.540   6.151   7.441  1.6582 -0.7568 -0.8209
 6088TIP3    H239824   0.669   6.224   7.476 -0.0439  1.0647  2.0607
 6089TIP3   OH239825   1.765   0.260   0.743 -0.0067 -0.4261  0.3586
 6089TIP3    H139826   1.701   0.201   0.782  0.2167 -1.0747 -0.2171
 6089TIP3    H239827   1.801   0.309   0.817 -0.7835 -0.4270  0.7477
 6090TIP3   OH239828   1.441   2.161   1.900 -1.1076 -0.1004 -0.2743
 6090TIP3    H139829   1.520   2.119   1.933 -0.7515  0.7355 -0.0122
 6090TIP3    H239830   1.391   2.091   1.859 -0.1587 -0.6115 -0.5759
 6091TIP3   OH239831   3.500   5.797   1.397 -0.1593 -0.0449 -0.4044
 6091TIP3    H139832   3.418   5.840   1.420 -0.3436  0.3437 -1.6876
 6091TIP3    H239833   3.536   5.766   1.480 -1.6911 -0.3857  0.1560
 6092TIP3   OH239834   1.719   4.912   0.358 -0.0520 -0.1169  0.2463
 6092TIP3    H139835   1.711   4.989   0.414 -0.1984  0.7052 -0.8680
 6092TIP3    H239836   1.629   4.885   0.340  0.0001 -0.5927  0.6911
 6093TIP3   OH239837   4.325   0.339   0.517 -0.1892 -0.0959  0.2919
 6093TIP3    H139838   4.273   0.259   0.511 -0.1440 -0.0851 -0.3667
 6093TIP3    H239839   4.375   0.329   0.598 -1.2399 -0.0855  0.9463
 6094TIP3   OH239840   0.115   2.752   1.959  0.0517 -0.6985 -0.1716
 6094TIP3    H139841   0.027   2.760   1.923  0.4846 -1.5951 -1.5143
 6094TIP3    H239842   0.102   2.721   2.049 -0.9953 -1.0440 -0.4304
 6095TIP3   OH239843   2.825   0.283   1.751 -0.0560 -0.5506 -0.7608
 6095TIP3    H139844   2.860   0.195   1.770  0.4782 -0.6758 -2.2081
 6095TIP3    H239845   2.869   0.340   1.814  1.8157 -0.9125 -1.6833
 6096TIP3   OH239846   5.812   3.178   1.595 -0.5386 -0.2977 -0.2960
 6096TIP3    H139847   5.868   3.255   1.592 -0.8100 -0.0934 -0.2098
 6096TIP3    H239848   5.774   3.179   1.683 -2.8994  1.1953 -1.2154
 6097TIP3   OH239849   6.070   6.021   0.911  0.3477 -0.2557 -0.0494
 6097TIP3    H139850   6.105   6.040   0.824  0.5250  0.5452  0.1884
 6097TIP3    H239851   6.123   6.075   0.970 -1.0606  0.7320  0.3551
 6098TIP3   OH239852   1.967   6.743   2.750  0.1494  0.0231 -0.4624
 6098TIP3    H139853   1.975   6.719   2.842 -1.8664  0.1864 -0.1978
 6098TIP3    H239854   1.940   6.662   2.706 -0.2561  0.2612 -0.6629
 6099TIP3   OH239855   1.160   3.915   8.126  0.7067  0.0079 -0.4357
 6099TIP3    H139856   1.227   3.972   8.166 -0.8919  0.2594  2.1693
 6099TIP3    H239857   1.187   3.906   8.035  2.8376  2.2316 -0.1359
 6100TIP3   OH239858   6.335   5.189   2.055 -0.7628 -0.2694  0.2161
 6100TIP3    H139859   6.267   5.236   2.103 -0.8760  0.6221 -0.7856
 6100TIP3    H239860   6.414   5.199   2.108 -0.1161  3.3706 -1.1599
 6101TIP3   OH239861   5.797   6.010   1.807  0.1925  0.2277 -0.3793
 6101TIP3    H139862   5.795   5.970   1.720  0.2251  1.8776 -1.1663
 6101TIP3    H239863   5.889   6.030   1.823  0.3629 -1.1473  0.5877
 6102TIP3   OH239864   3.073   3.277   7.961 -0.0186  0.1905  0.3330
 6102TIP3    H139865   3.144   3.215   7.947 -1.7963 -1.8605 -0.2417
 6102TIP3    H239866   3.035   3.290   7.874 -2.1384 -1.1764  0.9488
 6103TIP3   OH239867   6.947   2.039   0.491  0.0270 -0.5350  0.6429
 6103TIP3    H139868   6.885   2.050   0.418  0.3885 -0.0952  0.3963
 6103TIP3    H239869   6.902   2.080   0.566  0.9547  1.9721 -0.0562
 6104TIP3   OH239870   2.119   5.278   7.299 -0.1924  0.0221  0.6832
 6104TIP3    H139871   2.188   5.246   7.358  0.2441  3.3743  2.1971
 6104TIP3    H239872   2.058   5.325   7.356 -2.0924 -0.1904 -1.0529
 6105TIP3   OH239873   3.139   6.322   2.650 -0.0634 -0.6769  0.3098
 6105TIP3    H139874   3.118   6.354   2.737 -1.1151  0.2059 -0.2413
 6105TIP3    H239875   3.122   6.397   2.592  0.5776 -1.2520 -0.6539
 6106TIP3   OH239876   0.434   5.622   2.146  0.4055  0.5692 -0.0883
 6106TIP3    H139877   0.491   5.559   2.102  1.0484  0.9018  0.2410
 6106TIP3    H239878   0.491   5.698   2.161 -0.3080  1.1550 -0.3218
 6107TIP3   OH239879   5.904   4.998   2.226  0.5358  0.0054 -0.6839
 6107TIP3    H139880   5.988   4.999   2.271  0.5652 -1.5666 -0.6412
 6107TIP3    H239881   5.843   5.036   2.290  1.0508  0.3411 -0.3816
 6108TIP3   OH239882   2.845   2.474   2.901  0.3756  0.5429  0.7052
 6108TIP3    H139883   2.916   2.535   2.878 -0.9721  2.2910  0.9713
 6108TIP3    H239884   2.871   2.438   2.986  1.5956  0.0757  0.1614
 6109TIP3   OH239885   2.484   2.543   2.055  0.2286  0.2797 -0.1221
 6109TIP3    H139886   2.525   2.598   2.121 -0.5881 -0.6347  1.1869
 6109TIP3    H239887   2.508   2.454   2.079  0.6918 -0.0267 -1.6183
 6110TIP3   OH239888   1.770   2.340   7.295 -0.7001 -0.0187 -0.0742
 6110TIP3    H139889   1.811   2.378   7.216 -0.6500  0.1654  0.0396
 6110TIP3    H239890   1.713   2.271   7.261  2.3791 -2.8093 -0.0523
 6111TIP3   OH239891   2.570   4.142   3.564  0.2998  0.1508 -0.8446
 6111TIP3    H139892   2.512   4.067   3.574  0.9359 -0.3530 -0.8296
 6111TIP3    H239893   2.547   4.201   3.637  0.1658 -0.2824 -0.5354
 6112TIP3   OH239894   6.862   3.665   1.560 -0.4429 -0.3093  0.3808
 6112TIP3    H139895   6.850   3.571   1.547  1.9278 -0.5244 -0.7391
 6112TIP3    H239896   6.921   3.673   1.635  0.5167  0.1993 -0.4050
 6113TIP3   OH239897   3.935   4.505   7.489 -0.4196 -0.0107  0.3393
 6113TIP3    H139898   3.938   4.589   7.533 -0.7894 -0.0023  0.3537
 6113TIP3    H239899   3.863   4.513   7.426 -1.4939 -0.8162  1.3987
 6114TIP3   OH239900   1.290   5.709   7.187  0.0000 -0.1113 -0.9757
 6114TIP3    H139901   1.371   5.750   7.156  0.6210 -0.8388 -0.3692
 6114TIP3    H239902   1.299   5.617   7.162 -0.5977 -0.2154 -0.8118
 6115TIP3   OH239903   6.779   0.797   0.294  0.5075  0.3434 -0.2030
 6115TIP3    H139904   6.839   0.723   0.281 -0.1139 -0.0188 -1.1222
 6115TIP3    H239905   6.763   0.798   0.389  3.0253  1.3107  0.2764
 6116TIP3   OH239906   1.286   5.270   7.820 -0.0537  0.0207  0.1565
 6116TIP3    H139907   1.203   5.245   7.780 -0.4896 -1.0530  1.6706
 6116TIP3    H239908   1.352   5.243   7.755 -0.7282 -1.7898  0.1496
 6117TIP3   OH239909   4.831   4.416   0.132  0.3660 -0.7103  0.6891
 6117TIP3    H139910   4.870   4.494   0.091  0.0582  0.1505  1.9531
 6117TIP3    H239911   4.880   4.343   0.095  0.6810  0.0800 -0.5271
 6118TIP3   OH239912   3.241   4.836   0.694 -0.1933  0.3601  0.0704
 6118TIP3    H139913   3.283   4.760   0.654  0.5171  0.4169  0.6760
 6118TIP3    H239914   3.164   4.802   0.738 -1.3950  0.3934 -1.9079
 6119TIP3   OH239915   0.192   0.212   8.201 -0.8135 -0.7696  0.2536
 6119TIP3    H139916   0.202   0.142   8.265 -0.1274 -0.9544 -0.0458
 6119TIP3    H239917   0.162   0.287   8.252  1.1518 -0.4703  1.0729
 6120TIP3   OH239918   5.168   1.161   7.632 -0.7836  0.3662  0.2783
 6120TIP3    H139919   5.125   1.084   7.594 -0.0117 -0.3258  0.7805
 6120TIP3    H239920   5.198   1.132   7.718  1.3303  0.5853 -0.3470
 6121TIP3   OH239921   5.100   1.375   2.169 -0.0871 -0.0473  0.5540
 6121TIP3    H139922   5.158   1.445   2.138 -0.8154 -0.3271 -1.6171
 6121TIP3    H239923   5.017   1.418   2.186 -1.3690 -0.5795 -3.3119
 6122TIP3   OH239924   0.808   2.344   0.781 -0.6687  0.0891 -0.3542
 6122TIP3    H139925   0.766   2.417   0.736 -1.3485 -0.8233 -1.2480
 6122TIP3    H239926   0.810   2.370   0.873 -2.3922  0.5544 -0.4189
 6123TIP3   OH239927   3.345   5.922   2.736  0.1101 -0.6514  0.1418
 6123TIP3    H139928   3.284   5.957   2.802 -0.1235  1.0036 -0.8747
 6123TIP3    H239929   3.380   6.000   2.692  1.3047 -1.6530 -0.7748
 6124TIP3   OH239930   0.649   4.214   7.144  0.5521  0.1725 -0.0770
 6124TIP3    H139931   0.611   4.128   7.124 -0.8197  1.0053 -1.3229
 6124TIP3    H239932   0.734   4.195   7.182  0.2114 -1.7440 -0.1749
 6125TIP3   OH239933   1.100   5.328   0.504  0.1276 -0.2166 -0.0778
 6125TIP3    H139934   1.063   5.366   0.425 -0.5162 -1.4284 -0.3944
 6125TIP3    H239935   1.170   5.388   0.530  0.3552  0.1985 -1.5661
 6126TIP3   OH239936   2.113   0.021   2.717 -0.5467  0.3842  0.3270
 6126TIP3    H139937   2.105  -0.039   2.643 -0.2622 -0.2544  0.7962
 6126TIP3    H239938   2.124  -0.037   2.793 -0.8722  1.0220  0.8714
 6127TIP3   OH239939   5.891   2.275   0.232  0.2101  0.1233 -0.2356
 6127TIP3    H139940   5.971   2.322   0.258 -0.9909  1.5159  1.1721
 6127TIP3    H239941   5.860   2.322   0.154 -0.2912  0.8804  0.4064
 6128TIP3   OH239942   2.634   0.841   8.411 -0.2100  0.0291 -0.6359
 6128TIP3    H139943   2.681   0.830   8.329 -1.7189 -0.1010 -1.5262
 6128TIP3    H239944   2.634   0.935   8.427  1.3894 -0.0571  0.0475
 6129TIP3   OH239945   2.093   1.988   7.686  0.5520 -0.0945  0.3482
 6129TIP3    H139946   2.074   2.075   7.721 -2.9546 -0.9450  0.9411
 6129TIP3    H239947   2.011   1.960   7.644  1.9971 -2.5541 -1.1185
 6130TIP3   OH239948   3.595   0.627   1.149 -0.5534 -0.1271  0.3114
 6130TIP3    H139949   3.508   0.659   1.173 -0.4542  0.2557  0.1588
 6130TIP3    H239950   3.655   0.670   1.210 -0.5338 -0.9105  0.8589
 6131TIP3   OH239951   0.680   4.004   2.688 -0.2547  0.3121  0.2030
 6131TIP3    H139952   0.764   4.036   2.655  0.8237 -1.1635  1.4010
 6131TIP3    H239953   0.622   4.007   2.613  0.8240  1.4900 -0.6211
 6132TIP3   OH239954   3.740   5.872   8.161  0.0865  0.0991  0.3791
 6132TIP3    H139955   3.738   5.848   8.068 -1.0759 -1.9074  0.8521
 6132TIP3    H239956   3.657   5.918   8.175 -0.6381 -1.2722  0.7762
 6133TIP3   OH239957   6.274   5.929   8.380 -0.1104 -0.0833  0.3428
 6133TIP3    H139958   6.354   5.898   8.337  0.0301 -1.4017  1.4648
 6133TIP3    H239959   6.215   5.853   8.377  0.7350 -1.1604  4.4263
 6134TIP3   OH239960   0.453   2.240   0.971  0.1068  0.1128  0.1265
 6134TIP3    H139961   0.442   2.233   0.876 -0.8732 -0.6041  0.2749
 6134TIP3    H239962   0.405   2.320   0.995  0.2758  0.2431  0.0275
 6135TIP3   OH239963   3.037   2.004   0.153  0.0793 -1.0272  0.1042
 6135TIP3    H139964   2.959   2.036   0.199  0.0751  0.1817 -0.7078
 6135TIP3    H239965   3.107   2.010   0.217 -0.0341  0.1257  0.1387
 6136TIP3   OH239966   3.529   1.489   2.366 -0.0562 -0.3865 -0.3401
 6136TIP3    H139967   3.502   1.559   2.425  1.4406 -0.3348  0.3533
 6136TIP3    H239968   3.448   1.448   2.338 -0.8974  0.8659  0.1877
 6137TIP3   OH239969   4.971   6.670   0.861 -0.1562  0.9635  0.3811
 6137TIP3    H139970   5.055   6.711   0.843  0.0962  1.1067  1.7778
 6137TIP3    H239971   4.939   6.714   0.939  0.6925 -2.1977  2.6981
 6138TIP3   OH239972   6.683   5.272   2.828 -0.3148  0.2220  0.4527
 6138TIP3    H139973   6.645   5.230   2.751 -0.2691 -0.4482  0.7972
 6138TIP3    H239974   6.664   5.213   2.901  0.2678  0.5037  0.8421
 6139TIP3   OH239975   2.734   0.911   2.266  0.5113 -0.1257  0.1297
 6139TIP3    H139976   2.767   0.990   2.224 -0.3126  0.8080  1.1898
 6139TIP3    H239977   2.668   0.877   2.205  0.7185  0.1091 -0.2285
 6140TIP3   OH239978   5.212   4.882   1.380 -0.4361 -0.3467 -0.4278
 6140TIP3    H139979   5.185   4.790   1.384 -0.0974 -0.4801 -1.0245
 6140TIP3    H239980   5.185   4.919   1.464 -1.3345 -0.7799 -0.5200
 6141TIP3   OH239981   5.977   1.254   0.863 -0.5595  0.1376 -0.3647
 6141TIP3    H139982   5.982   1.190   0.793  0.1732  0.5406 -0.6871
 6141TIP3    H239983   6.052   1.235   0.919 -0.6195  0.4053 -0.1886
 6142TIP3   OH239984   2.167   4.805   0.735 -0.2611 -0.0258 -0.5605
 6142TIP3    H139985   2.154   4.849   0.820 -1.0875 -0.9017 -0.2077
 6142TIP3    H239986   2.226   4.732   0.755 -0.7227 -0.4328 -0.6559
 6143TIP3   OH239987   0.916   6.648   1.295  0.2683  0.3958  0.3039
 6143TIP3    H139988   0.940   6.636   1.387  0.7828 -1.1194  0.0029
 6143TIP3    H239989   0.886   6.561   1.267 -1.6169  1.2422 -0.4919
 6144TIP3   OH239990   6.762   4.907   7.220  0.0914 -0.3161  0.3690
 6144TIP3    H139991   6.705   4.831   7.206  1.0811 -0.7337 -1.8780
 6144TIP3    H239992   6.702   4.982   7.220 -0.7249 -0.9388  0.9806
 6145TIP3   OH239993   6.405   4.121   0.846 -0.1923  0.2796  0.0907
 6145TIP3    H139994   6.398   4.067   0.926  1.3037  2.7132  1.9978
 6145TIP3    H239995   6.462   4.070   0.788  1.3186 -0.2270  1.8959
 6146TIP3   OH239996   4.507   1.031   1.283  0.0156  0.4838  0.4971
 6146TIP3    H139997   4.452   1.096   1.241 -0.8635 -0.2768  0.4413
 6146TIP3    H239998   4.461   1.009   1.364  0.4604  0.1571  0.6672
 6147TIP3   OH239999   1.715   6.785   8.191 -0.1334  0.1621 -0.1093
 6147TIP3    H140000   1.644   6.723   8.178 -1.4187  1.6590 -0.6586
 6147TIP3    H240001   1.777   6.767   8.121 -1.6933  1.0394 -1.7949
 6148TIP3   OH240002   0.418   3.620   7.315 -0.1405 -0.0961  0.8043
 6148TIP3    H140003   0.381   3.673   7.244 -0.4256  0.5922  1.4562
 6148TIP3    H240004   0.417   3.531   7.280  0.0982  0.2776 -0.2087
 6149TIP3   OH240005   0.494   5.388   0.845 -0.0977 -0.0016 -0.2997
 6149TIP3    H140006   0.457   5.417   0.929  0.9621  1.2937 -0.2527
 6149TIP3    H240007   0.523   5.298   0.862 -1.4187 -0.3532  0.2142
 6150TIP3   OH240008   5.414   1.539   0.734 -0.0089 -0.2332  0.5736
 6150TIP3    H140009   5.351   1.478   0.772 -2.4371  1.2749 -0.7705
 6150TIP3    H240010   5.401   1.620   0.783 -0.7342  0.7244 -1.1149
 6151TIP3   OH240011   5.684   4.767   0.139  0.0336  0.1971 -0.2260
 6151TIP3    H140012   5.649   4.843   0.187  0.4375  1.9722 -2.5620
 6151TIP3    H240013   5.653   4.780   0.050  3.5854 -0.0691 -1.6451
 6152TIP3   OH240014   1.335   0.964   1.538 -0.1710 -0.2155 -0.6303
 6152TIP3    H140015   1.359   0.980   1.446  0.0394  1.4493 -0.3080
 6152TIP3    H240016   1.245   0.994   1.546  0.3786  1.3171  0.1019
 6153TIP3   OH240017   5.381   6.457   0.411 -0.3259 -0.0298 -0.2399
 6153TIP3    H140018   5.427   6.535   0.442 -2.6066  1.2277  0.1757
 6153TIP3    H240019   5.297   6.459   0.457 -1.7073 -1.0188 -2.5397
 6154TIP3   OH240020   0.665   0.178   7.551  0.4828  0.5219  0.1117
 6154TIP3    H140021   0.598   0.200   7.485  0.7774 -0.4534 -0.5395
 6154TIP3    H240022   0.619   0.183   7.634 -0.1678  0.7451 -0.2524
 6155TIP3   OH240023   5.075   0.121   7.928  0.2062 -0.4075 -0.1179
 6155TIP3    H140024   5.077   0.063   8.005  1.1388  0.9616  0.9301
 6155TIP3    H240025   5.144   0.087   7.871  0.5096 -0.5449  0.3244
 6156TIP3   OH240026   2.432   3.790   2.371  0.0652  0.1604 -0.1911
 6156TIP3    H140027   2.386   3.872   2.391 -1.2745  0.0819 -2.6086
 6156TIP3    H240028   2.422   3.737   2.450  1.1900  2.3597  1.5415
 6157TIP3   OH240029   1.467   3.584   1.457  0.2323  0.7281  0.2114
 6157TIP3    H140030   1.511   3.653   1.407  0.0504  0.8767  0.2501
 6157TIP3    H240031   1.537   3.537   1.501  0.6524 -1.0573 -2.1927
 6158TIP3   OH240032   1.273   4.687   1.393  0.4593  0.1802 -0.0282
 6158TIP3    H140033   1.333   4.612   1.399  0.3639 -0.0329 -1.3484
 6158TIP3    H240034   1.331   4.762   1.378  0.4427  0.0636 -0.7016
 6159TIP3   OH240035   4.660   1.586   2.906  0.2846 -0.5070 -0.5426
 6159TIP3    H140036   4.693   1.612   2.992  1.2531  0.3116 -1.1277
 6159TIP3    H240037   4.719   1.516   2.878  1.0044  0.3427 -1.2132
 6160TIP3   OH240038   3.284   5.500   1.180 -0.0222  0.3793 -0.2004
 6160TIP3    H140039   3.315   5.572   1.126 -4.3287  1.3799 -1.7577
 6160TIP3    H240040   3.272   5.427   1.119  0.0931 -0.2497  0.5019
 6161TIP3   OH240041   6.569   4.653   2.005 -0.2347  0.5355  0.4494
 6161TIP3    H140042   6.602   4.596   2.075 -0.8184 -1.5198 -0.8504
 6161TIP3    H240043   6.476   4.630   1.997  0.0574 -0.1280 -1.7052
 6162TIP3   OH240044   1.696   1.356   0.586 -0.1827  0.7092 -0.5156
 6162TIP3    H140045   1.761   1.401   0.640 -0.7065  1.3447 -0.3978
 6162TIP3    H240046   1.677   1.418   0.515  1.9581 -0.8658 -2.6236
 6163TIP3   OH240047   3.891   6.692   0.471  0.1823  0.3440  0.2086
 6163TIP3    H140048   3.798   6.701   0.489 -0.1199 -0.7248 -0.7594
 6163TIP3    H240049   3.933   6.710   0.556 -0.8011  2.0273  0.3813
 6164TIP3   OH240050   0.026   2.890   7.820  0.6948 -0.3918  0.0611
 6164TIP3    H140051   0.003   2.858   7.907  1.9650 -0.4418  0.3965
 6164TIP3    H240052  -0.049   2.866   7.765 -0.2502 -0.1229  1.1760
 6165TIP3   OH240053   6.817   4.279   0.397 -0.2360  0.3471  0.0884
 6165TIP3    H140054   6.738   4.287   0.450  0.2445 -1.6758  1.2081
 6165TIP3    H240055   6.888   4.273   0.462  0.4197 -1.7374 -0.7636
 6166TIP3   OH240056   0.482   0.467   1.454  0.2083  0.5491  0.5915
 6166TIP3    H140057   0.468   0.417   1.535  0.2425  0.0794  0.3105
 6166TIP3    H240058   0.436   0.417   1.387  3.3985 -1.2763 -0.4766
 6167TIP3   OH240059   2.059   4.125   1.299  0.4481 -0.3458 -0.0845
 6167TIP3    H140060   2.078   4.179   1.376 -2.7309 -0.2524  0.7601
 6167TIP3    H240061   2.111   4.045   1.313  2.2735  0.8859  0.5567
 6168TIP3   OH240062   2.199   4.758   3.545 -0.1040  0.0317 -0.4998
 6168TIP3    H140063   2.227   4.667   3.536 -0.6078 -0.2512  0.6091
 6168TIP3    H240064   2.155   4.778   3.463  0.3779 -0.5881 -0.9134
 6169TIP3   OH240065   3.024   5.724   2.038 -0.3564  0.3305  0.6122
 6169TIP3    H140066   2.963   5.653   2.020 -0.7279  0.3996  1.5151
 6169TIP3    H240067   3.109   5.690   2.011 -0.4527 -0.6652  1.4641
 6170TIP3   OH240068   6.897   3.071   2.219 -0.8265 -0.2815 -0.1248
 6170TIP3    H140069   6.979   3.111   2.245 -1.9239  1.2942  1.1180
 6170TIP3    H240070   6.903   3.061   2.124  0.9201 -0.5375 -0.0069
 6171TIP3   OH240071   2.148   1.104   1.849 -0.1693 -0.1933  0.4695
 6171TIP3    H140072   2.144   1.071   1.759  0.6142  0.9746 -0.0022
 6171TIP3    H240073   2.231   1.150   1.854  0.9136 -2.1771  2.4925
 6172TIP3   OH240074   0.392   3.510   1.815  0.2280 -0.3277 -0.3351
 6172TIP3    H140075   0.343   3.587   1.843  0.1163 -0.4644 -0.1468
 6172TIP3    H240076   0.325   3.452   1.777  0.4677  0.1052 -1.4293
 6173TIP3   OH240077   4.643   6.071   1.451 -0.3328  0.1282  0.2387
 6173TIP3    H140078   4.711   6.009   1.424  0.4739  1.2934 -0.5342
 6173TIP3    H240079   4.575   6.062   1.385 -0.0476  0.3160 -0.0852
 6174TIP3   OH240080   2.846   1.186   0.511 -0.1032 -0.9128  0.1469
 6174TIP3    H140081   2.808   1.218   0.593  1.2077  1.2883 -0.0316
 6174TIP3    H240082   2.773   1.185   0.449 -0.1037  2.9242 -0.1106
 6175TIP3   OH240083   1.784   5.966   2.246 -0.0832  0.6974 -0.9378
 6175TIP3    H140084   1.785   5.913   2.166 -2.8555 -2.5833  0.8672
 6175TIP3    H240085   1.704   6.018   2.239 -0.4173  0.2870 -0.3243
 6176TIP3   OH240086   4.884   6.599   1.828  0.1731 -0.2845 -0.2802
 6176TIP3    H140087   4.826   6.524   1.823  1.4317 -1.2788 -0.4783
 6176TIP3    H240088   4.847   6.654   1.897 -1.3659 -0.5359 -0.8726
 6177TIP3   OH240089   4.075   3.190   2.644  0.2018 -0.1130 -0.1044
 6177TIP3    H140090   4.167   3.206   2.665 -0.0664  2.3498 -0.5523
 6177TIP3    H240091   4.075   3.163   2.552  0.3377  2.4109 -0.9074
 6178TIP3   OH240092   1.737   0.494   2.627  0.2827 -0.3413 -0.3496
 6178TIP3    H140093   1.751   0.402   2.603  1.7250 -0.0200 -0.8529
 6178TIP3    H240094   1.817   0.538   2.599 -0.9888  1.3470 -1.5164
 6179TIP3   OH240095   6.946   0.066   8.012 -0.0500  0.1565 -0.5016
 6179TIP3    H140096   6.984   0.122   7.945  0.2611  0.1291 -0.3514
 6179TIP3    H240097   6.938   0.124   8.089  3.4765 -0.7928  0.7698
 6180TIP3   OH240098   2.260   5.510   8.270  0.4791  0.0770 -0.7178
 6180TIP3    H140099   2.305   5.533   8.188  0.0915 -0.6590 -1.1523
 6180TIP3    H240100   2.241   5.594   8.311  1.6126  0.4232 -0.8633
 6181TIP3   OH240101   0.028   2.832   2.497  0.2154  0.4157  0.0889
 6181TIP3    H140102   0.055   2.741   2.508  0.6390  0.5587  0.2377
 6181TIP3    H240103  -0.038   2.829   2.428  0.8207  0.0989 -0.4921
 6182TIP3   OH240104   4.435   1.827   1.149  0.5306  0.2501  0.0740
 6182TIP3    H140105   4.366   1.807   1.086 -0.1143  0.2762  0.7635
 6182TIP3    H240106   4.389   1.842   1.232  1.1027  2.7539  0.0221
 6183TIP3   OH240107   4.196   0.841   2.945 -0.0611 -0.2557 -0.8777
 6183TIP3    H140108   4.261   0.869   2.880  0.9171 -0.1303  0.1365
 6183TIP3    H240109   4.245   0.835   3.027 -1.6388  1.3750  0.2559
 6184TIP3   OH240110   5.264   0.586   0.389 -0.5332  0.4401  0.0691
 6184TIP3    H140111   5.338   0.628   0.433 -0.5400 -0.3126  0.8404
 6184TIP3    H240112   5.294   0.571   0.300 -0.4430  1.8333 -0.1561
 6185TIP3   OH240113   5.029   0.434   2.640  0.3642 -0.1597  0.3516
 6185TIP3    H140114   5.116   0.467   2.659  1.2406 -2.1316  0.0408
 6185TIP3    H240115   5.029   0.345   2.676 -0.8877 -0.8672 -1.2517
 6186TIP3   OH240116   5.052   6.644   8.158  0.6376  0.6070  0.0058
 6186TIP3    H140117   5.138   6.610   8.136  1.0188  0.9770  0.8661
 6186TIP3    H240118   5.007   6.570   8.200  1.2917  0.9849  1.4356
 6187TIP3   OH240119   2.049   6.221   7.209 -0.4808 -0.1791  0.1073
 6187TIP3    H140120   1.961   6.253   7.192  0.0072  0.3363 -1.7107
 6187TIP3    H240121   2.041   6.126   7.202 -1.0542 -0.2001  0.8960
 6188TIP3   OH240122   4.976   1.720   0.981  0.1734 -0.2959  0.1403
 6188TIP3    H140123   5.046   1.676   0.932  0.3967 -0.4714  0.6016
 6188TIP3    H240124   4.911   1.651   0.996  1.3217 -1.0210  2.4134
 6189TIP3   OH240125   4.422   0.570   7.675 -0.0883  0.3581 -0.1543
 6189TIP3    H140126   4.502   0.520   7.690  0.1673  1.2103  1.5614
 6189TIP3    H240127   4.360   0.506   7.640  1.4052 -0.2462 -1.8058
 6190TIP3   OH240128   2.505   6.696   3.141  0.1872 -0.2620  0.0154
 6190TIP3    H140129   2.555   6.767   3.183  0.4699 -0.8372  0.6702
 6190TIP3    H240130   2.571   6.635   3.109  0.0002  0.4582 -1.8504
 6191TIP3   OH240131   3.272   5.654   1.906  0.8791 -0.1071 -0.3107
 6191TIP3    H140132   3.256   5.593   1.834 -0.0390  1.5829 -1.6220
 6191TIP3    H240133   3.308   5.731   1.863  3.6218 -0.2650  1.4815
 6192TIP3   OH240134   6.772   6.209   2.251  0.3721 -0.4750  0.2164
 6192TIP3    H140135   6.713   6.284   2.243  0.0933 -0.8088 -0.9705
 6192TIP3    H240136   6.839   6.238   2.314 -0.5759  0.2030  0.9450
 6193TIP3   OH240137   5.929   4.227   1.779  0.4128  0.1164 -0.5407
 6193TIP3    H140138   5.865   4.157   1.786 -1.2467  1.7098  1.5988
 6193TIP3    H240139   5.897   4.282   1.707 -0.9784  1.1607  0.8192
 6194TIP3   OH240140   2.397   1.504   7.897  0.1199 -0.0441 -0.1017
 6194TIP3    H140141   2.387   1.599   7.903  1.3083  0.2009 -1.3350
 6194TIP3    H240142   2.461   1.491   7.827  0.8693 -1.7170  0.8180
 6195TIP3   OH240143   0.032   0.041   0.775 -0.2379  0.7001 -0.3855
 6195TIP3    H140144   0.016   0.011   0.686  0.0140  0.4504 -0.3494
 6195TIP3    H240145  -0.039   0.001   0.826 -1.0722  1.8042 -0.6591
 6196TIP3   OH240146   5.805   1.699   0.964  0.1102 -0.5849 -0.4815
 6196TIP3    H140147   5.748   1.661   0.897 -0.8741 -0.0530  0.0195
 6196TIP3    H240148   5.879   1.734   0.916 -1.8389  2.2455 -1.7102
 6197TIP3   OH240149   2.938   0.552   8.278 -0.3699  0.3166 -0.0602
 6197TIP3    H140150   2.842   0.555   8.285 -0.2856  0.2890  1.5386
 6197TIP3    H240151   2.954   0.518   8.190 -1.8193  0.6057 -0.4774
 6198TIP3   OH240152   2.869   5.349   1.698 -0.6726 -0.1582  0.0208
 6198TIP3    H140153   2.797   5.301   1.738 -0.2760  0.0329  0.9760
 6198TIP3    H240154   2.845   5.355   1.605 -1.9317 -0.0165  0.3392
 6199TIP3   OH240155   1.586   2.030   0.553 -0.5101 -0.6046 -0.0445
 6199TIP3    H140156   1.635   2.109   0.534 -1.7642  0.4565  0.8871
 6199TIP3    H240157   1.494   2.057   0.547 -0.9650 -2.0700 -0.0169
 6200TIP3   OH240158   4.040   0.258   1.552  0.1603 -0.4878  0.1641
 6200TIP3    H140159   3.961   0.274   1.501  0.5682 -0.1291 -0.3600
 6200TIP3    H240160   4.103   0.221   1.490 -0.2152 -2.6583  0.9887
 6201TIP3   OH240161   4.437   0.236   2.552  0.4343 -0.7206  0.0407
 6201TIP3    H140162   4.510   0.174   2.552 -0.0954 -1.3797 -1.1537
 6201TIP3    H240163   4.386   0.214   2.629  1.5380 -0.1770  0.9640
 6202TIP3   OH240164   5.102   5.062   3.092 -0.0366 -0.2162 -0.1158
 6202TIP3    H140165   5.124   4.997   3.024  1.2463 -0.5620  0.5959
 6202TIP3    H240166   5.141   5.143   3.060 -0.5640 -0.0677 -0.4022
 6203TIP3   OH240167   2.636   1.746   7.920  0.2591  0.0367 -0.1561
 6203TIP3    H140168   2.653   1.809   7.990 -0.7255  1.6303 -1.2975
 6203TIP3    H240169   2.707   1.683   7.927  1.5686  1.5473  0.7360
 6204TIP3   OH240170   5.663   0.750   1.616  0.5622  0.2698 -0.3461
 6204TIP3    H140171   5.691   0.809   1.686 -0.0336 -0.7637  0.8097
 6204TIP3    H240172   5.699   0.788   1.536  1.1972  1.5295  0.5108
 6205TIP3   OH240173   0.472   2.636   2.970  0.1209 -0.6335 -0.2805
 6205TIP3    H140174   0.506   2.584   2.897 -0.5338  0.4024 -1.3619
 6205TIP3    H240175   0.516   2.721   2.960  1.9976 -1.2202  2.0734
 6206TIP3   OH240176   3.103   2.345   1.244  0.2030  0.1304 -0.1631
 6206TIP3    H140177   3.060   2.360   1.160 -3.1530  0.6349  1.4817
 6206TIP3    H240178   3.154   2.424   1.260  1.1259 -0.0870 -1.7679
 6207TIP3   OH240179   6.000   6.298   3.074  0.7573  0.8508  0.0799
 6207TIP3    H140180   5.954   6.347   3.143  2.1425 -0.2576  1.8672
 6207TIP3    H240181   5.961   6.211   3.076  1.9828  0.2882  0.7268
 6208TIP3   OH240182   2.619   4.876   1.354  0.1325 -0.2772  0.0015
 6208TIP3    H140183   2.672   4.914   1.283  0.9265 -2.0222 -0.3787
 6208TIP3    H240184   2.559   4.947   1.379  1.9588  1.4355 -0.2354
 6209TIP3   OH240185   2.770   0.809   3.457  0.0374  0.5434 -0.4259
 6209TIP3    H140186   2.695   0.775   3.409  1.0844  1.0787 -2.6145
 6209TIP3    H240187   2.816   0.731   3.489  0.1905  0.0205 -1.8106
 6210TIP3   OH240188   4.410   3.114   2.589  0.3787 -0.5907 -0.1194
 6210TIP3    H140189   4.483   3.132   2.530 -0.6931 -1.5503 -1.8493
 6210TIP3    H240190   4.402   3.193   2.643  2.2256 -0.2072 -0.3568
 6211TIP3   OH240191   1.135   5.376   8.054  0.1760  0.3343  0.5009
 6211TIP3    H140192   1.065   5.311   8.047 -1.0892  1.5138  1.6188
 6211TIP3    H240193   1.200   5.348   7.990 -1.3978 -0.7060 -0.7267
 6212TIP3   OH240194   4.760   4.638   1.292 -0.1698  0.1025  0.0503
 6212TIP3    H140195   4.804   4.706   1.343 -0.3729 -0.8256  1.5199
 6212TIP3    H240196   4.796   4.647   1.203  2.3943 -0.1078  0.9928
 6213TIP3   OH240197   1.012   5.185   1.560  0.0530 -0.4188 -0.0728
 6213TIP3    H140198   1.101   5.201   1.591 -0.2275 -0.8381  0.9697
 6213TIP3    H240199   0.965   5.151   1.636 -0.9778 -0.3055 -0.6365
 6214TIP3   OH240200   0.309   1.279   7.702  0.3115  0.2353  0.4497
 6214TIP3    H140201   0.245   1.349   7.690 -1.8365 -1.6091  0.3781
 6214TIP3    H240202   0.368   1.288   7.628 -0.3848  1.4843  0.0047
 6215TIP3   OH240203   3.301   3.524   0.092  0.2997 -0.2239 -0.3592
 6215TIP3    H140204   3.324   3.566   0.010 -0.1648 -1.2112 -1.0141
 6215TIP3    H240205   3.312   3.430   0.075 -0.7005 -0.5019  0.4057
 6216TIP3   OH240206   1.904   4.167   0.175  0.0317 -0.4953  0.0152
 6216TIP3    H140207   1.821   4.125   0.156  0.2457 -1.5076  1.1957
 6216TIP3    H240208   1.947   4.108   0.237  1.4826  0.1759 -0.3138
 6217TIP3   OH240209   6.268   5.682   2.562 -0.3278 -0.3428  0.1659
 6217TIP3    H140210   6.176   5.658   2.547 -0.5106 -0.4212  1.2948
 6217TIP3    H240211   6.318   5.619   2.510 -0.9129  0.6815 -1.7551
 6218TIP3   OH240212   6.932   3.935   2.288  0.3449  0.4885 -0.7254
 6218TIP3    H140213   6.927   3.847   2.325 -0.6675  0.8305 -0.0024
 6218TIP3    H240214   6.858   3.939   2.227 -1.1244  1.6115  1.0372
 6219TIP3   OH240215   4.762   0.205   1.434  0.3433  0.5105 -0.3638
 6219TIP3    H140216   4.682   0.154   1.434  0.9301 -0.5970  2.1785
 6219TIP3    H240217   4.734   0.294   1.458 -0.1465  0.0596  0.8406
 6220TIP3   OH240218   3.541   0.718   0.288 -0.2190  0.1500  0.1494
 6220TIP3    H140219   3.564   0.635   0.330 -0.6825  0.1255  0.3615
 6220TIP3    H240220   3.455   0.702   0.250  0.2015  0.1682 -0.8317
 6221TIP3   OH240221   3.747   5.792   1.317  0.2554  0.0884  0.3581
 6221TIP3    H140222   3.764   5.847   1.240  0.8879 -1.0864 -0.3816
 6221TIP3    H240223   3.653   5.802   1.332  0.4825  2.0065  0.7840
 6222TIP3   OH240224   4.101   4.681   1.481  0.2755  0.4680  0.3746
 6222TIP3    H140225   4.089   4.776   1.477  1.5125  0.5967 -1.4553
 6222TIP3    H240226   4.013   4.645   1.474  0.0098  1.4697 -2.1629
 6223TIP3   OH240227   5.193   1.114   7.285  0.2571 -0.0406 -0.3780
 6223TIP3    H140228   5.186   1.112   7.189  2.1370  1.9601 -0.6517
 6223TIP3    H240229   5.124   1.173   7.312  1.7920  2.1385 -0.9140
 6224TIP3   OH240230   6.617   2.849   2.526 -0.1102  0.4362 -0.9780
 6224TIP3    H140231   6.680   2.867   2.457 -0.0541 -1.4694 -1.4841
 6224TIP3    H240232   6.598   2.935   2.565  1.8422  1.2041 -1.6098
 6225TIP3   OH240233   5.762   2.660   2.019  0.5803  0.0840 -0.2477
 6225TIP3    H140234   5.808   2.652   2.103 -0.1427  1.0859  0.2670
 6225TIP3    H240235   5.670   2.649   2.041  0.1830  2.2602 -0.5555
 6226TIP3   OH240236   5.865   0.711   1.083  0.4399 -0.5833  0.0634
 6226TIP3    H140237   5.811   0.720   1.004  0.5850 -1.6502 -0.1664
 6226TIP3    H240238   5.859   0.618   1.106  1.9273 -0.6631  0.2184
 6227TIP3   OH240239   0.116   2.043   1.672  0.2954  0.4399  0.3580
 6227TIP3    H140240   0.181   1.998   1.617  1.0008  1.3332  0.4386
 6227TIP3    H240241   0.166   2.074   1.748 -0.1620  1.3790  0.2865
 6228TIP3   OH240242   5.458   5.547   1.874 -0.6822  0.4147 -0.8633
 6228TIP3    H140243   5.545   5.513   1.854 -0.1699 -1.2584  3.1998
 6228TIP3    H240244   5.473   5.638   1.898 -0.1865  0.3824 -1.0313
 6229TIP3   OH240245   1.023   0.626   2.620 -0.1265 -0.0262  0.2651
 6229TIP3    H140246   0.948   0.675   2.655  0.6955  1.4049  0.0815
 6229TIP3    H240247   1.085   0.622   2.692  0.8778  1.4885 -0.4580
 6230TIP3   OH240248   2.434   5.127   2.755  0.4127 -0.4499 -0.0519
 6230TIP3    H140249   2.471   5.210   2.785 -1.3156 -0.5728  2.6712
 6230TIP3    H240250   2.340   5.136   2.768 -0.0542 -2.0411 -1.8831
 6231TIP3   OH240251   1.802   0.673   0.246  0.2079 -0.1736  0.8389
 6231TIP3    H140252   1.871   0.608   0.231  2.4551  2.4360 -1.4729
 6231TIP3    H240253   1.833   0.723   0.322  0.0640  0.0120  0.7761
 6232TIP3   OH240254   5.684   1.183   1.639  0.1200  0.1487  0.0088
 6232TIP3    H140255   5.644   1.219   1.718 -1.4039 -1.7274  0.1617
 6232TIP3    H240256   5.644   1.233   1.568 -2.7878 -1.7592  0.1526
 6233TIP3   OH240257   1.722   6.634   0.055  0.4936 -0.7340  0.8021
 6233TIP3    H140258   1.686   6.547   0.040 -1.2581  0.0492  0.2853
 6233TIP3    H240259   1.667   6.693   0.003  1.7374  0.6724  1.0102
 6234TIP3   OH240260   0.947   3.268   0.646  0.1799  0.2633  0.1962
 6234TIP3    H140261   0.885   3.272   0.573  0.9337 -1.5122 -0.5883
 6234TIP3    H240262   1.018   3.326   0.621 -1.3455  2.8483  1.3941
 6235TIP3   OH240263   3.799   6.730   8.307  0.5819  0.5743  0.3090
 6235TIP3    H140264   3.706   6.753   8.299  1.2347  4.7710  2.1454
 6235TIP3    H240265   3.800   6.661   8.374 -1.1328  1.6628  1.5358
 6236TIP3   OH240266   5.755   4.827   3.027  0.5783  0.3684 -0.5561
 6236TIP3    H140267   5.833   4.774   3.043 -0.5297 -0.8113  1.3268
 6236TIP3    H240268   5.778   4.914   3.060  0.6448 -0.3469  1.4126
 6237TIP3   OH240269   5.054   0.718   1.366  0.4920  0.4364  0.1917
 6237TIP3    H140270   5.130   0.715   1.425  0.6844  1.9786  0.0790
 6237TIP3    H240271   5.090   0.699   1.280  0.0647 -2.7417  0.5936
 6238TIP3   OH240272   5.170   5.448   1.909 -0.4417 -0.0008 -0.2292
 6238TIP3    H140273   5.249   5.485   1.869  0.2586  0.3528  1.3924
 6238TIP3    H240274   5.133   5.521   1.959 -0.6916 -0.6853  0.6045
 6239TIP3   OH240275   6.737   3.851   0.762  0.1585  1.0464 -0.0041
 6239TIP3    H140276   6.737   3.756   0.761  0.4536  1.0434 -0.6207
 6239TIP3    H240277   6.761   3.875   0.852 -0.0116  0.5436  0.1754
 6240TIP3   OH240278   3.636   3.679   1.240  0.1563 -0.2906 -0.0017
 6240TIP3    H140279   3.542   3.663   1.248  0.2009 -1.4227 -1.3714
 6240TIP3    H240280   3.655   3.666   1.147  1.7167 -0.3438  0.2962
 6241TIP3   OH240281   5.849   4.401   0.225  0.0265  0.0667 -0.1992
 6241TIP3    H140282   5.920   4.465   0.225  0.0577  0.0671 -1.6905
 6241TIP3    H240283   5.782   4.440   0.168 -1.2564  0.1243  1.2713
 6242TIP3   OH240284   1.311   3.408   1.730  0.2757 -0.3916 -0.0800
 6242TIP3    H140285   1.371   3.473   1.768  1.2495 -1.1708 -0.2346
 6242TIP3    H240286   1.330   3.327   1.778 -0.3483 -0.7572 -0.4391
 6243TIP3   OH240287   1.578   1.350   2.892 -0.6878 -0.2451 -0.1169
 6243TIP3    H140288   1.588   1.377   2.983  3.5849 -2.6121  0.3807
 6243TIP3    H240289   1.565   1.431   2.844  0.5861  1.5015  2.2856
 6244TIP3   OH240290   0.684   1.601   0.054  0.5481  0.1370 -0.6790
 6244TIP3    H140291   0.604   1.574   0.100 -0.5126  2.2214 -1.1739
 6244TIP3    H240292   0.750   1.609   0.124 -0.5173  1.3702  0.2355
 6245TIP3   OH240293   4.819   6.278   2.592 -1.1046 -0.1115 -0.1595
 6245TIP3    H140294   4.872   6.199   2.600 -1.9927 -0.7132 -0.0191
 6245TIP3    H240295   4.819   6.317   2.679  0.3271  0.7179 -0.5080
 6246TIP3   OH240296   3.952   4.121   7.947 -0.0929 -0.1164 -0.3779
 6246TIP3    H140297   3.960   4.217   7.946  0.2280 -0.1378 -0.0570
 6246TIP3    H240298   3.948   4.097   7.854  0.4865  0.1547 -0.4760
 6247TIP3   OH240299   2.701   0.308   1.311  0.2285  0.4605  0.2529
 6247TIP3    H140300   2.731   0.384   1.260 -2.1236  1.8029  0.7150
 6247TIP3    H240301   2.750   0.313   1.393  0.6045  1.0927 -0.0033
 6248TIP3   OH240302   5.891   6.263   8.358  0.2817  0.0861 -0.1954
 6248TIP3    H140303   5.942   6.304   8.428  0.3448  1.1622 -0.8416
 6248TIP3    H240304   5.819   6.219   8.403  0.5571  0.3944  0.5707
 6249TIP3   OH240305   5.274   5.195   1.049 -0.1382  0.2751  0.0865
 6249TIP3    H140306   5.297   5.187   0.956  1.4526  0.8230  0.4070
 6249TIP3    H240307   5.324   5.125   1.092 -0.0578  0.6821  0.6585
 6250TIP3   OH240308   0.061   6.585   0.530  0.1762 -0.2355 -0.3000
 6250TIP3    H140309   0.035   6.656   0.471 -2.1075 -1.4062 -0.8140
 6250TIP3    H240310   0.121   6.531   0.478  1.3800  0.8948 -0.1340
 6251TIP3   OH240311   5.170   6.663   2.456  0.9644  0.3046  0.6657
 6251TIP3    H140312   5.110   6.592   2.434 -1.0702  1.3485  2.4304
 6251TIP3    H240313   5.198   6.698   2.372 -0.2336 -0.7819 -0.2123
 6252TIP3   OH240314   3.208   5.793   0.694  0.0576 -0.3238 -0.0033
 6252TIP3    H140315   3.158   5.865   0.655 -1.3346  0.3179  2.7706
 6252TIP3    H240316   3.293   5.796   0.649 -0.4309  2.1468 -0.9246
 6253TIP3   OH240317   1.480   4.590   8.139 -0.2120  0.3800 -0.4997
 6253TIP3    H140318   1.475   4.559   8.230 -0.8004  1.3688 -0.1772
 6253TIP3    H240319   1.574   4.598   8.122 -0.0778 -0.4355 -0.2059
 6254TIP3   OH240320   5.408   6.222   1.139 -0.0052 -0.0971 -0.4216
 6254TIP3    H140321   5.478   6.160   1.158 -0.5014 -0.1399  1.4336
 6254TIP3    H240322   5.416   6.289   1.207  0.3471  1.7869 -2.1959
 6255TIP3   OH240323   0.631   4.058   8.041 -0.2819  0.1140  0.1039
 6255TIP3    H140324   0.722   4.029   8.049 -0.9998 -2.2760  0.3109
 6255TIP3    H240325   0.588   4.024   8.119 -1.7890 -0.6439 -1.0149
 6256TIP3   OH240326   4.049   2.000   0.818 -0.0436 -0.2346 -0.4481
 6256TIP3    H140327   4.078   2.091   0.815 -1.4932  0.2460 -0.6048
 6256TIP3    H240328   3.993   1.990   0.741 -1.2883 -0.7685  0.4947
 6257TIP3   OH240329   4.130   2.246   0.770  0.4424  0.4192  0.4436
 6257TIP3    H140330   4.073   2.311   0.729  1.2167  0.9027  0.1118
 6257TIP3    H240331   4.153   2.284   0.855  0.5141  0.3635  0.4495
 6258TIP3   OH240332   6.152   0.080   2.577 -0.5994  0.2711  0.7155
 6258TIP3    H140333   6.194   0.165   2.588 -0.8176  0.4458  0.2295
 6258TIP3    H240334   6.177   0.031   2.655  0.9871  0.1612  0.1510
 6259TIP3   OH240335   1.064   4.453   7.508 -0.1861  0.1616  0.2899
 6259TIP3    H140336   1.040   4.414   7.592 -2.1784 -0.4985 -0.5427
 6259TIP3    H240337   1.158   4.434   7.499 -0.0926 -0.3775  2.0144
 6260TIP3   OH240338   0.551   4.639   2.748 -0.5588 -0.0410  0.2313
 6260TIP3    H140339   0.484   4.682   2.696 -0.0722 -0.1292 -0.4786
 6260TIP3    H240340   0.633   4.679   2.720 -0.4175  1.1111  2.1127
 6261TIP3   OH240341   1.404   2.481   7.985 -0.1609 -0.4358 -0.5058
 6261TIP3    H140342   1.334   2.485   7.920 -1.3442 -1.3637  0.6674
 6261TIP3    H240343   1.381   2.549   8.049 -0.4859 -1.2972  0.3249
 6262TIP3   OH240344   5.182   6.231   1.883 -0.5014  0.3145 -0.6895
 6262TIP3    H140345   5.174   6.313   1.834 -1.0382 -0.6294 -2.2585
 6262TIP3    H240346   5.172   6.257   1.975 -0.8328  1.9734 -1.1594
 6263TIP3   OH240347   1.581   0.150   1.795 -0.4028  0.0830 -0.1415
 6263TIP3    H140348   1.575   0.069   1.845 -0.3679  0.1442 -0.0355
 6263TIP3    H240349   1.629   0.210   1.853 -1.4243  0.5339  0.2532
 6264TIP3   OH240350   3.899   0.474   0.283 -0.4342  0.0256  0.6613
 6264TIP3    H140351   3.854   0.544   0.236 -1.3905 -0.0522  1.4421
 6264TIP3    H240352   3.951   0.429   0.216 -2.1815 -0.4310 -0.4431
 6265TIP3   OH240353   6.728   6.560   2.985 -0.4131 -0.3152 -0.1593
 6265TIP3    H140354   6.785   6.494   3.024 -0.6385 -0.2932  0.2134
 6265TIP3    H240355   6.654   6.510   2.950 -0.2602 -0.3250 -0.4696
 6266TIP3   OH240356   2.840   3.386   0.458 -0.1560  0.1201 -0.6465
 6266TIP3    H140357   2.819   3.314   0.398 -0.4036 -0.1722 -0.2187
 6266TIP3    H240358   2.779   3.374   0.531  0.6271  0.0266  0.0128
 6267TIP3   OH240359   2.334   4.983   3.160  0.8561  0.2185 -0.2781
 6267TIP3    H140360   2.408   4.954   3.213  0.5183  1.4021  0.8973
 6267TIP3    H240361   2.274   4.909   3.160  0.6360  0.3379  1.4761
 6268TIP3   OH240362   2.835   6.173   1.462  0.4836  0.4984  0.0650
 6268TIP3    H140363   2.865   6.256   1.498  1.6015 -0.3509  1.2188
 6268TIP3    H240364   2.876   6.168   1.376 -1.5256  2.1760 -1.0653
 6269TIP3   OH240365   1.723   6.538   0.677 -0.3516 -0.1080  0.8841
 6269TIP3    H140366   1.729   6.633   0.667 -1.0627  0.0567  1.8780
 6269TIP3    H240367   1.629   6.520   0.682 -0.4520 -1.2422 -2.4212
 6270TIP3   OH240368   2.276   1.237   0.026 -0.3714 -0.4274 -0.1977
 6270TIP3    H140369   2.207   1.294   0.060  0.1742  0.3178 -0.3148
 6270TIP3    H240370   2.252   1.222  -0.065 -0.8530 -0.9199  0.0016
 6271TIP3   OH240371   3.904   2.276   0.385  0.2080  0.4659  0.2241
 6271TIP3    H140372   3.881   2.189   0.416 -0.5421  0.7075  0.3714
 6271TIP3    H240373   3.987   2.264   0.339  0.2584 -0.2708  0.4914
 6272TIP3   OH240374   1.689   5.265   0.863  0.1801 -0.0918 -0.6194
 6272TIP3    H140375   1.696   5.190   0.803 -4.2247 -0.3684 -1.1289
 6272TIP3    H240376   1.597   5.290   0.858  0.3073  1.9845  3.6253
 6273TIP3   OH240377   1.547   4.509   2.023  0.1321  0.1474 -0.7273
 6273TIP3    H140378   1.568   4.420   1.995 -1.4722 -0.4752 -0.0713
 6273TIP3    H240379   1.515   4.552   1.944 -1.5596 -0.6896 -0.5390
 6274TIP3   OH240380   0.510   6.557   0.037 -0.7671 -0.0054  0.0390
 6274TIP3    H140381   0.419   6.563   0.006 -0.9685 -0.8237  0.4523
 6274TIP3    H240382   0.521   6.465   0.062 -0.4594  0.4918  1.8967
 6275TIP3   OH240383   3.122   6.834   0.551 -0.0676 -0.4860 -0.0276
 6275TIP3    H140384   3.036   6.866   0.526  0.1801  1.0657  0.9364
 6275TIP3    H240385   3.106   6.747   0.588 -1.0219 -0.7560 -1.0267
 6276TIP3   OH240386   0.372   2.126   2.350  0.4613 -0.1282  0.3756
 6276TIP3    H140387   0.324   2.064   2.295  0.3883  0.9486 -0.8030
 6276TIP3    H240388   0.389   2.201   2.294 -1.3367  1.8957  2.2959
 6277TIP3   OH240389   2.989   2.047   8.268  0.0319 -0.0740  0.7833
 6277TIP3    H140390   3.079   2.050   8.301 -0.3097  0.0437  1.7153
 6277TIP3    H240391   2.937   2.093   8.334 -0.7515 -0.3417  0.3670
 6278TIP3   OH240392   0.395   5.887   7.932  0.5397 -0.1232 -0.5341
 6278TIP3    H140393   0.403   5.952   7.861  0.4996 -0.2329 -0.6380
 6278TIP3    H240394   0.351   5.935   8.002  2.3014  0.5800  0.1515
 6279TIP3   OH240395   0.060   3.312   2.665  0.1339 -0.1737  0.5892
 6279TIP3    H140396   0.144   3.347   2.692 -0.4255 -0.7475  3.3692
 6279TIP3    H240397   0.076   3.273   2.579  1.6028  3.5380 -1.0446
 6280TIP3   OH240398   1.692   4.749   1.327  0.0040 -0.4572  0.0051
 6280TIP3    H140399   1.606   4.790   1.337 -1.5796 -3.2141 -1.3223
 6280TIP3    H240400   1.705   4.742   1.233  0.0968 -3.0303  0.1407
 6281TIP3   OH240401   6.104   5.432   1.347  0.1954  0.1057  0.4011
 6281TIP3    H140402   6.167   5.361   1.361 -0.6529 -1.3925 -2.6194
 6281TIP3    H240403   6.157   5.502   1.309  0.3239 -0.6256 -0.8184
 6282TIP3   OH240404   4.524   2.864   0.860 -0.1975 -0.4991  0.4692
 6282TIP3    H140405   4.509   2.880   0.767 -2.0333 -0.5988  0.6970
 6282TIP3    H240406   4.542   2.951   0.896  3.1000 -0.7325 -0.3029
 6283TIP3   OH240407   2.293   6.291   0.592 -0.0078 -0.1936  0.3608
 6283TIP3    H140408   2.272   6.383   0.575 -0.7770 -0.3814  0.2989
 6283TIP3    H240409   2.309   6.253   0.505  0.8992  0.0094  0.4215
 6284TIP3   OH240410   0.979   4.935   8.069  0.3767 -0.0261 -0.1756
 6284TIP3    H140411   0.971   4.842   8.048  0.8940  0.0587 -0.7566
 6284TIP3    H240412   0.955   4.940   8.162 -0.3770 -0.6284 -0.3197
 6285TIP3   OH240413   4.232   4.774   7.437 -0.3255 -0.5739  0.3695
 6285TIP3    H140414   4.149   4.752   7.395 -0.8827  1.7480  0.1206
 6285TIP3    H240415   4.285   4.811   7.366  1.2859 -2.6847  0.3533
 6286TIP3   OH240416   4.506   0.054   1.734  0.0457 -0.5042  0.4229
 6286TIP3    H140417   4.497   0.146   1.758 -0.6806 -0.4014 -0.2059
 6286TIP3    H240418   4.420   0.029   1.701 -0.1274 -1.7468  1.6975
 6287TIP3   OH240419   4.630   1.079   7.964 -0.1117 -0.0069 -0.5501
 6287TIP3    H140420   4.590   1.124   8.038  0.0132 -0.2984 -0.3007
 6287TIP3    H240421   4.670   1.149   7.912  2.4702  0.0310  1.2482
 6288TIP3   OH240422   6.622   6.333   7.613 -0.1433  0.3861 -0.2910
 6288TIP3    H140423   6.623   6.383   7.695 -0.9571 -1.2608  0.7771
 6288TIP3    H240424   6.529   6.315   7.597 -0.0817  1.4003 -2.0764
 6289TIP3   OH240425   6.506   6.850   1.391  0.3134 -0.2645  0.1890
 6289TIP3    H140426   6.531   6.779   1.332 -1.3736  0.9164 -2.1336
 6289TIP3    H240427   6.486   6.807   1.474  0.7235 -2.2963 -0.7157
 6290TIP3   OH240428   3.127   1.955   0.422  0.5913  0.6283  0.9463
 6290TIP3    H140429   3.043   1.969   0.464 -0.0054  1.7128 -0.5103
 6290TIP3    H240430   3.116   1.874   0.372 -0.1891  1.6304 -0.5705
 6291TIP3   OH240431   3.825   6.097   1.408 -0.5682 -0.2197  0.0324
 6291TIP3    H140432   3.885   6.108   1.482 -0.0311  2.5912 -0.7018
 6291TIP3    H240433   3.747   6.057   1.447  0.9408 -1.9829  1.4128
 6292TIP3   OH240434   6.374   1.074   7.687  0.1236  0.2059 -0.2901
 6292TIP3    H140435   6.293   1.122   7.669 -0.0385 -0.1983 -0.6696
 6292TIP3    H240436   6.407   1.113   7.768 -2.1951 -1.8197  1.8346
 6293TIP3   OH240437   0.441   1.576   1.104 -0.4496 -0.2172  0.0673
 6293TIP3    H140438   0.434   1.660   1.058 -2.2968  0.0107  0.6905
 6293TIP3    H240439   0.533   1.569   1.128  0.6405 -0.2817 -3.5133
 6294TIP3   OH240440   4.901   6.130   1.064 -0.5049 -0.0471 -0.1617
 6294TIP3    H140441   4.985   6.173   1.047 -0.1068  0.3157  2.3720
 6294TIP3    H240442   4.868   6.107   0.977  1.7843  0.5927 -1.2796
 6295TIP3   OH240443   0.544   3.921   1.278 -0.3706  0.4393 -0.1890
 6295TIP3    H140444   0.620   3.975   1.300 -1.2542  1.3732  0.6817
 6295TIP3    H240445   0.508   3.896   1.362 -3.1866  3.1468 -0.4056
 6296TIP3   OH240446   2.462   1.079   2.340  0.1716 -0.5802 -0.1947
 6296TIP3    H140447   2.411   1.087   2.259 -0.1918 -1.0245 -0.0166
 6296TIP3    H240448   2.493   0.989   2.339  0.0731 -0.6182  0.2121
 6297TIP3   OH240449   4.879   4.428   8.251 -0.0163  0.4780 -0.0023
 6297TIP3    H140450   4.962   4.393   8.283 -1.2511 -2.4826  0.2438
 6297TIP3    H240451   4.905   4.498   8.190  2.6432 -0.5060 -0.1593
 6298TIP3   OH240452   6.016   2.745   2.698 -0.3353 -0.0600 -0.6280
 6298TIP3    H140453   6.014   2.837   2.725  0.9497  0.1266 -1.0617
 6298TIP3    H240454   5.995   2.696   2.777  1.8369  0.5179  0.3949
 6299TIP3   OH240455   2.447   6.955   7.916 -1.5221  0.1918  0.2083
 6299TIP3    H140456   2.486   6.944   8.003 -0.0915  0.8283 -0.3191
 6299TIP3    H240457   2.407   7.042   7.918 -2.0119 -0.0357  0.4130
 6300TIP3   OH240458   2.370   5.684   7.762 -0.4779 -0.0578  0.3160
 6300TIP3    H140459   2.373   5.779   7.778  0.6003  0.0189 -0.2367
 6300TIP3    H240460   2.461   5.656   7.770 -0.6404 -0.8644 -0.5749
 6301TIP3   OH240461   0.275   3.544   2.081  0.0800  0.1583  0.1014
 6301TIP3    H140462   0.291   3.577   2.169  0.3996  0.3156 -0.0121
 6301TIP3    H240463   0.338   3.472   2.071 -1.1335 -1.0161  0.6284
 6302TIP3   OH240464   6.381   6.936   2.167 -0.4916 -0.5494 -0.0354
 6302TIP3    H140465   6.310   7.000   2.177  1.7500  1.9639  1.1902
 6302TIP3    H240466   6.388   6.896   2.254  2.3734  2.6175  1.4563
 6303TIP3   OH240467   2.220   6.128   2.167  0.3555 -0.3767  0.8097
 6303TIP3    H140468   2.234   6.048   2.117  3.8659  0.3395  0.4044
 6303TIP3    H240469   2.197   6.098   2.255  0.3645 -1.7698  0.3608
 6304TIP3   OH240470   4.532   0.261   2.076  0.0834 -0.0541  0.0439
 6304TIP3    H140471   4.510   0.305   1.994 -1.3842 -0.2586  0.3017
 6304TIP3    H240472   4.614   0.214   2.057  0.5705  1.1050 -0.8396
 6305TIP3   OH240473   3.923   4.763   7.574 -0.2370  0.5354 -0.6455
 6305TIP3    H140474   3.966   4.782   7.657 -0.3237  1.1276 -0.7314
 6305TIP3    H240475   3.941   4.840   7.520  1.8075 -0.7862 -1.9867
 6306TIP3   OH240476   2.628   3.503   1.752  0.4820  0.1498  0.2229
 6306TIP3    H140477   2.562   3.529   1.816  0.6420 -0.0588  0.4753
 6306TIP3    H240478   2.637   3.579   1.694 -0.9140 -0.2865 -0.6021
 6307TIP3   OH240479   3.903   2.921   2.110 -0.0414 -0.1169  0.1197
 6307TIP3    H140480   3.856   2.861   2.053 -0.5444 -0.7970  1.2266
 6307TIP3    H240481   3.856   3.004   2.101  0.5108  0.0665 -1.2290
 6308TIP3   OH240482   0.495   2.549   2.660 -0.5506 -0.2583  0.7005
 6308TIP3    H140483   0.455   2.635   2.658  0.5983  0.2974  0.7299
 6308TIP3    H240484   0.424   2.489   2.638 -0.8962  0.8857 -1.7201
 6309TIP3   OH240485   0.276   4.492   2.866  0.3075 -0.2473 -0.0450
 6309TIP3    H140486   0.341   4.457   2.926  0.1901 -1.1883 -0.4421
 6309TIP3    H240487   0.316   4.486   2.780 -0.7606 -2.1328 -0.4779
 6310TIP3   OH240488   4.868   0.090   2.755 -0.6257 -0.0609  0.3485
 6310TIP3    H140489   4.841  -0.002   2.754 -0.4269 -0.1195  0.4009
 6310TIP3    H240490   4.960   0.088   2.731 -0.3965  0.0499  1.1988
 6311TIP3   OH240491   3.661   3.910   7.803  0.5991 -0.3633  0.1997
 6311TIP3    H140492   3.639   3.867   7.886 -0.8681  0.4239  0.2559
 6311TIP3    H240493   3.600   3.871   7.739  1.3121 -0.5334 -0.3936
 6312TIP3   OH240494   2.787   6.298   0.571  0.3555  0.9077  0.0278
 6312TIP3    H140495   2.713   6.328   0.624 -0.1982  0.2923 -0.3707
 6312TIP3    H240496   2.747   6.244   0.503  1.2261  0.0569  0.1652
 6313TIP3   OH240497   6.369   2.986   7.903 -0.3781 -0.1043 -0.1063
 6313TIP3    H140498   6.463   2.970   7.906 -0.5004 -1.4965 -1.8565
 6313TIP3    H240499   6.352   3.014   7.813 -1.6258  0.2260  0.2068
 6314TIP3   OH240500   1.139   1.625   8.307  0.6519  0.0749  0.3699
 6314TIP3    H140501   1.215   1.683   8.299  0.6803  0.1823  1.2934
 6314TIP3    H240502   1.157   1.554   8.246  0.3003  1.3444 -1.3122
 6315TIP3   OH240503   6.617   2.009   1.310  0.2569  0.3506  0.1523
 6315TIP3    H140504   6.539   1.965   1.277 -1.2078  0.5468  3.1039
 6315TIP3    H240505   6.680   2.002   1.238 -2.0721 -0.7717 -1.9196
 6316TIP3   OH240506   2.655   4.245   2.444 -0.1339  0.4208  0.0930
 6316TIP3    H140507   2.644   4.163   2.492  0.0142  0.7304  0.6618
 6316TIP3    H240508   2.648   4.220   2.352  1.0649 -0.4200  0.2129
 6317TIP3   OH240509   5.010   6.334   2.110  0.6714  0.5878 -0.1038
 6317TIP3    H140510   4.942   6.330   2.176  0.8885 -0.8401  0.0685
 6317TIP3    H240511   4.968   6.303   2.030  1.0353 -0.0956 -0.0447
 6318TIP3   OH240512   1.661   0.951   1.183 -0.0736  0.1323 -0.6800
 6318TIP3    H140513   1.704   0.938   1.098 -1.3037  0.8473 -1.4315
 6318TIP3    H240514   1.714   1.018   1.226  1.7896 -1.6713  0.0421
 6319TIP3   OH240515   1.552   3.409   7.446  0.2106  0.4335  0.7364
 6319TIP3    H140516   1.483   3.472   7.467 -0.2250  0.7741 -1.3936
 6319TIP3    H240517   1.558   3.412   7.350  0.4215 -2.5435  0.5642
 6320TIP3   OH240518   1.896   2.566   7.490 -0.1033 -0.2777 -0.6266
 6320TIP3    H140519   1.833   2.536   7.424  0.1872 -1.6361 -0.3158
 6320TIP3    H240520   1.971   2.507   7.480  0.8575  0.8902 -0.5394
 6321TIP3   OH240521   2.970   2.051   7.938  0.0218  0.2449 -0.4310
 6321TIP3    H140522   2.958   2.032   8.031  0.0183 -2.3382 -0.8856
 6321TIP3    H240523   3.058   2.020   7.918  0.1710  1.1259 -1.2248
 6322TIP3   OH240524   2.860   0.763   0.612 -0.2252 -0.2060  0.2122
 6322TIP3    H140525   2.942   0.748   0.658  0.1202  1.6470  0.2473
 6322TIP3    H240526   2.886   0.784   0.522 -0.7471 -0.8801 -0.1104
 6323TIP3   OH240527   2.114   3.268   7.810 -0.8568 -0.7389  0.6215
 6323TIP3    H140528   2.069   3.313   7.738 -0.1378 -2.1670 -0.8032
 6323TIP3    H240529   2.145   3.338   7.866 -0.2312  0.5511 -1.2200
 6324TIP3   OH240530   3.352   3.156   1.369  0.6099  0.6228 -0.2917
 6324TIP3    H140531   3.379   3.068   1.345 -0.7614  0.3307 -0.8726
 6324TIP3    H240532   3.429   3.194   1.413  1.1362 -0.9261  0.1966
 6325TIP3   OH240533   1.494   3.134   0.917 -0.5487  0.0100  0.5361
 6325TIP3    H140534   1.458   3.090   0.994 -0.5712 -0.5590  0.2044
 6325TIP3    H240535   1.489   3.068   0.847 -0.0351  0.3444  0.1809
 6326TIP3   OH240536   1.224   2.548   7.401  0.4463  0.4930  0.0884
 6326TIP3    H140537   1.131   2.536   7.384  0.6004 -0.3938 -0.1676
 6326TIP3    H240538   1.266   2.472   7.362  1.3777  1.3289 -0.6102
 6327TIP3   OH240539   4.785   6.788   7.988 -0.2218  0.1536 -0.1111
 6327TIP3    H140540   4.879   6.807   7.982 -0.5454  1.7070 -0.8096
 6327TIP3    H240541   4.759   6.764   7.899 -0.6289  0.4563 -0.0769
 6328TIP3   OH240542   5.175   4.475   8.120 -0.0431 -0.3634  0.2136
 6328TIP3    H140543   5.233   4.446   8.191 -1.6844 -0.9803  1.3665
 6328TIP3    H240544   5.148   4.394   8.077 -0.2409 -0.0994 -0.1673
 6329TIP3   OH240545   4.887   1.038   2.525  0.5551 -0.1177  0.8903
 6329TIP3    H140546   4.855   0.963   2.476 -1.3020  1.4312 -0.4155
 6329TIP3    H240547   4.873   1.014   2.617  0.7395 -1.6348  0.5557
 6330TIP3   OH240548   6.497   2.440   8.059 -0.6666 -0.0593  0.3816
 6330TIP3    H140549   6.441   2.381   8.009  0.3499 -1.0681  0.4110
 6330TIP3    H240550   6.556   2.383   8.108  0.8979  0.9642 -0.2147
 6331TIP3   OH240551   2.315   1.859   0.255 -0.2839 -0.2565  0.3455
 6331TIP3    H140552   2.362   1.830   0.334 -1.4472 -0.7455  0.8798
 6331TIP3    H240553   2.261   1.784   0.230  0.0694 -0.1008 -0.9284
 6332TIP3   OH240554   5.800   4.394   1.279 -0.1942  0.0109 -0.2280
 6332TIP3    H140555   5.735   4.363   1.343  1.0126  1.3462  1.7439
 6332TIP3    H240556   5.880   4.347   1.301  0.4950  1.2123 -0.0922
 6333TIP3   OH240557   1.490   5.923   1.256 -0.0204  0.0214  0.3747
 6333TIP3    H140558   1.563   5.941   1.197 -0.3063 -1.4204 -0.4550
 6333TIP3    H240559   1.528   5.933   1.344  0.8794  0.4123 -0.0460
 6334TIP3   OH240560   5.041   0.575   8.371 -0.4944  0.7557 -0.3580
 6334TIP3    H140561   5.113   0.522   8.337 -0.6664  0.3554 -0.0970
 6334TIP3    H240562   4.988   0.515   8.423 -1.3665  0.8984 -1.0491
 6335TIP3   OH240563   0.131   5.500   0.216  0.1650  0.7325  0.7577
 6335TIP3    H140564   0.164   5.419   0.176 -0.1936  1.7370 -1.7426
 6335TIP3    H240565   0.036   5.487   0.219  0.1163  1.0101  0.4490
 6336TIP3   OH240566   2.317   4.553   0.782  0.2297 -0.8321  0.4207
 6336TIP3    H140567   2.376   4.620   0.747  0.3189 -0.8186  0.5945
 6336TIP3    H240568   2.348   4.538   0.872 -1.8716  1.3766  1.6385
 6337TIP3   OH240569   2.352   5.523   0.173  0.5417  0.5508 -0.1526
 6337TIP3    H140570   2.351   5.563   0.260  1.4261  0.3581 -0.0359
 6337TIP3    H240571   2.307   5.439   0.185  1.3225  0.1809  0.3136
 6338TIP3   OH240572   4.299   6.670   7.411  0.3458  0.4211 -0.2832
 6338TIP3    H140573   4.230   6.714   7.361  1.4108  0.5073 -1.7623
 6338TIP3    H240574   4.379   6.688   7.361  1.5426  0.7889  1.6610
 6339TIP3   OH240575   2.422   6.398   1.178  0.2795 -0.0353  0.4254
 6339TIP3    H140576   2.379   6.472   1.220  0.2570  1.1574 -1.6133
 6339TIP3    H240577   2.502   6.385   1.230 -1.0658 -0.4585  2.5056
 6340TIP3   OH240578   6.986   5.101   1.971  0.3123 -0.5100  0.2542
 6340TIP3    H140579   6.951   5.012   1.980 -1.9466  0.3605  0.5946
 6340TIP3    H240580   7.059   5.104   2.033 -0.3856 -1.7394  1.1952
 6341TIP3   OH240581   5.910   3.292   8.361  0.2848 -0.0173  0.3076
 6341TIP3    H140582   5.928   3.385   8.344  1.0078  0.1607  1.8969
 6341TIP3    H240583   5.963   3.271   8.437  1.0924 -2.1009 -0.7767
 6342TIP3   OH240584   5.801   3.776   0.802 -0.0153  0.3776  0.1096
 6342TIP3    H140585   5.731   3.837   0.828 -0.3426  0.2155 -0.3778
 6342TIP3    H240586   5.881   3.816   0.836 -0.3407  0.5820  0.6500
 6343TIP3   OH240587   6.178   3.536   0.482  0.4013 -0.0541  0.0511
 6343TIP3    H140588   6.094   3.520   0.439 -0.5971  1.3029  1.4149
 6343TIP3    H240589   6.211   3.449   0.502 -1.0899 -0.6067  0.2372
 6344TIP3   OH240590   4.955   5.584   2.746  0.5736 -0.6011  0.1998
 6344TIP3    H140591   4.929   5.657   2.801  3.3176 -0.4328  1.4186
 6344TIP3    H240592   4.915   5.602   2.661  0.1061  1.6031  0.8419
 6345TIP3   OH240593   5.774   1.711   1.727  0.1791 -0.0269  0.2369
 6345TIP3    H140594   5.688   1.751   1.742 -0.3554 -1.1553  0.3095
 6345TIP3    H240595   5.799   1.675   1.812 -0.7402 -2.4113 -0.4137
 6346TIP3   OH240596   4.593   2.773   1.841  0.1207  0.5842  0.3594
 6346TIP3    H140597   4.604   2.751   1.933  2.3290 -0.1241 -0.0030
 6346TIP3    H240598   4.657   2.843   1.825  0.9577 -0.4100 -0.9438
 6347TIP3   OH240599   2.678   4.370   7.421  0.0523  0.1220  0.2363
 6347TIP3    H140600   2.685   4.279   7.394  0.7408 -0.1538  1.2789
 6347TIP3    H240601   2.594   4.400   7.385 -0.1333 -0.8875 -0.1875
 6348TIP3   OH240602   6.643   0.428   0.531 -0.1501  0.1300 -0.1996
 6348TIP3    H140603   6.709   0.492   0.558  0.0613  0.1603 -0.7622
 6348TIP3    H240604   6.681   0.386   0.454 -0.9230  0.3793 -0.7385
 6349TIP3   OH240605   4.995   4.031   8.151 -0.0271  0.1823  0.0017
 6349TIP3    H140606   5.007   3.956   8.092 -2.0149  1.1430 -1.7212
 6349TIP3    H240607   4.904   4.057   8.138 -0.2897  0.9964  2.9087
 6350TIP3   OH240608   1.014   0.521   0.978 -0.1757 -0.3561  0.1185
 6350TIP3    H140609   1.061   0.470   1.045  2.3269 -0.9673 -1.9431
 6350TIP3    H240610   1.031   0.612   1.002 -0.0832 -0.5545  0.8337
 6351TIP3   OH240611   0.752   6.845   1.476 -0.3474  0.4359  0.2276
 6351TIP3    H140612   0.815   6.780   1.505  0.6438  1.5935  0.7451
 6351TIP3    H240613   0.780   6.868   1.387 -2.1827 -1.6247 -0.9713
 6352TIP3   OH240614   0.374   0.001   2.905  0.4218  0.3722  0.2279
 6352TIP3    H140615   0.310  -0.070   2.899  2.6024 -1.8665  1.7352
 6352TIP3    H240616   0.397   0.005   2.998  0.5716  2.9681  0.1700
 6353TIP3   OH240617   6.947   1.372   8.121  0.0341  0.7112 -0.1672
 6353TIP3    H140618   6.993   1.372   8.038 -0.8876 -0.3048 -0.7152
 6353TIP3    H240619   6.951   1.281   8.151 -1.0275  0.7245  0.0780
 6354TIP3   OH240620   5.008   4.380   2.362 -0.2387  0.4477  0.7291
 6354TIP3    H140621   5.000   4.315   2.432  0.7205 -0.9710 -0.4253
 6354TIP3    H240622   4.990   4.332   2.282 -0.9901  1.9686 -0.0649
 6355TIP3   OH240623   0.419   3.199   1.866 -0.2859  0.2794  0.2087
 6355TIP3    H140624   0.423   3.104   1.861 -1.2371  0.2721 -0.7177
 6355TIP3    H240625   0.362   3.225   1.794 -0.2828  1.5339  0.6254
 6356TIP3   OH240626   1.644   2.660   1.554  0.1260 -0.0949 -0.4858
 6356TIP3    H140627   1.557   2.669   1.515 -0.3483 -0.0906  0.5644
 6356TIP3    H240628   1.650   2.567   1.576  0.6508 -0.2239 -1.1533
 6357TIP3   OH240629   3.601   1.717   2.604 -0.4495 -0.2100 -0.2904
 6357TIP3    H140630   3.676   1.665   2.632 -0.3535 -0.1581 -0.4467
 6357TIP3    H240631   3.640   1.795   2.563 -0.5788  0.7008  1.2270
 6358TIP3   OH240632   4.874   5.881   8.111 -0.2375 -0.3455 -0.6473
 6358TIP3    H140633   4.821   5.842   8.180 -0.9587  2.5751  0.5763
 6358TIP3    H240634   4.964   5.859   8.135 -0.5040  0.3222  1.0362
 6359TIP3   OH240635   6.836   3.021   1.418 -0.3331  0.1457 -0.4795
 6359TIP3    H140636   6.906   2.976   1.465 -1.9900 -0.2585  1.7731
 6359TIP3    H240637   6.803   2.956   1.356  2.6786  1.0686 -3.2763
 6360TIP3   OH240638   3.830   1.727   1.171  0.2621 -0.5529  0.2622
 6360TIP3    H140639   3.772   1.715   1.096 -0.3691  0.6270  0.5244
 6360TIP3    H240640   3.893   1.793   1.142  0.0794 -0.1690  0.7258
 6361TIP3   OH240641   5.680   0.670   2.450 -0.5116 -0.2455  0.3575
 6361TIP3    H140642   5.697   0.619   2.529 -0.0101  0.1725  0.5255
 6361TIP3    H240643   5.735   0.629   2.383  0.1649  0.2790  0.5778
 6362TIP3   OH240644   2.609   5.657   2.731  1.2977 -0.3123 -0.0588
 6362TIP3    H140645   2.632   5.609   2.652  1.1072 -0.7133  0.1268
 6362TIP3    H240646   2.522   5.625   2.755  2.0942 -1.5795  1.3504
 6363TIP3   OH240647   5.484   0.877   2.186  0.4323 -0.5798 -0.5401
 6363TIP3    H140648   5.570   0.842   2.162  0.2992 -0.8007 -0.6970
 6363TIP3    H240649   5.454   0.925   2.109  1.0263  0.7025 -0.0098
 6364TIP3   OH240650   1.820   4.539   2.508 -0.0157  0.3397  0.0217
 6364TIP3    H140651   1.810   4.608   2.573 -0.5108 -0.3935  0.7484
 6364TIP3    H240652   1.799   4.580   2.425  3.0569  1.9684 -0.0669
 6365TIP3   OH240653   0.897   5.589   8.261  0.2908  0.3982 -0.2777
 6365TIP3    H140654   0.993   5.595   8.254  0.2194  2.4526  0.0213
 6365TIP3    H240655   0.876   5.623   8.348 -0.6287 -1.7348  0.3989
 6366TIP3   OH240656   6.033   5.652   0.634  0.0903 -0.4150  0.2802
 6366TIP3    H140657   5.996   5.738   0.654 -0.5632 -0.4313 -0.8214
 6366TIP3    H240658   6.128   5.664   0.643  0.1979  1.0680 -2.1563
 6367TIP3   OH240659   0.823   4.638   3.095  0.2621 -0.1683  0.1690
 6367TIP3    H140660   0.795   4.589   3.172 -1.2031 -1.1537 -0.9257
 6367TIP3    H240661   0.800   4.582   3.021  1.6290  0.7427 -1.0025
 6368TIP3   OH240662   5.900   1.870   1.364  0.5558  0.1745  0.3376
 6368TIP3    H140663   5.923   1.787   1.323  0.0073  1.0245 -1.7937
 6368TIP3    H240664   5.806   1.878   1.354  0.6875  1.3821 -0.1940
 6369TIP3   OH240665   0.086   5.723   0.364  0.1444 -0.4507 -0.2411
 6369TIP3    H140666   0.109   5.663   0.293  1.2728  1.0437 -1.2381
 6369TIP3    H240667   0.010   5.771   0.331 -1.1937 -1.7623  0.8414
 6370TIP3   OH240668   6.384   2.745   7.453  0.2464  0.2539 -0.0239
 6370TIP3    H140669   6.441   2.816   7.482  1.0485 -0.4960  0.2664
 6370TIP3    H240670   6.296   2.774   7.475  0.6757  0.5679  1.3563
 6371TIP3   OH240671   4.243   3.034   7.962  0.1834 -0.3230  0.3309
 6371TIP3    H140672   4.260   3.119   8.004 -1.7992  0.3212 -0.0361
 6371TIP3    H240673   4.174   2.995   8.016 -1.8739  0.1887 -1.7943
 6372TIP3   OH240674   5.035   4.232   8.375  0.2582 -0.1519 -0.1077
 6372TIP3    H140675   5.037   4.165   8.307  3.8396  0.3628 -0.7321
 6372TIP3    H240676   5.127   4.253   8.391 -0.5569  2.1305  2.5825
 6373TIP3   OH240677   6.773   5.061   2.282  0.1891 -0.2450 -0.3095
 6373TIP3    H140678   6.847   5.050   2.223 -0.6707 -0.6218 -1.3520
 6373TIP3    H240679   6.759   4.973   2.319 -0.1236 -0.3165 -0.5941
 6374TIP3   OH240680   4.895   0.757   2.395 -0.6580 -0.1671  0.1397
 6374TIP3    H140681   4.979   0.711   2.397  0.2768  1.4880  0.8046
 6374TIP3    H240682   4.840   0.709   2.457 -0.4145 -1.5926 -0.7055
 6375TIP3   OH240683   4.835   0.429   0.765 -0.2935 -0.0217  0.2454
 6375TIP3    H140684   4.841   0.391   0.678  0.1721 -0.4822  0.4733
 6375TIP3    H240685   4.872   0.363   0.823 -0.9949  0.0962  0.8492
 6376TIP3   OH240686   2.152   5.238   1.203 -0.4638  0.2472  0.2834
 6376TIP3    H140687   2.072   5.189   1.186  0.0888  0.1060 -2.2656
 6376TIP3    H240688   2.198   5.186   1.269 -0.8278 -1.6275 -0.8652
 6377TIP3   OH240689   2.486   1.252   1.486  0.3915 -0.6091 -0.2475
 6377TIP3    H140690   2.493   1.347   1.499  0.7139 -0.5036 -1.1106
 6377TIP3    H240691   2.402   1.241   1.440  0.5405 -0.7022 -0.4962
 6378TIP3   OH240692   3.367   1.512   1.632 -0.0069  0.4274  0.2376
 6378TIP3    H140693   3.434   1.460   1.589 -1.1531 -0.0460 -1.0309
 6378TIP3    H240694   3.285   1.464   1.618 -1.0244  2.2493 -0.5295
 6379TIP3   OH240695   6.687   5.732   1.908 -0.2201  0.2691 -0.5647
 6379TIP3    H140696   6.629   5.808   1.894  2.9572  3.0809  0.2473
 6379TIP3    H240697   6.707   5.701   1.820 -0.4918  1.2533 -0.9870
 6380TIP3   OH240698   3.382   6.680   1.393 -0.0367  0.2928 -0.5561
 6380TIP3    H140699   3.443   6.628   1.445  0.8916  0.3535 -1.5590
 6380TIP3    H240700   3.380   6.765   1.435  1.8449  0.8061 -1.4384
 6381TIP3   OH240701   1.707   1.221   1.739 -0.5074  0.0615  0.1452
 6381TIP3    H140702   1.659   1.143   1.711  0.6905 -0.1512 -1.4855
 6381TIP3    H240703   1.692   1.285   1.669  1.6210 -0.0575 -0.4758
 6382TIP3   OH240704   4.858   5.315   2.372  0.2520 -0.1110  0.0822
 6382TIP3    H140705   4.824   5.327   2.283  0.0720 -0.2115  0.1362
 6382TIP3    H240706   4.793   5.258   2.415 -0.2523  0.8485  0.6223
 6383TIP3   OH240707   5.317   5.977   1.521  0.3932  0.1975  0.0334
 6383TIP3    H140708   5.242   5.994   1.465 -0.2696 -1.4364  0.3686
 6383TIP3    H240709   5.393   6.003   1.468 -0.2456 -0.6810 -1.3757
 6384TIP3   OH240710   3.911   3.927   8.111 -1.1815 -0.0171 -0.5890
 6384TIP3    H140711   3.829   3.957   8.150 -0.3724  1.6506 -0.0578
 6384TIP3    H240712   3.932   3.993   8.045  0.7823  0.7895  0.7477
 6385TIP3   OH240713   2.461   0.595   1.269 -0.6962 -0.3148 -0.2903
 6385TIP3    H140714   2.505   0.652   1.207 -0.9874  1.6698  1.2296
 6385TIP3    H240715   2.486   0.629   1.355 -2.1480 -1.4997  0.6628
 6386TIP3   OH240716   4.464   6.545   7.935 -0.2101 -0.2910 -0.1820
 6386TIP3    H140717   4.548   6.509   7.964  1.3958  2.1709 -1.4314
 6386TIP3    H240718   4.444   6.498   7.855  1.2194  0.6532 -1.1378
 6387TIP3   OH240719   5.579   5.768   0.594  0.0480  0.3889  0.1784
 6387TIP3    H140720   5.668   5.736   0.576  0.7472  1.6316  1.2646
 6387TIP3    H240721   5.524   5.719   0.533  1.4162 -0.7212 -0.2379
 6388TIP3   OH240722   3.850   3.134   2.817  0.2306 -0.0142 -0.2751
 6388TIP3    H140723   3.929   3.160   2.768 -0.7300 -0.2895 -2.0695
 6388TIP3    H240724   3.784   3.198   2.791  0.0591  0.8221  1.9828
 6389TIP3   OH240725   0.877   5.965   8.163  0.0788  0.4181 -0.5079
 6389TIP3    H140726   0.824   5.971   8.083  0.0307 -0.5595 -0.5673
 6389TIP3    H240727   0.815   5.940   8.231  0.5888 -1.8829 -0.7964
 6390TIP3   OH240728   3.885   5.546   1.229 -0.1104 -0.3673 -0.7996
 6390TIP3    H140729   3.951   5.558   1.298 -0.8316 -0.1720 -0.1303
 6390TIP3    H240730   3.841   5.631   1.222  0.5822 -0.0925 -2.1891
 6391TIP3   OH240731   3.120   0.759   0.687 -0.4040  0.0523 -0.1354
 6391TIP3    H140732   3.135   0.669   0.656 -3.3218 -0.5559 -0.0514
 6391TIP3    H240733   3.181   0.812   0.637  1.7152 -1.9925  0.1055
 6392TIP3   OH240734   6.523   5.082   2.522 -0.0227  0.1671 -0.6462
 6392TIP3    H140735   6.567   5.046   2.600 -0.5457  0.3792 -0.2460
 6392TIP3    H240736   6.534   5.014   2.455  1.0685  0.2960 -0.6144
 6393TIP3   OH240737   2.416   1.517   0.277 -0.1169 -0.0674 -0.2385
 6393TIP3    H140738   2.450   1.511   0.187 -1.2872 -2.1265 -0.6065
 6393TIP3    H240739   2.351   1.447   0.283 -1.4410  1.2184  1.6573
 6394TIP3   OH240740   0.971   4.090   2.622 -0.3940  0.2929  0.7177
 6394TIP3    H140741   0.918   4.170   2.618  0.2949  0.7255  0.0821
 6394TIP3    H240742   1.044   4.112   2.680  1.0294  0.8912 -1.2236
 6395TIP3   OH240743   0.293   5.538   0.705 -0.3757 -0.1162  0.0683
 6395TIP3    H140744   0.350   5.513   0.777 -1.0839 -0.6943  0.4397
 6395TIP3    H240745   0.303   5.468   0.640  0.1417  0.3243 -0.3454
 6396TIP3   OH240746   0.483   4.626   2.200 -0.4835  0.5866 -0.0158
 6396TIP3    H140747   0.439   4.708   2.221  2.1085  1.7831  1.2192
 6396TIP3    H240748   0.556   4.652   2.144  1.5195 -0.5494  1.9374
 6397TIP3   OH240749   6.439   5.877   7.177  0.1891 -0.0869  0.0413
 6397TIP3    H140750   6.522   5.855   7.218 -0.0708  1.4493  1.5076
 6397TIP3    H240751   6.376   5.877   7.250 -0.9762 -0.5269 -0.9207
 6398TIP3   OH240752   3.261   1.584   1.903 -0.5452  0.3151 -0.1020
 6398TIP3    H140753   3.326   1.567   1.835 -0.1877  0.6023  0.1653
 6398TIP3    H240754   3.280   1.521   1.972 -0.5440  0.4012 -0.0222
 6399TIP3   OH240755   0.581   2.359   1.545 -0.0113  0.2170  0.0736
 6399TIP3    H140756   0.491   2.392   1.553 -0.4805 -1.2315  1.5899
 6399TIP3    H240757   0.636   2.437   1.542 -1.3304  1.1488 -1.3634
 6400TIP3   OH240758   4.517   0.882   0.079 -0.6307 -0.1978  0.4927
 6400TIP3    H140759   4.444   0.937   0.049  0.8399  0.2977 -2.5399
 6400TIP3    H240760   4.515   0.806   0.020  2.2852  0.7021 -0.9736
 6401TIP3   OH240761   0.435   6.395   1.990 -0.1872  0.3811  0.4519
 6401TIP3    H140762   0.485   6.353   1.919 -2.3811 -0.1142 -0.8882
 6401TIP3    H240763   0.497   6.456   2.029  2.4276 -2.3694  0.9613
 6402TIP3   OH240764   1.516   1.275   1.953 -0.2763 -0.1665  0.4359
 6402TIP3    H140765   1.548   1.270   2.043  0.7227  1.2930  0.1907
 6402TIP3    H240766   1.595   1.282   1.899 -0.9184  1.2967 -0.3627
 6403TIP3   OH240767   6.780   0.098   2.693 -0.4562  0.0029 -0.3096
 6403TIP3    H140768   6.819   0.104   2.781  0.6053 -0.6145 -0.7148
 6403TIP3    H240769   6.827   0.165   2.642 -1.1748  0.4621 -0.3802
 6404TIP3   OH240770   5.125   0.314   2.383 -0.1056  0.2299  0.6510
 6404TIP3    H140771   5.051   0.300   2.323  0.3943  1.4807 -0.3091
 6404TIP3    H240772   5.109   0.253   2.455  0.2306 -2.7697 -1.5801
 6405TIP3   OH240773   0.054   5.693   1.884 -0.1922 -0.3010 -0.1069
 6405TIP3    H140774   0.006   5.619   1.922 -0.1253 -0.4639 -0.3299
 6405TIP3    H240775   0.022   5.697   1.793  0.2320 -0.4270 -0.2641
 6406TIP3   OH240776   6.029   6.070   0.575 -0.1729  0.8755  0.1439
 6406TIP3    H140777   6.112   6.118   0.575 -0.8391  2.0965  0.9457
 6406TIP3    H240778   5.990   6.091   0.490  1.0260 -1.0232 -0.9292
 6407TIP3   OH240779   2.723   3.405   2.440 -0.9013  0.1576  0.0971
 6407TIP3    H140780   2.759   3.479   2.490  0.0533 -0.3517  0.1856
 6407TIP3    H240781   2.795   3.343   2.434 -1.5257 -0.5301 -0.4644
 6408TIP3   OH240782   6.852   0.829   2.773  0.2503  0.2521  0.2877
 6408TIP3    H140783   6.892   0.882   2.703 -0.0134  0.2767  0.1548
 6408TIP3    H240784   6.773   0.877   2.796 -0.1765 -0.2682 -0.0767
 6409TIP3   OH240785   3.489   2.482   7.788 -0.9940 -0.0885 -0.3064
 6409TIP3    H140786   3.445   2.433   7.718 -2.8628  1.0528 -0.0096
 6409TIP3    H240787   3.418   2.525   7.835  0.4833  2.3916 -0.1597
 6410TIP3   OH240788   3.406   0.874   1.007  0.2629  0.1097 -0.4524
 6410TIP3    H140789   3.427   0.788   1.042 -0.3016  0.5056  0.9269
 6410TIP3    H240790   3.490   0.909   0.977  0.7210 -0.3819  0.2227
 6411TIP3   OH240791   4.911   6.980   0.274  0.1124  0.2963 -0.2688
 6411TIP3    H140792   4.836   6.990   0.333  0.3408  0.0553  0.0650
 6411TIP3    H240793   4.887   6.908   0.216  1.7779 -2.8425  2.5634
 6412TIP3   OH240794   0.162   5.496   8.116 -0.1072  0.1396 -0.3583
 6412TIP3    H140795   0.242   5.444   8.105 -0.3542 -0.4999  0.6955
 6412TIP3    H240796   0.193   5.585   8.130  0.4945 -0.2430  0.9496
 6413TIP3   OH240797   5.497   2.196   2.185 -0.0855  0.7196  0.9625
 6413TIP3    H140798   5.447   2.119   2.160  1.0948  0.3776 -0.4931
 6413TIP3    H240799   5.516   2.183   2.278 -0.3046 -0.5231  0.8452
 6414TIP3   OH240800   3.071   6.107   1.647  0.3902 -0.2452 -0.1482
 6414TIP3    H140801   2.996   6.051   1.626 -0.4852  0.9539 -0.3115
 6414TIP3    H240802   3.073   6.172   1.577  3.5337 -2.0274 -1.9660
 6415TIP3   OH240803   3.097   5.296   0.680  0.0400 -0.8324 -0.1218
 6415TIP3    H140804   3.083   5.222   0.622 -0.5940 -0.4711 -0.4311
 6415TIP3    H240805   3.055   5.370   0.637  3.5723  0.5738 -1.5982
 6416TIP3   OH240806   1.329   6.422   0.672 -0.7563 -0.2917  0.2728
 6416TIP3    H140807   1.304   6.489   0.609  2.4590  0.2235 -0.6155
 6416TIP3    H240808   1.312   6.339   0.628 -1.3553 -0.0206 -0.0268
 6417TIP3   OH240809   5.952   2.888   7.978 -0.4407  0.1126  0.5522
 6417TIP3    H140810   5.967   2.942   8.055 -0.0001  0.3855  0.2805
 6417TIP3    H240811   5.966   2.947   7.904 -4.1442  0.8154  0.1943
 6418TIP3   OH240812   2.591   1.233   0.390  0.2285 -0.1227  0.3126
 6418TIP3    H140813   2.552   1.318   0.370  0.6556 -0.0563 -0.2609
 6418TIP3    H240814   2.582   1.183   0.310 -0.4325 -0.7843  0.7892
 6419TIP3   OH240815   2.053   6.646   0.751  0.1264  0.7245  0.2251
 6419TIP3    H140816   2.127   6.673   0.696 -1.1345  0.9987 -1.4410
 6419TIP3    H240817   2.072   6.554   0.772  1.3516  1.0412  0.5664
 6420TIP3   OH240818   3.022   0.022   0.305 -0.0323 -0.0376  0.2323
 6420TIP3    H140819   3.071   0.085   0.358 -0.5626 -0.1164  0.8359
 6420TIP3    H240820   2.960  -0.018   0.367  1.1736 -2.1074  0.1807
 6421TIP3   OH240821   3.122   4.765   2.108 -0.0187  0.1284  0.2896
 6421TIP3    H140822   3.195   4.818   2.075 -1.0149  1.1918 -0.2779
 6421TIP3    H240823   3.135   4.679   2.068  0.0807  0.7404 -1.0628
 6422TIP3   OH240824   2.939   1.800   8.417 -0.1262  0.3969 -0.2823
 6422TIP3    H140825   2.975   1.878   8.459  1.3778  0.5428 -1.7245
 6422TIP3    H240826   3.004   1.732   8.432  0.5056  0.4701 -2.3311
 6423TIP3   OH240827   6.407   1.767   0.511  0.2740  0.0072  0.7309
 6423TIP3    H140828   6.369   1.752   0.424 -2.3493  1.4099  1.5298
 6423TIP3    H240829   6.363   1.702   0.567  0.4830  0.3997  1.3517
 6424TIP3   OH240830   6.983   3.107   0.247 -0.7181 -0.6725 -0.4003
 6424TIP3    H140831   6.919   3.038   0.262 -1.8137  0.1180 -1.2547
 6424TIP3    H240832   7.020   3.088   0.161  0.6437 -1.4335  0.3141
 6425TIP3   OH240833   2.921   4.617   1.069 -0.2443  0.1866 -0.2024
 6425TIP3    H140834   2.912   4.655   1.157 -1.2297 -0.2780 -0.0873
 6425TIP3    H240835   2.930   4.523   1.084 -0.5918  0.0860 -0.6082
 6426TIP3   OH240836   6.632   2.899   7.950 -0.1379 -0.1369 -0.3699
 6426TIP3    H140837   6.618   2.846   8.028 -0.6682  0.3923 -0.0955
 6426TIP3    H240838   6.727   2.913   7.948 -0.1867  0.4225  0.5810
 6427TIP3   OH240839   2.015   3.590   0.244  0.2386  0.1566 -0.0579
 6427TIP3    H140840   1.952   3.621   0.179 -1.1439  0.9453  1.6030
 6427TIP3    H240841   2.100   3.601   0.201 -0.6777 -0.8035 -2.2976
 6428TIP3   OH240842   3.734   1.726   0.916  0.3214 -0.6030 -0.5090
 6428TIP3    H140843   3.729   1.746   0.823 -1.8357 -0.9289 -0.5001
 6428TIP3    H240844   3.645   1.738   0.949  1.0285 -0.4963  1.5221
 6429TIP3   OH240845   4.372   0.861   3.174 -0.4427  0.0654 -0.1036
 6429TIP3    H140846   4.373   0.832   3.265  0.9688 -1.7956 -0.6642
 6429TIP3    H240847   4.440   0.929   3.171 -1.5213  1.2205  0.5082
 6430TIP3   OH240848   0.289   0.932   0.052  0.1813  0.2201 -0.1890
 6430TIP3    H140849   0.245   0.857   0.011  0.0319  0.0370  0.2971
 6430TIP3    H240850   0.379   0.902   0.065 -0.0172 -0.1020  0.5391
 6431TIP3   OH240851   0.279   3.318   3.039  0.3052 -0.2023 -0.5404
 6431TIP3    H140852   0.315   3.230   3.034 -3.4371 -1.9390 -0.1533
 6431TIP3    H240853   0.262   3.332   3.132  0.9246  1.0126 -0.5843
 6432TIP3   OH240854   1.924   3.196   0.008 -0.0875 -0.4048 -0.2202
 6432TIP3    H140855   1.964   3.165   0.089 -1.6675  0.5456  0.9920
 6432TIP3    H240856   1.976   3.271  -0.017 -0.2406 -0.0187  0.5695
 6433TIP3   OH240857   2.592   4.057   1.624  0.2958 -0.2742 -0.8311
 6433TIP3    H140858   2.565   4.034   1.713 -0.3387 -1.7554 -1.3796
 6433TIP3    H240859   2.567   4.149   1.615 -0.8321 -0.4602  0.0869
 6434TIP3   OH240860   0.705   5.275   2.408  0.0736  0.5416 -0.0556
 6434TIP3    H140861   0.692   5.260   2.314  0.4768  0.2995 -0.0753
 6434TIP3    H240862   0.800   5.272   2.420 -0.0063 -0.0269  0.4572
 6435TIP3   OH240863   6.532   2.058   8.047  0.0739  0.0984 -0.2683
 6435TIP3    H140864   6.526   1.988   7.982 -1.1670  0.0541 -0.1276
 6435TIP3    H240865   6.462   2.119   8.024  0.7907  1.0172 -0.0573
 6436TIP3   OH240866   4.884   6.773   0.089  0.1109  0.3448  0.0115
 6436TIP3    H140867   4.825   6.751   0.018  0.5098 -1.4101  0.1829
 6436TIP3    H240868   4.948   6.833   0.050 -0.3883  0.3626 -0.7809
 6437TIP3   OH240869   6.891   2.249   1.999 -0.1734 -0.2110 -0.1210
 6437TIP3    H140870   6.816   2.305   2.021  0.5435  1.3236 -1.3721
 6437TIP3    H240871   6.864   2.203   1.920 -0.2611 -0.6224  0.1473
 6438TIP3   OH240872   6.305   5.426   0.410  0.2309  0.2073 -0.3997
 6438TIP3    H140873   6.239   5.455   0.347 -0.6799 -0.2138  0.3245
 6438TIP3    H240874   6.290   5.332   0.418  1.6460 -0.0859 -1.0265
 6439TIP3   OH240875   6.940   3.712   2.990 -0.3909  0.0333 -0.4346
 6439TIP3    H140876   6.963   3.625   2.958  1.0969  0.0016  0.6359
 6439TIP3    H240877   6.978   3.716   3.078 -1.6813  1.2470  0.1087
 6440TIP3   OH240878   5.853   3.874   0.291  0.0177  0.0123  0.1313
 6440TIP3    H140879   5.852   3.962   0.253 -1.0095 -0.6037 -1.3858
 6440TIP3    H240880   5.838   3.816   0.216 -1.0524 -1.3448  1.3373
 6441TIP3   OH240881   5.133   6.881   0.775 -0.0096  0.3552 -0.3299
 6441TIP3    H140882   5.218   6.857   0.738  0.0536  0.1965 -0.0831
 6441TIP3    H240883   5.125   6.974   0.757 -0.7939 -0.0436 -2.3980
 6442TIP3   OH240884   2.715   1.521   0.344  0.2755  0.0972  0.5482
 6442TIP3    H140885   2.621   1.534   0.360  0.3672 -0.1766  1.3695
 6442TIP3    H240886   2.743   1.600   0.298 -0.1895  0.5512  1.0358
 6443TIP3   OH240887   4.556   1.756   2.227  0.3779 -0.5948 -0.2200
 6443TIP3    H140888   4.486   1.747   2.162 -0.5352 -1.2514  0.8141
 6443TIP3    H240889   4.595   1.669   2.233  1.8137 -0.0692 -1.3191
 6444TIP3   OH240890   1.840   2.158   0.940 -0.1426  0.7737 -0.0457
 6444TIP3    H140891   1.899   2.083   0.950 -1.8075 -0.6490 -0.4638
 6444TIP3    H240892   1.791   2.140   0.861 -1.5630  1.6232  0.5964
 6445TIP3   OH240893   2.192   2.998   8.326 -0.2345 -0.2783 -0.1971
 6445TIP3    H140894   2.133   3.040   8.264 -0.0607  0.6913  0.2608
 6445TIP3    H240895   2.214   3.068   8.388  0.5949 -0.8882  0.2154
 6446TIP3   OH240896   0.746   5.761   1.077 -0.1568 -0.0810  0.8268
 6446TIP3    H140897   0.836   5.727   1.085 -0.2649 -1.2059 -1.7300
 6446TIP3    H240898   0.758   5.854   1.059  0.4844 -0.1633  0.7798
 6447TIP3   OH240899   3.321   6.775   1.002  0.0604  0.0902 -0.1978
 6447TIP3    H140900   3.380   6.730   1.062  1.7686  1.0939 -1.0694
 6447TIP3    H240901   3.304   6.712   0.932  0.5668 -0.0185 -0.2249
 6448TIP3   OH240902   5.004   0.036   0.545  0.0957  0.3825  0.4675
 6448TIP3    H140903   5.062   0.112   0.542  0.6785 -0.0592  0.4324
 6448TIP3    H240904   4.964   0.034   0.457  2.0812 -0.8738 -0.4744
 6449TIP3   OH240905   2.604   2.094   0.956  0.0832 -0.2435  0.2112
 6449TIP3    H140906   2.622   2.043   1.035  0.6106  0.6617  0.6834
 6449TIP3    H240907   2.623   2.034   0.884 -1.3584 -1.4040  0.7616
 6450TIP3   OH240908   6.591   3.075   2.332 -0.0637  0.4289 -0.0773
 6450TIP3    H140909   6.684   3.073   2.312  0.0947  0.1750  0.6530
 6450TIP3    H240910   6.581   3.151   2.390 -0.3249  0.4983 -0.2109
 6451TIP3   OH240911   0.041   0.745   1.116 -0.6660  0.0536 -0.3275
 6451TIP3    H140912  -0.001   0.742   1.030  1.7256 -1.0956 -1.5556
 6451TIP3    H240913   0.028   0.658   1.152 -0.0170 -0.0750 -0.3941
 6452TIP3   OH240914   2.937   6.220   3.208  0.4772 -0.4153 -0.3923
 6452TIP3    H140915   2.926   6.212   3.302  1.5106  0.0743 -0.2224
 6452TIP3    H240916   2.853   6.254   3.177  0.5987  0.7536  0.5250
 6453TIP3   OH240917   3.303   5.529   0.412  0.2295  0.5123  0.1077
 6453TIP3    H140918   3.211   5.543   0.388  0.1407 -1.7560 -1.1550
 6453TIP3    H240919   3.338   5.618   0.425 -2.0458  1.4419  0.3769
 6454TIP3   OH240920   4.656   0.626   3.075  0.1886 -0.1780  0.1991
 6454TIP3    H140921   4.619   0.633   3.163 -0.8759  1.0574 -0.3031
 6454TIP3    H240922   4.623   0.543   3.041  0.3591 -0.5163  0.8518
 6455TIP3   OH240923   3.419   0.119   0.360 -0.1245  0.2883  0.5891
 6455TIP3    H140924   3.445   0.151   0.274 -1.1839 -0.0357  0.1294
 6455TIP3    H240925   3.358   0.185   0.392  0.0238  0.2498  0.9526
 6456TIP3   OH240926   5.567   2.573   2.455 -0.2706  0.0991 -0.5732
 6456TIP3    H140927   5.658   2.561   2.484 -1.3435  2.5354  5.0496
 6456TIP3    H240928   5.558   2.668   2.442 -2.2807  0.1061  0.4819
 6457TIP3   OH240929   4.361   0.818   0.872  0.3937 -0.0191  0.4793
 6457TIP3    H140930   4.414   0.877   0.818 -1.7614  0.8448 -0.8189
 6457TIP3    H240931   4.399   0.731   0.856  1.5129  0.5651 -0.2431
 6458TIP3   OH240932   3.245   1.914   7.571 -0.4049 -0.3676 -0.2976
 6458TIP3    H140933   3.326   1.882   7.611  0.9921  1.2048 -1.7097
 6458TIP3    H240934   3.260   1.906   7.477 -0.2745  3.4398 -0.7330
 6459TIP3   OH240935   1.117   2.718   7.658 -0.0448  0.5393 -0.6245
 6459TIP3    H140936   1.201   2.674   7.644 -0.6510 -1.7278  1.8954
 6459TIP3    H240937   1.066   2.699   7.580  0.6159 -1.1958 -0.6910
 6460TIP3   OH240938   1.017   5.501   7.377  0.2028 -0.5029  0.1710
 6460TIP3    H140939   1.013   5.420   7.326  1.1267  0.6058 -1.7620
 6460TIP3    H240940   0.933   5.543   7.363  0.2906 -0.4086 -0.0681
 6461TIP3   OH240941   5.945   0.466   0.705 -0.3533 -0.0086  1.1275
 6461TIP3    H140942   5.867   0.430   0.662  1.5288 -0.8873 -1.8823
 6461TIP3    H240943   5.964   0.404   0.775 -0.5004 -1.6758 -0.2420
 6462TIP3   OH240944   3.941   4.921   8.373 -0.2963 -0.8343  0.1300
 6462TIP3    H140945   3.950   4.899   8.466 -0.6877  0.6255  0.5429
 6462TIP3    H240946   4.030   4.926   8.340  0.1624  2.6096  1.4688
 6463TIP3   OH240947   1.913   0.767   2.706  0.1942 -0.6001 -0.5962
 6463TIP3    H140948   1.888   0.736   2.792  0.1483  2.5736  0.6649
 6463TIP3    H240949   1.831   0.791   2.663  0.3553  1.9167  0.2932
 6464TIP3   OH240950   6.094   0.056   1.563  0.0210 -0.4972 -0.2382
 6464TIP3    H140951   6.022   0.066   1.500 -0.4719 -3.3054 -0.2438
 6464TIP3    H240952   6.145  -0.017   1.530  1.1833 -0.4747  1.3691
 6465TIP3   OH240953   2.059   0.865   8.156  0.0061 -0.2825 -0.1148
 6465TIP3    H140954   2.129   0.801   8.146 -0.3505 -0.8826  1.1430
 6465TIP3    H240955   1.979   0.814   8.157 -0.3199  0.2304  0.3734
 6466TIP3   OH240956   4.417   2.193   3.385 -0.3435 -0.2562 -0.7322
 6466TIP3    H140957   4.401   2.101   3.368 -0.6543 -0.1748 -0.8985
 6466TIP3    H240958   4.511   2.200   3.399 -0.3013 -0.5761 -0.8630
 6467TIP3   OH240959   2.462   2.868   8.313 -0.2505 -0.0302 -0.4312
 6467TIP3    H140960   2.367   2.862   8.321 -0.2259 -0.0332 -0.1255
 6467TIP3    H240961   2.477   2.939   8.251 -0.4096  1.3947  1.0904
 6468TIP3   OH240962   2.935   2.111   1.257  0.3449  0.2465 -0.3172
 6468TIP3    H140963   2.980   2.194   1.241  0.7530  0.0583 -0.1504
 6468TIP3    H240964   2.905   2.083   1.170  1.5159 -0.1750 -0.5993
 6469TIP3   OH240965   1.907   2.692   2.076 -0.0031 -0.9834 -0.5104
 6469TIP3    H140966   1.947   2.730   1.998 -1.8489  1.8436 -0.2320
 6469TIP3    H240967   1.960   2.727   2.149 -1.3229  0.7096 -0.2920
 6470TIP3   OH240968   1.919   4.441   0.193 -0.0901 -0.1439  0.7223
 6470TIP3    H140969   1.828   4.468   0.205  0.2836  1.1125  0.8261
 6470TIP3    H240970   1.915   4.345   0.190 -1.2402 -0.1678  2.1237
 6471TIP3   OH240971   4.962   3.341   0.551 -0.0766  0.0474  0.5516
 6471TIP3    H140972   5.001   3.390   0.479 -0.4558  0.2512  0.4809
 6471TIP3    H240973   5.026   3.349   0.623 -1.4856  3.3884  1.6245
 6472TIP3   OH240974   0.490   1.854   2.003  0.1656 -0.3215  0.0463
 6472TIP3    H140975   0.496   1.823   1.913  1.5157  1.1357 -0.4106
 6472TIP3    H240976   0.427   1.926   2.000 -0.1538 -0.5826  0.3704
 6473TIP3   OH240977   2.003   6.618   0.365 -0.0942  0.0297  0.1149
 6473TIP3    H140978   2.056   6.545   0.397  2.7393  0.8307 -2.2794
 6473TIP3    H240979   1.913   6.586   0.366  0.6866 -2.3516  1.9865
 6474TIP3   OH240980   1.225   6.094   1.211  0.6368 -0.4410  0.1100
 6474TIP3    H140981   1.175   6.063   1.135  0.6595  3.5473 -1.8087
 6474TIP3    H240982   1.309   6.049   1.203  0.0421 -1.4054 -1.2039
 6475TIP3   OH240983   6.788   5.330   8.415 -0.0026 -1.3532  0.5021
 6475TIP3    H140984   6.874   5.364   8.390 -0.4022 -0.3285  0.4995
 6475TIP3    H240985   6.803   5.236   8.430  0.6390 -1.6800 -1.7951
 6476TIP3   OH240986   3.655   2.624   1.855 -0.5200  0.6092  0.2985
 6476TIP3    H140987   3.729   2.594   1.909 -1.1974 -1.2453  0.2722
 6476TIP3    H240988   3.691   2.696   1.804  1.0171  0.3656  0.9746
 6477TIP3   OH240989   0.708   3.926   0.555 -0.3810  0.1010 -0.4635
 6477TIP3    H140990   0.654   3.850   0.534  1.9112 -1.1061 -2.5604
 6477TIP3    H240991   0.796   3.890   0.568  0.4581  2.2286  0.2796
 6478TIP3   OH240992   5.401   4.631   2.939 -0.5800  0.2293  0.1999
 6478TIP3    H140993   5.426   4.714   2.980 -0.2327  0.1802  0.0891
 6478TIP3    H240994   5.339   4.657   2.870  0.4814  0.5348 -0.6686
 6479TIP3   OH240995   1.957   0.772   1.149  0.3844  0.3034 -0.2622
 6479TIP3    H140996   1.940   0.708   1.219 -1.9316  0.9580 -0.1495
 6479TIP3    H240997   1.876   0.775   1.099  1.5098  0.9361 -2.1344
 6480TIP3   OH240998   1.364   4.902   2.907  0.3726 -0.8507  0.5644
 6480TIP3    H140999   1.420   4.951   2.847  1.1241 -0.6198  1.4360
 6480TIP3    H241000   1.402   4.917   2.994 -1.3776 -0.1871  1.2681
 6481TIP3   OH241001   6.207   6.051   1.630  0.1315 -0.4135  0.4125
 6481TIP3    H141002   6.178   6.121   1.689 -1.5896 -0.8300  0.1379
 6481TIP3    H241003   6.168   6.074   1.545 -1.2341 -2.0951  0.5089
 6482TIP3   OH241004   6.392   2.007   2.607  0.2078 -0.2687  0.0508
 6482TIP3    H141005   6.397   2.069   2.679  1.3480  0.7526 -0.8415
 6482TIP3    H241006   6.389   2.063   2.528 -0.4447 -1.3453 -0.7168
 6483TIP3   OH241007   6.070   5.454   8.301  0.9899  0.5437  0.4263
 6483TIP3    H141008   5.998   5.475   8.240 -0.2415 -0.9027  1.3173
 6483TIP3    H241009   6.081   5.359   8.293  1.6100  0.5074  1.5810
 6484TIP3   OH241010   1.129   2.867   2.826 -0.1122  0.0275 -0.1900
 6484TIP3    H141011   1.102   2.833   2.911  0.6825  0.0983  0.1026
 6484TIP3    H241012   1.156   2.957   2.843 -0.4269  0.2045 -0.6138
 6485TIP3   OH241013   5.426   1.889   2.966  0.0845  0.0702  0.2461
 6485TIP3    H141014   5.410   1.939   2.886  0.3869 -0.8202 -0.3784
 6485TIP3    H241015   5.509   1.924   3.000 -0.0522  0.4579  0.1864
 6486TIP3   OH241016   4.547   5.377   2.495 -0.1268  0.1905  0.0051
 6486TIP3    H141017   4.485   5.443   2.466 -0.6556  0.6146  1.9211
 6486TIP3    H241018   4.591   5.418   2.570 -0.6191 -1.6654  1.3827
 6487TIP3   OH241019   1.256   5.686   2.375 -0.1287 -0.1215 -0.0739
 6487TIP3    H141020   1.335   5.731   2.346 -0.0487  0.1944  0.6124
 6487TIP3    H241021   1.188   5.754   2.375 -0.0182  0.0123  0.9186
 6488TIP3   OH241022   0.940   2.272   2.184 -0.0817  0.1556  0.2010
 6488TIP3    H141023   0.877   2.200   2.195 -0.7460  0.3645 -1.7575
 6488TIP3    H241024   0.893   2.350   2.214 -0.0441  0.0407  0.5610
 6489TIP3   OH241025   6.326   5.865   3.074 -0.3149 -0.4522 -0.3134
 6489TIP3    H141026   6.294   5.810   3.003 -4.1745  1.0242  0.0548
 6489TIP3    H241027   6.268   5.846   3.148  0.4378  1.5498  0.8889
 6490TIP3   OH241028   4.691   4.759   0.264  0.0240  0.2540 -0.0343
 6490TIP3    H141029   4.634   4.700   0.215 -1.3384  0.3791  1.3177
 6490TIP3    H241030   4.686   4.842   0.217 -1.0628  0.3054  0.1467
 6491TIP3   OH241031   3.773   1.981   0.704 -0.1322  0.2161 -0.5263
 6491TIP3    H141032   3.803   1.923   0.633  0.4186 -2.8827  1.9767
 6491TIP3    H241033   3.681   1.959   0.716  0.1092 -0.2828  0.5259
 6492TIP3   OH241034   1.765   4.045   3.372  0.0940 -0.1301  0.1490
 6492TIP3    H141035   1.675   4.050   3.404 -0.3291  1.6264 -1.1551
 6492TIP3    H241036   1.765   3.971   3.311 -0.6893  0.2912 -0.3838
 6493TIP3   OH241037   6.315   1.541   0.737  0.5158 -0.4400 -0.0013
 6493TIP3    H141038   6.392   1.523   0.684  0.1222 -0.2005 -0.6641
 6493TIP3    H241039   6.243   1.498   0.691  0.2155 -0.4868  0.5015
 6494TIP3   OH241040   5.045   0.709   0.520  0.4250 -0.1791  0.2120
 6494TIP3    H141041   4.966   0.688   0.471 -0.0045 -2.1568  1.6436
 6494TIP3    H241042   5.113   0.655   0.480  0.9536  0.9717 -0.5355
 6495TIP3   OH241043   6.669   5.630   2.488 -0.1333  0.0893 -0.0606
 6495TIP3    H141044   6.669   5.692   2.560 -1.2578  1.5444 -1.2477
 6495TIP3    H241045   6.613   5.558   2.517  0.2603  0.1602  0.8897
 6496TIP3   OH241046   0.569   2.882   2.929 -0.1203  0.1371  0.0140
 6496TIP3    H141047   0.547   2.969   2.896  1.6754  0.4119 -0.5679
 6496TIP3    H241048   0.638   2.897   2.993  0.2000 -0.8641 -0.0734
 6497TIP3   OH241049   6.418   4.198   0.359 -0.4270  0.4506 -0.2760
 6497TIP3    H141050   6.414   4.238   0.445  0.4620 -0.0481  0.0174
 6497TIP3    H241051   6.341   4.231   0.312 -0.7453  0.9634  0.5992
 6498TIP3   OH241052   0.592   5.896   0.043  0.0149  0.3856  0.2263
 6498TIP3    H141053   0.610   5.981   0.002  0.6771  0.4141  0.5596
 6498TIP3    H241054   0.514   5.864  -0.002 -0.0489  1.0225 -0.1321
 6499TIP3   OH241055   6.738   5.624   0.480  0.7695 -0.0250 -0.1597
 6499TIP3    H141056   6.643   5.613   0.478  1.0203 -2.6666 -1.3495
 6499TIP3    H241057   6.755   5.695   0.418 -0.3336 -0.4598 -0.9915
 6500TIP3   OH241058   1.113   4.109   2.269  0.1264 -0.1242  0.0852
 6500TIP3    H141059   1.108   4.017   2.243  0.5272  0.2818 -1.5688
 6500TIP3    H241060   1.153   4.108   2.355  0.5479 -1.4815 -0.1127
 6501TIP3   OH241061   2.447   3.252   1.910 -0.1502 -0.0396 -0.6193
 6501TIP3    H141062   2.538   3.281   1.908  0.3557 -1.5591 -1.6034
 6501TIP3    H241063   2.439   3.192   1.836 -1.2951 -1.8216  0.8625
 6502TIP3   OH241064   0.964   5.379   2.274  0.2239 -0.0110  0.1623
 6502TIP3    H141065   1.009   5.297   2.293  0.1136 -0.2436 -0.5566
 6502TIP3    H241066   1.032   5.446   2.283  0.0510 -0.0363  1.8942
 6503TIP3   OH241067   4.820   3.933   3.161 -0.6181  0.1967 -1.1154
 6503TIP3    H141068   4.782   4.016   3.133  0.5210  1.1515 -0.0016
 6503TIP3    H241069   4.748   3.887   3.204 -1.0812  0.9660 -1.0372
 6504TIP3   OH241070   3.805   3.369   8.008  0.3352 -0.1749 -0.7022
 6504TIP3    H141071   3.774   3.339   8.093  2.3345  0.7064  0.4085
 6504TIP3    H241072   3.889   3.324   7.996  1.4786  1.8556 -0.8120
 6505TIP3   OH241073   1.064   4.496   3.145  0.0586  0.7565  0.1694
 6505TIP3    H141074   0.990   4.527   3.197 -0.5920  0.2024 -0.3899
 6505TIP3    H241075   1.131   4.563   3.156 -0.6315  1.4241  0.4480
 6506TIP3   OH241076   0.748   6.530   7.697  0.2422 -0.2517 -0.1805
 6506TIP3    H141077   0.783   6.607   7.741 -0.1670  1.2130 -2.2380
 6506TIP3    H241078   0.769   6.457   7.754 -1.5872  1.6046  3.1895
 6507TIP3   OH241079   5.563   0.223   7.615  0.6281 -0.3195 -0.0034
 6507TIP3    H141080   5.548   0.174   7.534 -0.6457 -0.3480  0.2309
 6507TIP3    H241081   5.655   0.251   7.609  0.8040 -1.0424 -1.0518
 6508TIP3   OH241082   3.199   2.118   1.395 -0.4667 -0.1228  0.0557
 6508TIP3    H141083   3.164   2.181   1.332 -1.1385 -0.7847 -0.2466
 6508TIP3    H241084   3.132   2.049   1.400 -0.4664 -0.0483  1.5423
 6509TIP3   OH241085   2.829   2.060   2.186  0.2032 -0.0195  0.2612
 6509TIP3    H141086   2.905   2.038   2.241 -0.7628 -2.8046  0.6757
 6509TIP3    H241087   2.866   2.071   2.099  1.2525 -0.0872  0.6761
 6510TIP3   OH241088   2.002   5.039   2.456 -0.0359  0.1843 -0.5503
 6510TIP3    H141089   1.930   5.084   2.412 -2.6830 -2.2010  1.0452
 6510TIP3    H241090   1.997   5.070   2.546  0.7684 -0.2248 -0.3602
 6511TIP3   OH241091   6.233   3.566   7.887 -0.2848  0.4463 -0.6227
 6511TIP3    H141092   6.309   3.624   7.878 -0.7114  1.3421  1.0150
 6511TIP3    H241093   6.262   3.483   7.850  2.0595  0.2917  1.2762
 6512TIP3   OH241094   1.044   5.950   3.054 -0.1387 -0.2185  0.8344
 6512TIP3    H141095   0.996   6.030   3.075 -0.2281 -0.4569  1.5870
 6512TIP3    H241096   0.976   5.883   3.046 -0.0885 -0.1672 -0.0869
 6513TIP3   OH241097   2.879   4.677   1.988  0.1436  0.2897 -0.8733
 6513TIP3    H141098   2.836   4.752   1.945  0.1168  0.4426 -0.5834
 6513TIP3    H241099   2.968   4.707   2.005 -0.1392  0.5946  0.0949
 6514TIP3   OH241100   6.422   0.535   1.722 -0.2527  0.3066  0.8481
 6514TIP3    H141101   6.489   0.470   1.742 -0.3142  0.2176  0.7672
 6514TIP3    H241102   6.383   0.557   1.806 -0.0200  0.4693  0.9145
 6515TIP3   OH241103   6.396   5.626   2.131  0.8154 -0.2334  0.3587
 6515TIP3    H141104   6.381   5.719   2.116  1.0895  0.0066  1.4589
 6515TIP3    H241105   6.489   5.613   2.113  0.2744 -0.8900 -2.4685
 6516TIP3   OH241106   4.747   3.000   1.748  0.1207  0.5343 -0.2003
 6516TIP3    H141107   4.697   3.032   1.672 -0.4160  0.8057  0.2630
 6516TIP3    H241108   4.799   3.076   1.775 -0.5109  0.7661  0.3737
 6517TIP3   OH241109   4.720   1.884   1.548 -0.0264  0.1853  0.0717
 6517TIP3    H141110   4.719   1.789   1.542 -1.6567  0.2215 -0.7230
 6517TIP3    H241111   4.636   1.907   1.588  0.4446  1.2898  0.4854
 6518TIP3   OH241112   0.894   4.226   0.627  0.3918  0.2893  0.2294
 6518TIP3    H141113   0.938   4.307   0.604  1.8042  0.2972  2.6509
 6518TIP3    H241114   0.960   4.174   0.672 -1.3196 -0.8805  1.5249
 6519TIP3   OH241115   2.262   5.305   7.875 -0.5672  0.0822  0.2069
 6519TIP3    H141116   2.236   5.355   7.798  2.1794  0.6750 -0.4563
 6519TIP3    H241117   2.198   5.235   7.881 -0.9908  0.1315 -2.5208
 6520TIP3   OH241118   0.313   5.284   0.186 -0.0649  0.4495 -0.0489
 6520TIP3    H141119   0.387   5.235   0.223  0.1021  0.7531  0.0167
 6520TIP3    H241120   0.296   5.241   0.102  1.6521  1.7750 -1.1304
 6521TIP3   OH241121   6.979   4.409   2.480 -0.7043 -0.7758 -0.0566
 6521TIP3    H141122   6.957   4.497   2.510  0.0596 -1.4487  2.8724
 6521TIP3    H241123   7.047   4.422   2.414 -1.4079  0.8369 -0.5070
 6522TIP3   OH241124   0.162   4.692   3.111 -0.2243 -0.0063 -0.0849
 6522TIP3    H141125   0.153   4.677   3.205 -1.3924  2.0727  0.2095
 6522TIP3    H241126   0.256   4.696   3.096 -0.0221  1.0664  1.2872
 6523TIP3   OH241127   2.040   1.584   1.513 -0.4831  0.1569  0.6527
 6523TIP3    H141128   2.043   1.503   1.565 -1.5499 -0.2027  0.1812
 6523TIP3    H241129   2.000   1.649   1.571 -1.1385 -0.0944  0.4957
 6524TIP3   OH241130   1.991   4.742   1.371 -0.0727 -0.2207 -0.6804
 6524TIP3    H141131   1.978   4.700   1.456 -1.0660  0.0400 -0.6937
 6524TIP3    H241132   1.904   4.770   1.345  0.2133 -0.3402 -1.8151
 6525TIP3   OH241133   2.723   1.684   1.105 -0.4733  0.1885  0.0971
 6525TIP3    H141134   2.771   1.742   1.165 -0.4695  1.1751 -0.8304
 6525TIP3    H241135   2.640   1.729   1.090 -0.8054 -0.4537  0.0015
 6526TIP3   OH241136   2.395   2.908   0.181 -0.3648 -0.0300  0.3150
 6526TIP3    H141137   2.454   2.950   0.119 -1.5901  0.8656 -0.2965
 6526TIP3    H241138   2.420   2.944   0.266  0.6471 -0.4823  0.2262
 6527TIP3   OH241139   0.048   1.509   1.217 -0.6261 -0.2388  0.2200
 6527TIP3    H141140  -0.021   1.503   1.283 -1.6440  1.6042 -0.5799
 6527TIP3    H241141   0.038   1.597   1.180  1.4058 -0.3538 -0.7701
 6528TIP3   OH241142   1.128   1.623   0.253 -0.3970 -0.3568  0.0838
 6528TIP3    H141143   1.194   1.569   0.208  1.3051  0.6267  1.2959
 6528TIP3    H241144   1.119   1.582   0.339  1.4699  1.5770  1.3023
 6529TIP3   OH241145   5.486   4.856   3.041 -0.2459  0.1284 -0.5413
 6529TIP3    H141146   5.477   4.935   2.988  2.0623 -0.5531 -2.1131
 6529TIP3    H241147   5.580   4.835   3.037 -0.6427 -2.1708  0.5859
 6530TIP3   OH241148   4.101   2.888   1.269 -0.3686  0.6357 -0.0141
 6530TIP3    H141149   4.188   2.849   1.256 -0.5929  0.7538 -2.3145
 6530TIP3    H241150   4.106   2.930   1.354  1.8525  0.6489 -0.0939
 6531TIP3   OH241151   0.048   1.084   8.098 -0.2053  0.9951  0.0401
 6531TIP3    H141152   0.089   1.002   8.126  0.3604  1.6947  1.3335
 6531TIP3    H241153   0.111   1.124   8.038 -0.5654  0.4089 -0.7433
 6532TIP3   OH241154   0.497   5.894   2.888  0.6015 -0.2186  0.1416
 6532TIP3    H141155   0.553   5.851   2.953 -0.8269  0.2607  1.7841
 6532TIP3    H241156   0.431   5.940   2.941 -0.0246  1.0435 -1.6454
 6533TIP3   OH241157   5.647   6.906   2.380 -0.2151 -0.2349 -0.2405
 6533TIP3    H141158   5.571   6.941   2.332 -0.3114 -0.6493 -0.3962
 6533TIP3    H241159   5.611   6.832   2.430  0.3609 -1.4072 -1.4883
 6534TIP3   OH241160   6.466   3.399   0.500 -0.0380  0.7468  0.1389
 6534TIP3    H141161   6.456   3.441   0.415 -1.5185 -2.5065 -1.4749
 6534TIP3    H241162   6.551   3.428   0.532  0.4885  2.2111 -2.3824
 6535TIP3   OH241163   2.603   6.901   2.104  0.5642 -0.0141 -0.1360
 6535TIP3    H141164   2.626   6.926   2.193 -1.1296  1.0517  0.0491
 6535TIP3    H241165   2.524   6.951   2.084  1.1120  0.1063 -2.3857
 6536TIP3   OH241166   5.399   2.386   7.927  0.2114 -0.1891 -0.3417
 6536TIP3    H141167   5.473   2.351   7.878 -0.8419 -1.0289 -1.4049
 6536TIP3    H241168   5.324   2.333   7.897 -0.5471 -0.4558  1.8773
 6537TIP3   OH241169   5.001   4.442   7.844  0.0708  0.3003  0.0455
 6537TIP3    H141170   5.065   4.403   7.783 -0.8738 -0.9135 -0.2189
 6537TIP3    H241171   5.000   4.382   7.919  0.5285  1.2793  0.8545
 6538TIP3   OH241172   1.949   1.614   0.986  0.1478  0.1996 -0.3802
 6538TIP3    H141173   1.999   1.629   1.066  0.1986 -0.9308 -0.1823
 6538TIP3    H241174   1.946   1.699   0.942  0.7056  0.6700  0.4856
 6539TIP3   OH241175   4.097   2.963   0.152  0.3189 -0.1119 -0.2115
 6539TIP3    H141176   4.044   3.043   0.156  1.6694  0.7681  1.8434
 6539TIP3    H241177   4.034   2.893   0.133 -0.8611  1.4206 -2.4193
 6540TIP3   OH241178   6.057   0.472   7.593 -0.4553  0.0575  0.2276
 6540TIP3    H141179   6.153   0.479   7.594 -0.4854  0.4326  0.3912
 6540TIP3    H241180   6.029   0.500   7.680 -0.6242 -1.4686  0.6954
 6541TIP3   OH241181   1.807   3.570   7.478 -0.3608 -0.3988  0.2141
 6541TIP3    H141182   1.810   3.546   7.385 -0.7681 -3.4146  0.8843
 6541TIP3    H241183   1.715   3.595   7.493 -0.7159 -1.6021  0.1444
 6542TIP3   OH241184   6.083   6.031   0.086  0.1890  0.1210  0.3860
 6542TIP3    H141185   6.153   6.012   0.023 -2.4983 -1.3275 -2.4459
 6542TIP3    H241186   6.056   5.945   0.119 -0.9947  0.5232  0.5204
 6543TIP3   OH241187   6.922   6.960   7.321  0.2097  0.0500 -0.8389
 6543TIP3    H141188   6.827   6.958   7.309  0.1247 -2.4325 -0.2095
 6543TIP3    H241189   6.938   7.043   7.365 -1.9868 -0.4959  1.2079
 6544TIP3   OH241190   2.462   1.465   2.177 -0.3327  0.0316  0.2290
 6544TIP3    H141191   2.546   1.431   2.210 -0.0992  0.9549  0.6038
 6544TIP3    H241192   2.444   1.411   2.101  0.7195 -0.0482  0.0115
 6545TIP3   OH241193   5.878   1.574   3.019  0.1211 -0.4559 -1.1203
 6545TIP3    H141194   5.903   1.655   3.064 -1.1216 -1.3991  1.4672
 6545TIP3    H241195   5.961   1.527   3.007  0.5570  0.0671 -0.2903
 6546TIP3   OH241196   4.931   2.124   1.865  0.3318  0.3907 -0.2717
 6546TIP3    H141197   5.010   2.173   1.890  0.7876 -0.5671  0.1934
 6546TIP3    H241198   4.880   2.118   1.946  0.0809  0.4427 -0.4232
 6547TIP3   OH241199   1.268   0.915   8.229 -0.0528  0.0286  0.7016
 6547TIP3    H141200   1.359   0.923   8.255  0.3947  0.3898 -0.9181
 6547TIP3    H241201   1.219   0.960   8.298  0.9983  0.0797  1.4303
 6548TIP3   OH241202   6.696   1.295   7.882  0.4062 -0.5481  0.2877
 6548TIP3    H141203   6.757   1.268   7.813 -0.8974 -0.1000 -1.0927
 6548TIP3    H241204   6.724   1.246   7.959  2.7484 -0.0392 -0.1707
 6549TIP3   OH241205   1.199   6.119   1.647 -0.0799  0.3132 -0.1933
 6549TIP3    H141206   1.222   6.164   1.565  0.9126 -0.4086 -0.3349
 6549TIP3    H241207   1.247   6.167   1.714  0.8973 -0.4215 -0.3321
 6550TIP3   OH241208   4.250   5.121   7.834 -0.0688  0.5554  0.4976
 6550TIP3    H141209   4.176   5.171   7.798 -0.4779  0.6911  1.5139
 6550TIP3    H241210   4.235   5.031   7.805  0.4559  0.9174 -1.0065
 6551TIP3   OH241211   5.331   0.399   2.245 -0.1544  0.4749  0.2319
 6551TIP3    H141212   5.410   0.399   2.299 -0.7717  0.2151  1.1500
 6551TIP3    H241213   5.264   0.361   2.301 -1.2195  1.7782 -0.1199
 6552TIP3   OH241214   4.276   0.598   2.109 -0.2316 -0.5679 -0.0536
 6552TIP3    H141215   4.341   0.597   2.179 -0.6657  2.3374  0.5198
 6552TIP3    H241216   4.201   0.644   2.147 -1.1604 -0.4996 -1.8858
 6553TIP3   OH241217   1.582   5.315   1.374  0.5671  0.3583  0.1537
 6553TIP3    H141218   1.638   5.306   1.450 -0.7075  0.7085  1.1798
 6553TIP3    H241219   1.553   5.407   1.377 -0.0077  0.1992 -0.3715
 6554TIP3   OH241220   4.776   3.545   0.420  0.1805  0.1311  0.0859
 6554TIP3    H141221   4.771   3.554   0.515  0.7050 -1.7029  0.3259
 6554TIP3    H241222   4.689   3.519   0.393  0.1361  0.2588  0.1032
 6555TIP3   OH241223   3.110   4.299   1.709 -0.0384 -0.0629  0.2541
 6555TIP3    H141224   3.164   4.315   1.786 -1.6077 -0.2748  1.4583
 6555TIP3    H241225   3.082   4.207   1.717  0.8535 -0.5161 -1.3078
 6556TIP3   OH241226   3.315   4.543   1.335 -0.0869  0.0982 -0.4180
 6556TIP3    H141227   3.334   4.450   1.322  1.5380  0.3390  0.0051
 6556TIP3    H241228   3.303   4.551   1.430 -1.6283  0.1079 -0.5858
 6557TIP3   OH241229   5.447   0.196   0.969  0.0224  0.5403  0.4538
 6557TIP3    H141230   5.542   0.184   0.961  0.0963  1.0465  0.5177
 6557TIP3    H241231   5.415   0.113   1.004  0.3019 -0.0339 -0.6168
 6558TIP3   OH241232   3.249   5.761   1.621 -0.4410 -0.3043  0.6457
 6558TIP3    H141233   3.163   5.725   1.596 -0.3271 -0.3290  0.2813
 6558TIP3    H241234   3.305   5.684   1.632 -0.2946 -0.2556  0.2356
 6559TIP3   OH241235   0.858   2.004   2.237 -0.2202 -0.6152  0.0618
 6559TIP3    H141236   0.811   1.934   2.192 -2.0737 -0.6234  1.8648
 6559TIP3    H241237   0.942   1.965   2.261 -0.5499 -1.6597 -0.4194
 6560TIP3   OH241238   4.871   4.495   0.422  0.5505  1.0991  0.2854
 6560TIP3    H141239   4.845   4.474   0.332  1.9222 -0.0843  0.1323
 6560TIP3    H241240   4.821   4.573   0.444  0.2961  1.4900 -1.5637
 6561TIP3   OH241241   0.730   0.793   0.720  0.7632  0.3773  0.2308
 6561TIP3    H141242   0.695   0.814   0.633 -0.2383  0.6170  0.6820
 6561TIP3    H241243   0.819   0.829   0.720  0.9141  0.0427 -0.8201
 6562TIP3   OH241244   3.310   6.605   0.771  0.1634  0.1041  0.1551
 6562TIP3    H141245   3.350   6.607   0.685 -0.5066 -0.2463 -0.1760
 6562TIP3    H241246   3.216   6.595   0.754  0.0150  0.0746  0.9196
 6563TIP3   OH241247   6.315   2.901   0.320 -0.0764  0.0136 -0.3393
 6563TIP3    H141248   6.252   2.904   0.392  0.0505 -1.1051 -0.1600
 6563TIP3    H241249   6.390   2.952   0.351 -0.4782  0.4941 -0.1459
 6564TIP3   OH241250   3.739   2.430   0.184  1.0071  0.3099  0.3121
 6564TIP3    H141251   3.767   2.408   0.095 -1.4892 -1.4004 -0.1659
 6564TIP3    H241252   3.765   2.354   0.236 -3.4064 -2.0031 -0.4033
 6565TIP3   OH241253   4.642   3.764   3.265 -0.3129 -0.6793  0.2410
 6565TIP3    H141254   4.592   3.749   3.345  0.8980 -0.8606  0.9945
 6565TIP3    H241255   4.613   3.697   3.204 -2.7426  0.6930 -0.2440
 6566TIP3   OH241256   1.934   2.663   8.270  0.3888 -0.4041 -0.0963
 6566TIP3    H141257   1.956   2.571   8.255  2.0008 -0.0551 -0.0095
 6566TIP3    H241258   2.005   2.697   8.323 -0.1601  0.9170 -0.1618
 6567TIP3   OH241259   2.471   2.647   0.605  0.1574  0.1386  0.3074
 6567TIP3    H141260   2.499   2.662   0.515  0.7792  0.7235  0.5817
 6567TIP3    H241261   2.483   2.553   0.619 -3.1702 -0.6846 -1.2508
 6568TIP3   OH241262   4.345   5.813   2.314 -0.0541  0.9587  0.3341
 6568TIP3    H141263   4.389   5.764   2.244  0.7475  0.5249  1.1113
 6568TIP3    H241264   4.265   5.847   2.274  0.4292  0.7949 -0.8123
 6569TIP3   OH241265   6.158   4.939   2.613 -0.0272 -0.9242 -0.0629
 6569TIP3    H141266   6.063   4.938   2.614 -0.2807  2.9861 -1.7526
 6569TIP3    H241267   6.183   4.865   2.558 -2.0711 -2.0035  0.4067
 6570TIP3   OH241268   5.576   2.026   0.621  0.6947  0.0085  0.5387
 6570TIP3    H141269   5.597   2.075   0.542  5.1771 -1.6589  0.3991
 6570TIP3    H241270   5.614   2.078   0.692 -0.0098 -0.3082  1.1630
 6571TIP3   OH241271   3.012   6.070   3.610  0.0120  0.3218 -0.6291
 6571TIP3    H141272   2.945   6.069   3.542 -1.1685  0.2560  0.5013
 6571TIP3    H241273   3.082   6.014   3.576  0.6228  2.3516 -2.8990
 6572TIP3   OH241274   3.321   1.635   2.609 -0.4379  0.6421 -0.1050
 6572TIP3    H141275   3.391   1.689   2.646  0.3812 -0.3733 -0.1478
 6572TIP3    H241276   3.356   1.546   2.610 -1.8720  0.0584  0.2109
 6573TIP3   OH241277   5.720   5.530   1.103 -0.3668 -0.2331 -0.6547
 6573TIP3    H141278   5.761   5.583   1.034  0.6817 -1.5062 -1.0571
 6573TIP3    H241279   5.744   5.574   1.184 -0.1374  0.3202 -1.0155
 6574TIP3   OH241280   2.725   0.892   2.570  0.7683 -0.3183  0.5276
 6574TIP3    H141281   2.742   0.950   2.497  0.4099 -0.8989 -0.0289
 6574TIP3    H241282   2.720   0.805   2.531 -0.1926 -0.5491  1.1149
 6575TIP3   OH241283   0.414   6.939   2.441 -0.1235  0.0132  0.6154
 6575TIP3    H141284   0.374   7.013   2.485 -1.6284  0.8065 -1.9008
 6575TIP3    H241285   0.342   6.879   2.423  0.4422 -0.3115 -0.6931
 6576TIP3   OH241286   4.512   2.090   1.373 -0.1863  0.2735  0.3729
 6576TIP3    H141287   4.587   2.031   1.365 -1.4776 -1.5196  1.0782
 6576TIP3    H241288   4.523   2.132   1.458 -0.3070 -0.4405  0.7394
 6577TIP3   OH241289   1.436   0.430   1.016  0.2904 -0.1728  0.1432
 6577TIP3    H141290   1.423   0.398   1.105 -2.5039 -0.0804 -0.1370
 6577TIP3    H241291   1.384   0.510   1.012  0.1469 -0.3184 -1.6455
 6578TIP3   OH241292   5.858   2.378   7.401  0.0966 -0.1314 -0.5859
 6578TIP3    H141293   5.882   2.470   7.396 -1.2683  0.6983  3.8498
 6578TIP3    H241294   5.927   2.338   7.456 -1.4743 -0.6747  1.0964
 6579TIP3   OH241295   5.989   0.341   1.889 -0.1346 -0.1252 -0.0912
 6579TIP3    H141296   6.057   0.339   1.956  0.6598  0.9518 -0.8477
 6579TIP3    H241297   5.974   0.249   1.867  0.8561 -0.3832  0.3030
 6580TIP3   OH241298   4.957   2.971   2.579  0.3285  0.0866  1.1272
 6580TIP3    H141299   4.958   2.879   2.606  1.2636 -0.3579 -0.2655
 6580TIP3    H241300   5.050   2.994   2.572  0.2392 -0.0475 -2.1145
 6581TIP3   OH241301   4.983   3.447   0.259 -0.6790 -0.5879 -0.2032
 6581TIP3    H141302   4.919   3.497   0.310 -0.9810 -1.3193  0.1469
 6581TIP3    H241303   5.034   3.514   0.214 -0.8489  0.0502  0.5238
 6582TIP3   OH241304   5.516   5.088   2.149  0.2913  0.2924  0.6794
 6582TIP3    H141305   5.581   5.126   2.208 -1.1412  2.2308  1.1063
 6582TIP3    H241306   5.544   4.997   2.137  3.1877  1.1001  0.6305
 6583TIP3   OH241307   2.819   1.801   8.166 -0.4580 -0.3004 -0.4331
 6583TIP3    H141308   2.853   1.810   8.254  0.5481  0.5598 -0.8851
 6583TIP3    H241309   2.891   1.829   8.109 -2.1662  2.5623 -1.4026
 6584TIP3   OH241310   0.442   5.457   3.527  0.0298  0.5821 -0.1475
 6584TIP3    H141311   0.487   5.536   3.559  0.2268  0.0024  1.0772
 6584TIP3    H241312   0.513   5.395   3.511 -0.2367  0.0253  0.7571
 6585TIP3   OH241313   0.025   4.044   1.458  0.1660  0.4280 -0.3151
 6585TIP3    H141314   0.115   4.057   1.427  0.5349 -1.6811 -0.3091
 6585TIP3    H241315  -0.014   4.132   1.458  1.5896  1.1305 -2.2924
 6586TIP3   OH241316   1.128   0.101   2.392  0.0706 -0.3582  0.4089
 6586TIP3    H141317   1.127   0.194   2.368 -0.6203  0.1454  2.1767
 6586TIP3    H241318   1.036   0.075   2.388  0.4878 -1.7364 -2.5777
 6587TIP3   OH241319   3.457   3.893   0.745 -0.0731 -0.2609 -0.1798
 6587TIP3    H141320   3.420   3.874   0.832 -1.1260 -0.2745 -0.6177
 6587TIP3    H241321   3.391   3.948   0.703 -0.0347 -1.0827 -1.3469
 6588TIP3   OH241322   3.059   2.434   8.233 -0.3069 -1.3316 -0.3291
 6588TIP3    H141323   3.152   2.437   8.255 -0.2777  0.5011 -0.6340
 6588TIP3    H241324   3.015   2.422   8.318  0.1883 -2.3385 -0.2010
 6589TIP3   OH241325   1.752   6.807   1.168  0.1029  0.5869  0.4460
 6589TIP3    H141326   1.753   6.787   1.261 -0.1358 -1.7027  0.0235
 6589TIP3    H241327   1.791   6.730   1.127  0.6146  1.7271 -1.3343
 6590TIP3   OH241328   1.184   0.652   8.341  0.8317 -0.0167  0.3466
 6590TIP3    H141329   1.226   0.607   8.415  1.4176  0.6764  0.4419
 6590TIP3    H241330   1.235   0.732   8.329  0.5956 -0.0058 -0.6642
 6591TIP3   OH241331   0.466   0.011   1.363 -0.3076  0.3491  0.0019
 6591TIP3    H141332   0.548   0.058   1.380 -0.5685  0.1242  2.1453
 6591TIP3    H241333   0.443   0.035   1.273  1.2258  1.7584 -0.0667
 6592TIP3   OH241334   2.809   0.520   2.928 -0.3894 -0.5137  0.2222
 6592TIP3    H141335   2.882   0.500   2.986 -1.2781  0.8392  1.9031
 6592TIP3    H241336   2.751   0.444   2.936  0.4924 -1.2946 -0.6081
 6593TIP3   OH241337   6.220   5.051   1.500 -0.4079 -0.1031 -0.0272
 6593TIP3    H141338   6.124   5.049   1.495 -0.6382  0.6368  2.6049
 6593TIP3    H241339   6.238   5.103   1.578  2.2249  1.7178 -1.6872
 6594TIP3   OH241340   6.231   6.514   1.729  0.4468 -0.0837 -0.5008
 6594TIP3    H141341   6.322   6.496   1.705  1.2002  1.3071  1.0929
 6594TIP3    H241342   6.200   6.433   1.770  0.8323 -0.6884 -1.3842
 6595TIP3   OH241343   5.008   2.106   1.320  0.5485  0.1021 -0.5194
 6595TIP3    H141344   4.993   2.090   1.414 -1.5157 -0.7179 -0.9257
 6595TIP3    H241345   5.050   2.191   1.317 -0.5392  0.7523  1.1104
 6596TIP3   OH241346   6.109   1.950   0.497  0.0115 -0.2138 -0.6986
 6596TIP3    H141347   6.020   1.922   0.520  0.3240 -0.3193  0.4399
 6596TIP3    H241348   6.162   1.871   0.503  0.0851 -0.2947 -2.0486
 6597TIP3   OH241349   5.513   0.309   0.446 -0.6252 -0.3507  0.9329
 6597TIP3    H141350   5.460   0.233   0.419 -0.4444  0.2671 -1.4104
 6597TIP3    H241351   5.472   0.383   0.402  1.9576  0.1922 -0.8247
 6598TIP3   OH241352   3.125   0.427   7.812  0.4963 -0.4236  0.1773
 6598TIP3    H141353   3.141   0.338   7.779  0.1796  0.1394 -1.5896
 6598TIP3    H241354   3.188   0.438   7.883  0.5448 -2.0549  0.4276
 6599TIP3   OH241355   3.399   2.219   1.527 -0.0051  0.3997 -0.5206
 6599TIP3    H141356   3.337   2.192   1.459 -0.2732  2.4951 -1.1751
 6599TIP3    H241357   3.345   2.266   1.591  0.6841  0.9156 -0.3128
 6600TIP3   OH241358   4.936   1.315   1.180 -0.0338  0.4752  0.7220
 6600TIP3    H141359   5.020   1.298   1.222 -0.6816 -1.0507  1.4643
 6600TIP3    H241360   4.872   1.304   1.250 -0.9911 -0.3558 -0.2513
 6601TIP3   OH241361   6.310   4.299   3.140  0.3600 -0.0031  0.5895
 6601TIP3    H141362   6.267   4.311   3.056 -0.7963 -3.0349  0.6359
 6601TIP3    H241363   6.400   4.273   3.118  0.0799 -0.7192  0.2782
 6602TIP3   OH241364   4.235   0.241   7.880  0.1861  0.4921 -0.3549
 6602TIP3    H141365   4.272   0.210   7.797  0.4883 -0.6353  0.1829
 6602TIP3    H241366   4.191   0.164   7.917 -0.0355  1.0092  0.4794
 6603TIP3   OH241367   5.185   1.097   0.512  0.8824 -0.8797  0.3431
 6603TIP3    H141368   5.247   1.105   0.585  0.2416  3.4381  0.7038
 6603TIP3    H241369   5.100   1.088   0.555  0.5840  0.9195  0.2051
 6604TIP3   OH241370   0.174   0.830   3.415  0.8306  0.3723  0.1828
 6604TIP3    H141371   0.186   0.919   3.448 -0.1302  1.4310 -2.1184
 6604TIP3    H241372   0.251   0.814   3.360  1.2230 -0.4357  0.9308
 6605TIP3   OH241373   6.586   4.329   7.815  0.2770 -0.4882 -0.2553
 6605TIP3    H141374   6.612   4.240   7.792 -0.5917 -0.5215 -1.1377
 6605TIP3    H241375   6.554   4.323   7.905 -0.7220 -1.2622 -0.6576
 6606TIP3   OH241376   5.059   5.079   1.239  0.7944 -0.1543  0.8045
 6606TIP3    H141377   5.114   5.003   1.262  0.4353 -0.9185 -0.6872
 6606TIP3    H241378   5.102   5.116   1.161  0.1268  0.2522  0.6218
 6607TIP3   OH241379   3.104   0.492   2.511 -0.4956  0.0677 -0.6436
 6607TIP3    H141380   3.167   0.553   2.474 -1.6737  0.8085 -1.5022
 6607TIP3    H241381   3.051   0.463   2.437 -2.1957  0.7311  0.2329
 6608TIP3   OH241382   6.180   5.508   0.142 -0.3368 -0.0994 -0.6493
 6608TIP3    H141383   6.099   5.553   0.165 -0.7843 -0.4629 -1.4841
 6608TIP3    H241384   6.165   5.473   0.054  1.8252  2.5398 -2.2228
 6609TIP3   OH241385   2.078   2.003   1.718  0.1472 -0.0133  0.0034
 6609TIP3    H141386   2.047   2.063   1.649 -0.6322  0.1091  0.4478
 6609TIP3    H241387   2.114   2.061   1.785 -0.9248  0.0010  0.5911
 6610TIP3   OH241388   6.561   6.396   2.231 -0.1261 -0.7588  0.1003
 6610TIP3    H141389   6.502   6.392   2.156 -0.4742 -0.4162  0.3555
 6610TIP3    H241390   6.542   6.480   2.273  1.4644 -0.0266 -0.5762
 6611TIP3   OH241391   5.722   2.836   1.113 -0.5624 -0.5241 -0.2330
 6611TIP3    H141392   5.700   2.926   1.136 -0.6291 -0.8435  1.0360
 6611TIP3    H241393   5.811   2.824   1.145 -0.0970 -0.5584 -1.4828
 6612TIP3   OH241394   0.357   4.111   0.039  0.2857  0.0645  0.0776
 6612TIP3    H141395   0.298   4.171  -0.008  0.4677  0.0895 -0.1212
 6612TIP3    H241396   0.443   4.126  -0.001  0.4962  0.2805  0.6046
 6613TIP3   OH241397   0.164   3.194   2.444 -0.4197  0.6893  0.6377
 6613TIP3    H141398   0.142   3.211   2.352 -1.0689 -0.2978  0.6002
 6613TIP3    H241399   0.252   3.231   2.454 -0.3434  0.8208 -0.3833
 6614TIP3   OH241400   3.756   4.018   2.489  0.2525 -0.2288 -0.5628
 6614TIP3    H141401   3.660   4.025   2.486 -0.1406 -3.2890  0.4805
 6614TIP3    H241402   3.783   4.007   2.398 -0.5176 -0.4031 -0.7744
 6615TIP3   OH241403   3.333   0.431   8.016 -0.0485  0.0071 -0.0704
 6615TIP3    H141404   3.314   0.362   8.080  2.0476 -1.2672 -0.7151
 6615TIP3    H241405   3.412   0.400   7.971 -0.2215  1.8980 -1.7866
 6616TIP3   OH241406   5.656   4.549   6.905  0.5609  0.5581 -0.2460
 6616TIP3    H141407   5.677   4.641   6.889 -0.2591  0.7656 -0.1674
 6616TIP3    H241408   5.582   4.552   6.966 -0.5710 -0.1285 -1.5588
 6617TIP3   OH241409   6.776   1.846   7.923 -0.5881 -0.4840 -0.1055
 6617TIP3    H141410   6.867   1.822   7.904 -0.7190 -1.4918  0.4774
 6617TIP3    H241411   6.754   1.910   7.856  1.2622  1.5185  1.0622
 6618TIP3   OH241412   2.709   3.285   8.302 -0.0717  0.1814  0.0578
 6618TIP3    H141413   2.780   3.350   8.304 -0.2241  0.3599 -0.2500
 6618TIP3    H241414   2.634   3.333   8.266 -0.1864 -0.1652 -0.1643
 6619TIP3   OH241415   3.667   5.213   0.607 -0.0509 -0.6522  0.0633
 6619TIP3    H141416   3.601   5.282   0.597 -0.5159 -1.2032 -0.7998
 6619TIP3    H241417   3.617   5.132   0.610  0.5712 -1.0584 -0.2777
 6620TIP3   OH241418   6.897   3.323   1.115 -0.1172  0.2077  0.4183
 6620TIP3    H141419   6.965   3.387   1.135 -0.8603  0.6258  1.7904
 6620TIP3    H241420   6.940   3.238   1.130  0.9396  0.3267 -1.6441
 6621TIP3   OH241421   1.837   2.438   2.078 -0.2324  0.0533 -0.0629
 6621TIP3    H141422   1.906   2.382   2.043 -0.4799  0.9791 -2.1645
 6621TIP3    H241423   1.869   2.527   2.067 -0.9739  0.4361  0.7050
 6622TIP3   OH241424   4.825   3.188   7.539 -0.7385  0.3279 -0.0298
 6622TIP3    H141425   4.848   3.141   7.459 -0.6381  1.5494 -0.7528
 6622TIP3    H241426   4.807   3.277   7.510  1.8876  1.5136  1.6250
 6623TIP3   OH241427   1.923   5.062   1.364 -0.5377  0.0685 -0.2249
 6623TIP3    H141428   1.991   5.025   1.420  0.2605  1.2842 -0.3596
 6623TIP3    H241429   1.873   4.986   1.333 -0.9631 -0.6434  2.0396
 6624TIP3   OH241430   2.300   0.565   1.667  0.8333 -0.6618 -0.5827
 6624TIP3    H141431   2.277   0.649   1.627 -1.0349 -0.1413  1.3966
 6624TIP3    H241432   2.384   0.542   1.628  1.5266  2.2355 -1.0265
 6625TIP3   OH241433   4.571   0.387   2.981  0.5736  0.0420 -0.4745
 6625TIP3    H141434   4.527   0.372   3.065  0.6945  0.8750 -0.2489
 6625TIP3    H241435   4.546   0.313   2.927  1.8197 -1.3740  0.8160
 6626TIP3   OH241436   6.839   5.091   6.768 -0.2772 -0.0469 -0.2574
 6626TIP3    H141437   6.752   5.129   6.784  0.9578  2.6380  0.7019
 6626TIP3    H241438   6.878   5.083   6.855  0.9706  0.2036 -0.7771
 6627TIP3   OH241439   5.934   5.088   1.458 -0.3011  0.0871 -0.2967
 6627TIP3    H141440   5.873   5.154   1.428 -1.8862 -1.5924 -0.9529
 6627TIP3    H241441   5.939   5.100   1.553 -0.9020  0.8573 -0.3568
 6628TIP3   OH241442   4.208   5.742   0.539 -0.1352  0.4963 -0.5277
 6628TIP3    H141443   4.246   5.663   0.501  2.8969  1.0786  1.0065
 6628TIP3    H241444   4.126   5.755   0.491 -0.4381 -3.1581 -1.2940
 6629TIP3   OH241445   2.050   6.056   8.183 -0.3703 -0.4750  0.2110
 6629TIP3    H141446   1.988   6.027   8.250 -0.7432  0.6348  0.3712
 6629TIP3    H241447   2.129   6.004   8.200 -0.7341 -0.7985  0.9950
 6630TIP3   OH241448   4.943   4.808   0.857  0.3056 -0.3625  0.2620
 6630TIP3    H141449   5.036   4.831   0.851  0.5504 -1.5097 -0.5791
 6630TIP3    H241450   4.897   4.892   0.853  1.2970  0.2211  0.7606
 6631TIP3   OH241451   3.996   1.752   0.482 -0.7225  0.0311  0.0304
 6631TIP3    H141452   4.014   1.840   0.516 -1.8535 -0.2155  1.3620
 6631TIP3    H241453   3.902   1.751   0.466 -0.5298 -0.5364 -1.2727
 6632TIP3   OH241454   3.165   1.457   7.960  0.1598 -0.1018 -0.1579
 6632TIP3    H141455   3.108   1.382   7.941  1.0722 -0.8841  0.1037
 6632TIP3    H241456   3.133   1.491   8.044  0.5929 -1.0471  0.3987
 6633TIP3   OH241457   4.435   3.723   2.685 -0.3437  0.0317 -0.8492
 6633TIP3    H141458   4.387   3.719   2.767  0.8549 -0.6389 -0.1591
 6633TIP3    H241459   4.408   3.806   2.645  0.0136  1.0027  0.8382
 6634TIP3   OH241460   5.597   6.778   8.151 -0.3874  0.0789 -0.4127
 6634TIP3    H141461   5.581   6.786   8.245 -0.7951  2.3607 -0.6153
 6634TIP3    H241462   5.580   6.866   8.116  0.7752 -0.4490 -2.4722
 6635TIP3   OH241463   5.418   5.248   2.497 -0.6568  0.3195 -0.0913
 6635TIP3    H141464   5.421   5.343   2.491  2.4172  0.3728  0.7639
 6635TIP3    H241465   5.382   5.231   2.584 -1.5720  0.6475 -0.3899
 6636TIP3   OH241466   2.946   0.742   1.996 -0.1768 -0.1638 -0.3372
 6636TIP3    H141467   2.939   0.649   1.979  0.6147 -0.0351 -1.5050
 6636TIP3    H241468   2.954   0.749   2.091  0.1458 -1.3094 -0.2674
 6637TIP3   OH241469   2.248   4.947   2.563  0.1036  0.4020 -0.0187
 6637TIP3    H141470   2.281   5.035   2.546 -0.3808  1.0395  2.1049
 6637TIP3    H241471   2.164   4.944   2.518  0.6537  0.5707 -1.1047
 6638TIP3   OH241472   6.100   1.186   7.533 -0.3891  0.0494 -0.1036
 6638TIP3    H141473   6.140   1.225   7.455 -0.8805 -0.0092 -0.3879
 6638TIP3    H241474   6.046   1.256   7.570 -0.4918 -0.0549 -0.0549
 6639TIP3   OH241475   5.050   1.210   0.966 -0.0840  0.1288  0.5316
 6639TIP3    H141476   5.101   1.137   1.000 -0.0305  0.1120  0.4149
 6639TIP3    H241477   4.998   1.240   1.041 -1.7243 -1.3990  0.0545
 6640TIP3   OH241478   6.060   4.178   7.384 -0.4199  0.5579 -0.6070
 6640TIP3    H141479   6.053   4.086   7.358  1.8050 -0.2810  1.3808
 6640TIP3    H241480   6.004   4.185   7.461  1.3547  0.1460  0.7709
 6641TIP3   OH241481   4.676   0.009   0.463  0.1773 -0.0991 -0.8068
 6641TIP3    H141482   4.662   0.101   0.440 -0.2100 -0.2010 -0.9867
 6641TIP3    H241483   4.734   0.012   0.539 -1.6838  0.3767  0.6601
 6642TIP3   OH241484   6.156   0.047   1.064  0.0010  0.2351  0.1049
 6642TIP3    H141485   6.208   0.022   0.988 -0.5798  0.0158 -0.2326
 6642TIP3    H241486   6.216   0.039   1.138  1.1307  2.3224 -0.5277
 6643TIP3   OH241487   2.783   2.897   0.463  0.6164  0.0769  0.3920
 6643TIP3    H141488   2.762   2.936   0.548 -0.1033 -0.0955  0.2970
 6643TIP3    H241489   2.875   2.872   0.471  1.0604  1.6470  0.5095
 6644TIP3   OH241490   3.628   4.008   0.430 -0.2697 -0.3766 -0.6694
 6644TIP3    H141491   3.549   4.055   0.405 -0.4667 -0.8328 -0.9175
 6644TIP3    H241492   3.647   4.038   0.519  0.5107  1.3517 -1.3923
 6645TIP3   OH241493   4.471   4.135   2.354 -0.3675 -0.0770  0.3026
 6645TIP3    H141494   4.442   4.063   2.299  1.4956 -0.5769 -0.0817
 6645TIP3    H241495   4.419   4.127   2.434 -0.2792 -1.7925  0.2240
 6646TIP3   OH241496   6.414   2.097   1.078 -0.0786 -0.1649  0.3707
 6646TIP3    H141497   6.348   2.145   1.027 -1.3274 -1.4311  0.7324
 6646TIP3    H241498   6.489   2.092   1.019 -0.1132  1.6689  0.0973
 6647TIP3   OH241499   5.845   5.424   7.800 -0.1455  0.3238  0.0856
 6647TIP3    H141500   5.840   5.330   7.816  2.6154  0.3180  1.4548
 6647TIP3    H241501   5.887   5.432   7.714 -0.6966  0.3204 -0.1870
 6648TIP3   OH241502   0.264   0.846   7.458  0.5919 -0.0253  0.0654
 6648TIP3    H141503   0.217   0.916   7.412  0.8865  1.1181  1.4228
 6648TIP3    H241504   0.315   0.803   7.390  0.7277  1.3646 -0.7621
 6649TIP3   OH241505   3.607   2.227   3.178  0.1891 -0.3629 -0.1061
 6649TIP3    H141506   3.538   2.170   3.213 -0.3293  0.6147  0.5098
 6649TIP3    H241507   3.629   2.286   3.250  0.8465  0.0921 -0.6663
 6650TIP3   OH241508   3.506   2.169   7.060  1.1269  0.1474  0.1181
 6650TIP3    H141509   3.421   2.215   7.059  1.4144  0.6802 -0.8658
 6650TIP3    H241510   3.567   2.231   7.021  2.1627  0.0891  1.5933
 6651TIP3   OH241511   0.593   0.437   2.729  0.4437  0.3312  0.4025
 6651TIP3    H141512   0.570   0.390   2.809  0.3092  1.2767  0.9298
 6651TIP3    H241513   0.620   0.524   2.758 -3.0365  2.0119 -0.7212
 6652TIP3   OH241514   4.267   1.130   0.767 -0.2725  0.3139  0.2242
 6652TIP3    H141515   4.219   1.062   0.814 -0.8291  1.0620  0.7564
 6652TIP3    H241516   4.346   1.086   0.736 -0.4500 -0.4853  0.8666
 6653TIP3   OH241517   1.260   5.786   1.367  0.6861  0.7779 -0.0605
 6653TIP3    H141518   1.187   5.836   1.402  0.3596  0.6714 -0.5813
 6653TIP3    H241519   1.315   5.850   1.322  0.2624  0.6687 -0.7365
 6654TIP3   OH241520   5.766   5.072   7.583  0.0848 -0.5979  0.8291
 6654TIP3    H141521   5.681   5.059   7.543 -0.3158  0.9768  1.1178
 6654TIP3    H241522   5.787   5.164   7.568  0.8511 -0.4729  2.4093
 6655TIP3   OH241523   0.723   5.277   1.184 -0.1980 -0.3893 -0.3309
 6655TIP3    H141524   0.692   5.187   1.176  1.7713 -1.0587 -1.2449
 6655TIP3    H241525   0.806   5.270   1.231 -0.0659  0.9597 -0.3159
 6656TIP3   OH241526   2.735   3.914   8.297  0.3228 -0.2938 -0.0923
 6656TIP3    H141527   2.677   3.890   8.224  1.5965 -1.3539 -0.8166
 6656TIP3    H241528   2.688   3.982   8.344 -1.2055 -0.6476 -1.0353
 6657TIP3   OH241529   3.355   3.707   8.326 -0.0414  0.0644  0.2505
 6657TIP3    H141530   3.414   3.706   8.250 -0.4486 -2.1517 -0.1137
 6657TIP3    H241531   3.376   3.788   8.372  2.1601  0.1141 -0.7257
 6658TIP3   OH241532   4.942   0.688   1.696 -0.0884 -0.1234 -0.2345
 6658TIP3    H141533   5.029   0.673   1.659 -0.4757  1.1029 -1.7539
 6658TIP3    H241534   4.957   0.704   1.789  1.4461  1.1085 -0.6642
 6659TIP3   OH241535   0.768   1.595   1.054  0.1546  0.2922  0.0801
 6659TIP3    H141536   0.789   1.684   1.082  2.2226 -0.3934  0.9048
 6659TIP3    H241537   0.785   1.541   1.131  1.7887 -1.1540 -1.2064
 6660TIP3   OH241538   6.138   4.774   3.241 -0.7289 -0.3262 -0.0031
 6660TIP3    H141539   6.140   4.679   3.239 -1.5619 -0.3353 -0.7922
 6660TIP3    H241540   6.093   4.800   3.161  0.1579  0.7607 -0.1760
 6661TIP3   OH241541   1.333   0.721   1.049  0.2312 -0.5184 -0.3100
 6661TIP3    H141542   1.248   0.743   1.087  0.6138 -0.4289  0.4997
 6661TIP3    H241543   1.364   0.803   1.011 -0.9976 -1.0073 -2.5506
 6662TIP3   OH241544   2.950   5.952   3.061 -0.3390 -0.2755 -0.3245
 6662TIP3    H141545   2.928   5.873   3.109  0.5977  0.0257  0.6380
 6662TIP3    H241546   2.921   6.024   3.118  2.6275  0.1383  0.8583
 6663TIP3   OH241547   4.174   4.066   0.482  0.3551 -0.1042 -0.1927
 6663TIP3    H141548   4.082   4.087   0.462 -0.1550 -1.3670  0.6954
 6663TIP3    H241549   4.211   4.148   0.513 -0.5919  0.3396 -0.2005
 6664TIP3   OH241550   0.259   2.335   0.764 -0.0960 -0.5642 -0.5652
 6664TIP3    H141551   0.336   2.391   0.754  0.3907 -1.3965 -1.8375
 6664TIP3    H241552   0.195   2.370   0.704  0.2826 -1.4485 -1.5174
 6665TIP3   OH241553   3.784   1.981   2.095  0.1078 -0.6749  0.1858
 6665TIP3    H141554   3.838   1.960   2.018  0.2345  0.7859 -0.1479
 6665TIP3    H241555   3.840   2.036   2.149  0.0801 -1.8445  1.4330
 6666TIP3   OH241556   0.076   3.766   7.894 -0.2541 -0.1292  0.0044
 6666TIP3    H141557   0.156   3.734   7.936 -1.7925 -0.9733  2.5021
 6666TIP3    H241558   0.097   3.767   7.800  1.6369 -3.4808  0.2244
 6667TIP3   OH241559   2.122   3.512   7.997 -0.2540 -0.3301  0.5501
 6667TIP3    H141560   2.145   3.552   7.913  1.1367  0.4962  1.3006
 6667TIP3    H241561   2.077   3.582   8.045 -0.4681 -0.6028  0.7490
 6668TIP3   OH241562   1.864   1.283   1.960 -0.3615 -0.0995 -0.1226
 6668TIP3    H141563   1.810   1.254   1.886 -1.1701  0.9440  0.0361
 6668TIP3    H241564   1.828   1.368   1.984 -0.2344 -0.4997  1.6004
 6669TIP3   OH241565   0.894   4.713   1.003  0.4564  0.4110  0.4986
 6669TIP3    H141566   0.891   4.622   1.034  0.9665 -0.0214 -0.6588
 6669TIP3    H241567   0.973   4.749   1.044 -0.5844  0.8338  2.2116
 6670TIP3   OH241568   1.711   4.372   0.659  0.2957 -0.1415  0.6233
 6670TIP3    H141569   1.761   4.296   0.627 -0.7440 -1.0910  1.1953
 6670TIP3    H241570   1.778   4.434   0.686  1.1781 -0.6293 -0.3680
 6671TIP3   OH241571   2.857   2.967   6.953  0.0925 -0.5005 -0.5995
 6671TIP3    H141572   2.932   3.009   6.996  1.1270 -0.3985 -2.4037
 6671TIP3    H241573   2.780   3.012   6.989  0.8636 -0.5068  1.1844
 6672TIP3   OH241574   3.150   5.214   2.699 -0.0122 -0.6837  0.2821
 6672TIP3    H141575   3.123   5.129   2.734 -2.5238  0.5138  1.5167
 6672TIP3    H241576   3.234   5.231   2.741  1.8606 -3.5282 -1.8659
 6673TIP3   OH241577   4.068   3.163   8.313 -0.1606 -0.2865  0.5399
 6673TIP3    H141578   4.024   3.179   8.397  0.1416  0.3411  0.5811
 6673TIP3    H241579   4.036   3.233   8.256 -0.6955 -0.9605 -0.0028
 6674TIP3   OH241580   5.586   4.994   3.348 -0.1780  0.0562  0.0191
 6674TIP3    H141581   5.585   4.955   3.261  0.3897 -1.0905  0.5087
 6674TIP3    H241582   5.498   4.979   3.382 -0.5636  0.9658 -0.5345
 6675TIP3   OH241583   5.627   5.264   1.924 -0.6508  0.6450 -0.3792
 6675TIP3    H141584   5.562   5.193   1.921  0.2647 -0.1640 -2.5588
 6675TIP3    H241585   5.658   5.263   2.014 -2.7559  0.2444  0.4129
 6676TIP3   OH241586   3.901   6.534   3.272  0.8086  0.7488  0.0075
 6676TIP3    H141587   3.948   6.475   3.213  2.2751  0.7238  1.1312
 6676TIP3    H241588   3.843   6.477   3.322  0.0730  0.6771 -0.9186
 6677TIP3   OH241589   1.283   3.418   1.304  0.0344  0.4553  0.0219
 6677TIP3    H141590   1.355   3.440   1.363 -0.6676 -0.0929  1.0978
 6677TIP3    H241591   1.326   3.402   1.220  1.0834  0.9335  0.4494
 6678TIP3   OH241592   1.996   4.982   0.936  0.3953 -0.8725 -0.6635
 6678TIP3    H141593   1.994   5.028   0.852  2.4831 -0.7562 -0.7213
 6678TIP3    H241594   2.071   5.020   0.982 -0.0528 -1.6927  0.8176
 6679TIP3   OH241595   4.574   3.520   7.907  0.1021  0.0078  0.4343
 6679TIP3    H141596   4.559   3.426   7.919 -0.9787  0.2147  0.8613
 6679TIP3    H241597   4.660   3.536   7.944 -0.1088 -0.6565  1.2482
 6680TIP3   OH241598   0.890   3.178   1.246 -0.4332  0.5102 -0.5109
 6680TIP3    H141599   0.863   3.245   1.183 -2.3197 -0.5944 -0.9667
 6680TIP3    H241600   0.936   3.227   1.314 -0.9749  2.1594 -1.2536
 6681TIP3   OH241601   4.108   6.091   1.489 -0.1300 -0.1893 -0.2465
 6681TIP3    H141602   4.169   6.081   1.562 -0.9179  1.2818  0.6549
 6681TIP3    H241603   4.142   6.166   1.440 -1.2994  0.7800  0.3842
 6682TIP3   OH241604   2.128   5.653   0.659  0.0911  0.0210  1.0303
 6682TIP3    H141605   2.110   5.710   0.734  1.7750  0.0763  1.4428
 6682TIP3    H241606   2.155   5.570   0.699 -0.1659 -0.3470  0.4510
 6683TIP3   OH241607   5.236   3.837   1.919  0.2023 -0.0352  0.4885
 6683TIP3    H141608   5.272   3.891   1.990  0.1950 -0.0647  0.5145
 6683TIP3    H241609   5.162   3.889   1.886  0.1391 -0.0700  0.5732
 6684TIP3   OH241610   3.910   4.271   8.370 -0.2491 -0.6563 -0.0036
 6684TIP3    H141611   3.976   4.310   8.428 -0.4278 -1.0624  0.4788
 6684TIP3    H241612   3.833   4.260   8.425 -0.0832 -2.0279 -0.0233
 6685TIP3   OH241613   0.683   4.868   3.771  0.6263  0.7714 -0.1849
 6685TIP3    H141614   0.638   4.886   3.854  0.4335 -2.2686  0.4853
 6685TIP3    H241615   0.770   4.908   3.782  0.3373  1.0829  1.1505
 6686TIP3   OH241616   1.470   2.197   8.027  0.0805 -0.6749 -0.4602
 6686TIP3    H141617   1.414   2.274   8.042  0.0436 -0.6951 -0.4961
 6686TIP3    H241618   1.454   2.173   7.936 -1.3144 -1.8539  0.0590
 6687TIP3   OH241619   3.605   5.832   0.130  0.1539  0.2023 -0.0001
 6687TIP3    H141620   3.551   5.881   0.193 -0.0806  0.7377 -0.6121
 6687TIP3    H241621   3.542   5.785   0.076  0.2719  0.9984 -0.8567
 6688TIP3   OH241622   5.135   3.158   7.700  0.5458  0.9109 -0.2674
 6688TIP3    H141623   5.224   3.174   7.732 -0.0555 -0.4650  2.4343
 6688TIP3    H241624   5.079   3.196   7.766 -0.8136 -4.0316  1.9142
 6689TIP3   OH241625   4.215   6.159   0.043 -0.1389 -0.8090 -0.4925
 6689TIP3    H141626   4.237   6.201  -0.041  0.0246  1.9712  0.8227
 6689TIP3    H241627   4.121   6.172   0.052 -0.6953 -3.6272 -1.4519
 6690TIP3   OH241628   0.375   0.300   7.630  0.5234  0.4510  0.3936
 6690TIP3    H141629   0.379   0.395   7.619 -2.5275  0.8322  1.5841
 6690TIP3    H241630   0.308   0.272   7.567  0.0144 -0.6029  1.3705
 6691TIP3   OH241631   6.487   3.889   7.611  0.2827 -0.2024 -0.2148
 6691TIP3    H141632   6.577   3.916   7.591  0.5532 -0.4019  0.7018
 6691TIP3    H241633   6.433   3.961   7.578  0.9426  1.1335  1.4723
 6692TIP3   OH241634   4.407   4.636   0.799  0.0667 -0.0033 -0.7651
 6692TIP3    H141635   4.365   4.586   0.869  0.7700 -2.4921 -2.0101
 6692TIP3    H241636   4.339   4.645   0.732 -0.2865  1.4733 -0.2611
 6693TIP3   OH241637   5.147   2.693   8.086 -0.2929 -0.3074  0.0095
 6693TIP3    H141638   5.074   2.747   8.115 -1.0956 -0.5995 -1.3786
 6693TIP3    H241639   5.186   2.659   8.167 -1.0927  0.6136  0.8039
 6694TIP3   OH241640   3.699   6.904   0.241 -0.0484 -0.1585  0.4167
 6694TIP3    H141641   3.622   6.874   0.194 -0.3681  1.3605 -0.0864
 6694TIP3    H241642   3.720   6.988   0.201  2.6882 -1.1160 -0.3844
 6695TIP3   OH241643   2.047   3.033   2.415 -0.2664  1.0080 -0.2309
 6695TIP3    H141644   2.093   3.114   2.390  0.2164 -0.1979 -3.9338
 6695TIP3    H241645   1.959   3.045   2.381 -0.6882  0.5939  0.6952
 6696TIP3   OH241646   6.692   1.098   1.220 -1.1171  0.3900  0.9144
 6696TIP3    H141647   6.679   1.093   1.126 -1.2290 -1.0885  0.9892
 6696TIP3    H241648   6.618   1.151   1.252 -2.4587 -1.1199  0.4208
 6697TIP3   OH241649   5.591   6.374   8.316  0.4054  0.5082  0.1005
 6697TIP3    H141650   5.607   6.383   8.409  0.0492 -0.4347  0.2653
 6697TIP3    H241651   5.662   6.423   8.274  1.7291 -0.7037  0.8450
 6698TIP3   OH241652   5.670   0.743   0.395 -0.9834  0.1010 -0.0678
 6698TIP3    H141653   5.678   0.691   0.475 -1.4940 -1.3848 -0.9450
 6698TIP3    H241654   5.596   0.801   0.412 -0.3567  0.6337  0.9557
 6699TIP3   OH241655   4.324   3.286   8.050  0.1066  0.2250 -0.6191
 6699TIP3    H141656   4.298   3.375   8.072  0.6041  0.2383 -0.0638
 6699TIP3    H241657   4.396   3.296   7.988  0.6518  0.2191  0.0098
 6700TIP3   OH241658   1.468   5.160   0.407 -0.3354  0.0343 -0.2569
 6700TIP3    H141659   1.457   5.255   0.408 -1.3030 -0.0617  1.7435
 6700TIP3    H241660   1.380   5.125   0.396  0.0112 -0.6494 -0.9490
 6701TIP3   OH241661   5.330   1.178   2.044  0.2333 -0.4586  0.2643
 6701TIP3    H141662   5.351   1.111   1.978  0.6146 -0.9352  0.8583
 6701TIP3    H241663   5.409   1.231   2.050 -0.6510  1.1798 -1.4836
 6702TIP3   OH241664   0.844   3.088   2.896 -0.3362 -0.8206  0.3787
 6702TIP3    H141665   0.821   3.181   2.893 -2.4244 -1.2632 -2.8013
 6702TIP3    H241666   0.804   3.056   2.977 -0.1394  0.8939  1.1964
 6703TIP3   OH241667   3.072   2.708   0.056 -1.1830 -0.9260  0.1595
 6703TIP3    H141668   2.983   2.733   0.080 -1.1379 -1.1039  0.5177
 6703TIP3    H241669   3.073   2.613   0.064 -0.7040 -0.8577  1.0496
 6704TIP3   OH241670   3.626   2.178   2.386 -0.8702 -0.2198 -0.1922
 6704TIP3    H141671   3.664   2.238   2.323  0.0692  0.6132  1.1035
 6704TIP3    H241672   3.549   2.224   2.420  1.2397  1.5026  2.6442
 6705TIP3   OH241673   6.250   1.430   2.758 -0.1765  0.2923  0.2488
 6705TIP3    H141674   6.309   1.367   2.719  1.4020 -0.1669  3.0823
 6705TIP3    H241675   6.171   1.427   2.703  1.4524 -0.9291 -2.1766
 6706TIP3   OH241676   3.396   4.696   2.813  0.2464 -0.1505  0.0869
 6706TIP3    H141677   3.410   4.707   2.907 -1.0242 -0.3779  0.3313
 6706TIP3    H241678   3.384   4.784   2.779 -0.7946 -0.1405  0.4271
 6707TIP3   OH241679   6.472   0.573   2.721 -0.0669 -0.2063  0.2662
 6707TIP3    H141680   6.535   0.551   2.652  1.4534 -1.5798  1.9818
 6707TIP3    H241681   6.522   0.631   2.780 -1.0249  0.1772  0.7136
 6708TIP3   OH241682   1.284   3.889   3.520 -0.2451 -0.5422  0.8994
 6708TIP3    H141683   1.192   3.871   3.502 -0.6427  0.7738  1.5285
 6708TIP3    H241684   1.332   3.825   3.467 -1.4942 -0.6718 -0.1017
 6709TIP3   OH241685   2.611   0.613   2.701 -0.1138 -0.5238  0.1917
 6709TIP3    H141686   2.672   0.626   2.774  1.3678  2.1323 -1.3616
 6709TIP3    H241687   2.665   0.580   2.629 -1.2926 -1.8074 -0.1657
 6710TIP3   OH241688   5.384   6.905   1.007 -0.0691  0.3271 -0.1604
 6710TIP3    H141689   5.297   6.894   1.044  0.3938 -1.4541  0.5195
 6710TIP3    H241690   5.386   6.847   0.932  0.6994 -0.0962  0.1727
 6711TIP3   OH241691   3.424   6.447   7.763 -0.3694  0.1769 -0.0139
 6711TIP3    H141692   3.388   6.477   7.846 -0.0135  0.5083  0.0229
 6711TIP3    H241693   3.383   6.362   7.748 -0.6136  0.2238  0.3817
 6712TIP3   OH241694   4.933   2.844   8.127 -0.1820 -0.0778 -0.0537
 6712TIP3    H141695   4.892   2.850   8.041 -1.4748  0.9077  0.6087
 6712TIP3    H241696   4.941   2.934   8.157  2.9439 -0.1609 -0.3161
 6713TIP3   OH241697   2.927   4.859   0.339 -0.2950 -0.1744  0.8051
 6713TIP3    H141698   2.924   4.826   0.249  2.3794 -1.7688  1.1913
 6713TIP3    H241699   2.902   4.951   0.331 -0.2265 -0.2925 -1.5665
 6714TIP3   OH241700   4.324   6.468   0.343  0.4674 -0.2104 -0.2187
 6714TIP3    H141701   4.353   6.559   0.332  2.0276 -0.8163 -1.5857
 6714TIP3    H241702   4.228   6.474   0.345  0.5450  1.5149  0.4334
 6715TIP3   OH241703   0.275   6.900   6.730  0.2728 -0.2713  0.3812
 6715TIP3    H141704   0.353   6.846   6.743 -0.7280 -2.0875 -0.7922
 6715TIP3    H241705   0.204   6.851   6.772 -0.7460 -0.1363 -1.0928
 6716TIP3   OH241706   2.886   4.296   0.799 -0.6168 -0.1990  0.8175
 6716TIP3    H141707   2.849   4.366   0.744  0.6192 -1.0969 -1.2602
 6716TIP3    H241708   2.851   4.215   0.762 -0.1917 -0.8198  1.7373
 6717TIP3   OH241709   0.136   2.221   2.974  0.3157  0.0805 -0.2215
 6717TIP3    H141710   0.067   2.262   3.025 -0.1244 -1.0093  0.1007
 6717TIP3    H241711   0.120   2.127   2.984  1.7687 -0.1982 -0.2329
 6718TIP3   OH241712   0.793   2.094   1.878  0.3686  0.3701  0.0125
 6718TIP3    H141713   0.865   2.092   1.941 -1.6541  0.6403  2.4631
 6718TIP3    H241714   0.722   2.046   1.920 -0.8410 -0.1771 -2.4596
 6719TIP3   OH241715   1.707   4.217   7.754 -0.1500 -0.1732  0.2804
 6719TIP3    H141716   1.784   4.257   7.714  0.0919 -0.4401  0.4751
 6719TIP3    H241717   1.698   4.262   7.838 -0.2398 -0.1004  0.2312
 6720TIP3   OH241718   4.225   3.188   1.106 -0.0402  0.0315  0.2933
 6720TIP3    H141719   4.200   3.114   1.050 -1.6184  0.8545 -0.1458
 6720TIP3    H241720   4.200   3.162   1.194  0.7309 -0.5130  0.3638
 6721TIP3   OH241721   3.146   3.069   0.490  0.3884 -0.2792 -0.2415
 6721TIP3    H141722   3.134   3.157   0.526 -2.0762 -0.6740  0.0571
 6721TIP3    H241723   3.214   3.081   0.423  0.6987  1.6777  0.3387
 6722TIP3   OH241724   2.010   0.420   7.927 -0.3995  0.1772  0.1684
 6722TIP3    H141725   2.011   0.427   7.832  2.9660 -0.1136  0.0676
 6722TIP3    H241726   1.985   0.507   7.958  0.6938  0.9223 -0.9897
 6723TIP3   OH241727   1.388   2.849   0.645 -0.4389 -0.0884 -0.2269
 6723TIP3    H141728   1.323   2.778   0.646  0.1704 -0.6609  0.8147
 6723TIP3    H241729   1.432   2.842   0.729  1.8696 -0.5633 -1.3866
 6724TIP3   OH241730   6.412   3.721   0.675  0.3469 -0.1931  0.2301
 6724TIP3    H141731   6.463   3.640   0.673  1.2539  0.3706 -0.3262
 6724TIP3    H241732   6.391   3.738   0.583 -0.4739 -0.1769  0.4114
 6725TIP3   OH241733   0.673   2.017   8.025 -0.2951 -0.3294  0.1504
 6725TIP3    H141734   0.745   1.994   7.967  0.8630  2.5354  0.3059
 6725TIP3    H241735   0.699   1.982   8.111  0.0309 -0.8677 -0.1650
 6726TIP3   OH241736   2.662   2.525   2.525 -0.4103 -0.0105  0.7144
 6726TIP3    H141737   2.709   2.593   2.573  0.0995 -0.2907  0.6205
 6726TIP3    H241738   2.663   2.555   2.434 -1.0684  0.3476  0.8205
 6727TIP3   OH241739   1.170   4.310   0.799  0.2023 -0.0007  0.2213
 6727TIP3    H141740   1.260   4.341   0.806 -0.2038  1.0013  1.1796
 6727TIP3    H241741   1.178   4.223   0.760  1.5554  0.2056 -0.0136
 6728TIP3   OH241742   5.824   1.507   0.113 -0.0532  0.3023 -0.0611
 6728TIP3    H141743   5.733   1.524   0.138  0.0315 -0.2989  0.6904
 6728TIP3    H241744   5.841   1.567   0.041 -2.0134 -1.6356 -2.3200
 6729TIP3   OH241745   4.806   1.513   8.020 -0.4577  0.3172  0.5407
 6729TIP3    H141746   4.890   1.536   7.979  0.3638 -0.0843  1.9447
 6729TIP3    H241747   4.765   1.453   7.958  0.4191  0.2874 -0.0332
 6730TIP3   OH241748   6.173   3.797   8.149  0.3388  0.2571  0.6912
 6730TIP3    H141749   6.150   3.766   8.062 -1.2428  0.3795  1.0297
 6730TIP3    H241750   6.207   3.885   8.135 -0.0729  0.3430  0.1943
 6731TIP3   OH241751   4.442   3.448   1.846  0.2142 -0.3782 -0.3957
 6731TIP3    H141752   4.528   3.487   1.863  0.6410 -0.2728 -2.4991
 6731TIP3    H241753   4.388   3.477   1.919  1.6468  0.5788  0.3402
 6732TIP3   OH241754   2.285   6.155   0.355  0.2856  0.1690  0.1782
 6732TIP3    H141755   2.330   6.072   0.344  0.4676  0.2758  0.1094
 6732TIP3    H241756   2.204   6.146   0.305 -0.6234 -0.6625  1.7319
 6733TIP3   OH241757   0.665   4.916   0.666 -0.0031 -0.4468 -0.2713
 6733TIP3    H141758   0.665   4.929   0.571  0.3668 -0.8519 -0.3291
 6733TIP3    H241759   0.749   4.874   0.685 -0.3762 -1.0216  0.1397
 6734TIP3   OH241760   0.857   6.742   2.781 -0.0618 -0.1137 -0.2827
 6734TIP3    H141761   0.767   6.774   2.769 -0.3058 -0.9108 -0.6289
 6734TIP3    H241762   0.846   6.650   2.802  0.6670 -0.1294  0.0239
 6735TIP3   OH241763   4.554   3.485   8.411  0.1140 -0.4917 -0.7481
 6735TIP3    H141764   4.632   3.541   8.414  0.2260 -0.6630  0.9129
 6735TIP3    H241765   4.488   3.539   8.368  0.4445  0.6335  0.0899
 6736TIP3   OH241766   4.675   1.924   2.434  0.0899  0.0687  0.3362
 6736TIP3    H141767   4.723   1.869   2.497  1.4380  0.0865 -0.6260
 6736TIP3    H241768   4.646   1.862   2.367 -1.3022  0.0581  0.9168
 6737TIP3   OH241769   4.338   5.983   1.258  0.0287 -0.4640  0.1928
 6737TIP3    H141770   4.331   5.983   1.162 -0.5021  0.8548  0.2149
 6737TIP3    H241771   4.341   6.076   1.282  2.3905 -0.7623  1.3197
 6738TIP3   OH241772   3.078   3.936   2.804 -0.1743 -0.2170 -0.6108
 6738TIP3    H141773   3.065   4.024   2.839  0.0190  0.5104 -2.2449
 6738TIP3    H241774   3.103   3.883   2.880 -2.1303  0.6825  0.7341
 6739TIP3   OH241775   4.615   3.717   2.172  0.4678  0.1577  0.1443
 6739TIP3    H141776   4.680   3.756   2.113 -0.5154  1.3953 -0.1769
 6739TIP3    H241777   4.544   3.782   2.176 -0.4872 -0.8845  0.9454
 6740TIP3   OH241778   2.114   0.310   0.472 -0.7151  0.6151  0.2233
 6740TIP3    H141779   2.054   0.235   0.467 -0.0747  0.1220 -0.2972
 6740TIP3    H241780   2.130   0.322   0.566  1.6470 -1.9602  0.2862
 6741TIP3   OH241781   6.974   5.475   7.893  0.2118 -0.5035  0.1812
 6741TIP3    H141782   6.936   5.438   7.973 -1.1627  0.1676 -0.1411
 6741TIP3    H241783   7.058   5.512   7.921 -0.1232 -0.5357  1.2441
 6742TIP3   OH241784   0.735   2.278   0.428  0.6191  0.0950 -0.1438
 6742TIP3    H141785   0.721   2.348   0.491 -1.1163 -0.0124 -0.3486
 6742TIP3    H241786   0.794   2.217   0.473  0.1033  0.4400  1.0563
 6743TIP3   OH241787   3.244   1.188   0.092  0.0013  0.3149  0.0952
 6743TIP3    H141788   3.158   1.163   0.058 -0.2244  0.7258  0.3642
 6743TIP3    H241789   3.305   1.169   0.020 -0.2553 -0.3582  0.0445
 6744TIP3   OH241790   4.108   2.891   2.319 -0.5630 -0.6949 -0.2581
 6744TIP3    H141791   4.059   2.913   2.240  0.2662  0.6098 -0.4295
 6744TIP3    H241792   4.098   2.967   2.376  1.8777 -0.0422 -0.6198
 6745TIP3   OH241793   3.666   3.593   7.919 -0.3087  0.2666  0.0294
 6745TIP3    H141794   3.706   3.506   7.921 -0.3616  0.2469  1.6480
 6745TIP3    H241795   3.738   3.652   7.895  0.2969  0.0228  1.1669
 6746TIP3   OH241796   2.765   3.403   7.856 -0.2068 -0.0586  0.1888
 6746TIP3    H141797   2.751   3.468   7.926  0.6179  0.6451 -0.2781
 6746TIP3    H241798   2.857   3.412   7.834 -0.7002  0.5472 -1.7899
 6747TIP3   OH241799   6.845   0.142   0.012 -0.2931  0.8527  0.5485
 6747TIP3    H141800   6.827   0.202  -0.061  0.8884 -0.8544 -1.2592
 6747TIP3    H241801   6.940   0.146   0.023  0.2245 -2.4316 -1.3871
 6748TIP3   OH241802   0.469   4.618   7.932 -0.1168 -0.0521 -0.8020
 6748TIP3    H141803   0.434   4.535   7.901 -1.1136  0.5740 -1.3941
 6748TIP3    H241804   0.521   4.651   7.859 -1.5456  0.8866 -1.4271
 6749TIP3   OH241805   0.449   0.199   0.316  0.5188  0.2622  0.2062
 6749TIP3    H141806   0.524   0.208   0.257  0.9244  0.5381  0.7526
 6749TIP3    H241807   0.454   0.109   0.348  0.5479  0.2466  0.1578
 6750TIP3   OH241808   4.372   4.660   2.230  0.2876 -0.1991 -0.5174
 6750TIP3    H141809   4.390   4.566   2.236 -2.1209 -0.7372 -0.6701
 6750TIP3    H241810   4.308   4.676   2.299  1.2966  1.5550  0.0817
 6751TIP3   OH241811   1.712   5.277   2.147  0.7769 -0.1384 -0.1456
 6751TIP3    H141812   1.627   5.321   2.141 -0.1432 -1.5565  1.4618
 6751TIP3    H241813   1.776   5.348   2.146 -0.4059  0.9807 -1.2914
 6752TIP3   OH241814   0.619   4.307   0.391  0.2399 -0.3612  0.3329
 6752TIP3    H141815   0.686   4.264   0.444  0.6123 -0.9074 -0.5734
 6752TIP3    H241816   0.577   4.236   0.342  0.0082  0.1601 -0.2336
 6753TIP3   OH241817   2.070   1.822   8.143  0.8419 -0.4992 -0.7564
 6753TIP3    H141818   2.050   1.816   8.050  2.1138 -0.3965 -1.0581
 6753TIP3    H241819   2.165   1.806   8.148  0.6442 -1.4489  0.6116
 6754TIP3   OH241820   5.934   1.628   8.311  0.1335  0.2693 -0.3534
 6754TIP3    H141821   5.929   1.705   8.368 -0.3416 -0.0089 -0.0167
 6754TIP3    H241822   5.932   1.664   8.222 -1.3612  0.5817 -0.2187
 6755TIP3   OH241823   6.063   3.520   2.368 -0.0932 -0.0658  0.5554
 6755TIP3    H141824   6.034   3.450   2.427  0.6022 -1.5142 -0.7611
 6755TIP3    H241825   6.012   3.507   2.288  0.7868  0.2765 -0.0737
 6756TIP3   OH241826   1.956   3.227   1.551  0.1550 -0.2830 -0.6926
 6756TIP3    H141827   2.010   3.148   1.546 -0.6511 -0.9272  0.3505
 6756TIP3    H241828   1.867   3.196   1.537 -0.1981  0.4065 -0.0539
 6757TIP3   OH241829   1.011   4.319   7.236  0.1399 -0.6564  0.4732
 6757TIP3    H141830   1.054   4.355   7.313 -0.5879 -1.6936  1.3974
 6757TIP3    H241831   0.953   4.250   7.270 -0.4601 -0.9080 -0.9593
 6758TIP3   OH241832   3.612   4.396   0.538  0.0293  0.4650  0.3289
 6758TIP3    H141833   3.677   4.438   0.595 -0.7270  1.4605  0.4690
 6758TIP3    H241834   3.575   4.326   0.592  0.1922  0.6094  0.6317
 6759TIP3   OH241835   5.973   1.912   0.872 -0.4881  0.3005 -0.1706
 6759TIP3    H141836   6.048   1.882   0.820 -0.7441 -0.1659 -0.2734
 6759TIP3    H241837   5.975   2.007   0.864  0.0597  0.2872 -0.2216
 6760TIP3   OH241838   4.463   0.439   1.217  0.3141  0.3361  0.1124
 6760TIP3    H141839   4.408   0.458   1.292  0.4947  2.2981 -0.1898
 6760TIP3    H241840   4.541   0.493   1.230  0.7969 -0.0479 -0.9981
 6761TIP3   OH241841   3.038   1.531   7.531  0.5139  0.1967 -0.9614
 6761TIP3    H141842   3.051   1.490   7.445  0.2955  0.6056 -1.1913
 6761TIP3    H241843   3.120   1.575   7.549  0.3591  0.5942 -1.2242
 6762TIP3   OH241844   1.683   2.767   8.347  0.2150 -0.3886 -0.2841
 6762TIP3    H141845   1.757   2.721   8.307  2.2423  0.1429  2.5942
 6762TIP3    H241846   1.714   2.857   8.359 -1.7185  0.4225 -0.8584
 6763TIP3   OH241847   1.235   4.521   0.979 -0.0375 -0.0773  0.1921
 6763TIP3    H141848   1.157   4.466   0.989  0.1631 -0.4096 -0.0396
 6763TIP3    H241849   1.231   4.553   0.889 -0.3850  0.6506  0.4631
 6764TIP3   OH241850   2.928   6.851   1.361 -0.3163  0.6703  0.2435
 6764TIP3    H141851   2.982   6.866   1.283  1.2180 -1.4787  0.7981
 6764TIP3    H241852   2.839   6.873   1.334  0.4088  1.4506 -1.6346
 6765TIP3   OH241853   0.541   4.565   0.472 -0.1680 -0.0172  0.1896
 6765TIP3    H141854   0.608   4.623   0.436  0.1222 -0.1109  0.5679
 6765TIP3    H241855   0.569   4.477   0.446 -1.2117  0.0637 -1.3682
 6766TIP3   OH241856   2.234   0.238   1.109  0.1301  0.2268  0.4423
 6766TIP3    H141857   2.298   0.272   1.171  0.4653 -1.4996  1.1011
 6766TIP3    H241858   2.172   0.310   1.097  1.0771  1.2349  1.3484
 6767TIP3   OH241859   1.045   3.830   1.489 -0.1256  0.3077  0.8499
 6767TIP3    H141860   1.046   3.810   1.583  1.5403 -2.1530  0.4000
 6767TIP3    H241861   1.080   3.751   1.447  1.0934  2.0578 -1.6948
 6768TIP3   OH241862   2.250   2.364   0.679 -0.2290  0.5801  0.4687
 6768TIP3    H141863   2.317   2.349   0.612 -0.1784  1.5659  0.2830
 6768TIP3    H241864   2.253   2.285   0.734 -1.2401 -0.8826 -1.4661
 6769TIP3   OH241865   3.925   2.490   7.839 -0.0420  0.2600  0.2586
 6769TIP3    H141866   3.943   2.579   7.811  1.3655 -0.4798 -1.3702
 6769TIP3    H241867   4.007   2.460   7.879  0.4862 -1.1865 -1.7596
 6770TIP3   OH241868   5.980   6.695   7.864 -0.5612  0.0096 -0.1644
 6770TIP3    H141869   6.026   6.716   7.783 -2.0367 -0.0151 -1.0458
 6770TIP3    H241870   5.924   6.771   7.881  0.2734  0.3497  1.2773
 6771TIP3   OH241871   4.067   5.438   7.356  0.3318 -0.0676  0.4051
 6771TIP3    H141872   3.982   5.478   7.377 -0.2646 -1.7039  1.3149
 6771TIP3    H241873   4.120   5.454   7.434  0.4894 -0.0092  0.2857
 6772TIP3   OH241874   3.659   4.512   2.671  0.2656 -0.3034 -0.3046
 6772TIP3    H141875   3.602   4.513   2.594 -2.1331 -1.4166  1.3174
 6772TIP3    H241876   3.737   4.464   2.642 -1.8814 -3.5755 -1.3093
 6773TIP3   OH241877   5.512   4.485   1.153 -0.0682 -0.3852  0.2744
 6773TIP3    H141878   5.590   4.436   1.128 -1.1974 -2.4074  0.4804
 6773TIP3    H241879   5.536   4.577   1.141  2.4041 -0.9255  0.5856
 6774TIP3   OH241880   4.391   0.571   3.505 -0.1646 -0.0238 -0.4803
 6774TIP3    H141881   4.312   0.622   3.521  0.5545  0.9472  0.0607
 6774TIP3    H241882   4.359   0.483   3.488 -1.3957  0.4548 -0.7742
 6775TIP3   OH241883   6.203   2.894   1.244 -0.2769 -0.0462  0.3689
 6775TIP3    H141884   6.209   2.877   1.150 -0.0874 -0.1096  0.3910
 6775TIP3    H241885   6.292   2.877   1.277 -0.3393 -0.0111  0.5567
 6776TIP3   OH241886   6.614   0.226   3.305 -0.3277  0.2409 -0.2751
 6776TIP3    H141887   6.634   0.149   3.359 -1.3933 -0.9236 -1.4821
 6776TIP3    H241888   6.605   0.192   3.216  0.3672  1.9583 -1.0540
 6777TIP3   OH241889   3.772   4.724   8.281 -0.1028  0.1286  0.2548
 6777TIP3    H141890   3.739   4.742   8.369 -0.9558  0.5774 -0.1437
 6777TIP3    H241891   3.860   4.762   8.281 -1.2088  2.9781 -0.0188
 6778TIP3   OH241892   2.004   3.144   0.904  0.2823  0.0320  0.4576
 6778TIP3    H141893   1.913   3.157   0.932 -0.3765  1.9910 -2.1743
 6778TIP3    H241894   2.053   3.209   0.954 -0.2585  0.8928 -0.0900
 6779TIP3   OH241895   2.844   4.637   8.024  0.4228 -0.1344  0.7021
 6779TIP3    H141896   2.931   4.600   8.006 -0.2425 -0.9210 -1.1771
 6779TIP3    H241897   2.816   4.673   7.940 -0.4039  1.6476  1.6797
 6780TIP3   OH241898   5.532   1.348   7.122 -0.1726  0.3270  1.0012
 6780TIP3    H141899   5.607   1.401   7.149 -0.5491  0.3158  2.1173
 6780TIP3    H241900   5.497   1.312   7.203  0.1958 -1.8348  0.2619
 6781TIP3   OH241901   5.330   3.514   0.827  0.0210 -0.1456 -0.6515
 6781TIP3    H141902   5.245   3.554   0.810 -0.1963 -1.3671 -2.8683
 6781TIP3    H241903   5.391   3.565   0.774  0.8531  1.1124  1.3894
 6782TIP3   OH241904   1.852   0.237   2.318  0.2316 -0.1434 -0.4148
 6782TIP3    H141905   1.834   0.225   2.411  0.2553 -1.2341 -0.5309
 6782TIP3    H241906   1.769   0.216   2.274  0.5923 -1.0404 -0.7033
 6783TIP3   OH241907   4.675   0.088   2.543 -0.0427  0.1484 -0.0822
 6783TIP3    H141908   4.707   0.096   2.453 -1.8240  0.2826 -0.7445
 6783TIP3    H241909   4.752   0.106   2.597  0.9131  0.7660 -1.5677
 6784TIP3   OH241910   3.857   1.342   2.071 -0.7847  0.0723 -0.4062
 6784TIP3    H141911   3.835   1.339   2.164  0.6097 -0.7817 -0.0613
 6784TIP3    H241912   3.813   1.420   2.038 -1.7113  0.1096  0.8566
 6785TIP3   OH241913   6.668   0.577   1.962 -0.5189 -0.0507  0.4903
 6785TIP3    H141914   6.743   0.602   2.016  0.2580 -0.5179 -0.3526
 6785TIP3    H241915   6.635   0.660   1.926 -1.1761  0.2936  1.8092
 6786TIP3   OH241916   6.358   1.253   1.502 -0.1861  0.2438 -0.3080
 6786TIP3    H141917   6.343   1.173   1.452 -0.7506  0.1440  0.0049
 6786TIP3    H241918   6.333   1.230   1.592  0.4376  0.5301 -0.0518
 6787TIP3   OH241919   5.457   4.449   2.630  0.2832  0.2499 -0.4871
 6787TIP3    H141920   5.492   4.498   2.704  0.5671 -0.0456 -0.4228
 6787TIP3    H241921   5.393   4.389   2.668  0.4295  0.0979 -0.4832
 6788TIP3   OH241922   0.124   1.821   7.745  0.2950  0.2083 -0.0584
 6788TIP3    H141923   0.036   1.797   7.716  0.2177  0.4679 -0.0459
 6788TIP3    H241924   0.121   1.808   7.840  0.6697 -1.0179 -0.2052
 6789TIP3   OH241925   0.273   2.065   3.350 -0.7649 -0.5729 -0.7749
 6789TIP3    H141926   0.272   1.996   3.416  0.3503  1.0962  1.1115
 6789TIP3    H241927   0.336   2.034   3.284 -1.0789 -1.8034 -0.5131
 6790TIP3   OH241928   6.590   4.804   2.614 -0.3947 -0.2149 -0.0519
 6790TIP3    H141929   6.511   4.750   2.613 -1.2768  0.9564 -2.7489
 6790TIP3    H241930   6.630   4.785   2.699 -1.7475 -3.4265  0.0313
 6791TIP3   OH241931   3.724   6.015   0.565  0.1018  0.0722  0.3465
 6791TIP3    H141932   3.727   6.026   0.470  0.6306  1.5617  0.5049
 6791TIP3    H241933   3.768   5.931   0.581  0.9850  0.3232 -0.6519
 6792TIP3   OH241934   3.106   6.285   3.726 -0.0927  0.6364 -0.0811
 6792TIP3    H141935   3.061   6.250   3.803  0.8105 -0.0275  0.1723
 6792TIP3    H241936   3.094   6.217   3.659  0.6407  0.3791  0.0372
 6793TIP3   OH241937   5.708   5.479   1.770  0.1211  0.2550  0.4315
 6793TIP3    H141938   5.781   5.447   1.717 -0.4811 -1.3455  0.5068
 6793TIP3    H241939   5.690   5.407   1.831 -2.9319 -0.3910 -1.0477
 6794TIP3   OH241940   3.428   0.383   2.268 -0.6280  0.4271  0.7076
 6794TIP3    H141941   3.522   0.398   2.269 -0.5826  0.2127  0.1545
 6794TIP3    H241942   3.390   0.468   2.289 -0.3167  0.5880  0.6296
 6795TIP3   OH241943   1.010   2.177   0.060 -0.0223  0.0310  0.0505
 6795TIP3    H141944   0.978   2.267   0.076  2.5931  0.9243  0.6818
 6795TIP3    H241945   1.047   2.180  -0.028  1.2851 -0.0221  0.5843
 6796TIP3   OH241946   4.877   1.914   0.506  0.0911 -0.2423 -0.3327
 6796TIP3    H141947   4.818   1.982   0.476 -0.9959 -0.8117  0.4512
 6796TIP3    H241948   4.952   1.961   0.544 -0.3623  0.4994 -0.3539
 6797TIP3   OH241949   0.637   5.246   3.521  0.4704 -0.5355  0.1106
 6797TIP3    H141950   0.695   5.262   3.595 -1.4359 -0.4877  1.6706
 6797TIP3    H241951   0.601   5.158   3.537 -3.6487  1.2664  1.9975
 6798TIP3   OH241952   3.569   1.147   0.779 -0.3855  0.1597 -0.6454
 6798TIP3    H141953   3.534   1.222   0.827 -0.3437  0.7691 -1.5346
 6798TIP3    H241954   3.664   1.160   0.781 -0.2783 -0.6691  0.4513
 6799TIP3   OH241955   0.833   3.833   0.191  0.2879  0.0228  0.4870
 6799TIP3    H141956   0.792   3.901   0.245 -1.2144 -1.6006  1.4717
 6799TIP3    H241957   0.864   3.881   0.113 -2.2412  1.6097  0.3248
 6800TIP3   OH241958   2.805   2.308   2.686 -0.0947  0.1214  0.0342
 6800TIP3    H141959   2.824   2.351   2.769 -0.3110 -0.4348  0.3741
 6800TIP3    H241960   2.722   2.346   2.657 -0.7068 -0.6487  0.7407
 6801TIP3   OH241961   6.050   5.105   1.991 -0.2028 -0.1678  0.9266
 6801TIP3    H141962   5.978   5.091   2.054 -0.5992 -3.2859 -0.0363
 6801TIP3    H241963   6.106   5.169   2.033 -1.2961 -0.8925  3.7402
 6802TIP3   OH241964   0.622   6.201   8.068 -0.0575 -0.7848  0.2939
 6802TIP3    H141965   0.701   6.257   8.072  0.2067 -1.1487  0.2078
 6802TIP3    H241966   0.625   6.163   7.981 -0.3100 -0.8320  0.3069
 6803TIP3   OH241967   0.681   1.343   2.569  0.3919 -0.1454  0.8762
 6803TIP3    H141968   0.626   1.270   2.541  0.7255 -0.0222 -0.1698
 6803TIP3    H241969   0.720   1.315   2.651 -0.3029 -0.7143  1.0192
 6804TIP3   OH241970   6.325   4.518   0.473 -0.2653  0.2580 -0.5459
 6804TIP3    H141971   6.341   4.452   0.540 -0.0325 -0.3227 -1.1586
 6804TIP3    H241972   6.230   4.519   0.463 -0.2807  0.1378 -0.4133
 6805TIP3   OH241973   5.014   1.075   8.224 -0.2263 -0.3372  0.6153
 6805TIP3    H141974   4.944   1.141   8.228 -0.1969 -0.2711  0.0548
 6805TIP3    H241975   5.004   1.035   8.138 -0.2417 -1.0709  0.9478
 6806TIP3   OH241976   1.866   5.347   1.212  0.0287  0.6414 -0.5386
 6806TIP3    H141977   1.782   5.345   1.256  0.2073 -0.1143 -0.2141
 6806TIP3    H241978   1.858   5.283   1.141  0.7903 -0.5129  0.3822
 6807TIP3   OH241979   2.024   6.113   0.521  0.2318 -0.4022 -0.4999
 6807TIP3    H141980   2.057   6.180   0.461  0.9692  0.3282  0.6706
 6807TIP3    H241981   1.953   6.158   0.569  1.2134 -0.1781  0.8056
 6808TIP3   OH241982   6.004   0.036   3.647 -0.0248 -0.2808  0.5454
 6808TIP3    H141983   6.010   0.132   3.639 -0.3497 -0.2943  0.0584
 6808TIP3    H241984   5.998   0.006   3.557 -0.8498 -0.6943  0.7284
 6809TIP3   OH241985   0.016   4.702   2.568 -0.3384 -0.1938  0.1371
 6809TIP3    H141986   0.021   4.705   2.663 -1.4407  1.3640  0.1933
 6809TIP3    H241987   0.060   4.782   2.539  2.3107 -1.9059 -0.8455
 6810TIP3   OH241988   0.489   4.435   3.051 -0.9045 -0.1354 -0.1564
 6810TIP3    H141989   0.561   4.414   2.992 -1.6343 -2.1822 -0.4219
 6810TIP3    H241990   0.452   4.350   3.074 -2.3012  0.7751  1.1577
 6811TIP3   OH241991   6.249   4.706   2.062  0.2444 -0.1720 -0.8112
 6811TIP3    H141992   6.159   4.698   2.095  0.8386 -1.1141  0.6722
 6811TIP3    H241993   6.260   4.800   2.046 -0.8178  0.0270 -0.4662
 6812TIP3   OH241994   1.949   4.093   2.311 -0.1510  0.1082 -0.3542
 6812TIP3    H141995   1.901   4.053   2.384  1.3204  0.2371  0.7302
 6812TIP3    H241996   1.994   4.019   2.269  1.7972  0.4075  1.0621
 6813TIP3   OH241997   3.373   2.979   1.900  0.6671 -0.0546  0.0231
 6813TIP3    H141998   3.401   3.057   1.949  1.8032 -0.5092  0.1209
 6813TIP3    H241999   3.430   2.977   1.823  1.6789 -1.6152  0.7849
 6814TIP3   OH242000   1.643   5.901   1.746  0.0374 -0.0310 -0.4958
 6814TIP3    H142001   1.696   5.874   1.821 -1.6676 -0.3173  0.6470
 6814TIP3    H242002   1.673   5.990   1.727  1.4801 -0.4707 -0.4260
 6815TIP3   OH242003   5.900   5.875   0.725 -0.3519 -0.2730  0.3767
 6815TIP3    H142004   5.928   5.935   0.794 -0.2000  0.1410 -0.0370
 6815TIP3    H242005   5.898   5.929   0.646  1.1768 -1.1145 -0.2802
 6816TIP3   OH242006   2.319   1.807   2.291 -0.4701  0.5878  0.1207
 6816TIP3    H142007   2.316   1.735   2.229 -0.6757  0.6416  0.0685
 6816TIP3    H242008   2.331   1.765   2.376 -1.1505  0.4617  0.1554
 6817TIP3   OH242009   0.785   0.960   3.100  0.8208 -0.4819 -0.2564
 6817TIP3    H142010   0.851   0.891   3.085 -0.3541 -1.3623 -1.8012
 6817TIP3    H242011   0.809   1.029   3.039  1.9577  0.4938  1.2450
 6818TIP3   OH242012   6.049   5.902   2.489 -0.1713 -0.0989  0.0502
 6818TIP3    H142013   6.043   5.820   2.536 -1.4077  0.7396  1.4355
 6818TIP3    H242014   6.057   5.969   2.557  4.1390  0.7860 -1.0510
 6819TIP3   OH242015   6.080   5.353   0.694  0.2234  0.2634  0.2887
 6819TIP3    H142016   6.139   5.301   0.749 -2.4537 -0.1543  3.0816
 6819TIP3    H242017   6.103   5.444   0.715  0.7629  0.1326  0.2858
 6820TIP3   OH242018   2.563   5.491   1.284  0.4305  0.2807  0.3729
 6820TIP3    H142019   2.565   5.415   1.225 -0.5647  0.6070 -0.1063
 6820TIP3    H242020   2.490   5.473   1.344  0.1121  0.9123  0.1817
 6821TIP3   OH242021   4.043   6.381   2.452  0.1657  0.1810 -0.2381
 6821TIP3    H142022   3.992   6.427   2.386 -2.5544 -1.5714  0.4810
 6821TIP3    H242023   4.068   6.298   2.410 -0.0793 -0.1924  0.3344
 6822TIP3   OH242024   1.474   4.604   1.783 -0.1336 -0.2583  0.5074
 6822TIP3    H142025   1.385   4.637   1.772  0.5659  1.6179  0.0527
 6822TIP3    H242026   1.528   4.665   1.733  1.2673 -2.3206 -0.6144
 6823TIP3   OH242027   6.786   5.071   0.313 -0.1024  0.3105 -1.1096
 6823TIP3    H142028   6.708   5.020   0.338  0.1526 -1.0732 -2.8816
 6823TIP3    H242029   6.857   5.032   0.365  0.0690 -1.1452 -2.3615
 6824TIP3   OH242030   2.811   4.289   0.314 -0.0626 -0.7289  0.5482
 6824TIP3    H142031   2.893   4.320   0.275 -0.7357 -1.5600 -1.6840
 6824TIP3    H242032   2.761   4.369   0.332  0.6138 -0.2822  0.4444
 6825TIP3   OH242033   6.162   2.069   7.200 -0.0926 -0.0286 -0.6038
 6825TIP3    H142034   6.090   2.128   7.178  0.1368 -0.1243 -1.6314
 6825TIP3    H242035   6.135   1.984   7.167 -0.2863 -0.4651  0.6097
 6826TIP3   OH242036   3.401   4.084   1.147 -0.6160  0.2915  0.5800
 6826TIP3    H142037   3.345   4.123   1.080 -1.3079 -0.6829  0.5684
 6826TIP3    H242038   3.370   3.993   1.154  1.2859 -0.4175  0.2286
 6827TIP3   OH242039   2.430   3.849   0.770  0.1861  0.4776 -0.1762
 6827TIP3    H142040   2.434   3.809   0.683 -1.3949  2.1160 -1.0612
 6827TIP3    H242041   2.344   3.824   0.804  0.3297  0.8040  0.4322
 6828TIP3   OH242042   2.413   3.418   8.436  0.4941 -0.0492 -0.1599
 6828TIP3    H142043   2.505   3.420   8.460  0.7430 -2.4065 -0.5991
 6828TIP3    H242044   2.411   3.442   8.343  0.5740  0.6512  0.0171
 6829TIP3   OH242045   2.128   0.657   1.952  0.3867 -0.1700  0.4624
 6829TIP3    H142046   2.074   0.580   1.937  1.5398 -0.9102  0.0400
 6829TIP3    H242047   2.067   0.731   1.941 -1.0502 -0.9999  2.1797
 6830TIP3   OH242048   1.733   2.263   8.201 -0.1112  0.1522  0.0333
 6830TIP3    H142049   1.741   2.182   8.152  0.2752  0.0220  0.3103
 6830TIP3    H242050   1.643   2.292   8.185 -0.7295 -1.0789  1.0823
 6831TIP3   OH242051   3.847   5.818   3.601 -0.9571 -0.4309  0.0399
 6831TIP3    H142052   3.789   5.788   3.532 -0.9104 -1.4108  0.4181
 6831TIP3    H242053   3.904   5.882   3.558 -1.1593 -0.7635 -0.7370
 6832TIP3   OH242054   0.679   0.460   1.848 -0.2635 -0.6426  0.5419
 6832TIP3    H142055   0.619   0.402   1.802 -0.3334  0.1003 -0.3278
 6832TIP3    H242056   0.625   0.505   1.913 -1.1611  1.5313 -1.5784
 6833TIP3   OH242057   4.399   2.312   2.199 -0.4005  0.1773  0.3159
 6833TIP3    H142058   4.475   2.368   2.216 -0.3677 -0.0050  0.7735
 6833TIP3    H242059   4.333   2.341   2.262  0.5616 -2.1768  2.6401
 6834TIP3   OH242060   2.524   6.640   2.059  0.5357 -0.5545  0.2670
 6834TIP3    H142061   2.568   6.615   1.978  2.7267 -2.5248  1.9275
 6834TIP3    H242062   2.557   6.727   2.079  1.2260 -0.7207 -0.1463
 6835TIP3   OH242063   3.756   1.679   0.207 -0.1724 -0.2390 -0.3733
 6835TIP3    H142064   3.850   1.693   0.193 -0.0695  0.1138  0.5726
 6835TIP3    H242065   3.730   1.617   0.139  0.6332  0.0728 -0.9806
 6836TIP3   OH242066   4.020   5.384   1.491  0.0759 -0.0528 -0.1645
 6836TIP3    H142067   4.096   5.406   1.546  0.3764  3.6592 -1.7783
 6836TIP3    H242068   4.050   5.314   1.435  2.5588  1.5689 -1.0139
 6837TIP3   OH242069   1.036   2.898   1.225 -0.0486  0.6791 -0.0622
 6837TIP3    H142070   1.023   2.849   1.306 -0.5185  2.7781  1.2211
 6837TIP3    H242071   1.072   2.982   1.253  1.0733  0.9853 -2.1731
 6838TIP3   OH242072   0.139   0.126   7.738  0.4350 -0.7399  0.1502
 6838TIP3    H142073   0.165   0.040   7.770 -0.8451 -0.4061  2.2958
 6838TIP3    H242074   0.190   0.188   7.790  0.7224 -0.1596 -0.7854
 6839TIP3   OH242075   3.902   6.637   1.628 -0.0666  0.0855 -0.3161
 6839TIP3    H142076   3.836   6.671   1.689  1.0925 -0.6519  1.4212
 6839TIP3    H242077   3.852   6.581   1.569 -1.0252 -0.5008  0.9943
 6840TIP3   OH242078   4.279   5.214   2.658 -0.0795 -0.4403  0.0153
 6840TIP3    H142079   4.272   5.198   2.752 -0.0249  0.1919  0.1296
 6840TIP3    H242080   4.253   5.305   2.647  3.1167  0.5828 -0.1592
 6841TIP3   OH242081   1.754   0.836   0.963  0.1140  0.2531 -0.0698
 6841TIP3    H142082   1.730   0.746   0.937 -1.1265  0.3649  0.6078
 6841TIP3    H242083   1.738   0.888   0.884  2.1512 -0.2941 -0.9006
 6842TIP3   OH242084   0.481   5.133   3.221 -0.0681 -0.1378  0.0813
 6842TIP3    H142085   0.500   5.070   3.290  0.4824 -0.6373 -0.5139
 6842TIP3    H242086   0.566   5.175   3.203 -0.2112  0.0063 -0.2677
 6843TIP3   OH242087   4.278   4.875   2.821  0.2306 -0.1332 -0.2894
 6843TIP3    H142088   4.202   4.912   2.775 -0.3991 -0.4634  0.4693
 6843TIP3    H242089   4.303   4.798   2.769 -1.8670 -1.8309  1.0799
 6844TIP3   OH242090   1.440   0.435   1.709 -0.6846 -0.1591 -0.0621
 6844TIP3    H142091   1.495   0.404   1.637 -0.0768 -1.7974  1.0592
 6844TIP3    H242092   1.464   0.380   1.784 -0.1231  2.4798  1.8681
 6845TIP3   OH242093   0.888   3.231   0.205  0.2059  0.4239  0.5915
 6845TIP3    H142094   0.845   3.251   0.288 -1.0788 -0.7377  0.2358
 6845TIP3    H242095   0.919   3.315   0.174 -0.9723  1.1669  1.3379
 6846TIP3   OH242096   6.493   2.520   2.230  0.5550  0.6231 -0.5683
 6846TIP3    H142097   6.410   2.565   2.217 -1.0532 -1.4937  1.6248
 6846TIP3    H242098   6.495   2.496   2.322  2.2378 -1.9314 -1.1349
 6847TIP3   OH242099   2.045   6.952   0.725 -0.2729  0.2591  0.1124
 6847TIP3    H142100   2.016   6.984   0.811 -3.7393  0.9795 -1.1489
 6847TIP3    H242101   2.040   6.857   0.732 -0.6324  0.3119  0.6989
 6848TIP3   OH242102   2.579   2.637   0.053  0.8908 -0.3381  0.4758
 6848TIP3    H142103   2.569   2.566  -0.010  0.0431  1.1474 -1.1529
 6848TIP3    H242104   2.552   2.715   0.006 -0.5547  0.7789  2.9261
 6849TIP3   OH242105   6.877   0.572   0.588  0.5442 -0.6119 -0.0547
 6849TIP3    H142106   6.947   0.551   0.526  1.2016 -0.2850  0.5647
 6849TIP3    H242107   6.908   0.651   0.633 -0.4639 -0.1606 -0.1360
 6850TIP3   OH242108   0.865   1.215   0.799 -0.2280 -0.8454  0.4461
 6850TIP3    H142109   0.818   1.293   0.830 -0.4222 -0.6599 -0.3159
 6850TIP3    H242110   0.850   1.213   0.705  2.1479 -0.1576 -0.0255
 6851TIP3   OH242111   6.041   3.385   1.378  0.4676 -0.8724 -0.3005
 6851TIP3    H142112   6.010   3.405   1.466  1.0810 -1.8175  0.1561
 6851TIP3    H242113   6.045   3.289   1.376 -2.6537 -1.0663 -2.4718
 6852TIP3   OH242114   3.882   4.484   8.166  0.6083 -0.1911 -0.0208
 6852TIP3    H142115   3.858   4.422   8.236 -0.9844  0.3128 -0.0795
 6852TIP3    H242116   3.855   4.569   8.199 -1.7085 -0.1177 -1.8476
 6853TIP3   OH242117   1.220   0.311   1.967  0.0687  0.7187  0.0883
 6853TIP3    H142118   1.209   0.354   1.881  0.1499 -0.2214 -0.4008
 6853TIP3    H242119   1.170   0.230   1.960 -2.8998  2.1977  2.1475
 6854TIP3   OH242120   6.152   5.659   7.667 -0.6022 -0.2876  0.5533
 6854TIP3    H142121   6.120   5.742   7.633 -0.3901 -1.5854 -3.1882
 6854TIP3    H242122   6.095   5.593   7.629  1.3158 -2.0776  0.5826
 6855TIP3   OH242123   2.718   6.981   1.234 -0.2792  0.6468  0.3161
 6855TIP3    H142124   2.719   7.064   1.187  0.6574  1.2228  1.2938
 6855TIP3    H242125   2.657   6.994   1.306  0.7342  0.9173  1.1554
 6856TIP3   OH242126   3.224   1.948   3.088 -0.7008 -0.4055  0.5601
 6856TIP3    H142127   3.243   1.951   3.182 -0.6956  0.7193  0.5384
 6856TIP3    H242128   3.232   2.039   3.059 -1.6036 -0.5911 -0.3478
 6857TIP3   OH242129   2.604   5.732   2.257 -0.4410  0.2647  0.4977
 6857TIP3    H142130   2.564   5.819   2.257 -0.8795  0.0729 -0.3556
 6857TIP3    H242131   2.568   5.689   2.335 -0.4721  0.7318  0.7429
 6858TIP3   OH242132   4.055   0.115   8.187  0.6237  0.1450  0.2228
 6858TIP3    H142133   4.135   0.133   8.237  0.2872  0.7516  0.5519
 6858TIP3    H242134   3.995   0.076   8.250  0.4167  0.3378  0.1458
 6859TIP3   OH242135   4.293   0.222   0.228 -0.1602  0.1219  0.0457
 6859TIP3    H142136   4.362   0.263   0.281 -0.4147  1.4578 -0.6214
 6859TIP3    H242137   4.239   0.175   0.291 -0.1445  1.2398  0.9239
 6860TIP3   OH242138   6.170   3.052   2.388 -0.2855 -0.4427 -0.4277
 6860TIP3    H142139   6.254   3.017   2.416  0.0571  0.2719 -0.5308
 6860TIP3    H242140   6.105   2.991   2.422  0.2654 -0.8721 -0.1469
 6861TIP3   OH242141   6.116   6.675   3.490 -0.3033  0.0321 -0.0597
 6861TIP3    H142142   6.053   6.738   3.455  0.5064  0.7352 -0.3057
 6861TIP3    H242143   6.116   6.603   3.428 -0.0163  0.5657 -0.6973
 6862TIP3   OH242144   5.388   4.944   7.866 -0.1618 -0.1518 -0.7136
 6862TIP3    H142145   5.312   4.887   7.879 -0.2800 -0.3671 -2.1480
 6862TIP3    H242146   5.370   4.988   7.782  0.0436  1.8130  0.2238
 6863TIP3   OH242147   0.162   4.275   2.639 -0.6639  0.2135 -0.1174
 6863TIP3    H142148   0.239   4.331   2.626  0.1238 -1.2085 -1.9416
 6863TIP3    H242149   0.093   4.316   2.587 -0.3245 -0.0119 -0.7601
 6864TIP3   OH242150   4.057   4.073   6.995 -0.1604  0.7299 -0.6820
 6864TIP3    H142151   4.153   4.072   7.004 -0.2018 -0.6609 -0.0573
 6864TIP3    H242152   4.041   4.104   6.906  0.8920  0.5355 -0.9537
 6865TIP3   OH242153   3.032   4.208   7.780  0.1843 -0.7843  0.2698
 6865TIP3    H142154   2.994   4.256   7.854  1.1059  0.1864  0.1409
 6865TIP3    H242155   2.994   4.120   7.787 -1.6372 -0.0353  0.4540
 6866TIP3   OH242156   2.385   2.401   2.565 -0.3489  0.5820 -0.2761
 6866TIP3    H142157   2.374   2.440   2.479 -0.2344  1.0975 -0.0598
 6866TIP3    H242158   2.438   2.464   2.614  0.8231 -0.3622 -0.2887
 6867TIP3   OH242159   2.190   0.394   8.199  0.0121 -0.1912 -0.3648
 6867TIP3    H142160   2.270   0.357   8.237 -1.3312 -1.1860  1.7060
 6867TIP3    H242161   2.146   0.319   8.158 -0.2808  0.1749 -0.7353
 6868TIP3   OH242162   0.558   4.312   1.856 -0.1621  0.1855 -0.0416
 6868TIP3    H142163   0.555   4.353   1.769 -2.5817  1.8674  0.7371
 6868TIP3    H242164   0.480   4.258   1.859  1.6625 -2.6253 -0.0663
 6869TIP3   OH242165   2.597   5.782   1.895  0.6016 -0.2589 -0.5696
 6869TIP3    H142166   2.513   5.806   1.936  0.5206  0.4706 -1.1411
 6869TIP3    H242167   2.638   5.722   1.958  0.3591  0.6179  0.4537
 6870TIP3   OH242168   3.611   2.934   0.360 -0.2232 -0.1327 -0.3432
 6870TIP3    H142169   3.614   2.840   0.338 -0.9122  0.0315 -1.1762
 6870TIP3    H242170   3.525   2.947   0.398 -0.1061  0.1569 -0.1754
 6871TIP3   OH242171   0.539   2.473   8.198 -0.8010  0.2860 -0.5087
 6871TIP3    H142172   0.507   2.541   8.140 -1.7750 -0.1023 -0.4423
 6871TIP3    H242173   0.597   2.419   8.144  0.5615  1.5653 -0.3787
 6872TIP3   OH242174   6.233   1.803   7.334 -0.0471  0.2399  0.0184
 6872TIP3    H142175   6.308   1.843   7.291 -0.1845 -2.2807 -2.9245
 6872TIP3    H242176   6.160   1.819   7.275 -0.7547 -1.4544  0.3725
 6873TIP3   OH242177   6.370   3.055   7.637  0.2239 -0.0683  0.2390
 6873TIP3    H142178   6.296   3.066   7.578  0.2802  1.2859  0.3974
 6873TIP3    H242179   6.441   3.024   7.580  0.5065  1.9744 -0.6053
 6874TIP3   OH242180   2.142   4.058   2.011  0.1006  0.3300 -0.3074
 6874TIP3    H142181   2.134   4.094   2.100  0.5481  1.1188 -0.5782
 6874TIP3    H242182   2.051   4.054   1.979  0.0190  1.0043 -0.1801
 6875TIP3   OH242183   3.675   6.357   2.765 -0.1361 -0.1699 -0.3187
 6875TIP3    H142184   3.590   6.400   2.775 -0.0136  0.6221 -2.3408
 6875TIP3    H242185   3.718   6.369   2.850 -1.0760  1.6069 -0.0475
 6876TIP3   OH242186   0.391   4.388   7.807 -0.1716  0.1420 -0.0056
 6876TIP3    H142187   0.472   4.405   7.760  0.1888 -1.1348  0.1235
 6876TIP3    H242188   0.322   4.422   7.750  0.3344 -0.3494 -0.9155
 6877TIP3   OH242189   3.974   2.414   0.927  0.2045  0.9631 -0.1850
 6877TIP3    H142190   3.961   2.493   0.873 -0.8911  0.0417 -1.3279
 6877TIP3    H242191   3.912   2.351   0.892  0.7728 -0.2875  0.9902
 6878TIP3   OH242192   0.456   3.128   2.841  0.1086 -0.3702 -0.5388
 6878TIP3    H142193   0.481   3.140   2.749  2.4558  0.3226  0.1328
 6878TIP3    H242194   0.362   3.146   2.842  0.3142  1.1963 -2.5371
 6879TIP3   OH242195   4.613   3.191   2.847 -0.7689 -0.6648  0.0279
 6879TIP3    H142196   4.644   3.161   2.762 -1.2236 -1.4651  0.1334
 6879TIP3    H242197   4.547   3.127   2.873  0.1061 -1.0594  1.4577
 6880TIP3   OH242198   1.127   0.399   1.201 -0.4703  0.3120 -0.0483
 6880TIP3    H142199   1.203   0.343   1.185 -0.2101  0.9147 -0.9448
 6880TIP3    H242200   1.085   0.360   1.278  1.4131  0.6782  1.2327
 6881TIP3   OH242201   3.110   4.049   1.207 -0.2470 -0.0684  0.4343
 6881TIP3    H142202   3.150   3.972   1.247  0.4105  0.7478  1.4009
 6881TIP3    H242203   3.089   4.022   1.118  0.7515 -1.0908  0.4913
 6882TIP3   OH242204   3.692   1.298   1.326 -0.3069  0.1522  0.1313
 6882TIP3    H142205   3.617   1.295   1.385 -0.6855  0.3603 -0.3300
 6882TIP3    H242206   3.658   1.339   1.246  0.2971  0.2516 -0.0814
 6883TIP3   OH242207   3.068   1.374   1.042  0.5168 -0.4140  0.4067
 6883TIP3    H142208   3.126   1.317   0.992  0.0659 -0.3270 -0.2262
 6883TIP3    H242209   3.113   1.387   1.125  0.4763 -1.9351  0.6870
 6884TIP3   OH242210   4.462   0.723   8.265  0.4499 -0.2963 -0.0647
 6884TIP3    H142211   4.370   0.735   8.287  0.7470  2.7531 -0.1392
 6884TIP3    H242212   4.474   0.770   8.182  1.8225 -1.8202 -0.8038
 6885TIP3   OH242213   6.876   5.700   8.227  0.0081 -0.3163 -0.3887
 6885TIP3    H142214   6.897   5.612   8.260 -0.8390 -0.3058  0.2261
 6885TIP3    H242215   6.825   5.684   8.148  2.1173 -0.3417 -1.8368
 6886TIP3   OH242216   6.368   4.298   0.641 -0.2014 -0.3475  0.8814
 6886TIP3    H142217   6.275   4.320   0.648 -0.0461  0.3102  0.9035
 6886TIP3    H242218   6.377   4.216   0.691 -0.8384 -0.6352  0.5375
 6887TIP3   OH242219   4.870   1.471   2.357 -0.1096 -0.1330  0.5586
 6887TIP3    H142220   4.777   1.476   2.335  0.0016  1.0006  0.3109
 6887TIP3    H242221   4.872   1.422   2.439 -1.0169  0.7245  1.1179
 6888TIP3   OH242222   5.211   4.705   2.763 -0.3373 -0.3880 -0.6129
 6888TIP3    H142223   5.161   4.632   2.801 -0.6264 -0.0493 -0.3425
 6888TIP3    H242224   5.201   4.693   2.668  1.9033 -2.3067 -0.6968
 6889TIP3   OH242225   1.525   5.941   7.460  0.1494 -0.5067  0.2922
 6889TIP3    H142226   1.515   5.942   7.555 -3.0454 -1.4703  0.0613
 6889TIP3    H242227   1.593   5.876   7.444  0.1207 -0.9693  1.8654
 6890TIP3   OH242228   5.728   3.194   1.879  0.5712 -0.3911 -0.2052
 6890TIP3    H142229   5.643   3.166   1.913  0.7632 -0.6983  0.0254
 6890TIP3    H242230   5.792   3.155   1.939  0.9253 -1.0373 -0.9887
 6891TIP3   OH242231   5.636   2.013   3.096 -0.7871 -0.0357  0.3753
 6891TIP3    H142232   5.577   2.036   3.168 -0.9294 -0.4876  0.4015
 6891TIP3    H242233   5.724   2.015   3.134 -0.5678  2.4655 -0.0744
 6892TIP3   OH242234   5.422   6.414   1.821 -0.6807 -0.1659 -0.3203
 6892TIP3    H142235   5.333   6.450   1.828 -0.6180  0.2429 -1.5259
 6892TIP3    H242236   5.408   6.323   1.792 -0.6732  0.3801 -2.1458
 6893TIP3   OH242237   6.763   4.552   0.680  0.1925  0.3458  0.2600
 6893TIP3    H142238   6.851   4.553   0.643 -0.7492  0.9357 -2.1227
 6893TIP3    H242239   6.720   4.477   0.638 -0.1522 -0.6766  2.2777
 6894TIP3   OH242240   3.561   6.401   2.010  0.5042 -0.2211  0.2147
 6894TIP3    H142241   3.553   6.321   2.062  3.0641 -0.0223  1.0187
 6894TIP3    H242242   3.580   6.370   1.922 -0.8928 -0.4937 -0.0235
 6895TIP3   OH242243   5.957   5.113   0.129 -0.0436  0.1618 -0.5397
 6895TIP3    H142244   6.028   5.176   0.118  0.6659 -0.9686 -3.3278
 6895TIP3    H242245   5.990   5.051   0.195  0.2431  1.3222  0.4337
 6896TIP3   OH242246   2.981   4.188   2.360  0.2131  0.1552 -0.5437
 6896TIP3    H142247   2.980   4.137   2.278 -1.1408  0.7855 -0.9589
 6896TIP3    H242248   2.927   4.136   2.420 -0.3017  0.5639 -0.6411
 6897TIP3   OH242249   1.868   3.090   2.681 -0.4769 -0.4048 -0.0471
 6897TIP3    H142250   1.803   3.021   2.668  0.3391 -1.3175  0.6124
 6897TIP3    H242251   1.899   3.110   2.593 -1.5143 -0.0753 -0.3521
 6898TIP3   OH242252   6.737   2.183   0.348 -0.1926  0.2727  0.5505
 6898TIP3    H142253   6.710   2.143   0.265  0.9042 -0.7303  0.6499
 6898TIP3    H242254   6.660   2.172   0.405 -0.3388 -0.6295  0.1998
 6899TIP3   OH242255   0.577   3.710   1.050 -0.3678  0.9091  0.0087
 6899TIP3    H142256   0.558   3.776   1.116 -0.5344  1.7247 -0.8351
 6899TIP3    H242257   0.663   3.733   1.017 -0.1177  0.2728  0.2101
 6900TIP3   OH242258   3.087   1.877   1.461  0.3041  0.3268  0.0889
 6900TIP3    H142259   3.027   1.826   1.515 -0.1098  1.5103  0.7979
 6900TIP3    H242260   3.164   1.821   1.450 -0.0094 -0.3243  1.0908
 6901TIP3   OH242261   2.080   3.848   2.261  0.1261 -0.1823 -0.2802
 6901TIP3    H142262   2.154   3.795   2.290  0.8243  0.3980 -0.9542
 6901TIP3    H242263   2.015   3.785   2.230 -0.1575 -0.7560  1.3937
 6902TIP3   OH242264   2.809   2.290   1.812 -0.4033  0.5605  0.4722
 6902TIP3    H142265   2.834   2.269   1.722  0.5659  0.2520  0.8052
 6902TIP3    H242266   2.757   2.215   1.840 -0.0676  0.3079  0.4216
 6903TIP3   OH242267   4.626   0.873   2.955 -0.5653 -0.2343  0.3659
 6903TIP3    H142268   4.630   0.787   2.996  1.5379  0.0206  0.8488
 6903TIP3    H242269   4.581   0.928   3.019  1.2935 -0.1983  1.7372
 6904TIP3   OH242270   1.342   5.949   2.021 -0.8975 -0.0336  0.3125
 6904TIP3    H142271   1.249   5.946   1.998 -0.6402 -1.3200 -0.6339
 6904TIP3    H242272   1.388   5.940   1.938  0.0818  0.0156  0.8331
 6905TIP3   OH242273   0.857   1.785   0.569  0.5312  0.4900  0.2996
 6905TIP3    H142274   0.824   1.698   0.593  1.1935  0.5158  1.3812
 6905TIP3    H242275   0.921   1.806   0.638  0.2882  1.8896  0.1267
 6906TIP3   OH242276   6.147   2.550   1.222  0.2270  0.4164 -0.3324
 6906TIP3    H142277   6.233   2.527   1.256  0.2971  0.5133 -0.4423
 6906TIP3    H242278   6.109   2.467   1.194 -0.0178  0.2758  0.4120
 6907TIP3   OH242279   3.332   4.182   2.629  0.0641  0.0470 -0.5874
 6907TIP3    H142280   3.238   4.173   2.642 -0.0407 -0.3884 -1.5829
 6907TIP3    H242281   3.355   4.264   2.672 -0.1027 -1.6170  3.0887
 6908TIP3   OH242282   3.258   4.908   1.596 -0.2558 -0.6415  0.2194
 6908TIP3    H142283   3.173   4.939   1.627 -0.1029 -0.2793  0.2710
 6908TIP3    H242284   3.251   4.812   1.600  0.0220 -0.6174  2.0916
 6909TIP3   OH242285   3.499   4.088   2.437 -0.0125  0.0717 -0.5573
 6909TIP3    H142286   3.460   4.144   2.505  0.7596 -0.6290  0.4990
 6909TIP3    H242287   3.513   4.147   2.363  1.3570  1.4834  0.7373
 6910TIP3   OH242288   2.765   1.775   0.208  0.4133 -0.4074 -0.3430
 6910TIP3    H142289   2.824   1.800   0.137  0.6418  1.2832  0.4114
 6910TIP3    H242290   2.679   1.806   0.180  0.3774 -0.3798 -0.2011
 6911TIP3   OH242291   5.996   4.592   2.027  0.1968 -0.2482 -0.5519
 6911TIP3    H142292   5.940   4.573   1.951  1.1243 -3.2693 -0.5897
 6911TIP3    H242293   5.940   4.574   2.102 -1.0249  3.6256 -0.3128
 6912TIP3   OH242294   2.988   6.953   7.879 -0.2549  0.5880  0.4414
 6912TIP3    H142295   3.012   6.980   7.790 -1.7741  0.7987  0.0675
 6912TIP3    H242296   2.922   7.017   7.907 -0.2869  0.1326  1.4613
 6913TIP3   OH242297   4.409   4.422   1.652  0.8798 -0.7146  0.3687
 6913TIP3    H142298   4.418   4.327   1.667 -3.6093 -1.5212 -0.5333
 6913TIP3    H242299   4.420   4.432   1.558  1.6515 -0.2814  0.5055
 6914TIP3   OH242300   5.907   4.829   1.012 -0.8919 -0.3148  0.0096
 6914TIP3    H142301   5.864   4.794   1.090  2.1259 -1.8912  1.1203
 6914TIP3    H242302   5.956   4.905   1.044 -1.3830  0.3857 -0.8573
 6915TIP3   OH242303   2.855   5.919   2.794  0.6052  0.7087  0.0534
 6915TIP3    H142304   2.895   5.976   2.728  1.6156 -0.4173 -0.3519
 6915TIP3    H242305   2.917   5.920   2.867  0.4860  0.3519  0.1611
 6916TIP3   OH242306   4.164   4.414   0.415 -0.3776 -0.0072 -0.6302
 6916TIP3    H142307   4.102   4.344   0.437 -0.7471  1.3127  3.4355
 6916TIP3    H242308   4.244   4.391   0.462 -0.5012  2.1483  0.7893
 6917TIP3   OH242309   4.818   3.901   2.064  0.2459  0.2068  0.1521
 6917TIP3    H142310   4.776   3.978   2.101  0.0256 -0.5251  1.4781
 6917TIP3    H242311   4.901   3.893   2.111  1.2265  0.7834 -1.4088
 6918TIP3   OH242312   0.869   1.816   2.559 -0.0470 -0.2392  0.0515
 6918TIP3    H142313   0.911   1.896   2.529  0.2796 -0.9641 -1.5690
 6918TIP3    H242314   0.906   1.800   2.646  0.5989  0.8359 -0.0069
 6919TIP3   OH242315   6.235   4.223   1.679 -0.3398 -0.3403  0.2419
 6919TIP3    H142316   6.157   4.178   1.712  0.1042 -1.1873  0.1780
 6919TIP3    H242317   6.263   4.170   1.605 -0.1800  0.4305 -0.2587
 6920TIP3   OH242318   2.520   1.710   2.029  0.0550 -0.0634 -0.0126
 6920TIP3    H142319   2.542   1.791   2.075 -0.9831  1.9014 -2.7622
 6920TIP3    H242320   2.511   1.645   2.099  1.6942  1.9518  2.2386
 6921TIP3   OH242321   1.502   5.336   3.090 -0.0105 -0.1784 -0.0836
 6921TIP3    H142322   1.582   5.304   3.132  0.8193  1.4730 -0.2888
 6921TIP3    H242323   1.468   5.401   3.151 -1.5714 -1.2913  0.2799
 6922TIP3   OH242324   5.881   4.743   2.758  0.1100 -0.4171 -0.0093
 6922TIP3    H142325   5.866   4.835   2.780  1.0395 -0.4684  0.8787
 6922TIP3    H242326   5.870   4.696   2.840  3.0912 -0.6767  0.3590
 6923TIP3   OH242327   1.478   2.537   3.335 -0.6998 -0.0092 -0.8749
 6923TIP3    H142328   1.504   2.626   3.361  0.2996 -0.1287 -1.4187
 6923TIP3    H242329   1.542   2.480   3.377 -0.4580 -0.3611 -1.6918
 6924TIP3   OH242330   6.319   3.474   2.524  0.1208  0.6204 -0.0673
 6924TIP3    H142331   6.251   3.418   2.486  0.6773  1.0631 -1.8048
 6924TIP3    H242332   6.336   3.436   2.610 -1.3825 -0.2858 -0.1369
 6925TIP3   OH242333   1.124   2.550   1.794 -0.5097 -0.3559 -0.4408
 6925TIP3    H142334   1.198   2.491   1.804 -1.1476 -1.0714  0.2495
 6925TIP3    H242335   1.049   2.500   1.828 -1.5896 -0.2459 -2.4924
 6926TIP3   OH242336   2.634   4.767   7.495 -0.4174  0.2840 -0.6400
 6926TIP3    H142337   2.551   4.771   7.542 -0.8633 -0.3791 -1.3351
 6926TIP3    H242338   2.655   4.858   7.475 -1.1738  0.4341 -0.7778
 6927TIP3   OH242339   0.201   1.442   2.468  0.0174 -0.2657  0.2435
 6927TIP3    H142340   0.219   1.397   2.550 -0.4040  1.4178  1.3184
 6927TIP3    H242341   0.132   1.391   2.427  0.6525 -1.4688  0.6274
 6928TIP3   OH242342   3.827   4.364   2.365  1.2594  0.1978 -0.2470
 6928TIP3    H142343   3.865   4.438   2.319  0.9602  0.6801  0.2675
 6928TIP3    H242344   3.885   4.350   2.440  1.0478  0.2225 -0.0765
 6929TIP3   OH242345   4.154   6.150   0.510  0.0542  0.5851  0.5830
 6929TIP3    H142346   4.188   6.231   0.548 -0.4696  0.4463  1.3581
 6929TIP3    H242347   4.076   6.177   0.462  0.4073  0.6716  0.0337
 6930TIP3   OH242348   5.593   2.839   2.407 -0.2572 -0.7335  0.0488
 6930TIP3    H142349   5.666   2.836   2.346  0.0764  0.7298  0.3190
 6930TIP3    H242350   5.535   2.907   2.372 -0.5326 -0.5474  0.8408
 6931TIP3   OH242351   0.602   3.701   8.014 -0.2140 -0.1965 -0.4217
 6931TIP3    H142352   0.549   3.780   8.003 -1.4173 -1.0230 -0.8471
 6931TIP3    H242353   0.664   3.723   8.083 -1.7150  0.5473  0.7620
 6932TIP3   OH242354   4.391   2.957   0.633 -0.1365  0.0146  0.5317
 6932TIP3    H142355   4.388   3.031   0.694  0.7649  2.2518 -1.9541
 6932TIP3    H242356   4.356   2.991   0.551 -0.9005 -2.7403 -0.4068
 6933TIP3   OH242357   1.299   2.525   1.224  0.0831  0.4106 -0.1753
 6933TIP3    H142358   1.394   2.535   1.233  0.3325 -2.0559  0.9820
 6933TIP3    H242359   1.286   2.501   1.133  0.8354 -0.9051  0.0218
 6934TIP3   OH242360   4.058   6.728   2.158 -0.1416  0.2533  0.1139
 6934TIP3    H142361   4.075   6.638   2.184  0.9661  0.6133  0.6862
 6934TIP3    H242362   4.144   6.764   2.138 -0.5258  1.3145  0.3048
 6935TIP3   OH242363   1.133   4.466   2.866  0.2918  0.2920 -0.2288
 6935TIP3    H142364   1.174   4.547   2.836  0.0622  0.3746 -0.3210
 6935TIP3    H242365   1.116   4.481   2.959 -0.7850  0.7887 -0.4900
 6936TIP3   OH242366   3.711   3.298   2.514 -0.6828 -0.1205 -0.4874
 6936TIP3    H142367   3.669   3.302   2.600 -1.0528 -0.6337 -0.6378
 6936TIP3    H242368   3.787   3.356   2.521  0.3469 -1.5654  0.7815
 6937TIP3   OH242369   0.086   2.197   0.925  0.0565 -0.6014 -0.4446
 6937TIP3    H142370   0.096   2.104   0.907  1.3123 -0.5325 -0.2066
 6937TIP3    H242371   0.146   2.240   0.864 -1.0411  0.1105 -1.0487
 6938TIP3   OH242372   3.919   3.411   2.686 -0.1329 -0.1282 -0.7839
 6938TIP3    H142373   3.962   3.327   2.667  0.0458 -0.1931 -0.1201
 6938TIP3    H242374   3.985   3.477   2.664 -0.3878 -0.1370 -1.6193
 6939TIP3   OH242375   6.251   1.192   0.976  0.5904 -0.5413  0.3112
 6939TIP3    H142376   6.297   1.130   1.031  1.3263  0.8881  1.3788
 6939TIP3    H242377   6.258   1.156   0.887  0.7859 -2.0541  0.9107
 6940TIP3   OH242378   0.570   1.786   1.604 -0.1398  0.6356 -0.5417
 6940TIP3    H142379   0.477   1.783   1.584 -0.8974 -2.2000  2.4434
 6940TIP3    H242380   0.610   1.723   1.543 -0.8065 -0.6761  0.3226
 6941TIP3   OH242381   0.791   4.185   0.976 -0.1767 -0.0919 -0.4008
 6941TIP3    H142382   0.767   4.277   0.964 -1.8449 -0.2097  1.4580
 6941TIP3    H242383   0.734   4.137   0.916 -1.1711 -0.0468  0.4791
 6942TIP3   OH242384   5.273   2.836   1.796  0.3205 -0.3914 -0.3463
 6942TIP3    H142385   5.216   2.785   1.739 -0.7720 -1.4773  1.6241
 6942TIP3    H242386   5.225   2.917   1.812  0.4910 -0.2171 -0.7019
 6943TIP3   OH242387   2.550   5.212   7.484  0.6026 -0.3017  0.2713
 6943TIP3    H142388   2.545   5.291   7.538 -1.9680 -0.6806  0.6988
 6943TIP3    H242389   2.459   5.190   7.464  1.3444 -1.7740 -1.9307
 6944TIP3   OH242390   0.680   3.594   1.974  0.2202  0.0728 -0.4211
 6944TIP3    H142391   0.649   3.535   1.906  1.9094 -0.9887 -0.3234
 6944TIP3    H242392   0.733   3.658   1.928 -0.0895  0.4216 -0.3012
 6945TIP3   OH242393   4.185   6.229   8.224 -0.0617 -0.1374  0.1722
 6945TIP3    H142394   4.215   6.246   8.135  0.5924  0.2099  0.4493
 6945TIP3    H242395   4.090   6.222   8.217 -0.1642  1.4572 -0.3104
 6946TIP3   OH242396   2.584   1.906   8.155  0.1072 -0.1001 -0.1811
 6946TIP3    H142397   2.663   1.858   8.179 -0.6317 -1.4570 -0.3506
 6946TIP3    H242398   2.616   1.981   8.105  1.3425  0.0069  0.7265
 6947TIP3   OH242399   3.789   6.108   2.905 -0.4537  0.0848 -0.1679
 6947TIP3    H142400   3.702   6.145   2.915 -0.9840 -1.3767  0.8832
 6947TIP3    H242401   3.848   6.180   2.927 -1.4378  0.4700  1.3263
 6948TIP3   OH242402   6.591   4.528   8.174 -0.4865 -0.2871 -0.6316
 6948TIP3    H142403   6.564   4.586   8.246  0.9845 -0.7713  0.3372
 6948TIP3    H242404   6.573   4.579   8.095 -0.7928  0.8237  0.1296
 6949TIP3   OH242405   2.095   1.806   7.887  0.0611 -0.5077  0.3194
 6949TIP3    H142406   2.180   1.766   7.872  0.5320 -0.0036  1.4593
 6949TIP3    H242407   2.096   1.887   7.836  1.8742  1.5005  3.2066
 6950TIP3   OH242408   3.038   2.591   2.631 -0.2304 -0.2572 -0.0569
 6950TIP3    H142409   3.039   2.586   2.727  0.5582  2.0672  0.1173
 6950TIP3    H242410   2.958   2.639   2.611 -0.4357 -0.8075 -0.5973
 6951TIP3   OH242411   6.850   6.472   7.306  0.3986 -0.6914 -0.6328
 6951TIP3    H142412   6.936   6.514   7.296  0.3267  0.2869  1.9579
 6951TIP3    H242413   6.804   6.492   7.225  2.8457 -1.9352 -2.4591
 6952TIP3   OH242414   4.630   0.455   7.357 -0.0376 -0.1614  0.0116
 6952TIP3    H142415   4.622   0.550   7.363  0.9091 -0.1322  1.5743
 6952TIP3    H242416   4.711   0.441   7.308  1.5689 -0.0426  2.4542
 6953TIP3   OH242417   1.466   5.315   1.667 -0.2055  0.3062 -0.4188
 6953TIP3    H142418   1.509   5.400   1.662  0.9798 -0.3329 -2.0073
 6953TIP3    H242419   1.473   5.279   1.578 -2.9589 -0.3803 -0.4315
 6954TIP3   OH242420   0.243   4.089   1.289 -0.1814 -0.1907 -0.1423
 6954TIP3    H142421   0.195   4.109   1.209  2.5118  0.1850 -1.7751
 6954TIP3    H242422   0.287   4.170   1.312  0.5691 -0.8026  0.6624
 6955TIP3   OH242423   3.290   3.468   2.622  0.2811 -0.0917  0.1774
 6955TIP3    H142424   3.213   3.518   2.649  0.9468  1.1822 -0.2290
 6955TIP3    H242425   3.354   3.481   2.692  1.0208  0.9615 -0.6658
 6956TIP3   OH242426   1.524   3.996   0.452 -1.0635 -0.5020  0.5811
 6956TIP3    H142427   1.463   4.060   0.489  0.2103  0.2966  1.4137
 6956TIP3    H242428   1.474   3.915   0.446 -2.7262  0.5594 -0.5005
 6957TIP3   OH242429   6.755   4.135   0.774  0.2672  0.3944  0.2494
 6957TIP3    H142430   6.716   4.129   0.861  0.3729 -1.3933  0.2164
 6957TIP3    H242431   6.773   4.044   0.750  0.4503  0.8725 -1.5507
 6958TIP3   OH242432   5.835   4.660   1.211  0.3478  0.4552  0.2525
 6958TIP3    H142433   5.836   4.722   1.283  0.4712  0.1514  0.5113
 6958TIP3    H242434   5.815   4.575   1.251 -0.5304  0.4403 -0.1904
 6959TIP3   OH242435   0.724   4.314   2.051 -0.3012 -0.4025  0.6963
 6959TIP3    H142436   0.667   4.275   2.118 -0.6553 -0.4486  0.3659
 6959TIP3    H242437   0.673   4.312   1.971 -0.0867  0.1791  0.5409
 6960TIP3   OH242438   3.936   3.175   0.130 -0.0602 -0.1372 -0.0359
 6960TIP3    H142439   3.862   3.121   0.101 -0.8496  1.7123 -1.6515
 6960TIP3    H242440   3.907   3.211   0.214  0.3635 -1.9095  0.9271
 6961TIP3   OH242441   1.049   6.838   7.101  0.5438 -0.2332  0.0306
 6961TIP3    H142442   1.125   6.884   7.137  1.3828 -0.1915 -1.6874
 6961TIP3    H242443   0.980   6.852   7.165  1.8954 -0.0398  1.5243
 6962TIP3   OH242444   2.650   5.433   8.180  0.2273 -0.2623  0.2434
 6962TIP3    H142445   2.657   5.435   8.085  0.8390 -1.0534  0.2589
 6962TIP3    H242446   2.624   5.522   8.205  1.8357  0.4544 -0.5289
 6963TIP3   OH242447   4.011   2.850   2.710  0.1863 -0.2075  0.4751
 6963TIP3    H142448   3.967   2.774   2.671  1.1686 -0.1712 -0.7415
 6963TIP3    H242449   3.947   2.921   2.702  0.6185 -0.0015 -1.8489
 6964TIP3   OH242450   3.588   0.917   1.647  0.0172  0.2889 -0.0753
 6964TIP3    H142451   3.537   0.931   1.568  0.9536 -1.7991 -1.1412
 6964TIP3    H242452   3.536   0.856   1.699  0.5153 -0.3623 -0.3087
 6965TIP3   OH242453   5.287   2.681   3.678  0.0423  0.0216  0.3727
 6965TIP3    H142454   5.368   2.634   3.659 -0.0510  0.4595 -1.2425
 6965TIP3    H242455   5.283   2.750   3.612 -0.3988  1.5979  1.9836
 6966TIP3   OH242456   2.844   6.073   8.404 -0.2850  0.2260  0.2415
 6966TIP3    H142457   2.861   6.121   8.486 -0.3536  1.4529 -0.4347
 6966TIP3    H242458   2.914   6.102   8.345 -0.4259 -0.4012 -0.2396
 6967TIP3   OH242459   1.797   3.049   2.293 -0.0820  0.0878 -0.2090
 6967TIP3    H142460   1.818   3.098   2.213  2.2300  0.0401  0.2986
 6967TIP3    H242461   1.702   3.054   2.300 -0.5714 -1.1539 -3.7612
 6968TIP3   OH242462   5.515   1.884   2.619  0.0416 -0.2754 -0.0921
 6968TIP3    H142463   5.444   1.905   2.678 -0.5990 -0.1401 -0.8969
 6968TIP3    H242464   5.558   1.968   2.601 -1.1090  0.0387 -1.5119
 6969TIP3   OH242465   5.751   4.268   7.388 -0.0602 -0.5081 -0.2283
 6969TIP3    H142466   5.670   4.223   7.365 -1.2792  0.7624  1.3780
 6969TIP3    H242467   5.745   4.352   7.342  0.1156 -0.2134  0.2828
 6970TIP3   OH242468   5.452   6.598   7.246 -0.0274 -0.3895  0.8133
 6970TIP3    H142469   5.362   6.570   7.261 -0.2654 -1.2559 -1.8039
 6970TIP3    H242470   5.497   6.520   7.212  0.9882  0.6966 -0.4799
 6971TIP3   OH242471   3.950   3.540   2.197  0.4496 -0.4251  0.1498
 6971TIP3    H142472   3.990   3.621   2.229  0.2371 -0.8459  1.5353
 6971TIP3    H242473   3.999   3.470   2.240  0.4815 -1.0462 -0.8575
 6972TIP3   OH242474   1.362   4.328   0.040  0.1511  0.4164 -0.1310
 6972TIP3    H142475   1.318   4.245   0.054  1.5170 -0.3613 -0.2291
 6972TIP3    H242476   1.336   4.382   0.115 -2.2687  0.6298 -1.0486
 6973TIP3   OH242477   4.295   5.759   1.876 -0.1213 -0.0048 -0.1807
 6973TIP3    H142478   4.347   5.788   1.801 -0.6479  0.7104 -0.2734
 6973TIP3    H242479   4.212   5.731   1.839  0.0531 -0.8199  0.0121
 6974TIP3   OH242480   3.932   6.234   0.035 -0.4959  0.6110  0.4520
 6974TIP3    H142481   3.857   6.227  -0.024 -3.9413  1.0241  4.3838
 6974TIP3    H242482   3.965   6.323   0.022 -0.7115  0.4972 -1.1638
 6975TIP3   OH242483   0.813   0.691   8.086 -0.1764 -0.0818  0.3794
 6975TIP3    H142484   0.768   0.730   8.161  2.0035  0.2928  1.5815
 6975TIP3    H242485   0.870   0.624   8.125 -0.5998 -1.4239 -1.2031
 6976TIP3   OH242486   3.250   3.775   0.207  0.4957  0.2006  0.3820
 6976TIP3    H142487   3.303   3.820   0.140 -1.5747 -0.4222 -1.8203
 6976TIP3    H242488   3.250   3.683   0.179 -0.2300 -0.1288  1.4136
 6977TIP3   OH242489   5.772   1.482   0.522  0.5267  0.3202  0.1497
 6977TIP3    H142490   5.829   1.408   0.504  0.1303 -0.4513  1.8747
 6977TIP3    H242491   5.707   1.479   0.452  0.8990 -0.5520 -0.1776
 6978TIP3   OH242492   4.145   6.580   2.798  0.1585  0.5623  0.1753
 6978TIP3    H142493   4.094   6.499   2.789  0.9762  0.0686 -0.0571
 6978TIP3    H242494   4.235   6.554   2.779  0.3606  1.6252 -0.3674
 6979TIP3   OH242495   4.586   3.245   7.913 -0.0352  0.0226 -0.0445
 6979TIP3    H142496   4.590   3.202   7.827 -0.3818  0.0113 -0.0566
 6979TIP3    H242497   4.581   3.173   7.976 -0.1439  0.0346 -0.0383
 6980TIP3   OH242498   3.736   3.899   1.066  0.4420  0.5684  0.1529
 6980TIP3    H142499   3.649   3.870   1.037  0.0949 -0.5481  2.0850
 6980TIP3    H242500   3.718   3.975   1.122  0.8232  1.0353 -0.3538
 6981TIP3   OH242501   0.531   5.943   0.299  0.2276  0.7610 -0.7721
 6981TIP3    H142502   0.435   5.946   0.294  0.1875  1.4886  0.0591
 6981TIP3    H242503   0.558   5.902   0.217 -0.8620 -0.9994 -0.3152
 6982TIP3   OH242504   5.004   1.649   0.549 -0.2163  0.0031 -0.4089
 6982TIP3    H142505   4.990   1.744   0.550  1.1309  0.2094 -0.2194
 6982TIP3    H242506   5.099   1.638   0.548 -0.2992 -1.3440  1.1944
 6983TIP3   OH242507   1.506   4.433   1.248  0.0605  0.3062  0.1799
 6983TIP3    H142508   1.465   4.430   1.334  2.7370  0.1385  1.5207
 6983TIP3    H242509   1.490   4.346   1.210 -3.1200  1.0699 -0.6172
 6984TIP3   OH242510   1.603   2.830   7.381  0.1592 -0.0258 -0.1742
 6984TIP3    H142511   1.536   2.862   7.321  0.0786  0.0208 -0.0614
 6984TIP3    H242512   1.591   2.735   7.384  1.1128 -0.2062 -1.3678
 6985TIP3   OH242513   3.396   1.309   1.392 -0.2048 -0.0792 -0.6197
 6985TIP3    H142514   3.417   1.243   1.325 -1.5242 -1.0852 -0.1007
 6985TIP3    H242515   3.322   1.357   1.356  0.1785  0.5255 -0.6072
 6986TIP3   OH242516   0.452   5.455   2.581  0.8037  0.1348 -0.5016
 6986TIP3    H142517   0.431   5.537   2.625  2.4307 -0.0219  0.6394
 6986TIP3    H242518   0.524   5.477   2.522  0.2900 -0.1942 -1.2723
 6987TIP3   OH242519   5.362   6.979   2.286 -0.4436 -0.3905 -0.0633
 6987TIP3    H142520   5.333   7.044   2.223 -0.4478 -0.4620 -0.1355
 6987TIP3    H242521   5.326   6.896   2.254  0.4296 -0.5984 -0.5519
 6988TIP3   OH242522   6.384   4.310   7.302  0.1053 -0.2091  0.1356
 6988TIP3    H142523   6.334   4.376   7.350 -0.5262 -0.7198  0.2058
 6988TIP3    H242524   6.339   4.303   7.218  1.1405  0.6041 -0.4991
 6989TIP3   OH242525   3.829   6.861   2.099  0.2499 -0.3341 -0.2062
 6989TIP3    H142526   3.804   6.916   2.174  1.1190 -1.4736  0.9793
 6989TIP3    H242527   3.910   6.818   2.128  0.5772 -0.8443 -1.8025
 6990TIP3   OH242528   5.109   3.351   1.084 -0.2566  0.0859  0.7281
 6990TIP3    H142529   5.026   3.321   1.048 -0.0372  0.8420 -0.4584
 6990TIP3    H242530   5.113   3.444   1.063  0.9758  0.0247  0.5983
 6991TIP3   OH242531   5.408   2.801   7.619 -0.4403  0.1632 -0.1477
 6991TIP3    H142532   5.462   2.751   7.681  0.6282  0.2284 -1.0052
 6991TIP3    H242533   5.403   2.744   7.542 -0.9625  0.4945 -0.3586
 6992TIP3   OH242534   2.281   5.013   0.164  0.5489 -0.2813  0.5400
 6992TIP3    H142535   2.196   4.996   0.204 -0.9421  1.3105 -1.6897
 6992TIP3    H242536   2.263   5.014   0.070  3.7412 -3.3639 -0.3320
 6993TIP3   OH242537   4.724   3.474   3.138 -0.2465 -0.0125 -0.6323
 6993TIP3    H142538   4.705   3.391   3.181  0.8044 -1.4671 -2.7845
 6993TIP3    H242539   4.801   3.508   3.185  1.1363 -1.7587 -1.5162
 6994TIP3   OH242540   1.138   1.949   8.080  1.5671 -0.3634  0.3527
 6994TIP3    H142541   1.070   1.947   8.012  2.4761 -1.3892 -0.5537
 6994TIP3    H242542   1.101   1.898   8.152  0.8002  0.3161  0.4667
 6995TIP3   OH242543   4.537   6.105   0.141  0.2163 -0.0343 -0.7547
 6995TIP3    H142544   4.589   6.115   0.220 -3.2411 -0.5137  1.8070
 6995TIP3    H242545   4.529   6.194   0.106  1.9929  0.1384 -0.8214
 6996TIP3   OH242546   6.765   6.662   1.132 -0.1033 -0.5504  0.5406
 6996TIP3    H142547   6.728   6.742   1.096 -0.2630 -2.1127 -3.1382
 6996TIP3    H242548   6.693   6.622   1.180 -1.8441 -1.1064 -2.3114
 6997TIP3   OH242549   5.142   3.102   8.327 -0.2427 -0.0368  0.3282
 6997TIP3    H142550   5.234   3.128   8.316 -0.0042 -0.1117  1.8289
 6997TIP3    H242551   5.093   3.184   8.322 -0.0975  0.0031 -0.4839
 6998TIP3   OH242552   4.560   6.960   2.974  0.3811 -0.4778  0.0198
 6998TIP3    H142553   4.530   6.873   2.951 -2.4793  0.5060 -0.4217
 6998TIP3    H242554   4.579   6.955   3.068 -0.6686 -1.3770  0.2057
 6999TIP3   OH242555   5.631   1.454   2.973 -0.3853 -0.1911  0.3592
 6999TIP3    H142556   5.706   1.510   2.992 -0.8486  0.1346  1.2735
 6999TIP3    H242557   5.669   1.373   2.939  0.2939  0.6219 -0.9014
 7000TIP3   OH242558   6.796   5.294   2.489 -0.3852  0.1948  0.2094
 7000TIP3    H142559   6.787   5.224   2.424 -1.0768 -0.4382  0.9677
 7000TIP3    H242560   6.718   5.348   2.477  0.1376  0.8512 -0.3611
 7001TIP3   OH242561   0.787   0.792   1.191  0.1909  0.8898 -0.4465
 7001TIP3    H142562   0.853   0.782   1.123 -0.4862  0.5232 -1.0569
 7001TIP3    H242563   0.758   0.703   1.211  0.1640  1.0143  0.1112
 7002TIP3   OH242564   5.982   0.068   7.757  0.2346  0.1175 -0.0786
 7002TIP3    H142565   5.906   0.063   7.816  0.6961  0.6588  0.5790
 7002TIP3    H242566   5.944   0.088   7.671 -0.3483  0.7937  0.3200
 7003TIP3   OH242567   3.623   5.083   1.810  0.0537 -0.7700 -0.0384
 7003TIP3    H142568   3.622   5.117   1.720  2.1256 -2.2179 -0.6971
 7003TIP3    H242569   3.683   5.141   1.857  0.5415 -1.1775 -0.1439
 7004TIP3   OH242570   2.981   3.600   7.598  0.2911 -0.3951 -0.5341
 7004TIP3    H142571   3.005   3.523   7.547  2.1506 -0.0185 -0.3243
 7004TIP3    H242572   2.985   3.673   7.536  1.8477 -0.0367 -0.0582
 7005TIP3   OH242573   1.837   3.898   2.032 -0.2080 -0.5374 -0.6165
 7005TIP3    H142574   1.783   3.886   2.110  0.3268 -0.9969 -0.3078
 7005TIP3    H242575   1.819   3.987   2.004 -0.0479 -0.2010  0.3104
 7006TIP3   OH242576   5.132   0.529   7.709  0.0962 -0.5986  0.2112
 7006TIP3    H142577   5.166   0.604   7.758 -0.7796 -0.3694  0.4890
 7006TIP3    H242578   5.210   0.482   7.680  0.6483  0.1034  0.5238
 7007TIP3   OH242579   3.682   1.368   2.786 -0.7782 -0.0773  0.4125
 7007TIP3    H142580   3.722   1.446   2.747 -0.3433 -0.5521 -0.1081
 7007TIP3    H242581   3.698   1.377   2.880  0.0787  0.0136  0.2645
 7008TIP3   OH242582   3.717   0.051   2.286 -0.3451 -0.5162 -0.5537
 7008TIP3    H142583   3.719   0.142   2.256 -0.8473 -0.8006 -1.4823
 7008TIP3    H242584   3.724   0.057   2.381 -0.9999  0.5250 -0.5578
 7009TIP3   OH242585   2.241   5.226   2.469  0.1608  0.4332 -0.0604
 7009TIP3    H142586   2.165   5.173   2.446 -0.6936  0.9432  1.4273
 7009TIP3    H242587   2.208   5.289   2.533  1.8960  0.4952  0.8415
 7010TIP3   OH242588   3.941   2.654   2.370  0.1718  0.4450  0.1138
 7010TIP3    H142589   4.028   2.620   2.349  0.1959  0.6529 -0.1253
 7010TIP3    H242590   3.950   2.749   2.367 -0.2031  0.4704 -0.5184
 7011TIP3   OH242591   0.959   6.035   0.213 -0.2514  0.3094  0.3792
 7011TIP3    H142592   0.894   5.971   0.241 -0.8969  0.0107 -1.6459
 7011TIP3    H242593   0.947   6.109   0.272 -0.7078 -0.7357  1.6249
 7012TIP3   OH242594   0.946   2.046   0.957  0.3865 -0.0022 -0.2420
 7012TIP3    H142595   0.893   2.124   0.972 -0.0378 -0.1762 -0.7930
 7012TIP3    H242596   1.036   2.075   0.975  0.0181 -0.0228  1.8333
 7013TIP3   OH242597   6.850   1.547   7.201  0.3464  0.0811  0.1572
 7013TIP3    H142598   6.783   1.590   7.147  0.9423 -1.2663 -1.7767
 7013TIP3    H242599   6.809   1.537   7.287 -1.3811  0.6330 -0.5564
 7014TIP3   OH242600   5.654   6.068   8.338 -0.4736  0.0705 -0.1809
 7014TIP3    H142601   5.679   6.010   8.411  0.6400 -0.6913 -1.1242
 7014TIP3    H242602   5.596   6.132   8.378 -0.7066 -0.9252  1.1787
 7015TIP3   OH242603   0.339   3.636   2.347 -0.0717  0.2855  0.0235
 7015TIP3    H142604   0.366   3.631   2.439  0.6736  0.3447 -0.1879
 7015TIP3    H242605   0.414   3.675   2.302 -0.0763 -0.5603 -0.7489
 7016TIP3   OH242606   2.423   4.304   0.156 -0.2783  0.3062  0.1552
 7016TIP3    H142607   2.347   4.247   0.141 -0.5706  0.7329  0.0031
 7016TIP3    H242608   2.416   4.328   0.248  0.2173 -0.4315  0.3979
 7017TIP3   OH242609   6.433   4.273   2.354 -0.0013  0.0950 -0.5901
 7017TIP3    H142610   6.527   4.281   2.366  0.0944  0.7705 -1.6707
 7017TIP3    H242611   6.400   4.247   2.440  1.1010  0.4188 -0.0518
 7018TIP3   OH242612   3.647   0.923   1.274  0.3769  0.5943  0.7071
 7018TIP3    H142613   3.678   0.928   1.183  0.4036 -0.0361  0.6739
 7018TIP3    H242614   3.651   1.013   1.306  0.1311  0.8602  0.0055
 7019TIP3   OH242615   2.587   1.897   1.585 -0.3333  0.5559  0.2686
 7019TIP3    H142616   2.648   1.825   1.570 -0.3143  0.1864  1.8763
 7019TIP3    H242617   2.538   1.870   1.663  1.0200  3.1087  2.1197
 7020TIP3   OH242618   0.050   2.008   3.160  0.1815  0.4938 -0.4449
 7020TIP3    H142619   0.048   1.914   3.182 -1.3939  0.7328  0.5942
 7020TIP3    H242620   0.124   2.042   3.211  0.0460  0.0170  0.0823
 7021TIP3   OH242621   0.135   3.734   7.631 -0.4094  0.6271 -0.0211
 7021TIP3    H142622   0.098   3.647   7.644 -0.6406  1.1164  3.4336
 7021TIP3    H242623   0.106   3.760   7.543 -1.7512 -2.0445 -0.4602
 7022TIP3   OH242624   0.477   1.040   1.854 -0.9233  0.2700 -0.0694
 7022TIP3    H142625   0.440   0.952   1.846  1.3071 -0.6301 -1.4583
 7022TIP3    H242626   0.549   1.030   1.917 -0.1376  0.8852 -0.8397
 7023TIP3   OH242627   6.552   5.320   3.470 -0.1918 -0.1125 -0.1880
 7023TIP3    H142628   6.557   5.285   3.381  0.8547 -0.4194 -0.0256
 7023TIP3    H242629   6.461   5.305   3.497 -0.2630 -0.9345 -0.8325
 7024TIP3   OH242630   4.535   1.789   0.637 -0.5653 -0.5965 -0.3985
 7024TIP3    H142631   4.467   1.856   0.637 -0.2736 -0.3040  0.0515
 7024TIP3    H242632   4.578   1.797   0.722 -0.1406 -0.9583 -0.5731
 7025TIP3   OH242633   0.515   2.792   1.988  0.4704  1.0192  0.7282
 7025TIP3    H142634   0.589   2.842   2.021 -0.4602  1.2378  2.5909
 7025TIP3    H242635   0.444   2.856   1.980  0.1925  0.6240 -0.0715
 7026TIP3   OH242636   2.456   6.944   0.069  0.5911  0.2390  0.2243
 7026TIP3    H142637   2.427   6.923  -0.020  0.3508 -1.5730  0.6760
 7026TIP3    H242638   2.396   7.012   0.098 -1.2165 -1.1531 -0.0315
 7027TIP3   OH242639   2.804   3.142   0.323  0.1029 -0.3765  0.1768
 7027TIP3    H142640   2.764   3.127   0.237 -1.0774 -1.1240  0.8318
 7027TIP3    H242641   2.766   3.075   0.379  1.8989 -0.7725  0.9783
 7028TIP3   OH242642   2.256   1.675   8.378  0.0894 -0.5474 -0.0861
 7028TIP3    H142643   2.298   1.702   8.296  0.4972  0.1428  0.3381
 7028TIP3    H242644   2.322   1.622   8.422 -0.0193 -0.6655 -0.0660
 7029TIP3   OH242645   6.851   4.868   2.086 -0.7296  0.3532  0.4891
 7029TIP3    H142646   6.873   4.777   2.109 -0.9222  0.2348  0.2053
 7029TIP3    H242647   6.758   4.875   2.104 -0.4285  0.9486  1.9855
 7030TIP3   OH242648   6.143   4.980   8.206 -0.6550 -0.1578  0.7447
 7030TIP3    H142649   6.068   5.015   8.253 -1.2141 -0.8909  0.4125
 7030TIP3    H242650   6.182   5.056   8.162 -1.2017  0.2224  0.9131
 7031TIP3   OH242651   3.436   4.050   1.450 -0.0058  0.0835  0.1634
 7031TIP3    H142652   3.392   4.123   1.406 -0.8448 -0.5557 -0.0897
 7031TIP3    H242653   3.389   3.972   1.420 -0.6692 -0.3832  2.2375
 7032TIP3   OH242654   1.601   5.730   2.465 -0.0899 -0.0744 -0.3205
 7032TIP3    H142655   1.623   5.781   2.542  0.4997  0.2651 -0.7043
 7032TIP3    H242656   1.577   5.794   2.399 -0.7219 -0.3682 -0.3800
 7033TIP3   OH242657   4.140   4.254   6.800  0.5501 -0.4294  0.6786
 7033TIP3    H142658   4.224   4.228   6.763  0.4657  1.0147 -0.6761
 7033TIP3    H242659   4.158   4.337   6.844 -0.3522  0.5878 -0.7609
 7034TIP3   OH242660   1.766   2.102   7.891 -0.4733  0.6290  0.2994
 7034TIP3    H142661   1.776   2.007   7.885 -2.8409  0.3452  0.0108
 7034TIP3    H242662   1.836   2.137   7.837 -0.3845 -1.0044 -0.7050
 7035TIP3   OH242663   1.198   1.217   0.841 -0.2088 -0.3619  0.5529
 7035TIP3    H142664   1.139   1.289   0.861  0.5798  0.6493 -0.5712
 7035TIP3    H242665   1.286   1.256   0.841  0.2443 -1.3151 -0.0230
 7036TIP3   OH242666   1.810   2.673   7.243  0.7746 -0.2898 -0.1239
 7036TIP3    H142667   1.874   2.631   7.185  0.8412 -0.2065 -0.1100
 7036TIP3    H242668   1.804   2.763   7.211 -0.4452 -0.6746 -1.0887
 7037TIP3   OH242669   5.970   2.156   2.119  0.1034  0.2803  0.6054
 7037TIP3    H142670   6.008   2.240   2.146 -0.7094  0.0813  2.5862
 7037TIP3    H242671   5.899   2.179   2.060 -0.3220  1.0314  1.3946
 7038TIP3   OH242672   4.298   3.170   1.435 -0.0447 -0.5752 -0.3410
 7038TIP3    H142673   4.221   3.124   1.467 -0.6683 -0.1725 -1.2031
 7038TIP3    H242674   4.355   3.178   1.511 -0.1529 -2.2610 -0.0404
 7039TIP3   OH242675   1.347   3.727   7.265  0.2019 -0.1191  0.2768
 7039TIP3    H142676   1.388   3.676   7.334  1.1479  1.3857  0.8784
 7039TIP3    H242677   1.360   3.676   7.185 -0.1812 -1.4798  1.0581
 7040TIP3   OH242678   6.057   6.791   2.138  0.1342 -0.1920 -0.2847
 7040TIP3    H142679   6.041   6.701   2.167  0.2736 -0.0147  0.3621
 7040TIP3    H242680   6.115   6.782   2.062  1.9273 -0.5685  1.0659
 7041TIP3   OH242681   3.481   4.549   2.461  0.1758  0.1465 -0.4593
 7041TIP3    H142682   3.474   4.642   2.442  1.1246  0.3150 -0.0392
 7041TIP3    H242683   3.476   4.507   2.375  0.3407  0.6290 -0.7106
 7042TIP3   OH242684   3.009   1.411   0.717 -0.2758 -0.1406  0.5914
 7042TIP3    H142685   2.935   1.380   0.664 -0.9782  2.0914  0.1567
 7042TIP3    H242686   2.973   1.485   0.767  1.3114  0.0866  1.4553
 7043TIP3   OH242687   4.790   4.972   3.033  0.2758  0.0522  0.4127
 7043TIP3    H142688   4.805   5.058   3.074 -1.3264 -0.3163  1.8911
 7043TIP3    H242689   4.822   4.909   3.098  2.0384 -0.5264 -0.9199
 7044TIP3   OH242690   6.309   5.745   0.717 -0.0749 -0.2716 -0.0768
 7044TIP3    H142691   6.361   5.811   0.763 -1.7973  0.2961  1.1288
 7044TIP3    H242692   6.313   5.668   0.774  1.0867 -0.9304 -0.9895
 7045TIP3   OH242693   1.485   2.507   7.601  0.4443  0.2308  0.0227
 7045TIP3    H142694   1.505   2.518   7.508  0.4771 -0.3066 -0.0360
 7045TIP3    H242695   1.480   2.596   7.635  0.0283  0.4395 -0.5785
 7046TIP3   OH242696   4.662   0.914   3.338  0.0357  0.6035  0.0607
 7046TIP3    H142697   4.670   0.968   3.417 -2.7028 -1.1035  1.6483
 7046TIP3    H242698   4.614   0.969   3.276 -0.7269  0.8068  0.8169
 7047TIP3   OH242699   3.695   4.829   0.347  0.1561 -0.3484  0.0037
 7047TIP3    H142700   3.628   4.840   0.416  0.6346 -0.0392  0.4293
 7047TIP3    H242701   3.742   4.749   0.372  1.5836  0.7753  1.1480
 7048TIP3   OH242702   4.910   0.532   7.871 -0.0982 -0.4177 -0.3174
 7048TIP3    H142703   4.916   0.606   7.931 -0.8607  1.4072 -2.3687
 7048TIP3    H242704   4.995   0.529   7.827 -0.0503 -0.7847 -0.2018
 7049TIP3   OH242705   5.888   5.167   1.715 -0.1889 -0.5344 -0.2815
 7049TIP3    H142706   5.801   5.170   1.756 -0.0652 -1.5799  0.0901
 7049TIP3    H242707   5.947   5.143   1.786  0.4291  0.2412 -0.5153
 7050TIP3   OH242708   6.077   4.305   1.312  0.2416  0.0708 -0.0074
 7050TIP3    H142709   6.117   4.238   1.256  0.2692  0.7789 -0.8541
 7050TIP3    H242710   6.147   4.368   1.328  0.0526  0.2035  0.3067
 7051TIP3   OH242711   1.471   5.248   2.368  0.7797 -0.1716  0.7955
 7051TIP3    H142712   1.547   5.193   2.348  0.6919 -0.6673  1.7522
 7051TIP3    H242713   1.509   5.329   2.403  0.9791  1.1417 -2.1688
 7052TIP3   OH242714   2.295   0.856   1.864 -0.2441  0.0487  0.2320
 7052TIP3    H142715   2.376   0.862   1.915 -0.2024  0.3624  0.1319
 7052TIP3    H242716   2.253   0.775   1.895 -1.6294  1.6388  2.8221
 7053TIP3   OH242717   0.344   0.634   0.984  0.1486  0.3803  0.4558
 7053TIP3    H142718   0.348   0.718   0.938  0.0845  0.5541  0.7628
 7053TIP3    H242719   0.296   0.576   0.924  1.7015  0.0467 -0.5374
 7054TIP3   OH242720   5.917   4.586   0.848 -0.3398  0.5464  0.5192
 7054TIP3    H142721   5.900   4.498   0.882 -1.1765 -0.6279 -2.5417
 7054TIP3    H242722   5.880   4.645   0.913 -2.8470 -1.5102  1.1471
 7055LIG      O42723   0.180   0.324   6.246 -0.4121 -0.3562 -0.2754
 7055LIG      N42724   0.008   0.096   6.306 -0.8295  0.1648  0.4170
 7055LIG     C142725   0.202   0.249   6.022  0.0411 -0.1582  0.4285
 7055LIG     C242726   0.118   0.332   6.118 -0.0769  0.1601 -0.5694
 7055LIG     C342727   0.148   0.247   5.879  0.2587 -0.2079  0.2274
 7055LIG     C442728   0.353   0.293   6.015 -0.6492  0.1156 -0.0452
 7055LIG     C542729  -0.031   0.286   6.131 -0.5221 -0.3906  0.2843
 7055LIG     C642730   0.233   0.162   5.790  0.4193 -0.1053  0.3127
 7055LIG     C742731   0.441   0.208   5.925  0.5840  0.0010  0.6264
 7055LIG     C842732   0.378   0.215   5.784  0.3197 -0.0256  0.0099
 7055LIG     C942733  -0.049   0.135   6.177 -0.2075  0.5926  0.1199
 7055LIG    C1042734   0.100   0.482   6.061  0.0898  0.3031 -0.4147
 7055LIG    C1142735  -0.052   0.147   6.426 -0.2312  0.4049  0.5266
 7055LIG    C1242736   0.019  -0.062   6.316  0.9942  0.1387 -0.2111
 7055LIG    C1342737  -0.187   0.081   6.450  0.3927 -0.9991  0.1828
 7055LIG    C1442738  -0.117  -0.122   6.333 -0.3631 -0.0960  0.8545
 7055LIG    C1542739  -0.195  -0.068   6.451 -0.1809 -0.1279 -0.1136
 7055LIG    C1642740   0.016   0.515   5.955 -0.1597  0.2032 -0.3301
 7055LIG    C1742741   0.175   0.593   6.114  0.1723  0.4517 -0.3374
 7055LIG    C1842742   0.005   0.647   5.900 -0.6046  0.2417 -0.1689
 7055LIG    C1942743   0.165   0.724   6.057 -0.2206 -0.5201  0.0228
 7055LIG    C2042744   0.086   0.745   5.947  0.6624  0.1112  0.6166
 7055LIG     H142745   0.190   0.146   6.062 -1.3436 -0.5786 -0.9868
 7055LIG     H242746   0.149   0.348   5.832  0.5037 -1.3163 -2.3086
 7055LIG     H342747   0.049   0.196   5.876  0.6886 -1.0586 -1.7294
 7055LIG     H442748   0.394   0.274   6.117  1.5112  1.5961 -0.5789
 7055LIG     H542749   0.363   0.402   5.999 -3.4089  0.3221 -0.8951
 7055LIG     H642750  -0.079   0.294   6.031 -1.1325  0.0049  0.6078
 7055LIG     H742751  -0.084   0.345   6.207  0.5022  0.5197  0.3188
 7055LIG     H842752   0.191   0.156   5.687 -1.3958 -1.8953  1.0997
 7055LIG     H942753   0.232   0.058   5.830  0.6346  0.3162  1.4455
 7055LIG    H1042754   0.438   0.106   5.969 -2.8082  0.1640  1.0718
 7055LIG    H1142755   0.536   0.265   5.918 -0.2794  1.3455 -0.9765
 7055LIG    H1242756   0.386   0.319   5.748 -1.7264  0.5707  1.1146
 7055LIG    H1342757   0.438   0.148   5.719 -1.0113 -0.1264 -1.1485
 7055LIG    H1442758  -0.158   0.115   6.180  0.0722 -1.0456 -0.0680
 7055LIG    H1542759  -0.014   0.066   6.097  0.8572 -0.7887  1.7235
 7055LIG    H1642760  -0.087   0.252   6.415 -1.3365  0.1489  1.4081
 7055LIG    H1742761   0.016   0.144   6.513  1.2201 -0.0897 -0.5828
 7055LIG    H1842762   0.073  -0.074   6.412  1.0461 -0.3159 -0.2966
 7055LIG    H1942763   0.087  -0.090   6.232  1.0786 -1.5569  0.3940
 7055LIG    H2042764   0.155   0.242   6.287 -1.5502 -0.1650 -0.5520
 7055LIG    H2142765  -0.263   0.120   6.380  0.6203  0.3927  0.6748
 7055LIG    H2242766  -0.227   0.118   6.547 -1.2145  0.7869 -1.0895
 7055LIG    H2342767  -0.112  -0.233   6.331  1.1850 -0.0393 -0.5714
 7055LIG    H2442768  -0.180  -0.087   6.249  1.9584  0.7244 -0.6428
 7055LIG    H2542769  -0.297  -0.111   6.441 -0.3260  0.4061 -1.0575
 7055LIG    H2642770  -0.142  -0.090   6.546  2.4819  5.8326  0.2543
 7055LIG    H2742771  -0.051   0.445   5.908 -0.3168 -0.0445  0.2493
 7055LIG    H2842772   0.249   0.573   6.190 -0.8836 -1.3036  0.2753
 7055LIG    H2942773  -0.062   0.661   5.816 -0.9499  0.5781  0.1600
 7055LIG    H3042774   0.232   0.802   6.092  0.5618 -0.0821 -2.2796
 7055LIG    H3142775   0.072   0.845   5.908  0.4542  0.2461  1.0231
   6.99494   6.99494   8.43736
