Title
42775
    1SAPS     N    1   1.185   4.254   8.325 -0.1320 -0.4371 -0.0307
    1SAPS   HN1    2   1.260   4.284   8.389  0.8889  1.3184 -1.9469
    1SAPS   HN2    3   1.226   4.200   8.246 -0.3707 -0.9484  0.1837
    1SAPS   HN3    4   1.135   4.332   8.278  1.3994 -0.5996 -2.0547
    1SAPS   C12    5   1.085   4.165   8.396 -0.4389  0.9830  0.1404
    1SAPS  H12A    6   1.133   4.073   8.424  2.4454  2.9693  2.3329
    1SAPS   C13    7   1.042   4.223   8.535  0.2958 -0.0239  0.7796
    1SAPS  O13A    8   1.120   4.305   8.590  0.2680 -0.3094 -0.1578
    1SAPS  O13B    9   0.953   4.155   8.600  0.3698 -0.0095  0.3332
    1SAPS   C11   10   0.964   4.129   8.296 -0.2298  1.1703  0.2304
    1SAPS  H11A   11   0.913   4.224   8.269 -0.5076  0.7191 -0.8585
    1SAPS  H11B   12   0.893   4.078   8.364  1.0515  1.6850  2.0383
    1SAPS     P   13   0.991   4.107   8.031 -0.0370  0.0853  0.0644
    1SAPS   O13   14   1.024   3.994   7.942 -0.4633  0.0659 -0.0572
    1SAPS   O14   15   0.858   4.180   8.021  0.5434  0.5779  0.3291
    1SAPS   O12   16   1.004   4.050   8.180  0.0800 -0.1314  0.1958
    1SAPS   O11   17   1.110   4.202   8.046  0.2511  0.3388 -0.2350
    1SAPS    C1   18   1.238   4.179   7.993  0.5574  0.3662  0.4703
    1SAPS    HA   19   1.302   4.261   8.029 -0.4559  1.2481  0.3224
    1SAPS    HB   20   1.280   4.082   8.027 -0.1716  0.0000  0.3589
    1SAPS    C2   21   1.245   4.193   7.838 -0.7312 -0.4074  0.2156
    1SAPS    HS   22   1.186   4.114   7.786 -1.2739 -0.1432  0.4272
    1SAPS   O21   23   1.385   4.191   7.796  0.2152 -0.0522  0.0761
    1SAPS   C21   24   1.446   4.083   7.803 -0.0253 -0.1066  0.1049
    1SAPS   O22   25   1.408   3.973   7.846  0.0783 -0.4142  0.2440
    1SAPS   C22   26   1.597   4.122   7.793  0.1116  0.2237 -0.2647
    1SAPS   H2R   27   1.626   4.174   7.887  2.3635 -1.9005  0.3202
    1SAPS   H2S   28   1.664   4.034   7.791 -0.5485 -0.2944  0.1726
    1SAPS    C3   29   1.186   4.327   7.795 -0.0348  0.8125  0.3154
    1SAPS    HX   30   1.260   4.399   7.835  0.1220  0.9391 -0.2015
    1SAPS    HY   31   1.089   4.352   7.845 -0.3960  0.2548 -0.0890
    1SAPS   O31   32   1.183   4.333   7.650  0.1834 -0.6244  0.3052
    1SAPS   C31   33   1.076   4.282   7.580 -0.1183 -0.4400 -0.1426
    1SAPS   O32   34   0.978   4.230   7.626  0.2397 -0.1455 -0.9019
    1SAPS   C32   35   1.088   4.324   7.437  0.0520  0.0290 -0.3160
    1SAPS   H2X   36   1.124   4.427   7.456  1.1335 -0.9125  3.4086
    1SAPS   H2Y   37   0.980   4.332   7.414 -0.9336  0.8473  3.8771
    1SAPS   C23   38   1.623   4.218   7.671 -0.4883 -0.4647  0.6014
    1SAPS   H3R   39   1.583   4.322   7.679  0.5309  0.2109 -2.0811
    1SAPS   H3S   40   1.581   4.169   7.581 -0.5128  1.2595 -0.3737
    1SAPS   C24   41   1.779   4.237   7.655 -0.4324 -0.0629  0.0977
    1SAPS   H4R   42   1.796   4.286   7.557 -1.0914 -1.6027 -0.8268
    1SAPS   H4S   43   1.818   4.133   7.645  0.5576  0.2802  0.2915
    1SAPS   C25   44   1.872   4.308   7.753 -0.3973  0.2635  0.0341
    1SAPS   H5R   45   1.845   4.290   7.859 -0.1036 -0.0065  0.0649
    1SAPS   C26   46   1.995   4.363   7.735  0.2738  0.4820 -0.4069
    1SAPS   H6R   47   2.053   4.407   7.817 -0.1492  1.7034 -0.7408
    1SAPS   C27   48   2.057   4.353   7.599  0.4816 -0.4093 -0.5367
    1SAPS   H7R   49   2.021   4.276   7.527 -1.2985  1.1542 -1.4068
    1SAPS   H7S   50   2.156   4.308   7.617  0.2190 -0.5430  0.6512
    1SAPS   C28   51   2.070   4.494   7.538  0.4353  0.6938 -0.3875
    1SAPS   H8R   52   2.125   4.566   7.601  0.8550 -0.5277  0.6773
    1SAPS   C29   53   2.026   4.535   7.417 -0.5113 -0.4768 -0.6468
    1SAPS   H9R   54   2.041   4.641   7.395 -1.5468 -0.2766 -0.4555
    1SAPS  C210   55   1.952   4.455   7.310  0.1979 -0.1196  0.6667
    1SAPS  H10R   56   1.852   4.500   7.294 -0.3813 -1.0461  1.5342
    1SAPS  H10S   57   1.929   4.358   7.358  2.5027  0.0175  2.2511
    1SAPS  C211   58   2.034   4.439   7.192  0.4136  0.4122  0.2912
    1SAPS  H11R   59   2.135   4.407   7.222  0.6415 -0.1118 -0.9501
    1SAPS  C212   60   1.993   4.432   7.060 -0.1115 -0.5230  0.8181
    1SAPS  H12R   61   2.079   4.432   6.992  0.4376  2.0518  1.3863
    1SAPS  C213   62   1.852   4.472   7.016 -0.0939 -0.3228  0.1135
    1SAPS  H13R   63   1.835   4.578   7.043 -4.2285 -0.7086 -0.3121
    1SAPS  H13S   64   1.782   4.418   7.083  0.1433 -2.0223 -0.9519
    1SAPS  C214   65   1.824   4.438   6.873  0.3548 -0.2084  0.8156
    1SAPS  H14R   66   1.899   4.486   6.808 -1.4868  1.4064 -0.2524
    1SAPS  C215   67   1.716   4.373   6.823  0.3357  0.4360 -0.5787
    1SAPS  H15R   68   1.694   4.357   6.716 -1.6495 -3.0397  0.1931
    1SAPS  C216   69   1.609   4.301   6.903  0.1579 -0.4818  0.1306
    1SAPS  H16R   70   1.547   4.371   6.962 -0.0527  0.3867 -1.0808
    1SAPS  H16S   71   1.657   4.233   6.976  1.3522  0.2161  0.0303
    1SAPS  C217   72   1.515   4.220   6.812  0.0905 -0.9190 -0.3102
    1SAPS  H17R   73   1.576   4.172   6.732  1.0516  1.9427 -1.4508
    1SAPS  H17S   74   1.450   4.288   6.754 -0.5783  0.5566  2.0263
    1SAPS  C218   75   1.430   4.117   6.892 -0.5322 -0.7294 -0.1328
    1SAPS  H18R   76   1.373   4.159   6.978  2.1007  3.1929 -0.0348
    1SAPS  H18S   77   1.507   4.049   6.933  1.5091  2.4401  1.7462
    1SAPS  C219   78   1.341   4.035   6.796 -0.6766 -0.3991  0.0592
    1SAPS  H19R   79   1.302   3.953   6.859 -2.5896  0.3177 -0.1365
    1SAPS  H19S   80   1.396   3.983   6.714 -0.3331  0.8842 -0.5529
    1SAPS  C220   81   1.225   4.105   6.737  0.0058  0.0944 -0.2247
    1SAPS  H20R   82   1.257   4.194   6.679  0.2139  0.5820  0.6278
    1SAPS  H20S   83   1.151   4.132   6.815 -1.2781 -1.2445 -0.9226
    1SAPS  H20T   84   1.165   4.034   6.675  0.6293 -0.2777 -0.4079
    1SAPS   C33   85   1.171   4.246   7.334 -0.0817  0.5645 -0.0750
    1SAPS   H3X   86   1.145   4.140   7.353  3.1252 -0.3656 -0.2702
    1SAPS   H3Y   87   1.279   4.256   7.359 -0.7053  1.9774  2.2900
    1SAPS   C34   88   1.144   4.283   7.187 -1.0002 -0.0040 -0.7218
    1SAPS   H4X   89   1.041   4.251   7.159 -0.7328 -0.3029 -1.3923
    1SAPS   H4Y   90   1.224   4.241   7.123 -0.5953  0.6284 -0.6411
    1SAPS   C35   91   1.156   4.434   7.164 -0.0596 -0.0764 -0.4675
    1SAPS   H5X   92   1.259   4.462   7.194  0.7762 -3.0939 -0.2257
    1SAPS   H5Y   93   1.088   4.493   7.229  2.0137  0.7603  1.0791
    1SAPS   C36   94   1.135   4.472   7.016 -0.4428 -0.4374  0.7847
    1SAPS   H6X   95   1.195   4.401   6.955 -1.7565 -1.1854  0.3234
    1SAPS   H6Y   96   1.169   4.578   7.009 -1.1127 -0.2780 -0.3237
    1SAPS   C37   97   0.996   4.461   6.960 -0.5382 -0.1134  0.0728
    1SAPS   H7X   98   0.919   4.520   7.014 -0.4009  1.6751 -1.5656
    1SAPS   H7Y   99   0.970   4.353   6.956 -3.1208  0.4548 -0.2029
    1SAPS   C38  100   0.980   4.516   6.813 -0.3482  0.2431 -0.1916
    1SAPS   H8X  101   1.008   4.623   6.814 -0.7148  0.3396  0.0226
    1SAPS   H8Y  102   0.873   4.502   6.787  0.0977  0.3819 -2.2082
    1SAPS   C39  103   1.073   4.453   6.708 -0.0907 -1.1456  0.1457
    1SAPS   H9X  104   1.051   4.344   6.711 -1.3478 -0.8981  0.6147
    1SAPS   H9Y  105   1.179   4.459   6.742 -0.7335 -2.4620  2.6750
    1SAPS  C310  106   1.052   4.504   6.560  0.6010  0.1148  0.6816
    1SAPS  H10X  107   1.061   4.614   6.564 -2.0131  0.3876  1.3225
    1SAPS  H10Y  108   0.946   4.490   6.530  0.1442  1.0028  1.7985
    1SAPS  C311  109   1.133   4.429   6.454  0.9452 -0.2822 -0.4536
    1SAPS  H11X  110   1.105   4.322   6.463  0.6075 -0.2832 -1.3777
    1SAPS  H11Y  111   1.240   4.441   6.482  0.8300  0.0917 -0.1583
    1SAPS  C312  112   1.097   4.476   6.313 -0.0723 -0.1815  0.2638
    1SAPS  H12X  113   1.125   4.584   6.307 -1.6083  0.1623 -1.9029
    1SAPS  H12Y  114   0.986   4.489   6.315 -0.4606 -2.7594  2.9891
    1SAPS  C313  115   1.134   4.391   6.192 -0.0895 -0.0127 -0.3763
    1SAPS  H13X  116   1.150   4.285   6.220  0.0313  0.9257  3.7662
    1SAPS  H13Y  117   1.231   4.436   6.162  0.7432 -1.7356 -0.3668
    1SAPS  C314  118   1.035   4.401   6.080 -0.0573  0.0473  0.0331
    1SAPS  H14X  119   1.036   4.506   6.044 -0.9285 -0.9293 -3.1535
    1SAPS  H14Y  120   0.938   4.379   6.129 -0.3512  0.3462 -0.4017
    1SAPS  C315  121   1.079   4.312   5.966  0.6780  0.2123  0.2413
    1SAPS  H15X  122   1.183   4.332   5.931  0.0322  1.5456 -1.0289
    1SAPS  H15Y  123   1.019   4.343   5.878 -2.0824 -0.2342  1.8529
    1SAPS  C316  124   1.062   4.161   5.984 -0.1870 -0.2017 -0.4978
    1SAPS  H16X  125   0.956   4.147   6.013 -1.0328  0.4341 -3.0570
    1SAPS  H16Y  126   1.129   4.111   6.058  0.9990 -0.2751 -1.5908
    1SAPS  C317  127   1.065   4.082   5.846  0.9057  0.4392 -0.0071
    1SAPS  H17X  128   0.974   4.103   5.785  0.3181 -2.4565 -0.2827
    1SAPS  H17Y  129   1.062   3.977   5.882 -0.7874  0.6846  0.6692
    1SAPS  C318  130   1.190   4.087   5.758 -0.0437  0.6861 -0.2603
    1SAPS  H18X  131   1.266   4.031   5.817 -1.5543  0.9437  2.0713
    1SAPS  H18Y  132   1.222   4.191   5.735  0.4123  0.8919  1.2025
    1SAPS  H18Z  133   1.181   4.031   5.663 -0.0439  3.5651 -2.0786
    2SAPS     N  134   1.984   4.450   8.387 -0.5210 -0.1575 -0.2449
    2SAPS   HN1  135   2.017   4.463   8.290  2.2629 -1.2630  0.4554
    2SAPS   HN2  136   2.009   4.541   8.432  2.0350  0.0746 -1.9339
    2SAPS   HN3  137   2.042   4.375   8.430 -0.7291 -0.8526 -1.1611
    2SAPS   C12  138   1.836   4.437   8.397  0.7504 -0.2296 -0.2527
    2SAPS  H12A  139   1.813   4.353   8.333 -0.2841 -0.7223  0.7334
    2SAPS   C13  140   1.781   4.397   8.535  0.0977 -0.4462 -0.0234
    2SAPS  O13A  141   1.855   4.369   8.627  0.4764  0.6021  0.2587
    2SAPS  O13B  142   1.656   4.360   8.538 -0.2951 -0.2958 -0.2527
    2SAPS   C11  143   1.769   4.574   8.354  0.2002  0.5714 -0.5809
    2SAPS  H11A  144   1.660   4.551   8.352  0.7730 -2.6975 -2.3977
    2SAPS  H11B  145   1.798   4.596   8.249  1.8005  3.4711  0.3552
    2SAPS     P  146   1.895   4.795   8.401 -0.3601 -0.0096 -0.2909
    2SAPS   O13  147   1.879   4.915   8.490 -0.8605 -0.6409  0.0224
    2SAPS   O14  148   2.029   4.736   8.396 -0.4219 -0.3965  0.6421
    2SAPS   O12  149   1.794   4.684   8.437  0.1664  0.0178 -0.3914
    2SAPS   O11  150   1.857   4.840   8.256 -0.0477 -0.1138  0.2848
    2SAPS    C1  151   1.746   4.914   8.220  0.0587 -0.0758  0.5332
    2SAPS    HA  152   1.696   4.960   8.308 -0.9610  0.8470 -0.4856
    2SAPS    HB  153   1.785   4.997   8.157  2.4935 -1.3426  0.2542
    2SAPS    C2  154   1.641   4.837   8.134 -0.8329  0.0006  0.3773
    2SAPS    HS  155   1.632   4.736   8.180 -1.5271 -1.3546 -2.5638
    2SAPS   O21  156   1.702   4.820   8.001  0.1591 -1.0751  0.0004
    2SAPS   C21  157   1.654   4.713   7.929 -0.9944 -0.1528 -0.3354
    2SAPS   O22  158   1.602   4.616   7.985  0.2516  0.5807  0.1782
    2SAPS   C22  159   1.663   4.739   7.770 -0.4669 -0.6315 -0.6347
    2SAPS   H2R  160   1.591   4.822   7.755  1.4550  0.7010 -3.5604
    2SAPS   H2S  161   1.764   4.775   7.740 -1.2095 -0.5251 -3.3426
    2SAPS    C3  162   1.500   4.899   8.116 -0.0175 -0.1017 -0.4830
    2SAPS    HX  163   1.515   5.004   8.083  1.1021 -1.2314 -3.9073
    2SAPS    HY  164   1.444   4.905   8.212  0.9442  0.5682  0.0531
    2SAPS   O31  165   1.416   4.844   8.005  0.1771 -0.0773  0.0592
    2SAPS   C31  166   1.340   4.741   8.039  0.3012  0.1902 -0.8004
    2SAPS   O32  167   1.337   4.691   8.151 -0.2198  0.0921  0.2252
    2SAPS   C32  168   1.258   4.679   7.930  0.7270  0.0302 -0.2213
    2SAPS   H2X  169   1.197   4.602   7.983 -0.6243  0.5826 -0.9069
    2SAPS   H2Y  170   1.337   4.626   7.873 -0.1801 -2.5283  0.7391
    2SAPS   C23  171   1.621   4.618   7.678  0.2486  0.4666 -0.5679
    2SAPS   H3R  172   1.521   4.580   7.708  0.4010  0.3744 -0.1600
    2SAPS   H3S  173   1.700   4.540   7.688 -1.3567 -1.3620 -1.4852
    2SAPS   C24  174   1.606   4.652   7.528 -0.9280  0.1191 -0.6288
    2SAPS   H4R  175   1.710   4.683   7.507 -0.6998  0.6305  1.1522
    2SAPS   H4S  176   1.547   4.746   7.529 -0.0193  0.8072  3.0783
    2SAPS   C25  177   1.561   4.547   7.432  0.6418  0.4893 -0.1255
    2SAPS   H5R  178   1.586   4.446   7.466 -0.6063  0.4361  0.7074
    2SAPS   C26  179   1.514   4.571   7.311  0.5211  0.4520 -0.4999
    2SAPS   H6R  180   1.473   4.484   7.257 -1.1549  1.6877 -1.3322
    2SAPS   C27  181   1.469   4.701   7.254 -1.0650  0.1553  0.1118
    2SAPS   H7R  182   1.441   4.769   7.337  2.2394  0.6022  0.9739
    2SAPS   H7S  183   1.367   4.690   7.211 -0.3152 -0.6622 -1.5691
    2SAPS   C28  184   1.557   4.760   7.146  0.1217 -0.0451  0.6734
    2SAPS   H8R  185   1.646   4.804   7.191 -1.0207  1.0884  1.9037
    2SAPS   C29  186   1.547   4.777   7.009 -0.0852 -0.1683 -0.5485
    2SAPS   H9R  187   1.630   4.828   6.958 -0.8507  1.1267 -0.5520
    2SAPS  C210  188   1.433   4.716   6.936  0.2712  0.2394 -0.5118
    2SAPS  H10R  189   1.414   4.616   6.981  1.6646  0.1268 -0.1492
    2SAPS  H10S  190   1.465   4.707   6.830 -0.6946  2.9854 -1.1351
    2SAPS  C211  191   1.311   4.802   6.939  0.1760  0.3658  0.7561
    2SAPS  H11R  192   1.284   4.842   7.037 -0.0210 -0.8342  1.2114
    2SAPS  C212  193   1.252   4.850   6.826 -0.2227 -0.0645 -0.2171
    2SAPS  H12R  194   1.162   4.911   6.846  0.5767  0.7698  0.9527
    2SAPS  C213  195   1.275   4.832   6.680  0.0722  0.5087 -0.3222
    2SAPS  H13R  196   1.186   4.779   6.641  0.5257 -0.6620  0.1746
    2SAPS  H13S  197   1.364   4.767   6.664  0.5141  0.4833  1.8721
    2SAPS  C214  198   1.288   4.963   6.612 -0.2012 -0.0688 -0.0332
    2SAPS  H14R  199   1.274   5.049   6.679 -0.6085  1.3706 -1.8705
    2SAPS  C215  200   1.314   4.987   6.479 -0.4792 -0.2323 -0.1657
    2SAPS  H15R  201   1.316   5.092   6.447 -1.9590 -0.6058 -1.6058
    2SAPS  C216  202   1.325   4.896   6.360 -0.5365  0.7765 -0.1606
    2SAPS  H16R  203   1.304   4.797   6.404 -0.8782  0.5668 -0.7856
    2SAPS  H16S  204   1.424   4.883   6.313  0.7739  0.8088  2.4121
    2SAPS  C217  205   1.223   4.927   6.247  0.2369 -0.0990  0.3413
    2SAPS  H17R  206   1.236   5.034   6.220  2.2893  0.4243  3.0188
    2SAPS  H17S  207   1.125   4.906   6.295  1.1559 -1.7736  1.5858
    2SAPS  C218  208   1.235   4.829   6.121  0.4196  0.0574  0.6407
    2SAPS  H18R  209   1.280   4.731   6.148 -0.9357 -1.3015 -1.6839
    2SAPS  H18S  210   1.311   4.875   6.054 -2.6848  2.7863 -1.3580
    2SAPS  C219  211   1.115   4.801   6.030  0.2435 -0.8530 -0.1993
    2SAPS  H19R  212   1.038   4.738   6.078 -1.3130 -1.9636 -3.8220
    2SAPS  H19S  213   1.155   4.731   5.953 -0.9175 -2.0362  0.2343
    2SAPS  C220  214   1.053   4.926   5.967 -0.0985 -0.2724 -0.5038
    2SAPS  H20R  215   0.978   4.899   5.889 -0.1291 -0.0615 -0.5493
    2SAPS  H20S  216   1.121   4.992   5.909 -2.4042  1.0800 -1.8450
    2SAPS  H20T  217   1.005   4.992   6.043 -0.7911 -0.4403 -0.7895
    2SAPS   C33  218   1.169   4.782   7.850  0.3560  0.2689  0.8632
    2SAPS   H3X  219   1.128   4.860   7.917 -0.8709 -0.7790  1.3774
    2SAPS   H3Y  220   1.086   4.711   7.827  2.4504 -2.7299  1.8621
    2SAPS   C34  221   1.228   4.840   7.716 -0.9179 -0.0816 -0.8260
    2SAPS   H4X  222   1.283   4.752   7.676 -1.0925 -0.2231 -0.7582
    2SAPS   H4Y  223   1.293   4.928   7.736 -1.7783 -0.0683  2.4379
    2SAPS   C35  224   1.130   4.882   7.607  0.3428 -0.3656 -0.7617
    2SAPS   H5X  225   1.189   4.952   7.544  0.4246 -1.2632 -1.7008
    2SAPS   H5Y  226   1.047   4.934   7.659  0.2618 -1.2362  0.0004
    2SAPS   C36  227   1.077   4.770   7.522 -0.1632 -0.3354 -0.2292
    2SAPS   H6X  228   1.054   4.683   7.588 -2.3828 -1.2131 -2.0150
    2SAPS   H6Y  229   1.165   4.739   7.462  1.2253  1.3893  0.8217
    2SAPS   C37  230   0.961   4.807   7.424  0.1478  0.2287  0.3715
    2SAPS   H7X  231   0.930   4.910   7.452 -2.2648 -0.3925  0.2103
    2SAPS   H7Y  232   0.879   4.735   7.444 -0.8224  1.2164  0.0144
    2SAPS   C38  233   1.006   4.813   7.287  0.7924  0.2182  1.0387
    2SAPS   H8X  234   1.098   4.754   7.270 -0.2647 -1.5744  1.2018
    2SAPS   H8Y  235   1.046   4.914   7.265  2.9473 -0.2024  2.6672
    2SAPS   C39  236   0.888   4.783   7.191 -0.3179 -0.3837 -0.2505
    2SAPS   H9X  237   0.794   4.828   7.231  0.0136  0.1832 -0.0852
    2SAPS   H9Y  238   0.877   4.675   7.168  0.5799 -0.5546  0.0483
    2SAPS  C310  239   0.898   4.865   7.058  0.2029 -0.5538 -0.7003
    2SAPS  H10X  240   0.995   4.854   7.005 -1.0628 -0.4349 -3.2005
    2SAPS  H10Y  241   0.869   4.972   7.073 -2.9777 -1.2366 -1.3631
    2SAPS  C311  242   0.787   4.831   6.952 -0.2882 -0.8734  0.4401
    2SAPS  H11X  243   0.684   4.847   6.992  0.3741  1.0091  1.5377
    2SAPS  H11Y  244   0.793   4.729   6.908  0.2736 -0.7026  0.1160
    2SAPS  C312  245   0.794   4.933   6.831 -0.3180  0.5940  0.1580
    2SAPS  H12X  246   0.896   4.925   6.788 -0.1831 -0.6216  0.6709
    2SAPS  H12Y  247   0.776   5.030   6.882 -0.2314  0.7797 -0.1665
    2SAPS  C313  248   0.685   4.914   6.730  0.4277 -0.1937  0.4422
    2SAPS  H13X  249   0.586   4.920   6.781 -0.9480 -1.2355 -1.9325
    2SAPS  H13Y  250   0.689   4.817   6.677  0.2367 -0.8220  1.5466
    2SAPS  C314  251   0.676   5.023   6.618  0.4990  0.5415  0.1153
    2SAPS  H14X  252   0.651   5.119   6.669  0.6322  1.6877 -1.8676
    2SAPS  H14Y  253   0.591   5.006   6.550 -0.6471 -0.0291  1.6370
    2SAPS  C315  254   0.799   5.043   6.536 -0.0545  0.0929 -0.3691
    2SAPS  H15X  255   0.837   4.946   6.496  1.2917  0.5947 -0.3409
    2SAPS  H15Y  256   0.882   5.092   6.592 -0.4667 -0.2448  0.5615
    2SAPS  C316  257   0.762   5.124   6.418 -1.1134  1.0706  0.3233
    2SAPS  H16X  258   0.687   5.203   6.441 -2.2194  0.0614  0.2682
    2SAPS  H16Y  259   0.713   5.068   6.335 -1.2885 -0.6796  1.5642
    2SAPS  C317  260   0.883   5.188   6.349  0.2212  0.2237  0.2766
    2SAPS  H17X  261   0.953   5.117   6.300  1.5343  0.9246  1.0752
    2SAPS  H17Y  262   0.943   5.242   6.426  2.6803 -0.3638 -1.1238
    2SAPS  C318  263   0.851   5.294   6.240  0.3236 -0.2735 -0.3636
    2SAPS  H18X  264   0.766   5.268   6.172 -1.4716 -2.2071  2.4144
    2SAPS  H18Y  265   0.945   5.305   6.182 -0.0924 -0.3966 -1.0693
    2SAPS  H18Z  266   0.829   5.386   6.298 -1.0816 -1.0836  0.4536
    3SAPS     N  267   0.607   4.516   8.534 -0.0055  0.0967 -0.0324
    3SAPS   HN1  268   0.662   4.555   8.613 -0.4882 -0.0397  0.3776
    3SAPS   HN2  269   0.511   4.555   8.544  0.4025  1.2034 -0.2427
    3SAPS   HN3  270   0.611   4.413   8.540  0.0609  0.0483 -0.8561
    3SAPS   C12  271   0.666   4.553   8.405  0.3700  0.2577 -0.1881
    3SAPS  H12A  272   0.757   4.497   8.390 -0.0232 -0.6904  0.8375
    3SAPS   C13  273   0.576   4.512   8.286 -0.2257  0.6103  0.0900
    3SAPS  O13A  274   0.465   4.453   8.306  0.4061  0.3750  0.0197
    3SAPS  O13B  275   0.622   4.516   8.170 -0.1429 -0.8345 -0.0808
    3SAPS   C11  276   0.670   4.704   8.397 -0.2540 -0.4529 -0.3142
    3SAPS  H11A  277   0.568   4.745   8.412  0.3036  1.2735 -1.0037
    3SAPS  H11B  278   0.689   4.738   8.293  0.1722 -0.6636 -0.3068
    3SAPS     P  279   0.912   4.794   8.449 -0.0773  0.2530  0.4529
    3SAPS   O13  280   0.957   4.890   8.548 -0.0533 -0.5709 -0.2313
    3SAPS   O14  281   0.999   4.672   8.436  0.4189  0.6126 -0.1831
    3SAPS   O12  282   0.766   4.753   8.489 -0.0602 -0.1382 -0.1778
    3SAPS   O11  283   0.905   4.865   8.303  0.0698 -0.0653 -0.1283
    3SAPS    C1  284   0.837   4.992   8.294  0.2947 -0.8096 -0.2964
    3SAPS    HA  285   0.736   4.990   8.340 -0.0590 -0.7971 -1.0626
    3SAPS    HB  286   0.887   5.072   8.353 -0.7845 -0.9761  0.8963
    3SAPS    C2  287   0.819   5.043   8.154  0.5417 -0.0418  0.5502
    3SAPS    HS  288   0.761   5.137   8.164  2.0532  1.1687 -1.1773
    3SAPS   O21  289   0.768   4.946   8.056 -0.4314  0.0221 -0.7355
    3SAPS   C21  290   0.640   4.912   8.082  0.0482 -0.0631  0.3496
    3SAPS   O22  291   0.565   4.954   8.164  0.0625 -0.4456  0.2023
    3SAPS   C22  292   0.590   4.819   7.974 -0.4676 -0.5739  0.1363
    3SAPS   H2R  293   0.620   4.713   7.989 -1.6321 -1.3251 -2.2744
    3SAPS   H2S  294   0.479   4.823   7.979 -0.6148 -0.1999 -2.4177
    3SAPS    C3  295   0.962   5.085   8.104 -0.5656 -0.3762  0.0435
    3SAPS    HX  296   1.029   4.999   8.125  0.2971  0.2593 -0.0641
    3SAPS    HY  297   0.989   5.164   8.177  1.8085 -0.9897 -0.0932
    3SAPS   O31  298   0.978   5.117   7.965  0.2380 -0.5673 -0.8686
    3SAPS   C31  299   0.898   5.212   7.914 -0.3358  0.2129  0.6796
    3SAPS   O32  300   0.820   5.279   7.985 -0.2515  0.3563  0.2816
    3SAPS   C32  301   0.935   5.245   7.766  0.3464  0.3548  0.0568
    3SAPS   H2X  302   1.044   5.231   7.746  0.0989 -1.9712  0.0693
    3SAPS   H2Y  303   0.905   5.349   7.742  2.2106  1.3389  1.7521
    3SAPS   C23  304   0.615   4.857   7.830  0.3596  0.0609 -0.2972
    3SAPS   H3R  305   0.630   4.967   7.822  1.2811 -0.0955 -0.9155
    3SAPS   H3S  306   0.523   4.826   7.776 -0.6911 -0.4477  1.6772
    3SAPS   C24  307   0.735   4.791   7.753 -0.0751  0.4590 -0.8160
    3SAPS   H4R  308   0.832   4.819   7.800  0.1080 -0.1164 -0.8365
    3SAPS   H4S  309   0.728   4.837   7.652  0.0573  0.6186 -0.7529
    3SAPS   C25  310   0.725   4.644   7.741 -0.4888  0.1891  0.3051
    3SAPS   H5R  311   0.769   4.586   7.823 -0.2042 -0.4572 -0.2944
    3SAPS   C26  312   0.677   4.571   7.632  0.0913 -0.0547  0.3867
    3SAPS   H6R  313   0.677   4.462   7.641 -0.6055  0.1060  3.4042
    3SAPS   C27  314   0.628   4.623   7.499 -0.0508 -0.0243  0.2695
    3SAPS   H7R  315   0.709   4.594   7.429  1.4234  0.8525  1.5370
    3SAPS   H7S  316   0.629   4.734   7.494  1.1627  0.1870  3.0018
    3SAPS   C28  317   0.486   4.578   7.454  0.0015 -0.2660 -0.6990
    3SAPS   H8R  318   0.434   4.523   7.534  2.4237 -2.5093 -0.5152
    3SAPS   C29  319   0.434   4.578   7.330 -0.4247 -0.1088 -0.1704
    3SAPS   H9R  320   0.333   4.536   7.312  0.0667 -1.1639 -0.5469
    3SAPS  C210  321   0.512   4.642   7.217 -0.6117 -0.3005  0.2537
    3SAPS  H10R  322   0.591   4.573   7.182 -0.5417  1.1332 -2.7253
    3SAPS  H10S  323   0.566   4.733   7.252 -1.4241 -0.3059  1.5997
    3SAPS  C211  324   0.425   4.693   7.109 -0.2493 -0.1554  0.7216
    3SAPS  H11R  325   0.359   4.776   7.137  1.7599  1.2610  1.4279
    3SAPS  C212  326   0.428   4.661   6.976  0.0031 -0.6366  0.6701
    3SAPS  H12R  327   0.356   4.721   6.918  1.6309  1.8009  0.9669
    3SAPS  C213  328   0.511   4.567   6.893  0.2058 -0.1521  0.5990
    3SAPS  H13R  329   0.561   4.491   6.957  0.5360 -3.9669 -3.6427
    3SAPS  H13S  330   0.591   4.613   6.832  0.2923  1.6267  1.9788
    3SAPS  C214  331   0.417   4.495   6.802  0.2070 -0.3280  0.6435
    3SAPS  H14R  332   0.394   4.393   6.837 -1.5198  0.6656  2.6506
    3SAPS  C215  333   0.388   4.525   6.674  0.5702 -0.1825  0.4504
    3SAPS  H15R  334   0.325   4.457   6.615 -0.7711  1.4445 -0.0917
    3SAPS  C216  335   0.425   4.650   6.595  0.6088 -0.0532 -0.1741
    3SAPS  H16R  336   0.510   4.696   6.649 -0.3553  0.9416  0.5409
    3SAPS  H16S  337   0.352   4.734   6.594  2.3292  1.4801 -0.9063
    3SAPS  C217  338   0.477   4.612   6.455  0.2383 -0.0335  1.1919
    3SAPS  H17R  339   0.400   4.593   6.378  2.1596 -1.2396 -0.5278
    3SAPS  H17S  340   0.547   4.529   6.478 -0.4521 -0.9486  0.0801
    3SAPS  C218  341   0.555   4.726   6.386 -0.2061 -0.5992  0.6403
    3SAPS  H18R  342   0.625   4.754   6.468 -1.7574  1.4231  1.3497
    3SAPS  H18S  343   0.501   4.820   6.363  4.4155  1.8033 -1.7924
    3SAPS  C219  344   0.643   4.678   6.268  0.2506  0.0930  0.0698
    3SAPS  H19R  345   0.728   4.619   6.309 -2.0512 -3.2780  0.3721
    3SAPS  H19S  346   0.587   4.599   6.214 -0.9935  0.5630  0.6468
    3SAPS  C220  347   0.694   4.783   6.169 -0.7062 -0.0343  0.0470
    3SAPS  H20R  348   0.764   4.733   6.099 -1.7798  0.3528 -1.3271
    3SAPS  H20S  349   0.761   4.858   6.217  1.3993 -0.9758 -1.2898
    3SAPS  H20T  350   0.610   4.836   6.120 -0.3799  0.3006 -0.1562
    3SAPS   C33  351   0.848   5.168   7.666 -0.4837 -0.2255 -1.2269
    3SAPS   H3X  352   0.739   5.190   7.679 -0.7340 -2.2548  0.9797
    3SAPS   H3Y  353   0.847   5.057   7.681 -2.8848  0.0266  1.6020
    3SAPS   C34  354   0.895   5.188   7.524 -0.5078  0.4442  0.7554
    3SAPS   H4X  355   0.857   5.121   7.443  2.3867  3.0503 -3.1665
    3SAPS   H4Y  356   1.005   5.172   7.532 -0.8163 -1.3769  1.9660
    3SAPS   C35  357   0.857   5.320   7.463  0.1380 -0.2226 -0.2700
    3SAPS   H5X  358   0.751   5.333   7.494  0.7642 -2.2047  3.2055
    3SAPS   H5Y  359   0.913   5.406   7.505  1.9776 -0.6134 -1.8101
    3SAPS   C36  360   0.858   5.313   7.317  0.5282 -0.4732  0.6148
    3SAPS   H6X  361   0.935   5.244   7.278  0.0991 -1.4543  1.4586
    3SAPS   H6Y  362   0.869   5.415   7.273  0.2959  0.9435  3.5427
    3SAPS   C37  363   0.735   5.261   7.245  0.5394  0.0298  1.0393
    3SAPS   H7X  364   0.646   5.326   7.266 -1.3584 -2.1077  0.0193
    3SAPS   H7Y  365   0.715   5.159   7.282 -4.1569  0.6535  0.8451
    3SAPS   C38  366   0.750   5.259   7.097  0.1420  0.2978  0.4398
    3SAPS   H8X  367   0.677   5.191   7.048 -0.4032 -0.5904  2.4017
    3SAPS   H8Y  368   0.852   5.218   7.084 -0.7981 -1.5847 -1.7855
    3SAPS   C39  369   0.733   5.400   7.035  0.4075 -0.1391 -0.2568
    3SAPS   H9X  370   0.838   5.432   7.022  1.1127 -1.4767  1.6816
    3SAPS   H9Y  371   0.681   5.471   7.104  0.0709  0.1277 -0.7773
    3SAPS  C310  372   0.664   5.390   6.904  0.2579  0.1146 -0.4361
    3SAPS  H10X  373   0.564   5.341   6.908  0.1733  0.2527 -0.8526
    3SAPS  H10Y  374   0.721   5.334   6.826 -0.3647  1.4032 -1.8777
    3SAPS  C311  375   0.636   5.523   6.832 -0.0698  0.0534 -0.3482
    3SAPS  H11X  376   0.729   5.583   6.838  0.2404 -0.3957 -0.6384
    3SAPS  H11Y  377   0.557   5.582   6.882  0.6923  0.6928  0.1145
    3SAPS  C312  378   0.590   5.504   6.691 -0.1896 -0.0448  0.2658
    3SAPS  H12X  379   0.660   5.441   6.631  0.1861 -0.2462  0.9125
    3SAPS  H12Y  380   0.569   5.604   6.647 -0.5739  1.0102  2.6806
    3SAPS  C313  381   0.460   5.433   6.684  0.4881 -0.4843  0.2909
    3SAPS  H13X  382   0.394   5.466   6.767  0.4296  0.9077 -0.2830
    3SAPS  H13Y  383   0.493   5.327   6.696  0.7571 -0.6096 -1.2931
    3SAPS  C314  384   0.372   5.455   6.553 -0.0942 -0.4053  0.1333
    3SAPS  H14X  385   0.339   5.561   6.556  2.1979  0.5500 -2.8043
    3SAPS  H14Y  386   0.284   5.388   6.563 -0.2435  0.0071  1.7652
    3SAPS  C315  387   0.448   5.421   6.424 -0.1682  0.2965  0.1135
    3SAPS  H15X  388   0.471   5.312   6.426 -0.8887  0.1479  0.6449
    3SAPS  H15Y  389   0.546   5.472   6.429 -0.0043  0.0675 -0.5621
    3SAPS  C316  390   0.377   5.471   6.299  0.3813  0.0557 -0.5374
    3SAPS  H16X  391   0.362   5.581   6.300  0.7369  0.1071 -0.7861
    3SAPS  H16Y  392   0.275   5.426   6.291 -0.0175  0.8343  0.0282
    3SAPS  C317  393   0.449   5.425   6.170 -0.3100 -0.7166  0.1352
    3SAPS  H17X  394   0.465   5.315   6.175  0.1215 -0.6519  0.2084
    3SAPS  H17Y  395   0.548   5.474   6.162 -0.6191  0.0993  1.0348
    3SAPS  C318  396   0.375   5.457   6.036 -0.4996  0.0716 -0.6691
    3SAPS  H18X  397   0.432   5.431   5.944 -0.9870  0.7624 -1.1767
    3SAPS  H18Y  398   0.362   5.567   6.033 -2.5471 -0.1312 -0.7313
    3SAPS  H18Z  399   0.273   5.413   6.031 -0.4627  0.0161 -0.9348
    4SAPS     N  400   5.349   4.253   8.057 -0.0255  0.0497  0.1721
    4SAPS   HN1  401   5.398   4.321   7.996  0.4767 -0.9584 -0.5658
    4SAPS   HN2  402   5.333   4.158   8.018  1.2223  0.1148 -0.5279
    4SAPS   HN3  403   5.252   4.291   8.069  0.3763  2.0606 -2.0837
    4SAPS   C12  404   5.417   4.255   8.187 -0.0461  0.2641  0.2999
    4SAPS  H12A  405   5.419   4.355   8.227  2.2954  0.0486  0.9211
    4SAPS   C13  406   5.342   4.180   8.295 -0.3393  0.4249 -0.5523
    4SAPS  O13A  407   5.232   4.121   8.274  0.6752  0.2138 -0.3566
    4SAPS  O13B  408   5.381   4.194   8.416 -0.2935  0.1731 -0.7506
    4SAPS   C11  409   5.562   4.187   8.182  0.5315 -0.0246  0.1047
    4SAPS  H11A  410   5.603   4.182   8.284 -1.2002  0.3640  0.8656
    4SAPS  H11B  411   5.641   4.248   8.134 -0.5344  1.4047  0.0783
    4SAPS     P  412   5.676   3.962   8.110  0.2453 -0.0045 -0.1690
    4SAPS   O13  413   5.795   4.058   8.104  0.4063  0.5289 -0.6200
    4SAPS   O14  414   5.669   3.856   8.216 -0.5868  0.2840 -0.4657
    4SAPS   O12  415   5.543   4.051   8.132  0.0759 -0.2323 -0.1750
    4SAPS   O11  416   5.654   3.908   7.961  0.0451  0.0049 -0.0051
    4SAPS    C1  417   5.529   3.932   7.899  0.4035 -0.4630 -0.4490
    4SAPS    HA  418   5.441   3.922   7.967 -0.0183 -0.0547 -0.9280
    4SAPS    HB  419   5.525   4.038   7.867 -1.3624  0.8669  3.5611
    4SAPS    C2  420   5.512   3.830   7.783  0.7112  0.1611  0.1686
    4SAPS    HS  421   5.425   3.862   7.721  0.2482 -1.0769  0.1638
    4SAPS   O21  422   5.482   3.695   7.833  0.2550  0.2287  0.1252
    4SAPS   C21  423   5.375   3.625   7.781 -0.6191 -1.1563 -0.5525
    4SAPS   O22  424   5.300   3.668   7.698 -0.3587 -0.0169 -0.6552
    4SAPS   C22  425   5.345   3.500   7.857 -0.4033  0.1594  0.1696
    4SAPS   H2R  426   5.431   3.459   7.914 -0.2909  1.4373  0.9506
    4SAPS   H2S  427   5.274   3.530   7.937  1.9653  0.1580  2.4116
    4SAPS    C3  428   5.637   3.826   7.685  0.1320  0.0666 -0.1065
    4SAPS    HX  429   5.717   3.777   7.744 -0.0185 -1.1113 -0.8314
    4SAPS    HY  430   5.666   3.926   7.648  2.4934  0.5998  2.8415
    4SAPS   O31  431   5.608   3.743   7.576 -0.4713 -0.3505 -0.3701
    4SAPS   C31  432   5.513   3.783   7.488 -0.6983 -0.9878 -0.4483
    4SAPS   O32  433   5.472   3.900   7.479  0.3242  0.0190  0.2671
    4SAPS   C32  434   5.487   3.677   7.393  0.3757  0.5367  0.1217
    4SAPS   H2X  435   5.445   3.595   7.455  0.9520 -0.0271 -0.2221
    4SAPS   H2Y  436   5.576   3.632   7.345  0.0561  1.7271 -1.6636
    4SAPS   C23  437   5.295   3.385   7.767 -0.2887 -0.9273 -0.3731
    4SAPS   H3R  438   5.210   3.412   7.701  0.1021 -1.8104 -1.2639
    4SAPS   H3S  439   5.256   3.318   7.846  1.4036 -0.8375  0.5934
    4SAPS   C24  440   5.411   3.320   7.691 -0.2863  0.2045  0.3587
    4SAPS   H4R  441   5.488   3.306   7.770  0.0648  0.1489  0.0072
    4SAPS   H4S  442   5.437   3.384   7.604 -1.2204 -0.3098 -0.3197
    4SAPS   C25  443   5.347   3.189   7.656 -0.3731  0.3795  0.7096
    4SAPS   H5R  444   5.300   3.139   7.742 -2.1791  0.2346 -0.2850
    4SAPS   C26  445   5.350   3.116   7.543  0.1814  1.0109 -0.5187
    4SAPS   H6R  446   5.282   3.029   7.536  0.4579  0.7815 -0.3716
    4SAPS   C27  447   5.422   3.151   7.411  0.0012 -0.2843 -0.5987
    4SAPS   H7R  448   5.520   3.101   7.392  0.5947 -0.1821  1.9062
    4SAPS   H7S  449   5.466   3.252   7.421  0.7327 -0.6161 -0.3271
    4SAPS   C28  450   5.325   3.149   7.292  0.2315 -0.1464  0.6149
    4SAPS   H8R  451   5.238   3.215   7.305 -1.9143 -2.0908 -2.4396
    4SAPS   C29  452   5.344   3.086   7.173  0.6545 -0.4929 -0.2197
    4SAPS   H9R  453   5.266   3.099   7.097 -0.9962  1.4624  1.6474
    4SAPS  C210  454   5.457   2.992   7.137  0.2910 -0.2096 -0.2365
    4SAPS  H10R  455   5.555   3.011   7.188 -1.4674  1.2224  2.9278
    4SAPS  H10S  456   5.469   3.007   7.028 -1.1733  1.2202 -0.2355
    4SAPS  C211  457   5.417   2.859   7.194 -0.1371  0.4959  0.6063
    4SAPS  H11R  458   5.416   2.852   7.304 -2.0941 -3.5878  0.5212
    4SAPS  C212  459   5.406   2.743   7.125  0.7656  0.5624 -0.2900
    4SAPS  H12R  460   5.385   2.652   7.182  0.7055  1.0389  0.4546
    4SAPS  C213  461   5.421   2.709   6.979 -0.5453 -0.6691 -0.4421
    4SAPS  H13R  462   5.489   2.621   6.968  2.4438  1.6265 -1.6344
    4SAPS  H13S  463   5.476   2.787   6.923 -0.8662  1.5283  2.1498
    4SAPS  C214  464   5.296   2.699   6.903  0.9957 -0.1304  0.5997
    4SAPS  H14R  465   5.215   2.736   6.967  0.3121 -0.3866 -0.1070
    4SAPS  C215  466   5.275   2.674   6.774 -0.6075  0.6216  0.2061
    4SAPS  H15R  467   5.170   2.671   6.740 -1.2116 -1.8569  2.0204
    4SAPS  C216  468   5.370   2.628   6.668 -0.6842  1.0806  0.3548
    4SAPS  H16R  469   5.356   2.520   6.647  3.3073  0.3007  0.8917
    4SAPS  H16S  470   5.479   2.630   6.688 -0.4429  1.7765 -0.9558
    4SAPS  C217  471   5.339   2.700   6.539 -0.1375  0.3999 -0.4771
    4SAPS  H17R  472   5.230   2.698   6.516 -0.4141  0.4298  0.7900
    4SAPS  H17S  473   5.378   2.637   6.456 -1.5221 -0.4103 -0.5631
    4SAPS  C218  474   5.386   2.847   6.536 -0.5898 -0.2862  0.1482
    4SAPS  H18R  475   5.357   2.896   6.631  0.1068 -0.3777  0.4158
    4SAPS  H18S  476   5.327   2.885   6.449 -0.1022  1.7144  0.6231
    4SAPS  C219  477   5.539   2.878   6.521 -0.1663 -0.0854  0.5541
    4SAPS  H19R  478   5.581   2.845   6.423 -0.4372  0.9439  0.0664
    4SAPS  H19S  479   5.591   2.835   6.609 -0.8023  0.3358  1.1479
    4SAPS  C220  480   5.563   3.033   6.524  0.4853 -0.3161 -0.3557
    4SAPS  H20R  481   5.550   3.077   6.626 -2.5628  0.5678 -0.9935
    4SAPS  H20S  482   5.475   3.067   6.465 -0.3445 -3.4284 -1.1043
    4SAPS  H20T  483   5.654   3.074   6.476  0.7175  0.3147  0.5907
    4SAPS   C33  484   5.377   3.708   7.287 -0.1230 -0.1872 -0.7002
    4SAPS   H3X  485   5.414   3.795   7.229  0.4750 -0.3939 -0.6358
    4SAPS   H3Y  486   5.283   3.735   7.340 -0.1905  3.2337 -2.3111
    4SAPS   C34  487   5.348   3.582   7.202 -0.2273  0.2184 -0.0399
    4SAPS   H4X  488   5.304   3.506   7.271  0.7575  0.7208  1.1854
    4SAPS   H4Y  489   5.442   3.529   7.176  0.4387 -1.1976  4.3094
    4SAPS   C35  490   5.251   3.615   7.086 -0.1213 -0.4216  0.0700
    4SAPS   H5X  491   5.290   3.708   7.038 -0.4467  0.5491  1.6106
    4SAPS   H5Y  492   5.153   3.649   7.127 -0.0658 -0.7790  0.4939
    4SAPS   C36  493   5.227   3.490   6.998 -0.5494 -0.0236  0.1337
    4SAPS   H6X  494   5.126   3.490   6.951 -1.1909 -3.6130  1.2203
    4SAPS   H6Y  495   5.238   3.398   7.059  1.7590 -0.8292 -1.3436
    4SAPS   C37  496   5.346   3.454   6.898  0.1070  0.6412 -0.3282
    4SAPS   H7X  497   5.309   3.370   6.836  3.1721 -1.2697  0.1738
    4SAPS   H7Y  498   5.435   3.410   6.949 -1.8845 -1.3302  1.6791
    4SAPS   C38  499   5.392   3.577   6.820 -0.3554  0.1002 -0.3161
    4SAPS   H8X  500   5.459   3.643   6.880 -2.6366  2.4557 -0.1217
    4SAPS   H8Y  501   5.302   3.638   6.796 -0.9173 -0.3672  0.5289
    4SAPS   C39  502   5.471   3.537   6.692  0.1215 -0.2660  0.8353
    4SAPS   H9X  503   5.431   3.437   6.663 -0.0388 -0.1370  0.6080
    4SAPS   H9Y  504   5.575   3.524   6.729  0.2171  1.7322  1.3646
    4SAPS  C310  505   5.467   3.644   6.579 -0.9243 -0.1176 -0.5860
    4SAPS  H10X  506   5.504   3.739   6.624  0.2354 -0.2223 -1.2738
    4SAPS  H10Y  507   5.364   3.668   6.544 -1.4381 -2.3265 -0.7430
    4SAPS  C311  508   5.559   3.618   6.446  0.5427 -0.3041  0.4035
    4SAPS  H11X  509   5.518   3.525   6.401 -1.7361  0.7607  0.1196
    4SAPS  H11Y  510   5.659   3.588   6.484  0.6971  0.9394  1.0139
    4SAPS  C312  511   5.577   3.740   6.362 -0.7052 -0.1952  0.2138
    4SAPS  H12X  512   5.636   3.822   6.409 -0.7626 -0.9055  1.5528
    4SAPS  H12Y  513   5.473   3.776   6.344 -0.9954 -1.8775 -1.7610
    4SAPS  C313  514   5.648   3.713   6.231 -0.4713 -0.2381 -0.3990
    4SAPS  H13X  515   5.742   3.656   6.242  1.7509  3.1481 -0.3652
    4SAPS  H13Y  516   5.681   3.808   6.185 -0.9540  0.1068 -0.0477
    4SAPS  C314  517   5.555   3.641   6.129 -0.4187  0.0840  0.1746
    4SAPS  H14X  518   5.474   3.714   6.111 -1.1853 -0.5666  0.8814
    4SAPS  H14Y  519   5.512   3.550   6.176 -0.6717  0.5929  0.9443
    4SAPS  C315  520   5.624   3.603   5.998 -0.0149  0.8468 -0.1799
    4SAPS  H15X  521   5.579   3.509   5.960  1.7008 -1.6060  3.3021
    4SAPS  H15Y  522   5.725   3.573   6.034 -1.0096  1.7202  3.8738
    4SAPS  C316  523   5.629   3.707   5.889  0.3717 -0.8167  0.2359
    4SAPS  H16X  524   5.690   3.797   5.912 -2.2542  1.1342  0.1280
    4SAPS  H16Y  525   5.522   3.735   5.879  0.0023 -0.6442  3.5810
    4SAPS  C317  526   5.674   3.656   5.747 -0.2052 -0.3734  0.2372
    4SAPS  H17X  527   5.624   3.557   5.736 -0.9527 -0.2597  2.2199
    4SAPS  H17Y  528   5.784   3.645   5.752 -0.1069 -1.9029 -2.7451
    4SAPS  C318  529   5.635   3.755   5.635  0.3767 -0.5019 -0.3248
    4SAPS  H18X  530   5.700   3.844   5.631  1.2878 -1.1179  0.3765
    4SAPS  H18Y  531   5.526   3.777   5.637  0.4596  0.1181 -1.5710
    4SAPS  H18Z  532   5.649   3.704   5.537  1.2991  0.4521 -0.7048
    5SAPS     N  533   3.112   4.999   7.984 -0.4451 -0.6463  0.3363
    5SAPS   HN1  534   3.100   4.902   7.949  2.9508 -0.6579 -1.2460
    5SAPS   HN2  535   3.023   5.042   7.954  0.0074 -1.3474 -2.2458
    5SAPS   HN3  536   3.185   5.049   7.930 -0.5548  0.0559  0.8285
    5SAPS   C12  537   3.157   5.001   8.123  0.1538  0.1390 -0.5212
    5SAPS  H12A  538   3.084   4.942   8.176  1.8526 -1.8323 -0.2752
    5SAPS   C13  539   3.290   4.937   8.158  0.0810 -0.6094 -0.1039
    5SAPS  O13A  540   3.375   4.909   8.065 -0.8948 -0.0924 -0.3702
    5SAPS  O13B  541   3.319   4.922   8.278  0.5024  0.6067 -0.8126
    5SAPS   C11  542   3.171   5.152   8.172  0.9109  0.1067  0.1957
    5SAPS  H11A  543   3.254   5.198   8.113  1.3378  1.7389  1.9819
    5SAPS  H11B  544   3.207   5.151   8.277  4.8808  0.9819 -0.9616
    5SAPS     P  545   2.989   5.335   8.261  0.2495 -0.0310  0.3582
    5SAPS   O13  546   2.847   5.301   8.289 -0.0343 -0.6863  0.4008
    5SAPS   O14  547   3.076   5.359   8.379 -0.0913  0.6731 -0.4501
    5SAPS   O12  548   3.054   5.229   8.160 -1.1550 -0.6844 -0.1119
    5SAPS   O11  549   2.999   5.467   8.174 -0.1757 -0.2963 -0.4101
    5SAPS    C1  550   3.071   5.467   8.046  0.2024 -0.2515 -0.1525
    5SAPS    HA  551   3.097   5.573   8.024 -1.3188 -0.3176 -2.5685
    5SAPS    HB  552   3.168   5.415   8.061 -1.1391 -2.1133  3.0989
    5SAPS    C2  553   3.003   5.418   7.917 -0.8273  0.4589 -0.7081
    5SAPS    HS  554   2.965   5.314   7.929  1.8679 -0.5466 -0.1305
    5SAPS   O21  555   3.090   5.419   7.797  0.5478  0.6983  0.0035
    5SAPS   C21  556   3.172   5.312   7.778  0.4109 -0.2367 -0.6115
    5SAPS   O22  557   3.174   5.216   7.850  0.7678 -0.0112  0.3033
    5SAPS   C22  558   3.261   5.332   7.658 -0.7302  0.9667 -0.3266
    5SAPS   H2R  559   3.346   5.397   7.690 -0.2799  0.7476 -1.0526
    5SAPS   H2S  560   3.312   5.234   7.645 -2.3784 -0.1299  1.0012
    5SAPS    C3  561   2.875   5.501   7.890  0.2783 -0.4815 -0.5496
    5SAPS    HX  562   2.878   5.612   7.879 -0.1380 -0.1694  1.8121
    5SAPS    HY  563   2.802   5.483   7.972  0.8896 -0.8517 -0.0758
    5SAPS   O31  564   2.814   5.453   7.768 -0.3280  0.2136  0.4318
    5SAPS   C31  565   2.735   5.351   7.777  0.0531 -0.6016 -0.5257
    5SAPS   O32  566   2.709   5.284   7.878 -0.4430  0.2232 -0.4388
    5SAPS   C32  567   2.662   5.325   7.646 -0.0497  0.1707 -0.0459
    5SAPS   H2X  568   2.620   5.422   7.615 -2.2373 -0.2496  1.3937
    5SAPS   H2Y  569   2.579   5.253   7.664  1.4004 -1.3290  1.0486
    5SAPS   C23  570   3.187   5.386   7.538 -0.4681 -0.3890  0.2579
    5SAPS   H3R  571   3.263   5.423   7.466 -2.1485 -0.8919 -1.8617
    5SAPS   H3S  572   3.126   5.472   7.573  0.6848 -0.1323  1.7424
    5SAPS   C24  573   3.117   5.272   7.461  0.2452 -0.5954 -0.1491
    5SAPS   H4R  574   3.039   5.223   7.523 -0.2880  1.1635  0.6507
    5SAPS   H4S  575   3.190   5.190   7.443  0.0292 -1.1465  1.3249
    5SAPS   C25  576   3.060   5.338   7.337 -0.3228  0.1832  0.2643
    5SAPS   H5R  577   3.013   5.438   7.342 -1.8590 -0.5211  0.4697
    5SAPS   C26  578   3.081   5.296   7.214  0.2246  0.9558 -0.4203
    5SAPS   H6R  579   3.028   5.348   7.133 -0.7744 -1.9608 -1.8009
    5SAPS   C27  580   3.138   5.165   7.167  0.2852 -0.0034 -0.0878
    5SAPS   H7R  581   3.053   5.105   7.129  0.8977  0.5878 -2.5274
    5SAPS   H7S  582   3.167   5.108   7.259 -2.2913  0.1784  0.9188
    5SAPS   C28  583   3.256   5.186   7.067  0.5842  0.2752 -0.7296
    5SAPS   H8R  584   3.356   5.208   7.106  0.4205 -0.1728 -0.0450
    5SAPS   C29  585   3.244   5.194   6.928  0.2308 -0.1413 -0.5647
    5SAPS   H9R  586   3.340   5.184   6.875  0.6384  3.0191 -0.5663
    5SAPS  C210  587   3.128   5.182   6.830 -0.5517 -0.3336 -0.1705
    5SAPS  H10R  588   3.143   5.261   6.753  2.6859 -0.6956 -0.0436
    5SAPS  H10S  589   3.031   5.199   6.882 -0.8997 -0.8405 -0.6447
    5SAPS  C211  590   3.114   5.055   6.758 -0.4005 -0.3971 -0.7389
    5SAPS  H11R  591   3.160   4.969   6.809  0.4064 -0.4388 -1.4988
    5SAPS  C212  592   3.055   5.030   6.641 -0.5744 -0.3221 -0.2519
    5SAPS  H12R  593   3.060   4.925   6.609 -0.3687  0.0832 -1.5928
    5SAPS  C213  594   2.964   5.120   6.561  0.1707  0.2994 -0.2044
    5SAPS  H13R  595   3.039   5.180   6.505  0.3263 -1.6056 -2.1364
    5SAPS  H13S  596   2.906   5.194   6.621 -1.4070 -2.7384  2.3000
    5SAPS  C214  597   2.869   5.039   6.476 -0.2547 -0.2156 -0.0525
    5SAPS  H14R  598   2.768   5.019   6.515 -0.1495 -0.9448 -0.1290
    5SAPS  C215  599   2.914   4.984   6.356 -0.1586  0.2158 -0.6311
    5SAPS  H15R  600   2.847   4.911   6.308  0.5240 -0.7711 -0.1073
    5SAPS  C216  601   3.034   5.010   6.280 -0.1315  0.2407 -0.2421
    5SAPS  H16R  602   3.079   5.108   6.306 -0.8443  0.3126  0.7967
    5SAPS  H16S  603   3.009   5.004   6.172  1.3670 -0.9936 -0.5606
    5SAPS  C217  604   3.148   4.909   6.313  0.2848 -0.6601 -0.2606
    5SAPS  H17R  605   3.161   4.895   6.422 -1.7992 -0.2318  0.0945
    5SAPS  H17S  606   3.242   4.947   6.268  0.1561 -1.5594 -1.3326
    5SAPS  C218  607   3.134   4.760   6.259 -0.0162 -0.8061 -0.0953
    5SAPS  H18R  608   3.056   4.711   6.321  1.3934 -0.7918  1.7613
    5SAPS  H18S  609   3.227   4.711   6.292  0.5379 -0.2023 -0.7197
    5SAPS  C219  610   3.134   4.748   6.109  0.8764  0.2832  0.2041
    5SAPS  H19R  611   3.200   4.672   6.064 -0.2680  0.5691 -2.1892
    5SAPS  H19S  612   3.166   4.841   6.058  0.3041  0.4061  0.0535
    5SAPS  C220  613   2.994   4.719   6.052 -0.0634 -0.2059 -0.4305
    5SAPS  H20R  614   2.915   4.795   6.064 -0.5087 -0.4079 -1.9171
    5SAPS  H20S  615   2.967   4.627   6.108  0.0991  0.1245  0.1946
    5SAPS  H20T  616   2.993   4.693   5.944 -3.2004  1.8941 -1.0282
    5SAPS   C33  617   2.754   5.280   7.522  0.1689  1.1704 -0.0630
    5SAPS   H3X  618   2.808   5.187   7.553 -3.0491 -0.5391  0.8576
    5SAPS   H3Y  619   2.818   5.367   7.498  2.4475 -0.8405 -1.7948
    5SAPS   C34  620   2.660   5.239   7.413  0.1929 -0.1904  0.1550
    5SAPS   H4X  621   2.617   5.335   7.377 -2.4621 -1.6258 -0.8435
    5SAPS   H4Y  622   2.580   5.177   7.461 -0.0990 -0.3394 -0.5054
    5SAPS   C35  623   2.719   5.167   7.296 -0.5118  1.0688 -0.3789
    5SAPS   H5X  624   2.778   5.077   7.324 -2.0806 -0.0502 -0.4969
    5SAPS   H5Y  625   2.785   5.245   7.253 -0.1716  0.7569 -0.4310
    5SAPS   C36  626   2.612   5.122   7.194  0.2054  0.5241 -0.2426
    5SAPS   H6X  627   2.529   5.195   7.190 -1.4487 -1.3005 -2.0301
    5SAPS   H6Y  628   2.559   5.038   7.243 -0.7668  0.4687 -1.3372
    5SAPS   C37  629   2.668   5.098   7.049  0.0367  0.4511 -0.8439
    5SAPS   H7X  630   2.757   5.031   7.055  0.7013  1.2160 -1.7738
    5SAPS   H7Y  631   2.703   5.198   7.015 -0.8279  0.0616 -3.0124
    5SAPS   C38  632   2.561   5.052   6.947  0.2333  0.1186 -0.4734
    5SAPS   H8X  633   2.488   5.132   6.970 -1.0102 -2.0101  4.1085
    5SAPS   H8Y  634   2.518   4.953   6.974 -0.9650  0.2045 -1.9023
    5SAPS   C39  635   2.605   5.058   6.803  0.3852 -1.0405  0.2911
    5SAPS   H9X  636   2.654   4.961   6.779 -0.3696 -1.0138 -1.5233
    5SAPS   H9Y  637   2.674   5.144   6.793  0.0154 -0.3653  2.8732
    5SAPS  C310  638   2.489   5.070   6.705  0.0383  0.3492  0.0677
    5SAPS  H10X  639   2.453   5.173   6.685 -0.3423  0.1174 -0.4507
    5SAPS  H10Y  640   2.414   5.004   6.752  1.0594 -0.6044  0.4081
    5SAPS  C311  641   2.518   5.005   6.564 -0.7315  0.6265 -0.2425
    5SAPS  H11X  642   2.592   4.924   6.578  0.0913  1.5295  0.7751
    5SAPS  H11Y  643   2.574   5.079   6.502  0.1573  1.0890  1.0855
    5SAPS  C312  644   2.396   4.947   6.498 -0.2739  0.3006 -0.7850
    5SAPS  H12X  645   2.309   5.013   6.521  1.1163  1.6250  1.0217
    5SAPS  H12Y  646   2.379   4.841   6.528  1.5998  0.1276 -0.2030
    5SAPS  C313  647   2.425   4.938   6.346  0.3310  0.7560 -0.2206
    5SAPS  H13X  648   2.524   4.896   6.319 -0.4307  0.9276 -3.6779
    5SAPS  H13Y  649   2.416   5.040   6.302  0.1263  0.2902 -1.2860
    5SAPS  C314  650   2.313   4.853   6.284 -0.1297 -0.5447  0.2137
    5SAPS  H14X  651   2.210   4.889   6.304 -0.1297  0.4651 -1.4258
    5SAPS  H14Y  652   2.324   4.756   6.337 -1.9690 -0.3430  1.0255
    5SAPS  C315  653   2.337   4.837   6.133  0.8115  0.1005  0.6409
    5SAPS  H15X  654   2.299   4.738   6.102 -0.9791  0.5616  1.2620
    5SAPS  H15Y  655   2.446   4.829   6.115  0.6845 -3.4562  0.8660
    5SAPS  C316  656   2.272   4.946   6.053  0.2490 -0.0077 -0.3116
    5SAPS  H16X  657   2.339   5.035   6.055 -0.5017  0.5589  0.5368
    5SAPS  H16Y  658   2.185   4.986   6.110  0.7185 -3.3891  3.1275
    5SAPS  C317  659   2.221   4.897   5.912 -0.3408 -0.4268 -0.0258
    5SAPS  H17X  660   2.134   4.829   5.926  1.4915 -3.0836 -0.8930
    5SAPS  H17Y  661   2.308   4.848   5.864  0.2584 -1.0390  1.6147
    5SAPS  C318  662   2.173   5.023   5.844  0.0874  0.1213  0.2225
    5SAPS  H18X  663   2.265   5.086   5.837  1.0477 -1.1795  0.8196
    5SAPS  H18Y  664   2.101   5.088   5.899  0.3401  0.5480  0.0616
    5SAPS  H18Z  665   2.125   5.007   5.745 -2.0207  0.6050  1.1090
    6SAPS     N  666   5.795   4.781   8.060 -0.4398  0.0974 -0.6958
    6SAPS   HN1  667   5.757   4.714   7.990 -2.6035 -2.4673  2.6194
    6SAPS   HN2  668   5.733   4.833   8.126 -0.0282  0.5495 -0.6625
    6SAPS   HN3  669   5.830   4.855   7.996 -1.2376 -1.9136 -3.6630
    6SAPS   C12  670   5.919   4.723   8.130 -0.4543 -0.4441  0.5267
    6SAPS  H12A  671   5.930   4.791   8.214  1.0282  1.5501 -1.1823
    6SAPS   C13  672   5.893   4.577   8.175 -0.5341 -0.3153 -0.4720
    6SAPS  O13A  673   5.801   4.509   8.130  0.4696  0.2671 -0.1617
    6SAPS  O13B  674   5.968   4.538   8.265 -0.5602  0.3248  0.4100
    6SAPS   C11  675   6.050   4.751   8.047  0.3752 -0.0351 -0.0318
    6SAPS  H11A  676   6.052   4.700   7.948  2.2140  0.3391 -0.2298
    6SAPS  H11B  677   6.128   4.704   8.110 -0.5721  1.2874  2.2404
    6SAPS     P  678   6.164   4.984   8.120 -0.0351 -0.0430 -0.0041
    6SAPS   O13  679   6.146   5.127   8.089  0.0050 -0.2636 -0.4504
    6SAPS   O14  680   6.122   4.947   8.262 -0.3889  0.1247  0.1573
    6SAPS   O12  681   6.073   4.896   8.021 -0.2235 -0.2202  0.1001
    6SAPS   O11  682   6.306   4.937   8.083  0.1388  0.4127 -0.1690
    6SAPS    C1  683   6.425   5.010   8.058 -0.2516 -0.1592  0.1176
    6SAPS    HA  684   6.426   5.116   8.091  0.0956 -0.4800  1.1490
    6SAPS    HB  685   6.513   4.953   8.092 -0.1417 -1.4639 -2.1679
    6SAPS    C2  686   6.447   5.011   7.902 -0.4790 -0.3460  0.1997
    6SAPS    HS  687   6.540   5.071   7.887  0.2265 -0.9609  1.8428
    6SAPS   O21  688   6.337   5.082   7.831  0.2517  0.0509 -0.0343
    6SAPS   C21  689   6.330   5.213   7.850  0.0959  0.3599  0.0362
    6SAPS   O22  690   6.394   5.278   7.933 -0.3682  0.0959 -0.1573
    6SAPS   C22  691   6.231   5.273   7.750  0.0962  0.4081 -0.1887
    6SAPS   H2R  692   6.173   5.194   7.699 -0.9378  1.4042 -0.5913
    6SAPS   H2S  693   6.154   5.322   7.814  0.2520  0.6366 -0.1741
    6SAPS    C3  694   6.469   4.869   7.850 -0.9610  0.2497  0.2934
    6SAPS    HX  695   6.367   4.837   7.820 -0.1742 -2.1778  0.0342
    6SAPS    HY  696   6.516   4.818   7.937  4.7735  0.2784 -2.3451
    6SAPS   O31  697   6.557   4.854   7.733 -0.1125  1.2096 -0.0431
    6SAPS   C31  698   6.560   4.722   7.709  0.2494  0.4116 -0.5708
    6SAPS   O32  699   6.533   4.638   7.792  0.6793  0.4000 -0.2235
    6SAPS   C32  700   6.599   4.681   7.564 -0.0583 -0.1667  0.1602
    6SAPS   H2X  701   6.503   4.691   7.510 -0.4196 -1.4261  0.5545
    6SAPS   H2Y  702   6.635   4.576   7.572  1.4446  0.3170  0.1461
    6SAPS   C23  703   6.288   5.388   7.665 -0.7463  0.0697 -0.0017
    6SAPS   H3R  704   6.372   5.438   7.718 -1.2202  2.5813 -1.4606
    6SAPS   H3S  705   6.213   5.464   7.635 -0.8507  0.7986  1.9623
    6SAPS   C24  706   6.352   5.337   7.531  0.1550 -0.1762 -0.3719
    6SAPS   H4R  707   6.281   5.284   7.464  0.3445  1.0307 -1.5974
    6SAPS   H4S  708   6.433   5.265   7.555  0.1342 -0.7205 -1.8206
    6SAPS   C25  709   6.409   5.454   7.450 -0.1286 -0.1966  0.9786
    6SAPS   H5R  710   6.450   5.542   7.500  2.5000  0.5822 -2.2569
    6SAPS   C26  711   6.406   5.470   7.312 -0.2864 -0.2704 -0.3111
    6SAPS   H6R  712   6.472   5.546   7.267  2.9646 -1.1381  2.5114
    6SAPS   C27  713   6.357   5.361   7.219  0.6000  0.1537  0.2558
    6SAPS   H7R  714   6.363   5.258   7.260 -0.8739 -1.0585 -2.3204
    6SAPS   H7S  715   6.429   5.371   7.134 -0.8144  4.7442 -0.7131
    6SAPS   C28  716   6.220   5.378   7.170 -0.3661 -0.1421 -0.2912
    6SAPS   H8R  717   6.141   5.365   7.245  0.0603 -1.2298 -0.0140
    6SAPS   C29  718   6.188   5.439   7.050 -0.3236  1.1304  0.5745
    6SAPS   H9R  719   6.090   5.420   7.005  0.7078  0.0677 -1.3463
    6SAPS  C210  720   6.293   5.511   6.968 -0.2087 -0.0194 -0.4483
    6SAPS  H10R  721   6.385   5.547   7.018  0.5484 -0.4905 -1.4666
    6SAPS  H10S  722   6.245   5.610   6.949 -2.2531 -1.1538 -1.6627
    6SAPS  C211  723   6.319   5.437   6.838 -0.2720 -0.0989 -0.5389
    6SAPS  H11R  724   6.348   5.333   6.858  2.9767  0.4683 -1.5784
    6SAPS  C212  725   6.305   5.486   6.714 -0.1963 -0.3840 -0.4251
    6SAPS  H12R  726   6.308   5.412   6.633  0.0757 -1.2911  0.3912
    6SAPS  C213  727   6.276   5.634   6.689  0.1619  0.0003 -0.4062
    6SAPS  H13R  728   6.326   5.667   6.595 -0.8713  0.9356 -0.6546
    6SAPS  H13S  729   6.338   5.698   6.755  0.0776  1.8252 -2.0014
    6SAPS  C214  730   6.130   5.680   6.692 -0.1432 -0.3856  0.2124
    6SAPS  H14R  731   6.088   5.697   6.793  0.0438  0.0953  0.2116
    6SAPS  C215  732   6.048   5.709   6.589 -0.1674  0.7567  0.0925
    6SAPS  H15R  733   5.945   5.746   6.601 -2.1028 -3.3075 -1.8966
    6SAPS  C216  734   6.095   5.679   6.445  0.5263  0.0310  0.5999
    6SAPS  H16R  735   6.012   5.663   6.374 -0.3440  0.4406  1.4926
    6SAPS  H16S  736   6.152   5.583   6.440  0.1216 -0.2900  1.7287
    6SAPS  C217  737   6.196   5.786   6.379  0.9734  0.1300  0.3435
    6SAPS  H17R  738   6.300   5.784   6.419  0.4939  1.1040  1.6815
    6SAPS  H17S  739   6.158   5.887   6.402  0.3310 -0.5092  2.2335
    6SAPS  C218  740   6.199   5.777   6.228  0.3952 -0.0861  0.3781
    6SAPS  H18R  741   6.261   5.865   6.197 -2.6982  1.4592 -1.9564
    6SAPS  H18S  742   6.101   5.791   6.178 -0.0299  0.4901  1.3661
    6SAPS  C219  743   6.270   5.647   6.182 -0.2688  0.3661 -0.2102
    6SAPS  H19R  744   6.214   5.555   6.210  0.8802 -0.9067 -1.8863
    6SAPS  H19S  745   6.371   5.633   6.225 -1.1174 -0.7735  1.5177
    6SAPS  C220  746   6.276   5.645   6.028  0.0983 -0.3856 -0.3496
    6SAPS  H20R  747   6.380   5.669   5.997  0.1221  1.4061  1.0004
    6SAPS  H20S  748   6.220   5.730   5.984  1.4558  1.5622  1.4892
    6SAPS  H20T  749   6.250   5.545   5.988  3.6982 -0.3680 -3.3523
    6SAPS   C33  750   6.718   4.759   7.493  0.5766 -0.4251  0.0987
    6SAPS   H3X  751   6.815   4.709   7.515 -0.6442 -2.1385  1.9242
    6SAPS   H3Y  752   6.705   4.860   7.538 -3.2503 -0.6584 -0.1934
    6SAPS   C34  753   6.705   4.761   7.340  0.0974  0.2777  0.9404
    6SAPS   H4X  754   6.774   4.837   7.298  0.4867  0.3048  1.6133
    6SAPS   H4Y  755   6.599   4.787   7.316  0.6147 -1.2901 -4.2939
    6SAPS   C35  756   6.745   4.627   7.271 -0.2936  0.6559  0.5210
    6SAPS   H5X  757   6.699   4.541   7.323  0.6300 -0.7974 -0.9388
    6SAPS   H5Y  758   6.855   4.610   7.269  0.0233  2.3037  1.7481
    6SAPS   C36  759   6.691   4.618   7.121 -0.3746  0.2347 -0.0811
    6SAPS   H6X  760   6.581   4.603   7.132 -0.0776 -1.9371  0.2974
    6SAPS   H6Y  761   6.724   4.526   7.069 -0.0054  1.1684 -1.5729
    6SAPS   C37  762   6.738   4.733   7.031  0.8280  0.3986  0.7978
    6SAPS   H7X  763   6.828   4.786   7.066  0.1172  1.8074  0.5708
    6SAPS   H7Y  764   6.664   4.816   7.033  0.8048  0.5164 -1.6643
    6SAPS   C38  765   6.759   4.687   6.881  0.1443 -0.2377  0.0324
    6SAPS   H8X  766   6.668   4.638   6.840  0.0827  0.1257 -0.2782
    6SAPS   H8Y  767   6.844   4.616   6.882  0.0928 -0.2927  0.4514
    6SAPS   C39  768   6.806   4.790   6.788 -0.6259 -0.0122  0.2835
    6SAPS   H9X  769   6.863   4.863   6.850 -0.8804 -0.1494  0.6817
    6SAPS   H9Y  770   6.722   4.837   6.732 -0.0817 -1.3104 -1.7354
    6SAPS  C310  771   6.875   4.736   6.660  0.2351 -0.4030  0.4692
    6SAPS  H10X  772   6.955   4.665   6.689  0.7259  0.3877  1.0930
    6SAPS  H10Y  773   6.930   4.819   6.612  0.1314  0.7602  2.2739
    6SAPS  C311  774   6.777   4.670   6.555  0.3023  0.4254 -0.4771
    6SAPS  H11X  775   6.706   4.749   6.520 -0.7667 -0.5371 -0.5350
    6SAPS  H11Y  776   6.715   4.594   6.607  1.7279  1.0992  2.3880
    6SAPS  C312  777   6.853   4.603   6.432  0.2127 -0.4749  0.1999
    6SAPS  H12X  778   6.922   4.532   6.482 -2.1208 -3.2466 -0.2337
    6SAPS  H12Y  779   6.918   4.684   6.393  0.1427 -0.1913  0.6734
    6SAPS  C313  780   6.758   4.549   6.323 -0.2514 -0.0798  0.3616
    6SAPS  H13X  781   6.704   4.643   6.301 -1.5244 -1.0429 -0.7730
    6SAPS  H13Y  782   6.681   4.474   6.352 -2.4290  2.2254  0.8867
    6SAPS  C314  783   6.813   4.511   6.183 -0.1359 -0.2333 -0.7008
    6SAPS  H14X  784   6.882   4.585   6.138 -1.1269  0.2916 -1.4161
    6SAPS  H14Y  785   6.724   4.506   6.116 -0.3719 -1.5778 -0.3300
    6SAPS  C315  786   6.883   4.373   6.175  0.6312  0.0272 -0.5941
    6SAPS  H15X  787   6.819   4.300   6.228  0.7636  0.7945  0.6681
    6SAPS  H15Y  788   6.975   4.377   6.237  0.4181  0.0047 -0.2784
    6SAPS  C316  789   6.907   4.338   6.029 -0.4614  0.3893 -0.1471
    6SAPS  H16X  790   6.991   4.398   5.987  2.4741 -1.4539  2.5989
    6SAPS  H16Y  791   6.816   4.374   5.978 -0.0573  1.7065  0.0317
    6SAPS  C317  792   6.935   4.188   6.008  0.0784  0.2995 -0.7042
    6SAPS  H17X  793   6.852   4.133   6.056  1.7126 -1.6926 -0.0467
    6SAPS  H17Y  794   7.032   4.163   6.058 -0.8182  1.1623  1.6242
    6SAPS  C318  795   6.938   4.161   5.858  0.7942  0.2302 -0.0660
    6SAPS  H18X  796   7.020   4.216   5.806  1.4098 -2.0015 -1.5729
    6SAPS  H18Y  797   6.832   4.186   5.835  0.0857 -1.3693  1.2568
    6SAPS  H18Z  798   6.945   4.054   5.829 -0.1512  0.1733 -0.1214
    7SAPS     N  799   0.086   6.764   8.585  0.4171  0.0156 -0.0494
    7SAPS   HN1  800   0.179   6.767   8.538  0.3072  2.2735 -0.2353
    7SAPS   HN2  801   0.103   6.757   8.687  0.8858 -1.5469 -0.2003
    7SAPS   HN3  802   0.034   6.680   8.552 -0.0885 -0.6711  2.3112
    7SAPS   C12  803   0.020   6.893   8.555 -0.0408 -0.5489 -0.0931
    7SAPS  H12A  804  -0.085   6.874   8.540  0.2233 -2.5210  0.3187
    7SAPS   C13  805   0.041   7.007   8.655  0.3176 -0.1437 -0.1020
    7SAPS  O13A  806   0.079   6.985   8.777  0.1313  0.0532 -0.1396
    7SAPS  O13B  807  -0.023   7.113   8.628  0.2363  0.1790 -0.1916
    7SAPS   C11  808   0.071   6.951   8.416  0.4200 -0.6663  0.4583
    7SAPS  H11A  809  -0.008   7.025   8.390  1.6004  0.0166 -1.3755
    7SAPS  H11B  810   0.067   6.871   8.339  0.2841 -0.1305 -0.1061
    7SAPS     P  811   0.328   6.927   8.386 -0.3714 -0.0281 -0.1261
    7SAPS   O13  812   0.448   7.009   8.405  0.0294  0.1891  0.0022
    7SAPS   O14  813   0.318   6.809   8.471  0.6442 -0.7652  0.0149
    7SAPS   O12  814   0.204   7.014   8.423  0.1552  0.2449  0.1812
    7SAPS   O11  815   0.314   6.900   8.231  0.0687 -0.1142 -0.6222
    7SAPS    C1  816   0.321   6.999   8.127  0.6076 -0.4786  0.3467
    7SAPS    HA  817   0.352   7.098   8.166 -2.1115  0.3770  0.5547
    7SAPS    HB  818   0.394   6.966   8.051  0.6046 -0.2747  0.2570
    7SAPS    C2  819   0.186   7.030   8.060  0.1179 -0.0721  0.1214
    7SAPS    HS  820   0.117   7.083   8.130  1.6688  1.3624  0.6127
    7SAPS   O21  821   0.125   6.915   8.002 -0.5519 -0.7448 -0.1928
    7SAPS   C21  822  -0.003   6.918   7.974 -0.2413 -0.1324 -0.2134
    7SAPS   O22  823  -0.085   6.999   8.011 -0.0842 -0.4292  0.3177
    7SAPS   C22  824  -0.041   6.796   7.890  0.1794  0.3734 -0.3366
    7SAPS   H2R  825   0.037   6.717   7.885 -0.3970 -0.2845  0.5627
    7SAPS   H2S  826  -0.128   6.751   7.943  1.4351 -0.3264  1.2007
    7SAPS    C3  827   0.194   7.146   7.954  0.8579 -0.3722  0.0927
    7SAPS    HX  828   0.231   7.234   8.011  0.7404 -0.4473  0.2854
    7SAPS    HY  829   0.091   7.172   7.924  0.1014 -1.9131  1.2139
    7SAPS   O31  830   0.292   7.118   7.863  0.3844 -0.9346 -0.0705
    7SAPS   C31  831   0.241   7.057   7.746 -0.0733  0.1749  0.3879
    7SAPS   O32  832   0.124   7.068   7.716  0.3311  0.1196  0.2117
    7SAPS   C32  833   0.348   6.969   7.682  0.2090  0.0397 -0.0449
    7SAPS   H2X  834   0.354   6.871   7.735 -3.1911 -0.0074  0.4691
    7SAPS   H2Y  835   0.452   7.010   7.679  0.3390 -0.3292 -2.0086
    7SAPS   C23  836  -0.086   6.838   7.747 -0.2349 -0.2408 -0.2884
    7SAPS   H3R  837   0.004   6.871   7.691  0.3508 -0.3643  0.5634
    7SAPS   H3S  838  -0.157   6.924   7.752 -0.5105 -0.5016  0.3922
    7SAPS   C24  839  -0.179   6.731   7.680  0.1367 -0.3181 -0.0974
    7SAPS   H4R  840  -0.219   6.780   7.588 -3.6599 -1.6462  0.6656
    7SAPS   H4S  841  -0.263   6.725   7.753 -0.8946  2.1638 -0.9671
    7SAPS   C25  842  -0.115   6.594   7.657 -0.3681 -0.3853 -0.3369
    7SAPS   H5R  843  -0.103   6.554   7.759 -1.3921  2.8914  1.2106
    7SAPS   C26  844  -0.071   6.527   7.547  0.0093  0.1010  0.7383
    7SAPS   H6R  845  -0.027   6.427   7.560 -0.3758 -0.0537  0.8850
    7SAPS   C27  846  -0.072   6.582   7.407  0.6661  0.0746  0.4240
    7SAPS   H7R  847  -0.181   6.601   7.394  0.7368  1.1731  1.2456
    7SAPS   H7S  848  -0.039   6.501   7.338 -0.7307  1.5024 -2.0831
    7SAPS   C28  849  -0.005   6.714   7.380  0.5035 -0.2728  0.2719
    7SAPS   H8R  850  -0.018   6.783   7.465 -0.2968  0.6920 -0.6046
    7SAPS   C29  851   0.069   6.740   7.268  0.4050  0.9789 -0.6846
    7SAPS   H9R  852   0.117   6.838   7.261  1.0995  0.7232  0.1965
    7SAPS  C210  853   0.096   6.648   7.156 -0.1185 -0.1780 -0.1267
    7SAPS  H10R  854   0.007   6.594   7.118  2.7400 -2.0420 -5.0963
    7SAPS  H10S  855   0.165   6.566   7.186  0.5580  0.6304  0.5620
    7SAPS  C211  856   0.161   6.729   7.043 -0.2731  0.5631  0.2397
    7SAPS  H11R  857   0.155   6.838   7.056 -1.7025  0.4909  0.3252
    7SAPS  C212  858   0.202   6.688   6.923 -0.2067  1.0134  0.2803
    7SAPS  H12R  859   0.227   6.761   6.844 -1.1573 -0.0187 -1.0156
    7SAPS  C213  860   0.198   6.542   6.872 -0.5020 -0.3140  0.0283
    7SAPS  H13R  861   0.109   6.535   6.807  1.1175 -3.1857 -2.0961
    7SAPS  H13S  862   0.180   6.464   6.949 -1.9351 -0.2975 -0.2764
    7SAPS  C214  863   0.306   6.515   6.777  0.2031  0.0474  0.0655
    7SAPS  H14R  864   0.380   6.447   6.823 -0.0812  0.5836  1.3703
    7SAPS  C215  865   0.335   6.560   6.650  0.0302 -0.8780 -0.6555
    7SAPS  H15R  866   0.418   6.514   6.594 -0.1996 -2.4229  0.1944
    7SAPS  C216  867   0.230   6.642   6.575 -0.9086 -0.4560  0.0305
    7SAPS  H16R  868   0.217   6.736   6.632  0.9212  0.7826 -1.4476
    7SAPS  H16S  869   0.133   6.595   6.598 -1.1145  0.4887  1.1611
    7SAPS  C217  870   0.240   6.666   6.426 -0.1442  0.6396  0.0327
    7SAPS  H17R  871   0.245   6.572   6.368 -0.3085  0.9510 -0.4859
    7SAPS  H17S  872   0.327   6.731   6.401  0.5830  0.7717  2.5530
    7SAPS  C218  873   0.129   6.759   6.379  0.5764 -0.1588 -0.5586
    7SAPS  H18R  874   0.137   6.859   6.425 -0.4695  0.0195 -0.7480
    7SAPS  H18S  875   0.039   6.712   6.424  0.7679  2.3537  2.7573
    7SAPS  C219  876   0.113   6.771   6.231 -0.5578 -0.3110  0.1349
    7SAPS  H19R  877   0.111   6.672   6.180 -1.7893  0.9468 -2.4464
    7SAPS  H19S  878   0.212   6.810   6.198  0.8846 -2.1514  1.9956
    7SAPS  C220  879  -0.004   6.858   6.166  0.7074 -0.4092  0.2968
    7SAPS  H20R  880  -0.002   6.853   6.055  2.2975  0.3974  0.2541
    7SAPS  H20S  881   0.026   6.962   6.193  0.2711 -0.2170  0.0490
    7SAPS  H20T  882  -0.100   6.826   6.210  1.4756 -1.1073  1.5190
    7SAPS   C33  883   0.313   6.937   7.535 -0.6714 -0.3637 -0.0560
    7SAPS   H3X  884   0.214   6.891   7.516 -0.9800 -0.2297  1.1087
    7SAPS   H3Y  885   0.378   6.854   7.499 -0.1998 -0.0225 -0.0048
    7SAPS   C34  886   0.342   7.051   7.437  0.5852  0.4148 -0.1875
    7SAPS   H4X  887   0.428   7.115   7.467 -0.3275  1.0631  1.1624
    7SAPS   H4Y  888   0.251   7.115   7.446 -0.4622 -1.1606  1.0437
    7SAPS   C35  889   0.369   6.998   7.288 -0.3601 -0.6608  0.4436
    7SAPS   H5X  890   0.275   6.955   7.246  0.7659 -3.2892  0.4188
    7SAPS   H5Y  891   0.443   6.916   7.299  1.5741  0.6911 -1.6652
    7SAPS   C36  892   0.403   7.111   7.185  0.4939 -0.2174 -0.9813
    7SAPS   H6X  893   0.490   7.171   7.219  0.6447 -0.0929 -1.5830
    7SAPS   H6Y  894   0.320   7.184   7.178  0.6413  0.6071  3.3629
    7SAPS   C37  895   0.416   7.049   7.046 -0.0473 -0.2534 -0.3580
    7SAPS   H7X  896   0.322   6.993   7.028 -0.8020  0.9546 -0.3143
    7SAPS   H7Y  897   0.502   6.980   7.032  1.1857  1.3177 -0.8895
    7SAPS   C38  898   0.437   7.154   6.932  0.1167  0.1335 -0.0124
    7SAPS   H8X  899   0.514   7.219   6.979  0.7086 -0.9488  0.5522
    7SAPS   H8Y  900   0.342   7.208   6.911 -1.1869 -2.0920 -0.2332
    7SAPS   C39  901   0.476   7.097   6.792 -0.1648  0.3440  0.1992
    7SAPS   H9X  902   0.411   7.014   6.757  0.1842  0.0252  0.2981
    7SAPS   H9Y  903   0.576   7.049   6.803 -1.3659 -2.5611 -0.7807
    7SAPS  C310  904   0.479   7.203   6.678  0.5563  0.2393 -0.5991
    7SAPS  H10X  905   0.576   7.256   6.681  0.1193  1.0385 -0.3042
    7SAPS  H10Y  906   0.404   7.284   6.691  0.6374  0.5411 -1.8516
    7SAPS  C311  907   0.447   7.142   6.537 -0.2616 -0.9487 -0.5844
    7SAPS  H11X  908   0.377   7.059   6.562  0.1908 -0.8777  1.0140
    7SAPS  H11Y  909   0.536   7.103   6.483  0.0577  0.6603 -1.2877
    7SAPS  C312  910   0.365   7.238   6.449 -0.4541 -0.0974  0.2355
    7SAPS  H12X  911   0.420   7.332   6.428 -1.5195  0.3642 -0.5862
    7SAPS  H12Y  912   0.269   7.268   6.497 -1.3424 -0.0346 -1.5105
    7SAPS  C313  913   0.331   7.163   6.315 -0.0853 -0.7357  0.1990
    7SAPS  H13X  914   0.263   7.080   6.342 -0.1681 -0.1788  1.8062
    7SAPS  H13Y  915   0.422   7.114   6.274  1.1818  1.0702  0.7101
    7SAPS  C314  916   0.270   7.264   6.211 -0.1066  0.2986 -0.7199
    7SAPS  H14X  917   0.352   7.328   6.173  0.3389  0.8215  1.0087
    7SAPS  H14Y  918   0.210   7.336   6.271  0.1257 -0.0002 -0.1149
    7SAPS  C315  919   0.191   7.185   6.105 -0.6349  0.5190  0.8582
    7SAPS  H15X  920   0.109   7.124   6.149 -1.2288  0.0257 -0.8416
    7SAPS  H15Y  921   0.262   7.116   6.054 -0.6259  1.4887 -0.4827
    7SAPS  C316  922   0.119   7.279   6.002 -0.4345 -0.0042 -0.3700
    7SAPS  H16X  923   0.205   7.329   5.954  0.6044 -1.1295  0.2658
    7SAPS  H16Y  924   0.061   7.354   6.060  0.2816  0.2484  0.0283
    7SAPS  C317  925   0.024   7.206   5.915  0.8891  0.4801  1.2198
    7SAPS  H17X  926  -0.060   7.170   5.978  1.8422 -0.1434  2.1611
    7SAPS  H17Y  927   0.088   7.132   5.861  2.5922  2.1157  0.8810
    7SAPS  C318  928  -0.035   7.303   5.813 -0.3519 -0.4393  0.0254
    7SAPS  H18X  929  -0.135   7.333   5.851  0.7974  0.6074  2.4421
    7SAPS  H18Y  930  -0.035   7.265   5.709  1.4590 -1.4208  0.3403
    7SAPS  H18Z  931   0.021   7.398   5.819  1.4190 -1.3733 -0.9844
    8SAPS     N  932   5.716   0.721   8.090 -0.0432  0.0584  0.0910
    8SAPS   HN1  933   5.803   0.675   8.122  0.6230  2.2028  1.5637
    8SAPS   HN2  934   5.672   0.747   8.181 -1.5967  1.4967 -0.9983
    8SAPS   HN3  935   5.650   0.660   8.038  0.7001 -0.9015  0.2523
    8SAPS   C12  936   5.738   0.849   8.012  0.1467  0.9073 -0.4720
    8SAPS  H12A  937   5.688   0.829   7.918 -1.0809 -5.4416  1.0614
    8SAPS   C13  938   5.670   0.973   8.068 -0.5202 -0.0646 -0.6773
    8SAPS  O13A  939   5.639   0.976   8.193 -0.7927 -0.3524  0.3758
    8SAPS  O13B  940   5.673   1.079   8.000  0.5194 -0.0995  0.0243
    8SAPS   C11  941   5.887   0.871   7.996  0.0415 -0.4649 -0.3298
    8SAPS  H11A  942   5.943   0.881   8.092 -0.3732 -0.5848 -0.0719
    8SAPS  H11B  943   5.898   0.963   7.935 -2.4002 -0.8500 -1.4679
    8SAPS     P  944   6.099   0.754   7.905 -0.3261 -0.0225  0.2058
    8SAPS   O13  945   6.158   0.886   7.938  0.4169 -0.3105  0.0158
    8SAPS   O14  946   6.149   0.637   7.978 -0.4574 -0.2404  0.6505
    8SAPS   O12  947   5.940   0.764   7.926  0.4785  0.3235  0.1127
    8SAPS   O11  948   6.114   0.728   7.749  0.8590  0.1391 -0.2354
    8SAPS    C1  949   6.000   0.764   7.666  0.4686 -0.2861 -0.0069
    8SAPS    HA  950   5.922   0.688   7.688 -0.0787  0.5147  0.8404
    8SAPS    HB  951   5.961   0.868   7.672 -0.8833 -0.8065  0.4926
    8SAPS    C2  952   6.046   0.744   7.516  0.1048  0.7671  0.1679
    8SAPS    HS  953   5.965   0.747   7.439  1.3126  1.5360 -1.1294
    8SAPS   O21  954   6.121   0.625   7.503  0.3989 -0.1832 -0.3189
    8SAPS   C21  955   6.046   0.516   7.513 -0.0646  0.0960  0.0637
    8SAPS   O22  956   5.925   0.513   7.520 -0.1195 -0.0001  0.2775
    8SAPS   C22  957   6.138   0.399   7.487 -0.0491  0.5398  0.4446
    8SAPS   H2R  958   6.223   0.404   7.559 -0.9473 -1.0257  1.6756
    8SAPS   H2S  959   6.085   0.303   7.505  1.5020 -0.1367  1.6886
    8SAPS    C3  960   6.125   0.871   7.475  0.3106  0.6836  0.0945
    8SAPS    HX  961   6.207   0.899   7.543 -0.7522 -0.9136  2.1225
    8SAPS    HY  962   6.053   0.953   7.499  0.2938 -0.2157  3.5092
    8SAPS   O31  963   6.158   0.873   7.335  0.1092  0.5406 -0.2735
    8SAPS   C31  964   6.280   0.817   7.314  0.2077 -0.3901  0.5292
    8SAPS   O32  965   6.350   0.757   7.395 -0.5505 -0.0421 -0.0404
    8SAPS   C32  966   6.306   0.829   7.166 -0.2608 -0.2900 -0.6207
    8SAPS   H2X  967   6.378   0.911   7.148 -1.3755  0.3630 -2.3862
    8SAPS   H2Y  968   6.211   0.853   7.113  0.0619  1.0276 -0.6174
    8SAPS   C23  969   6.194   0.405   7.338  0.6390  0.9589  0.3838
    8SAPS   H3R  970   6.284   0.340   7.337 -0.3833 -0.4945 -0.1513
    8SAPS   H3S  971   6.230   0.509   7.319  2.3366  0.4893  0.8306
    8SAPS   C24  972   6.105   0.337   7.233  0.2523  0.1782 -0.4781
    8SAPS   H4R  973   6.066   0.242   7.276 -0.3999  0.4703 -0.4175
    8SAPS   H4S  974   6.157   0.312   7.138 -0.5791  0.1751 -0.9342
    8SAPS   C25  975   5.979   0.418   7.193  0.4589  0.0233 -0.4689
    8SAPS   H5R  976   5.942   0.478   7.277 -0.7331 -0.6310 -0.5032
    8SAPS   C26  977   5.916   0.429   7.069 -0.3683 -0.6392  0.0256
    8SAPS   H6R  978   5.824   0.489   7.062  0.5632  0.6775 -1.8207
    8SAPS   C27  979   5.953   0.373   6.939 -0.3058  0.3567  0.7121
    8SAPS   H7R  980   5.858   0.366   6.882  1.1405 -1.2427 -1.6743
    8SAPS   H7S  981   5.986   0.267   6.948  2.2205  0.8508 -1.3242
    8SAPS   C28  982   6.057   0.452   6.858 -0.1492 -0.6361  0.1520
    8SAPS   H8R  983   6.139   0.502   6.912  0.4939 -0.6107 -0.8183
    8SAPS   C29  984   6.042   0.484   6.722 -0.5620  0.2766  0.4516
    8SAPS   H9R  985   6.117   0.546   6.671  0.9373 -1.7667  0.0861
    8SAPS  C210  986   5.938   0.429   6.632  0.0859  0.1135 -0.1011
    8SAPS  H10R  987   5.876   0.514   6.596  0.3141  0.2173 -0.2463
    8SAPS  H10S  988   5.885   0.349   6.689  0.2596 -1.7751 -2.4247
    8SAPS  C211  989   6.017   0.353   6.523  0.7979 -0.2106  0.0147
    8SAPS  H11R  990   6.064   0.259   6.556  1.4747 -0.0188 -0.3871
    8SAPS  C212  991   6.036   0.387   6.393 -0.5544 -0.0321  0.0984
    8SAPS  H12R  992   6.094   0.320   6.328 -2.0120 -1.1326 -0.1459
    8SAPS  C213  993   5.975   0.506   6.320 -0.6175  0.3965  0.3631
    8SAPS  H13R  994   5.918   0.572   6.388 -1.1260  2.9560 -2.3158
    8SAPS  H13S  995   5.896   0.478   6.247 -0.0987 -0.0361 -0.0442
    8SAPS  C214  996   6.074   0.586   6.242 -0.6025  0.3763 -0.8469
    8SAPS  H14R  997   6.179   0.553   6.240 -0.8752 -0.5011 -2.6128
    8SAPS  C215  998   6.055   0.711   6.191  0.6850 -0.2520 -0.1737
    8SAPS  H15R  999   6.144   0.761   6.152  2.0423 -1.4249  1.3050
    8SAPS  C216 1000   5.919   0.791   6.204 -0.7973  0.2110 -0.4904
    8SAPS  H16R 1001   5.935   0.888   6.257 -1.9476 -0.6605  1.5564
    8SAPS  H16S 1002   5.850   0.741   6.276  1.5738 -2.1730  0.3016
    8SAPS  C217 1003   5.849   0.805   6.072  0.4351 -0.9207  0.0590
    8SAPS  H17R 1004   5.815   0.703   6.043 -0.0714 -0.3222 -1.5776
    8SAPS  H17S 1005   5.907   0.848   5.987  0.1180 -0.6499 -0.0222
    8SAPS  C218 1006   5.729   0.892   6.094  0.1606  0.7079  0.2345
    8SAPS  H18R 1007   5.776   0.991   6.112  2.4690 -0.6082  2.0111
    8SAPS  H18S 1008   5.676   0.858   6.185  0.2730 -0.8708 -0.2554
    8SAPS  C219 1009   5.638   0.905   5.971  0.2314 -0.0442 -0.2255
    8SAPS  H19R 1010   5.618   0.804   5.930 -1.5179 -0.1060  0.7016
    8SAPS  H19S 1011   5.690   0.953   5.885 -2.2298  1.0833 -1.1769
    8SAPS  C220 1012   5.510   0.987   5.990  0.2517  0.9903 -0.2703
    8SAPS  H20R 1013   5.469   0.999   5.887 -0.4334 -0.7578 -0.2222
    8SAPS  H20S 1014   5.546   1.090   6.014 -0.4449  1.0016  0.7609
    8SAPS  H20T 1015   5.441   0.947   6.067 -0.3547  1.7826 -0.3829
    8SAPS   C33 1016   6.363   0.703   7.091  0.2449 -0.2912 -0.4168
    8SAPS   H3X 1017   6.298   0.618   7.120  2.0160 -2.8986 -3.4861
    8SAPS   H3Y 1018   6.463   0.670   7.126 -1.3355 -1.7598  3.1026
    8SAPS   C34 1019   6.356   0.729   6.941  0.3412 -0.1975 -0.0158
    8SAPS   H4X 1020   6.261   0.783   6.918 -0.1486 -0.4823  1.2487
    8SAPS   H4Y 1021   6.349   0.629   6.893 -1.1017 -0.3883  0.5213
    8SAPS   C35 1022   6.482   0.794   6.881  0.4064  0.0236  0.1643
    8SAPS   H5X 1023   6.557   0.712   6.884 -0.0995 -0.4606 -0.2135
    8SAPS   H5Y 1024   6.532   0.874   6.940 -1.2555  1.1624  0.0878
    8SAPS   C36 1025   6.468   0.848   6.740  0.1023  0.1411 -0.0526
    8SAPS   H6X 1026   6.557   0.911   6.720  0.4939  0.4201  2.2959
    8SAPS   H6Y 1027   6.385   0.923   6.732  0.5364  0.4702 -2.0201
    8SAPS   C37 1028   6.466   0.746   6.624 -0.2296 -0.2271  0.1546
    8SAPS   H7X 1029   6.366   0.698   6.632 -0.6112  0.1860 -1.5726
    8SAPS   H7Y 1030   6.553   0.678   6.635  0.1843  0.5206  1.6473
    8SAPS   C38 1031   6.460   0.815   6.482 -0.0177  0.1463  0.3392
    8SAPS   H8X 1032   6.549   0.881   6.475  0.3498 -0.5091 -2.0032
    8SAPS   H8Y 1033   6.367   0.874   6.469 -0.9021 -1.5773 -1.7702
    8SAPS   C39 1034   6.494   0.719   6.363  1.7363  0.2555 -0.3980
    8SAPS   H9X 1035   6.409   0.649   6.351  1.0532  0.9429  0.4139
    8SAPS   H9Y 1036   6.595   0.674   6.377  1.5279  0.4010  1.8714
    8SAPS  C310 1037   6.502   0.791   6.226  0.6704  0.1271  0.0985
    8SAPS  H10X 1038   6.509   0.901   6.238  0.9066  0.1397 -0.1488
    8SAPS  H10Y 1039   6.403   0.777   6.177 -0.8317  0.6758  2.8154
    8SAPS  C311 1040   6.608   0.731   6.135  0.7060  0.8453 -0.3826
    8SAPS  H11X 1041   6.579   0.625   6.118  0.4308  1.1752 -2.0959
    8SAPS  H11Y 1042   6.704   0.722   6.191 -0.5923 -2.3772  1.5626
    8SAPS  C312 1043   6.623   0.820   6.010 -0.1249  0.6641  0.2636
    8SAPS  H12X 1044   6.711   0.774   5.960 -2.6225 -0.9870 -2.9652
    8SAPS  H12Y 1045   6.643   0.921   6.050  0.5014  0.0648  1.5372
    8SAPS  C313 1046   6.502   0.823   5.914 -0.1788 -0.4989  0.1277
    8SAPS  H13X 1047   6.405   0.845   5.963  0.1606  0.6931  0.2982
    8SAPS  H13Y 1048   6.487   0.723   5.866  1.4913 -2.8125  3.9417
    8SAPS  C314 1049   6.538   0.937   5.802 -0.0831 -0.0135  0.2762
    8SAPS  H14X 1050   6.467   0.930   5.717  0.6615  0.5918 -0.4038
    8SAPS  H14Y 1051   6.641   0.930   5.761 -0.5378 -1.5152 -0.6980
    8SAPS  C315 1052   6.501   1.075   5.855  0.3683  0.1112 -0.4036
    8SAPS  H15X 1053   6.578   1.112   5.927  0.5806  0.5186 -0.8293
    8SAPS  H15Y 1054   6.400   1.067   5.900  1.0443  0.3154  1.2148
    8SAPS  C316 1055   6.492   1.176   5.740 -0.3533 -0.3465  0.2135
    8SAPS  H16X 1056   6.424   1.132   5.664 -1.1937 -1.8140  1.7452
    8SAPS  H16Y 1057   6.596   1.197   5.705 -1.0600  0.6481 -1.4159
    8SAPS  C317 1058   6.422   1.300   5.799  0.4243 -0.7332  0.2660
    8SAPS  H17X 1059   6.473   1.340   5.889 -0.5924 -2.1685  1.5203
    8SAPS  H17Y 1060   6.323   1.269   5.837  1.0712 -2.4540  0.6615
    8SAPS  C318 1061   6.406   1.395   5.683  0.0208  0.5430 -0.7937
    8SAPS  H18X 1062   6.348   1.488   5.698 -0.3086  0.7160 -2.8562
    8SAPS  H18Y 1063   6.352   1.341   5.602 -0.3751 -1.7460  0.8659
    8SAPS  H18Z 1064   6.508   1.408   5.641  0.7712 -0.5642  0.5986
    9SAPS     N 1065   2.736   6.151   8.419  0.0245 -0.4602  0.2917
    9SAPS   HN1 1066   2.693   6.134   8.326 -0.7786 -0.9499  0.7391
    9SAPS   HN2 1067   2.791   6.238   8.406 -0.0468 -0.6423 -1.3715
    9SAPS   HN3 1068   2.799   6.072   8.444  1.4040  0.2220 -0.8731
    9SAPS   C12 1069   2.635   6.156   8.524 -0.7733 -0.5256 -0.3889
    9SAPS  H12A 1070   2.682   6.119   8.613  2.5393  1.7597 -1.0290
    9SAPS   C13 1071   2.579   6.298   8.560 -0.5641 -0.0087 -1.1412
    9SAPS  O13A 1072   2.608   6.390   8.484  0.3241  0.1194 -0.5739
    9SAPS  O13B 1073   2.501   6.324   8.660  0.4156  0.7596 -0.0733
    9SAPS   C11 1074   2.516   6.071   8.487 -0.2473  1.2783 -0.4219
    9SAPS  H11A 1075   2.472   6.103   8.390 -0.4099  0.0382 -0.7697
    9SAPS  H11B 1076   2.437   6.079   8.565 -0.3235  1.1657 -0.4887
    9SAPS     P 1077   2.476   5.819   8.427 -0.3821  0.0531 -0.2934
    9SAPS   O13 1078   2.525   5.692   8.474 -0.1885 -0.4330  0.0150
    9SAPS   O14 1079   2.329   5.843   8.462 -0.0773 -0.4380  0.5803
    9SAPS   O12 1080   2.562   5.936   8.483  0.2066 -0.4680  0.4514
    9SAPS   O11 1081   2.495   5.838   8.272  0.2470 -0.0024  0.4306
    9SAPS    C1 1082   2.630   5.827   8.213  0.2926 -0.7873 -0.4687
    9SAPS    HA 1083   2.707   5.884   8.269 -1.8941  0.5786  1.3179
    9SAPS    HB 1084   2.660   5.720   8.213  2.1449 -0.3007 -0.0646
    9SAPS    C2 1085   2.643   5.868   8.056 -1.0103 -0.6738 -0.3194
    9SAPS    HS 1086   2.747   5.906   8.050 -0.3890 -2.1139  0.7461
    9SAPS   O21 1087   2.542   5.967   8.020 -0.5901 -0.1843  0.2266
    9SAPS   C21 1088   2.536   6.069   8.102  0.6047 -0.2975 -0.3000
    9SAPS   O22 1089   2.622   6.106   8.178 -0.1930 -0.1134 -0.4861
    9SAPS   C22 1090   2.398   6.132   8.077  0.2627 -0.2254  0.0252
    9SAPS   H2R 1091   2.325   6.049   8.087  1.5893 -1.2678  1.4923
    9SAPS   H2S 1092   2.387   6.209   8.156 -1.7615  2.6913 -2.8472
    9SAPS    C3 1093   2.639   5.744   7.963 -0.5009  0.9627 -0.0330
    9SAPS    HX 1094   2.531   5.716   7.963 -0.1903 -0.8818  4.2269
    9SAPS    HY 1095   2.697   5.660   8.007 -0.0434  2.2990  2.0378
    9SAPS   O31 1096   2.694   5.783   7.834 -0.4790 -0.5628 -0.4272
    9SAPS   C31 1097   2.633   5.743   7.723 -1.2330  0.8675  0.2751
    9SAPS   O32 1098   2.552   5.653   7.717  0.2584 -0.0238 -0.3415
    9SAPS   C32 1099   2.692   5.817   7.592 -0.2136  0.3689 -0.1500
    9SAPS   H2X 1100   2.802   5.819   7.611 -0.3820  0.7969  0.8219
    9SAPS   H2Y 1101   2.656   5.922   7.592  0.6400  0.6793 -1.0772
    9SAPS   C23 1102   2.391   6.217   7.949  0.4711  0.4585 -0.2451
    9SAPS   H3R 1103   2.484   6.239   7.892 -0.1510  0.9184 -1.0904
    9SAPS   H3S 1104   2.358   6.317   7.984  2.2037  0.8467  0.3848
    9SAPS   C24 1105   2.282   6.167   7.846  0.2088 -0.0503 -0.7284
    9SAPS   H4R 1106   2.264   6.241   7.765  3.2214  1.4875 -0.1276
    9SAPS   H4S 1107   2.188   6.167   7.904  0.9696  1.5817  0.5841
    9SAPS   C25 1108   2.328   6.040   7.786  0.0522  0.1427 -0.4063
    9SAPS   H5R 1109   2.339   5.947   7.843  0.6180 -0.1875 -1.0533
    9SAPS   C26 1110   2.377   6.018   7.663 -0.1281  0.7073  0.4923
    9SAPS   H6R 1111   2.401   5.912   7.646  0.5744  0.8419  0.6198
    9SAPS   C27 1112   2.400   6.107   7.550  0.2917 -0.0057 -0.0992
    9SAPS   H7R 1113   2.506   6.086   7.525  0.6474  0.3332  1.0461
    9SAPS   H7S 1114   2.395   6.214   7.582  0.0674  0.5482 -1.8631
    9SAPS   C28 1115   2.300   6.093   7.432 -0.5101 -0.6071  0.2956
    9SAPS   H8R 1116   2.195   6.122   7.450 -0.7358  0.5025 -2.3145
    9SAPS   C29 1117   2.336   6.050   7.314  0.0854  0.2369 -0.1758
    9SAPS   H9R 1118   2.260   6.055   7.234  1.3051 -1.1868 -1.5077
    9SAPS  C210 1119   2.474   5.998   7.268  0.2651  1.3898  0.0782
    9SAPS  H10R 1120   2.468   5.899   7.218 -0.6185  1.6095 -0.2757
    9SAPS  H10S 1121   2.545   5.984   7.352  0.3935  0.2434 -0.1991
    9SAPS  C211 1122   2.541   6.091   7.171  0.4962 -0.0592 -0.4117
    9SAPS  H11R 1123   2.639   6.131   7.201  0.9782  0.0829 -2.0808
    9SAPS  C212 1124   2.517   6.119   7.040  0.2660  0.1921 -0.4456
    9SAPS  H12R 1125   2.587   6.190   6.994 -0.4877  0.3425 -1.3782
    9SAPS  C213 1126   2.411   6.058   6.955  0.6057 -0.1511  0.6145
    9SAPS  H13R 1127   2.385   5.962   7.004 -0.1711  0.4696  1.4699
    9SAPS  H13S 1128   2.468   6.033   6.863 -0.4766  1.0397 -0.4260
    9SAPS  C214 1129   2.286   6.140   6.936  0.3987 -0.3614  0.2756
    9SAPS  H14R 1130   2.265   6.210   7.019 -0.5851 -0.9795  0.5722
    9SAPS  C215 1131   2.202   6.135   6.833  0.2475  0.0359 -0.0056
    9SAPS  H15R 1132   2.127   6.216   6.833  0.7505  0.5564  2.1492
    9SAPS  C216 1133   2.212   6.060   6.703 -0.7569  0.1144 -0.4124
    9SAPS  H16R 1134   2.108   6.035   6.674 -1.2523  2.4045 -0.8344
    9SAPS  H16S 1135   2.273   5.970   6.726  0.4305  0.9280 -0.2470
    9SAPS  C217 1136   2.291   6.127   6.589 -0.7261 -0.7470  0.1194
    9SAPS  H17R 1137   2.392   6.151   6.629 -0.3193 -0.7845 -0.8575
    9SAPS  H17S 1138   2.241   6.217   6.547  0.5208 -0.5532 -1.0356
    9SAPS  C218 1139   2.318   6.033   6.477 -0.8817 -0.3251 -0.5047
    9SAPS  H18R 1140   2.362   5.939   6.516 -1.5250 -0.0343  0.9735
    9SAPS  H18S 1141   2.401   6.077   6.418 -1.6580  1.7689 -0.1213
    9SAPS  C219 1142   2.195   6.009   6.386  0.4137 -0.8099 -0.1208
    9SAPS  H19R 1143   2.109   5.975   6.449  0.6457 -0.2649  0.5033
    9SAPS  H19S 1144   2.216   5.924   6.317 -2.0427  0.3986 -2.5380
    9SAPS  C220 1145   2.143   6.127   6.304 -0.5905 -0.1094  0.4147
    9SAPS  H20R 1146   2.219   6.168   6.234 -0.2647 -0.8804  0.3130
    9SAPS  H20S 1147   2.106   6.205   6.373  0.4234  0.8838 -0.1385
    9SAPS  H20T 1148   2.054   6.090   6.248  0.0362  0.3044 -0.8997
    9SAPS   C33 1149   2.671   5.741   7.461  0.5355  0.2279 -0.7980
    9SAPS   H3X 1150   2.571   5.772   7.424  0.6188  0.0172 -1.2092
    9SAPS   H3Y 1151   2.673   5.631   7.475  1.0258  0.3983  0.6183
    9SAPS   C34 1152   2.780   5.772   7.351  0.3906  0.2014 -0.5939
    9SAPS   H4X 1153   2.867   5.711   7.383 -0.2432 -0.1038  0.6221
    9SAPS   H4Y 1154   2.813   5.878   7.348  3.5657 -0.4935  2.7662
    9SAPS   C35 1155   2.729   5.704   7.225 -0.1671  0.1917 -0.2445
    9SAPS   H5X 1156   2.692   5.782   7.155  0.5214  0.1822 -0.6327
    9SAPS   H5Y 1157   2.650   5.636   7.261 -0.0306  0.8726  1.4183
    9SAPS   C36 1158   2.839   5.620   7.159 -0.3175  0.1124  0.3223
    9SAPS   H6X 1159   2.877   5.554   7.240 -1.2046 -0.8359 -0.0168
    9SAPS   H6Y 1160   2.915   5.686   7.114 -1.4736 -0.1754 -2.2324
    9SAPS   C37 1161   2.777   5.520   7.060  0.1602 -0.9878 -0.3816
    9SAPS   H7X 1162   2.703   5.450   7.105 -1.3686  1.6241  1.4760
    9SAPS   H7Y 1163   2.860   5.456   7.023  1.7009  0.3511  0.6127
    9SAPS   C38 1164   2.704   5.591   6.944 -0.6437 -0.2736 -0.3114
    9SAPS   H8X 1165   2.762   5.669   6.890 -1.4465 -0.5065 -1.5433
    9SAPS   H8Y 1166   2.611   5.636   6.986 -0.3527 -1.3390  1.5362
    9SAPS   C39 1167   2.647   5.490   6.851  0.3381 -0.7065  0.1201
    9SAPS   H9X 1168   2.548   5.448   6.879  0.5874 -1.7056 -0.4609
    9SAPS   H9Y 1169   2.707   5.398   6.862 -0.0735 -0.8736  1.0540
    9SAPS  C310 1170   2.640   5.549   6.712  0.4815  0.8381 -0.3983
    9SAPS  H10X 1171   2.723   5.620   6.691  0.6815  0.9217  0.6209
    9SAPS  H10Y 1172   2.543   5.602   6.704  0.1363  0.5351  1.2675
    9SAPS  C311 1173   2.660   5.435   6.605 -0.3275 -0.9040  0.2685
    9SAPS  H11X 1174   2.579   5.359   6.616 -2.4798  1.0109 -1.5816
    9SAPS  H11Y 1175   2.761   5.392   6.624  0.5457  0.1813 -1.7073
    9SAPS  C312 1176   2.652   5.489   6.456 -0.5352  0.4603 -0.2936
    9SAPS  H12X 1177   2.732   5.567   6.447 -0.2783  0.1956 -0.3328
    9SAPS  H12Y 1178   2.552   5.531   6.432 -0.5160  0.0885 -1.0329
    9SAPS  C313 1179   2.697   5.382   6.363  0.1541 -0.7747 -0.0379
    9SAPS  H13X 1180   2.631   5.293   6.358  0.8461 -1.3340  0.4435
    9SAPS  H13Y 1181   2.796   5.337   6.386 -0.1140 -2.0818 -1.2866
    9SAPS  C314 1182   2.718   5.428   6.216  0.5476  0.6467 -0.2913
    9SAPS  H14X 1183   2.806   5.495   6.210  1.1179 -0.0631  0.0611
    9SAPS  H14Y 1184   2.631   5.488   6.180  1.0660  0.6631 -1.5377
    9SAPS  C315 1185   2.744   5.316   6.115 -0.2353 -0.2560  0.4328
    9SAPS  H15X 1186   2.850   5.284   6.105 -0.4801 -0.9868  0.1183
    9SAPS  H15Y 1187   2.731   5.366   6.017  3.8688  2.1651  0.8641
    9SAPS  C316 1188   2.658   5.183   6.124  0.6921 -0.7339  0.9040
    9SAPS  H16X 1189   2.555   5.224   6.134  1.3627  1.6278 -0.8310
    9SAPS  H16Y 1190   2.695   5.123   6.209  1.4871  1.6282  2.3419
    9SAPS  C317 1191   2.656   5.086   6.007  0.1845 -0.7988 -0.2787
    9SAPS  H17X 1192   2.618   5.140   5.918  0.1283  1.0112  0.7961
    9SAPS  H17Y 1193   2.588   5.002   6.032 -0.5323 -0.8195 -2.1723
    9SAPS  C318 1194   2.793   5.031   5.968  0.6634 -0.3742  0.1242
    9SAPS  H18X 1195   2.850   5.123   5.943 -1.9201  1.7521  1.5800
    9SAPS  H18Y 1196   2.796   4.961   5.881  0.5249 -0.5860  0.2883
    9SAPS  H18Z 1197   2.841   4.984   6.057 -1.1210 -0.1512  1.2456
   10SAPS     N 1198   4.206   3.965   8.323 -0.6962 -0.1405 -0.0604
   10SAPS   HN1 1199   4.195   4.066   8.302 -1.8110 -0.8564 -3.4130
   10SAPS   HN2 1200   4.300   3.938   8.287  0.3254  1.1602  1.5037
   10SAPS   HN3 1201   4.142   3.918   8.255  0.7893 -2.4349  0.0042
   10SAPS   C12 1202   4.171   3.942   8.471  0.4263 -0.4566  0.5016
   10SAPS  H12A 1203   4.175   3.835   8.487 -1.5625 -1.1170 -2.6122
   10SAPS   C13 1204   4.265   4.023   8.566  0.1500 -0.0465  1.3498
   10SAPS  O13A 1205   4.363   4.088   8.518  0.2529  0.1581 -0.2126
   10SAPS  O13B 1206   4.234   4.031   8.688 -0.0321 -0.3224 -0.1107
   10SAPS   C11 1207   4.024   3.989   8.499 -0.0471  0.6180 -0.3245
   10SAPS  H11A 1208   4.026   4.100   8.506  1.5156  0.5908  0.1068
   10SAPS  H11B 1209   3.989   3.937   8.591 -0.5626 -1.6958 -1.7567
   10SAPS     P 1210   3.813   4.031   8.348 -0.2019 -0.3153 -0.1277
   10SAPS   O13 1211   3.715   4.009   8.459  0.3365  0.1298  0.1688
   10SAPS   O14 1212   3.867   4.167   8.328  0.4528 -0.2523  0.1023
   10SAPS   O12 1213   3.941   3.941   8.387 -0.2847  0.6510  0.8985
   10SAPS   O11 1214   3.761   3.976   8.212 -0.0551  0.3054 -0.0832
   10SAPS    C1 1215   3.665   4.043   8.133  0.4406 -0.2935  0.0519
   10SAPS    HA 1216   3.572   3.983   8.117  0.3488 -1.0228  2.7540
   10SAPS    HB 1217   3.625   4.127   8.194 -0.9726 -2.5110  2.3945
   10SAPS    C2 1218   3.712   4.097   7.993 -0.1821  0.3699 -0.0513
   10SAPS    HS 1219   3.617   4.120   7.940 -0.7767 -2.7628 -0.5430
   10SAPS   O21 1220   3.787   4.003   7.916 -0.6880  0.9067 -0.3161
   10SAPS   C21 1221   3.718   3.900   7.884  0.1272  0.2056  0.6866
   10SAPS   O22 1222   3.592   3.889   7.886  0.0096  0.6027 -0.3667
   10SAPS   C22 1223   3.811   3.787   7.821  0.0651  0.2748  0.2563
   10SAPS   H2R 1224   3.910   3.835   7.809 -0.5237  1.0971 -1.6218
   10SAPS   H2S 1225   3.815   3.713   7.905 -0.6218 -0.3878 -0.2761
   10SAPS    C3 1226   3.789   4.229   8.018 -0.4029  0.2529 -0.9549
   10SAPS    HX 1227   3.879   4.217   8.081 -1.4930 -1.2131  0.4022
   10SAPS    HY 1228   3.722   4.296   8.077 -0.5489 -0.1301 -0.6818
   10SAPS   O31 1229   3.816   4.297   7.893 -0.2066 -0.2410  0.5281
   10SAPS   C31 1230   3.946   4.304   7.856  0.2635 -0.3882 -0.0296
   10SAPS   O32 1231   4.046   4.286   7.930  0.3297 -0.3833  0.2052
   10SAPS   C32 1232   3.942   4.312   7.704  0.0111 -0.6698 -0.8443
   10SAPS   H2X 1233   3.860   4.371   7.658  0.4788  1.0060  0.3697
   10SAPS   H2Y 1234   3.933   4.205   7.676  3.1942 -1.5236  0.9528
   10SAPS   C23 1235   3.756   3.732   7.689 -0.1177  0.2301 -0.0408
   10SAPS   H3R 1236   3.656   3.686   7.704  0.3143 -0.4783  0.8269
   10SAPS   H3S 1237   3.822   3.647   7.659  1.0358  1.5606 -1.4223
   10SAPS   C24 1238   3.752   3.821   7.562  0.5652 -0.1029 -0.7969
   10SAPS   H4R 1239   3.768   3.760   7.470  1.0179 -0.3680 -0.5476
   10SAPS   H4S 1240   3.843   3.882   7.581 -1.2469  2.8882 -1.0479
   10SAPS   C25 1241   3.633   3.911   7.551  0.0187  0.5578  0.5704
   10SAPS   H5R 1242   3.550   3.895   7.622 -1.5550  1.0660 -1.0828
   10SAPS   C26 1243   3.639   4.038   7.517 -0.5985  0.1302 -0.1344
   10SAPS   H6R 1244   3.550   4.102   7.523  0.0022  1.1578 -1.5142
   10SAPS   C27 1245   3.753   4.109   7.449  0.8147  0.0872 -0.1330
   10SAPS   H7R 1246   3.848   4.058   7.422  1.8712  2.6161 -1.5794
   10SAPS   H7S 1247   3.787   4.191   7.516  1.0157  1.5825 -1.9740
   10SAPS   C28 1248   3.718   4.182   7.321  0.5143  0.3400  0.1970
   10SAPS   H8R 1249   3.641   4.260   7.331  0.3614  0.1610  0.4204
   10SAPS   C29 1250   3.750   4.160   7.192 -0.2044 -0.0729  0.7478
   10SAPS   H9R 1251   3.715   4.231   7.117 -0.7927 -0.0310  1.0565
   10SAPS  C210 1252   3.844   4.061   7.128 -0.3442  0.0689 -0.1866
   10SAPS  H10R 1253   3.934   4.076   7.192  0.5436 -0.2532 -1.3299
   10SAPS  H10S 1254   3.862   4.091   7.023 -1.2389 -0.7054 -0.5790
   10SAPS  C211 1255   3.778   3.916   7.137  1.1259 -0.2159 -0.1860
   10SAPS  H11R 1256   3.767   3.876   7.239 -0.6494  0.4974 -0.0432
   10SAPS  C212 1257   3.733   3.843   7.039  0.2652  0.5627 -0.1726
   10SAPS  H12R 1258   3.694   3.745   7.071  2.7266 -0.7468 -0.9351
   10SAPS  C213 1259   3.723   3.864   6.892 -1.0698 -0.5764  0.3062
   10SAPS  H13R 1260   3.676   3.964   6.879  0.1066  0.1487  1.3225
   10SAPS  H13S 1261   3.651   3.791   6.851  0.7536 -2.4056  0.2257
   10SAPS  C214 1262   3.847   3.867   6.809 -0.2152  0.3420 -0.4474
   10SAPS  H14R 1263   3.933   3.834   6.870 -1.4630 -0.5745  0.9109
   10SAPS  C215 1264   3.851   3.920   6.678 -1.2057  0.4745 -0.2873
   10SAPS  H15R 1265   3.944   3.920   6.620 -1.1207  0.3883 -0.1531
   10SAPS  C216 1266   3.736   3.963   6.599 -0.1363 -0.3221 -0.0833
   10SAPS  H16R 1267   3.644   3.948   6.659 -0.4154  0.5345 -0.2851
   10SAPS  H16S 1268   3.732   3.892   6.514  1.9160 -0.8111  0.1716
   10SAPS  C217 1269   3.745   4.104   6.547 -0.2157 -0.2042 -0.0317
   10SAPS  H17R 1270   3.657   4.128   6.482 -1.5671 -0.8007  1.5011
   10SAPS  H17S 1271   3.835   4.119   6.483  0.7503  0.4153  1.4278
   10SAPS  C218 1272   3.720   4.215   6.660  0.1035  0.1239  0.2026
   10SAPS  H18R 1273   3.759   4.316   6.635 -0.4640  0.2541 -0.1600
   10SAPS  H18S 1274   3.749   4.181   6.762  0.0006 -0.5643  0.0065
   10SAPS  C219 1275   3.570   4.240   6.672  0.2619  0.1332  0.2295
   10SAPS  H19R 1276   3.537   4.137   6.697  0.6137 -0.0565 -0.0695
   10SAPS  H19S 1277   3.540   4.273   6.570  2.4525  0.1720 -0.4557
   10SAPS  C220 1278   3.540   4.338   6.780 -0.5045 -0.1329  0.1562
   10SAPS  H20R 1279   3.608   4.425   6.771 -0.4013  0.1636  3.0216
   10SAPS  H20S 1280   3.567   4.285   6.873 -2.4787 -1.0269  0.2800
   10SAPS  H20T 1281   3.436   4.376   6.789 -0.3262  0.3273  0.2920
   10SAPS   C33 1282   4.079   4.369   7.648  0.3511  0.0843 -0.7841
   10SAPS   H3X 1283   4.154   4.299   7.691 -0.8839 -1.6044 -1.2600
   10SAPS   H3Y 1284   4.100   4.472   7.683 -2.1107  0.7142 -0.9479
   10SAPS   C34 1285   4.087   4.355   7.497 -0.3770 -1.1703 -0.4007
   10SAPS   H4X 1286   4.103   4.249   7.467  2.3099 -0.8996 -0.1582
   10SAPS   H4Y 1287   4.183   4.396   7.458  0.6667 -1.8394  1.3616
   10SAPS   C35 1288   3.970   4.430   7.437 -0.1038  0.5972 -0.2564
   10SAPS   H5X 1289   3.968   4.525   7.495  1.8045  0.3341  0.2930
   10SAPS   H5Y 1290   3.877   4.369   7.438 -0.0151  0.2872 -2.9454
   10SAPS   C36 1291   3.993   4.452   7.287  0.2044  0.9540  0.9060
   10SAPS   H6X 1292   4.010   4.349   7.249  1.9191  0.6479  2.3679
   10SAPS   H6Y 1293   4.086   4.511   7.266  1.5924 -2.0564 -2.5292
   10SAPS   C37 1294   3.876   4.514   7.205  0.3068 -0.4104  0.1550
   10SAPS   H7X 1295   3.847   4.606   7.261  0.1579 -0.8281  0.7839
   10SAPS   H7Y 1296   3.792   4.441   7.202 -0.9938  0.9995  0.8154
   10SAPS   C38 1297   3.933   4.540   7.065 -0.2181 -0.7638 -0.5387
   10SAPS   H8X 1298   4.000   4.628   7.072  1.4750 -2.0200 -0.1369
   10SAPS   H8Y 1299   3.857   4.582   6.996  1.3255  0.1572 -1.7236
   10SAPS   C39 1300   3.991   4.420   6.994  0.5628  0.0921 -0.3022
   10SAPS   H9X 1301   3.917   4.338   6.996 -0.5600  1.0850  1.2767
   10SAPS   H9Y 1302   4.086   4.384   7.039  1.2669  0.1769 -1.6551
   10SAPS  C310 1303   4.030   4.450   6.853 -0.2582  0.3248 -0.0303
   10SAPS  H10X 1304   4.117   4.519   6.853  0.6498 -0.7814 -1.0657
   10SAPS  H10Y 1305   3.942   4.496   6.801  0.2940  2.1246  0.5527
   10SAPS  C311 1306   4.081   4.325   6.779  0.0080 -0.2283 -0.0069
   10SAPS  H11X 1307   4.003   4.247   6.786  0.0984 -0.2604  0.8143
   10SAPS  H11Y 1308   4.174   4.282   6.823  0.8929  0.9983 -0.5930
   10SAPS  C312 1309   4.093   4.343   6.623  0.3775  0.2172  0.1868
   10SAPS  H12X 1310   4.177   4.415   6.609 -0.8431  2.0928  1.9619
   10SAPS  H12Y 1311   3.994   4.381   6.592 -0.8118 -2.1718  0.8472
   10SAPS  C313 1312   4.146   4.222   6.553 -0.6341 -0.4579  0.0223
   10SAPS  H13X 1313   4.072   4.141   6.566 -1.9221  0.4492 -1.3584
   10SAPS  H13Y 1314   4.244   4.189   6.594  0.4984  3.2627  0.7324
   10SAPS  C314 1315   4.172   4.241   6.398 -0.2657  0.0959 -0.1687
   10SAPS  H14X 1316   4.251   4.172   6.362  1.8692  1.8560  0.8884
   10SAPS  H14Y 1317   4.208   4.341   6.364 -0.8079  0.3932  0.1140
   10SAPS  C315 1318   4.049   4.223   6.308  0.7116 -0.1370  0.2919
   10SAPS  H15X 1319   3.988   4.315   6.308 -0.2249 -0.7426 -0.2760
   10SAPS  H15Y 1320   4.002   4.126   6.333  2.1955 -0.6658  1.1844
   10SAPS  C316 1321   4.094   4.207   6.153  0.6804 -1.0016 -1.1819
   10SAPS  H16X 1322   4.130   4.103   6.138  0.0619 -0.9749 -3.1838
   10SAPS  H16Y 1323   4.169   4.286   6.132 -0.8094  1.4873  2.0077
   10SAPS  C317 1324   3.978   4.244   6.062  0.1839  0.2555  0.0852
   10SAPS  H17X 1325   3.961   4.354   6.062 -1.1609  0.0670  0.7280
   10SAPS  H17Y 1326   3.882   4.203   6.100 -0.1567  1.4820  0.5987
   10SAPS  C318 1327   3.987   4.195   5.920 -0.5102  0.1786  0.3749
   10SAPS  H18X 1328   4.074   4.242   5.869 -0.9756  1.7770  0.9595
   10SAPS  H18Y 1329   3.899   4.232   5.863  1.8412  2.3905 -2.0921
   10SAPS  H18Z 1330   4.003   4.086   5.914 -1.2395  0.0805  0.1108
   11SAPS     N 1331   3.591   2.975   3.684 -0.7317 -0.1142  0.1513
   11SAPS   HN1 1332   3.497   2.956   3.644 -0.4454 -1.6821  0.1318
   11SAPS   HN2 1333   3.615   2.904   3.756 -1.7175 -2.0713 -1.3479
   11SAPS   HN3 1334   3.591   3.071   3.723 -0.8343 -0.7816  1.9036
   11SAPS   C12 1335   3.681   2.976   3.573  0.2218 -0.0886 -0.4674
   11SAPS  H12A 1336   3.731   2.880   3.572  0.8709  0.2103  1.1445
   11SAPS   C13 1337   3.624   2.989   3.429  0.1058 -0.4600 -0.8339
   11SAPS  O13A 1338   3.501   3.006   3.409  0.3158 -0.5334  0.1565
   11SAPS  O13B 1339   3.707   2.996   3.334  0.4273  0.0786  0.1386
   11SAPS   C11 1340   3.803   3.084   3.596  0.0953 -0.2487 -0.6094
   11SAPS  H11A 1341   3.865   3.071   3.505  1.3385 -2.8496  0.4890
   11SAPS  H11B 1342   3.858   3.056   3.689 -1.0130  3.6358  1.4663
   11SAPS     P 1343   3.886   3.332   3.614 -0.1436 -0.1882  0.0601
   11SAPS   O13 1344   3.966   3.315   3.486 -0.6861  0.0096 -0.5939
   11SAPS   O14 1345   3.837   3.467   3.643 -0.4060  0.3878  0.4403
   11SAPS   O12 1346   3.769   3.225   3.606 -0.0478  0.6417  0.3749
   11SAPS   O11 1347   3.969   3.279   3.745 -0.3081 -0.5123 -0.1508
   11SAPS    C1 1348   3.890   3.263   3.864 -0.0818 -0.1240  0.1558
   11SAPS    HA 1349   3.831   3.356   3.884 -0.3029 -0.4968  1.3284
   11SAPS    HB 1350   3.813   3.184   3.847 -2.3800  1.9501  0.2530
   11SAPS    C2 1351   3.975   3.220   3.986 -0.3228 -0.0940 -0.8347
   11SAPS    HS 1352   3.910   3.236   4.075  0.8591  1.0561 -0.1383
   11SAPS   O21 1353   4.098   3.304   4.008 -0.0986  0.0624  0.3280
   11SAPS   C21 1354   4.095   3.433   3.972 -0.3791 -0.2574  0.0632
   11SAPS   O22 1355   3.995   3.505   3.959 -0.3948  0.0844  0.7784
   11SAPS   C22 1356   4.233   3.489   3.952 -0.8153 -0.4689  0.2420
   11SAPS   H2R 1357   4.296   3.423   4.016  0.0668  0.0213 -0.1118
   11SAPS   H2S 1358   4.251   3.466   3.845  0.2040 -0.1800  0.3435
   11SAPS    C3 1359   4.012   3.069   3.987  0.3290  0.5340  0.5892
   11SAPS    HX 1360   4.104   3.055   3.925  1.0888 -0.8085  1.9436
   11SAPS    HY 1361   3.934   3.013   3.930  1.0799  0.4334 -0.3657
   11SAPS   O31 1362   4.040   3.006   4.116 -0.3144 -0.7741 -0.2002
   11SAPS   C31 1363   3.932   3.002   4.197  0.4173  0.3384  0.3142
   11SAPS   O32 1364   3.816   3.028   4.171 -0.0971 -0.2655 -0.3415
   11SAPS   C32 1365   3.982   2.929   4.323  0.1101  0.1561  0.2355
   11SAPS   H2X 1366   4.046   3.005   4.371  1.5341 -0.3341 -0.8270
   11SAPS   H2Y 1367   4.043   2.840   4.298 -0.2367 -0.2406  0.7737
   11SAPS   C23 1368   4.237   3.638   3.993 -0.5410  0.6669  0.0812
   11SAPS   H3R 1369   4.154   3.697   3.950 -3.3868 -4.3173 -2.1101
   11SAPS   H3S 1370   4.333   3.680   3.955  0.4547  0.6467  2.3914
   11SAPS   C24 1371   4.249   3.660   4.143 -0.3735  0.6788  0.0286
   11SAPS   H4R 1372   4.296   3.759   4.160  0.4444  0.3761 -0.4007
   11SAPS   H4S 1373   4.333   3.593   4.173  1.8348  1.4075 -3.9399
   11SAPS   C25 1374   4.124   3.653   4.234 -0.1036  0.6743 -0.0116
   11SAPS   H5R 1375   4.058   3.741   4.233  0.3588  1.0295 -1.2906
   11SAPS   C26 1376   4.075   3.553   4.305  0.4485 -0.7036 -0.5109
   11SAPS   H6R 1377   3.987   3.571   4.369  0.3938  0.9214 -0.9859
   11SAPS   C27 1378   4.140   3.417   4.323  0.1594 -0.4982 -0.4820
   11SAPS   H7R 1379   4.218   3.407   4.402  0.2743  0.1380 -0.5109
   11SAPS   H7S 1380   4.199   3.379   4.236  1.3258 -0.0791  0.1079
   11SAPS   C28 1381   4.029   3.322   4.356 -0.1770  0.5788 -0.6155
   11SAPS   H8R 1382   3.966   3.296   4.270 -0.1104 -0.8585 -0.2582
   11SAPS   C29 1383   3.999   3.268   4.480 -0.5102  0.4948  0.2222
   11SAPS   H9R 1384   3.920   3.192   4.483  0.9687 -1.0528  2.1672
   11SAPS  C210 1385   4.061   3.297   4.611 -0.1172 -0.5380 -0.1126
   11SAPS  H10R 1386   3.984   3.301   4.691  0.4648  0.8476  0.4128
   11SAPS  H10S 1387   4.103   3.399   4.599 -0.4764 -0.6547 -3.2889
   11SAPS  C211 1388   4.171   3.200   4.643 -0.5533 -0.4824 -0.5914
   11SAPS  H11R 1389   4.219   3.150   4.558 -0.5823 -1.6899  0.0729
   11SAPS  C212 1390   4.211   3.168   4.769  0.1018  0.2056  0.1021
   11SAPS  H12R 1391   4.293   3.097   4.788  0.2651  0.4034  0.1455
   11SAPS  C213 1392   4.168   3.231   4.903 -1.0369  0.3689 -0.1297
   11SAPS  H13R 1393   4.081   3.297   4.885 -1.7136 -0.5116 -0.1383
   11SAPS  H13S 1394   4.248   3.301   4.936 -1.8593  1.4579 -0.3537
   11SAPS  C214 1395   4.126   3.126   5.009 -0.3003  0.3251 -0.3908
   11SAPS  H14R 1396   4.049   3.054   4.976  0.5891 -1.2789  0.8630
   11SAPS  C215 1397   4.180   3.091   5.129 -0.0888 -0.3822 -0.3318
   11SAPS  H15R 1398   4.142   3.004   5.184  2.2517 -1.9172 -0.9817
   11SAPS  C216 1399   4.302   3.153   5.197  0.2185  0.7210 -0.1286
   11SAPS  H16R 1400   4.290   3.188   5.302 -1.3060  0.5712 -0.2293
   11SAPS  H16S 1401   4.334   3.231   5.125 -0.4729 -0.7832 -2.1510
   11SAPS  C217 1402   4.431   3.068   5.214  0.8661 -0.4089  0.7489
   11SAPS  H17R 1403   4.409   2.960   5.232  3.1574 -0.7092  2.1423
   11SAPS  H17S 1404   4.499   3.099   5.296  1.7737 -0.3853  0.0040
   11SAPS  C218 1405   4.524   3.065   5.089 -0.4864  0.7595 -0.4208
   11SAPS  H18R 1406   4.578   3.160   5.071 -0.1839  1.1218  2.1232
   11SAPS  H18S 1407   4.453   3.044   5.006 -2.4489  2.8547  0.6292
   11SAPS  C219 1408   4.641   2.964   5.093  0.4588 -0.8038  0.6047
   11SAPS  H19R 1409   4.603   2.870   5.139  0.2117 -1.3394 -0.6299
   11SAPS  H19S 1410   4.722   3.009   5.154  1.6456  0.2638 -1.6264
   11SAPS  C220 1411   4.691   2.947   4.951 -0.1379 -0.8984 -0.1949
   11SAPS  H20R 1412   4.616   2.883   4.901 -1.5060 -0.3968  1.1469
   11SAPS  H20S 1413   4.790   2.897   4.958  0.5884  0.7072  1.9947
   11SAPS  H20T 1414   4.693   3.049   4.905  0.1415 -0.1934  1.3130
   11SAPS   C33 1415   3.876   2.883   4.426  0.1059 -0.1715 -0.1813
   11SAPS   H3X 1416   3.793   2.823   4.384  1.8102 -1.9311 -1.1857
   11SAPS   H3Y 1417   3.834   2.980   4.460  0.2757  0.2094 -1.0502
   11SAPS   C34 1418   3.945   2.823   4.546  0.4174  0.4769 -0.6958
   11SAPS   H4X 1419   4.012   2.894   4.598 -0.5847  1.2741 -0.4514
   11SAPS   H4Y 1420   4.006   2.735   4.515  1.7485  1.0479  0.2091
   11SAPS   C35 1421   3.848   2.764   4.649  0.0057 -0.5011 -0.2399
   11SAPS   H5X 1422   3.790   2.678   4.611  2.3827 -1.0699 -2.9400
   11SAPS   H5Y 1423   3.772   2.842   4.672 -2.1047 -2.6104  0.3314
   11SAPS   C36 1424   3.919   2.718   4.782  0.3633 -0.2413  0.3906
   11SAPS   H6X 1425   3.978   2.806   4.815 -0.0792  1.2495 -2.4624
   11SAPS   H6Y 1426   3.993   2.641   4.750  0.6115  0.8555 -1.9262
   11SAPS   C37 1427   3.820   2.652   4.880 -0.3150  0.3045 -0.0959
   11SAPS   H7X 1428   3.764   2.577   4.820  0.2904 -1.7631  1.7706
   11SAPS   H7Y 1429   3.761   2.732   4.930  1.3454  1.0427  0.7728
   11SAPS   C38 1430   3.899   2.577   4.988 -0.0057 -0.2241 -0.3567
   11SAPS   H8X 1431   3.971   2.635   5.048  0.7698 -0.6466 -0.8692
   11SAPS   H8Y 1432   3.956   2.505   4.926 -0.9033  0.1276 -1.6374
   11SAPS   C39 1433   3.799   2.504   5.085 -0.5821 -0.9763  0.1870
   11SAPS   H9X 1434   3.805   2.394   5.074  0.8192 -0.7376 -2.2095
   11SAPS   H9Y 1435   3.693   2.523   5.058  0.4653  1.8593 -2.5238
   11SAPS  C310 1436   3.821   2.551   5.229  0.8801 -0.3733  0.5046
   11SAPS  H10X 1437   3.820   2.661   5.241  1.1119 -0.1963 -0.9904
   11SAPS  H10Y 1438   3.919   2.520   5.271  0.9996  0.0696  0.5599
   11SAPS  C311 1439   3.706   2.502   5.316  0.2261  0.5678  0.5504
   11SAPS  H11X 1440   3.716   2.393   5.300 -0.5428  0.3029  1.7224
   11SAPS  H11Y 1441   3.611   2.531   5.265  1.7349  0.4370 -2.6046
   11SAPS  C312 1442   3.711   2.551   5.464  0.0740  0.1962  0.8348
   11SAPS  H12X 1443   3.691   2.660   5.463  0.1471  0.2113  0.9683
   11SAPS  H12Y 1444   3.814   2.526   5.496  0.3728 -1.1421 -1.0042
   11SAPS  C313 1445   3.611   2.470   5.558 -0.2788  0.6073 -1.2627
   11SAPS  H13X 1446   3.663   2.372   5.563 -0.8882  0.3224  0.1517
   11SAPS  H13Y 1447   3.511   2.462   5.508 -1.9281  0.3112  1.8227
   11SAPS  C314 1448   3.607   2.538   5.699 -0.3915 -0.4030  0.7610
   11SAPS  H14X 1449   3.590   2.647   5.692 -0.8042 -0.5043  0.0578
   11SAPS  H14Y 1450   3.712   2.518   5.728  0.1244 -0.7921 -1.1922
   11SAPS  C315 1451   3.512   2.480   5.798 -0.5443  0.4288  0.0349
   11SAPS  H15X 1452   3.535   2.517   5.900 -4.8778  1.1833  0.9600
   11SAPS  H15Y 1453   3.537   2.372   5.800  0.4803  0.6290 -0.9896
   11SAPS  C316 1454   3.363   2.521   5.767  0.2446  0.3005 -0.2563
   11SAPS  H16X 1455   3.338   2.505   5.660  1.9590 -2.7620 -0.3178
   11SAPS  H16Y 1456   3.347   2.629   5.789  0.2070  0.3526 -0.5427
   11SAPS  C317 1457   3.263   2.440   5.856 -0.6039  0.0667 -0.1788
   11SAPS  H17X 1458   3.289   2.467   5.960  0.5861  1.8306 -0.8827
   11SAPS  H17Y 1459   3.270   2.330   5.842  0.0926  0.1635 -0.6484
   11SAPS  C318 1460   3.118   2.467   5.817  0.1573  0.6731  0.1790
   11SAPS  H18X 1461   3.062   2.400   5.886  2.3149 -1.0984  0.3315
   11SAPS  H18Y 1462   3.103   2.428   5.714 -1.8650  2.8891 -0.4774
   11SAPS  H18Z 1463   3.093   2.575   5.822  1.0770  0.8411  2.3216
   12SAPS     N 1464   3.169   2.769   3.414  0.3627 -0.4126 -0.2663
   12SAPS   HN1 1465   3.079   2.814   3.439 -0.8477 -1.3532 -2.6302
   12SAPS   HN2 1466   3.232   2.840   3.371  1.1656 -0.5710  0.6085
   12SAPS   HN3 1467   3.142   2.693   3.348 -0.7131  0.6630 -1.1200
   12SAPS   C12 1468   3.234   2.718   3.536 -0.4432  1.1882 -0.1220
   12SAPS  H12A 1469   3.313   2.653   3.502 -0.6120  0.0631  1.5290
   12SAPS   C13 1470   3.295   2.821   3.639 -0.0238 -0.4069 -0.2210
   12SAPS  O13A 1471   3.279   2.941   3.614  0.4875 -0.0088 -0.0963
   12SAPS  O13B 1472   3.383   2.782   3.722  0.1348  0.7808 -0.0446
   12SAPS   C11 1473   3.142   2.629   3.620  0.0481  0.5318  0.1745
   12SAPS  H11A 1474   3.196   2.589   3.708  0.1774 -1.5602 -0.7854
   12SAPS  H11B 1475   3.117   2.535   3.566  1.5039  0.9675 -1.3478
   12SAPS     P 1476   2.888   2.636   3.714 -0.1957 -0.5093 -0.1939
   12SAPS   O13 1477   2.781   2.735   3.698  0.4791  0.2775 -0.3904
   12SAPS   O14 1478   2.863   2.498   3.664  0.2335  0.6368  0.1785
   12SAPS   O12 1479   3.017   2.698   3.651 -0.2720  1.3121  0.4282
   12SAPS   O11 1480   2.925   2.611   3.872 -0.4076  0.1664 -0.2253
   12SAPS    C1 1481   2.916   2.717   3.962  0.1007 -0.6345 -0.4273
   12SAPS    HA 1482   2.960   2.808   3.915 -0.7053 -0.6519 -1.2423
   12SAPS    HB 1483   2.808   2.739   3.977  0.5301 -0.1754  2.7780
   12SAPS    C2 1484   2.983   2.693   4.098 -0.5926  0.9036  0.1450
   12SAPS    HS 1485   3.088   2.723   4.082 -0.6862  1.7637  1.0625
   12SAPS   O21 1486   2.955   2.557   4.140  0.4078 -0.7475 -0.2436
   12SAPS   C21 1487   3.060   2.513   4.203  0.3407 -0.2459 -0.6597
   12SAPS   O22 1488   3.171   2.562   4.202 -0.0840  0.4119  0.1781
   12SAPS   C22 1489   3.019   2.396   4.289  0.3160  0.9027  0.3482
   12SAPS   H2R 1490   2.938   2.431   4.357  2.6554  0.3638  3.6641
   12SAPS   H2S 1491   2.974   2.316   4.227  1.2344  0.2737  0.4776
   12SAPS    C3 1492   2.935   2.795   4.196 -0.4299  0.3062 -0.3733
   12SAPS    HX 1493   2.825   2.777   4.205 -0.8281  3.0210  1.2956
   12SAPS    HY 1494   2.938   2.901   4.163 -2.2406 -0.0496 -1.8455
   12SAPS   O31 1495   2.992   2.768   4.324 -0.0871 -0.2965 -0.1442
   12SAPS   C31 1496   3.104   2.834   4.353 -0.2244  0.9815  0.4023
   12SAPS   O32 1497   3.172   2.903   4.273  0.8365  0.2363 -1.0044
   12SAPS   C32 1498   3.156   2.788   4.481 -0.1849  0.3305  0.2684
   12SAPS   H2X 1499   3.173   2.678   4.488  0.9693  0.2238 -2.7523
   12SAPS   H2Y 1500   3.082   2.819   4.558 -0.7909 -1.7620  0.5895
   12SAPS   C23 1501   3.123   2.335   4.379 -0.0226 -0.0449  0.2476
   12SAPS   H3R 1502   3.198   2.408   4.416 -2.8844  2.0704  2.3991
   12SAPS   H3S 1503   3.179   2.258   4.322  2.1433  0.8629  1.0366
   12SAPS   C24 1504   3.063   2.300   4.515 -0.2262 -0.2971 -0.4335
   12SAPS   H4R 1505   3.022   2.400   4.542 -0.2822 -0.6669  0.9627
   12SAPS   H4S 1506   3.153   2.276   4.576 -0.1413 -1.3450 -0.9687
   12SAPS   C25 1507   2.956   2.194   4.518  0.3696 -0.7850 -0.3824
   12SAPS   H5R 1508   2.907   2.199   4.419 -0.2814  0.1502 -0.0288
   12SAPS   C26 1509   2.942   2.103   4.607 -0.8460  1.0000  0.4244
   12SAPS   H6R 1510   2.864   2.026   4.602 -0.2469  0.3249  1.0911
   12SAPS   C27 1511   3.034   2.084   4.727  0.0970 -0.6296  0.0468
   12SAPS   H7R 1512   2.979   2.106   4.821 -1.9343 -0.0328 -1.2173
   12SAPS   H7S 1513   3.121   2.152   4.742  0.1865 -0.6055 -0.5766
   12SAPS   C28 1514   3.095   1.947   4.728 -1.0447  0.5246  0.6247
   12SAPS   H8R 1515   3.170   1.938   4.649 -2.5819  0.2503 -0.8779
   12SAPS   C29 1516   3.094   1.868   4.833 -0.0312  0.5027  0.4084
   12SAPS   H9R 1517   3.119   1.761   4.823 -1.7788 -0.0407  1.2614
   12SAPS  C210 1518   3.016   1.881   4.960 -1.1079 -0.1965  0.1399
   12SAPS  H10R 1519   2.996   1.775   4.986 -1.0622 -0.3923 -0.6120
   12SAPS  H10S 1520   2.917   1.930   4.948 -0.6907  0.9238  1.0513
   12SAPS  C211 1521   3.090   1.968   5.065 -0.3629 -0.0480 -0.0453
   12SAPS  H11R 1522   3.156   2.044   5.020 -1.5748  0.3373 -1.2255
   12SAPS  C212 1523   3.067   1.962   5.201 -0.1268 -0.8211  0.8059
   12SAPS  H12R 1524   3.117   2.035   5.265  0.3383 -0.9415  0.5840
   12SAPS  C213 1525   2.985   1.852   5.272 -0.6363 -0.0182  0.9486
   12SAPS  H13R 1526   2.961   1.776   5.195 -0.4551  2.2902 -1.5096
   12SAPS  H13S 1527   2.885   1.894   5.296 -0.9199  0.4833 -0.9982
   12SAPS  C214 1528   3.043   1.785   5.393 -0.6988 -0.3511 -0.2448
   12SAPS  H14R 1529   3.110   1.700   5.378  0.1000 -0.3014  2.4753
   12SAPS  C215 1530   3.055   1.850   5.512 -0.3478 -0.4863  0.3926
   12SAPS  H15R 1531   3.116   1.802   5.590  0.5652 -1.5721 -0.9558
   12SAPS  C216 1532   2.992   1.982   5.546  0.5880  0.5806  0.8276
   12SAPS  H16R 1533   2.900   1.993   5.484  0.2217  2.2788  1.6133
   12SAPS  H16S 1534   3.058   2.057   5.500 -0.4217  1.7391  1.2119
   12SAPS  C217 1535   2.956   2.017   5.689  0.2563 -0.6685  0.2719
   12SAPS  H17R 1536   2.859   1.965   5.696 -1.3733  2.1356 -0.0067
   12SAPS  H17S 1537   2.936   2.125   5.702 -0.4733 -0.6073 -1.1876
   12SAPS  C218 1538   3.059   1.983   5.793 -0.2302 -0.3979  0.8518
   12SAPS  H18R 1539   3.156   2.014   5.747 -0.7613 -0.2986 -0.2181
   12SAPS  H18S 1540   3.059   1.876   5.820  1.0760 -0.0988  2.2081
   12SAPS  C219 1541   3.055   2.063   5.933  0.4091  0.3756  0.6737
   12SAPS  H19R 1542   3.066   2.172   5.913 -1.4527  0.7728  1.5937
   12SAPS  H19S 1543   3.145   2.037   5.993 -0.5982 -2.1473  1.2219
   12SAPS  C220 1544   2.939   2.030   6.017  0.8214 -0.1390 -0.6571
   12SAPS  H20R 1545   2.840   2.040   5.967  0.5405 -0.4965 -0.1891
   12SAPS  H20S 1546   2.933   2.096   6.106 -1.5309 -3.9977  2.3861
   12SAPS  H20T 1547   2.945   1.924   6.050 -1.0759 -0.2712 -0.5986
   12SAPS   C33 1548   3.295   2.846   4.501  0.7805 -0.7573  0.1705
   12SAPS   H3X 1549   3.296   2.957   4.494  1.3334 -0.7252  0.6949
   12SAPS   H3Y 1550   3.369   2.812   4.425  0.3287  0.7219 -0.9830
   12SAPS   C34 1551   3.355   2.825   4.638  0.1541  0.6693 -0.0491
   12SAPS   H4X 1552   3.288   2.876   4.711 -0.8911  0.5625 -0.9158
   12SAPS   H4Y 1553   3.447   2.887   4.650  0.7536 -0.3261  0.5404
   12SAPS   C35 1554   3.391   2.685   4.674  0.0624  1.3248 -0.2605
   12SAPS   H5X 1555   3.467   2.645   4.604  0.7598  2.0698  0.0505
   12SAPS   H5Y 1556   3.308   2.612   4.681  0.5489  0.7260 -0.6741
   12SAPS   C36 1557   3.459   2.669   4.812 -0.4598 -0.9902  0.4682
   12SAPS   H6X 1558   3.547   2.737   4.816 -0.9626 -0.1896 -1.1796
   12SAPS   H6Y 1559   3.506   2.569   4.825  2.8685  0.3414 -0.1992
   12SAPS   C37 1560   3.368   2.709   4.930  0.0616 -0.3186 -0.3742
   12SAPS   H7X 1561   3.274   2.649   4.926  0.8986 -1.8317  1.3901
   12SAPS   H7Y 1562   3.332   2.815   4.928 -1.2206 -0.7354 -0.9500
   12SAPS   C38 1563   3.421   2.675   5.066 -0.5944  0.2216 -0.3615
   12SAPS   H8X 1564   3.531   2.688   5.059 -0.7547  0.7157 -3.9181
   12SAPS   H8Y 1565   3.394   2.569   5.085 -0.1342  0.1568 -0.0593
   12SAPS   C39 1566   3.367   2.762   5.181 -0.5905  0.0651 -0.3667
   12SAPS   H9X 1567   3.257   2.752   5.173 -0.7269  1.9580 -1.2330
   12SAPS   H9Y 1568   3.388   2.871   5.172  0.5820 -0.1776 -0.7483
   12SAPS  C310 1569   3.418   2.732   5.320 -0.3990  0.3607 -0.1788
   12SAPS  H10X 1570   3.523   2.764   5.336 -0.2685  1.9983 -3.4633
   12SAPS  H10Y 1571   3.415   2.623   5.339 -1.0029  0.5675  1.0624
   12SAPS  C311 1572   3.336   2.791   5.442 -0.1915  0.1948  0.2926
   12SAPS  H11X 1573   3.335   2.712   5.520 -0.3314 -1.0660 -0.9485
   12SAPS  H11Y 1574   3.233   2.808   5.404 -0.0221 -1.7081 -1.2065
   12SAPS  C312 1575   3.405   2.912   5.514 -0.2991  0.3287  0.0571
   12SAPS  H12X 1576   3.417   2.995   5.440 -2.5022  0.0906 -0.6436
   12SAPS  H12Y 1577   3.508   2.887   5.547 -0.1347 -0.9020 -1.2866
   12SAPS  C313 1578   3.340   2.966   5.636  0.6603  0.6179  0.3088
   12SAPS  H13X 1579   3.367   3.072   5.658 -0.6750  0.3976  3.5728
   12SAPS  H13Y 1580   3.366   2.911   5.729  0.9230 -2.1823 -1.3410
   12SAPS  C314 1581   3.190   2.965   5.629  0.8589 -0.0702 -0.4480
   12SAPS  H14X 1582   3.149   2.862   5.631  3.1111 -1.0329  0.8129
   12SAPS  H14Y 1583   3.155   3.003   5.531 -1.5926 -1.2695 -0.0914
   12SAPS  C315 1584   3.113   3.066   5.725 -1.1810  0.3667 -0.3010
   12SAPS  H15X 1585   3.003   3.058   5.717 -1.2467 -0.6698  1.2613
   12SAPS  H15Y 1586   3.149   3.162   5.684 -1.1842 -0.0272 -1.2633
   12SAPS  C316 1587   3.149   3.041   5.875 -0.0323 -0.2012  0.0388
   12SAPS  H16X 1588   3.105   3.135   5.916 -0.9181  0.1756 -1.6903
   12SAPS  H16Y 1589   3.256   3.036   5.904 -0.0224 -2.8213 -0.2109
   12SAPS  C317 1590   3.091   2.917   5.940 -0.1687  0.3186 -0.2336
   12SAPS  H17X 1591   3.163   2.832   5.933 -0.5053  0.0931 -1.1516
   12SAPS  H17Y 1592   3.004   2.902   5.873 -0.6846  0.6235  0.3546
   12SAPS  C318 1593   3.060   2.939   6.087 -0.2637  0.0554 -0.2981
   12SAPS  H18X 1594   2.988   3.020   6.109 -1.9885 -1.9128  1.8188
   12SAPS  H18Y 1595   3.158   2.965   6.131  0.8231 -1.0242 -1.9328
   12SAPS  H18Z 1596   3.015   2.843   6.121  0.7831 -0.3587 -0.0382
   13SAPS     N 1597   6.305   1.688   3.126 -0.2920 -0.1491 -0.2983
   13SAPS   HN1 1598   6.314   1.673   3.024 -2.8242  0.0449 -0.6200
   13SAPS   HN2 1599   6.268   1.784   3.145 -1.5961 -0.7979  0.6299
   13SAPS   HN3 1600   6.401   1.673   3.164 -0.0849 -2.2656 -1.5258
   13SAPS   C12 1601   6.210   1.589   3.181  0.2491 -0.4431  0.0674
   13SAPS  H12A 1602   6.117   1.622   3.138 -0.2312 -0.1659  1.2744
   13SAPS   C13 1603   6.234   1.433   3.153 -0.3291  0.3019 -0.2533
   13SAPS  O13A 1604   6.343   1.391   3.101 -0.1056  0.4531  0.1548
   13SAPS  O13B 1605   6.141   1.354   3.180  0.0469  0.0857  0.2344
   13SAPS   C11 1606   6.199   1.610   3.339  0.4222 -0.5443  0.3033
   13SAPS  H11A 1607   6.276   1.552   3.394  1.4977 -0.6352 -1.2237
   13SAPS  H11B 1608   6.107   1.554   3.365  0.4566 -1.7737 -1.9327
   13SAPS     P 1609   6.186   1.808   3.512  0.0288  0.0553  0.1777
   13SAPS   O13 1610   6.318   1.860   3.559  0.3241  0.6766  0.0126
   13SAPS   O14 1611   6.071   1.899   3.528  0.0584 -0.3096 -0.5454
   13SAPS   O12 1612   6.188   1.755   3.363 -0.1354 -0.0520  0.0622
   13SAPS   O11 1613   6.155   1.679   3.587 -0.1185 -0.4494 -0.1343
   13SAPS    C1 1614   6.035   1.652   3.655  0.5862 -0.5116 -0.4789
   13SAPS    HA 1615   5.996   1.725   3.729  0.3921 -0.6782 -0.4164
   13SAPS    HB 1616   5.953   1.633   3.582 -1.2284  0.0190  1.3280
   13SAPS    C2 1617   6.055   1.522   3.734 -0.9685  0.3813 -0.7877
   13SAPS    HS 1618   5.951   1.487   3.753 -0.4758  0.1804  2.0306
   13SAPS   O21 1619   6.131   1.538   3.860 -0.6004 -0.1951 -0.1970
   13SAPS   C21 1620   6.055   1.575   3.965  0.1380  0.1586 -0.3283
   13SAPS   O22 1621   5.931   1.577   3.971 -0.6433 -0.4407 -0.2112
   13SAPS   C22 1622   6.150   1.621   4.081  0.6767 -0.1020  0.1672
   13SAPS   H2R 1623   6.207   1.535   4.122  2.0610  0.7562  0.0690
   13SAPS   H2S 1624   6.225   1.689   4.037  0.1459  0.0934 -0.4564
   13SAPS    C3 1625   6.132   1.413   3.652  0.5503 -0.0583 -0.0949
   13SAPS    HX 1626   6.224   1.456   3.608  0.4557 -0.2129 -0.4463
   13SAPS    HY 1627   6.071   1.389   3.563  0.9015 -0.1261 -0.3197
   13SAPS   O31 1628   6.162   1.287   3.720  0.0795 -0.0722  0.0535
   13SAPS   C31 1629   6.285   1.285   3.767 -0.2191  0.4483  0.1313
   13SAPS   O32 1630   6.359   1.381   3.779  0.0576  0.0225 -0.7599
   13SAPS   C32 1631   6.326   1.139   3.797 -0.3119 -0.7374 -0.0433
   13SAPS   H2X 1632   6.403   1.116   3.720 -1.0793  0.6770 -1.2735
   13SAPS   H2Y 1633   6.240   1.072   3.774 -0.3441 -2.1800  3.5371
   13SAPS   C23 1634   6.054   1.690   4.187 -0.1788 -0.3635 -0.2219
   13SAPS   H3R 1635   6.001   1.600   4.226  0.6611 -1.2908 -1.1591
   13SAPS   H3S 1636   5.982   1.756   4.136  1.6742  1.7357 -0.2754
   13SAPS   C24 1637   6.129   1.764   4.296 -0.0870 -0.2926 -0.2801
   13SAPS   H4R 1638   6.187   1.689   4.354  0.1023 -0.8336 -1.1404
   13SAPS   H4S 1639   6.050   1.807   4.360 -0.2828  0.5457 -1.0626
   13SAPS   C25 1640   6.225   1.872   4.246  0.1752 -0.1574 -0.4807
   13SAPS   H5R 1641   6.175   1.939   4.174 -0.4997 -0.9517 -0.7744
   13SAPS   C26 1642   6.351   1.896   4.280  0.5261 -0.2487  0.6719
   13SAPS   H6R 1643   6.410   1.972   4.227  1.3380 -1.5575 -0.3638
   13SAPS   C27 1644   6.425   1.811   4.373 -0.2641  0.4952 -0.8039
   13SAPS   H7R 1645   6.479   1.730   4.319  0.0884 -0.7109  1.2447
   13SAPS   H7S 1646   6.357   1.756   4.441 -2.0831  2.0672 -1.2579
   13SAPS   C28 1647   6.514   1.892   4.461  0.2576  0.0409  0.2170
   13SAPS   H8R 1648   6.571   1.969   4.406  0.7820  2.4218  3.7703
   13SAPS   C29 1649   6.549   1.884   4.590  0.0581 -0.0175 -0.0725
   13SAPS   H9R 1650   6.626   1.954   4.623  0.7417 -0.7953  0.0129
   13SAPS  C210 1651   6.500   1.786   4.693  0.4848 -0.4394  0.1791
   13SAPS  H10R 1652   6.589   1.735   4.735  1.5111 -0.3419 -1.7623
   13SAPS  H10S 1653   6.449   1.701   4.644 -0.6066  0.2230  0.1123
   13SAPS  C211 1654   6.396   1.857   4.777  0.2854  0.6929 -0.3413
   13SAPS  H11R 1655   6.332   1.927   4.720  0.1027 -0.4086 -1.5179
   13SAPS  C212 1656   6.395   1.851   4.908  0.0572  0.2274 -0.0262
   13SAPS  H12R 1657   6.304   1.891   4.955  0.6238  3.0319 -1.1286
   13SAPS  C213 1658   6.494   1.794   5.002 -0.4173 -0.5716 -0.1624
   13SAPS  H13R 1659   6.526   1.886   5.055 -2.2805  1.6504 -2.6579
   13SAPS  H13S 1660   6.588   1.758   4.954  0.7581  0.8847  0.9389
   13SAPS  C214 1661   6.432   1.681   5.080 -0.3444 -0.0481 -0.0064
   13SAPS  H14R 1662   6.476   1.582   5.061 -0.5505 -0.1522  0.0512
   13SAPS  C215 1663   6.348   1.682   5.184  0.5206  0.0442 -0.4780
   13SAPS  H15R 1664   6.310   1.588   5.227 -3.7271  1.2157 -1.2221
   13SAPS  C216 1665   6.284   1.812   5.237 -0.0838  0.8366 -0.2572
   13SAPS  H16R 1666   6.176   1.804   5.262  0.2817  0.4349  1.2822
   13SAPS  H16S 1667   6.288   1.898   5.167 -0.8916  2.0773  1.1616
   13SAPS  C217 1668   6.353   1.870   5.357  0.4752  0.1765 -0.2008
   13SAPS  H17R 1669   6.296   1.962   5.381  0.4750 -0.3028  1.7310
   13SAPS  H17S 1670   6.457   1.902   5.335  1.1090 -0.2935  1.9265
   13SAPS  C218 1671   6.349   1.798   5.492 -0.3519  0.5374  0.2272
   13SAPS  H18R 1672   6.379   1.866   5.575 -1.4964  1.7369 -0.3144
   13SAPS  H18S 1673   6.415   1.709   5.489  0.8923  1.3428  2.1395
   13SAPS  C219 1674   6.207   1.752   5.529 -0.5470 -0.0473 -0.1469
   13SAPS  H19R 1675   6.227   1.685   5.615 -0.6712  0.5900  0.3900
   13SAPS  H19S 1676   6.160   1.689   5.451 -3.3468 -2.4685  3.1902
   13SAPS  C220 1677   6.122   1.863   5.582  0.3604 -0.3041 -0.5098
   13SAPS  H20R 1678   6.034   1.816   5.631  1.0689  1.6510  2.9574
   13SAPS  H20S 1679   6.084   1.941   5.512 -0.4262  0.0071  0.2544
   13SAPS  H20T 1680   6.176   1.921   5.660 -0.5807 -2.0391  1.4992
   13SAPS   C33 1681   6.363   1.113   3.942 -0.5550 -0.0245 -0.3635
   13SAPS   H3X 1682   6.271   1.121   4.003  0.0779  2.3736  0.3683
   13SAPS   H3Y 1683   6.439   1.186   3.976  0.8536 -1.3164 -0.6089
   13SAPS   C34 1684   6.425   0.976   3.958 -0.1317 -0.6206  0.0783
   13SAPS   H4X 1685   6.521   0.981   3.903 -0.8152 -0.9322 -1.1816
   13SAPS   H4Y 1686   6.383   0.886   3.910  3.3133 -1.3358 -1.9317
   13SAPS   C35 1687   6.449   0.945   4.106 -0.4807  0.0469 -0.4979
   13SAPS   H5X 1688   6.495   1.024   4.170  0.1156 -2.1301  1.9403
   13SAPS   H5Y 1689   6.522   0.863   4.098  0.9698  1.3549 -1.1856
   13SAPS   C36 1690   6.319   0.897   4.180  0.0162 -0.1747 -0.2948
   13SAPS   H6X 1691   6.269   0.808   4.137 -0.9689 -1.5410  3.2622
   13SAPS   H6Y 1692   6.240   0.975   4.180 -0.4280 -0.5849  1.1996
   13SAPS   C37 1693   6.348   0.884   4.332  0.1110 -0.4641  0.2843
   13SAPS   H7X 1694   6.382   0.978   4.381  1.1672 -0.5648 -0.2114
   13SAPS   H7Y 1695   6.425   0.805   4.348  2.9392  2.5484  3.1091
   13SAPS   C38 1696   6.228   0.836   4.410 -0.3165  0.3519 -0.2330
   13SAPS   H8X 1697   6.190   0.753   4.347 -2.7440  1.1658  0.0704
   13SAPS   H8Y 1698   6.136   0.896   4.427 -2.3755 -2.1305 -1.8328
   13SAPS   C39 1699   6.267   0.769   4.543 -0.0854 -0.0592  0.2905
   13SAPS   H9X 1700   6.342   0.692   4.514  1.2080  1.1810  0.2099
   13SAPS   H9Y 1701   6.183   0.712   4.587  0.7817 -1.3492  0.3360
   13SAPS  C310 1702   6.337   0.865   4.652  0.5554 -0.1793 -0.2626
   13SAPS  H10X 1703   6.280   0.960   4.659  0.6251 -0.2589  1.8550
   13SAPS  H10Y 1704   6.441   0.887   4.617  1.2661 -0.6139  1.4802
   13SAPS  C311 1705   6.364   0.799   4.790 -0.4924 -0.3732  0.2785
   13SAPS  H11X 1706   6.419   0.705   4.770 -0.9035 -0.0275 -3.0526
   13SAPS  H11Y 1707   6.265   0.769   4.830 -0.1665  1.2442  2.5261
   13SAPS  C312 1708   6.438   0.881   4.893 -0.8163 -0.3150 -0.3403
   13SAPS  H12X 1709   6.370   0.963   4.924  0.1827  1.7394 -3.1571
   13SAPS  H12Y 1710   6.532   0.914   4.842 -0.0636 -1.6999  0.0850
   13SAPS  C313 1711   6.473   0.802   5.014 -0.1389  0.0097 -0.3198
   13SAPS  H13X 1712   6.520   0.710   4.973  0.7553  0.0040  0.6585
   13SAPS  H13Y 1713   6.386   0.767   5.074  0.1249  0.8054  0.5518
   13SAPS  C314 1714   6.574   0.873   5.107  0.1272  0.1151 -0.8575
   13SAPS  H14X 1715   6.520   0.969   5.124 -1.4265 -0.7101 -0.9002
   13SAPS  H14Y 1716   6.667   0.908   5.057  0.5858 -1.0973 -0.8817
   13SAPS  C315 1717   6.607   0.819   5.252 -0.1167  0.1670 -0.0709
   13SAPS  H15X 1718   6.666   0.897   5.305 -0.0236 -0.6566  1.0772
   13SAPS  H15Y 1719   6.663   0.723   5.248 -2.9561 -1.5447 -1.9690
   13SAPS  C316 1720   6.480   0.793   5.336 -0.8885 -0.0538 -0.8751
   13SAPS  H16X 1721   6.405   0.727   5.287 -0.2491  0.2315 -2.2909
   13SAPS  H16Y 1722   6.423   0.889   5.337 -0.5362  0.1538 -0.7957
   13SAPS  C317 1723   6.516   0.757   5.483  0.7318  0.1435  0.3302
   13SAPS  H17X 1724   6.426   0.770   5.547  0.3878  0.3928 -0.2067
   13SAPS  H17Y 1725   6.583   0.837   5.519 -0.4659  2.4934 -2.2836
   13SAPS  C318 1726   6.575   0.619   5.498  0.1348 -1.0243 -0.5485
   13SAPS  H18X 1727   6.516   0.546   5.439 -0.2619 -0.1335 -1.2778
   13SAPS  H18Y 1728   6.575   0.599   5.608  0.9977 -0.9802 -0.5337
   13SAPS  H18Z 1729   6.680   0.621   5.461 -0.3356 -1.1384 -1.9530
   14SAPS     N 1730   0.160   6.688   3.666  0.3612  0.1162  0.0222
   14SAPS   HN1 1731   0.143   6.651   3.762 -0.2782 -1.3322 -0.6210
   14SAPS   HN2 1732   0.151   6.792   3.661  1.0733  0.1468 -0.8530
   14SAPS   HN3 1733   0.089   6.661   3.594 -1.4314  1.7396  1.0668
   14SAPS   C12 1734   0.298   6.645   3.616 -0.4584 -0.2801 -0.3288
   14SAPS  H12A 1735   0.299   6.539   3.594  0.8332 -1.0217  2.7197
   14SAPS   C13 1736   0.353   6.721   3.483  0.2679 -0.0026 -1.2184
   14SAPS  O13A 1737   0.271   6.781   3.415  0.0573 -0.0525 -0.1080
   14SAPS  O13B 1738   0.463   6.682   3.449 -0.3946  0.2000  0.1082
   14SAPS   C11 1739   0.392   6.687   3.730  0.3876  0.2341 -0.1855
   14SAPS  H11A 1740   0.401   6.796   3.746 -0.6453  0.3090 -0.0958
   14SAPS  H11B 1741   0.498   6.664   3.704  0.9032 -1.3618  2.8932
   14SAPS     P 1742   0.438   6.494   3.903 -0.1530 -0.0088 -0.0239
   14SAPS   O13 1743   0.441   6.402   3.786 -0.0613  0.1485 -0.2500
   14SAPS   O14 1744   0.575   6.518   3.961  0.1280 -0.3631 -0.2039
   14SAPS   O12 1745   0.368   6.627   3.861 -0.0681 -0.0807 -0.7657
   14SAPS   O11 1746   0.338   6.440   4.006  0.0250  0.2820 -0.1665
   14SAPS    C1 1747   0.352   6.489   4.141  0.5606 -0.2653 -0.6526
   14SAPS    HA 1748   0.379   6.596   4.147  0.3249 -0.1485 -1.5570
   14SAPS    HB 1749   0.254   6.473   4.193  1.7205 -2.9212  0.9367
   14SAPS    C2 1750   0.445   6.408   4.228 -0.3736 -0.2198 -0.1048
   14SAPS    HS 1751   0.542   6.434   4.181 -0.0782 -2.1360 -0.6667
   14SAPS   O21 1752   0.422   6.267   4.210 -0.0425  0.0278  0.0563
   14SAPS   C21 1753   0.526   6.188   4.211 -0.7267  0.2477 -0.0091
   14SAPS   O22 1754   0.640   6.223   4.238 -0.5137 -0.3050  0.4124
   14SAPS   C22 1755   0.488   6.043   4.164  0.4888 -0.0231 -0.1332
   14SAPS   H2R 1756   0.397   6.019   4.224  1.0355 -1.9524 -0.0108
   14SAPS   H2S 1757   0.460   6.052   4.057  1.5043  2.9708 -0.2469
   14SAPS    C3 1758   0.455   6.443   4.376  0.1155 -0.1493  0.0860
   14SAPS    HX 1759   0.542   6.389   4.419  0.8497  1.3608  0.5610
   14SAPS    HY 1760   0.365   6.400   4.425 -0.6247 -0.8293 -1.7598
   14SAPS   O31 1761   0.474   6.583   4.395 -0.7042  0.7234  0.4214
   14SAPS   C31 1762   0.591   6.635   4.382 -0.4259 -0.1828 -0.0968
   14SAPS   O32 1763   0.695   6.580   4.342  0.1795 -0.0796  0.4088
   14SAPS   C32 1764   0.583   6.786   4.434 -0.7764 -0.4094  0.2591
   14SAPS   H2X 1765   0.498   6.802   4.504 -1.6188 -2.0131 -0.3517
   14SAPS   H2Y 1766   0.578   6.852   4.344  0.7692 -0.8698 -0.1847
   14SAPS   C23 1767   0.592   5.930   4.185 -0.2735 -0.2826 -0.0395
   14SAPS   H3R 1768   0.634   5.947   4.286 -2.6834 -1.5172  1.2399
   14SAPS   H3S 1769   0.673   5.948   4.111 -0.2481  0.1265  0.0846
   14SAPS   C24 1770   0.544   5.788   4.168 -0.0874 -0.1059 -0.0348
   14SAPS   H4R 1771   0.505   5.774   4.065  0.9876  3.2012 -1.0089
   14SAPS   H4S 1772   0.451   5.781   4.228 -0.3458  0.7071 -0.3288
   14SAPS   C25 1773   0.654   5.685   4.186 -0.1886  0.5067  0.3845
   14SAPS   H5R 1774   0.726   5.680   4.103 -0.3229 -3.2986  0.3382
   14SAPS   C26 1775   0.677   5.615   4.298  0.4262  0.9573  0.0813
   14SAPS   H6R 1776   0.763   5.546   4.295  0.3953  0.8881  0.6990
   14SAPS   C27 1777   0.586   5.622   4.422 -0.1806 -0.3523  0.3411
   14SAPS   H7R 1778   0.481   5.596   4.397 -0.3725  0.5377  0.1676
   14SAPS   H7S 1779   0.582   5.731   4.445 -1.6961 -0.6387  1.6045
   14SAPS   C28 1780   0.622   5.535   4.539  0.1704  0.2313 -0.9898
   14SAPS   H8R 1781   0.623   5.426   4.520  0.3257 -0.0747  0.6118
   14SAPS   C29 1782   0.666   5.572   4.663 -0.3484 -0.1117 -0.3901
   14SAPS   H9R 1783   0.707   5.495   4.729 -0.4215 -1.0003 -1.3507
   14SAPS  C210 1784   0.658   5.712   4.714 -0.6164  0.1987  0.2585
   14SAPS  H10R 1785   0.577   5.770   4.666  0.5012  0.0071 -1.9913
   14SAPS  H10S 1786   0.747   5.764   4.673 -1.4376  0.8713 -0.7256
   14SAPS  C211 1787   0.669   5.723   4.865  0.3827  0.5770  0.0232
   14SAPS  H11R 1788   0.757   5.697   4.926 -0.0254 -0.6643  0.1137
   14SAPS  C212 1789   0.559   5.760   4.936  0.0957  0.1465  0.5500
   14SAPS  H12R 1790   0.565   5.760   5.046  0.8164 -0.3935  0.5133
   14SAPS  C213 1791   0.418   5.775   4.878  0.0330 -0.1317 -0.2662
   14SAPS  H13R 1792   0.404   5.745   4.772  0.2705  0.2210 -0.3965
   14SAPS  H13S 1793   0.396   5.884   4.872  0.4027 -0.0691 -0.5178
   14SAPS  C214 1794   0.313   5.722   4.972 -0.9242  0.0745 -0.4339
   14SAPS  H14R 1795   0.339   5.621   5.007  3.5674  1.2861  0.3479
   14SAPS  C215 1796   0.216   5.792   5.027  0.4508 -0.6639 -0.2181
   14SAPS  H15R 1797   0.154   5.751   5.108 -0.5963  0.6081 -0.3375
   14SAPS  C216 1798   0.184   5.938   4.999  0.3050  0.0942  0.0732
   14SAPS  H16R 1799   0.122   5.940   4.907 -1.6814  0.3854  1.3559
   14SAPS  H16S 1800   0.273   6.003   4.984  0.1671  0.5023  0.9428
   14SAPS  C217 1801   0.101   5.995   5.112 -0.0495 -0.9813 -0.2150
   14SAPS  H17R 1802   0.159   6.008   5.206 -0.1641 -0.4154 -0.2210
   14SAPS  H17S 1803   0.016   5.927   5.133 -1.3355  1.2098  2.3218
   14SAPS  C218 1804   0.053   6.133   5.080  0.0947 -0.5691 -0.9692
   14SAPS  H18R 1805   0.137   6.194   5.041 -0.4126  0.3533 -0.6649
   14SAPS  H18S 1806   0.030   6.171   5.182 -0.4217 -2.5965 -0.2743
   14SAPS  C219 1807  -0.079   6.136   5.001 -0.1170 -0.1377 -0.7967
   14SAPS  H19R 1808  -0.167   6.091   5.052  0.7221 -1.9489 -0.8702
   14SAPS  H19S 1809  -0.075   6.075   4.908  0.4621 -1.3036 -0.0341
   14SAPS  C220 1810  -0.123   6.271   4.964 -0.9545  0.6511 -1.0696
   14SAPS  H20R 1811  -0.227   6.265   4.926 -0.3849 -2.1976 -2.4197
   14SAPS  H20S 1812  -0.065   6.293   4.871  0.2294 -1.6151 -0.9268
   14SAPS  H20T 1813  -0.134   6.352   5.039 -0.2647  3.0570 -3.3809
   14SAPS   C33 1814   0.703   6.838   4.508 -0.3586  0.2498  0.0230
   14SAPS   H3X 1815   0.694   6.943   4.544  2.9258  0.1245  1.5466
   14SAPS   H3Y 1816   0.787   6.851   4.436  0.0087  1.6573  0.6763
   14SAPS   C34 1817   0.749   6.748   4.621  0.4345 -0.5232  0.0681
   14SAPS   H4X 1818   0.836   6.801   4.666 -0.2213  0.5767  0.0672
   14SAPS   H4Y 1819   0.782   6.650   4.580  2.4158  0.5415 -1.0361
   14SAPS   C35 1820   0.652   6.725   4.729  0.2820 -0.4784  0.9786
   14SAPS   H5X 1821   0.566   6.659   4.704  0.6486 -1.1370  1.4083
   14SAPS   H5Y 1822   0.606   6.821   4.760  0.5609 -0.7717  2.3934
   14SAPS   C36 1823   0.726   6.669   4.858  0.2951  0.0362 -0.4121
   14SAPS   H6X 1824   0.823   6.711   4.892  1.4093 -0.0148 -3.2804
   14SAPS   H6Y 1825   0.744   6.566   4.822 -2.2257 -0.7423  0.3301
   14SAPS   C37 1826   0.622   6.664   4.974 -0.7558  0.4994  0.3590
   14SAPS   H7X 1827   0.528   6.609   4.952 -0.6493  0.4690 -0.0284
   14SAPS   H7Y 1828   0.604   6.773   4.986 -1.2210  0.2880  1.7700
   14SAPS   C38 1829   0.681   6.603   5.100 -0.1223  0.7006 -0.9540
   14SAPS   H8X 1830   0.772   6.657   5.136 -0.2161  0.0378  0.3343
   14SAPS   H8Y 1831   0.714   6.499   5.076 -0.3710  0.5288 -0.5564
   14SAPS   C39 1832   0.594   6.593   5.227  0.5147  0.1245 -0.2672
   14SAPS   H9X 1833   0.512   6.521   5.206  1.2067 -0.6206 -0.4197
   14SAPS   H9Y 1834   0.551   6.694   5.245 -0.9172 -0.4445 -0.3138
   14SAPS  C310 1835   0.669   6.541   5.354  0.1018 -0.3277 -0.0135
   14SAPS  H10X 1836   0.744   6.604   5.406  0.2401 -1.9978  1.9768
   14SAPS  H10Y 1837   0.721   6.450   5.315  3.8524  2.0103 -0.9482
   14SAPS  C311 1838   0.573   6.503   5.463 -0.7043  0.7196  0.7150
   14SAPS  H11X 1839   0.512   6.416   5.431 -0.3918  0.9495 -0.5417
   14SAPS  H11Y 1840   0.501   6.587   5.478 -1.7417  0.2725 -1.3384
   14SAPS  C312 1841   0.656   6.467   5.589  0.3246  0.6402  0.7406
   14SAPS  H12X 1842   0.698   6.562   5.627  1.7161  2.1528 -3.8453
   14SAPS  H12Y 1843   0.738   6.396   5.565  0.7357  1.7474 -1.4643
   14SAPS  C313 1844   0.577   6.412   5.707  0.1305  0.6379  0.5896
   14SAPS  H13X 1845   0.524   6.315   5.695 -0.4502  0.8291  1.4959
   14SAPS  H13Y 1846   0.500   6.490   5.723 -1.3581 -0.5664 -0.4692
   14SAPS  C314 1847   0.660   6.401   5.833 -0.6805 -0.1794 -0.8493
   14SAPS  H14X 1848   0.725   6.490   5.849 -2.9463  1.3996  0.0932
   14SAPS  H14Y 1849   0.715   6.304   5.833 -1.3344 -0.6230  1.6755
   14SAPS  C315 1850   0.578   6.388   5.957  0.4123 -0.3663 -0.4203
   14SAPS  H15X 1851   0.510   6.300   5.964 -0.9894  0.6552 -0.7024
   14SAPS  H15Y 1852   0.505   6.471   5.958 -1.2087 -1.7305 -0.8830
   14SAPS  C316 1853   0.671   6.401   6.080  0.4098 -0.1322  0.6143
   14SAPS  H16X 1854   0.716   6.503   6.078  2.4223 -0.9673 -0.8781
   14SAPS  H16Y 1855   0.750   6.323   6.074 -0.0260 -0.5397  0.0372
   14SAPS  C317 1856   0.587   6.390   6.209 -0.5545  0.2426  0.5032
   14SAPS  H17X 1857   0.509   6.312   6.207 -1.8401  1.4468  1.7701
   14SAPS  H17Y 1858   0.530   6.484   6.221  0.5274  0.7181  2.2550
   14SAPS  C318 1859   0.665   6.378   6.339  0.1105 -0.0671  0.2201
   14SAPS  H18X 1860   0.716   6.279   6.333 -0.2104 -0.2003 -0.4379
   14SAPS  H18Y 1861   0.603   6.391   6.430 -0.7002  0.2544 -0.3707
   14SAPS  H18Z 1862   0.747   6.452   6.354  0.1921 -0.1231  0.0602
   15SAPS     N 1863   3.840   4.069   3.421  0.1698 -0.2779 -0.7014
   15SAPS   HN1 1864   3.787   4.003   3.481 -0.6835  1.8580  1.0660
   15SAPS   HN2 1865   3.819   4.047   3.322 -0.3578  0.5438 -0.7865
   15SAPS   HN3 1866   3.943   4.069   3.427  0.0894 -0.7755  2.7538
   15SAPS   C12 1867   3.786   4.203   3.435 -0.1608  0.4596 -0.0582
   15SAPS  H12A 1868   3.855   4.257   3.372  0.7258 -2.0230 -1.3582
   15SAPS   C13 1869   3.636   4.216   3.374  0.3973 -0.0658  0.5642
   15SAPS  O13A 1870   3.597   4.120   3.300  0.0579 -0.1658 -0.3933
   15SAPS  O13B 1871   3.566   4.309   3.418  0.1518 -0.1797 -0.0368
   15SAPS   C11 1872   3.798   4.261   3.576 -0.2563 -0.4613 -0.1009
   15SAPS  H11A 1873   3.724   4.199   3.632 -1.9066  1.0411 -0.5410
   15SAPS  H11B 1874   3.759   4.365   3.577 -0.2919 -0.4744  0.8744
   15SAPS     P 1875   3.985   4.357   3.736 -0.0020  0.4418 -0.0378
   15SAPS   O13 1876   4.126   4.329   3.782  0.0334  0.0407  0.0268
   15SAPS   O14 1877   3.962   4.495   3.685  0.4125 -0.1156  0.6503
   15SAPS   O12 1878   3.942   4.253   3.624  0.3800 -0.3166 -0.4678
   15SAPS   O11 1879   3.885   4.325   3.859 -0.0273  0.4861  0.1158
   15SAPS    C1 1880   3.896   4.202   3.920 -0.3381  0.3346  0.4650
   15SAPS    HA 1881   3.832   4.137   3.857 -1.2057  0.4742  1.1807
   15SAPS    HB 1882   3.999   4.159   3.917 -1.0327 -1.3763  0.4933
   15SAPS    C2 1883   3.841   4.212   4.064  0.2116 -0.2485 -0.2697
   15SAPS    HS 1884   3.739   4.255   4.063 -0.6158 -1.9250  2.3264
   15SAPS   O21 1885   3.937   4.285   4.134 -0.4831 -0.4335 -0.7331
   15SAPS   C21 1886   3.909   4.417   4.160 -0.7921  0.8036  0.1138
   15SAPS   O22 1887   3.810   4.472   4.118  0.1035  0.3476 -0.3003
   15SAPS   C22 1888   4.031   4.477   4.227  0.2699 -0.1942  0.3454
   15SAPS   H2R 1889   4.093   4.401   4.280  2.1681  1.5947  0.8197
   15SAPS   H2S 1890   4.088   4.525   4.145  0.5345  0.2608  0.7901
   15SAPS    C3 1891   3.828   4.078   4.140  0.0192  0.5315  0.4881
   15SAPS    HX 1892   3.926   4.028   4.153 -0.4424 -0.1071  1.6806
   15SAPS    HY 1893   3.747   4.016   4.098 -2.4180  0.6669  4.4101
   15SAPS   O31 1894   3.789   4.100   4.275  0.3410  0.1887 -0.3864
   15SAPS   C31 1895   3.837   4.021   4.368  0.6793 -0.7875  0.1813
   15SAPS   O32 1896   3.911   3.926   4.347  0.7038 -0.5829  0.5646
   15SAPS   C32 1897   3.795   4.075   4.508 -0.4127 -0.0455  0.0730
   15SAPS   H2X 1898   3.688   4.100   4.521 -0.7143 -1.2381 -0.0363
   15SAPS   H2Y 1899   3.848   4.173   4.516 -0.2255 -0.0328 -1.1044
   15SAPS   C23 1900   3.988   4.590   4.329  0.1409  0.2568 -0.5313
   15SAPS   H3R 1901   3.905   4.646   4.281 -1.8963 -0.2289  2.1912
   15SAPS   H3S 1902   4.077   4.652   4.348 -0.1074  0.7264 -0.8827
   15SAPS   C24 1903   3.939   4.513   4.458 -0.0050 -0.4101  0.1178
   15SAPS   H4R 1904   4.022   4.444   4.486 -0.8334 -2.0713 -1.2974
   15SAPS   H4S 1905   3.847   4.453   4.436 -0.2660 -0.6410  1.7326
   15SAPS   C25 1906   3.897   4.599   4.573  0.1551 -0.0656 -0.2244
   15SAPS   H5R 1907   3.827   4.681   4.552 -0.1536  0.2804  1.8541
   15SAPS   C26 1908   3.933   4.584   4.702  0.4021 -0.1339  0.2972
   15SAPS   H6R 1909   3.908   4.670   4.766 -0.4517 -0.8160  0.9149
   15SAPS   C27 1910   4.014   4.471   4.758  0.4551  0.0582  0.6053
   15SAPS   H7R 1911   4.008   4.391   4.681 -2.5667 -0.8131  1.6253
   15SAPS   H7S 1912   3.960   4.433   4.847 -0.9517  2.3562  0.8285
   15SAPS   C28 1913   4.168   4.491   4.773  0.2440  0.0985  0.2832
   15SAPS   H8R 1914   4.215   4.557   4.698 -1.6481  3.6749  2.0082
   15SAPS   C29 1915   4.234   4.463   4.886  0.9289 -0.0172  0.3878
   15SAPS   H9R 1916   4.343   4.478   4.886  0.9508  0.0131 -1.3748
   15SAPS  C210 1917   4.173   4.407   5.012  0.7022  0.3592  0.4183
   15SAPS  H10R 1918   4.075   4.459   5.020  1.1713  1.0405  2.2005
   15SAPS  H10S 1919   4.233   4.431   5.103 -0.8514 -1.3806  1.9919
   15SAPS  C211 1920   4.146   4.258   5.011 -0.3235  0.7162 -0.6845
   15SAPS  H11R 1921   4.067   4.221   4.944 -2.3154  0.3609  1.6883
   15SAPS  C212 1922   4.193   4.173   5.103 -0.4179  0.1684 -1.1013
   15SAPS  H12R 1923   4.161   4.068   5.094  1.9789 -0.5705 -1.6613
   15SAPS  C213 1924   4.298   4.193   5.209 -0.5547  0.0581 -0.4773
   15SAPS  H13R 1925   4.275   4.125   5.295  0.3004  0.4882  0.1072
   15SAPS  H13S 1926   4.295   4.292   5.259 -1.1572 -0.8617  1.3917
   15SAPS  C214 1927   4.432   4.170   5.147 -0.4499 -0.1305  0.2169
   15SAPS  H14R 1928   4.464   4.260   5.091 -1.7749 -0.1211 -0.5719
   15SAPS  C215 1929   4.518   4.067   5.167  0.0898  0.7340  0.3846
   15SAPS  H15R 1930   4.615   4.075   5.115 -0.4012  3.9615 -0.2217
   15SAPS  C216 1931   4.494   3.953   5.268 -0.1119  0.3688  1.3464
   15SAPS  H16R 1932   4.547   3.858   5.246 -0.9457 -0.2348  1.9207
   15SAPS  H16S 1933   4.386   3.932   5.276 -0.2668 -0.6532 -1.8985
   15SAPS  C217 1934   4.544   4.000   5.409  0.3764 -0.2390  0.3794
   15SAPS  H17R 1935   4.468   4.072   5.446 -0.4022 -1.2202  0.7476
   15SAPS  H17S 1936   4.642   4.052   5.403  1.5244 -2.0621  1.8828
   15SAPS  C218 1937   4.559   3.883   5.512  0.4790 -0.0034  0.9011
   15SAPS  H18R 1938   4.633   3.820   5.457  2.7695  3.4402 -0.3307
   15SAPS  H18S 1939   4.465   3.825   5.520  0.2631  0.4559  1.7710
   15SAPS  C219 1940   4.611   3.933   5.650  0.0106  0.4452 -0.2363
   15SAPS  H19R 1941   4.698   4.000   5.631 -0.5139  0.8662 -1.2031
   15SAPS  H19S 1942   4.649   3.846   5.708 -3.4606 -0.1891  1.3554
   15SAPS  C220 1943   4.498   3.993   5.739 -0.1442 -0.0940 -0.0128
   15SAPS  H20R 1944   4.534   4.062   5.818 -1.0639  1.5740 -1.0070
   15SAPS  H20S 1945   4.448   3.905   5.785 -0.4272  0.1323  0.1161
   15SAPS  H20T 1946   4.425   4.044   5.672 -0.5670 -0.6701 -0.0025
   15SAPS   C33 1947   3.835   3.974   4.622  0.6292 -0.0587 -0.1728
   15SAPS   H3X 1948   3.942   3.947   4.613  0.8621  0.0493  1.8054
   15SAPS   H3Y 1949   3.764   3.890   4.608 -4.2071  3.2577  1.6043
   15SAPS   C34 1950   3.804   4.022   4.766 -0.1729  0.2628  0.1643
   15SAPS   H4X 1951   3.703   4.067   4.778 -0.1454 -0.1156  2.1320
   15SAPS   H4Y 1952   3.874   4.103   4.793  1.8672 -0.7226 -1.8022
   15SAPS   C35 1953   3.816   3.904   4.870 -0.1755 -0.2425 -0.1503
   15SAPS   H5X 1954   3.757   3.811   4.853 -1.2784  0.4950 -0.4289
   15SAPS   H5Y 1955   3.789   3.953   4.966  1.2162  1.2041 -0.4445
   15SAPS   C36 1956   3.955   3.852   4.872  0.3836  0.1200  0.0373
   15SAPS   H6X 1957   4.043   3.919   4.877  3.0168 -3.1329  1.2210
   15SAPS   H6Y 1958   3.974   3.808   4.772  0.4545  3.0124 -1.3282
   15SAPS   C37 1959   3.968   3.744   4.983  0.7775 -0.3440  0.5083
   15SAPS   H7X 1960   3.889   3.667   4.967 -1.5197  1.9165  0.2599
   15SAPS   H7Y 1961   3.963   3.779   5.089  2.5204 -1.3002  0.9408
   15SAPS   C38 1962   4.108   3.679   4.970  0.2094 -0.6906  0.3783
   15SAPS   H8X 1963   4.172   3.767   4.989 -0.6065  0.8406 -3.1809
   15SAPS   H8Y 1964   4.130   3.651   4.865 -1.3995 -0.2571 -0.0999
   15SAPS   C39 1965   4.145   3.560   5.063  0.0710 -0.1558 -0.2175
   15SAPS   H9X 1966   4.250   3.529   5.052  0.6066  0.5156  2.2859
   15SAPS   H9Y 1967   4.075   3.474   5.050 -1.4402  0.8643  0.7445
   15SAPS  C310 1968   4.134   3.610   5.214 -0.1404  0.0130  0.3911
   15SAPS  H10X 1969   4.035   3.655   5.236 -0.2138 -0.6332  1.4340
   15SAPS  H10Y 1970   4.206   3.694   5.229 -2.0180  1.7315  0.2169
   15SAPS  C311 1971   4.147   3.494   5.316 -0.0373  1.0885 -0.4296
   15SAPS  H11X 1972   4.245   3.451   5.288 -0.9331 -0.7045 -0.9839
   15SAPS  H11Y 1973   4.078   3.415   5.278  1.2782  0.5210 -1.7354
   15SAPS  C312 1974   4.119   3.535   5.464 -0.0436 -0.2062 -0.6821
   15SAPS  H12X 1975   4.026   3.594   5.480  2.2366  3.6758 -0.5240
   15SAPS  H12Y 1976   4.201   3.607   5.486 -0.3996  0.0521 -0.1780
   15SAPS  C313 1977   4.127   3.411   5.551 -0.0460  0.4331 -0.2335
   15SAPS  H13X 1978   4.231   3.375   5.569 -0.7907 -2.8409 -1.8273
   15SAPS  H13Y 1979   4.081   3.328   5.494 -0.6717 -0.0250  0.9048
   15SAPS  C314 1980   4.060   3.424   5.689  0.3856 -0.0212 -0.4052
   15SAPS  H14X 1981   3.959   3.468   5.676 -0.2151 -0.9510  0.9183
   15SAPS  H14Y 1982   4.108   3.498   5.756 -0.8066 -0.8030  1.3893
   15SAPS  C315 1983   4.055   3.287   5.768 -0.0512  0.0685  0.2149
   15SAPS  H15X 1984   4.157   3.243   5.780 -0.2810 -0.7730 -0.8477
   15SAPS  H15Y 1985   3.985   3.224   5.710 -2.2662  1.5010  1.2152
   15SAPS  C316 1986   3.994   3.295   5.920 -0.2317 -0.0221  0.5253
   15SAPS  H16X 1987   4.004   3.192   5.960  1.5355  0.4238  1.3229
   15SAPS  H16Y 1988   3.885   3.313   5.907 -0.0088  1.0235 -0.0151
   15SAPS  C317 1989   4.032   3.418   6.014 -0.6374 -0.7697  0.4415
   15SAPS  H17X 1990   4.016   3.505   5.947 -2.6270  0.3554  2.2481
   15SAPS  H17Y 1991   4.135   3.411   6.055 -0.4967  3.2796  1.2058
   15SAPS  C318 1992   3.936   3.437   6.130  0.1676  0.5185  0.2940
   15SAPS  H18X 1993   3.835   3.455   6.089  0.2237  0.4802  0.1366
   15SAPS  H18Y 1994   3.964   3.523   6.195  0.1985 -0.4352  1.5815
   15SAPS  H18Z 1995   3.939   3.347   6.196  1.5639  1.2771  1.3287
   16SAPS     N 1996   3.389   5.359   3.437 -0.0508  0.2938  0.4708
   16SAPS   HN1 1997   3.303   5.324   3.392 -0.2437 -0.3789  1.3254
   16SAPS   HN2 1998   3.435   5.272   3.473 -2.6134 -0.6622  1.7153
   16SAPS   HN3 1999   3.370   5.423   3.517  0.4322  0.2909  0.5908
   16SAPS   C12 2000   3.460   5.431   3.332  0.0833 -0.3195  0.2327
   16SAPS  H12A 2001   3.564   5.444   3.357  0.2104 -0.2933 -0.3130
   16SAPS   C13 2002   3.450   5.373   3.186  0.3210 -0.0386 -0.5119
   16SAPS  O13A 2003   3.369   5.285   3.152  0.6416  0.2833  0.5275
   16SAPS  O13B 2004   3.541   5.420   3.115  0.2076  0.1512 -0.0337
   16SAPS   C11 2005   3.407   5.572   3.321  0.5103 -0.3481 -0.0876
   16SAPS  H11A 2006   3.297   5.576   3.330  0.3335 -1.0641 -1.6654
   16SAPS  H11B 2007   3.425   5.622   3.223 -1.0248 -1.7630 -1.1359
   16SAPS     P 2008   3.416   5.676   3.559  0.0171  0.0527 -0.1985
   16SAPS   O13 2009   3.277   5.738   3.541 -0.5838  1.0785 -0.2894
   16SAPS   O14 2010   3.427   5.552   3.633 -0.6082  0.0394 -0.2189
   16SAPS   O12 2011   3.478   5.653   3.414  0.5703 -0.2576 -0.3053
   16SAPS   O11 2012   3.509   5.778   3.624 -0.2149  0.3797 -0.2231
   16SAPS    C1 2013   3.472   5.896   3.701 -0.1477  0.3941 -0.3259
   16SAPS    HA 2014   3.403   5.965   3.649  0.2257  0.9202 -0.1279
   16SAPS    HB 2015   3.412   5.867   3.791  1.0840 -0.2621  0.3040
   16SAPS    C2 2016   3.591   5.978   3.751  0.4693 -0.6351  0.2674
   16SAPS    HS 2017   3.672   5.957   3.679  0.3072 -0.4386  0.0277
   16SAPS   O21 2018   3.621   5.946   3.886 -0.2681 -0.0302  0.6035
   16SAPS   C21 2019   3.665   5.830   3.907 -0.2111  0.9349  0.5727
   16SAPS   O22 2020   3.723   5.750   3.836 -0.1751  0.5412  0.0287
   16SAPS   C22 2021   3.624   5.794   4.050 -0.0972  0.4709 -0.5494
   16SAPS   H2R 2022   3.513   5.791   4.048 -0.2680  3.0496  0.8290
   16SAPS   H2S 2023   3.668   5.694   4.071 -0.9156  0.4133  0.9957
   16SAPS    C3 2024   3.564   6.128   3.742 -0.5533  0.7844 -0.1860
   16SAPS    HX 2025   3.540   6.148   3.635 -0.4241 -2.1773 -0.8592
   16SAPS    HY 2026   3.659   6.180   3.764  0.2024  0.0418 -1.5173
   16SAPS   O31 2027   3.448   6.176   3.811 -0.4374  0.6163 -0.3029
   16SAPS   C31 2028   3.458   6.219   3.936  0.5547  0.8405 -0.1076
   16SAPS   O32 2029   3.557   6.211   4.005 -0.8303 -0.2579  0.0449
   16SAPS   C32 2030   3.322   6.278   3.982  0.3541 -0.0474 -0.6213
   16SAPS   H2X 2031   3.283   6.307   3.882 -0.7003 -0.3019 -0.2993
   16SAPS   H2Y 2032   3.336   6.371   4.041 -1.2733  0.5323 -1.0929
   16SAPS   C23 2033   3.694   5.892   4.148 -0.6889  0.2670  0.4372
   16SAPS   H3R 2034   3.678   5.995   4.107  1.2226  0.2298 -0.5376
   16SAPS   H3S 2035   3.804   5.874   4.145 -0.6825  0.3436  0.1536
   16SAPS   C24 2036   3.646   5.865   4.289  0.5996  1.0495 -0.6772
   16SAPS   H4R 2037   3.661   5.759   4.319 -0.8791  1.4159  1.5064
   16SAPS   H4S 2038   3.537   5.880   4.280  0.0755 -0.2068  2.5009
   16SAPS   C25 2039   3.700   5.968   4.379 -0.6263 -0.3305 -0.3389
   16SAPS   H5R 2040   3.731   6.060   4.326  0.1135  0.2378  1.0322
   16SAPS   C26 2041   3.736   5.949   4.505  0.2279 -0.5480  0.5905
   16SAPS   H6R 2042   3.782   6.036   4.555 -1.2105  0.3865  0.3562
   16SAPS   C27 2043   3.715   5.822   4.578  0.3551 -0.0669 -1.0087
   16SAPS   H7R 2044   3.681   5.737   4.516  0.7067  0.2861 -1.6879
   16SAPS   H7S 2045   3.631   5.834   4.650 -0.8455 -2.3526 -1.9101
   16SAPS   C28 2046   3.842   5.785   4.654  0.8296 -0.1865  0.0949
   16SAPS   H8R 2047   3.914   5.739   4.585  1.8695 -0.3304  1.2652
   16SAPS   C29 2048   3.868   5.778   4.792  0.3323 -0.6590  0.1269
   16SAPS   H9R 2049   3.961   5.733   4.831  1.0285  0.2564 -0.4358
   16SAPS  C210 2050   3.779   5.836   4.902  0.1567  0.5726 -0.4565
   16SAPS  H10R 2051   3.702   5.894   4.847  1.2650  2.2583 -0.2869
   16SAPS  H10S 2052   3.835   5.909   4.964 -1.4150 -0.0450  1.8034
   16SAPS  C211 2053   3.716   5.733   5.001  0.6505  0.3111  0.0380
   16SAPS  H11R 2054   3.675   5.645   4.949 -2.1293  1.8169 -0.5236
   16SAPS  C212 2055   3.703   5.749   5.136 -0.4559 -0.3959  0.2645
   16SAPS  H12R 2056   3.657   5.675   5.204 -2.4821  1.7553  1.3631
   16SAPS  C213 2057   3.755   5.863   5.223 -0.2814  0.0936 -0.1981
   16SAPS  H13R 2058   3.762   5.949   5.153 -1.0532 -0.8324 -1.4532
   16SAPS  H13S 2059   3.859   5.833   5.246 -0.5154 -3.3034 -2.7937
   16SAPS  C214 2060   3.678   5.897   5.347  0.0621  0.8430  0.0852
   16SAPS  H14R 2061   3.590   5.960   5.328  0.0077  0.7671  0.0835
   16SAPS  C215 2062   3.701   5.851   5.471  0.1505  0.3010 -0.7799
   16SAPS  H15R 2063   3.638   5.889   5.552 -0.6936  2.1432 -2.2049
   16SAPS  C216 2064   3.816   5.765   5.513 -0.1726 -0.5112  1.0095
   16SAPS  H16R 2065   3.907   5.828   5.505 -1.6207  1.7385  1.3822
   16SAPS  H16S 2066   3.837   5.681   5.443 -0.9043 -2.2762  2.8090
   16SAPS  C217 2067   3.814   5.726   5.656 -0.1288  0.4175  0.7783
   16SAPS  H17R 2068   3.817   5.820   5.716 -0.9244  0.9913 -0.0434
   16SAPS  H17S 2069   3.906   5.672   5.687  0.6184  1.9269  1.2789
   16SAPS  C218 2070   3.690   5.636   5.703 -0.0376 -0.2552 -0.0335
   16SAPS  H18R 2071   3.713   5.536   5.660 -1.5413 -0.0991 -1.2948
   16SAPS  H18S 2072   3.597   5.678   5.659  0.4260  0.9503  0.1153
   16SAPS  C219 2073   3.683   5.603   5.855 -0.2513 -0.2105  0.0143
   16SAPS  H19R 2074   3.603   5.528   5.871 -2.2499  1.7816 -0.0090
   16SAPS  H19S 2075   3.645   5.702   5.891  0.1577  0.9334 -2.4881
   16SAPS  C220 2076   3.817   5.553   5.918  1.0347  0.3591  0.2274
   16SAPS  H20R 2077   3.805   5.513   6.021  1.5786 -0.5659 -0.0607
   16SAPS  H20S 2078   3.892   5.635   5.927  0.5507  0.7927  0.3291
   16SAPS  H20T 2079   3.865   5.477   5.852  1.3317 -0.9487  1.8736
   16SAPS   C33 2080   3.224   6.179   4.056 -0.1207  0.1067 -0.9129
   16SAPS   H3X 2081   3.217   6.086   3.996  0.0357  0.1160 -0.9458
   16SAPS   H3Y 2082   3.121   6.218   4.065 -0.5782 -1.4726  3.3557
   16SAPS   C34 2083   3.272   6.151   4.203 -0.1799 -0.2700 -0.4172
   16SAPS   H4X 2084   3.277   6.246   4.261 -0.0184  0.1434 -1.0935
   16SAPS   H4Y 2085   3.371   6.101   4.212  0.7693  1.9049  2.2769
   16SAPS   C35 2086   3.170   6.059   4.267 -0.2084 -0.5265  0.0773
   16SAPS   H5X 2087   3.183   5.953   4.237 -1.6175 -0.2238 -1.7294
   16SAPS   H5Y 2088   3.065   6.074   4.234  0.1007 -1.5493 -1.4194
   16SAPS   C36 2089   3.180   6.061   4.415 -0.5068 -0.0119  0.5815
   16SAPS   H6X 2090   3.102   5.991   4.452 -1.5261  0.3640 -0.7655
   16SAPS   H6Y 2091   3.145   6.156   4.462  1.8088  0.0314  2.3832
   16SAPS   C37 2092   3.315   6.036   4.485 -0.0117  0.2216 -0.1173
   16SAPS   H7X 2093   3.394   6.099   4.441 -0.2994  0.4271 -0.3451
   16SAPS   H7Y 2094   3.349   5.931   4.472 -2.0585 -0.3389 -1.5806
   16SAPS   C38 2095   3.305   6.053   4.639  0.1481  0.2505  0.1869
   16SAPS   H8X 2096   3.295   6.162   4.659  2.0039  0.6095 -0.5946
   16SAPS   H8Y 2097   3.405   6.048   4.688  0.2830  1.0757  0.0191
   16SAPS   C39 2098   3.215   5.949   4.712 -0.3041  0.1204 -0.3431
   16SAPS   H9X 2099   3.281   5.865   4.744 -1.4773 -0.4370  0.6925
   16SAPS   H9Y 2100   3.159   5.903   4.628  0.8299 -0.9094 -0.5644
   16SAPS  C310 2101   3.133   6.007   4.830  0.4116  0.9943  0.1339
   16SAPS  H10X 2102   3.026   5.981   4.810  0.7431  0.2198 -0.7038
   16SAPS  H10Y 2103   3.147   6.116   4.843  0.1040  0.8066  2.5111
   16SAPS  C311 2104   3.162   5.940   4.964 -0.2554 -0.1561 -0.0533
   16SAPS  H11X 2105   3.251   5.989   5.009  0.5228 -1.6168  0.0550
   16SAPS  H11Y 2106   3.188   5.832   4.962 -0.7786 -0.2725 -1.7949
   16SAPS  C312 2107   3.036   5.954   5.038 -0.3023 -0.1563 -0.7855
   16SAPS  H12X 2108   2.954   5.891   4.997 -0.2827 -1.3009  0.8136
   16SAPS  H12Y 2109   2.995   6.057   5.031  1.3276  0.5205 -0.7274
   16SAPS  C313 2110   3.045   5.911   5.186  0.3253 -0.5436 -0.2855
   16SAPS  H13X 2111   3.075   5.804   5.188 -0.4754 -0.7674  0.5115
   16SAPS  H13Y 2112   2.947   5.923   5.238  0.4232 -0.0260 -0.2097
   16SAPS  C314 2113   3.156   5.987   5.268  0.1428  0.2592  0.3580
   16SAPS  H14X 2114   3.135   6.096   5.262 -0.2324  0.2655  1.4278
   16SAPS  H14Y 2115   3.255   5.974   5.221 -0.8481 -0.4785 -1.6242
   16SAPS  C315 2116   3.161   5.928   5.412 -0.6996 -0.0797  0.1983
   16SAPS  H15X 2117   3.257   5.965   5.454 -1.2424  1.8412 -0.1424
   16SAPS  H15Y 2118   3.150   5.818   5.407 -4.4690  0.1047  1.2927
   16SAPS  C316 2119   3.044   5.972   5.502  1.1688 -0.6584  0.4393
   16SAPS  H16X 2120   2.942   5.955   5.459  0.6042  0.8362  1.1020
   16SAPS  H16Y 2121   3.040   6.082   5.512 -0.8880 -0.8027  1.9907
   16SAPS  C317 2122   3.052   5.913   5.643 -0.3329 -0.0736  0.0630
   16SAPS  H17X 2123   3.159   5.926   5.668  0.0710 -1.7796 -0.6614
   16SAPS  H17Y 2124   3.038   5.803   5.637 -1.1994  0.0953 -2.8167
   16SAPS  C318 2125   2.961   5.980   5.751  0.4135 -0.0893  0.1158
   16SAPS  H18X 2126   2.965   6.091   5.744 -0.8974  0.2188  2.8090
   16SAPS  H18Y 2127   3.005   5.955   5.850  2.3715  0.8782 -0.4615
   16SAPS  H18Z 2128   2.852   5.964   5.740  0.2990 -0.1148  1.1936
   17SAPS     N 2129   6.263   4.014   3.457  0.7147  0.2322  0.0989
   17SAPS   HN1 2130   6.311   3.923   3.447 -0.0037 -0.3844  1.8711
   17SAPS   HN2 2131   6.319   4.065   3.528  1.3183  2.7142 -1.9669
   17SAPS   HN3 2132   6.166   3.998   3.492  0.8021 -0.5000  0.0069
   17SAPS   C12 2133   6.258   4.088   3.327  0.4278 -0.4412  0.3628
   17SAPS  H12A 2134   6.360   4.115   3.304 -0.3812  3.4818  0.8147
   17SAPS   C13 2135   6.201   4.000   3.211 -0.0440  0.0636 -0.6130
   17SAPS  O13A 2136   6.163   3.883   3.238 -0.1464  0.0803  0.1107
   17SAPS  O13B 2137   6.200   4.045   3.098  0.4564 -0.0990 -0.0952
   17SAPS   C11 2138   6.169   4.214   3.341  0.1305  0.0791  0.4418
   17SAPS  H11A 2139   6.065   4.175   3.344 -0.8946  2.6380  2.9581
   17SAPS  H11B 2140   6.161   4.269   3.244 -3.9821  0.3356  0.7251
   17SAPS     P 2141   6.087   4.417   3.497  0.3651 -0.1478  0.3665
   17SAPS   O13 2142   6.156   4.534   3.564  0.4249 -0.2337 -0.2733
   17SAPS   O14 2143   5.996   4.447   3.386  0.5915  0.0452  0.7498
   17SAPS   O12 2144   6.198   4.307   3.451 -0.3883 -0.0152 -0.3389
   17SAPS   O11 2145   6.001   4.338   3.606 -0.2008 -0.4800 -0.1898
   17SAPS    C1 2146   6.075   4.269   3.710 -0.1995 -0.0353 -0.0696
   17SAPS    HA 2147   6.056   4.160   3.707 -2.4750  0.3197 -0.6921
   17SAPS    HB 2148   6.183   4.295   3.708  0.6729 -3.2296 -0.7269
   17SAPS    C2 2149   6.031   4.317   3.852  0.7886  0.1034  0.1860
   17SAPS    HS 2150   5.925   4.286   3.866  0.9468 -0.6011 -0.1873
   17SAPS   O21 2151   6.058   4.454   3.868 -0.0641  0.2697  0.3294
   17SAPS   C21 2152   5.963   4.543   3.835 -0.5852 -0.6516  0.2140
   17SAPS   O22 2153   5.846   4.521   3.808 -0.0439 -0.3472 -0.0057
   17SAPS   C22 2154   6.009   4.675   3.865 -0.8189 -0.2720 -0.5303
   17SAPS   H2R 2155   6.097   4.676   3.932 -0.7250  1.6465 -0.6124
   17SAPS   H2S 2156   6.047   4.727   3.774  2.5232 -0.8563  0.4063
   17SAPS    C3 2157   6.085   4.238   3.967 -0.0877 -0.8265  0.7716
   17SAPS    HX 2158   6.183   4.273   4.005  0.6738 -2.8459  0.8137
   17SAPS    HY 2159   6.081   4.133   3.931  1.1784 -0.1022 -1.7201
   17SAPS   O31 2160   5.991   4.245   4.072  1.1024 -0.0768  0.0540
   17SAPS   C31 2161   6.009   4.336   4.168  0.2783 -0.2918  0.0451
   17SAPS   O32 2162   6.105   4.410   4.175 -0.3484 -0.4337 -0.1587
   17SAPS   C32 2163   5.893   4.346   4.258  0.0400 -0.4628 -0.2865
   17SAPS   H2X 2164   5.805   4.306   4.205  0.7983  0.9132 -2.7889
   17SAPS   H2Y 2165   5.873   4.455   4.263  1.6248 -0.1396 -0.1681
   17SAPS   C23 2166   5.903   4.762   3.948 -0.0982 -0.7116  0.4310
   17SAPS   H3R 2167   5.818   4.784   3.880  0.3936  0.3052  0.1162
   17SAPS   H3S 2168   5.947   4.864   3.954  0.2993 -0.8060 -0.5750
   17SAPS   C24 2169   5.872   4.717   4.092 -0.3425  0.7435  0.1467
   17SAPS   H4R 2170   5.824   4.616   4.093 -1.3317  1.1624 -1.3675
   17SAPS   H4S 2171   5.784   4.776   4.126 -0.7923 -0.7196  1.7007
   17SAPS   C25 2172   5.995   4.718   4.183  0.7613  0.8620  0.5957
   17SAPS   H5R 2173   6.085   4.659   4.159  1.4731  1.1279  2.4150
   17SAPS   C26 2174   6.001   4.749   4.311 -0.3600 -0.8613 -0.1776
   17SAPS   H6R 2175   6.093   4.726   4.367 -2.2804 -0.0589  3.6329
   17SAPS   C27 2176   5.901   4.831   4.384  0.3551 -0.2081  0.6096
   17SAPS   H7R 2177   5.886   4.815   4.493 -0.4280  2.9460  1.0504
   17SAPS   H7S 2178   5.798   4.820   4.345  0.9282  0.6777 -1.2587
   17SAPS   C28 2179   5.942   4.981   4.361 -0.0257  0.3144 -0.0596
   17SAPS   H8R 2180   5.935   5.025   4.261  0.4554  1.8356  0.5422
   17SAPS   C29 2181   5.981   5.065   4.458 -0.9865  0.3139 -0.1324
   17SAPS   H9R 2182   6.020   5.163   4.429  0.6312  0.7135  3.0147
   17SAPS  C210 2183   6.014   5.023   4.596 -0.1290 -0.0708 -0.3341
   17SAPS  H10R 2184   6.114   4.976   4.604 -0.1463 -0.4466 -1.9324
   17SAPS  H10S 2185   5.943   4.939   4.614 -0.6412  0.3888 -0.1686
   17SAPS  C211 2186   6.012   5.121   4.708 -0.0151 -0.3910  0.3285
   17SAPS  H11R 2187   5.929   5.116   4.780  1.1844  0.5004  1.8509
   17SAPS  C212 2188   6.108   5.201   4.749  0.3123 -0.7827 -0.5675
   17SAPS  H12R 2189   6.084   5.274   4.828 -1.6398 -1.2541 -0.6759
   17SAPS  C213 2190   6.246   5.220   4.688  0.1648 -0.0156  0.3174
   17SAPS  H13R 2191   6.278   5.323   4.712  1.4425 -0.1013 -0.8962
   17SAPS  H13S 2192   6.232   5.214   4.578 -0.5280  0.0373  0.3955
   17SAPS  C214 2193   6.355   5.125   4.741  0.5513  0.4992  0.4587
   17SAPS  H14R 2194   6.402   5.062   4.663  2.3209  0.4617  1.5114
   17SAPS  C215 2195   6.419   5.119   4.857 -0.0723  0.7682  0.1919
   17SAPS  H15R 2196   6.504   5.050   4.853 -0.5751 -0.0351  2.2063
   17SAPS  C216 2197   6.385   5.203   4.975  0.6104  0.4333  0.2073
   17SAPS  H16R 2198   6.277   5.229   4.968  0.8537  1.2396 -0.7478
   17SAPS  H16S 2199   6.436   5.301   4.974 -1.1339  1.4551  2.4400
   17SAPS  C217 2200   6.415   5.133   5.106  0.0546  0.3156 -0.2647
   17SAPS  H17R 2201   6.400   5.200   5.193  2.9793 -2.3643  2.5684
   17SAPS  H17S 2202   6.522   5.105   5.106 -0.0314 -0.1297  1.8439
   17SAPS  C218 2203   6.327   5.007   5.119 -0.3467  0.0774  0.0688
   17SAPS  H18R 2204   6.336   4.937   5.032  1.7615  0.3867 -0.0102
   17SAPS  H18S 2205   6.218   5.025   5.130 -0.7702 -3.1454  3.3007
   17SAPS  C219 2206   6.366   4.909   5.231  0.4127 -0.5395 -0.0521
   17SAPS  H19R 2207   6.475   4.885   5.236  0.5009 -0.2613 -0.5257
   17SAPS  H19S 2208   6.316   4.810   5.223 -0.0034 -0.3159 -0.2008
   17SAPS  C220 2209   6.318   4.960   5.369 -0.0984  0.6332  0.3143
   17SAPS  H20R 2210   6.314   4.868   5.432 -0.1319  0.4764  0.0823
   17SAPS  H20S 2211   6.214   4.999   5.358 -1.0773 -1.3659  1.6747
   17SAPS  H20T 2212   6.392   5.023   5.421  2.7223 -1.7807 -0.5031
   17SAPS   C33 2213   5.924   4.309   4.403  0.0084 -0.1444  0.8038
   17SAPS   H3X 2214   5.983   4.215   4.411  1.2758  0.7908  4.5258
   17SAPS   H3Y 2215   5.824   4.291   4.449 -1.0880  1.8977 -0.6652
   17SAPS   C34 2216   5.987   4.415   4.505  0.8259  1.0146  0.5274
   17SAPS   H4X 2217   5.941   4.401   4.605  0.5632 -1.4352  0.1436
   17SAPS   H4Y 2218   5.958   4.513   4.462 -2.3245  0.8152  1.9183
   17SAPS   C35 2219   6.138   4.424   4.526 -0.0064  0.0861 -0.6336
   17SAPS   H5X 2220   6.144   4.516   4.588 -0.6478 -0.6860  0.6132
   17SAPS   H5Y 2221   6.189   4.448   4.430  1.5174  1.8576  0.5592
   17SAPS   C36 2222   6.214   4.312   4.606  0.4404  0.4636 -0.1474
   17SAPS   H6X 2223   6.324   4.308   4.591  0.5734  1.0742  0.6062
   17SAPS   H6Y 2224   6.179   4.219   4.558  1.6403  1.1400 -2.5112
   17SAPS   C37 2225   6.188   4.315   4.757 -0.3111  0.0490 -0.3556
   17SAPS   H7X 2226   6.081   4.326   4.784 -0.7944 -2.2196 -1.1270
   17SAPS   H7Y 2227   6.240   4.405   4.797  1.2383  0.0534 -2.2215
   17SAPS   C38 2228   6.242   4.190   4.827 -0.2952 -0.2432 -0.5978
   17SAPS   H8X 2229   6.351   4.196   4.851 -0.2780  1.8394 -1.0379
   17SAPS   H8Y 2230   6.235   4.100   4.762 -3.4073 -0.7638  0.2961
   17SAPS   C39 2231   6.160   4.160   4.959  0.2976 -0.2643  0.4754
   17SAPS   H9X 2232   6.179   4.057   4.993 -1.8888 -0.7821  0.2992
   17SAPS   H9Y 2233   6.050   4.163   4.943  0.6276  1.3083 -2.2186
   17SAPS  C310 2234   6.194   4.265   5.063  0.1421 -0.2040 -0.4152
   17SAPS  H10X 2235   6.124   4.242   5.146  0.1738 -0.5796 -0.4947
   17SAPS  H10Y 2236   6.156   4.365   5.032 -1.0950 -0.3442  0.5919
   17SAPS  C311 2237   6.339   4.269   5.118  0.8826  0.3961 -0.1475
   17SAPS  H11X 2238   6.404   4.267   5.028 -2.4020 -2.5356 -2.7453
   17SAPS  H11Y 2239   6.371   4.170   5.158  0.9057  0.6070  0.3680
   17SAPS  C312 2240   6.372   4.377   5.216  0.1052  0.5706  0.7834
   17SAPS  H12X 2241   6.298   4.358   5.297 -0.8944 -1.0297 -0.4585
   17SAPS  H12Y 2242   6.367   4.476   5.167  0.6056 -0.9676 -2.6334
   17SAPS  C313 2243   6.508   4.366   5.285 -0.3738  0.2195  1.1410
   17SAPS  H13X 2244   6.591   4.374   5.211 -0.9327  0.3213  0.5196
   17SAPS  H13Y 2245   6.518   4.266   5.332 -0.7123 -0.5917 -0.4420
   17SAPS  C314 2246   6.534   4.484   5.380  0.0353 -0.8482 -0.2484
   17SAPS  H14X 2247   6.457   4.475   5.460  0.5505  0.7580  0.4572
   17SAPS  H14Y 2248   6.516   4.584   5.335 -0.5840 -0.1926  1.3826
   17SAPS  C315 2249   6.673   4.492   5.433  0.1358  0.4242  1.0331
   17SAPS  H15X 2250   6.683   4.576   5.505 -1.3777  1.3518  0.2209
   17SAPS  H15Y 2251   6.738   4.505   5.344 -1.5029 -0.2163 -0.3268
   17SAPS  C316 2252   6.721   4.368   5.505  0.0022  0.6458  0.5106
   17SAPS  H16X 2253   6.726   4.276   5.444 -0.8513 -0.9322  2.7005
   17SAPS  H16Y 2254   6.643   4.349   5.582 -2.6634  1.0390 -1.9129
   17SAPS  C317 2255   6.862   4.386   5.556  0.6652 -0.2225 -0.3631
   17SAPS  H17X 2256   6.935   4.417   5.477  1.4214  0.7112  0.6729
   17SAPS  H17Y 2257   6.887   4.280   5.576 -0.4419 -0.7392 -1.6211
   17SAPS  C318 2258   6.878   4.465   5.689  0.0666 -0.2376 -0.3043
   17SAPS  H18X 2259   6.863   4.574   5.676 -0.3702 -0.1734  0.6838
   17SAPS  H18Y 2260   6.978   4.450   5.735  1.4405  1.1067 -2.6643
   17SAPS  H18Z 2261   6.802   4.436   5.765  0.1827  2.1666  0.8013
   18SAPS     N 2262   6.033   2.127   3.687 -0.0652  0.1791  0.2705
   18SAPS   HN1 2263   6.048   2.098   3.786  1.2067  0.7415  0.2710
   18SAPS   HN2 2264   6.048   2.048   3.622 -3.5061  0.5204 -1.1576
   18SAPS   HN3 2265   6.088   2.212   3.663  0.6833 -0.0460  1.1051
   18SAPS   C12 2266   5.885   2.145   3.675  0.3462 -0.1899 -0.1215
   18SAPS  H12A 2267   5.855   2.228   3.737  1.4119  0.8255 -0.9325
   18SAPS   C13 2268   5.819   2.165   3.538  0.3859 -0.4456 -0.2241
   18SAPS  O13A 2269   5.892   2.197   3.441  0.4869 -0.4191 -0.3142
   18SAPS  O13B 2270   5.697   2.183   3.543 -0.5542 -0.1387  0.0886
   18SAPS   C11 2271   5.822   2.012   3.741  1.1260  0.7702  0.0942
   18SAPS  H11A 2272   5.849   1.927   3.674  1.3698  0.6494  0.3425
   18SAPS  H11B 2273   5.712   2.020   3.731  0.7562 -2.7698  0.0556
   18SAPS     P 2274   5.790   2.014   4.006 -0.2503  0.1178  0.5310
   18SAPS   O13 2275   5.714   1.891   4.037 -0.2064 -0.1839  0.4271
   18SAPS   O14 2276   5.891   2.063   4.103 -0.2590 -0.0568  0.4428
   18SAPS   O12 2277   5.869   1.992   3.872 -0.5097  0.4844  0.1946
   18SAPS   O11 2278   5.685   2.129   3.969 -0.0039 -0.1430  0.3613
   18SAPS    C1 2279   5.730   2.263   3.950 -0.2345  0.2753  0.3981
   18SAPS    HA 2280   5.841   2.275   3.949  0.2989 -3.2981  1.6946
   18SAPS    HB 2281   5.687   2.318   3.864  1.9141  3.8289  1.4073
   18SAPS    C2 2282   5.691   2.354   4.069  0.8594 -0.0078  0.6158
   18SAPS    HS 2283   5.580   2.360   4.070  0.7406 -0.2123 -2.3115
   18SAPS   O21 2284   5.752   2.483   4.049 -0.7882  0.5958  0.3169
   18SAPS   C21 2285   5.683   2.559   3.980 -0.0313  0.0335 -0.1832
   18SAPS   O22 2286   5.589   2.529   3.912  0.7265 -0.3608  0.2100
   18SAPS   C22 2287   5.756   2.696   3.979 -0.0559 -0.6837  0.1813
   18SAPS   H2R 2288   5.849   2.699   4.039 -0.7715 -0.7857  1.3368
   18SAPS   H2S 2289   5.778   2.708   3.870 -1.9133 -1.7860 -0.3602
   18SAPS    C3 2290   5.724   2.303   4.215  0.5794  0.6262  0.8943
   18SAPS    HX 2291   5.835   2.290   4.213  0.6247  1.1148 -0.1894
   18SAPS    HY 2292   5.678   2.203   4.226  0.4785  0.5058 -0.4346
   18SAPS   O31 2293   5.677   2.393   4.318  0.3401  0.8475 -0.0327
   18SAPS   C31 2294   5.772   2.441   4.394  0.1244  0.0464 -0.2858
   18SAPS   O32 2295   5.890   2.413   4.393  0.4503  0.4612 -0.1386
   18SAPS   C32 2296   5.721   2.546   4.490 -0.1163  0.4388  0.5450
   18SAPS   H2X 2297   5.664   2.623   4.434  1.1025  0.5651 -0.5610
   18SAPS   H2Y 2298   5.814   2.601   4.516 -1.4504  2.3460  1.5854
   18SAPS   C23 2299   5.670   2.812   4.036  0.2817 -0.8882  0.4278
   18SAPS   H3R 2300   5.575   2.793   3.981  0.1752  2.5191 -0.7626
   18SAPS   H3S 2301   5.704   2.908   3.993 -0.6796 -0.9269 -0.4489
   18SAPS   C24 2302   5.669   2.824   4.187 -0.2945 -0.0503  0.1216
   18SAPS   H4R 2303   5.778   2.836   4.205  0.0206  1.2328 -2.2310
   18SAPS   H4S 2304   5.625   2.736   4.238 -1.1343  0.6764  0.6857
   18SAPS   C25 2305   5.606   2.954   4.226  0.0169  0.2196 -0.4036
   18SAPS   H5R 2306   5.556   3.013   4.148  0.2524  1.0093  0.0392
   18SAPS   C26 2307   5.613   3.000   4.349  0.7006 -0.5201  0.1087
   18SAPS   H6R 2308   5.564   3.096   4.369  3.2749  2.2217 -4.7929
   18SAPS   C27 2309   5.683   2.935   4.467  0.2705 -0.0729 -0.3464
   18SAPS   H7R 2310   5.732   3.012   4.531 -0.2445 -1.1235  1.3726
   18SAPS   H7S 2311   5.758   2.863   4.429 -0.3300 -1.0515  0.2810
   18SAPS   C28 2312   5.576   2.876   4.553  0.8452  0.0389  0.0696
   18SAPS   H8R 2313   5.503   2.818   4.494  0.2843  0.4516  0.3506
   18SAPS   C29 2314   5.567   2.874   4.687  0.2862 -0.0928 -0.0897
   18SAPS   H9R 2315   5.484   2.816   4.731 -0.2887  2.1412  2.0018
   18SAPS  C210 2316   5.670   2.928   4.786 -0.7243  0.6831  0.1331
   18SAPS  H10R 2317   5.702   3.030   4.756 -1.0508  0.2815 -1.7204
   18SAPS  H10S 2318   5.759   2.863   4.797 -1.7773 -0.7589  0.4405
   18SAPS  C211 2319   5.614   2.945   4.926 -0.4275 -0.1152  0.3113
   18SAPS  H11R 2320   5.515   2.993   4.928  0.3793  1.7297 -0.8358
   18SAPS  C212 2321   5.672   2.903   5.041 -0.8544  0.1995 -0.6799
   18SAPS  H12R 2322   5.618   2.929   5.133 -0.0848 -0.3141 -0.0637
   18SAPS  C213 2323   5.806   2.825   5.064 -0.0459  0.5335 -0.4912
   18SAPS  H13R 2324   5.893   2.894   5.061  0.8952 -0.6290 -0.7470
   18SAPS  H13S 2325   5.826   2.751   4.983  1.3547 -1.4835  1.5722
   18SAPS  C214 2326   5.801   2.745   5.186 -0.0929 -0.2607 -1.0846
   18SAPS  H14R 2327   5.807   2.636   5.173  0.4842 -0.2699 -0.7533
   18SAPS  C215 2328   5.801   2.783   5.315 -0.8349  0.1262  0.3535
   18SAPS  H15R 2329   5.805   2.705   5.391 -1.1648 -0.9514 -0.7092
   18SAPS  C216 2330   5.807   2.924   5.366 -0.2815 -0.0396  0.2821
   18SAPS  H16R 2331   5.702   2.945   5.397 -0.7641  0.3448 -1.4442
   18SAPS  H16S 2332   5.825   2.994   5.281 -3.0087 -2.0836 -2.1747
   18SAPS  C217 2333   5.899   2.948   5.483 -0.4086  0.1650  0.4997
   18SAPS  H17R 2334   5.899   3.056   5.506  0.0635  0.4602 -0.7908
   18SAPS  H17S 2335   5.999   2.915   5.449 -1.1053 -1.6202  0.0479
   18SAPS  C218 2336   5.867   2.875   5.612 -0.0992  0.1359  0.1421
   18SAPS  H18R 2337   5.833   2.775   5.578  0.0308 -0.6640  2.2097
   18SAPS  H18S 2338   5.781   2.924   5.661 -0.9138 -1.0949  0.0045
   18SAPS  C219 2339   5.994   2.845   5.690  0.8467 -0.0943  0.0286
   18SAPS  H19R 2340   6.035   2.936   5.740  0.2262 -0.0949  0.5597
   18SAPS  H19S 2341   6.078   2.810   5.627  0.6753 -1.5447  0.5662
   18SAPS  C220 2342   5.960   2.751   5.806 -0.1263  0.1850 -0.0328
   18SAPS  H20R 2343   5.871   2.786   5.864  0.7230  2.0889  0.2210
   18SAPS  H20S 2344   6.045   2.756   5.877  0.5608 -2.5213 -0.5720
   18SAPS  H20T 2345   5.950   2.648   5.768 -0.0209 -0.0642  0.5975
   18SAPS   C33 2346   5.654   2.493   4.617  0.2893 -0.5339  0.1658
   18SAPS   H3X 2347   5.658   2.571   4.696 -0.4245 -2.0194  1.7333
   18SAPS   H3Y 2348   5.703   2.400   4.654 -0.8570 -1.4082 -0.4623
   18SAPS   C34 2349   5.505   2.460   4.602 -0.2565 -0.2771  0.4463
   18SAPS   H4X 2350   5.500   2.401   4.508 -0.7500 -1.7795  1.3899
   18SAPS   H4Y 2351   5.448   2.554   4.586 -0.0223 -0.0735  0.7932
   18SAPS   C35 2352   5.447   2.383   4.714 -0.8128  0.4409 -0.6016
   18SAPS   H5X 2353   5.513   2.301   4.751 -1.3779  1.2899  2.5388
   18SAPS   H5Y 2354   5.354   2.334   4.680  0.1324  0.4286 -3.5035
   18SAPS   C36 2355   5.416   2.478   4.834  0.5286  0.7990  0.2172
   18SAPS   H6X 2356   5.306   2.490   4.842  0.4551 -0.5615  1.8645
   18SAPS   H6Y 2357   5.457   2.580   4.821  0.1227  0.9707  0.2530
   18SAPS   C37 2358   5.470   2.444   4.971  0.1855  0.5727  0.3851
   18SAPS   H7X 2359   5.580   2.430   4.976  0.1674  0.7567  2.0624
   18SAPS   H7Y 2360   5.413   2.355   5.006  0.3969  0.3450  0.1513
   18SAPS   C38 2361   5.438   2.563   5.070  0.1608  0.6847  0.2616
   18SAPS   H8X 2362   5.328   2.577   5.079 -0.3025 -2.2744  0.0626
   18SAPS   H8Y 2363   5.486   2.661   5.051 -1.1139  1.4536  0.8442
   18SAPS   C39 2364   5.483   2.519   5.211  0.0221 -0.2730 -0.9189
   18SAPS   H9X 2365   5.590   2.492   5.197  1.1144  1.8868  2.1967
   18SAPS   H9Y 2366   5.427   2.435   5.257  0.1619  0.2599  0.2677
   18SAPS  C310 2367   5.462   2.631   5.308 -0.0377 -0.2662 -0.4175
   18SAPS  H10X 2368   5.355   2.659   5.297  0.3313  0.3715 -2.8112
   18SAPS  H10Y 2369   5.523   2.721   5.282 -1.9773  0.6101 -2.1992
   18SAPS  C311 2370   5.510   2.605   5.446  0.0337  0.4071  0.0437
   18SAPS  H11X 2371   5.621   2.607   5.450  0.2304 -3.6095  1.0210
   18SAPS  H11Y 2372   5.484   2.501   5.474 -2.0650  0.9035  0.1406
   18SAPS  C312 2373   5.453   2.704   5.545  0.1803 -0.2194 -0.3628
   18SAPS  H12X 2374   5.343   2.698   5.531  0.0032 -0.7814  1.0885
   18SAPS  H12Y 2375   5.478   2.812   5.541 -1.7680  0.3311  0.8035
   18SAPS  C313 2376   5.468   2.652   5.692  0.3885 -0.4699 -0.0059
   18SAPS  H13X 2377   5.577   2.638   5.710  0.6080  1.7348  0.5679
   18SAPS  H13Y 2378   5.416   2.554   5.696  0.3524 -0.4286  0.6388
   18SAPS  C314 2379   5.413   2.746   5.800 -0.5160  0.6705 -0.4052
   18SAPS  H14X 2380   5.361   2.688   5.879  1.7759  1.3371  1.6993
   18SAPS  H14Y 2381   5.331   2.814   5.767 -2.4874 -0.4783  1.8391
   18SAPS  C315 2382   5.518   2.837   5.866  0.5452  0.4575  0.2781
   18SAPS  H15X 2383   5.591   2.880   5.794  2.0585 -1.7929  0.3621
   18SAPS  H15Y 2384   5.569   2.758   5.926 -1.1100 -0.3944  0.6212
   18SAPS  C316 2385   5.457   2.949   5.964 -0.5496  0.2021 -0.4398
   18SAPS  H16X 2386   5.356   2.905   5.979 -0.4497 -0.7164 -2.2475
   18SAPS  H16Y 2387   5.463   3.047   5.912 -0.4181  1.2649  1.4747
   18SAPS  C317 2388   5.539   2.963   6.096  0.5792  0.3407  0.5200
   18SAPS  H17X 2389   5.645   2.940   6.073  0.0818 -1.3042 -0.2750
   18SAPS  H17Y 2390   5.502   2.889   6.170  1.4083  0.9005  1.5232
   18SAPS  C318 2391   5.520   3.105   6.148  1.0202 -0.6636  1.2338
   18SAPS  H18X 2392   5.516   3.169   6.058 -1.8753  1.2401  2.5864
   18SAPS  H18Y 2393   5.607   3.136   6.211  0.4973  1.3279  1.0220
   18SAPS  H18Z 2394   5.426   3.118   6.205  1.4919  0.8404  1.7193
   19SAPS     N 2395   4.292   1.665   3.744 -0.1283 -0.4483 -0.4472
   19SAPS   HN1 2396   4.314   1.691   3.843  1.2911 -1.8312 -0.3537
   19SAPS   HN2 2397   4.378   1.678   3.687 -1.0499 -0.0556 -1.7958
   19SAPS   HN3 2398   4.217   1.723   3.703  0.0191  0.1539  0.0960
   19SAPS   C12 2399   4.255   1.520   3.734 -0.0589 -0.2507  0.2555
   19SAPS  H12A 2400   4.164   1.502   3.789 -0.1542 -0.8844 -0.0953
   19SAPS   C13 2401   4.226   1.477   3.583 -0.1195 -0.7397 -0.8496
   19SAPS  O13A 2402   4.229   1.553   3.490  0.2856 -0.0577  0.1701
   19SAPS  O13B 2403   4.183   1.361   3.578  0.1728 -0.1302  0.2906
   19SAPS   C11 2404   4.373   1.425   3.781 -0.2335 -0.1150 -0.4701
   19SAPS  H11A 2405   4.334   1.321   3.781 -1.4719  0.3347 -0.8578
   19SAPS  H11B 2406   4.380   1.465   3.885 -3.0779  1.5606 -0.8293
   19SAPS     P 2407   4.618   1.528   3.736  0.1123 -0.0724  0.0731
   19SAPS   O13 2408   4.724   1.509   3.635  0.2014  0.2477  0.0660
   19SAPS   O14 2409   4.572   1.666   3.750 -0.2302 -0.0089 -0.1425
   19SAPS   O12 2410   4.489   1.440   3.700 -0.0078  0.1253 -0.6856
   19SAPS   O11 2411   4.657   1.460   3.871  0.1903  0.1138 -0.7667
   19SAPS    C1 2412   4.667   1.321   3.886 -0.0032  0.9164 -0.1228
   19SAPS    HA 2413   4.566   1.281   3.908 -0.4827  0.6744 -2.4555
   19SAPS    HB 2414   4.703   1.278   3.789  0.1944  0.7332  0.0307
   19SAPS    C2 2415   4.758   1.286   4.009 -0.3757  0.2266 -0.3184
   19SAPS    HS 2416   4.743   1.176   4.020  1.4550 -0.3573 -2.7090
   19SAPS   O21 2417   4.735   1.370   4.125  0.1782  0.0278 -0.4919
   19SAPS   C21 2418   4.613   1.365   4.183 -0.1526  0.6186 -0.6724
   19SAPS   O22 2419   4.520   1.291   4.157  0.3242  0.5792  0.2857
   19SAPS   C22 2420   4.612   1.472   4.295 -0.4812  0.3956  0.1096
   19SAPS   H2R 2421   4.635   1.566   4.240  0.0787 -0.3817 -1.0329
   19SAPS   H2S 2422   4.510   1.469   4.338  0.3215 -4.9896  2.4466
   19SAPS    C3 2423   4.906   1.306   3.975  0.3211 -0.0885 -0.6563
   19SAPS    HX 2424   4.917   1.415   3.959 -1.2655 -0.0995 -2.0684
   19SAPS    HY 2425   4.938   1.254   3.882  1.1174 -1.2905  0.2389
   19SAPS   O31 2426   4.989   1.270   4.090 -0.5290 -0.0282  0.2893
   19SAPS   C31 2427   5.041   1.146   4.090  0.6420 -0.1554 -0.4024
   19SAPS   O32 2428   5.016   1.059   4.010  0.2191  0.1939  0.1776
   19SAPS   C32 2429   5.094   1.115   4.225 -0.1101 -0.3381 -0.4125
   19SAPS   H2X 2430   5.102   1.202   4.293  3.4526  0.0076 -1.0588
   19SAPS   H2Y 2431   5.197   1.074   4.212  0.5122  1.1519 -0.4137
   19SAPS   C23 2432   4.717   1.447   4.410 -0.2150  0.0263 -0.1495
   19SAPS   H3R 2433   4.693   1.519   4.491  0.7454 -0.1308  0.2932
   19SAPS   H3S 2434   4.823   1.465   4.384 -0.1410  0.5838  0.5158
   19SAPS   C24 2435   4.709   1.307   4.471 -0.2682 -0.6497 -0.1244
   19SAPS   H4R 2436   4.782   1.303   4.555 -1.3693  0.3546  0.9028
   19SAPS   H4S 2437   4.729   1.227   4.396  0.0679 -1.4869  0.8227
   19SAPS   C25 2438   4.573   1.276   4.519 -0.1575 -0.5056 -0.3483
   19SAPS   H5R 2439   4.502   1.248   4.440 -0.3488  0.8841 -0.6949
   19SAPS   C26 2440   4.535   1.278   4.645  0.2299 -0.0363  0.7207
   19SAPS   H6R 2441   4.431   1.252   4.670 -0.5251  1.1095 -1.0849
   19SAPS   C27 2442   4.615   1.313   4.772 -0.4402 -0.3570  0.1859
   19SAPS   H7R 2443   4.698   1.384   4.751 -1.5693  0.5432 -1.4787
   19SAPS   H7S 2444   4.668   1.220   4.801  0.3688  0.6474  2.1480
   19SAPS   C28 2445   4.534   1.359   4.891 -0.1142  0.8017 -0.4068
   19SAPS   H8R 2446   4.425   1.347   4.880  0.1265 -0.6438 -1.6256
   19SAPS   C29 2447   4.587   1.413   5.002  0.3016  0.0994 -0.3714
   19SAPS   H9R 2448   4.518   1.443   5.082  0.2207  0.9089 -0.7347
   19SAPS  C210 2449   4.730   1.413   5.051 -0.2326 -0.3556 -0.1047
   19SAPS  H10R 2450   4.740   1.450   5.155 -2.3260  2.3596 -0.7693
   19SAPS  H10S 2451   4.798   1.485   5.000  0.0207  0.6467  1.5682
   19SAPS  C211 2452   4.795   1.271   5.056  0.3831  0.2399 -0.1697
   19SAPS  H11R 2453   4.875   1.271   4.981 -1.0300  0.7294 -1.7630
   19SAPS  C212 2454   4.761   1.158   5.122  0.0586  0.7172  0.8257
   19SAPS  H12R 2455   4.818   1.065   5.104  1.6149  1.6065  1.0120
   19SAPS  C213 2456   4.643   1.139   5.223  0.0912 -0.4149  0.4536
   19SAPS  H13R 2457   4.593   1.237   5.216  0.5640 -0.2748 -3.9483
   19SAPS  H13S 2458   4.667   1.130   5.331 -1.6949 -1.5671  0.7951
   19SAPS  C214 2459   4.535   1.037   5.185 -0.0786  0.0810  0.1725
   19SAPS  H14R 2460   4.462   1.064   5.107  2.3457  4.1218 -1.0319
   19SAPS  C215 2461   4.518   0.920   5.248  0.6350  0.5855 -0.2856
   19SAPS  H15R 2462   4.431   0.861   5.216  0.7195  0.5715 -0.4929
   19SAPS  C216 2463   4.597   0.878   5.371  0.5292 -0.0902  0.3676
   19SAPS  H16R 2464   4.543   0.920   5.458 -0.6299 -0.2604 -0.2469
   19SAPS  H16S 2465   4.700   0.917   5.362  0.8896 -0.8726  0.9488
   19SAPS  C217 2466   4.604   0.726   5.401 -0.1804 -0.1642  0.4271
   19SAPS  H17R 2467   4.663   0.666   5.329  0.8439  0.8390  0.3935
   19SAPS  H17S 2468   4.502   0.684   5.410  1.0084 -3.4190 -0.1044
   19SAPS  C218 2469   4.654   0.695   5.543  0.7524  0.1675 -0.4354
   19SAPS  H18R 2470   4.579   0.755   5.600 -0.4700  0.0411 -1.8541
   19SAPS  H18S 2471   4.757   0.733   5.561  0.9040 -1.3505  2.5933
   19SAPS  C219 2472   4.652   0.541   5.574 -0.0173  0.0856  0.5906
   19SAPS  H19R 2473   4.705   0.486   5.493  1.6840  1.2566  0.8594
   19SAPS  H19S 2474   4.543   0.518   5.577 -0.1023 -0.5418 -2.8642
   19SAPS  C220 2475   4.730   0.518   5.697  0.7313 -0.0036 -0.2663
   19SAPS  H20R 2476   4.747   0.411   5.719 -1.2294 -0.3550 -0.2353
   19SAPS  H20S 2477   4.680   0.559   5.788 -0.4818 -3.2296  0.6352
   19SAPS  H20T 2478   4.834   0.555   5.690  0.7041  0.1248 -0.0230
   19SAPS   C33 2479   5.021   0.998   4.288  0.7881  0.5881  0.0064
   19SAPS   H3X 2480   5.030   0.906   4.226  1.6925 -1.1861  2.6451
   19SAPS   H3Y 2481   4.914   1.028   4.288  0.9710  1.8732 -3.9363
   19SAPS   C34 2482   5.073   0.973   4.427  0.1830 -0.3468  0.3024
   19SAPS   H4X 2483   5.184   0.964   4.424  0.2759  0.7328  0.4031
   19SAPS   H4Y 2484   5.028   0.881   4.472 -0.4741 -0.0713  0.2182
   19SAPS   C35 2485   5.048   1.086   4.533  0.7618  0.1054  0.3207
   19SAPS   H5X 2486   4.939   1.102   4.544  1.1692  1.8881  2.7641
   19SAPS   H5Y 2487   5.090   1.180   4.491 -0.3214 -0.7127 -2.8702
   19SAPS   C36 2488   5.110   1.053   4.668 -0.3781 -0.3853 -0.1094
   19SAPS   H6X 2489   5.076   0.950   4.690  0.6289 -1.6464 -3.7088
   19SAPS   H6Y 2490   5.086   1.126   4.748 -0.2995 -0.5608  0.0759
   19SAPS   C37 2491   5.268   1.049   4.668  0.7051  0.1949 -0.0777
   19SAPS   H7X 2492   5.302   1.133   4.604  0.9981 -0.2671 -0.5413
   19SAPS   H7Y 2493   5.303   0.951   4.630  0.7909  1.2137 -2.8583
   19SAPS   C38 2494   5.344   1.063   4.803  0.0894  0.0820 -0.5104
   19SAPS   H8X 2495   5.344   1.171   4.829  0.3400 -0.0510  0.0559
   19SAPS   H8Y 2496   5.453   1.045   4.788  0.3085 -0.5490  1.5831
   19SAPS   C39 2497   5.279   0.982   4.921  0.2503 -0.1626 -0.1499
   19SAPS   H9X 2498   5.293   0.872   4.926 -0.5778 -0.2257  1.2282
   19SAPS   H9Y 2499   5.170   0.994   4.907  0.1343 -0.3224  0.5776
   19SAPS  C310 2500   5.305   1.059   5.051  0.8429  0.3861 -0.0082
   19SAPS  H10X 2501   5.255   1.004   5.134  0.4614 -0.1736 -0.6072
   19SAPS  H10Y 2502   5.263   1.162   5.050 -0.4540 -0.0596 -3.2558
   19SAPS  C311 2503   5.456   1.073   5.080  0.6396  0.0887 -0.0724
   19SAPS  H11X 2504   5.516   1.111   4.995  0.0059  0.3189 -0.4286
   19SAPS  H11Y 2505   5.493   0.970   5.098 -2.0614 -1.0048 -0.2437
   19SAPS  C312 2506   5.481   1.173   5.195 -0.0833 -0.4264 -0.0434
   19SAPS  H12X 2507   5.475   1.278   5.159 -1.2314  1.1665  4.1735
   19SAPS  H12Y 2508   5.589   1.162   5.217 -0.6696  0.1997  4.0420
   19SAPS  C313 2509   5.400   1.146   5.318  0.4354 -0.0213  0.9776
   19SAPS  H13X 2510   5.420   1.040   5.345 -0.1163  0.5261  3.9147
   19SAPS  H13Y 2511   5.290   1.141   5.302  0.8474 -2.5747 -2.0251
   19SAPS  C314 2512   5.444   1.220   5.442 -0.5269  0.6504 -0.2350
   19SAPS  H14X 2513   5.442   1.330   5.428 -2.8444  1.0707  2.4898
   19SAPS  H14Y 2514   5.546   1.187   5.472  0.8341  1.4208 -3.5878
   19SAPS  C315 2515   5.348   1.193   5.559 -0.2319  1.5718 -0.0279
   19SAPS  H15X 2516   5.346   1.082   5.560  1.3728  1.5270  0.2297
   19SAPS  H15Y 2517   5.244   1.221   5.533 -0.8469 -0.4562  0.1254
   19SAPS  C316 2518   5.389   1.255   5.692  0.0154 -0.3082 -0.0676
   19SAPS  H16X 2519   5.410   1.364   5.683 -1.5540  0.0724  0.5425
   19SAPS  H16Y 2520   5.490   1.217   5.715  0.7931  1.3210 -0.6560
   19SAPS  C317 2521   5.291   1.241   5.805  0.3048 -0.3616  0.3305
   19SAPS  H17X 2522   5.282   1.134   5.833  0.4799 -0.2331  0.8952
   19SAPS  H17Y 2523   5.192   1.277   5.771  0.0891 -1.3348 -0.1104
   19SAPS  C318 2524   5.331   1.313   5.931  0.2317 -0.0962 -0.1379
   19SAPS  H18X 2525   5.284   1.261   6.018  1.4891  0.9708  1.2419
   19SAPS  H18Y 2526   5.304   1.420   5.929  0.7789  0.0275 -1.3311
   19SAPS  H18Z 2527   5.439   1.294   5.950  0.5173  0.7449 -0.8752
   20SAPS     N 2528   6.371   6.662   3.948  0.6435  0.1965 -0.3737
   20SAPS   HN1 2529   6.284   6.609   3.928  0.5370  0.3892 -0.4349
   20SAPS   HN2 2530   6.406   6.635   4.042  1.5095  0.1652 -0.6968
   20SAPS   HN3 2531   6.352   6.764   3.957 -0.0880  0.0530 -0.1634
   20SAPS   C12 2532   6.470   6.655   3.841 -0.0273 -1.3178  0.7259
   20SAPS  H12A 2533   6.493   6.551   3.825  1.1867 -1.4839  3.1892
   20SAPS   C13 2534   6.422   6.725   3.706 -0.4491  0.1588 -0.3082
   20SAPS  O13A 2535   6.304   6.776   3.698 -0.4337 -0.1347  0.4315
   20SAPS  O13B 2536   6.502   6.729   3.612 -0.2838  0.6989 -0.2826
   20SAPS   C11 2537   6.600   6.719   3.883 -0.6987  0.3615 -0.3256
   20SAPS  H11A 2538   6.579   6.828   3.886 -0.1447  0.4565  2.6064
   20SAPS  H11B 2539   6.677   6.709   3.803  0.6799 -2.2164  1.1832
   20SAPS     P 2540   6.790   6.617   4.028  0.1061 -0.1826 -0.1731
   20SAPS   O13 2541   6.856   6.597   3.899 -0.3835 -0.1283 -0.1161
   20SAPS   O14 2542   6.848   6.719   4.120 -0.5508  0.3786 -0.2378
   20SAPS   O12 2543   6.644   6.669   4.006  0.9463  0.0851  0.0204
   20SAPS   O11 2544   6.770   6.477   4.103  0.3020  0.1272  0.3131
   20SAPS    C1 2545   6.654   6.436   4.167  0.3160 -0.0970 -0.0145
   20SAPS    HA 2546   6.563   6.467   4.111  0.2716 -0.0538  0.0835
   20SAPS    HB 2547   6.650   6.326   4.159  0.6839 -0.1528  0.5618
   20SAPS    C2 2548   6.649   6.472   4.318  0.5264 -0.0139 -0.0672
   20SAPS    HS 2549   6.565   6.417   4.364  0.2003 -0.9170 -1.6903
   20SAPS   O21 2550   6.629   6.612   4.341 -0.3850 -0.1030  0.3582
   20SAPS   C21 2551   6.520   6.676   4.295  0.5450 -0.4740  0.5426
   20SAPS   O22 2552   6.432   6.619   4.228  0.0962 -0.5864  0.4327
   20SAPS   C22 2553   6.526   6.824   4.347 -0.1038  0.2313  0.1671
   20SAPS   H2R 2554   6.568   6.824   4.451 -3.5411  2.7436  1.7410
   20SAPS   H2S 2555   6.588   6.869   4.267 -1.0863 -0.3458 -0.9507
   20SAPS    C3 2556   6.782   6.433   4.396  0.4561 -0.0300 -0.1688
   20SAPS    HX 2557   6.782   6.483   4.495  0.2368  0.4870 -0.4241
   20SAPS    HY 2558   6.867   6.476   4.339  0.9603 -2.3291 -1.2456
   20SAPS   O31 2559   6.793   6.288   4.401  0.3316 -0.0999  0.5051
   20SAPS   C31 2560   6.881   6.247   4.501 -0.3188 -0.7287  0.0292
   20SAPS   O32 2561   6.938   6.326   4.577 -0.0192 -0.2623 -0.0842
   20SAPS   C32 2562   6.903   6.092   4.495  0.0880 -0.2015  0.1360
   20SAPS   H2X 2563   6.829   6.056   4.420  1.1185 -0.8174 -0.6223
   20SAPS   H2Y 2564   6.884   6.061   4.600  0.5489  2.6612  1.1357
   20SAPS   C23 2565   6.388   6.895   4.352  0.1695 -0.1637  0.1080
   20SAPS   H3R 2566   6.325   6.851   4.271  0.6747 -1.2690  0.2901
   20SAPS   H3S 2567   6.408   7.002   4.330 -1.9831  0.6726  1.8086
   20SAPS   C24 2568   6.323   6.892   4.492 -0.5182 -0.3945  0.4811
   20SAPS   H4R 2569   6.225   6.943   4.481 -0.5316 -0.8043 -1.5893
   20SAPS   H4S 2570   6.385   6.934   4.574 -1.9457  0.1526  1.3343
   20SAPS   C25 2571   6.285   6.752   4.513 -0.5558  0.9537  0.3178
   20SAPS   H5R 2572   6.233   6.708   4.427  0.5207 -0.7594  0.4848
   20SAPS   C26 2573   6.296   6.673   4.626  0.4072 -0.1865 -0.9610
   20SAPS   H6R 2574   6.254   6.571   4.623 -4.3707  1.5150 -2.0155
   20SAPS   C27 2575   6.356   6.716   4.756  0.2370 -0.2341 -0.2953
   20SAPS   H7R 2576   6.278   6.759   4.823  0.9484  2.7930 -1.2610
   20SAPS   H7S 2577   6.432   6.796   4.745 -0.3347  0.4477  0.5575
   20SAPS   C28 2578   6.417   6.600   4.826 -0.4030  0.0177 -0.7267
   20SAPS   H8R 2579   6.473   6.527   4.766 -0.2950 -2.4372  2.0907
   20SAPS   C29 2580   6.372   6.551   4.948  0.4559  0.1659  0.0799
   20SAPS   H9R 2581   6.406   6.453   4.985 -0.5916  0.0987  0.8899
   20SAPS  C210 2582   6.300   6.629   5.055 -0.1961  0.4760  0.0768
   20SAPS  H10R 2583   6.303   6.738   5.034  0.4467  0.5440  0.4696
   20SAPS  H10S 2584   6.348   6.607   5.153  0.5514 -1.3027 -0.6562
   20SAPS  C211 2585   6.156   6.589   5.073 -0.0269  0.8259 -0.5207
   20SAPS  H11R 2586   6.090   6.572   4.987 -0.6530  1.2398 -0.1278
   20SAPS  C212 2587   6.093   6.571   5.193 -0.6967 -0.2015 -0.9606
   20SAPS  H12R 2588   5.989   6.534   5.194 -0.8766  0.2594 -1.5198
   20SAPS  C213 2589   6.152   6.603   5.328  0.2487  0.6627  0.2782
   20SAPS  H13R 2590   6.064   6.619   5.394 -0.5035 -0.2601 -0.4687
   20SAPS  H13S 2591   6.212   6.695   5.310  1.8054 -0.4236 -0.3029
   20SAPS  C214 2592   6.238   6.489   5.379 -0.1005 -0.5383 -0.7357
   20SAPS  H14R 2593   6.246   6.399   5.316  2.0566  0.1571 -1.5797
   20SAPS  C215 2594   6.315   6.498   5.492  0.4156  0.5514 -0.1408
   20SAPS  H15R 2595   6.377   6.414   5.523  0.5229  1.0059  0.9405
   20SAPS  C216 2596   6.347   6.620   5.577  1.0734 -0.7447 -0.1489
   20SAPS  H16R 2597   6.273   6.625   5.660 -1.0253  0.0848 -1.9479
   20SAPS  H16S 2598   6.323   6.710   5.516 -0.1922 -1.5187 -0.8494
   20SAPS  C217 2599   6.492   6.652   5.635 -0.2516 -0.0803  0.5499
   20SAPS  H17R 2600   6.562   6.616   5.557  0.1059 -2.4954  1.8787
   20SAPS  H17S 2601   6.498   6.588   5.726  1.2797 -1.5542 -0.5177
   20SAPS  C218 2602   6.506   6.804   5.658 -0.3889 -0.0617 -0.2651
   20SAPS  H18R 2603   6.436   6.836   5.738  0.1198  1.0100 -0.2273
   20SAPS  H18S 2604   6.477   6.859   5.566 -2.1004  0.7857  0.7424
   20SAPS  C219 2605   6.652   6.852   5.698  0.4855  0.0144  0.2845
   20SAPS  H19R 2606   6.662   6.963   5.696  1.8022  0.0223  3.0978
   20SAPS  H19S 2607   6.714   6.817   5.613 -0.5931  0.9086 -0.9131
   20SAPS  C220 2608   6.694   6.813   5.828 -1.1837  0.0619 -0.4718
   20SAPS  H20R 2609   6.802   6.829   5.847 -0.2901 -2.8243 -2.5257
   20SAPS  H20S 2610   6.699   6.703   5.837  2.1959  0.0292 -1.4875
   20SAPS  H20T 2611   6.626   6.854   5.906 -2.6934  0.0855 -1.7308
   20SAPS   C33 2612   7.038   6.029   4.439 -0.4217 -0.8329 -0.0326
   20SAPS   H3X 2613   7.090   6.106   4.378 -0.5433  0.4873  1.4543
   20SAPS   H3Y 2614   6.999   5.940   4.385 -1.4666  0.1400 -0.9638
   20SAPS   C34 2615   7.140   5.999   4.557 -0.4598 -0.6886 -0.2292
   20SAPS   H4X 2616   7.201   5.913   4.523 -2.2024 -2.6558  1.3497
   20SAPS   H4Y 2617   7.077   5.967   4.642 -1.7560  0.6660 -0.6327
   20SAPS   C35 2618   7.237   6.116   4.590 -0.0189 -0.3706 -0.3006
   20SAPS   H5X 2619   7.195   6.202   4.648 -1.9963 -0.2747 -1.7587
   20SAPS   H5Y 2620   7.257   6.148   4.486  1.1886 -2.4780 -0.7716
   20SAPS   C36 2621   7.371   6.070   4.646 -0.0428 -0.9274 -0.5694
   20SAPS   H6X 2622   7.411   5.988   4.583 -0.9143 -0.9187 -1.1486
   20SAPS   H6Y 2623   7.350   6.025   4.745 -0.1452  2.6043  1.1813
   20SAPS   C37 2624   7.481   6.181   4.658 -0.1861  0.4201  0.4641
   20SAPS   H7X 2625   7.507   6.217   4.556  2.3548 -0.8033  0.6015
   20SAPS   H7Y 2626   7.574   6.139   4.703  0.6789  1.7003 -0.0798
   20SAPS   C38 2627   7.436   6.305   4.749 -0.4866 -0.3139 -0.7336
   20SAPS   H8X 2628   7.355   6.361   4.697  1.5895  1.1311 -2.5919
   20SAPS   H8Y 2629   7.522   6.373   4.765 -0.4099 -0.8316  1.3271
   20SAPS   C39 2630   7.383   6.260   4.891 -0.0964  0.3353  0.2737
   20SAPS   H9X 2631   7.301   6.186   4.892  0.1321  0.0566 -0.4582
   20SAPS   H9Y 2632   7.344   6.348   4.947 -3.0061 -1.6880  1.6402
   20SAPS  C310 2633   7.494   6.192   4.973  0.6904  0.7920  0.6804
   20SAPS  H10X 2634   7.592   6.240   4.950  1.2015  0.1405  1.4512
   20SAPS  H10Y 2635   7.513   6.088   4.939 -2.4623  0.7703 -1.4411
   20SAPS  C311 2636   7.469   6.206   5.119 -0.2554  0.3747 -1.0946
   20SAPS  H11X 2637   7.459   6.311   5.156  1.4298 -0.2222  1.2566
   20SAPS  H11Y 2638   7.557   6.169   5.175 -1.2718  0.4608  0.6173
   20SAPS  C312 2639   7.342   6.122   5.156  0.3203 -0.2066  0.3666
   20SAPS  H12X 2640   7.334   6.017   5.119 -0.4326  0.0621 -0.2638
   20SAPS  H12Y 2641   7.252   6.174   5.118  0.0568  0.0525  1.3321
   20SAPS  C313 2642   7.327   6.118   5.306  0.5470 -0.1660  0.2116
   20SAPS  H13X 2643   7.219   6.103   5.327  0.0435  1.2391 -1.1443
   20SAPS  H13Y 2644   7.351   6.213   5.359  1.3589 -1.5482  2.4660
   20SAPS  C314 2645   7.415   6.021   5.377  0.1437  0.2678 -0.2365
   20SAPS  H14X 2646   7.521   6.051   5.366  0.3665 -0.2498  0.4293
   20SAPS  H14Y 2647   7.413   5.922   5.328  1.5856 -0.3726  0.9314
   20SAPS  C315 2648   7.397   6.005   5.527 -0.0341  0.0408 -0.0721
   20SAPS  H15X 2649   7.416   6.101   5.579  1.5700  0.0044 -0.5161
   20SAPS  H15Y 2650   7.469   5.935   5.575 -0.2008  0.1020  0.2681
   20SAPS  C316 2651   7.252   5.969   5.565  1.0566 -0.5552 -0.7602
   20SAPS  H16X 2652   7.210   5.889   5.501 -2.9199  0.4475  0.3453
   20SAPS  H16Y 2653   7.190   6.058   5.540 -0.1246 -0.4647  2.0680
   20SAPS  C317 2654   7.230   5.935   5.711 -0.6307 -0.0162 -0.0474
   20SAPS  H17X 2655   7.278   5.835   5.722 -0.5027  0.0500  0.0036
   20SAPS  H17Y 2656   7.124   5.914   5.735  0.2645 -3.8429  1.2767
   20SAPS  C318 2657   7.293   6.030   5.813  0.2369 -0.3759 -0.2528
   20SAPS  H18X 2658   7.291   5.987   5.916 -1.6862 -0.7025 -0.3865
   20SAPS  H18Y 2659   7.236   6.125   5.819  3.1258  1.3970  2.0536
   20SAPS  H18Z 2660   7.395   6.069   5.792 -0.3991  1.3054 -0.4074
   21CHL1    C3 2661   4.281   2.523   7.653 -0.9198  0.4783  0.3382
   21CHL1    H3 2662   4.293   2.605   7.579  0.3990 -1.0241 -1.1812
   21CHL1    O3 2663   4.289   2.581   7.781 -0.0373 -0.2704 -0.0548
   21CHL1   H3' 2664   4.209   2.545   7.820 -1.1805  0.6573 -1.4242
   21CHL1    C4 2665   4.143   2.460   7.633 -0.0668 -0.7981  0.4028
   21CHL1   H4A 2666   4.121   2.384   7.712  3.0613 -1.1758  1.0524
   21CHL1   H4B 2667   4.066   2.540   7.643  0.6714  0.3406 -2.2601
   21CHL1    C5 2668   4.132   2.399   7.497 -0.5927 -0.0818 -0.7410
   21CHL1    C6 2669   4.039   2.438   7.415 -0.0915 -0.1589 -0.1305
   21CHL1    H6 2670   3.966   2.509   7.457 -0.7877 -0.8289 -0.1804
   21CHL1    C7 2671   4.011   2.387   7.273 -0.7216 -0.3405  0.2506
   21CHL1   H7A 2672   3.907   2.350   7.265 -0.1496 -2.4798  1.7303
   21CHL1   H7B 2673   4.013   2.471   7.201  0.7518 -0.6354 -0.0764
   21CHL1    C8 2674   4.106   2.273   7.230 -0.6669  0.6256  0.3705
   21CHL1    H8 2675   4.083   2.173   7.272 -0.3449  0.3678 -0.0606
   21CHL1   C14 2676   4.118   2.270   7.081 -0.1124  0.4728 -0.4530
   21CHL1   H14 2677   4.166   2.366   7.052 -3.0010  2.0502 -0.4715
   21CHL1   C15 2678   3.983   2.263   7.000 -0.7626  0.3186  0.3245
   21CHL1  H15A 2679   3.927   2.176   7.040  1.0292 -0.2186  1.7699
   21CHL1  H15B 2680   3.923   2.356   6.998  1.9530  2.1926  0.3386
   21CHL1   C16 2681   4.033   2.218   6.863 -0.5476  0.8762 -1.0214
   21CHL1  H16A 2682   3.980   2.127   6.827  0.3659  0.3251 -1.0141
   21CHL1  H16B 2683   4.032   2.301   6.789  2.9347  2.5320  0.5760
   21CHL1   C17 2684   4.189   2.176   6.878 -0.4308  0.4130  0.4566
   21CHL1   H17 2685   4.247   2.267   6.852  0.8369 -0.8160 -1.2323
   21CHL1   C13 2686   4.210   2.158   7.030  0.5018  0.3558  0.6112
   21CHL1   C18 2687   4.170   2.029   7.078  0.9178  0.2738  0.2925
   21CHL1  H18A 2688   4.064   2.008   7.054  1.0108  1.7381 -1.7064
   21CHL1  H18B 2689   4.238   1.949   7.041 -0.5440  0.0134 -2.0612
   21CHL1  H18C 2690   4.181   2.009   7.187 -0.9795  0.4804  0.5501
   21CHL1   C12 2691   4.352   2.189   7.073  0.4884  0.0762 -0.2729
   21CHL1  H12A 2692   4.419   2.100   7.065  1.1154  0.5627 -0.5424
   21CHL1  H12B 2693   4.396   2.274   7.016 -2.3006  0.6224 -1.7729
   21CHL1   C11 2694   4.356   2.212   7.224  0.0232 -0.3811 -0.0659
   21CHL1  H11A 2695   4.367   2.115   7.277  2.1250 -1.0954 -1.6585
   21CHL1  H11B 2696   4.456   2.259   7.236 -0.3320  0.0629  1.2311
   21CHL1    C9 2697   4.245   2.305   7.292  0.2127  0.6682  0.1658
   21CHL1    H9 2698   4.262   2.408   7.257 -2.1187  0.2595 -2.5469
   21CHL1   C10 2699   4.252   2.310   7.447 -0.7323  1.0570 -0.2071
   21CHL1   C19 2700   4.229   2.165   7.504 -0.5719  0.0296  0.3945
   21CHL1  H19A 2701   4.140   2.108   7.470 -0.7558  1.7308 -2.2817
   21CHL1  H19B 2702   4.313   2.099   7.474 -2.1325 -0.6812 -2.8446
   21CHL1  H19C 2703   4.220   2.175   7.614 -0.1744 -0.8582  0.5123
   21CHL1    C1 2704   4.400   2.356   7.488  0.3958  0.1065 -0.2238
   21CHL1   H1A 2705   4.471   2.271   7.497 -1.2381 -1.2516  0.6196
   21CHL1   H1B 2706   4.435   2.438   7.423 -0.7326  0.7096 -0.0992
   21CHL1    C2 2707   4.397   2.419   7.632 -0.3199 -0.2975 -0.4592
   21CHL1   H2A 2708   4.499   2.459   7.653 -1.2083  1.1335  1.3662
   21CHL1   H2B 2709   4.378   2.335   7.702 -2.2198 -1.6907 -2.5225
   21CHL1   C20 2710   4.230   2.059   6.778  0.1322  0.3129 -0.1278
   21CHL1   H20 2711   4.172   1.968   6.804  0.5722  0.2484  0.6520
   21CHL1   C21 2712   4.377   2.024   6.802  0.1941 -0.1698 -0.7803
   21CHL1  H21A 2713   4.388   1.967   6.897  1.6065  0.4895 -0.5138
   21CHL1  H21B 2714   4.441   2.115   6.812 -1.1915  0.9526 -1.7589
   21CHL1  H21C 2715   4.404   1.952   6.723 -0.2673 -1.3186  0.0839
   21CHL1   C22 2716   4.189   2.111   6.634  0.3618 -0.1573  0.0674
   21CHL1  H22A 2717   4.081   2.135   6.628  0.4003  0.3322  1.0841
   21CHL1  H22B 2718   4.248   2.206   6.625 -0.4427  0.6067  2.1400
   21CHL1   C23 2719   4.219   2.004   6.526  0.1709 -0.3136 -0.0659
   21CHL1  H23A 2720   4.320   1.958   6.537 -0.0094 -0.6662  0.1311
   21CHL1  H23B 2721   4.148   1.920   6.541 -0.0669 -0.5344 -2.1235
   21CHL1   C24 2722   4.200   2.071   6.391  0.1766  0.2097 -0.0669
   21CHL1  H24A 2723   4.102   2.123   6.403  1.6515  2.6804  2.6875
   21CHL1  H24B 2724   4.273   2.153   6.378 -0.5823  1.1453  1.2658
   21CHL1   C25 2725   4.198   1.981   6.263  0.2482  0.3915 -0.8099
   21CHL1   H25 2726   4.289   1.918   6.266  1.1014  1.5867 -1.0821
   21CHL1   C26 2727   4.083   1.886   6.271 -0.1448  0.1304  0.3439
   21CHL1  H26A 2728   3.989   1.944   6.260  0.1911  0.2785 -2.1996
   21CHL1  H26B 2729   4.095   1.803   6.199 -0.2618  1.0947 -0.8227
   21CHL1  H26C 2730   4.082   1.838   6.371 -1.3910  1.2391  0.8846
   21CHL1   C27 2731   4.203   2.036   6.123  0.6824  0.5171 -0.2228
   21CHL1  H27A 2732   4.277   2.119   6.110 -0.0358  0.7097 -4.2946
   21CHL1  H27B 2733   4.222   1.958   6.046  0.6751  0.0907  0.2022
   21CHL1  H27C 2734   4.101   2.074   6.103 -0.3617 -3.0908 -2.6268
   22CHL1    C3 2735   6.285   3.490   7.601 -0.9085  0.1146 -0.2903
   22CHL1    H3 2736   6.341   3.571   7.550  0.5037  0.5169  1.7652
   22CHL1    O3 2737   6.255   3.534   7.731 -0.4586  0.1839 -0.0120
   22CHL1   H3' 2738   6.220   3.456   7.773 -3.0371  1.4307  0.3467
   22CHL1    C4 2739   6.161   3.436   7.528  0.2431  0.5489 -0.2612
   22CHL1   H4A 2740   6.114   3.355   7.587  1.8665  0.3161  0.7583
   22CHL1   H4B 2741   6.086   3.519   7.521  0.4626  0.6069 -2.7067
   22CHL1    C5 2742   6.189   3.378   7.390  0.3397 -0.7411 -0.1965
   22CHL1    C6 2743   6.125   3.417   7.279 -0.1003 -0.6904  0.2914
   22CHL1    H6 2744   6.051   3.498   7.285  0.9950  0.4435 -0.8611
   22CHL1    C7 2745   6.148   3.361   7.145 -0.3650 -0.2485  0.5717
   22CHL1   H7A 2746   6.045   3.350   7.102 -0.0294 -0.7035 -0.1355
   22CHL1   H7B 2747   6.200   3.429   7.074 -0.4318 -0.8442 -0.0573
   22CHL1    C8 2748   6.224   3.227   7.154  0.3429  0.5088  0.1548
   22CHL1    H8 2749   6.153   3.150   7.192  0.9559  0.6375  1.6232
   22CHL1   C14 2750   6.278   3.192   7.012  0.7217 -0.0033 -0.5593
   22CHL1   H14 2751   6.348   3.274   6.986 -0.8197  1.5517  0.1015
   22CHL1   C15 2752   6.171   3.200   6.898 -0.2048  0.4808 -0.4232
   22CHL1  H15A 2753   6.076   3.149   6.926  0.0546  0.3557  0.2366
   22CHL1  H15B 2754   6.155   3.303   6.859  1.7036  0.9215 -0.1556
   22CHL1   C16 2755   6.246   3.120   6.787 -0.1801  0.2970  0.0639
   22CHL1  H16A 2756   6.173   3.038   6.769 -0.1105  0.6368 -1.9377
   22CHL1  H16B 2757   6.276   3.173   6.695 -0.0447  0.7972  0.3933
   22CHL1   C17 2758   6.376   3.050   6.852  0.0864 -0.7146  0.3894
   22CHL1   H17 2759   6.454   3.124   6.824  0.6899 -1.4944 -0.0376
   22CHL1   C13 2760   6.353   3.061   7.004  0.1845  0.7931  0.6979
   22CHL1   C18 2761   6.262   2.944   7.052 -0.0288  0.2532 -0.3725
   22CHL1  H18A 2762   6.235   2.951   7.160  2.4626  2.1334  0.2189
   22CHL1  H18B 2763   6.175   2.934   6.984 -0.0452  1.3855 -0.5357
   22CHL1  H18C 2764   6.321   2.850   7.048  0.9434  0.8208  0.1568
   22CHL1   C12 2765   6.486   3.083   7.090  0.3478  0.2915  0.4019
   22CHL1  H12A 2766   6.562   3.003   7.088 -0.9181 -0.9480  0.4401
   22CHL1  H12B 2767   6.543   3.164   7.039 -0.5491 -0.7150 -2.3819
   22CHL1   C11 2768   6.451   3.118   7.234 -0.5684 -1.0514 -0.8426
   22CHL1  H11A 2769   6.409   3.020   7.267  0.1593 -0.3844  2.3718
   22CHL1  H11B 2770   6.543   3.142   7.291 -2.9967 -0.5337  3.2648
   22CHL1    C9 2771   6.345   3.233   7.247 -0.0621  0.2305  0.5092
   22CHL1    H9 2772   6.407   3.321   7.218 -0.6207  1.0991  1.8781
   22CHL1   C10 2773   6.301   3.273   7.387  0.8638 -0.0693  0.1155
   22CHL1   C19 2774   6.239   3.148   7.456 -0.1275  0.0805 -0.1757
   22CHL1  H19A 2775   6.308   3.062   7.465 -0.8845 -0.5573 -0.3496
   22CHL1  H19B 2776   6.206   3.168   7.560  1.5942  0.5342  0.3045
   22CHL1  H19C 2777   6.154   3.112   7.394  0.5811  0.6265 -1.5232
   22CHL1    C1 2778   6.420   3.322   7.465 -0.0006  0.1206  0.7983
   22CHL1   H1A 2779   6.504   3.250   7.465  2.3542  2.6163  2.8099
   22CHL1   H1B 2780   6.464   3.405   7.406 -0.5469 -0.0329  0.1545
   22CHL1    C2 2781   6.384   3.372   7.605 -0.1216 -0.6026 -0.8838
   22CHL1   H2A 2782   6.479   3.416   7.640 -0.4335  0.4929 -1.3612
   22CHL1   H2B 2783   6.362   3.287   7.673  0.0455 -0.6997 -0.9528
   22CHL1   C20 2784   6.419   2.916   6.793  0.1559 -0.4521  0.0063
   22CHL1   H20 2785   6.337   2.843   6.811 -1.3105  0.7248 -1.5175
   22CHL1   C21 2786   6.548   2.855   6.838 -0.1492  0.2389  0.1755
   22CHL1  H21A 2787   6.581   2.766   6.780  0.6640 -0.6456  1.8898
   22CHL1  H21B 2788   6.536   2.820   6.943 -2.5930 -3.9432 -1.2432
   22CHL1  H21C 2789   6.628   2.932   6.835 -2.0511  2.3696  1.5286
   22CHL1   C22 2790   6.418   2.925   6.635 -0.4093  0.3431  0.1417
   22CHL1  H22A 2791   6.427   2.824   6.590 -3.7242  0.3127 -0.6884
   22CHL1  H22B 2792   6.320   2.961   6.597  0.4623  0.8470 -1.7857
   22CHL1   C23 2793   6.531   3.012   6.567 -0.0339 -0.6024 -0.2209
   22CHL1  H23A 2794   6.539   3.108   6.622 -0.7928 -0.6071 -0.0804
   22CHL1  H23B 2795   6.624   2.951   6.567  1.6059  1.7730 -0.3146
   22CHL1   C24 2796   6.512   3.045   6.417  0.5704  0.4935 -0.1348
   22CHL1  H24A 2797   6.423   3.111   6.410  0.4405  0.3336  0.0055
   22CHL1  H24B 2798   6.604   3.102   6.390  0.4369  2.0712  2.3616
   22CHL1   C25 2799   6.468   2.934   6.323  0.1899 -0.0291 -0.1919
   22CHL1   H25 2800   6.369   2.894   6.352 -0.2939  0.5822 -0.9646
   22CHL1   C26 2801   6.462   2.987   6.184 -0.0421 -0.2847 -0.2037
   22CHL1  H26A 2802   6.416   2.921   6.107 -0.6174  0.8558 -0.8765
   22CHL1  H26B 2803   6.415   3.088   6.181  0.8765  0.1371 -1.1408
   22CHL1  H26C 2804   6.566   3.014   6.154  1.1222 -2.1468  1.8774
   22CHL1   C27 2805   6.573   2.814   6.320  0.1199 -0.2495  0.3575
   22CHL1  H27A 2806   6.600   2.778   6.421 -2.1751 -1.2761  0.6602
   22CHL1  H27B 2807   6.546   2.736   6.245 -0.7000  1.8470 -1.6671
   22CHL1  H27C 2808   6.669   2.846   6.272 -1.9495  0.1332 -4.0595
   23CHL1    C3 2809   3.406   2.800   7.766 -1.2959 -0.3280  0.4132
   23CHL1    H3 2810   3.315   2.738   7.755  0.0874 -2.6847  1.4411
   23CHL1    O3 2811   3.454   2.774   7.898 -0.3709  0.1183  0.2962
   23CHL1   H3' 2812   3.529   2.833   7.903 -0.2871 -0.0581  1.2269
   23CHL1    C4 2813   3.515   2.773   7.655 -0.7365 -0.2195 -0.4777
   23CHL1   H4A 2814   3.613   2.821   7.669 -1.4694  1.7031 -1.5864
   23CHL1   H4B 2815   3.527   2.664   7.673 -1.8781 -0.1327  1.0482
   23CHL1    C5 2816   3.470   2.803   7.516 -0.6384  0.0320 -0.3501
   23CHL1    C6 2817   3.468   2.711   7.420 -0.5318 -0.4939  0.3725
   23CHL1    H6 2818   3.486   2.605   7.439  0.3267 -0.1786  1.3779
   23CHL1    C7 2819   3.441   2.756   7.277 -0.4505  0.0964  0.4940
   23CHL1   H7A 2820   3.515   2.706   7.211 -0.4948 -0.3326  0.7618
   23CHL1   H7B 2821   3.341   2.720   7.244 -0.0452 -1.4424  0.8272
   23CHL1    C8 2822   3.454   2.913   7.254 -0.6998  0.1656 -0.2949
   23CHL1    H8 2823   3.561   2.941   7.245 -0.5204 -0.3627  0.1573
   23CHL1   C14 2824   3.389   2.955   7.126 -0.5147  0.4599  0.3792
   23CHL1   H14 2825   3.283   2.921   7.126  0.0083 -1.3064 -0.8051
   23CHL1   C15 2826   3.454   2.898   6.998 -0.5230  0.5389  0.1245
   23CHL1  H15A 2827   3.565   2.889   6.999 -0.5325  0.3788  1.7740
   23CHL1  H15B 2828   3.413   2.796   6.989  0.1053  0.2408  0.5470
   23CHL1   C16 2829   3.400   2.981   6.883  0.8843  0.5049 -0.2043
   23CHL1  H16A 2830   3.489   3.020   6.829  0.2057  2.6109  0.1164
   23CHL1  H16B 2831   3.332   2.925   6.815  2.2351 -1.2837 -0.1543
   23CHL1   C17 2832   3.318   3.101   6.946 -0.0519  1.7353 -0.0794
   23CHL1   H17 2833   3.214   3.062   6.951  0.4117  0.1854 -1.6086
   23CHL1   C13 2834   3.374   3.112   7.089  0.1084  0.8094 -0.8819
   23CHL1   C18 2835   3.511   3.183   7.083 -0.2230  0.5202  0.1571
   23CHL1  H18A 2836   3.584   3.167   7.164  2.4109  2.0261 -1.7572
   23CHL1  H18B 2837   3.561   3.153   6.989 -2.3863  2.7394 -1.8428
   23CHL1  H18C 2838   3.494   3.292   7.068  0.5051  0.8180  1.3420
   23CHL1   C12 2839   3.285   3.167   7.197  0.2873  0.0706  0.9896
   23CHL1  H12A 2840   3.269   3.274   7.173 -2.2694 -0.2260  1.1749
   23CHL1  H12B 2841   3.187   3.114   7.200  0.2510 -0.1716 -1.8226
   23CHL1   C11 2842   3.353   3.143   7.332  0.0945 -0.3444  0.6001
   23CHL1  H11A 2843   3.442   3.209   7.336  1.5169 -2.0979 -0.3701
   23CHL1  H11B 2844   3.286   3.177   7.414 -1.6154  0.7992 -1.2038
   23CHL1    C9 2845   3.383   2.995   7.362  0.3517 -0.1793 -0.2176
   23CHL1    H9 2846   3.278   2.960   7.365  0.4812 -0.5908  2.8614
   23CHL1   C10 2847   3.438   2.955   7.505  0.4258  0.2413  0.4720
   23CHL1   C19 2848   3.560   3.041   7.531 -0.4252  0.1567  0.4139
   23CHL1  H19A 2849   3.530   3.148   7.526 -0.5197  0.1547  0.8856
   23CHL1  H19B 2850   3.601   3.027   7.633  1.8638 -0.9001 -0.5957
   23CHL1  H19C 2851   3.631   3.021   7.449  1.0402  1.2398  1.3641
   23CHL1    C1 2852   3.327   2.980   7.614  0.5510  0.0620 -0.5454
   23CHL1   H1A 2853   3.285   3.082   7.599  1.5735  0.9730  2.1333
   23CHL1   H1B 2854   3.235   2.928   7.580 -0.7841  1.7116  0.3699
   23CHL1    C2 2855   3.360   2.954   7.757  0.3379  1.2568 -0.1118
   23CHL1   H2A 2856   3.270   2.981   7.815 -1.4088  0.2888 -2.2195
   23CHL1   H2B 2857   3.439   3.027   7.784  0.9009  0.2815  0.9545
   23CHL1   C20 2858   3.308   3.222   6.853  0.3336 -0.2514  0.9350
   23CHL1   H20 2859   3.406   3.274   6.845  0.3880 -0.2166  1.7261
   23CHL1   C21 2860   3.217   3.324   6.910  0.1403  0.2218 -0.3945
   23CHL1  H21A 2861   3.210   3.408   6.838 -1.4906  1.2522  0.8784
   23CHL1  H21B 2862   3.265   3.378   6.994  2.8058  0.7549 -2.1382
   23CHL1  H21C 2863   3.115   3.284   6.932  0.6009 -0.7878 -0.0341
   23CHL1   C22 2864   3.250   3.178   6.717 -0.1672  0.9268 -0.1685
   23CHL1  H22A 2865   3.317   3.099   6.678  1.1454  1.6706  0.5179
   23CHL1  H22B 2866   3.147   3.143   6.740  0.6859 -1.8364 -0.2060
   23CHL1   C23 2867   3.264   3.288   6.605  0.5603  0.8618 -0.2457
   23CHL1  H23A 2868   3.189   3.370   6.614  0.8359  1.0254  0.6528
   23CHL1  H23B 2869   3.368   3.324   6.600  1.8035 -2.0625  1.7360
   23CHL1   C24 2870   3.224   3.232   6.468 -0.0959 -0.2771 -0.5323
   23CHL1  H24A 2871   3.283   3.140   6.446  0.4277 -1.1944  3.6689
   23CHL1  H24B 2872   3.118   3.203   6.452 -0.2293  0.7556 -1.6129
   23CHL1   C25 2873   3.256   3.317   6.340 -0.1427 -0.8792 -0.1287
   23CHL1   H25 2874   3.364   3.341   6.331 -0.7332  1.5582 -1.6847
   23CHL1   C26 2875   3.213   3.237   6.219 -0.1021 -0.9843 -0.4652
   23CHL1  H26A 2876   3.287   3.155   6.214  0.7894 -0.2041 -0.3980
   23CHL1  H26B 2877   3.112   3.192   6.231 -0.2841 -0.3531  0.5070
   23CHL1  H26C 2878   3.214   3.302   6.129 -2.0216  0.4272  0.4643
   23CHL1   C27 2879   3.184   3.454   6.345  0.2329  1.1052 -0.4036
   23CHL1  H27A 2880   3.208   3.510   6.253 -2.3630  3.2375  0.0875
   23CHL1  H27B 2881   3.073   3.443   6.346  0.3540 -0.4700 -0.7751
   23CHL1  H27C 2882   3.230   3.506   6.431  2.4535 -1.5290  0.1458
   24CHL1    C3 2883   4.311   5.175   7.302 -0.1134 -0.1964 -0.3286
   24CHL1    H3 2884   4.396   5.103   7.301 -0.3980 -0.6050  1.3911
   24CHL1    O3 2885   4.336   5.257   7.414  0.1968  0.2135  0.2803
   24CHL1   H3' 2886   4.390   5.330   7.384 -0.8403  0.3517 -1.4025
   24CHL1    C4 2887   4.310   5.268   7.181 -0.3110 -0.2209  0.0517
   24CHL1   H4A 2888   4.232   5.348   7.184 -1.3917 -1.2519  3.5238
   24CHL1   H4B 2889   4.398   5.336   7.176 -1.1682  1.0780  1.6291
   24CHL1    C5 2890   4.283   5.195   7.053 -0.8922  0.1680 -0.3450
   24CHL1    C6 2891   4.374   5.192   6.952  0.6060  0.3827  0.2147
   24CHL1    H6 2892   4.466   5.251   6.963 -0.0012  1.0291  2.3854
   24CHL1    C7 2893   4.348   5.112   6.825 -0.2196 -0.1969 -0.1159
   24CHL1   H7A 2894   4.388   5.169   6.738 -0.7607 -2.3013 -1.8385
   24CHL1   H7B 2895   4.413   5.024   6.812  2.5589  1.8461 -1.0042
   24CHL1    C8 2896   4.208   5.065   6.801  0.8889 -0.7845 -0.2560
   24CHL1    H8 2897   4.151   5.152   6.763 -0.7789 -1.4858  0.5722
   24CHL1   C14 2898   4.207   4.965   6.691  0.0269  0.5395 -0.0111
   24CHL1   H14 2899   4.258   4.875   6.731 -2.1186 -1.2179 -1.0108
   24CHL1   C15 2900   4.273   5.005   6.556  0.2148 -0.1035 -0.9264
   24CHL1  H15A 2901   4.226   5.101   6.525  0.3961  0.4873  0.5614
   24CHL1  H15B 2902   4.381   5.026   6.575  0.3590 -0.8708 -0.8570
   24CHL1   C16 2903   4.226   4.893   6.456 -0.2977  0.3509 -0.5788
   24CHL1  H16A 2904   4.194   4.942   6.361 -0.7905  0.8727 -0.1580
   24CHL1  H16B 2905   4.303   4.817   6.433  0.9004  1.0553  0.9242
   24CHL1   C17 2906   4.108   4.823   6.533  0.8782  0.1218  0.0758
   24CHL1   H17 2907   4.143   4.723   6.568 -2.7434 -1.1957  0.3209
   24CHL1   C13 2908   4.073   4.909   6.657  0.4029  0.0723  0.1341
   24CHL1   C18 2909   3.970   5.016   6.631  0.5230 -0.2735 -0.4876
   24CHL1  H18A 2910   3.950   5.075   6.723  0.2652 -2.1602  0.7186
   24CHL1  H18B 2911   3.982   5.089   6.548 -3.1117  3.2596  1.7492
   24CHL1  H18C 2912   3.869   4.973   6.613 -1.1793  2.9300  0.5606
   24CHL1   C12 2913   4.017   4.846   6.787 -0.1436  1.3170 -1.0074
   24CHL1  H12A 2914   3.915   4.804   6.777 -0.8043  1.9746  2.0843
   24CHL1  H12B 2915   4.073   4.753   6.807 -2.7167 -0.1613 -0.2433
   24CHL1   C11 2916   4.013   4.926   6.920 -0.5763 -0.6646 -0.0651
   24CHL1  H11A 2917   3.918   4.983   6.915 -0.0453  0.1754 -0.7160
   24CHL1  H11B 2918   3.989   4.859   7.006 -1.3599  1.4961  1.4639
   24CHL1    C9 2919   4.148   5.006   6.938  0.1597 -0.1911 -0.2327
   24CHL1    H9 2920   4.227   4.931   6.961  1.0960  0.8349 -0.0039
   24CHL1   C10 2921   4.150   5.106   7.061 -0.5461 -0.2270  0.8922
   24CHL1   C19 2922   4.026   5.200   7.047 -1.1825  0.6620  0.1085
   24CHL1  H19A 2923   4.034   5.292   7.108 -0.1856  0.5001  0.2395
   24CHL1  H19B 2924   4.023   5.228   6.940 -0.4125  2.0365  0.4290
   24CHL1  H19C 2925   3.933   5.147   7.079 -1.0075  0.3204  0.0598
   24CHL1    C1 2926   4.151   5.025   7.185  0.8753  0.4750 -0.3141
   24CHL1   H1A 2927   4.057   4.968   7.199  2.0104 -1.6080 -0.6898
   24CHL1   H1B 2928   4.225   4.942   7.177 -1.1526 -1.2444 -3.2073
   24CHL1    C2 2929   4.176   5.105   7.317  0.1394 -0.0415  0.4270
   24CHL1   H2A 2930   4.165   5.050   7.413 -1.6974  1.4656  1.1634
   24CHL1   H2B 2931   4.100   5.185   7.334 -0.1342 -0.5794  1.8289
   24CHL1   C20 2932   3.994   4.783   6.442 -0.0611  0.6363  0.1001
   24CHL1   H20 2933   3.900   4.767   6.498 -0.1813 -1.0088 -0.5143
   24CHL1   C21 2934   4.029   4.648   6.374  0.2101  0.1158  0.4189
   24CHL1  H21A 2935   4.032   4.573   6.456 -4.0188 -0.6037  0.1122
   24CHL1  H21B 2936   4.132   4.652   6.334  0.7901  3.3843  1.8930
   24CHL1  H21C 2937   3.959   4.615   6.294 -1.7984  0.7684  1.8174
   24CHL1   C22 2938   3.951   4.887   6.326 -0.5128 -0.9897 -0.0756
   24CHL1  H22A 2939   3.982   4.989   6.356 -0.9447 -0.4644 -1.3309
   24CHL1  H22B 2940   4.009   4.854   6.237 -0.2303 -0.8367  0.0526
   24CHL1   C23 2941   3.800   4.882   6.295 -0.8397  0.0713 -0.0264
   24CHL1  H23A 2942   3.774   4.777   6.270  0.9904 -0.0500 -1.6856
   24CHL1  H23B 2943   3.747   4.925   6.382  1.5967  1.0031  1.0958
   24CHL1   C24 2944   3.750   4.959   6.172  0.4382  0.0194  0.8365
   24CHL1  H24A 2945   3.745   5.068   6.193 -3.1730 -0.4235  3.2994
   24CHL1  H24B 2946   3.797   4.925   6.077  1.1553  0.2473  1.1061
   24CHL1   C25 2947   3.603   4.934   6.145 -0.0845  0.3444 -0.2566
   24CHL1   H25 2948   3.552   4.933   6.244 -1.0103  0.2093 -0.7157
   24CHL1   C26 2949   3.541   5.055   6.068  0.1258 -0.3964 -0.7696
   24CHL1  H26A 2950   3.431   5.067   6.084  0.2924  2.7378 -1.2245
   24CHL1  H26B 2951   3.587   5.152   6.097 -2.4972  1.3828 -2.0919
   24CHL1  H26C 2952   3.561   5.036   5.960  3.3620  1.0205 -0.5358
   24CHL1   C27 2953   3.572   4.805   6.067 -0.6828 -0.5013  0.4225
   24CHL1  H27A 2954   3.462   4.792   6.073 -0.8324  0.8167  1.0187
   24CHL1  H27B 2955   3.609   4.809   5.963 -0.5148 -1.2960  0.4420
   24CHL1  H27C 2956   3.624   4.717   6.111  1.9809  1.5129  1.5753
   25CHL1    C3 2957   1.372   5.265   7.638  0.5040 -0.7997 -0.6238
   25CHL1    H3 2958   1.277   5.215   7.666 -0.4714  1.6295  0.7325
   25CHL1    O3 2959   1.468   5.246   7.738 -0.2074 -0.1536 -0.6043
   25CHL1   H3' 2960   1.429   5.270   7.822  1.8205 -0.9134  0.6554
   25CHL1    C4 2961   1.426   5.201   7.514  0.5532  0.4661 -0.2425
   25CHL1   H4A 2962   1.530   5.235   7.496  1.2567 -1.1066  0.6517
   25CHL1   H4B 2963   1.430   5.093   7.542  2.4691  0.3073 -1.0112
   25CHL1    C5 2964   1.354   5.230   7.387  1.3589  0.8959  0.1726
   25CHL1    C6 2965   1.310   5.128   7.311 -0.2683 -0.8484 -0.6278
   25CHL1    H6 2966   1.326   5.024   7.344  2.9137 -0.8019 -1.6380
   25CHL1    C7 2967   1.245   5.145   7.174 -0.3425 -0.1016  0.2128
   25CHL1   H7A 2968   1.282   5.066   7.106 -3.4834 -2.5797  1.1511
   25CHL1   H7B 2969   1.138   5.119   7.182 -0.6161  1.3463  2.2509
   25CHL1    C8 2970   1.261   5.291   7.132 -0.5919 -0.6608 -0.1834
   25CHL1    H8 2971   1.366   5.308   7.098 -1.3843  1.9106 -1.6523
   25CHL1   C14 2972   1.177   5.319   7.007  0.3257  0.4180 -0.2311
   25CHL1   H14 2973   1.075   5.314   7.052  1.1932 -0.8074  1.7422
   25CHL1   C15 2974   1.172   5.218   6.891 -0.1836 -0.2950 -0.6151
   25CHL1  H15A 2975   1.275   5.183   6.869 -0.4939 -1.5923 -0.0884
   25CHL1  H15B 2976   1.097   5.142   6.921 -0.9698  0.5292 -0.4663
   25CHL1   C16 2977   1.116   5.299   6.778 -0.3421  0.0509  0.0716
   25CHL1  H16A 2978   1.192   5.313   6.699  0.1598  1.2782  0.7406
   25CHL1  H16B 2979   1.024   5.247   6.742  0.9639 -2.7886  0.6011
   25CHL1   C17 2980   1.092   5.446   6.823 -0.4083 -0.2775 -0.1019
   25CHL1   H17 2981   0.985   5.443   6.854 -0.8397  2.6496 -1.0839
   25CHL1   C13 2982   1.183   5.458   6.953 -1.0616 -0.4045  0.1832
   25CHL1   C18 2983   1.329   5.482   6.907 -0.7233  0.6969  0.6783
   25CHL1  H18A 2984   1.337   5.590   6.884 -0.2966  0.5440  0.0808
   25CHL1  H18B 2985   1.405   5.476   6.988 -0.8621  0.1759  0.7719
   25CHL1  H18C 2986   1.350   5.429   6.812  2.1515 -1.0578  2.1312
   25CHL1   C12 2987   1.141   5.557   7.065 -0.4431 -1.1254  0.2808
   25CHL1  H12A 2988   1.149   5.664   7.039 -1.0228 -0.1559  3.6348
   25CHL1  H12B 2989   1.040   5.529   7.101 -0.7115 -0.2071  0.2678
   25CHL1   C11 2990   1.224   5.538   7.192 -0.9967 -0.4042 -0.5271
   25CHL1  H11A 2991   1.324   5.579   7.165 -0.7040  0.0470  1.1606
   25CHL1  H11B 2992   1.180   5.599   7.273 -3.5389 -0.6299 -1.6298
   25CHL1    C9 2993   1.235   5.391   7.240  0.1994  0.1164  0.1193
   25CHL1    H9 2994   1.139   5.357   7.284  0.1548  1.2398  0.9149
   25CHL1   C10 2995   1.333   5.377   7.358 -0.1032  0.2131 -0.4397
   25CHL1   C19 2996   1.470   5.438   7.326  0.8852  1.1918 -0.2168
   25CHL1  H19A 2997   1.457   5.547   7.308 -1.6318  0.9426 -0.2820
   25CHL1  H19B 2998   1.549   5.413   7.400  0.1164  1.2274  0.6370
   25CHL1  H19C 2999   1.513   5.390   7.236  0.6349  0.5630 -0.0097
   25CHL1    C1 3000   1.273   5.443   7.489  0.1507 -0.9496  0.1682
   25CHL1   H1A 3001   1.257   5.552   7.476 -0.1608 -1.0114  0.0375
   25CHL1   H1B 3002   1.171   5.404   7.504 -0.2431  0.1047  0.3632
   25CHL1    C2 3003   1.349   5.417   7.614 -0.5449  0.2451  0.1758
   25CHL1   H2A 3004   1.298   5.460   7.704 -0.1363  1.9249 -0.3508
   25CHL1   H2B 3005   1.451   5.461   7.615  0.8120 -2.6946  0.0091
   25CHL1   C20 3006   1.091   5.564   6.715 -0.8312  0.2773  0.0015
   25CHL1   H20 3007   1.197   5.591   6.702 -0.8553  0.0855 -0.5923
   25CHL1   C21 3008   1.019   5.690   6.771 -0.9733 -0.3598 -0.0784
   25CHL1  H21A 3009   0.912   5.662   6.779 -1.3357  0.9022 -0.2781
   25CHL1  H21B 3010   1.030   5.772   6.696  2.2053 -0.5367  0.0332
   25CHL1  H21C 3011   1.054   5.714   6.874 -0.3045 -1.5234 -0.0148
   25CHL1   C22 3012   1.038   5.513   6.580  1.2322 -0.3796  0.4540
   25CHL1  H22A 3013   1.097   5.427   6.540  0.6429 -2.0397  2.9070
   25CHL1  H22B 3014   0.936   5.471   6.596  0.7762  0.2539 -0.6841
   25CHL1   C23 3015   1.038   5.621   6.467 -0.5307  0.4786  0.0022
   25CHL1  H23A 3016   0.980   5.575   6.384 -0.6869 -1.3247  1.0486
   25CHL1  H23B 3017   0.986   5.712   6.503 -4.1915 -1.9874  1.5560
   25CHL1   C24 3018   1.177   5.652   6.412 -0.3973  0.1141 -0.1359
   25CHL1  H24A 3019   1.244   5.659   6.500 -2.2553  1.1832  1.2353
   25CHL1  H24B 3020   1.223   5.571   6.350 -0.9000 -0.1895 -0.1158
   25CHL1   C25 3021   1.197   5.789   6.331 -0.4186  0.1407  0.1297
   25CHL1   H25 3022   1.156   5.875   6.389 -1.0049 -0.5758  0.7915
   25CHL1   C26 3023   1.345   5.818   6.296  1.0276 -1.0696 -0.1675
   25CHL1  H26A 3024   1.395   5.814   6.395  0.6320  0.6083  0.1328
   25CHL1  H26B 3025   1.381   5.745   6.220  1.8048 -2.1061  1.1505
   25CHL1  H26C 3026   1.350   5.922   6.258  1.1619 -0.5610  1.2029
   25CHL1   C27 3027   1.138   5.787   6.190 -0.6145  0.0863 -0.1075
   25CHL1  H27A 3028   1.032   5.756   6.200 -0.7305  0.8277  1.0142
   25CHL1  H27B 3029   1.144   5.890   6.149 -0.3902 -0.1183 -0.5958
   25CHL1  H27C 3030   1.194   5.732   6.111 -0.6122 -0.7476  0.4578
   26CHL1    C3 3031   0.276   5.695   7.549 -0.0015  0.1296  0.0827
   26CHL1    H3 3032   0.237   5.799   7.561  1.2696  0.4457  1.7978
   26CHL1    O3 3033   0.322   5.651   7.683  0.6016 -0.5284  0.5902
   26CHL1   H3' 3034   0.255   5.589   7.714 -2.6145  2.4105  0.1755
   26CHL1    C4 3035   0.157   5.599   7.505  0.2685  0.1203  0.0930
   26CHL1   H4A 3036   0.196   5.497   7.522  0.4453  0.0804 -0.5297
   26CHL1   H4B 3037   0.071   5.596   7.576  0.1923 -4.3739  0.0831
   26CHL1    C5 3038   0.104   5.623   7.364 -0.3845 -0.4552 -0.1113
   26CHL1    C6 3039  -0.029   5.655   7.333  0.2477  0.1310  0.0086
   26CHL1    H6 3040  -0.100   5.664   7.416  1.7839  0.0246  1.3861
   26CHL1    C7 3041  -0.070   5.698   7.197 -0.2040 -0.4607  0.4556
   26CHL1   H7A 3042  -0.158   5.636   7.169  0.3208 -2.2580  2.4801
   26CHL1   H7B 3043  -0.090   5.806   7.185 -0.5729 -0.5105  0.6126
   26CHL1    C8 3044   0.026   5.649   7.082 -0.5057  0.1488 -0.6612
   26CHL1    H8 3045   0.013   5.539   7.090 -1.0213  0.2457 -0.1398
   26CHL1   C14 3046  -0.017   5.699   6.950 -0.5003 -0.3292 -1.1020
   26CHL1   H14 3047  -0.012   5.809   6.955  1.7650 -0.4410  0.1425
   26CHL1   C15 3048  -0.158   5.675   6.893  0.0869 -0.5194 -0.0316
   26CHL1  H15A 3049  -0.191   5.570   6.906  2.3308 -1.2565  0.1551
   26CHL1  H15B 3050  -0.233   5.741   6.943  0.0947  0.4957 -1.3081
   26CHL1   C16 3051  -0.147   5.698   6.740 -0.2054 -0.6615  0.4960
   26CHL1  H16A 3052  -0.191   5.612   6.685  2.8971 -0.3116 -2.9502
   26CHL1  H16B 3053  -0.209   5.784   6.706 -0.5139 -0.9178  0.4040
   26CHL1   C17 3054   0.007   5.714   6.712  0.1063 -0.7314  0.7791
   26CHL1   H17 3055   0.023   5.824   6.715 -1.7501 -0.4539  1.8515
   26CHL1   C13 3056   0.079   5.656   6.829 -0.2833  0.9960 -0.0459
   26CHL1   C18 3057   0.080   5.502   6.816  0.3538  0.7745  0.1047
   26CHL1  H18A 3058   0.105   5.457   6.915  0.2857  1.2638  0.3468
   26CHL1  H18B 3059  -0.021   5.465   6.789  0.5354  0.1710  0.2210
   26CHL1  H18C 3060   0.160   5.473   6.745 -1.1112  0.1287 -1.3645
   26CHL1   C12 3061   0.225   5.707   6.861  0.3110 -0.2627 -0.3036
   26CHL1  H12A 3062   0.294   5.666   6.784  3.4456 -0.4358  2.3833
   26CHL1  H12B 3063   0.226   5.818   6.855  2.1938 -0.0419  2.5876
   26CHL1   C11 3064   0.273   5.655   6.996  0.5251  0.3391  0.8779
   26CHL1  H11A 3065   0.278   5.546   6.975  0.3931  0.3959  0.5410
   26CHL1  H11B 3066   0.376   5.674   7.033  0.0658  0.4115  2.1701
   26CHL1    C9 3067   0.171   5.686   7.114 -0.9422  0.3093  0.0614
   26CHL1    H9 3068   0.180   5.796   7.112  1.0432  0.1692 -1.5745
   26CHL1   C10 3069   0.217   5.636   7.257  0.5815 -0.2632 -0.5340
   26CHL1   C19 3070   0.269   5.488   7.230 -0.2773 -0.2260  0.0460
   26CHL1  H19A 3071   0.370   5.493   7.184 -0.7842  0.4044 -1.0238
   26CHL1  H19B 3072   0.267   5.437   7.329 -2.2225  0.3857  0.3588
   26CHL1  H19C 3073   0.203   5.440   7.155 -2.3760  0.5908  1.2987
   26CHL1    C1 3074   0.337   5.730   7.308  0.6396  0.5817 -0.9080
   26CHL1   H1A 3075   0.424   5.718   7.239  0.5237  1.7693 -1.2735
   26CHL1   H1B 3076   0.304   5.836   7.305 -1.4353 -0.0029 -0.2739
   26CHL1    C2 3077   0.387   5.682   7.446 -0.0694  0.4090 -0.2138
   26CHL1   H2A 3078   0.464   5.757   7.475 -0.6479  1.2468 -0.7918
   26CHL1   H2B 3079   0.411   5.574   7.456  0.1263  0.4576 -0.1592
   26CHL1   C20 3080   0.057   5.668   6.573 -0.0196  0.6315 -0.7145
   26CHL1   H20 3081   0.110   5.572   6.588 -2.1200 -0.2712  1.5264
   26CHL1   C21 3082   0.152   5.784   6.534  0.4905 -0.4163 -0.2401
   26CHL1  H21A 3083   0.237   5.784   6.605 -0.9636 -1.7792  1.6330
   26CHL1  H21B 3084   0.091   5.876   6.546  1.2263 -0.2346  3.2678
   26CHL1  H21C 3085   0.186   5.766   6.430 -0.4040 -1.0627 -0.4332
   26CHL1   C22 3086  -0.054   5.640   6.468  0.4675 -0.3440 -0.6064
   26CHL1  H22A 3087  -0.123   5.560   6.502  0.9411  0.3624  2.2740
   26CHL1  H22B 3088  -0.105   5.737   6.447 -0.1482  0.0691  2.3645
   26CHL1   C23 3089   0.005   5.591   6.334 -0.3617  0.4998  0.9882
   26CHL1  H23A 3090   0.066   5.674   6.294  0.4548 -0.0435  1.0738
   26CHL1  H23B 3091   0.075   5.505   6.349 -0.9605 -0.0905  0.4640
   26CHL1   C24 3092  -0.099   5.559   6.235  0.1571 -0.3081 -0.8862
   26CHL1  H24A 3093  -0.161   5.484   6.290 -0.8115 -0.5288 -2.2152
   26CHL1  H24B 3094  -0.161   5.650   6.219 -0.4590 -0.4589  0.4920
   26CHL1   C25 3095  -0.045   5.509   6.106  0.5970 -1.0446  0.4169
   26CHL1   H25 3096   0.039   5.579   6.086 -1.0032  0.9152  0.2157
   26CHL1   C26 3097   0.008   5.361   6.105 -0.6035 -0.2061 -0.2121
   26CHL1  H26A 3098   0.100   5.353   6.166 -0.2183 -2.0918 -0.9620
   26CHL1  H26B 3099  -0.075   5.290   6.128  0.3100 -0.5001  2.5730
   26CHL1  H26C 3100   0.035   5.332   6.001 -0.8475 -3.4990  0.5453
   26CHL1   C27 3101  -0.162   5.511   6.000  0.8911  0.0303  0.0521
   26CHL1  H27A 3102  -0.220   5.605   5.981 -1.6921 -1.6810 -1.1224
   26CHL1  H27B 3103  -0.125   5.478   5.900  0.0565  0.2283 -0.3390
   26CHL1  H27C 3104  -0.240   5.438   6.031  0.6359 -0.0291 -0.7107
   27CHL1    C3 3105   3.958   2.945   7.532  0.3080  0.5197 -0.4591
   27CHL1    H3 3106   3.882   3.014   7.489  2.5054  4.1331  1.0188
   27CHL1    O3 3107   3.958   2.949   7.675  0.0507  0.2067 -0.3985
   27CHL1   H3' 3108   3.952   2.856   7.699 -0.4392 -0.0834 -1.5762
   27CHL1    C4 3109   3.922   2.802   7.489 -0.6229  0.7753 -0.2485
   27CHL1   H4A 3110   3.975   2.720   7.542 -1.1499 -0.3985 -1.4833
   27CHL1   H4B 3111   3.819   2.796   7.530 -1.1826  0.0584 -1.6800
   27CHL1    C5 3112   3.919   2.786   7.335 -0.1394  0.0499 -0.5370
   27CHL1    C6 3113   3.811   2.754   7.269  0.0452 -0.2181  0.9620
   27CHL1    H6 3114   3.727   2.697   7.311 -2.0585 -0.9233 -3.5521
   27CHL1    C7 3115   3.816   2.745   7.117  0.2368  0.2368  0.8074
   27CHL1   H7A 3116   3.759   2.660   7.075  0.0688  1.1675 -0.9677
   27CHL1   H7B 3117   3.772   2.840   7.078 -2.2570 -1.9298 -2.1561
   27CHL1    C8 3118   3.959   2.740   7.055 -0.2039  0.5281 -0.5206
   27CHL1    H8 3119   3.991   2.635   7.073 -0.9528  0.2053 -0.9972
   27CHL1   C14 3120   3.946   2.769   6.903  0.1722  0.0531 -0.1534
   27CHL1   H14 3121   3.912   2.875   6.898  0.1662  0.0002 -1.7644
   27CHL1   C15 3122   3.854   2.681   6.817  0.4938  0.4299  0.9020
   27CHL1  H15A 3123   3.861   2.571   6.833 -0.3798  0.0211 -1.2106
   27CHL1  H15B 3124   3.750   2.714   6.834 -0.5109 -1.7198 -0.6265
   27CHL1   C16 3125   3.898   2.712   6.676 -0.3682  0.1512  0.0249
   27CHL1  H16A 3126   3.915   2.619   6.618  1.4705 -0.8537  2.0432
   27CHL1  H16B 3127   3.815   2.771   6.630  0.0746 -0.0348 -1.0271
   27CHL1   C17 3128   4.036   2.781   6.684 -0.2264 -1.1003 -0.1795
   27CHL1   H17 3129   4.005   2.888   6.674  2.4886 -0.1729  0.3393
   27CHL1   C13 3130   4.077   2.775   6.829 -1.3850  0.0474 -0.0768
   27CHL1   C18 3131   4.147   2.643   6.853  0.0894  0.5643  0.1064
   27CHL1  H18A 3132   4.161   2.625   6.962  1.3736  0.4930 -0.0618
   27CHL1  H18B 3133   4.093   2.559   6.803  0.2111 -0.8222  2.1675
   27CHL1  H18C 3134   4.253   2.647   6.820  0.9912  2.3311  2.8317
   27CHL1   C12 3135   4.166   2.883   6.894 -0.1690  1.0548 -0.6448
   27CHL1  H12A 3136   4.271   2.892   6.859  0.4373 -1.1818  0.4405
   27CHL1  H12B 3137   4.120   2.983   6.877 -0.5528  1.0848  0.5044
   27CHL1   C11 3138   4.181   2.870   7.047  0.7613 -0.2511 -0.0185
   27CHL1  H11A 3139   4.248   2.785   7.072  0.4243 -0.2776  0.8337
   27CHL1  H11B 3140   4.224   2.969   7.075 -0.0065  0.0192  0.2236
   27CHL1    C9 3141   4.044   2.850   7.118  0.3196 -0.1142 -0.2522
   27CHL1    H9 3142   3.988   2.945   7.108  0.1820 -0.3184 -1.7925
   27CHL1   C10 3143   4.050   2.831   7.269 -0.1199  0.3664  0.0468
   27CHL1   C19 3144   4.151   2.718   7.298 -0.4136  0.5714  0.6816
   27CHL1  H19A 3145   4.257   2.752   7.296  0.1029 -0.9479 -1.4699
   27CHL1  H19B 3146   4.135   2.680   7.401  0.5657  2.1464  1.4555
   27CHL1  H19C 3147   4.148   2.631   7.228  0.3063  1.1205 -0.0526
   27CHL1    C1 3148   4.101   2.966   7.328 -0.4133 -0.6694  0.2545
   27CHL1   H1A 3149   4.207   2.986   7.299  0.3096 -0.8554  2.5871
   27CHL1   H1B 3150   4.033   3.044   7.287 -1.1979 -2.3251 -1.7533
   27CHL1    C2 3151   4.098   2.989   7.482  0.6052  0.6744 -0.4951
   27CHL1   H2A 3152   4.108   3.098   7.500  1.0249  1.1004 -2.9787
   27CHL1   H2B 3153   4.177   2.931   7.535  0.1067  0.3029 -0.1473
   27CHL1   C20 3154   4.132   2.748   6.571  0.3752  0.0211  1.0170
   27CHL1   H20 3155   4.154   2.639   6.572  0.8059 -0.0127 -2.1372
   27CHL1   C21 3156   4.274   2.815   6.584  0.2878  0.0436  0.4361
   27CHL1  H21A 3157   4.320   2.764   6.672 -1.9150 -1.8513  0.5711
   27CHL1  H21B 3158   4.260   2.924   6.605  0.5706 -0.1200  1.5608
   27CHL1  H21C 3159   4.338   2.797   6.495 -1.1528 -0.9996 -0.4169
   27CHL1   C22 3160   4.064   2.774   6.431  0.8249  0.1152  0.4955
   27CHL1  H22A 3161   3.973   2.710   6.433  0.3149  0.7489 -0.8239
   27CHL1  H22B 3162   4.035   2.880   6.424  2.7838  0.6108 -1.0735
   27CHL1   C23 3163   4.145   2.732   6.307 -1.1530  0.0928  0.1996
   27CHL1  H23A 3164   4.083   2.749   6.216 -1.0932 -2.4247 -0.3817
   27CHL1  H23B 3165   4.232   2.800   6.294 -0.0373 -1.5620 -1.4152
   27CHL1   C24 3166   4.185   2.580   6.306  0.5610 -0.1734  0.0831
   27CHL1  H24A 3167   4.278   2.562   6.365 -0.0749 -0.6695  0.9494
   27CHL1  H24B 3168   4.098   2.522   6.342 -0.9544  2.1934  0.4979
   27CHL1   C25 3169   4.231   2.537   6.168 -0.8406 -0.0505  0.1969
   27CHL1   H25 3170   4.321   2.600   6.153 -0.9521  0.8082  2.5659
   27CHL1   C26 3171   4.262   2.388   6.177 -0.0406 -1.0051  0.5303
   27CHL1  H26A 3172   4.171   2.328   6.197 -1.7964  0.8030 -1.5065
   27CHL1  H26B 3173   4.302   2.354   6.079 -0.5015  1.0221 -0.4078
   27CHL1  H26C 3174   4.334   2.369   6.260 -1.2208  0.7314  2.0400
   27CHL1   C27 3175   4.132   2.556   6.060 -0.6396  0.3627  0.1989
   27CHL1  H27A 3176   4.132   2.661   6.023 -0.9694  1.0564  2.0340
   27CHL1  H27B 3177   4.029   2.532   6.096 -1.3444  1.9913 -0.6121
   27CHL1  H27C 3178   4.156   2.489   5.975 -0.2008  0.1543  0.4864
   28CHL1    C3 3179   2.818   2.697   7.685  0.0242 -0.0982  0.1925
   28CHL1    H3 3180   2.716   2.657   7.670 -0.6421  1.5438  0.1387
   28CHL1    O3 3181   2.823   2.730   7.823  0.3032  0.6789  0.0387
   28CHL1   H3' 3182   2.917   2.745   7.839  0.7284  0.0957 -1.6734
   28CHL1    C4 3183   2.922   2.589   7.658 -0.0148 -0.0090 -0.2987
   28CHL1   H4A 3184   3.015   2.631   7.701 -0.3432  1.3530 -0.8690
   28CHL1   H4B 3185   2.881   2.504   7.717 -2.7027  0.7041 -0.9988
   28CHL1    C5 3186   2.944   2.555   7.514 -0.3328 -0.2249  0.1104
   28CHL1    C6 3187   2.937   2.427   7.466 -0.2110  0.0311 -0.0658
   28CHL1    H6 3188   2.908   2.346   7.534  0.0053  0.1780  0.2022
   28CHL1    C7 3189   2.944   2.386   7.324 -0.1425  0.1480  0.2708
   28CHL1   H7A 3190   3.014   2.303   7.302  0.3888  0.8520 -0.7497
   28CHL1   H7B 3191   2.843   2.355   7.288  0.4309  1.5349 -2.8384
   28CHL1    C8 3192   2.994   2.495   7.232 -0.3814 -0.5857  0.7934
   28CHL1    H8 3193   3.104   2.506   7.232 -0.5744  3.4687 -1.7193
   28CHL1   C14 3194   2.952   2.454   7.087 -0.3012 -0.2305  0.4517
   28CHL1   H14 3195   2.842   2.462   7.073 -0.2230 -0.1048 -0.1076
   28CHL1   C15 3196   2.990   2.318   7.028  0.0520 -0.6212 -0.8040
   28CHL1  H15A 3197   3.097   2.294   7.045 -0.1242 -1.0998 -0.3303
   28CHL1  H15B 3198   2.920   2.239   7.063 -0.3260  0.3052  0.6003
   28CHL1   C16 3199   2.983   2.353   6.877  0.0162  1.1133  0.3277
   28CHL1  H16A 3200   3.084   2.340   6.833  0.1468 -0.1920  0.9592
   28CHL1  H16B 3201   2.907   2.292   6.824  0.0914 -0.2793  1.7500
   28CHL1   C17 3202   2.937   2.497   6.860  0.0661 -1.1058  0.1123
   28CHL1   H17 3203   2.827   2.491   6.874  0.2577 -0.3598  2.3662
   28CHL1   C13 3204   2.987   2.570   6.982  0.4567  0.0894  0.4516
   28CHL1   C18 3205   3.146   2.591   6.959  0.0114  0.2218  0.3070
   28CHL1  H18A 3206   3.178   2.675   6.895  2.5392 -1.5238 -0.8716
   28CHL1  H18B 3207   3.191   2.612   7.059  0.4807  0.3371  0.0714
   28CHL1  H18C 3208   3.191   2.495   6.927 -1.9144 -0.7256  0.2536
   28CHL1   C12 3209   2.926   2.700   7.018 -0.1414 -0.7751 -0.5399
   28CHL1  H12A 3210   2.967   2.775   6.947  2.5215 -0.4659  1.1680
   28CHL1  H12B 3211   2.816   2.687   7.024 -0.1451 -0.2375  1.8478
   28CHL1   C11 3212   2.969   2.740   7.160 -0.2394 -0.9583 -0.7960
   28CHL1  H11A 3213   3.079   2.750   7.165 -0.1705 -2.3482  2.1916
   28CHL1  H11B 3214   2.910   2.833   7.175 -0.9879 -1.4477 -0.6605
   28CHL1    C9 3215   2.935   2.637   7.274  0.1181  0.1223  1.0246
   28CHL1    H9 3216   2.824   2.624   7.270  0.0330  1.0424 -0.0382
   28CHL1   C10 3217   2.963   2.677   7.420  0.1494 -0.1215  0.8575
   28CHL1   C19 3218   3.094   2.751   7.427  0.1309  0.0258  0.2863
   28CHL1  H19A 3219   3.172   2.690   7.377  0.4701  1.8063 -1.4905
   28CHL1  H19B 3220   3.101   2.851   7.378 -0.8009 -0.4008 -0.7531
   28CHL1  H19C 3221   3.114   2.773   7.534 -0.1318  2.4588 -0.1053
   28CHL1    C1 3222   2.848   2.779   7.448 -0.3892 -0.2192  0.3296
   28CHL1   H1A 3223   2.864   2.872   7.389  0.5624 -0.9402 -0.5918
   28CHL1   H1B 3224   2.751   2.735   7.415  0.0519 -0.5643 -0.5579
   28CHL1    C2 3225   2.843   2.815   7.598 -0.5200  0.0614 -0.3310
   28CHL1   H2A 3226   2.769   2.895   7.622 -0.3380  0.5797 -1.4110
   28CHL1   H2B 3227   2.942   2.861   7.620 -1.0979  0.9957  0.4070
   28CHL1   C20 3228   2.958   2.552   6.715  0.1077 -0.4274 -0.2947
   28CHL1   H20 3229   3.064   2.585   6.722  0.1804 -0.7716  0.3050
   28CHL1   C21 3230   2.847   2.659   6.695 -0.7266 -0.6012  0.8361
   28CHL1  H21A 3231   2.749   2.611   6.678 -0.6847 -1.0023  1.7144
   28CHL1  H21B 3232   2.859   2.730   6.610 -3.4313 -0.0223  0.8696
   28CHL1  H21C 3233   2.852   2.735   6.776  0.3991 -0.3170  0.5287
   28CHL1   C22 3234   2.950   2.446   6.603  0.2439  0.3550  0.0620
   28CHL1  H22A 3235   3.020   2.365   6.634  0.9086  0.0295 -2.1158
   28CHL1  H22B 3236   2.851   2.396   6.591  0.5550 -0.7184  1.6659
   28CHL1   C23 3237   2.993   2.503   6.472  0.4041 -0.0405  0.8233
   28CHL1  H23A 3238   3.059   2.591   6.489  1.7377 -1.4336  3.5328
   28CHL1  H23B 3239   3.053   2.425   6.421 -2.2981 -0.0448 -2.6760
   28CHL1   C24 3240   2.877   2.537   6.377  0.4117 -0.5826 -0.5594
   28CHL1  H24A 3241   2.801   2.459   6.403  0.6229 -0.3923  0.6980
   28CHL1  H24B 3242   2.833   2.639   6.386  1.7530  0.0315 -0.7705
   28CHL1   C25 3243   2.908   2.539   6.227  0.1686 -0.1705 -0.3046
   28CHL1   H25 3244   2.985   2.617   6.210 -1.1723  0.4474 -4.8950
   28CHL1   C26 3245   2.976   2.413   6.178 -0.1497  0.2355 -0.4004
   28CHL1  H26A 3246   2.911   2.324   6.194 -1.3463  1.4331  2.0622
   28CHL1  H26B 3247   2.995   2.427   6.070 -0.1074  1.3093 -0.2667
   28CHL1  H26C 3248   3.063   2.387   6.242 -1.6414 -0.1195  1.5945
   28CHL1   C27 3249   2.783   2.565   6.139 -0.4409 -1.0134  0.6493
   28CHL1  H27A 3250   2.829   2.594   6.041  0.6814  0.9356  1.6922
   28CHL1  H27B 3251   2.729   2.469   6.131 -4.7678  1.1503  1.1701
   28CHL1  H27C 3252   2.726   2.651   6.180  0.3162  0.3431 -0.9758
   29CHL1    C3 3253   5.592   4.703   7.300 -0.0314 -0.6622 -0.6344
   29CHL1    H3 3254   5.555   4.601   7.276  2.0405 -1.4246 -0.8064
   29CHL1    O3 3255   5.576   4.737   7.437  0.3395 -0.4585 -0.1379
   29CHL1   H3' 3256   5.661   4.721   7.479  1.1257  1.0862 -1.0411
   29CHL1    C4 3257   5.731   4.720   7.252  0.3756 -0.4598 -0.5380
   29CHL1   H4A 3258   5.777   4.820   7.267  0.4058 -0.7899  2.0503
   29CHL1   H4B 3259   5.803   4.657   7.308  0.9926  1.3396  0.8155
   29CHL1    C5 3260   5.737   4.693   7.102  0.3562  0.2066  0.3584
   29CHL1    C6 3261   5.827   4.610   7.054  0.9773  0.2949 -0.4998
   29CHL1    H6 3262   5.895   4.551   7.117  2.1669 -2.1589 -3.7372
   29CHL1    C7 3263   5.847   4.584   6.907  0.1298 -0.5324 -0.4676
   29CHL1   H7A 3264   5.955   4.578   6.880  0.3256  1.8654 -0.3719
   29CHL1   H7B 3265   5.808   4.483   6.879  0.6023  0.0648 -3.6375
   29CHL1    C8 3266   5.772   4.684   6.810 -0.1190  0.5134 -0.4966
   29CHL1    H8 3267   5.844   4.768   6.808 -0.4042  0.8662  1.5705
   29CHL1   C14 3268   5.741   4.633   6.672 -0.0540  0.0441 -0.2085
   29CHL1   H14 3269   5.665   4.553   6.680  0.3428 -0.8130 -3.7643
   29CHL1   C15 3270   5.861   4.579   6.601  0.1870 -0.2962 -0.2928
   29CHL1  H15A 3271   5.958   4.634   6.609 -1.3801  2.3900  1.9867
   29CHL1  H15B 3272   5.873   4.475   6.637 -2.4597 -0.2889  0.8339
   29CHL1   C16 3273   5.820   4.583   6.450 -0.3504 -0.3857 -0.1477
   29CHL1  H16A 3274   5.896   4.648   6.401 -0.2148  0.9872  1.7687
   29CHL1  H16B 3275   5.823   4.481   6.406 -0.3355 -0.9267  1.0761
   29CHL1   C17 3276   5.679   4.645   6.445 -0.1835  0.0574  0.0784
   29CHL1   H17 3277   5.607   4.561   6.452  0.8639 -0.8115  0.7622
   29CHL1   C13 3278   5.669   4.721   6.579  0.1317 -0.9083 -0.3292
   29CHL1   C18 3279   5.739   4.856   6.566 -0.5051 -0.2585  0.8336
   29CHL1  H18A 3280   5.845   4.843   6.533 -0.8769  1.5429 -1.2696
   29CHL1  H18B 3281   5.681   4.910   6.489 -2.2123 -2.7450  0.2545
   29CHL1  H18C 3282   5.751   4.910   6.663  4.4686 -1.2057  1.0294
   29CHL1   C12 3283   5.533   4.753   6.632  0.5292 -0.1992  0.3618
   29CHL1  H12A 3284   5.477   4.820   6.564  1.1856  1.1240  1.1044
   29CHL1  H12B 3285   5.476   4.657   6.627  1.0697 -0.6562  2.0497
   29CHL1   C11 3286   5.538   4.803   6.779 -0.9749  1.1041 -0.2278
   29CHL1  H11A 3287   5.582   4.905   6.767  1.1219  0.1998 -0.7382
   29CHL1  H11B 3288   5.436   4.803   6.823 -1.2849  0.9858 -0.9287
   29CHL1    C9 3289   5.633   4.716   6.872  0.5505 -0.2365  0.4526
   29CHL1    H9 3290   5.583   4.618   6.890 -1.1635 -0.0909 -2.6829
   29CHL1   C10 3291   5.634   4.778   7.017 -0.1914 -0.4181  0.0232
   29CHL1   C19 3292   5.679   4.921   6.999 -0.0053  0.0061  0.2671
   29CHL1  H19A 3293   5.714   4.969   7.092 -1.5452  1.5510  0.0934
   29CHL1  H19B 3294   5.765   4.902   6.931 -0.2668  0.1542 -0.1140
   29CHL1  H19C 3295   5.591   4.977   6.961 -1.4250 -2.0126  0.4049
   29CHL1    C1 3296   5.492   4.775   7.082  0.0090  0.1936 -0.3986
   29CHL1   H1A 3297   5.434   4.850   7.024  0.5804  0.9657  0.0134
   29CHL1   H1B 3298   5.444   4.677   7.057  1.6006 -0.6024 -0.4242
   29CHL1    C2 3299   5.486   4.803   7.233  0.8252 -0.2065 -0.3583
   29CHL1   H2A 3300   5.379   4.796   7.261  0.8934 -3.4722 -0.4981
   29CHL1   H2B 3301   5.530   4.904   7.250  0.9924 -0.4674  0.8372
   29CHL1   C20 3302   5.648   4.708   6.306 -0.4588  0.0907 -0.3123
   29CHL1   H20 3303   5.720   4.790   6.290  0.9188 -0.6288  1.8398
   29CHL1   C21 3304   5.509   4.774   6.313  0.1378  0.3325  0.1296
   29CHL1  H21A 3305   5.472   4.826   6.222 -1.0696  0.5250  0.7241
   29CHL1  H21B 3306   5.519   4.859   6.382 -0.1567 -0.6981  1.4770
   29CHL1  H21C 3307   5.433   4.704   6.354 -1.2248  2.1223  0.7393
   29CHL1   C22 3308   5.650   4.608   6.197  0.1262 -0.5672 -0.1311
   29CHL1  H22A 3309   5.733   4.535   6.203 -1.2703 -2.1492  0.8880
   29CHL1  H22B 3310   5.560   4.545   6.210 -0.6358  0.8256  2.0319
   29CHL1   C23 3311   5.635   4.668   6.056 -0.2579  0.3598 -0.1032
   29CHL1  H23A 3312   5.538   4.719   6.042 -1.3165 -1.8608 -1.5916
   29CHL1  H23B 3313   5.712   4.747   6.046 -0.9932  0.9031 -1.9118
   29CHL1   C24 3314   5.656   4.566   5.942 -1.0872  0.0959  0.4730
   29CHL1  H24A 3315   5.752   4.519   5.971 -1.1898 -1.3980 -1.3827
   29CHL1  H24B 3316   5.571   4.495   5.932 -2.6223  1.7329  1.3561
   29CHL1   C25 3317   5.671   4.636   5.810 -0.6132  0.0633  0.1230
   29CHL1   H25 3318   5.754   4.709   5.826 -2.0702  1.4517  1.7768
   29CHL1   C26 3319   5.705   4.534   5.700 -0.2571 -0.2032 -0.1653
   29CHL1  H26A 3320   5.805   4.495   5.729  0.2387  0.6635 -0.6715
   29CHL1  H26B 3321   5.630   4.453   5.691 -0.9507  0.5015 -0.8308
   29CHL1  H26C 3322   5.719   4.591   5.606 -0.0486  1.2249  0.6902
   29CHL1   C27 3323   5.551   4.722   5.778 -0.7316 -0.4650  0.4285
   29CHL1  H27A 3324   5.463   4.660   5.750 -1.1477  0.7656 -1.1246
   29CHL1  H27B 3325   5.529   4.801   5.854 -0.7404 -0.3773  0.3345
   29CHL1  H27C 3326   5.565   4.782   5.686 -0.2123  0.7487  1.2739
   30CHL1    C3 3327   5.441   1.146   7.532  0.4130  0.3022  0.1086
   30CHL1    H3 3328   5.399   1.044   7.535 -2.4978  1.4230  1.6193
   30CHL1    O3 3329   5.402   1.221   7.648  0.5356  0.4312 -0.1994
   30CHL1   H3' 3330   5.307   1.220   7.661  0.7431  1.2511  1.6858
   30CHL1    C4 3331   5.596   1.145   7.523  0.3631  1.6036 -0.6135
   30CHL1   H4A 3332   5.629   1.250   7.538  2.2703  0.8212  1.1264
   30CHL1   H4B 3333   5.625   1.084   7.610 -1.2874  0.3371 -0.8987
   30CHL1    C5 3334   5.651   1.088   7.395  0.3274 -0.0921  0.0953
   30CHL1    C6 3335   5.729   0.972   7.399  0.6153 -0.1233  0.2542
   30CHL1    H6 3336   5.760   0.919   7.490  1.0360 -1.4572 -0.6360
   30CHL1    C7 3337   5.800   0.931   7.274 -0.3100 -0.1058  0.6785
   30CHL1   H7A 3338   5.909   0.925   7.293 -0.3997  0.3393  1.3639
   30CHL1   H7B 3339   5.772   0.830   7.239  1.2483  0.2452 -1.8135
   30CHL1    C8 3340   5.784   1.028   7.154  1.2813 -0.1661  0.5000
   30CHL1    H8 3341   5.849   1.115   7.180  2.5362 -1.1376  0.6902
   30CHL1   C14 3342   5.807   0.957   7.017 -0.6796 -0.4672  0.5280
   30CHL1   H14 3343   5.728   0.880   7.016  0.1218 -1.4155 -2.7646
   30CHL1   C15 3344   5.937   0.883   7.022  0.1949  0.0192 -0.6146
   30CHL1  H15A 3345   6.006   0.950   7.077 -1.1999 -0.6765  2.1947
   30CHL1  H15B 3346   5.933   0.787   7.079  1.7454  0.4454  0.2645
   30CHL1   C16 3347   5.968   0.858   6.875 -0.5440 -0.2661 -0.0802
   30CHL1  H16A 3348   6.061   0.916   6.856 -1.8883  1.7277 -1.0220
   30CHL1  H16B 3349   5.972   0.750   6.851  0.0206 -0.4428  0.7781
   30CHL1   C17 3350   5.848   0.927   6.798 -0.3813  0.7780 -0.9478
   30CHL1   H17 3351   5.764   0.854   6.797 -1.5028  2.0208 -0.6148
   30CHL1   C13 3352   5.799   1.036   6.895 -0.2300 -0.2304 -0.1535
   30CHL1   C18 3353   5.902   1.153   6.906  0.4259 -0.4662 -0.2639
   30CHL1  H18A 3354   5.922   1.197   6.805 -1.8984 -1.5353 -1.2628
   30CHL1  H18B 3355   5.871   1.231   6.978  1.2342  0.3465 -0.7682
   30CHL1  H18C 3356   5.997   1.112   6.948 -1.2898 -2.7290  1.6615
   30CHL1   C12 3357   5.653   1.087   6.875  0.0671  0.2259  0.7080
   30CHL1  H12A 3358   5.647   1.155   6.788  0.5347 -0.2017  0.3302
   30CHL1  H12B 3359   5.590   0.995   6.869  1.4711 -0.7631  0.4856
   30CHL1   C11 3360   5.609   1.155   7.010 -0.2133  0.4859  0.3989
   30CHL1  H11A 3361   5.651   1.257   7.005  1.0779 -0.0170  0.5519
   30CHL1  H11B 3362   5.499   1.157   7.001 -0.0854 -0.6970 -2.4535
   30CHL1    C9 3363   5.648   1.084   7.141 -0.1046  0.3729 -0.1094
   30CHL1    H9 3364   5.582   0.994   7.139  0.9888 -0.6077  2.9373
   30CHL1   C10 3365   5.601   1.156   7.269 -0.7795  0.0116  0.5339
   30CHL1   C19 3366   5.645   1.308   7.270 -0.2323  0.0598  0.0214
   30CHL1  H19A 3367   5.738   1.307   7.210  0.0786  0.8682  0.4797
   30CHL1  H19B 3368   5.558   1.359   7.221 -0.6791 -1.4840 -0.8644
   30CHL1  H19C 3369   5.661   1.348   7.372  2.0742  0.6740 -0.5311
   30CHL1    C1 3370   5.443   1.142   7.280 -0.5357 -0.2205  0.2694
   30CHL1   H1A 3371   5.397   1.199   7.197 -1.7693 -0.6987  0.6013
   30CHL1   H1B 3372   5.410   1.039   7.254 -2.5839  0.3689  0.3558
   30CHL1    C2 3373   5.379   1.197   7.412 -0.6398  0.5565  0.4077
   30CHL1   H2A 3374   5.270   1.173   7.415 -1.6197  3.6640 -3.1121
   30CHL1   H2B 3375   5.393   1.307   7.410  2.8417  0.2184  0.8021
   30CHL1   C20 3376   5.881   0.976   6.661 -0.1721  0.4507  0.4412
   30CHL1   H20 3377   5.815   1.062   6.639  0.9938  0.8081 -1.9014
   30CHL1   C21 3378   5.836   0.866   6.558 -0.0965 -0.0384 -0.2288
   30CHL1  H21A 3379   5.905   0.780   6.548 -1.4164 -1.5389  2.4984
   30CHL1  H21B 3380   5.825   0.908   6.455 -1.3181  1.4618  0.4702
   30CHL1  H21C 3381   5.739   0.822   6.589 -0.6411 -0.1317 -1.9326
   30CHL1   C22 3382   6.026   1.025   6.623  1.1231  0.3693  0.2023
   30CHL1  H22A 3383   6.079   1.070   6.710  1.3836  0.5011 -0.0219
   30CHL1  H22B 3384   6.091   0.942   6.587  0.9051  1.1005 -2.0673
   30CHL1   C23 3385   6.020   1.127   6.507 -0.0432  0.0779  0.1193
   30CHL1  H23A 3386   5.973   1.070   6.424 -0.7757  2.0273 -0.8606
   30CHL1  H23B 3387   5.949   1.212   6.509 -1.9315 -1.3781 -1.1438
   30CHL1   C24 3388   6.159   1.180   6.464  0.8437 -0.4809 -0.0655
   30CHL1  H24A 3389   6.201   1.241   6.547 -0.7377  0.1035  0.3477
   30CHL1  H24B 3390   6.237   1.101   6.467 -1.6045 -3.0639  2.8906
   30CHL1   C25 3391   6.161   1.251   6.325  0.1033  0.0962 -0.0608
   30CHL1   H25 3392   6.062   1.299   6.305 -1.8421 -2.9109  1.5480
   30CHL1   C26 3393   6.284   1.344   6.307 -0.4801 -0.5093 -0.2043
   30CHL1  H26A 3394   6.294   1.416   6.391  1.4654 -1.0545  0.0734
   30CHL1  H26B 3395   6.380   1.289   6.314 -0.1874  0.2258  2.4669
   30CHL1  H26C 3396   6.289   1.389   6.205  0.0556 -0.6737 -0.2504
   30CHL1   C27 3397   6.179   1.151   6.205  0.3709 -0.2819  0.2113
   30CHL1  H27A 3398   6.278   1.103   6.189  0.6507  0.1467  0.6672
   30CHL1  H27B 3399   6.091   1.082   6.204  1.0185 -1.1274  0.6046
   30CHL1  H27C 3400   6.165   1.225   6.123  0.3793 -0.6486 -0.1273
   31CHL1    C3 3401   5.520   4.321   7.401 -0.5931 -0.6024 -0.0584
   31CHL1    H3 3402   5.534   4.428   7.374  4.0320 -0.9548  0.2112
   31CHL1    O3 3403   5.510   4.311   7.542 -0.3474 -0.3230  0.5658
   31CHL1   H3' 3404   5.578   4.369   7.578  0.8547  0.5923 -2.8440
   31CHL1    C4 3405   5.407   4.258   7.331  0.1413 -0.2149  0.7653
   31CHL1   H4A 3406   5.414   4.149   7.351 -0.7059 -0.5125 -0.4245
   31CHL1   H4B 3407   5.312   4.292   7.377  0.1799 -1.6570  2.0057
   31CHL1    C5 3408   5.424   4.272   7.177 -0.0245  0.2931 -0.8263
   31CHL1    C6 3409   5.338   4.342   7.103 -0.2284 -0.2109 -0.5570
   31CHL1    H6 3410   5.254   4.399   7.146  0.4981  1.1488 -0.8872
   31CHL1    C7 3411   5.342   4.356   6.949  0.0617  0.9237  0.1574
   31CHL1   H7A 3412   5.238   4.356   6.910 -0.4283  1.4995  1.4032
   31CHL1   H7B 3413   5.385   4.455   6.926  0.3552  0.0191 -3.7985
   31CHL1    C8 3414   5.429   4.246   6.883  0.3673  0.3863 -0.9207
   31CHL1    H8 3415   5.374   4.150   6.892  1.2309  0.0102  0.5226
   31CHL1   C14 3416   5.451   4.276   6.745 -0.1428  0.3406 -0.3584
   31CHL1   H14 3417   5.496   4.378   6.751 -0.7966  0.6773 -1.0086
   31CHL1   C15 3418   5.325   4.288   6.655  0.1049  0.0608 -0.6320
   31CHL1  H15A 3419   5.246   4.219   6.691  0.2462  1.3747  2.5308
   31CHL1  H15B 3420   5.294   4.395   6.661  1.7148  0.4891  1.8287
   31CHL1   C16 3421   5.383   4.267   6.516  0.0243 -0.2050  0.0454
   31CHL1  H16A 3422   5.321   4.188   6.469 -1.8141  1.1267  0.1164
   31CHL1  H16B 3423   5.366   4.354   6.449  0.7815  0.3406  0.5456
   31CHL1   C17 3424   5.532   4.238   6.538  0.3441  0.5550  0.0509
   31CHL1   H17 3425   5.583   4.337   6.540  0.1581  0.6366  2.3065
   31CHL1   C13 3426   5.545   4.179   6.674  0.4514  0.4154 -0.2154
   31CHL1   C18 3427   5.488   4.032   6.681 -0.4302  0.4078  0.1171
   31CHL1  H18A 3428   5.550   3.961   6.621 -0.6259 -0.6117  1.0906
   31CHL1  H18B 3429   5.491   3.993   6.785  1.7371 -0.2875 -0.1621
   31CHL1  H18C 3430   5.386   4.022   6.638 -1.6827  2.1310  2.4507
   31CHL1   C12 3431   5.685   4.179   6.742  0.2029  0.2805  0.1091
   31CHL1  H12A 3432   5.753   4.101   6.701  0.5236 -0.2101  1.5202
   31CHL1  H12B 3433   5.724   4.283   6.727 -0.4473  0.9140  2.4334
   31CHL1   C11 3434   5.675   4.151   6.895 -0.1432  0.4431  0.1900
   31CHL1  H11A 3435   5.657   4.044   6.918 -1.7098  1.2590  3.4962
   31CHL1  H11B 3436   5.780   4.164   6.930  0.6666  1.3201 -2.3684
   31CHL1    C9 3437   5.567   4.238   6.970  0.5548 -0.8104 -0.4990
   31CHL1    H9 3438   5.600   4.343   6.981 -0.0455 -0.6905  0.3005
   31CHL1   C10 3439   5.544   4.205   7.115  0.5110  0.4704  0.1223
   31CHL1   C19 3440   5.527   4.046   7.135  0.0850  0.4299  0.1955
   31CHL1  H19A 3441   5.629   4.003   7.134 -0.4896 -1.1695  2.6868
   31CHL1  H19B 3442   5.470   4.020   7.227  1.9301  1.9802  1.8755
   31CHL1  H19C 3443   5.471   4.014   7.045 -1.3607  0.0675  1.1832
   31CHL1    C1 3444   5.669   4.252   7.199 -0.1592 -0.0724  0.1683
   31CHL1   H1A 3445   5.767   4.210   7.166 -0.1444 -0.1676  0.3349
   31CHL1   H1B 3446   5.693   4.357   7.171  1.0265 -0.2151  0.5816
   31CHL1    C2 3447   5.655   4.251   7.357  0.1733 -0.0772  0.0611
   31CHL1   H2A 3448   5.744   4.297   7.404  1.0547 -0.4817 -1.1662
   31CHL1   H2B 3449   5.649   4.149   7.400 -1.7647  0.0537  0.2014
   31CHL1   C20 3450   5.597   4.161   6.420  0.2021  0.4602  0.4877
   31CHL1   H20 3451   5.586   4.052   6.436  1.0473  0.5700  1.9113
   31CHL1   C21 3452   5.752   4.170   6.428  0.2300 -0.2741 -0.3109
   31CHL1  H21A 3453   5.801   4.129   6.338 -1.2807 -2.8626 -0.0451
   31CHL1  H21B 3454   5.774   4.097   6.509 -1.8594  1.2402  1.7488
   31CHL1  H21C 3455   5.789   4.268   6.464  1.6078 -0.5353 -0.9507
   31CHL1   C22 3456   5.545   4.207   6.281  0.3213 -0.1765  1.0212
   31CHL1  H22A 3457   5.435   4.219   6.282 -0.0939 -2.1721 -2.4951
   31CHL1  H22B 3458   5.577   4.309   6.251 -0.9637 -0.5183 -1.9085
   31CHL1   C23 3459   5.558   4.104   6.168  0.2584 -0.1376 -1.0056
   31CHL1  H23A 3460   5.665   4.088   6.141  0.0373  0.4974 -2.3800
   31CHL1  H23B 3461   5.521   4.010   6.213  2.2581 -0.3919  0.2043
   31CHL1   C24 3462   5.478   4.151   6.047 -0.9198  0.7437 -0.1382
   31CHL1  H24A 3463   5.371   4.156   6.076 -0.2596  1.5624  2.4544
   31CHL1  H24B 3464   5.499   4.255   6.015 -2.4944  0.8647 -0.8595
   31CHL1   C25 3465   5.505   4.066   5.919 -0.6918 -0.6436  0.0325
   31CHL1   H25 3466   5.486   3.957   5.931  0.8179 -0.9799 -0.3708
   31CHL1   C26 3467   5.406   4.110   5.809 -1.2506  0.1284  0.4997
   31CHL1  H26A 3468   5.304   4.095   5.849 -0.8035 -0.4267  1.4807
   31CHL1  H26B 3469   5.424   4.218   5.788 -2.2099  0.2894  0.4613
   31CHL1  H26C 3470   5.428   4.052   5.717  0.9836  0.1985  0.9372
   31CHL1   C27 3471   5.653   4.077   5.866  0.1605  0.7859 -0.4479
   31CHL1  H27A 3472   5.679   4.186   5.864 -0.0463  0.9563  2.0286
   31CHL1  H27B 3473   5.718   4.030   5.943  1.1118  1.1863 -0.9868
   31CHL1  H27C 3474   5.659   4.029   5.767 -0.3911  0.3988 -0.2971
   32CHL1    C3 3475   6.156   4.427   7.446  0.5232 -0.8441 -0.0538
   32CHL1    H3 3476   6.054   4.469   7.433  0.9798  0.7104  1.1096
   32CHL1    O3 3477   6.185   4.402   7.580 -0.7201 -0.0778  0.1724
   32CHL1   H3' 3478   6.276   4.372   7.566 -0.3389  0.8559  0.5353
   32CHL1    C4 3479   6.162   4.298   7.362  0.1257 -0.3176  0.0606
   32CHL1   H4A 3480   6.258   4.254   7.398 -0.7332 -2.6325 -0.3100
   32CHL1   H4B 3481   6.097   4.218   7.403  1.5834 -1.4462  0.2517
   32CHL1    C5 3482   6.167   4.316   7.207 -0.1555  0.2026 -0.8551
   32CHL1    C6 3483   6.080   4.249   7.128 -0.8754 -0.2424  0.4325
   32CHL1    H6 3484   5.999   4.183   7.162 -3.1444  0.4253 -3.1368
   32CHL1    C7 3485   6.092   4.248   6.978  0.5463 -0.4954 -0.1139
   32CHL1   H7A 3486   6.085   4.146   6.935 -1.9086  0.9348 -3.6225
   32CHL1   H7B 3487   6.005   4.306   6.942  1.2505  1.6559  1.4311
   32CHL1    C8 3488   6.221   4.323   6.924 -0.1336 -0.1762  0.7301
   32CHL1    H8 3489   6.308   4.257   6.943  0.0553 -0.2494 -0.3464
   32CHL1   C14 3490   6.204   4.354   6.780 -0.7265  0.0476  0.2904
   32CHL1   H14 3491   6.112   4.416   6.774 -0.7082  0.0780  0.3227
   32CHL1   C15 3492   6.178   4.236   6.682  0.0855 -0.0586 -1.1842
   32CHL1  H15A 3493   6.255   4.157   6.696  1.5383  1.6655  1.7108
   32CHL1  H15B 3494   6.077   4.193   6.702  0.5379  0.2197  2.5566
   32CHL1   C16 3495   6.187   4.305   6.544  0.5972 -0.6198  0.1050
   32CHL1  H16A 3496   6.241   4.235   6.477 -0.4582  1.3524 -3.0521
   32CHL1  H16B 3497   6.085   4.327   6.506  1.1849  4.0561  0.5882
   32CHL1   C17 3498   6.259   4.441   6.569 -0.1282 -0.3584  0.5501
   32CHL1   H17 3499   6.188   4.526   6.565  1.9783  1.4346 -2.2717
   32CHL1   C13 3500   6.317   4.441   6.710  0.2990  0.2853  0.5147
   32CHL1   C18 3501   6.441   4.358   6.715  0.0909 -0.7315 -0.5582
   32CHL1  H18A 3502   6.532   4.416   6.689 -0.6868  0.6557 -0.2905
   32CHL1  H18B 3503   6.449   4.323   6.821 -1.7213 -0.9242 -0.4553
   32CHL1  H18C 3504   6.437   4.262   6.659 -0.2917  0.1444 -2.0844
   32CHL1   C12 3505   6.324   4.567   6.792 -0.1153 -0.9301  0.2930
   32CHL1  H12A 3506   6.407   4.628   6.749 -1.0504 -0.9632 -1.6720
   32CHL1  H12B 3507   6.233   4.624   6.764  1.5246  1.4100 -0.7180
   32CHL1   C11 3508   6.353   4.534   6.938  0.7083  0.3856 -0.2908
   32CHL1  H11A 3509   6.452   4.483   6.948 -0.6089 -2.0803  1.2115
   32CHL1  H11B 3510   6.368   4.630   6.992 -0.3583 -0.3863  1.4666
   32CHL1    C9 3511   6.243   4.447   6.998  0.5515 -0.4980 -0.0241
   32CHL1    H9 3512   6.151   4.508   6.993  0.8703  0.0060  0.1938
   32CHL1   C10 3513   6.267   4.418   7.151  0.4803  0.5903  0.2892
   32CHL1   C19 3514   6.402   4.352   7.176 -0.3534 -0.0298  0.0166
   32CHL1  H19A 3515   6.418   4.248   7.138 -1.1560 -0.2684  0.3147
   32CHL1  H19B 3516   6.480   4.420   7.136 -1.7750  0.2682 -2.4796
   32CHL1  H19C 3517   6.420   4.328   7.283  0.8097  0.7576  0.0121
   32CHL1    C1 3518   6.241   4.544   7.233 -0.4665 -0.3107 -0.4927
   32CHL1   H1A 3519   6.313   4.622   7.203 -1.4320  1.1218  0.7604
   32CHL1   H1B 3520   6.137   4.564   7.201 -0.3261  0.3941 -0.5122
   32CHL1    C2 3521   6.253   4.534   7.393 -0.8115 -0.0053  0.6916
   32CHL1   H2A 3522   6.224   4.629   7.444 -1.1380 -0.2246  0.9154
   32CHL1   H2B 3523   6.360   4.516   7.417 -0.6825  0.6906  0.6759
   32CHL1   C20 3524   6.350   4.472   6.450  0.2691 -0.4261  0.0138
   32CHL1   H20 3525   6.432   4.398   6.453  0.7293 -0.0362 -1.7821
   32CHL1   C21 3526   6.414   4.612   6.463  0.7173  0.8087  0.0836
   32CHL1  H21A 3527   6.490   4.630   6.384  0.5923  2.9868  0.3978
   32CHL1  H21B 3528   6.469   4.613   6.559  1.2945 -0.5134 -0.2096
   32CHL1  H21C 3529   6.348   4.701   6.448  1.1554  1.1248  0.0158
   32CHL1   C22 3530   6.300   4.458   6.299 -1.3829  0.4492 -0.5075
   32CHL1  H22A 3531   6.375   4.497   6.228  0.0512  0.4048  0.9351
   32CHL1  H22B 3532   6.283   4.350   6.277 -2.5910  0.1333  1.6677
   32CHL1   C23 3533   6.164   4.535   6.273  0.0173  0.7891 -0.7899
   32CHL1  H23A 3534   6.091   4.496   6.347 -0.6862 -1.0093 -2.3794
   32CHL1  H23B 3535   6.167   4.645   6.292 -0.8351  0.6234  0.4489
   32CHL1   C24 3536   6.106   4.535   6.128  0.2382  0.0255  0.0091
   32CHL1  H24A 3537   5.999   4.564   6.132  0.0635 -0.7029  1.1417
   32CHL1  H24B 3538   6.152   4.609   6.059 -0.8123 -0.3311 -1.0992
   32CHL1   C25 3539   6.110   4.400   6.061  0.0754  0.0039 -0.5109
   32CHL1   H25 3540   6.212   4.357   6.056  1.2231  2.2170  1.6486
   32CHL1   C26 3541   6.037   4.289   6.141  0.4155  0.3366  0.1585
   32CHL1  H26A 3542   6.060   4.184   6.116  0.7398 -0.4537  3.3362
   32CHL1  H26B 3543   6.057   4.308   6.249  1.9210  1.3158 -0.2549
   32CHL1  H26C 3544   5.928   4.306   6.126  0.5525 -0.4194 -2.0291
   32CHL1   C27 3545   6.055   4.420   5.918  0.1409  0.1665 -0.4071
   32CHL1  H27A 3546   6.041   4.318   5.876 -0.6201  1.0199 -2.3648
   32CHL1  H27B 3547   5.954   4.463   5.937 -0.8181 -1.2153 -2.0710
   32CHL1  H27C 3548   6.107   4.490   5.848 -2.5787  3.6360  0.7470
   33CHL1    C3 3549   5.204   2.268   7.372  1.2721  0.7252  0.0670
   33CHL1    H3 3550   5.107   2.306   7.334  0.3768  1.2662  2.7255
   33CHL1    O3 3551   5.187   2.281   7.510 -0.9455 -0.6513  0.6092
   33CHL1   H3' 3552   5.271   2.259   7.551 -2.2335 -2.2544  2.6004
   33CHL1    C4 3553   5.227   2.123   7.342 -0.7450 -0.1275  0.1979
   33CHL1   H4A 3554   5.321   2.090   7.390  1.4821  0.7365 -3.2260
   33CHL1   H4B 3555   5.138   2.068   7.379 -1.5720  1.7846  1.1299
   33CHL1    C5 3556   5.252   2.090   7.195  0.0556  0.1297 -0.7172
   33CHL1    C6 3557   5.187   1.987   7.142  0.4790  0.3092 -0.2205
   33CHL1    H6 3558   5.125   1.927   7.210  0.6101  0.0243 -0.3546
   33CHL1    C7 3559   5.198   1.939   6.997 -0.0279 -0.7169  0.4815
   33CHL1   H7A 3560   5.208   1.829   6.986 -0.0864 -0.6329 -0.5634
   33CHL1   H7B 3561   5.105   1.968   6.943  1.4629  1.9123 -0.8549
   33CHL1    C8 3562   5.311   2.016   6.925 -0.3581 -0.4942 -0.0367
   33CHL1    H8 3563   5.408   1.970   6.954 -0.2831  0.5693  1.5156
   33CHL1   C14 3564   5.308   1.997   6.770  0.1321 -0.1617 -0.6502
   33CHL1   H14 3565   5.216   2.053   6.744 -1.4196 -2.0291  0.4674
   33CHL1   C15 3566   5.293   1.850   6.722  0.5793 -0.7070 -0.7618
   33CHL1  H15A 3567   5.354   1.782   6.786 -0.4148  0.2251  1.2724
   33CHL1  H15B 3568   5.186   1.823   6.714  0.0993  0.1040  2.0387
   33CHL1   C16 3569   5.342   1.872   6.577  0.3686 -0.7151 -0.5502
   33CHL1  H16A 3570   5.441   1.822   6.568  0.5779 -0.7170  1.3804
   33CHL1  H16B 3571   5.278   1.840   6.493 -2.1173  1.5629  0.3381
   33CHL1   C17 3572   5.388   2.018   6.556 -0.2290 -0.1216  0.3520
   33CHL1   H17 3573   5.292   2.060   6.520 -1.0662 -2.2167  0.0021
   33CHL1   C13 3574   5.419   2.065   6.700 -0.2960  0.6747  0.6440
   33CHL1   C18 3575   5.562   2.007   6.730  0.0756 -0.6863 -0.0509
   33CHL1  H18A 3576   5.571   1.904   6.689 -1.2860 -1.2539  1.0119
   33CHL1  H18B 3577   5.634   2.075   6.681 -0.9048  0.5981  0.2495
   33CHL1  H18C 3578   5.587   2.000   6.838 -3.3523 -0.9406  0.8557
   33CHL1   C12 3579   5.425   2.213   6.736 -0.3572  0.0061  0.5368
   33CHL1  H12A 3580   5.522   2.253   6.696 -0.8239  0.1887 -0.4531
   33CHL1  H12B 3581   5.344   2.273   6.690  1.2174  0.4988 -1.7953
   33CHL1   C11 3582   5.436   2.236   6.886  0.0818 -0.0254 -0.9187
   33CHL1  H11A 3583   5.539   2.210   6.918  0.0198  0.2621 -0.4784
   33CHL1  H11B 3584   5.439   2.344   6.913  2.7402  0.2284 -1.8771
   33CHL1    C9 3585   5.328   2.162   6.971 -0.2390 -0.3398 -0.7662
   33CHL1    H9 3586   5.232   2.210   6.945  0.3509  0.8379 -0.8345
   33CHL1   C10 3587   5.349   2.184   7.122  0.3299  0.0798 -0.5661
   33CHL1   C19 3588   5.499   2.159   7.166 -0.4428  0.2151  0.5514
   33CHL1  H19A 3589   5.527   2.057   7.133 -0.8045  0.3582 -0.2381
   33CHL1  H19B 3590   5.575   2.227   7.122 -0.0076 -1.1735 -0.9440
   33CHL1  H19C 3591   5.523   2.165   7.274  1.3706  0.0311  0.1873
   33CHL1    C1 3592   5.321   2.330   7.165 -0.1578 -0.4043 -0.7062
   33CHL1   H1A 3593   5.401   2.396   7.127  1.3688 -0.0233  2.8417
   33CHL1   H1B 3594   5.226   2.354   7.112 -1.8661 -4.4412  0.1427
   33CHL1    C2 3595   5.320   2.354   7.316  0.2997 -0.0629 -0.8140
   33CHL1   H2A 3596   5.289   2.459   7.333 -2.1067 -0.7625 -0.5085
   33CHL1   H2B 3597   5.419   2.334   7.364 -0.6127 -3.5692 -0.0788
   33CHL1   C20 3598   5.485   2.049   6.437  0.1778 -0.5913  0.1884
   33CHL1   H20 3599   5.592   2.061   6.465  0.0576 -0.5626  0.6479
   33CHL1   C21 3600   5.440   2.197   6.395 -0.9497  0.6686 -0.6531
   33CHL1  H21A 3601   5.471   2.266   6.476  0.8224 -1.0704  0.2140
   33CHL1  H21B 3602   5.332   2.210   6.372 -0.9276 -0.1260 -1.2444
   33CHL1  H21C 3603   5.495   2.231   6.304  0.2696 -1.9995 -1.0133
   33CHL1   C22 3604   5.475   1.949   6.322  0.8056 -0.9287 -0.4156
   33CHL1  H22A 3605   5.501   1.846   6.353  1.8716 -1.1046 -1.7549
   33CHL1  H22B 3606   5.372   1.959   6.281  0.4930 -2.0568  0.0704
   33CHL1   C23 3607   5.568   1.990   6.208  0.0301  0.5323 -0.3212
   33CHL1  H23A 3608   5.505   2.049   6.138 -1.1793  0.0036  0.2961
   33CHL1  H23B 3609   5.650   2.055   6.247 -0.6578  0.0812  2.0346
   33CHL1   C24 3610   5.638   1.878   6.122  0.0047 -0.1438 -0.1603
   33CHL1  H24A 3611   5.702   1.933   6.050  0.6258  1.3005  1.4301
   33CHL1  H24B 3612   5.716   1.830   6.185 -0.2731 -0.4210 -0.0233
   33CHL1   C25 3613   5.547   1.766   6.057 -0.0526 -0.5738  0.1639
   33CHL1   H25 3614   5.486   1.716   6.134 -0.3444 -0.1347  0.2213
   33CHL1   C26 3615   5.469   1.823   5.945  0.6613 -0.0859 -0.1188
   33CHL1  H26A 3616   5.544   1.847   5.867 -2.5476  0.0996 -3.4136
   33CHL1  H26B 3617   5.401   1.745   5.905 -0.4962 -0.4819  2.4405
   33CHL1  H26C 3618   5.418   1.913   5.984  0.7673 -0.1548  0.1785
   33CHL1   C27 3619   5.639   1.653   5.995  0.3584  0.1649 -0.4921
   33CHL1  H27A 3620   5.719   1.692   5.928 -0.4613  3.5163  0.3336
   33CHL1  H27B 3621   5.666   1.584   6.079  1.4393  1.5756  0.3673
   33CHL1  H27C 3622   5.581   1.592   5.923  0.0251 -1.2454  0.9003
   34CHL1    C3 3623   0.292   3.643   7.253 -1.0260  0.1397 -0.3326
   34CHL1    H3 3624   0.241   3.545   7.246 -2.3938  0.8203 -0.1843
   34CHL1    O3 3625   0.316   3.665   7.390 -0.3563 -0.7849  0.0736
   34CHL1   H3' 3626   0.349   3.755   7.399 -1.2946 -0.5682  1.9039
   34CHL1    C4 3627   0.425   3.641   7.172 -0.4837  0.5151 -0.0428
   34CHL1   H4A 3628   0.478   3.737   7.183  1.5583 -0.6795  1.2384
   34CHL1   H4B 3629   0.496   3.562   7.205 -0.4269  0.7469  0.3973
   34CHL1    C5 3630   0.395   3.627   7.022  0.4358  0.4416 -0.4151
   34CHL1    C6 3631   0.435   3.525   6.941  0.5552 -0.6265 -0.0976
   34CHL1    H6 3632   0.492   3.434   6.964  0.8249 -1.4753 -3.5768
   34CHL1    C7 3633   0.411   3.524   6.794 -0.4696 -0.1100 -0.3339
   34CHL1   H7A 3634   0.505   3.493   6.744 -0.3585  1.6673 -1.3235
   34CHL1   H7B 3635   0.342   3.441   6.769  0.1549 -0.9094  0.5257
   34CHL1    C8 3636   0.368   3.661   6.733  0.8585  0.6225 -0.8598
   34CHL1    H8 3637   0.454   3.730   6.734  0.2949  1.3381 -0.5117
   34CHL1   C14 3638   0.314   3.635   6.589  0.4526  0.2883 -0.1235
   34CHL1   H14 3639   0.244   3.548   6.596  0.3517  0.3682 -0.1476
   34CHL1   C15 3640   0.422   3.585   6.491 -0.2757  0.6399  0.0725
   34CHL1  H15A 3641   0.514   3.647   6.489  0.4112 -0.3766 -0.9624
   34CHL1  H15B 3642   0.449   3.479   6.511  1.3854  1.1162  0.5015
   34CHL1   C16 3643   0.351   3.598   6.357  0.3191 -0.5216 -0.2158
   34CHL1  H16A 3644   0.413   3.652   6.282 -1.8944  2.0466 -0.3847
   34CHL1  H16B 3645   0.306   3.505   6.317 -0.7494 -0.2267  0.2465
   34CHL1   C17 3646   0.221   3.686   6.379 -0.3415 -0.7361  0.4797
   34CHL1   H17 3647   0.123   3.634   6.388 -1.3523  0.8876 -0.6062
   34CHL1   C13 3648   0.245   3.752   6.517 -0.2965  0.0237  0.6394
   34CHL1   C18 3649   0.349   3.859   6.490 -0.3704  0.4935  0.1987
   34CHL1  H18A 3650   0.435   3.820   6.431  0.8475  2.1061  0.8439
   34CHL1  H18B 3651   0.303   3.939   6.427  0.3002  0.2058 -0.6813
   34CHL1  H18C 3652   0.391   3.897   6.585 -1.6070  3.2275 -0.2468
   34CHL1   C12 3653   0.136   3.807   6.607  0.1862 -0.2087 -0.4055
   34CHL1  H12A 3654   0.092   3.898   6.560 -0.5687 -0.9597 -1.1739
   34CHL1  H12B 3655   0.055   3.732   6.617  1.3224 -1.2929  1.0652
   34CHL1   C11 3656   0.188   3.844   6.749 -0.5258  0.1655 -0.6826
   34CHL1  H11A 3657   0.257   3.929   6.730  0.6700 -0.8236 -0.9016
   34CHL1  H11B 3658   0.112   3.895   6.812 -2.3459 -0.8123 -1.9712
   34CHL1    C9 3659   0.254   3.716   6.814 -0.3141 -0.6928 -0.1312
   34CHL1    H9 3660   0.179   3.635   6.828  1.8425 -2.6969  0.5150
   34CHL1   C10 3661   0.299   3.737   6.962  0.3490 -0.4978 -0.4134
   34CHL1   C19 3662   0.370   3.872   6.965  0.6003  0.6131  0.4310
   34CHL1  H19A 3663   0.442   3.879   6.880 -0.0465  2.2183 -0.0207
   34CHL1  H19B 3664   0.296   3.954   6.959  0.4591  0.4993  0.6503
   34CHL1  H19C 3665   0.416   3.896   7.063  0.4539 -0.1208  0.6812
   34CHL1    C1 3666   0.173   3.741   7.058  0.2080 -0.0061 -0.1222
   34CHL1   H1A 3667   0.108   3.828   7.034  0.3091  0.9001  2.5831
   34CHL1   H1B 3668   0.114   3.651   7.028  1.0650  0.2375 -2.7708
   34CHL1    C2 3669   0.194   3.757   7.213 -0.1658  0.7569  0.4190
   34CHL1   H2A 3670   0.098   3.748   7.269 -1.4508 -0.1572 -1.8037
   34CHL1   H2B 3671   0.228   3.861   7.230 -0.6859  0.8991  0.5978
   34CHL1   C20 3672   0.193   3.780   6.257  0.0538 -0.0297 -0.7016
   34CHL1   H20 3673   0.269   3.860   6.247  0.5338  0.5222  4.5221
   34CHL1   C21 3674   0.063   3.857   6.265 -0.0239 -0.0488 -0.6650
   34CHL1  H21A 3675   0.036   3.915   6.174 -0.0226  0.7201 -0.1919
   34CHL1  H21B 3676   0.071   3.935   6.344  1.6660 -1.2356  0.4183
   34CHL1  H21C 3677  -0.019   3.787   6.288  0.7590 -0.1319  2.4036
   34CHL1   C22 3678   0.193   3.706   6.120 -0.4144 -0.0402 -0.0692
   34CHL1  H22A 3679   0.263   3.619   6.122  0.1311  0.3931  2.0543
   34CHL1  H22B 3680   0.095   3.654   6.121 -0.2134 -0.4280  0.9009
   34CHL1   C23 3681   0.206   3.788   5.993  0.1310  0.2630 -0.7312
   34CHL1  H23A 3682   0.111   3.835   5.960  1.2012  1.8163 -1.7677
   34CHL1  H23B 3683   0.291   3.859   5.999  0.1941  0.6288 -4.0523
   34CHL1   C24 3684   0.237   3.685   5.888  0.6142 -0.1120  0.2504
   34CHL1  H24A 3685   0.341   3.653   5.909  1.3046 -1.0836 -3.8891
   34CHL1  H24B 3686   0.173   3.595   5.880  0.3948 -0.1523  2.0388
   34CHL1   C25 3687   0.229   3.752   5.753  0.3920  0.0243 -0.5170
   34CHL1   H25 3688   0.267   3.857   5.762 -1.4518  0.6378  0.5447
   34CHL1   C26 3689   0.331   3.697   5.644 -0.2132  0.5977 -0.5414
   34CHL1  H26A 3690   0.303   3.596   5.607  1.0503  0.2192 -0.5151
   34CHL1  H26B 3691   0.340   3.764   5.556 -0.6333 -1.0050 -1.8548
   34CHL1  H26C 3692   0.431   3.671   5.684  0.0785  1.0364 -0.9675
   34CHL1   C27 3693   0.096   3.773   5.692  0.8142  0.1005  0.4258
   34CHL1  H27A 3694   0.069   3.683   5.632  0.7164  0.2044  0.3138
   34CHL1  H27B 3695   0.009   3.793   5.758  0.4201 -0.0559 -0.0406
   34CHL1  H27C 3696   0.095   3.860   5.624 -0.6943  1.2288  1.8133
   35CHL1    C3 3697   1.220   0.834   8.019  0.1695  0.0013  0.5574
   35CHL1    H3 3698   1.109   0.829   8.007  0.3142  0.3192 -1.3325
   35CHL1    O3 3699   1.236   0.837   8.158 -0.7640 -0.0597  0.0941
   35CHL1   H3' 3700   1.186   0.912   8.191  0.7371  0.0554  2.3468
   35CHL1    C4 3701   1.279   0.710   7.959  0.3549 -0.3058  0.2890
   35CHL1   H4A 3702   1.388   0.711   7.981  0.5328  1.0318 -0.5546
   35CHL1   H4B 3703   1.231   0.625   8.012 -1.7706  0.7102  0.1028
   35CHL1    C5 3704   1.259   0.702   7.809  0.2843 -0.1350 -0.5661
   35CHL1    C6 3705   1.204   0.594   7.753  0.8552 -0.2944 -0.0324
   35CHL1    H6 3706   1.171   0.507   7.812 -0.5889  1.5852  2.0854
   35CHL1    C7 3707   1.203   0.571   7.601 -0.1124 -0.1380  0.8075
   35CHL1   H7A 3708   1.268   0.485   7.575  1.0147  0.7794  0.5371
   35CHL1   H7B 3709   1.101   0.551   7.562 -0.1583  1.5201  0.0014
   35CHL1    C8 3710   1.266   0.693   7.519  0.2808  0.3127  0.0463
   35CHL1    H8 3711   1.372   0.664   7.504 -0.2267 -0.9500 -1.3465
   35CHL1   C14 3712   1.208   0.700   7.374  0.8124  0.3710 -0.3187
   35CHL1   H14 3713   1.099   0.708   7.391  0.7944 -0.0848 -0.1900
   35CHL1   C15 3714   1.216   0.581   7.280  0.1058  0.7057  0.0819
   35CHL1  H15A 3715   1.315   0.532   7.288  0.7982  1.8832 -0.8881
   35CHL1  H15B 3716   1.129   0.514   7.300 -0.5327  1.3354 -0.5240
   35CHL1   C16 3717   1.222   0.630   7.137  0.2285  0.0678  0.6274
   35CHL1  H16A 3718   1.319   0.615   7.086  0.9017  0.9511  1.5960
   35CHL1  H16B 3719   1.135   0.581   7.088 -2.8316  2.4555  3.1759
   35CHL1   C17 3720   1.193   0.782   7.160  0.0945 -0.5877  0.2251
   35CHL1   H17 3721   1.085   0.806   7.174  0.2292  1.2279 -1.3641
   35CHL1   C13 3722   1.256   0.822   7.296  0.0518  0.0946  0.1545
   35CHL1   C18 3723   1.409   0.823   7.273 -0.4534 -0.1874 -0.5730
   35CHL1  H18A 3724   1.469   0.841   7.364 -0.5032  0.8122 -0.7192
   35CHL1  H18B 3725   1.447   0.723   7.243 -0.7242 -1.0295  1.7341
   35CHL1  H18C 3726   1.445   0.902   7.203 -1.2379  0.5836 -0.1111
   35CHL1   C12 3727   1.213   0.954   7.370  0.6640 -0.3176  0.5285
   35CHL1  H12A 3728   1.241   1.045   7.312 -0.6903  0.2764  0.7514
   35CHL1  H12B 3729   1.102   0.951   7.379  0.6663 -3.7929  0.4279
   35CHL1   C11 3730   1.273   0.957   7.515  0.6190 -0.5363 -0.0171
   35CHL1  H11A 3731   1.379   0.991   7.511 -0.4294  3.4888  1.3931
   35CHL1  H11B 3732   1.209   1.027   7.572  1.0435  0.5907 -0.8810
   35CHL1    C9 3733   1.248   0.824   7.595  0.3040  0.8288  0.4822
   35CHL1    H9 3734   1.140   0.831   7.622  0.5980  2.4133  1.4241
   35CHL1   C10 3735   1.310   0.824   7.738 -0.4121 -0.5686  0.4657
   35CHL1   C19 3736   1.468   0.835   7.734  0.2134  0.6899 -0.8071
   35CHL1  H19A 3737   1.500   0.846   7.840 -1.9365  1.5672 -0.2032
   35CHL1  H19B 3738   1.516   0.743   7.694 -0.3045  0.6448 -1.3390
   35CHL1  H19C 3739   1.501   0.925   7.678 -2.2230  2.8577  1.0025
   35CHL1    C1 3740   1.268   0.954   7.810 -0.0206 -0.5657 -0.1199
   35CHL1   H1A 3741   1.312   1.042   7.757 -1.2572 -0.4441 -0.9768
   35CHL1   H1B 3742   1.163   0.983   7.788  0.4876  0.8128 -0.8834
   35CHL1    C2 3743   1.284   0.959   7.960  0.3576 -0.2015 -0.0452
   35CHL1   H2A 3744   1.230   1.048   7.999 -1.0837 -0.1327 -2.0546
   35CHL1   H2B 3745   1.388   0.965   7.998  0.9186 -0.8502 -1.4069
   35CHL1   C20 3746   1.226   0.866   7.028  0.1420  0.3868 -0.0496
   35CHL1   H20 3747   1.333   0.861   6.999 -0.2059  0.6456 -1.4481
   35CHL1   C21 3748   1.173   1.013   7.028 -0.3053 -0.4460 -0.2687
   35CHL1  H21A 3749   1.070   1.007   7.070  0.4861  0.3897  1.9586
   35CHL1  H21B 3750   1.165   1.063   6.930  0.0279  1.1083  0.4619
   35CHL1  H21C 3751   1.232   1.076   7.099  0.9145 -2.3095  0.4723
   35CHL1   C22 3752   1.157   0.789   6.914  0.0731  0.4970 -0.7087
   35CHL1  H22A 3753   1.193   0.684   6.903 -0.1564  0.2311  0.8502
   35CHL1  H22B 3754   1.048   0.778   6.934  0.2254  1.0590  0.4627
   35CHL1   C23 3755   1.175   0.841   6.766  0.1035 -0.2442 -0.4954
   35CHL1  H23A 3756   1.151   0.949   6.758 -0.7483 -0.5249 -2.6599
   35CHL1  H23B 3757   1.283   0.834   6.744  0.4381 -1.8675  1.3943
   35CHL1   C24 3758   1.101   0.768   6.654  0.0989 -0.2700 -0.1192
   35CHL1  H24A 3759   1.143   0.669   6.629  1.1654  0.2569 -0.5131
   35CHL1  H24B 3760   0.998   0.755   6.692 -0.6156  0.6057 -1.6671
   35CHL1   C25 3761   1.098   0.851   6.526 -0.3156 -0.4189  0.5728
   35CHL1   H25 3762   1.194   0.908   6.520 -0.8779  0.5783  0.8006
   35CHL1   C26 3763   1.076   0.762   6.406  0.2187  0.2466 -0.2756
   35CHL1  H26A 3764   0.978   0.710   6.410  1.3194 -2.0072 -1.2968
   35CHL1  H26B 3765   1.075   0.814   6.308  0.2952 -0.5562 -0.7108
   35CHL1  H26C 3766   1.149   0.679   6.417  0.2066  0.4943  2.0410
   35CHL1   C27 3767   0.991   0.964   6.530 -0.4086  0.1076  0.1457
   35CHL1  H27A 3768   0.986   1.021   6.435 -1.6953 -1.2803 -0.6656
   35CHL1  H27B 3769   0.890   0.919   6.543 -1.0770  0.3963 -3.1359
   35CHL1  H27C 3770   1.019   1.041   6.605  0.4155  0.0372 -0.0823
   36CHL1    C3 3771   3.209   3.689   7.459 -0.2913 -0.8989  0.2758
   36CHL1    H3 3772   3.130   3.767   7.467 -0.4194 -1.0736  0.7416
   36CHL1    O3 3773   3.221   3.620   7.580 -0.2195 -0.7120  0.2824
   36CHL1   H3' 3774   3.267   3.678   7.641 -1.0790 -0.5336  0.7743
   36CHL1    C4 3775   3.155   3.594   7.353 -0.1887 -0.0439  0.0660
   36CHL1   H4A 3776   3.223   3.506   7.347 -2.1621 -1.6081 -0.3235
   36CHL1   H4B 3777   3.063   3.548   7.393  0.5793 -1.3626  0.3656
   36CHL1    C5 3778   3.146   3.662   7.222  0.0213  0.8858 -0.0417
   36CHL1    C6 3779   3.029   3.657   7.151  0.0808  1.3074 -0.4728
   36CHL1    H6 3780   2.939   3.610   7.195  0.6925  0.3372 -0.2409
   36CHL1    C7 3781   3.021   3.707   7.007  0.1264  0.3816  0.3008
   36CHL1   H7A 3782   2.964   3.633   6.947  3.1277 -0.7395 -1.3559
   36CHL1   H7B 3783   2.969   3.805   7.005 -0.2640  0.2093  1.2267
   36CHL1    C8 3784   3.154   3.718   6.940 -0.1624  0.3532 -0.0068
   36CHL1    H8 3785   3.193   3.616   6.919  0.8839  1.2416 -2.9057
   36CHL1   C14 3786   3.135   3.790   6.802  1.1134  0.2937 -0.0758
   36CHL1   H14 3787   3.101   3.892   6.830  0.1584 -0.2782  0.8739
   36CHL1   C15 3788   3.037   3.730   6.703  1.3301 -0.4231  0.0278
   36CHL1  H15A 3789   3.070   3.625   6.694  0.7594 -0.6895  0.8898
   36CHL1  H15B 3790   2.933   3.734   6.742  1.1109 -0.0857 -0.5775
   36CHL1   C16 3791   3.062   3.802   6.575  0.0331 -0.6092 -0.2191
   36CHL1  H16A 3792   3.056   3.742   6.482 -1.5097  0.3728 -0.8095
   36CHL1  H16B 3793   2.981   3.878   6.573  0.6709  0.0956  0.3558
   36CHL1   C17 3794   3.207   3.869   6.588  0.2791  0.2082 -0.3194
   36CHL1   H17 3795   3.177   3.974   6.609 -1.1434 -0.5875  2.0871
   36CHL1   C13 3796   3.263   3.806   6.720  0.6031 -0.3570  0.2761
   36CHL1   C18 3797   3.337   3.677   6.692  0.6361  0.1505 -0.0353
   36CHL1  H18A 3798   3.444   3.693   6.664  0.8771 -0.5222  0.4678
   36CHL1  H18B 3799   3.339   3.623   6.789 -2.3732  0.8237  0.4803
   36CHL1  H18C 3800   3.287   3.613   6.615  1.5233 -1.7465  0.8836
   36CHL1   C12 3801   3.349   3.902   6.808  0.0413  0.5529 -0.3067
   36CHL1  H12A 3802   3.445   3.923   6.756  0.4497 -2.2162 -0.8360
   36CHL1  H12B 3803   3.302   4.001   6.828  0.5263  1.0453 -1.4747
   36CHL1   C11 3804   3.385   3.838   6.951  0.3653  0.2736  0.8742
   36CHL1  H11A 3805   3.450   3.748   6.940 -1.2880 -0.8396 -0.2854
   36CHL1  H11B 3806   3.446   3.903   7.016 -0.7042  0.3614  1.8233
   36CHL1    C9 3807   3.251   3.791   7.024 -0.6748 -0.6788 -0.2572
   36CHL1    H9 3808   3.201   3.889   7.039 -0.3605 -0.7956  1.8478
   36CHL1   C10 3809   3.276   3.724   7.170  0.1087  0.4711  0.6487
   36CHL1   C19 3810   3.376   3.615   7.137 -0.4561  0.0016  1.2231
   36CHL1  H19A 3811   3.481   3.652   7.138 -0.9097  1.3572  0.4153
   36CHL1  H19B 3812   3.378   3.533   7.212  1.7643 -2.8951 -1.6986
   36CHL1  H19C 3813   3.347   3.560   7.045  0.1310  0.1238  0.9579
   36CHL1    C1 3814   3.333   3.813   7.282 -0.4324 -0.5612  0.3561
   36CHL1   H1A 3815   3.440   3.832   7.258 -0.4776 -0.1915  0.4432
   36CHL1   H1B 3816   3.277   3.908   7.276 -1.1058 -0.8958  1.2944
   36CHL1    C2 3817   3.338   3.753   7.415  0.1171 -0.5568  0.3232
   36CHL1   H2A 3818   3.354   3.831   7.493  1.9012 -0.2398 -0.2989
   36CHL1   H2B 3819   3.428   3.688   7.420  2.6055  2.6094 -0.1233
   36CHL1   C20 3820   3.282   3.858   6.461  0.6513  1.2093  0.7525
   36CHL1   H20 3821   3.294   3.749   6.446 -3.1375 -0.0419  4.8939
   36CHL1   C21 3822   3.414   3.929   6.469 -0.4831 -0.0413 -0.4603
   36CHL1  H21A 3823   3.457   3.938   6.367  0.7754  0.7073  0.1138
   36CHL1  H21B 3824   3.496   3.877   6.522 -0.3115  0.4135 -0.2702
   36CHL1  H21C 3825   3.399   4.031   6.511  0.1126 -0.1520  0.0420
   36CHL1   C22 3826   3.211   3.918   6.336  0.1440 -0.1157  0.1135
   36CHL1  H22A 3827   3.103   3.896   6.331  0.3993 -1.2448 -1.0278
   36CHL1  H22B 3828   3.235   4.027   6.332 -0.2012  0.0006  1.0898
   36CHL1   C23 3829   3.246   3.854   6.204 -0.0852 -0.1339 -0.4022
   36CHL1  H23A 3830   3.355   3.865   6.186 -0.4052  1.8591 -1.4382
   36CHL1  H23B 3831   3.210   3.749   6.211 -3.4682  0.8913 -0.9104
   36CHL1   C24 3832   3.182   3.912   6.079  0.2233  0.2101  0.7161
   36CHL1  H24A 3833   3.074   3.904   6.103  0.3319  2.1396  2.0209
   36CHL1  H24B 3834   3.203   4.020   6.064  0.5624  0.1634  0.8593
   36CHL1   C25 3835   3.229   3.840   5.946  0.0225  0.5307  0.0675
   36CHL1   H25 3836   3.226   3.730   5.957  2.5306  0.3976  0.0187
   36CHL1   C26 3837   3.135   3.887   5.833 -0.2588  0.1672 -0.3056
   36CHL1  H26A 3838   3.179   3.864   5.733 -1.8473  0.5739 -1.1364
   36CHL1  H26B 3839   3.031   3.848   5.829 -0.0796 -0.3173 -0.3494
   36CHL1  H26C 3840   3.127   3.996   5.849 -1.1040  0.1807 -0.7110
   36CHL1   C27 3841   3.373   3.883   5.913  0.8115 -0.3765 -0.5322
   36CHL1  H27A 3842   3.446   3.861   5.994  1.6111  2.1499 -0.4761
   36CHL1  H27B 3843   3.416   3.841   5.820  1.0014 -1.0609 -0.1411
   36CHL1  H27C 3844   3.363   3.993   5.899 -3.8158 -0.4597  0.4518
   37CHL1    C3 3845   4.322   4.616   7.569  0.0056  0.0592 -0.4996
   37CHL1    H3 3846   4.222   4.603   7.522  0.7563  1.4888 -2.6501
   37CHL1    O3 3847   4.311   4.625   7.710 -0.0279 -0.3022 -0.2103
   37CHL1   H3' 3848   4.353   4.548   7.749 -1.2886 -0.6685  0.4856
   37CHL1    C4 3849   4.425   4.504   7.537  0.2427 -0.1098  0.1394
   37CHL1   H4A 3850   4.519   4.542   7.583 -0.5074  0.7925  0.9508
   37CHL1   H4B 3851   4.387   4.408   7.578 -1.8527  1.2212  1.5008
   37CHL1    C5 3852   4.433   4.494   7.383  0.4664  0.2094 -0.7929
   37CHL1    C6 3853   4.406   4.375   7.324 -0.4464  0.2268  0.2580
   37CHL1    H6 3854   4.386   4.289   7.389 -1.1388  1.0126  1.1176
   37CHL1    C7 3855   4.409   4.356   7.176  0.5572  0.0701 -0.4957
   37CHL1   H7A 3856   4.463   4.261   7.157 -0.0949 -0.6535  1.0931
   37CHL1   H7B 3857   4.306   4.343   7.135 -0.4243 -1.0951  2.0927
   37CHL1    C8 3858   4.482   4.469   7.101  0.3065 -0.8887  0.5316
   37CHL1    H8 3859   4.592   4.466   7.114  0.9235  4.4273 -1.0521
   37CHL1   C14 3860   4.464   4.459   6.950 -1.1999  0.1039  0.0806
   37CHL1   H14 3861   4.353   4.459   6.942 -1.3142  1.1163  1.3901
   37CHL1   C15 3862   4.502   4.326   6.880 -0.2451 -0.3913  0.0873
   37CHL1  H15A 3863   4.604   4.304   6.919  0.8437  0.6875 -1.9666
   37CHL1  H15B 3864   4.425   4.251   6.910 -1.0357  0.5609  0.4950
   37CHL1   C16 3865   4.494   4.359   6.734 -0.5003  0.1952  0.2442
   37CHL1  H16A 3866   4.595   4.334   6.696 -0.5530 -0.0538  0.2725
   37CHL1  H16B 3867   4.416   4.307   6.675  0.4179  1.9125 -2.7121
   37CHL1   C17 3868   4.464   4.512   6.733 -0.1709  0.4252  0.6699
   37CHL1   H17 3869   4.354   4.519   6.720 -0.2901 -0.2406  1.2347
   37CHL1   C13 3870   4.516   4.573   6.857 -0.7799  0.3221 -0.2647
   37CHL1   C18 3871   4.674   4.574   6.856 -0.0202 -0.6121 -0.2146
   37CHL1  H18A 3872   4.713   4.576   6.960 -0.4499 -0.9659 -0.0453
   37CHL1  H18B 3873   4.718   4.480   6.816  0.5184 -1.5124  2.3553
   37CHL1  H18C 3874   4.712   4.657   6.791  1.8901 -0.7462  0.6717
   37CHL1   C12 3875   4.457   4.704   6.914 -1.1317 -0.8035 -0.5382
   37CHL1  H12A 3876   4.491   4.798   6.865  0.2397  0.6594  2.9067
   37CHL1  H12B 3877   4.348   4.720   6.906 -1.2528  1.3706  3.3751
   37CHL1   C11 3878   4.494   4.729   7.062 -0.3078 -0.8482  0.0131
   37CHL1  H11A 3879   4.604   4.741   7.071 -0.3818  2.0129 -1.7240
   37CHL1  H11B 3880   4.439   4.818   7.100  0.9721 -0.0982  0.1872
   37CHL1    C9 3881   4.444   4.610   7.153 -0.1960  0.6062  0.3697
   37CHL1    H9 3882   4.333   4.606   7.151 -0.2526  0.9394  1.8293
   37CHL1   C10 3883   4.467   4.626   7.306 -0.5402  0.1052  0.1980
   37CHL1   C19 3884   4.624   4.648   7.331  0.3338  0.3252 -0.1702
   37CHL1  H19A 3885   4.677   4.577   7.264 -0.0501 -1.6327  1.5247
   37CHL1  H19B 3886   4.649   4.753   7.306  2.1683  0.2299  1.0990
   37CHL1  H19C 3887   4.650   4.630   7.437 -3.6682  1.3804  1.2002
   37CHL1    C1 3888   4.379   4.744   7.361  0.3398  0.9762  0.1398
   37CHL1   H1A 3889   4.417   4.842   7.325  1.6668  1.4512  2.5618
   37CHL1   H1B 3890   4.278   4.727   7.320  0.2289 -0.4915  0.9588
   37CHL1    C2 3891   4.377   4.754   7.510  0.0487  0.9055  0.3275
   37CHL1   H2A 3892   4.311   4.838   7.538 -0.8849  0.4732 -0.5005
   37CHL1   H2B 3893   4.480   4.771   7.549 -0.1461  1.5084  0.5736
   37CHL1   C20 3894   4.521   4.562   6.599 -0.3796  0.2870 -1.0840
   37CHL1   H20 3895   4.629   4.535   6.594 -0.0832  1.0214  0.6314
   37CHL1   C21 3896   4.509   4.716   6.595  0.1788 -0.0583  0.3561
   37CHL1  H21A 3897   4.539   4.754   6.494  1.5121  0.1935  0.8361
   37CHL1  H21B 3898   4.588   4.759   6.660  0.6824 -1.4430  0.6777
   37CHL1  H21C 3899   4.407   4.749   6.625 -0.7910 -3.8130  1.6388
   37CHL1   C22 3900   4.448   4.505   6.483  0.2413  0.8095  0.3346
   37CHL1  H22A 3901   4.423   4.397   6.495  0.9108  0.5750 -0.3120
   37CHL1  H22B 3902   4.348   4.549   6.468  0.5668  1.4156 -0.0834
   37CHL1   C23 3903   4.531   4.512   6.353  0.6248  0.1823  0.3830
   37CHL1  H23A 3904   4.540   4.622   6.338 -1.8390  0.6596  1.8046
   37CHL1  H23B 3905   4.625   4.457   6.370 -0.7910 -2.1610  1.0723
   37CHL1   C24 3906   4.469   4.445   6.230  0.4654  0.2870  0.1540
   37CHL1  H24A 3907   4.461   4.336   6.250  0.3492  0.2746  0.0375
   37CHL1  H24B 3908   4.368   4.483   6.202  1.1552  0.1154 -2.9434
   37CHL1   C25 3909   4.575   4.441   6.117  0.3484 -0.0528  0.3806
   37CHL1   H25 3910   4.680   4.452   6.151  0.3349 -0.7785  0.6658
   37CHL1   C26 3911   4.548   4.312   6.041  0.4115  0.0877 -0.1505
   37CHL1  H26A 3912   4.443   4.304   6.005 -0.0229  0.2110  1.0496
   37CHL1  H26B 3913   4.629   4.287   5.970 -0.0583 -0.6780 -0.4252
   37CHL1  H26C 3914   4.550   4.231   6.117 -3.4599 -0.1002 -0.0752
   37CHL1   C27 3915   4.568   4.558   6.021  0.4111 -0.0678  0.2357
   37CHL1  H27A 3916   4.475   4.563   5.960  1.4425 -1.4367 -1.5370
   37CHL1  H27B 3917   4.580   4.659   6.065  2.9561  0.2833 -1.0836
   37CHL1  H27C 3918   4.661   4.557   5.959  0.6203 -0.5146  0.5591
   38CHL1    C3 3919   6.654   0.379   7.539 -0.2398 -0.3756 -0.0650
   38CHL1    H3 3920   6.550   0.417   7.541 -0.4467 -0.9785  1.2902
   38CHL1    O3 3921   6.705   0.387   7.673  0.2535  0.2090 -0.1680
   38CHL1   H3' 3922   6.796   0.360   7.682  0.3825  1.0330  1.2116
   38CHL1    C4 3923   6.653   0.240   7.481  0.4838  0.5189  1.1620
   38CHL1   H4A 3924   6.754   0.196   7.498  0.2819 -0.1866  0.5599
   38CHL1   H4B 3925   6.580   0.178   7.539  0.0979 -0.0465  0.0918
   38CHL1    C5 3926   6.611   0.226   7.334 -0.4091 -1.0752 -0.1652
   38CHL1    C6 3927   6.505   0.145   7.303 -0.2985  0.4209  0.1983
   38CHL1    H6 3928   6.453   0.091   7.383  2.4778 -0.3495  1.5946
   38CHL1    C7 3929   6.459   0.119   7.154 -0.2446  0.0956 -0.1881
   38CHL1   H7A 3930   6.484   0.011   7.138  0.9547  0.3054  0.1448
   38CHL1   H7B 3931   6.352   0.136   7.134 -0.3792  1.1700  1.3068
   38CHL1    C8 3932   6.553   0.187   7.050  0.3987 -0.2681 -0.9079
   38CHL1    H8 3933   6.632   0.111   7.034  0.9202 -0.0610  0.5995
   38CHL1   C14 3934   6.487   0.215   6.915 -0.2981 -1.3188 -0.0791
   38CHL1   H14 3935   6.417   0.295   6.949  1.9117 -1.0331  4.5573
   38CHL1   C15 3936   6.414   0.099   6.853 -0.1298 -0.3944 -0.2737
   38CHL1  H15A 3937   6.468   0.002   6.858  1.0203  0.1880 -1.0229
   38CHL1  H15B 3938   6.328   0.070   6.917 -0.5374 -0.9034 -1.0404
   38CHL1   C16 3939   6.384   0.145   6.709  0.4469 -0.3394 -0.6882
   38CHL1  H16A 3940   6.390   0.063   6.635  1.3604 -0.9292  0.0142
   38CHL1  H16B 3941   6.278   0.177   6.714  0.1532 -1.4316  1.0938
   38CHL1   C17 3942   6.483   0.267   6.684 -0.1356 -0.0876  0.5629
   38CHL1   H17 3943   6.416   0.354   6.704  0.6182  0.9476 -1.1568
   38CHL1   C13 3944   6.581   0.268   6.805  0.0008  0.3078  0.5670
   38CHL1   C18 3945   6.694   0.163   6.779  0.2519 -0.1047  0.6349
   38CHL1  H18A 3946   6.752   0.211   6.697 -2.1675  0.1971 -0.9895
   38CHL1  H18B 3947   6.766   0.150   6.863 -1.1294  0.3156  1.9141
   38CHL1  H18C 3948   6.654   0.069   6.734  0.6222  1.1147 -2.5467
   38CHL1   C12 3949   6.626   0.412   6.859  0.3529  0.1432  0.9923
   38CHL1  H12A 3950   6.689   0.460   6.782 -1.7630  0.3916 -0.6809
   38CHL1  H12B 3951   6.532   0.469   6.875  1.2155  1.2028  2.5760
   38CHL1   C11 3952   6.701   0.400   6.998 -0.0653 -0.9156  0.4983
   38CHL1  H11A 3953   6.802   0.357   6.981  1.3178  2.3619 -0.2621
   38CHL1  H11B 3954   6.715   0.503   7.035 -0.4861 -1.0167  0.9538
   38CHL1    C9 3955   6.617   0.321   7.105 -0.5886 -0.2519 -0.3933
   38CHL1    H9 3956   6.527   0.384   7.120 -0.1757  0.0992  0.7366
   38CHL1   C10 3957   6.686   0.316   7.242  0.0055 -0.4133  0.3149
   38CHL1   C19 3958   6.832   0.258   7.213  0.4264 -0.2721  0.1860
   38CHL1  H19A 3959   6.904   0.326   7.162 -1.1484  1.8424  0.6054
   38CHL1  H19B 3960   6.874   0.222   7.309  1.1837 -2.0872 -0.7757
   38CHL1  H19C 3961   6.820   0.173   7.142  0.1980  0.2832 -0.4567
   38CHL1    C1 3962   6.702   0.461   7.298  0.3869 -0.0694 -0.2201
   38CHL1   H1A 3963   6.778   0.513   7.236 -2.1482  2.0180 -1.8211
   38CHL1   H1B 3964   6.605   0.510   7.274 -0.1743  0.8384  3.2749
   38CHL1    C2 3965   6.741   0.476   7.447  0.3629  0.1472  0.3325
   38CHL1   H2A 3966   6.714   0.581   7.474  2.8058  0.8063  0.5059
   38CHL1   H2B 3967   6.850   0.458   7.463  0.8502 -0.4137 -2.9931
   38CHL1   C20 3968   6.545   0.260   6.547  0.4582  0.7053  0.4573
   38CHL1   H20 3969   6.607   0.172   6.521 -1.7097 -0.6833 -0.2873
   38CHL1   C21 3970   6.636   0.382   6.527 -0.2940 -0.6826  0.1339
   38CHL1  H21A 3971   6.675   0.390   6.424 -0.7885 -0.6317 -0.0535
   38CHL1  H21B 3972   6.724   0.379   6.595 -1.1737 -1.1803  1.2809
   38CHL1  H21C 3973   6.581   0.478   6.538  2.0517  0.6596  0.9036
   38CHL1   C22 3974   6.444   0.281   6.433 -0.5513  0.2829  0.0394
   38CHL1  H22A 3975   6.367   0.200   6.433 -2.2893  1.8550 -0.9054
   38CHL1  H22B 3976   6.400   0.380   6.459  1.3279  0.9104  1.0398
   38CHL1   C23 3977   6.488   0.273   6.286 -0.3838 -0.4199  0.2042
   38CHL1  H23A 3978   6.566   0.348   6.263  0.7127 -1.6612 -0.2692
   38CHL1  H23B 3979   6.524   0.171   6.261  1.2925 -0.0805  1.1174
   38CHL1   C24 3980   6.377   0.296   6.185 -0.1071 -0.1806 -0.3481
   38CHL1  H24A 3981   6.286   0.235   6.203  0.1311 -0.1618  1.0423
   38CHL1  H24B 3982   6.350   0.404   6.192  0.3100  0.1118 -2.4945
   38CHL1   C25 3983   6.424   0.274   6.039  0.0083 -0.7463  0.0459
   38CHL1   H25 3984   6.533   0.253   6.044  0.3409  1.1203  1.5387
   38CHL1   C26 3985   6.353   0.148   5.985  0.4590 -0.2120  0.3440
   38CHL1  H26A 3986   6.380   0.144   5.877  1.0648  0.0081  0.4876
   38CHL1  H26B 3987   6.384   0.052   6.032  2.9948 -1.3499 -3.1983
   38CHL1  H26C 3988   6.243   0.166   5.986  0.9273  3.3351  1.4998
   38CHL1   C27 3989   6.384   0.403   5.954  0.6795  0.9030  0.0681
   38CHL1  H27A 3990   6.274   0.417   5.942  0.5258 -1.1127 -1.4058
   38CHL1  H27B 3991   6.422   0.497   6.000  1.4128 -0.4928  2.4795
   38CHL1  H27C 3992   6.421   0.388   5.850 -1.0135 -2.5232 -0.1813
   39CHL1    C3 3993   1.308   2.623   7.685 -0.0823 -0.4724 -0.2787
   39CHL1    H3 3994   1.345   2.527   7.725 -0.2725  0.7103  3.0493
   39CHL1    O3 3995   1.266   2.705   7.795 -0.0340 -0.1424 -0.0197
   39CHL1   H3' 3996   1.281   2.791   7.755  0.5805 -0.8277 -1.3404
   39CHL1    C4 3997   1.409   2.712   7.602  0.6215  0.0079  0.4014
   39CHL1   H4A 3998   1.361   2.811   7.585  0.8807 -0.0156 -0.5020
   39CHL1   H4B 3999   1.500   2.743   7.658 -0.8776  1.5580  2.1312
   39CHL1    C5 4000   1.443   2.634   7.475  0.0916 -0.6090 -0.8758
   39CHL1    C6 4001   1.567   2.597   7.450 -0.2194 -0.4262 -0.7674
   39CHL1    H6 4002   1.642   2.631   7.522 -0.5404 -0.4318 -0.4299
   39CHL1    C7 4003   1.620   2.514   7.332  0.4354  0.1057 -0.8302
   39CHL1   H7A 4004   1.712   2.563   7.293 -0.6729  1.2492 -2.0963
   39CHL1   H7B 4005   1.648   2.412   7.368  1.4848  0.4389 -0.6587
   39CHL1    C8 4006   1.513   2.519   7.221  0.1720 -0.1729  0.6544
   39CHL1    H8 4007   1.508   2.625   7.189  2.4848  0.4237  2.0012
   39CHL1   C14 4008   1.539   2.428   7.100  0.2306  0.1069 -0.8836
   39CHL1   H14 4009   1.521   2.329   7.148 -1.2979  0.3734 -0.8475
   39CHL1   C15 4010   1.688   2.432   7.051  0.5812  0.3345 -0.8414
   39CHL1  H15A 4011   1.738   2.530   7.067  2.2463 -0.3005 -1.8779
   39CHL1  H15B 4012   1.740   2.345   7.097  2.0120  0.3408 -2.3446
   39CHL1   C16 4013   1.679   2.394   6.903 -0.4236  0.0554  0.0051
   39CHL1  H16A 4014   1.682   2.479   6.832 -3.9237 -1.7337 -2.6228
   39CHL1  H16B 4015   1.766   2.328   6.886  0.5068  0.7121  1.8567
   39CHL1   C17 4016   1.524   2.357   6.874  1.2763  0.2782  0.3770
   39CHL1   H17 4017   1.509   2.253   6.912 -1.2197  0.2099 -0.6085
   39CHL1   C13 4018   1.440   2.440   6.982 -0.1900 -0.2742  0.5671
   39CHL1   C18 4019   1.426   2.589   6.933  0.0790 -0.1316 -0.1653
   39CHL1  H18A 4020   1.402   2.663   7.013 -1.6931  0.8173 -1.5078
   39CHL1  H18B 4021   1.514   2.629   6.879 -0.2918  2.2248  0.8492
   39CHL1  H18C 4022   1.342   2.596   6.861  0.0972 -1.0239 -0.2890
   39CHL1   C12 4023   1.315   2.383   7.040  0.6839 -0.0284 -0.2680
   39CHL1  H12A 4024   1.236   2.384   6.963  0.1814  0.5756  0.2420
   39CHL1  H12B 4025   1.323   2.273   7.055 -0.7097 -0.4043 -1.9779
   39CHL1   C11 4026   1.265   2.454   7.170  0.2714  0.2540  0.2372
   39CHL1  H11A 4027   1.217   2.548   7.134  0.7116  0.2598 -0.3542
   39CHL1  H11B 4028   1.184   2.397   7.220  0.5912 -0.9845 -0.6131
   39CHL1    C9 4029   1.371   2.486   7.279  0.1481  0.0835 -0.2919
   39CHL1    H9 4030   1.388   2.392   7.336 -2.5209 -0.2078  0.1519
   39CHL1   C10 4031   1.330   2.585   7.390  0.4566  0.3750 -0.1571
   39CHL1   C19 4032   1.279   2.717   7.333 -0.5084  0.3762  0.1364
   39CHL1  H19A 4033   1.197   2.691   7.262  0.0590  0.7044 -0.6494
   39CHL1  H19B 4034   1.239   2.785   7.412 -2.0987  1.6880 -1.7033
   39CHL1  H19C 4035   1.359   2.754   7.266 -0.5110 -1.7293 -1.1387
   39CHL1    C1 4036   1.223   2.510   7.476 -0.1800  0.0584 -0.1171
   39CHL1   H1A 4037   1.134   2.481   7.416  0.8350 -0.7858 -1.2676
   39CHL1   H1B 4038   1.272   2.418   7.514 -0.4609 -1.5555 -3.3482
   39CHL1    C2 4039   1.179   2.588   7.600  0.3197 -0.2578 -0.9390
   39CHL1   H2A 4040   1.115   2.526   7.666  0.2449  2.0235  1.2901
   39CHL1   H2B 4041   1.127   2.684   7.579 -0.2322  0.3668  2.7044
   39CHL1   C20 4042   1.483   2.372   6.728  0.2652  0.1779  0.0261
   39CHL1   H20 4043   1.492   2.477   6.694  0.3531  0.7860  1.7797
   39CHL1   C21 4044   1.332   2.319   6.706  0.0659  0.4646  0.1307
   39CHL1  H21A 4045   1.316   2.270   6.607 -0.5140  1.5591 -0.3382
   39CHL1  H21B 4046   1.260   2.403   6.715  0.4027  0.9622 -1.4910
   39CHL1  H21C 4047   1.317   2.245   6.787 -0.2231  0.0110 -0.3279
   39CHL1   C22 4048   1.580   2.291   6.631 -0.2248 -0.8447 -0.3912
   39CHL1  H22A 4049   1.546   2.287   6.525 -1.0141  1.9199 -0.3233
   39CHL1  H22B 4050   1.683   2.331   6.639 -0.3733 -0.7649  1.8357
   39CHL1   C23 4051   1.592   2.141   6.668 -0.1264  0.4609  0.5221
   39CHL1  H23A 4052   1.635   2.129   6.770  1.5645  1.9068  0.0190
   39CHL1  H23B 4053   1.492   2.095   6.678  0.5058 -1.4055 -1.0051
   39CHL1   C24 4054   1.697   2.068   6.578 -0.7463 -0.4753  0.6553
   39CHL1  H24A 4055   1.664   2.090   6.474  0.9879  0.2930  0.2337
   39CHL1  H24B 4056   1.790   2.129   6.576 -1.1505  0.1431 -0.5195
   39CHL1   C25 4057   1.722   1.918   6.590 -0.3351 -0.7600 -0.0915
   39CHL1   H25 4058   1.623   1.867   6.595 -1.4109  1.3041  1.5709
   39CHL1   C26 4059   1.800   1.860   6.474  0.6446  0.0207 -0.3120
   39CHL1  H26A 4060   1.751   1.874   6.375 -1.5621  0.7280  0.8135
   39CHL1  H26B 4061   1.900   1.907   6.464  1.0858 -1.2957 -3.4003
   39CHL1  H26C 4062   1.829   1.753   6.486  0.4011 -0.3999 -2.8059
   39CHL1   C27 4063   1.799   1.893   6.720 -0.0782  0.1005 -0.2041
   39CHL1  H27A 4064   1.810   1.783   6.733  1.3335  0.5781  6.8609
   39CHL1  H27B 4065   1.904   1.928   6.720 -0.5760  1.6547 -0.7675
   39CHL1  H27C 4066   1.739   1.935   6.804 -0.0142  0.8414 -0.5211
   40CHL1    C3 4067   2.018   6.413   7.903  0.0324 -0.4384 -0.9099
   40CHL1    H3 4068   2.071   6.324   7.862 -0.6367 -1.9169  1.2878
   40CHL1    O3 4069   2.019   6.407   8.047 -0.7462 -0.0212 -0.0135
   40CHL1   H3' 4070   1.995   6.494   8.079 -0.8923 -0.2697  0.5728
   40CHL1    C4 4071   2.096   6.545   7.861  0.1851  0.4460 -1.3398
   40CHL1   H4A 4072   2.047   6.626   7.919 -3.7641 -1.4775 -1.6766
   40CHL1   H4B 4073   2.198   6.538   7.903 -1.2023  1.3010  2.5732
   40CHL1    C5 4074   2.078   6.571   7.713  0.1537 -0.0430  0.2443
   40CHL1    C6 4075   2.186   6.587   7.632  0.1121 -0.3140  0.4032
   40CHL1    H6 4076   2.289   6.585   7.672 -0.8003  0.7576  3.0152
   40CHL1    C7 4077   2.168   6.611   7.484 -0.7514 -0.5259 -0.9249
   40CHL1   H7A 4078   2.248   6.681   7.452  1.2907 -2.7232 -0.9952
   40CHL1   H7B 4079   2.192   6.512   7.438 -1.5299 -2.7949  3.0464
   40CHL1    C8 4080   2.028   6.663   7.450 -0.4042  0.7286 -0.1235
   40CHL1    H8 4081   2.014   6.766   7.487 -1.0804  1.5773 -2.5515
   40CHL1   C14 4082   2.020   6.660   7.300  0.6398  0.1183  0.3983
   40CHL1   H14 4083   2.037   6.552   7.279  1.2946  0.0953  1.0204
   40CHL1   C15 4084   2.121   6.744   7.225 -0.1862 -0.1449  0.6222
   40CHL1  H15A 4085   2.141   6.836   7.285 -0.5375  0.5684 -0.3225
   40CHL1  H15B 4086   2.220   6.695   7.214 -0.0333  0.5748 -1.7789
   40CHL1   C16 4087   2.063   6.783   7.094  0.1295  0.6292 -0.1252
   40CHL1  H16A 4088   2.044   6.893   7.086 -0.1518  0.4540 -2.9162
   40CHL1  H16B 4089   2.122   6.754   7.005  3.0661  0.9689  1.6069
   40CHL1   C17 4090   1.923   6.721   7.086  0.2783  0.0382 -0.8135
   40CHL1   H17 4091   1.930   6.616   7.048  2.0289 -0.3599  0.4576
   40CHL1   C13 4092   1.882   6.694   7.237  0.6699 -0.2521 -0.1160
   40CHL1   C18 4093   1.836   6.834   7.288 -0.7582 -0.7938  0.4338
   40CHL1  H18A 4094   1.726   6.836   7.273 -0.8859  0.7030  1.3184
   40CHL1  H18B 4095   1.860   6.843   7.396  0.8080  0.3065  0.0395
   40CHL1  H18C 4096   1.883   6.917   7.231 -2.5859 -0.5702 -0.8291
   40CHL1   C12 4097   1.781   6.585   7.281 -0.2732  0.0338 -0.3195
   40CHL1  H12A 4098   1.680   6.617   7.247 -0.4971 -1.6982 -1.3575
   40CHL1  H12B 4099   1.812   6.490   7.232  1.3172  0.9037 -1.0832
   40CHL1   C11 4100   1.774   6.573   7.439  0.4641  0.1819  0.0531
   40CHL1  H11A 4101   1.728   6.665   7.482  0.6396 -1.0350  3.0495
   40CHL1  H11B 4102   1.707   6.490   7.469  0.9364  0.5283  2.1953
   40CHL1    C9 4103   1.919   6.572   7.511  0.6124  0.0642 -0.4075
   40CHL1    H9 4104   1.950   6.468   7.487  0.5675 -0.1608  0.4541
   40CHL1   C10 4105   1.928   6.577   7.665  0.1463  0.1460 -0.5967
   40CHL1   C19 4106   1.853   6.689   7.734 -0.3082 -0.1420 -0.0180
   40CHL1  H19A 4107   1.744   6.682   7.715  0.1209 -2.8662 -2.0918
   40CHL1  H19B 4108   1.870   6.676   7.843  1.5025  0.3062 -0.2107
   40CHL1  H19C 4109   1.887   6.791   7.707  0.3870 -0.2848  0.3014
   40CHL1    C1 4110   1.856   6.448   7.714  0.3168 -0.4823  0.0208
   40CHL1   H1A 4111   1.748   6.455   7.693  0.5039  0.4076 -0.6656
   40CHL1   H1B 4112   1.887   6.353   7.665  0.1665 -2.5244  3.5207
   40CHL1    C2 4113   1.870   6.419   7.870 -0.2967 -0.2769  0.3333
   40CHL1   H2A 4114   1.827   6.322   7.902  1.7946 -1.2062  0.5238
   40CHL1   H2B 4115   1.825   6.505   7.924 -1.7929 -0.8852  0.1157
   40CHL1   C20 4116   1.825   6.798   6.991  0.3516 -0.1010  0.1015
   40CHL1   H20 4117   1.806   6.902   7.027  0.2306 -1.1388  3.3181
   40CHL1   C21 4118   1.690   6.726   6.986 -0.6307 -0.4822  0.2917
   40CHL1  H21A 4119   1.621   6.766   6.909 -0.9510 -2.2803 -0.3887
   40CHL1  H21B 4120   1.641   6.727   7.086 -0.1046  0.3888  0.5540
   40CHL1  H21C 4121   1.712   6.620   6.961  3.0914  0.6720 -2.1464
   40CHL1   C22 4122   1.885   6.804   6.846 -0.0717  0.4234 -0.4861
   40CHL1  H22A 4123   1.994   6.818   6.829  0.3900 -3.0299 -1.0451
   40CHL1  H22B 4124   1.850   6.709   6.802 -3.1844  1.7506 -1.1037
   40CHL1   C23 4125   1.821   6.925   6.766 -0.2457 -0.8892 -0.0528
   40CHL1  H23A 4126   1.712   6.906   6.772 -0.7564  1.4847 -0.5956
   40CHL1  H23B 4127   1.836   7.025   6.814  0.7533 -1.0382 -0.0294
   40CHL1   C24 4128   1.869   6.923   6.614 -0.1831  0.6747 -0.3035
   40CHL1  H24A 4129   1.976   6.951   6.613  0.2453 -0.8499 -1.8162
   40CHL1  H24B 4130   1.855   6.824   6.565 -0.0656  0.5651 -0.1129
   40CHL1   C25 4131   1.800   7.022   6.517 -0.9434  0.2820  0.7975
   40CHL1   H25 4132   1.782   7.121   6.563 -2.2039  0.1130  0.7105
   40CHL1   C26 4133   1.899   7.052   6.402 -1.2131  0.8612  0.8710
   40CHL1  H26A 4134   1.982   7.118   6.436  0.6934 -1.0620  0.2447
   40CHL1  H26B 4135   1.952   6.964   6.357 -1.5038  2.1655 -2.3025
   40CHL1  H26C 4136   1.860   7.101   6.310 -2.1082 -1.1171  0.1479
   40CHL1   C27 4137   1.668   6.971   6.474  0.1204  0.9141  0.0265
   40CHL1  H27A 4138   1.594   6.957   6.555 -0.7431 -2.2387 -1.1396
   40CHL1  H27B 4139   1.612   7.047   6.414  1.7942  1.1876 -1.2675
   40CHL1  H27C 4140   1.676   6.878   6.414  0.1548 -0.2393  1.7620
   41CHL1    C3 4141   4.718   4.218   7.728 -0.6103 -0.3053  0.6984
   41CHL1    H3 4142   4.713   4.123   7.785  0.6486 -0.6114  0.3084
   41CHL1    O3 4143   4.684   4.318   7.822 -0.2202 -0.2685  0.1752
   41CHL1   H3' 4144   4.723   4.395   7.780 -0.6523  0.6694  1.4329
   41CHL1    C4 4145   4.859   4.245   7.674 -0.3998  0.5874  0.2792
   41CHL1   H4A 4146   4.855   4.355   7.660  0.2079  0.4206 -1.3688
   41CHL1   H4B 4147   4.937   4.227   7.751 -0.1719 -1.9737 -0.4486
   41CHL1    C5 4148   4.901   4.178   7.544  0.0246  0.1923  0.5478
   41CHL1    C6 4149   5.015   4.104   7.518 -0.3391  0.2364  0.0622
   41CHL1    H6 4150   5.092   4.090   7.595  0.3484 -2.0638 -0.9450
   41CHL1    C7 4151   5.048   4.044   7.384  0.1601  0.3329  0.2753
   41CHL1   H7A 4152   5.154   4.068   7.359  0.1372 -0.2100 -0.3726
   41CHL1   H7B 4153   5.043   3.933   7.385 -0.4130  0.3190 -1.1126
   41CHL1    C8 4154   4.967   4.105   7.263 -0.2417 -0.6980  0.4016
   41CHL1    H8 4155   4.995   4.212   7.258 -0.9657 -0.5326 -0.4092
   41CHL1   C14 4156   4.991   4.030   7.138 -0.0461  0.3090  0.1980
   41CHL1   H14 4157   4.947   3.930   7.159 -0.4438  0.1403 -1.2868
   41CHL1   C15 4158   5.134   4.005   7.091  0.6333 -0.1567  0.1774
   41CHL1  H15A 4159   5.198   4.094   7.110  0.8953 -0.8058  2.8206
   41CHL1  H15B 4160   5.160   3.919   7.157 -1.1569  0.5320  1.8954
   41CHL1   C16 4161   5.126   3.969   6.944  0.8343  0.8496  0.0495
   41CHL1  H16A 4162   5.173   4.041   6.874 -1.7382  1.5376 -1.0814
   41CHL1  H16B 4163   5.172   3.870   6.922  1.5203  1.4336 -1.2477
   41CHL1   C17 4164   4.978   3.983   6.909 -0.0215 -0.0816 -0.3597
   41CHL1   H17 4165   4.928   3.884   6.917 -1.0022  0.4205 -0.1691
   41CHL1   C13 4166   4.918   4.080   7.013 -0.2529 -0.1635 -0.4693
   41CHL1   C18 4167   4.950   4.225   6.963 -0.2512 -0.5159 -0.3649
   41CHL1  H18A 4168   4.938   4.298   7.046  1.3264  1.3305 -1.6875
   41CHL1  H18B 4169   5.055   4.237   6.929 -0.0042  0.6850  0.7534
   41CHL1  H18C 4170   4.873   4.257   6.889 -0.8922 -1.0954  0.0384
   41CHL1   C12 4171   4.774   4.057   7.059  0.5264  0.3546 -0.1817
   41CHL1  H12A 4172   4.704   4.076   6.974 -1.9585 -1.3601  1.3638
   41CHL1  H12B 4173   4.764   3.951   7.089  2.1268 -0.1561 -1.3517
   41CHL1   C11 4174   4.732   4.141   7.181  0.4377 -0.2383 -0.0556
   41CHL1  H11A 4175   4.746   4.244   7.143  1.3724 -0.4113 -0.2045
   41CHL1  H11B 4176   4.627   4.121   7.211  0.0591  0.3504 -0.9550
   41CHL1    C9 4177   4.816   4.108   7.306 -0.0280  0.0374 -1.1922
   41CHL1    H9 4178   4.796   4.007   7.346  1.4092  0.0153 -0.4652
   41CHL1   C10 4179   4.790   4.192   7.435  0.0279 -0.6484  0.7872
   41CHL1   C19 4180   4.779   4.342   7.385 -0.2569  0.3232 -0.1653
   41CHL1  H19A 4181   4.696   4.354   7.311 -2.0763 -0.2357  1.6881
   41CHL1  H19B 4182   4.747   4.418   7.459  0.7946  0.8035 -0.1922
   41CHL1  H19C 4183   4.876   4.367   7.338 -0.5914 -1.1069 -1.7574
   41CHL1    C1 4184   4.660   4.139   7.495  0.0823  0.3497  0.1623
   41CHL1   H1A 4185   4.578   4.141   7.420  1.3962 -0.9231 -1.3809
   41CHL1   H1B 4186   4.671   4.036   7.537  0.7769  1.3162  2.5276
   41CHL1    C2 4187   4.610   4.224   7.611 -0.1714  0.0029 -0.4226
   41CHL1   H2A 4188   4.512   4.190   7.649 -0.2320 -1.2122 -1.5899
   41CHL1   H2B 4189   4.594   4.328   7.576 -2.1626 -0.6544 -1.6362
   41CHL1   C20 4190   4.959   4.007   6.760 -0.0075  0.5520 -0.0604
   41CHL1   H20 4191   5.007   4.103   6.729  1.0667  0.4110  1.0766
   41CHL1   C21 4192   4.809   4.006   6.720  0.0764  0.2588 -0.0065
   41CHL1  H21A 4193   4.769   4.095   6.773 -0.3409 -0.7155  1.3708
   41CHL1  H21B 4194   4.761   3.915   6.763  1.9112 -0.7940 -0.0533
   41CHL1  H21C 4195   4.771   4.017   6.616 -2.6075  0.9514  0.9679
   41CHL1   C22 4196   5.036   3.913   6.663 -0.2518 -0.5205 -0.4982
   41CHL1  H22A 4197   5.145   3.911   6.688 -0.6696 -0.3215  1.5214
   41CHL1  H22B 4198   5.006   3.807   6.678 -1.2308 -0.3853 -1.4027
   41CHL1   C23 4199   4.996   3.939   6.513 -0.4205 -0.2559  0.4121
   41CHL1  H23A 4200   4.912   3.874   6.481  0.1410  0.1895 -2.1998
   41CHL1  H23B 4201   4.974   4.048   6.507 -2.2409 -0.6450 -0.6750
   41CHL1   C24 4202   5.115   3.915   6.411 -0.3222  0.4354 -0.0738
   41CHL1  H24A 4203   5.205   3.971   6.445  0.0748 -0.5521  0.5760
   41CHL1  H24B 4204   5.142   3.807   6.408  1.7995  0.9399 -2.7975
   41CHL1   C25 4205   5.076   3.968   6.268  0.3753  0.6540 -0.0110
   41CHL1   H25 4206   5.055   4.077   6.276 -1.2382  0.4120 -0.7022
   41CHL1   C26 4207   5.194   3.941   6.179 -0.6156  0.1172  0.1893
   41CHL1  H26A 4208   5.181   3.984   6.077 -0.7583 -1.4999 -0.5092
   41CHL1  H26B 4209   5.284   3.982   6.229 -1.4345  1.5728  0.5338
   41CHL1  H26C 4210   5.203   3.831   6.168  0.6862 -0.4265  4.6004
   41CHL1   C27 4211   4.953   3.901   6.221  0.5690 -0.3975 -0.0886
   41CHL1  H27A 4212   4.874   3.917   6.297  3.1250 -0.5051  2.7994
   41CHL1  H27B 4213   4.928   3.945   6.123 -2.2735  0.2650  0.8373
   41CHL1  H27C 4214   4.964   3.791   6.212 -2.1564 -1.1039  3.0295
   42CHL1    C3 4215   1.704   1.262   7.848  0.0714  0.4654  0.3119
   42CHL1    H3 4216   1.600   1.221   7.853  0.5438 -1.4909 -3.0164
   42CHL1    O3 4217   1.770   1.231   7.970  0.0928  0.5398 -0.2082
   42CHL1   H3' 4218   1.813   1.309   8.006  2.9260 -0.7090 -0.5694
   42CHL1    C4 4219   1.764   1.187   7.733  0.5525  0.0933  0.3582
   42CHL1   H4A 4220   1.873   1.210   7.736  1.1482 -2.3119 -0.9990
   42CHL1   H4B 4221   1.763   1.078   7.755  2.5258  0.1462  0.9768
   42CHL1    C5 4222   1.713   1.218   7.593 -0.3310 -0.4909 -0.1562
   42CHL1    C6 4223   1.656   1.125   7.505  0.0467  0.8504  0.6047
   42CHL1    H6 4224   1.622   1.028   7.544  0.2583 -0.1214 -1.4637
   42CHL1    C7 4225   1.612   1.161   7.364 -0.2479 -0.3877  0.2606
   42CHL1   H7A 4226   1.636   1.085   7.287  0.7743  0.5684 -0.3934
   42CHL1   H7B 4227   1.502   1.173   7.369 -0.3622 -1.0211 -0.5708
   42CHL1    C8 4228   1.661   1.300   7.318  0.3259 -0.3518  0.4316
   42CHL1    H8 4229   1.769   1.286   7.298  0.4120 -0.0802  0.6923
   42CHL1   C14 4230   1.587   1.341   7.194 -0.4217 -0.2467  0.4732
   42CHL1   H14 4231   1.485   1.355   7.237 -0.7478 -1.3022  0.0700
   42CHL1   C15 4232   1.564   1.232   7.088  0.3963 -0.5998  1.3967
   42CHL1  H15A 4233   1.658   1.179   7.065 -0.8906 -2.0493 -0.8250
   42CHL1  H15B 4234   1.491   1.150   7.108 -0.5525  0.3234  1.8569
   42CHL1   C16 4235   1.544   1.320   6.961 -0.2103  0.1467  0.0418
   42CHL1  H16A 4236   1.626   1.298   6.890 -1.7248 -0.3863 -1.5952
   42CHL1  H16B 4237   1.454   1.299   6.899 -0.0413  1.3870 -0.6565
   42CHL1   C17 4238   1.552   1.473   7.005 -0.0334  0.2733  0.6245
   42CHL1   H17 4239   1.449   1.501   7.034  0.0123 -0.0590  1.1290
   42CHL1   C13 4240   1.633   1.476   7.135 -0.2862 -0.4843  0.1754
   42CHL1   C18 4241   1.780   1.469   7.092 -0.1647 -0.3378 -0.2787
   42CHL1  H18A 4242   1.804   1.555   7.025  0.9431  1.0837  1.8211
   42CHL1  H18B 4243   1.855   1.498   7.169  2.0826 -1.4652 -1.9343
   42CHL1  H18C 4244   1.817   1.371   7.056  2.6008  0.2533  0.6735
   42CHL1   C12 4245   1.602   1.584   7.241 -0.4779  0.2096  0.0354
   42CHL1  H12A 4246   1.631   1.678   7.190 -2.7537  1.1433  0.3279
   42CHL1  H12B 4247   1.494   1.581   7.266  0.2948  0.7477  4.3260
   42CHL1   C11 4248   1.681   1.556   7.366  0.1827  0.5523  1.2607
   42CHL1  H11A 4249   1.790   1.566   7.350  0.3371 -1.0737  1.1413
   42CHL1  H11B 4250   1.658   1.626   7.450 -0.6981 -0.2945  1.7346
   42CHL1    C9 4251   1.653   1.408   7.419 -0.0131  0.2040 -0.6554
   42CHL1    H9 4252   1.545   1.401   7.446 -0.4024  1.2164 -1.8623
   42CHL1   C10 4253   1.726   1.373   7.552  0.0834  0.6733  0.0402
   42CHL1   C19 4254   1.875   1.409   7.549  0.0280  0.0386  0.0644
   42CHL1  H19A 4255   1.928   1.351   7.471 -1.4780  0.6094 -1.4386
   42CHL1  H19B 4256   1.883   1.518   7.532  2.5906  0.0341  0.8166
   42CHL1  H19C 4257   1.925   1.388   7.647 -1.2268 -0.0016  0.7130
   42CHL1    C1 4258   1.656   1.442   7.672 -0.3366 -0.5403  0.1684
   42CHL1   H1A 4259   1.649   1.552   7.657  1.8578 -0.2912  0.6552
   42CHL1   H1B 4260   1.552   1.403   7.672  0.2551 -2.2130 -0.1437
   42CHL1    C2 4261   1.708   1.409   7.813 -0.6053 -0.1607 -0.2341
   42CHL1   H2A 4262   1.669   1.482   7.887 -1.6901  2.8367 -3.4712
   42CHL1   H2B 4263   1.816   1.433   7.815 -0.6771  0.1884  1.6806
   42CHL1   C20 4264   1.580   1.574   6.889  0.1054  0.0576  0.3488
   42CHL1   H20 4265   1.688   1.564   6.864 -0.5672 -3.1912 -1.7395
   42CHL1   C21 4266   1.554   1.712   6.930  0.3497  0.2252  0.2624
   42CHL1  H21A 4267   1.628   1.750   7.004 -2.0276  1.2246  2.2792
   42CHL1  H21B 4268   1.455   1.723   6.979  1.1771 -0.2231  2.1435
   42CHL1  H21C 4269   1.562   1.773   6.837 -2.1885  1.0138  0.4886
   42CHL1   C22 4270   1.516   1.538   6.751 -0.2295 -0.8739 -0.3687
   42CHL1  H22A 4271   1.554   1.620   6.686 -0.8275 -1.1231 -1.0419
   42CHL1  H22B 4272   1.565   1.443   6.720  1.9126  1.0028 -3.2876
   42CHL1   C23 4273   1.360   1.534   6.754  0.1628  0.2557 -0.0053
   42CHL1  H23A 4274   1.317   1.467   6.832 -1.8049  0.3401 -0.9409
   42CHL1  H23B 4275   1.305   1.631   6.759 -0.9457 -0.4072  1.3175
   42CHL1   C24 4276   1.312   1.483   6.613 -0.2621  0.4532  0.1435
   42CHL1  H24A 4277   1.215   1.526   6.580  0.8941  1.3545 -2.3505
   42CHL1  H24B 4278   1.380   1.522   6.534  0.0892 -0.5282 -0.0574
   42CHL1   C25 4279   1.299   1.332   6.624 -0.6079 -0.2929 -0.0265
   42CHL1   H25 4280   1.394   1.294   6.667 -0.1948 -0.5611 -1.1429
   42CHL1   C26 4281   1.182   1.289   6.716 -0.2568 -0.4097 -0.3301
   42CHL1  H26A 4282   1.206   1.306   6.824  3.0482 -2.3500 -0.6112
   42CHL1  H26B 4283   1.081   1.329   6.694 -1.1784  0.0847  3.8276
   42CHL1  H26C 4284   1.170   1.179   6.706 -1.2425 -0.3647  0.1843
   42CHL1   C27 4285   1.291   1.256   6.489  0.2914  0.4191  0.3569
   42CHL1  H27A 4286   1.367   1.296   6.418  0.4274 -1.3676 -0.5500
   42CHL1  H27B 4287   1.295   1.146   6.505  2.1578  0.1595 -1.4753
   42CHL1  H27C 4288   1.188   1.275   6.452 -0.1213  0.7229  1.6245
   43CHL1    C3 4289   4.223   6.756   7.693  0.1517  0.0187  0.1891
   43CHL1    H3 4290   4.156   6.678   7.734  0.6245 -0.5012 -0.0175
   43CHL1    O3 4291   4.307   6.823   7.788 -0.0928  0.1554  0.1383
   43CHL1   H3' 4292   4.341   6.759   7.850  0.9305  2.3693  2.0295
   43CHL1    C4 4293   4.314   6.701   7.582 -0.2711  0.0768  0.0475
   43CHL1   H4A 4294   4.383   6.779   7.543  0.0714  0.8376  2.0253
   43CHL1   H4B 4295   4.385   6.629   7.628  0.5237  0.7456 -0.0976
   43CHL1    C5 4296   4.230   6.643   7.468  0.3963 -0.4159 -0.1312
   43CHL1    C6 4297   4.247   6.515   7.428 -0.5303 -0.2662 -0.4344
   43CHL1    H6 4298   4.312   6.450   7.488 -1.2768 -0.5054  0.1198
   43CHL1    C7 4299   4.179   6.452   7.309 -0.1070 -0.7924 -0.4969
   43CHL1   H7A 4300   4.258   6.390   7.261  3.0526  0.9268  2.0567
   43CHL1   H7B 4301   4.106   6.383   7.357 -0.4031 -0.3772 -0.3434
   43CHL1    C8 4302   4.120   6.565   7.222  0.1483 -0.6985  0.3187
   43CHL1    H8 4303   4.200   6.618   7.166  0.1722 -0.4595  0.5812
   43CHL1   C14 4304   4.023   6.503   7.126  0.0890 -0.2274  0.9508
   43CHL1   H14 4305   3.939   6.468   7.190 -0.2103 -1.5579 -0.1235
   43CHL1   C15 4306   4.065   6.379   7.052 -0.3329 -0.4688  0.5127
   43CHL1  H15A 4307   4.174   6.384   7.031 -0.6714  0.1883 -1.2525
   43CHL1  H15B 4308   4.053   6.290   7.118  1.6890 -2.1728 -1.2668
   43CHL1   C16 4309   3.968   6.365   6.930 -0.2476 -0.5111  0.0437
   43CHL1  H16A 4310   4.022   6.385   6.835  1.9707 -0.9222  1.1474
   43CHL1  H16B 4311   3.921   6.266   6.915 -1.4077  0.2555 -1.7183
   43CHL1   C17 4312   3.864   6.485   6.943 -0.2736  0.1642  0.3485
   43CHL1   H17 4313   3.785   6.442   7.009 -1.4902  2.4160  0.4628
   43CHL1   C13 4314   3.948   6.595   7.029  0.0447 -0.0243  0.4741
   43CHL1   C18 4315   4.034   6.676   6.928  0.4097 -0.0155 -0.5119
   43CHL1  H18A 4316   4.105   6.748   6.973 -0.2566 -1.9833  4.3066
   43CHL1  H18B 4317   4.096   6.606   6.867 -0.6066 -0.4951 -1.0141
   43CHL1  H18C 4318   3.968   6.737   6.863  1.4672 -0.0809 -1.6860
   43CHL1   C12 4319   3.859   6.683   7.122 -0.2961 -0.4500  0.6687
   43CHL1  H12A 4320   3.794   6.751   7.062  1.1607 -0.3208 -0.8188
   43CHL1  H12B 4321   3.787   6.612   7.169  0.0501 -1.8606 -0.8404
   43CHL1   C11 4322   3.951   6.764   7.218  0.0245  0.7226 -0.5089
   43CHL1  H11A 4323   4.013   6.841   7.169  1.8678 -0.0703  0.4854
   43CHL1  H11B 4324   3.884   6.817   7.289 -1.1550 -0.1622 -0.9126
   43CHL1    C9 4325   4.047   6.671   7.305 -0.0443 -0.5628  0.0491
   43CHL1    H9 4326   3.979   6.605   7.363 -0.5336  0.4722  0.6850
   43CHL1   C10 4327   4.131   6.749   7.406  0.2208  0.1389  0.2247
   43CHL1   C19 4328   4.204   6.860   7.325  0.2591 -0.0338 -0.4896
   43CHL1  H19A 4329   4.247   6.830   7.226 -1.1416 -0.3229 -1.0289
   43CHL1  H19B 4330   4.134   6.941   7.296  1.3652  1.5502  1.0940
   43CHL1  H19C 4331   4.280   6.905   7.392 -0.6142  1.4301 -0.4394
   43CHL1    C1 4332   4.046   6.808   7.522  0.0484  0.5333  0.8227
   43CHL1   H1A 4333   3.982   6.888   7.480 -0.5827 -1.6541 -2.7626
   43CHL1   H1B 4334   3.972   6.735   7.561  2.7613 -2.2016  1.2149
   43CHL1    C2 4335   4.135   6.864   7.638 -1.3728  0.6817 -0.0220
   43CHL1   H2A 4336   4.073   6.895   7.725  1.8577  0.4275  2.6041
   43CHL1   H2B 4337   4.197   6.949   7.603  3.1120 -1.7479  1.1481
   43CHL1   C20 4338   3.798   6.526   6.809 -0.1385  0.3752  0.3193
   43CHL1   H20 4339   3.860   6.592   6.744  1.6064  0.5927  2.0902
   43CHL1   C21 4340   3.686   6.632   6.840 -0.2435 -0.6043  1.1591
   43CHL1  H21A 4341   3.649   6.657   6.739 -0.8529 -1.7847  1.0750
   43CHL1  H21B 4342   3.746   6.717   6.880  1.1157 -0.5191 -0.9326
   43CHL1  H21C 4343   3.609   6.592   6.909 -1.6966 -0.1240 -0.1341
   43CHL1   C22 4344   3.746   6.401   6.732 -0.0766 -0.3075 -0.6809
   43CHL1  H22A 4345   3.825   6.323   6.727  0.5466 -0.1967  3.3368
   43CHL1  H22B 4346   3.661   6.367   6.794  0.1015  0.4359 -0.0005
   43CHL1   C23 4347   3.699   6.438   6.589 -0.2943 -0.5742  0.5665
   43CHL1  H23A 4348   3.599   6.485   6.593 -0.3817 -0.5094 -1.3043
   43CHL1  H23B 4349   3.772   6.515   6.558  0.3930 -1.4672 -0.1104
   43CHL1   C24 4350   3.692   6.325   6.490  0.2368  0.0403  0.2549
   43CHL1  H24A 4351   3.780   6.260   6.504  0.4697 -0.0434 -1.3781
   43CHL1  H24B 4352   3.608   6.261   6.524  1.0739 -0.4447  1.4566
   43CHL1   C25 4353   3.672   6.366   6.349  0.3399 -0.7651  0.4389
   43CHL1   H25 4354   3.770   6.412   6.327 -0.3105 -0.2938 -1.7381
   43CHL1   C26 4355   3.665   6.255   6.255  0.1187 -0.6822  0.7184
   43CHL1  H26A 4356   3.741   6.174   6.257 -3.2840 -4.1981  0.2414
   43CHL1  H26B 4357   3.567   6.203   6.269 -1.4711  1.9430  0.1895
   43CHL1  H26C 4358   3.680   6.282   6.148  0.5760  3.9117  1.7071
   43CHL1   C27 4359   3.561   6.473   6.333  0.1266  0.3552 -0.3976
   43CHL1  H27A 4360   3.551   6.504   6.226  0.7653  1.2364 -0.2123
   43CHL1  H27B 4361   3.464   6.430   6.365  0.1454 -1.0584 -2.0659
   43CHL1  H27C 4362   3.582   6.560   6.398  2.1180 -0.0031 -0.4739
   44CHL1    C3 4363   4.188   3.876   7.736 -0.0868 -0.0741 -0.3859
   44CHL1    H3 4364   4.098   3.937   7.715 -1.5087 -1.6706  0.8645
   44CHL1    O3 4365   4.202   3.848   7.872  0.5190 -0.3994  0.0723
   44CHL1   H3' 4366   4.297   3.851   7.889  0.4319 -2.5624  1.3433
   44CHL1    C4 4367   4.184   3.742   7.653  0.4356 -0.1077  0.2334
   44CHL1   H4A 4368   4.282   3.702   7.685  0.6603 -0.7108 -1.1291
   44CHL1   H4B 4369   4.105   3.676   7.693  0.3968  1.0256  2.1234
   44CHL1    C5 4370   4.175   3.769   7.506 -1.2588 -0.4930  0.7994
   44CHL1    C6 4371   4.081   3.722   7.425  0.0742 -0.4318 -0.0987
   44CHL1    H6 4372   4.002   3.659   7.468 -0.5583  0.9923  0.9149
   44CHL1    C7 4373   4.071   3.731   7.272 -0.0874  0.5086  0.0348
   44CHL1   H7A 4374   4.031   3.636   7.230 -2.6790  1.5191  0.0018
   44CHL1   H7B 4375   3.998   3.809   7.240  1.8403  1.3416 -2.6370
   44CHL1    C8 4376   4.216   3.754   7.218  0.1510 -0.4302 -0.2800
   44CHL1    H8 4377   4.279   3.663   7.222  0.3335 -0.5083 -3.1200
   44CHL1   C14 4378   4.199   3.794   7.069 -0.8125  1.0269  0.5178
   44CHL1   H14 4379   4.130   3.880   7.074 -0.5923  1.2777 -0.5671
   44CHL1   C15 4380   4.128   3.677   6.987  0.4148 -0.8727  0.0601
   44CHL1  H15A 4381   4.176   3.584   7.024  0.2297 -0.9259  0.1722
   44CHL1  H15B 4382   4.018   3.676   7.005  0.6579  0.5850  1.9836
   44CHL1   C16 4383   4.175   3.706   6.844  0.6804  0.5941  0.5853
   44CHL1  H16A 4384   4.233   3.614   6.819  1.7271  0.8095  2.0868
   44CHL1  H16B 4385   4.091   3.711   6.771  1.6762 -1.7606 -0.8543
   44CHL1   C17 4386   4.269   3.824   6.848 -0.3623  0.5378  0.7105
   44CHL1   H17 4387   4.202   3.911   6.833  0.0178  0.5450 -1.3144
   44CHL1   C13 4388   4.328   3.829   6.992 -0.8392 -0.5067  0.1857
   44CHL1   C18 4389   4.434   3.715   6.998  0.5164 -0.0197 -0.3734
   44CHL1  H18A 4390   4.529   3.732   6.943  2.1688  0.7608  2.5257
   44CHL1  H18B 4391   4.463   3.713   7.105 -1.6792  3.3227  0.4472
   44CHL1  H18C 4392   4.393   3.620   6.958 -0.5488  0.5642 -0.7246
   44CHL1   C12 4393   4.385   3.956   7.060  0.6279  0.6087  0.3811
   44CHL1  H12A 4394   4.486   3.971   7.017  0.1356  0.2776 -0.9478
   44CHL1  H12B 4395   4.316   4.036   7.026  1.3072  1.5830  1.2261
   44CHL1   C11 4396   4.402   3.935   7.209 -0.5220 -0.9032 -0.3143
   44CHL1  H11A 4397   4.488   3.875   7.245 -2.0152 -2.0122  1.6408
   44CHL1  H11B 4398   4.422   4.028   7.267 -0.0031 -0.2280 -1.5380
   44CHL1    C9 4399   4.279   3.872   7.295  0.0794 -0.5004  0.3838
   44CHL1    H9 4400   4.209   3.957   7.280  2.2709  1.2147 -0.6590
   44CHL1   C10 4401   4.294   3.852   7.451 -0.0063 -0.1387  0.1067
   44CHL1   C19 4402   4.425   3.777   7.470 -0.0336 -0.1274 -0.0837
   44CHL1  H19A 4403   4.439   3.678   7.423  0.9136 -0.3734  0.6744
   44CHL1  H19B 4404   4.510   3.840   7.435 -1.1871  1.4931 -0.0704
   44CHL1  H19C 4405   4.436   3.751   7.578  0.6029  2.9438  0.6994
   44CHL1    C1 4406   4.295   3.989   7.527  0.1037 -0.0419 -0.1348
   44CHL1   H1A 4407   4.383   4.053   7.500 -0.3493  0.8104  0.3560
   44CHL1   H1B 4408   4.200   4.042   7.504 -0.2132 -1.0846 -1.3568
   44CHL1    C2 4409   4.300   3.973   7.683 -0.0203  0.4965  0.2400
   44CHL1   H2A 4410   4.281   4.072   7.728 -1.2662  0.3001  0.1878
   44CHL1   H2B 4411   4.405   3.946   7.707 -0.0573 -0.7209 -0.8250
   44CHL1   C20 4412   4.358   3.822   6.725 -0.2866 -0.5229 -0.0353
   44CHL1   H20 4413   4.437   3.745   6.734  0.3260  0.0345 -0.5555
   44CHL1   C21 4414   4.427   3.965   6.727 -0.0441  0.2408  0.0528
   44CHL1  H21A 4415   4.494   3.990   6.641 -2.4237  1.0617 -1.6535
   44CHL1  H21B 4416   4.492   3.989   6.814 -2.2230  2.3422  1.2158
   44CHL1  H21C 4417   4.346   4.040   6.723 -1.3702 -1.1647 -0.4987
   44CHL1   C22 4418   4.277   3.810   6.591  0.0330 -0.1514  0.2185
   44CHL1  H22A 4419   4.207   3.724   6.585 -0.1251  0.0395 -0.7980
   44CHL1  H22B 4420   4.216   3.902   6.576  0.7773  0.3756  0.4065
   44CHL1   C23 4421   4.372   3.788   6.472  0.3156  0.7573  0.3757
   44CHL1  H23A 4422   4.430   3.877   6.440 -0.2716  1.0148  0.0121
   44CHL1  H23B 4423   4.456   3.728   6.515  0.5904  1.2992  0.6069
   44CHL1   C24 4424   4.313   3.722   6.347  0.9591 -0.0188 -0.1101
   44CHL1  H24A 4425   4.283   3.617   6.369  2.0327 -0.8186 -2.1692
   44CHL1  H24B 4426   4.226   3.784   6.319  1.6273  2.0217  2.0968
   44CHL1   C25 4427   4.408   3.717   6.228  0.3360 -0.2357 -0.0417
   44CHL1   H25 4428   4.508   3.701   6.273 -0.5634 -1.0016  1.7881
   44CHL1   C26 4429   4.355   3.607   6.128 -0.0693 -0.4259 -0.0827
   44CHL1  H26A 4430   4.439   3.558   6.075 -0.7412 -0.7630 -0.8486
   44CHL1  H26B 4431   4.294   3.534   6.186 -0.6840  0.4253  0.3691
   44CHL1  H26C 4432   4.293   3.657   6.051  0.7187  0.4183 -0.1913
   44CHL1   C27 4433   4.421   3.855   6.151  0.3653 -0.1548 -0.3170
   44CHL1  H27A 4434   4.333   3.867   6.085  0.4021  0.6622 -0.2252
   44CHL1  H27B 4435   4.432   3.947   6.212 -0.0624  0.4445 -1.1251
   44CHL1  H27C 4436   4.515   3.855   6.093 -0.1548 -3.1020 -1.3807
   45CHL1    C3 4437   5.227   6.752   7.196 -0.0543 -0.5197  0.1855
   45CHL1    H3 4438   5.274   6.843   7.154 -3.2461  1.2896  0.2157
   45CHL1    O3 4439   5.258   6.745   7.340 -0.2223  0.2339  0.3942
   45CHL1   H3' 4440   5.187   6.700   7.386 -1.0666 -0.8319 -1.8124
   45CHL1    C4 4441   5.076   6.766   7.175 -0.7148 -0.3641  0.0142
   45CHL1   H4A 4442   5.022   6.685   7.230 -0.0712 -1.3650 -0.7905
   45CHL1   H4B 4443   5.054   6.863   7.224 -1.1168 -0.6515  0.4107
   45CHL1    C5 4444   5.043   6.764   7.026 -0.8552 -0.9059 -0.4603
   45CHL1    C6 4445   4.979   6.871   6.978  0.0746 -0.7471 -0.4279
   45CHL1    H6 4446   4.938   6.946   7.047 -0.7335 -2.2752  0.8339
   45CHL1    C7 4447   4.935   6.879   6.835  0.4984 -0.9628  0.1473
   45CHL1   H7A 4448   4.828   6.907   6.832  0.6625 -0.3758 -0.6264
   45CHL1   H7B 4449   5.003   6.955   6.789  0.4846 -1.4656 -0.7261
   45CHL1    C8 4450   4.961   6.750   6.755  0.1412 -0.3340 -0.1440
   45CHL1    H8 4451   4.880   6.678   6.780 -0.4300  0.7280  1.1788
   45CHL1   C14 4452   4.950   6.780   6.604  0.5103  0.1251 -0.8929
   45CHL1   H14 4453   5.032   6.851   6.582  0.5437 -0.2044 -1.8718
   45CHL1   C15 4454   4.818   6.847   6.556  0.2898  0.2426  0.5764
   45CHL1  H15A 4455   4.729   6.801   6.605 -1.5559  1.1904 -1.6557
   45CHL1  H15B 4456   4.820   6.953   6.590 -2.2937 -0.4772  3.4604
   45CHL1   C16 4457   4.816   6.811   6.408 -0.2705  0.3764 -0.1902
   45CHL1  H16A 4458   4.718   6.761   6.391 -0.3854  1.0665 -1.7617
   45CHL1  H16B 4459   4.807   6.904   6.348  0.4882  1.5540  1.4450
   45CHL1   C17 4460   4.942   6.722   6.376  1.5720  0.0044  0.1781
   45CHL1   H17 4461   5.024   6.795   6.362  0.3145  1.3198 -0.6633
   45CHL1   C13 4462   4.972   6.658   6.516 -0.5533  0.7219 -0.3799
   45CHL1   C18 4463   4.872   6.546   6.543 -0.3133  1.2008 -0.9707
   45CHL1  H18A 4464   4.767   6.578   6.530 -1.5383 -1.4598  1.3313
   45CHL1  H18B 4465   4.886   6.460   6.473 -0.1898  2.0176 -1.9787
   45CHL1  H18C 4466   4.878   6.513   6.649 -0.4673  0.2221 -1.2523
   45CHL1   C12 4467   5.122   6.615   6.539  0.0452 -0.0756  0.2886
   45CHL1  H12A 4468   5.154   6.532   6.471  0.6337  2.1300 -2.3197
   45CHL1  H12B 4469   5.184   6.700   6.503 -0.7558  0.2500 -0.3503
   45CHL1   C11 4470   5.148   6.586   6.684 -0.3594 -0.2307 -0.5113
   45CHL1  H11A 4471   5.082   6.499   6.703 -1.5187  0.9812  1.2860
   45CHL1  H11B 4472   5.255   6.557   6.688 -0.5066 -0.6677  0.6685
   45CHL1    C9 4473   5.101   6.696   6.786 -0.6122  0.0938 -0.0465
   45CHL1    H9 4474   5.165   6.786   6.779 -1.3211  0.5060 -1.6886
   45CHL1   C10 4475   5.113   6.659   6.932  0.9114 -0.4603 -0.1892
   45CHL1   C19 4476   5.043   6.525   6.970  0.0842  0.3205 -0.3318
   45CHL1  H19A 4477   5.050   6.506   7.079  0.7587 -0.5715 -0.5142
   45CHL1  H19B 4478   4.934   6.530   6.949  0.1487 -0.2805 -0.8146
   45CHL1  H19C 4479   5.081   6.434   6.920  0.2723  0.3845 -0.3060
   45CHL1    C1 4480   5.266   6.637   6.970 -0.2015 -0.2865 -0.2325
   45CHL1   H1A 4481   5.315   6.559   6.908  1.6572  1.4262 -1.0008
   45CHL1   H1B 4482   5.311   6.732   6.936 -1.4690  0.7416  0.8574
   45CHL1    C2 4483   5.294   6.629   7.120  0.1385  0.7081 -0.0427
   45CHL1   H2A 4484   5.404   6.625   7.133  0.0698  0.5358  0.5239
   45CHL1   H2B 4485   5.256   6.537   7.169  1.6449 -0.5417 -1.1492
   45CHL1   C20 4486   4.930   6.633   6.251  0.1574  0.1836 -0.1155
   45CHL1   H20 4487   4.838   6.572   6.262 -0.5267  1.2819  0.4331
   45CHL1   C21 4488   5.052   6.542   6.227  0.3769 -0.3316 -0.1852
   45CHL1  H21A 4489   5.067   6.475   6.315 -1.1227 -1.2370 -0.5800
   45CHL1  H21B 4490   5.143   6.601   6.205  1.1403 -0.8827  1.3567
   45CHL1  H21C 4491   5.048   6.477   6.136 -1.3609  1.7304 -1.6763
   45CHL1   C22 4492   4.911   6.724   6.121 -0.8203 -0.7284 -0.4584
   45CHL1  H22A 4493   4.852   6.818   6.123  0.4527  0.1454 -2.0424
   45CHL1  H22B 4494   5.013   6.758   6.096 -0.8396 -1.1675 -1.1712
   45CHL1   C23 4495   4.863   6.652   6.000 -0.2274  0.7914  0.8614
   45CHL1  H23A 4496   4.913   6.553   5.994  0.9933  1.4466 -0.6712
   45CHL1  H23B 4497   4.755   6.634   6.020  0.2831 -0.5945  2.5888
   45CHL1   C24 4498   4.871   6.739   5.878  0.3428  0.7342  0.1648
   45CHL1  H24A 4499   4.794   6.819   5.871  0.2419  0.5280 -1.5868
   45CHL1  H24B 4500   4.964   6.800   5.883 -0.7423  2.5038 -0.4779
   45CHL1   C25 4501   4.880   6.652   5.747  1.1671 -0.3775 -0.1348
   45CHL1   H25 4502   4.977   6.600   5.765  2.2273  2.0957  1.9140
   45CHL1   C26 4503   4.765   6.552   5.728 -0.2481 -0.3346 -0.4521
   45CHL1  H26A 4504   4.664   6.595   5.742  0.7293  2.0715 -0.2600
   45CHL1  H26B 4505   4.769   6.505   5.628 -1.4746 -1.2061 -0.1057
   45CHL1  H26C 4506   4.783   6.465   5.795 -0.6240  0.9225  1.3609
   45CHL1   C27 4507   4.889   6.743   5.623 -0.1117 -0.2001 -0.3794
   45CHL1  H27A 4508   4.907   6.683   5.531 -0.3491  1.5233 -1.5954
   45CHL1  H27B 4509   4.796   6.803   5.621  0.3995  0.6592  0.6917
   45CHL1  H27C 4510   4.965   6.823   5.639 -1.5302  0.7643  2.2265
   46CHL1    C3 4511   6.286   2.044   7.569  1.0482 -0.4540 -0.2978
   46CHL1    H3 4512   6.178   2.068   7.556  1.0130 -1.0411 -1.1540
   46CHL1    O3 4513   6.315   2.066   7.702  0.0434 -0.2399 -0.1808
   46CHL1   H3' 4514   6.398   2.021   7.717  1.2555  1.9156  0.0685
   46CHL1    C4 4515   6.295   1.887   7.542 -0.0708 -0.0103  0.3979
   46CHL1   H4A 4516   6.395   1.852   7.574  0.7742  2.8463  1.2068
   46CHL1   H4B 4517   6.221   1.842   7.612  0.3231 -3.2100 -1.0525
   46CHL1    C5 4518   6.268   1.872   7.396 -0.7033 -0.0102 -0.5891
   46CHL1    C6 4519   6.176   1.784   7.355 -0.4591 -0.3295 -0.1350
   46CHL1    H6 4520   6.117   1.732   7.432 -0.0580 -0.1764  0.2730
   46CHL1    C7 4521   6.177   1.740   7.214  0.0448 -0.0607 -0.3864
   46CHL1   H7A 4522   6.166   1.629   7.211 -2.1407  0.0951  0.2520
   46CHL1   H7B 4523   6.081   1.781   7.177  0.7313  0.8950 -1.1652
   46CHL1    C8 4524   6.288   1.786   7.120 -0.6989 -0.6918  0.6992
   46CHL1    H8 4525   6.380   1.729   7.144 -0.8642 -0.6498  1.4562
   46CHL1   C14 4526   6.256   1.762   6.976  0.0638  0.4158  0.3738
   46CHL1   H14 4527   6.173   1.833   6.954 -0.1129  0.6166  1.6137
   46CHL1   C15 4528   6.211   1.618   6.928  0.5351  0.9514 -0.0153
   46CHL1  H15A 4529   6.290   1.551   6.967  1.7727  2.8056  0.7827
   46CHL1  H15B 4530   6.114   1.583   6.968  2.8640 -1.7482  3.8327
   46CHL1   C16 4531   6.231   1.623   6.772  0.9056 -0.2776 -0.8817
   46CHL1  H16A 4532   6.301   1.543   6.742 -1.3186 -2.6287 -0.1544
   46CHL1  H16B 4533   6.141   1.602   6.711  1.4110  0.4739 -1.9069
   46CHL1   C17 4534   6.293   1.766   6.740  0.1979  0.1034 -0.0570
   46CHL1   H17 4535   6.201   1.827   6.724 -0.1543 -0.0681  1.1894
   46CHL1   C13 4536   6.357   1.811   6.871 -0.2579  0.4246 -0.1416
   46CHL1   C18 4537   6.493   1.738   6.875  0.2741  0.0602  0.0137
   46CHL1  H18A 4538   6.476   1.630   6.854 -5.5819  0.7645 -0.6961
   46CHL1  H18B 4539   6.568   1.765   6.798 -2.3642 -2.6175 -3.9256
   46CHL1  H18C 4540   6.543   1.748   6.973 -0.0243  0.5843  0.1126
   46CHL1   C12 4541   6.380   1.965   6.889  0.0100 -0.8107 -0.8018
   46CHL1  H12A 4542   6.466   1.988   6.823  4.1018 -2.4382  3.4243
   46CHL1  H12B 4543   6.289   2.020   6.857  1.2613  1.4609 -0.6613
   46CHL1   C11 4544   6.413   2.005   7.037  0.1312  0.1930 -0.2663
   46CHL1  H11A 4545   6.514   1.974   7.070 -1.0948 -0.4419  3.2795
   46CHL1  H11B 4546   6.404   2.113   7.061 -2.3710  0.3916 -1.7641
   46CHL1    C9 4547   6.321   1.933   7.148  0.3245  1.1737  0.9860
   46CHL1    H9 4548   6.220   1.978   7.138  0.1114  0.6506  0.7428
   46CHL1   C10 4549   6.362   1.952   7.297  0.4700 -0.5439 -0.2241
   46CHL1   C19 4550   6.509   1.910   7.304 -0.0517 -0.4521 -0.2807
   46CHL1  H19A 4551   6.545   1.897   7.408 -2.2994 -0.3173  0.5896
   46CHL1  H19B 4552   6.533   1.818   7.247  2.7563 -0.5614  0.9414
   46CHL1  H19C 4553   6.572   1.993   7.268 -2.3586  0.2640 -3.0260
   46CHL1    C1 4554   6.350   2.096   7.335 -0.6533  0.3883 -0.2295
   46CHL1   H1A 4555   6.416   2.153   7.266 -2.3178  0.8607 -1.4980
   46CHL1   H1B 4556   6.252   2.135   7.299 -1.8598 -3.2044 -1.3036
   46CHL1    C2 4557   6.373   2.130   7.481  0.4316 -0.2590  0.0948
   46CHL1   H2A 4558   6.352   2.238   7.494 -0.2459 -0.5276  1.4644
   46CHL1   H2B 4559   6.479   2.118   7.510  0.0687  0.3343  1.8177
   46CHL1   C20 4560   6.372   1.786   6.604  0.3261 -0.1371  0.2062
   46CHL1   H20 4561   6.478   1.808   6.624  0.4180  0.0937 -0.4944
   46CHL1   C21 4562   6.299   1.904   6.535  0.2529 -0.5231 -0.6117
   46CHL1  H21A 4563   6.202   1.866   6.498  0.1920 -2.7792  1.6109
   46CHL1  H21B 4564   6.369   1.949   6.461  1.1508  0.1412  0.5913
   46CHL1  H21C 4565   6.295   1.988   6.607  1.2755 -1.2449  0.3248
   46CHL1   C22 4566   6.367   1.669   6.513  0.0790 -0.0339 -0.3050
   46CHL1  H22A 4567   6.427   1.586   6.557  0.5137 -0.4032 -1.5727
   46CHL1  H22B 4568   6.259   1.653   6.493  0.0651  1.0304 -1.1450
   46CHL1   C23 4569   6.433   1.696   6.369  0.2338  0.8860  0.0192
   46CHL1  H23A 4570   6.399   1.605   6.315  0.9127  0.6645 -0.0430
   46CHL1  H23B 4571   6.382   1.776   6.312 -2.1555 -0.9222 -0.5638
   46CHL1   C24 4572   6.585   1.692   6.380  0.2119  0.5834  0.5128
   46CHL1  H24A 4573   6.626   1.779   6.436  0.4218  0.2968  0.8059
   46CHL1  H24B 4574   6.608   1.600   6.437 -0.0061  0.3438  0.2129
   46CHL1   C25 4575   6.650   1.686   6.237  0.4388 -0.0680  0.0925
   46CHL1   H25 4576   6.611   1.597   6.183  1.8002 -0.6360  0.0124
   46CHL1   C26 4577   6.617   1.810   6.146  0.0073 -0.6792  0.1561
   46CHL1  H26A 4578   6.528   1.799   6.079 -0.4715  0.6633  0.5345
   46CHL1  H26B 4579   6.599   1.902   6.206 -0.6942 -0.7085 -0.0027
   46CHL1  H26C 4580   6.708   1.821   6.083  0.9995  0.1922  1.6782
   46CHL1   C27 4581   6.803   1.668   6.253 -0.4594  0.5509 -0.5004
   46CHL1  H27A 4582   6.840   1.610   6.340 -1.6845  0.8279  0.2314
   46CHL1  H27B 4583   6.850   1.629   6.160 -0.4822  0.6165 -0.5394
   46CHL1  H27C 4584   6.853   1.767   6.262  1.2559 -0.3293  0.2724
   47CHL1    C3 4585   6.452   3.970   7.399  0.0503 -0.1711  0.4936
   47CHL1    H3 4586   6.518   4.053   7.365  1.0784 -0.3675  1.9001
   47CHL1    O3 4587   6.412   4.006   7.529 -0.4654  0.3111 -1.2004
   47CHL1   H3' 4588   6.434   3.934   7.589 -2.7868  0.3705 -0.1664
   47CHL1    C4 4589   6.330   3.948   7.309 -0.4934 -0.1939  0.3772
   47CHL1   H4A 4590   6.266   3.872   7.359  0.0527 -3.0076 -2.7674
   47CHL1   H4B 4591   6.271   4.041   7.302  0.7074  0.4937 -1.4847
   47CHL1    C5 4592   6.371   3.902   7.169  0.1964 -0.0102  0.4528
   47CHL1    C6 4593   6.344   3.973   7.059 -0.6043  0.0516 -0.3143
   47CHL1    H6 4594   6.283   4.065   7.065 -0.6077  0.2938 -2.9085
   47CHL1    C7 4595   6.389   3.925   6.923  0.5012 -0.2197 -0.5806
   47CHL1   H7A 4596   6.298   3.939   6.861  0.1058  3.0111  0.5164
   47CHL1   H7B 4597   6.481   3.979   6.892  0.6658 -0.7564 -1.0379
   47CHL1    C8 4598   6.418   3.776   6.914 -0.2143 -0.0126 -0.2482
   47CHL1    H8 4599   6.321   3.722   6.926  0.7191 -1.3071  2.3734
   47CHL1   C14 4600   6.484   3.746   6.780 -0.9003  0.7478  0.3058
   47CHL1   H14 4601   6.592   3.774   6.786 -0.5369 -0.6477  0.7209
   47CHL1   C15 4602   6.417   3.796   6.650 -0.0329 -0.5600  0.1544
   47CHL1  H15A 4603   6.307   3.798   6.659 -0.1735 -1.9713 -0.8853
   47CHL1  H15B 4604   6.443   3.904   6.643 -1.6693 -0.2491 -2.7979
   47CHL1   C16 4605   6.480   3.714   6.542  0.7031  0.1605  0.0742
   47CHL1  H16A 4606   6.401   3.673   6.476  1.3406  0.7044 -1.0809
   47CHL1  H16B 4607   6.549   3.785   6.490  0.3089  0.6339  0.1888
   47CHL1   C17 4608   6.560   3.593   6.608  0.0813 -0.4405  0.1261
   47CHL1   H17 4609   6.662   3.630   6.628 -0.5222  1.1266  0.4383
   47CHL1   C13 4610   6.502   3.592   6.750 -0.4347  0.8966  0.3988
   47CHL1   C18 4611   6.360   3.524   6.748  0.7621 -0.3912 -0.2578
   47CHL1  H18A 4612   6.302   3.566   6.663  1.0354  0.0173 -0.2440
   47CHL1  H18B 4613   6.363   3.414   6.729 -1.1382 -0.0147 -3.5261
   47CHL1  H18C 4614   6.312   3.534   6.847 -1.3970 -1.0830 -1.1613
   47CHL1   C12 4615   6.586   3.530   6.862  0.0910 -0.4203 -0.1693
   47CHL1  H12A 4616   6.584   3.419   6.861 -1.8760 -0.5182  2.4914
   47CHL1  H12B 4617   6.686   3.576   6.849  0.6026 -1.5526 -0.3876
   47CHL1   C11 4618   6.536   3.568   7.007 -0.3435  0.7675 -0.1040
   47CHL1  H11A 4619   6.436   3.518   7.010 -0.5129  1.0226 -1.0792
   47CHL1  H11B 4620   6.608   3.527   7.080 -1.8539 -1.5135  0.2326
   47CHL1    C9 4621   6.509   3.722   7.025  0.2842  0.3436 -0.2618
   47CHL1    H9 4622   6.605   3.774   7.001  2.4741 -3.2704 -0.0870
   47CHL1   C10 4623   6.460   3.770   7.164  0.1444  0.4368  0.2361
   47CHL1   C19 4624   6.368   3.655   7.215 -0.0802 -0.6510  0.2345
   47CHL1  H19A 4625   6.315   3.676   7.311  0.1380 -1.3588  0.5128
   47CHL1  H19B 4626   6.281   3.634   7.149 -1.5304 -0.5655  2.0419
   47CHL1  H19C 4627   6.428   3.563   7.228  1.3704  0.0563 -1.1708
   47CHL1    C1 4628   6.578   3.796   7.257  0.0255  0.0644  0.1352
   47CHL1   H1A 4629   6.638   3.704   7.272 -1.2249 -0.5509  1.6432
   47CHL1   H1B 4630   6.648   3.873   7.218  0.1666  0.0138  0.2850
   47CHL1    C2 4631   6.542   3.842   7.403  0.4785 -0.4477 -0.4116
   47CHL1   H2A 4632   6.634   3.863   7.462 -0.9444  2.0935  1.1029
   47CHL1   H2B 4633   6.481   3.770   7.462  1.3763  0.6948  2.0547
   47CHL1   C20 4634   6.560   3.467   6.517 -0.3156 -0.5260  0.4050
   47CHL1   H20 4635   6.454   3.434   6.510 -0.4595  0.2252 -2.0742
   47CHL1   C21 4636   6.636   3.356   6.583  0.3236 -0.2113  0.7580
   47CHL1  H21A 4637   6.637   3.261   6.526  0.1195 -0.0899  0.5506
   47CHL1  H21B 4638   6.600   3.317   6.681  0.0991 -0.6555  0.5043
   47CHL1  H21C 4639   6.743   3.379   6.604 -0.0744 -0.8339  4.0863
   47CHL1   C22 4640   6.605   3.504   6.374 -0.7770  0.3573  0.7623
   47CHL1  H22A 4641   6.565   3.601   6.338  1.9939  1.2506 -0.1012
   47CHL1  H22B 4642   6.715   3.491   6.376 -0.8434 -1.6443 -2.2156
   47CHL1   C23 4643   6.552   3.407   6.260  0.3324  0.4411 -0.8191
   47CHL1  H23A 4644   6.603   3.310   6.282 -1.7737 -0.5593 -0.0122
   47CHL1  H23B 4645   6.442   3.388   6.263  0.2683  0.3134 -2.6191
   47CHL1   C24 4646   6.609   3.446   6.126 -0.1291 -0.2093  0.9531
   47CHL1  H24A 4647   6.584   3.550   6.094 -1.8087 -0.7824  0.2688
   47CHL1  H24B 4648   6.720   3.450   6.127  0.0683  1.7072 -3.3616
   47CHL1   C25 4649   6.577   3.352   6.001 -0.1473 -0.5947 -0.8785
   47CHL1   H25 4650   6.593   3.248   6.035 -2.5734 -0.3813  1.2072
   47CHL1   C26 4651   6.438   3.359   5.951 -0.6643 -0.0835  0.5212
   47CHL1  H26A 4652   6.423   3.289   5.866  2.0751  0.3834 -0.4335
   47CHL1  H26B 4653   6.362   3.333   6.028 -2.7627  0.1360 -1.3432
   47CHL1  H26C 4654   6.419   3.461   5.911  0.4192 -0.3947 -0.8533
   47CHL1   C27 4655   6.678   3.374   5.890 -0.8155 -0.0565  0.0674
   47CHL1  H27A 4656   6.674   3.303   5.805 -1.2058 -0.4235  0.3871
   47CHL1  H27B 4657   6.670   3.478   5.853 -0.3688  0.7577  2.0895
   47CHL1  H27C 4658   6.782   3.369   5.929 -0.0374  1.5599 -1.6579
   48CHL1    C3 4659   2.299   5.580   7.375  0.1669 -0.3672  1.1632
   48CHL1    H3 4660   2.402   5.612   7.346 -0.1180  0.2420  0.8071
   48CHL1    O3 4661   2.281   5.580   7.517 -0.2399  0.0437  0.1240
   48CHL1   H3' 4662   2.220   5.507   7.533  0.5079 -0.9129 -1.2188
   48CHL1    C4 4663   2.189   5.661   7.304  0.2445 -0.0732  0.8214
   48CHL1   H4A 4664   2.088   5.635   7.344  0.4499 -2.6553 -0.1608
   48CHL1   H4B 4665   2.213   5.763   7.340  1.4020  0.0439 -0.2403
   48CHL1    C5 4666   2.190   5.645   7.149 -0.0269 -0.4675 -0.5116
   48CHL1    C6 4667   2.192   5.751   7.072 -0.2117 -0.2199  0.1541
   48CHL1    H6 4668   2.193   5.853   7.114  1.7509 -0.7578  1.5653
   48CHL1    C7 4669   2.202   5.741   6.924  0.1572 -0.0965 -0.3835
   48CHL1   H7A 4670   2.131   5.816   6.883  1.0431  1.3792  0.6673
   48CHL1   H7B 4671   2.305   5.771   6.892 -0.2213 -0.0820 -1.6750
   48CHL1    C8 4672   2.174   5.599   6.867 -0.0841  0.2281 -0.3661
   48CHL1    H8 4673   2.063   5.594   6.874  0.0649 -1.1773  1.8982
   48CHL1   C14 4674   2.198   5.581   6.720  0.1683 -0.1355 -0.4577
   48CHL1   H14 4675   2.308   5.589   6.707  0.4573 -1.8178  0.6175
   48CHL1   C15 4676   2.127   5.686   6.630 -0.3532 -0.1468 -0.2545
   48CHL1  H15A 4677   2.022   5.697   6.664  0.9516  3.5295  3.5297
   48CHL1  H15B 4678   2.172   5.788   6.637 -2.0246  0.6315 -0.2590
   48CHL1   C16 4679   2.136   5.617   6.492  0.3500 -0.1595  0.5106
   48CHL1  H16A 4680   2.033   5.592   6.458  2.0126 -2.8228 -3.3679
   48CHL1  H16B 4681   2.184   5.681   6.414 -0.2810 -0.6697 -0.3173
   48CHL1   C17 4682   2.196   5.470   6.512  0.2161  0.3295 -0.0132
   48CHL1   H17 4683   2.305   5.485   6.494 -0.0268  2.4046 -0.0687
   48CHL1   C13 4684   2.170   5.446   6.654  0.6861  0.1673 -0.2850
   48CHL1   C18 4685   2.017   5.405   6.685 -0.5733 -0.4987  0.3366
   48CHL1  H18A 4686   1.949   5.475   6.632  1.3679  1.2785  0.0320
   48CHL1  H18B 4687   1.996   5.298   6.667 -1.8851 -0.1540 -0.3326
   48CHL1  H18C 4688   1.994   5.422   6.792 -2.4377 -1.4082  0.1111
   48CHL1   C12 4689   2.256   5.345   6.734  0.4488 -0.0306  0.4194
   48CHL1  H12A 4690   2.245   5.237   6.709 -2.3301  0.7579 -2.5086
   48CHL1  H12B 4691   2.364   5.358   6.715  0.2484  0.1636 -0.6748
   48CHL1   C11 4692   2.228   5.345   6.881 -0.4014  0.1577  0.1606
   48CHL1  H11A 4693   2.133   5.297   6.912 -0.6422 -0.6480 -1.6814
   48CHL1  H11B 4694   2.314   5.290   6.925 -1.5997 -0.2991  2.0241
   48CHL1    C9 4695   2.240   5.489   6.950  0.4007 -0.3428  0.0115
   48CHL1    H9 4696   2.347   5.520   6.940  0.2666  0.5226  1.0424
   48CHL1   C10 4697   2.202   5.501   7.092  0.9498 -0.1030 -0.6938
   48CHL1   C19 4698   2.061   5.437   7.125  0.5111  0.2759 -0.2893
   48CHL1  H19A 4699   2.052   5.335   7.082  0.5415  0.7773 -1.5399
   48CHL1  H19B 4700   2.040   5.424   7.233  1.1265  1.0646 -0.0664
   48CHL1  H19C 4701   1.986   5.502   7.075  0.8436  2.4380  1.8509
   48CHL1    C1 4702   2.304   5.419   7.181  0.0360 -0.2883  0.0125
   48CHL1   H1A 4703   2.295   5.313   7.148  0.4849 -0.6810  1.1075
   48CHL1   H1B 4704   2.408   5.453   7.161  1.1972 -4.0932 -1.2935
   48CHL1    C2 4705   2.289   5.432   7.332 -0.3897 -0.0134 -0.4994
   48CHL1   H2A 4706   2.366   5.362   7.370 -0.8705 -3.0980 -4.4808
   48CHL1   H2B 4707   2.186   5.400   7.356 -0.7898  1.5018 -0.0498
   48CHL1   C20 4708   2.140   5.378   6.405  0.0961  0.1413  0.4229
   48CHL1   H20 4709   2.034   5.353   6.426 -0.6979  2.7090 -0.2075
   48CHL1   C21 4710   2.219   5.253   6.409  0.1383 -0.3123  0.8599
   48CHL1  H21A 4711   2.193   5.183   6.492  3.6228 -2.7243  0.1329
   48CHL1  H21B 4712   2.183   5.195   6.321 -3.4435  1.9010  0.6636
   48CHL1  H21C 4713   2.329   5.264   6.417  0.3288  1.1224 -2.3099
   48CHL1   C22 4714   2.148   5.439   6.260  0.1985  0.2535  0.3775
   48CHL1  H22A 4715   2.100   5.361   6.197 -2.2682  0.7660  1.4976
   48CHL1  H22B 4716   2.086   5.529   6.242  1.4295  1.1994  0.7354
   48CHL1   C23 4717   2.285   5.466   6.198 -0.3972 -0.3265  0.2808
   48CHL1  H23A 4718   2.342   5.535   6.264  0.2571 -0.2979 -0.3009
   48CHL1  H23B 4719   2.342   5.372   6.186 -2.0276 -1.2489 -0.4493
   48CHL1   C24 4720   2.274   5.535   6.062  0.0882  0.4214 -0.5434
   48CHL1  H24A 4721   2.228   5.470   5.985  0.4375  0.1523 -0.5267
   48CHL1  H24B 4722   2.210   5.626   6.070  0.6973  0.7070  3.0630
   48CHL1   C25 4723   2.416   5.565   6.015 -0.1148  0.2400 -0.7180
   48CHL1   H25 4724   2.476   5.478   6.048 -1.3194 -0.6361 -0.8069
   48CHL1   C26 4725   2.422   5.574   5.863  0.2665  0.2912  0.0752
   48CHL1  H26A 4726   2.383   5.673   5.830 -1.6212 -0.3084  0.3881
   48CHL1  H26B 4727   2.526   5.554   5.832 -0.3185 -2.8219 -0.1925
   48CHL1  H26C 4728   2.357   5.500   5.813 -0.1153  0.2184  0.6617
   48CHL1   C27 4729   2.470   5.695   6.082  0.8215 -0.5717 -0.5216
   48CHL1  H27A 4730   2.418   5.788   6.052  1.5782  0.7263  1.8939
   48CHL1  H27B 4731   2.463   5.684   6.192  2.1736 -0.9117 -0.4487
   48CHL1  H27C 4732   2.579   5.701   6.060  1.1857  3.0949  1.4675
   49CHL1    C3 4733   0.992   3.468   7.699  0.8952  0.3628 -0.5380
   49CHL1    H3 4734   1.099   3.465   7.666  0.6118  0.7870 -1.5304
   49CHL1    O3 4735   0.977   3.419   7.834 -0.2895 -0.3596  0.4575
   49CHL1   H3' 4736   0.885   3.394   7.829 -0.8111  1.5436 -2.9014
   49CHL1    C4 4737   0.934   3.609   7.676  0.0621  0.0317  0.0660
   49CHL1   H4A 4738   0.829   3.621   7.710  0.0271  4.0494 -0.9485
   49CHL1   H4B 4739   0.986   3.685   7.737  0.3535  0.3696 -0.5915
   49CHL1    C5 4740   0.939   3.653   7.533  0.2045 -0.2478 -0.3661
   49CHL1    C6 4741   1.001   3.769   7.492  0.3194  0.2940 -0.3251
   49CHL1    H6 4742   1.048   3.843   7.559  1.2240  1.0671 -1.7604
   49CHL1    C7 4743   1.021   3.809   7.352  0.3856  0.2244  0.3373
   49CHL1   H7A 4744   1.014   3.918   7.332 -0.9747 -0.0851 -0.9953
   49CHL1   H7B 4745   1.121   3.777   7.315 -0.6656 -0.2628 -2.2528
   49CHL1    C8 4746   0.923   3.739   7.260 -0.2026  0.0950  0.2908
   49CHL1    H8 4747   0.820   3.778   7.277 -0.6006 -0.6099 -0.4146
   49CHL1   C14 4748   0.960   3.763   7.114 -0.3822 -0.2689  0.2204
   49CHL1   H14 4749   1.058   3.714   7.099 -1.1855 -2.2723  1.0585
   49CHL1   C15 4750   0.982   3.910   7.079 -0.1752  0.7571 -0.0079
   49CHL1  H15A 4751   0.889   3.960   7.114 -1.0037  0.5759 -1.8232
   49CHL1  H15B 4752   1.075   3.956   7.118  0.2725  0.5124 -0.7653
   49CHL1   C16 4753   0.976   3.915   6.926  0.2790  0.2390  0.0407
   49CHL1  H16A 4754   0.927   4.001   6.876  1.4979  1.1434  0.3451
   49CHL1  H16B 4755   1.083   3.921   6.895 -0.0512 -0.7567 -1.3553
   49CHL1   C17 4756   0.932   3.765   6.884  0.0636  0.5260 -0.2680
   49CHL1   H17 4757   1.031   3.717   6.866  0.3350  0.3622  1.5401
   49CHL1   C13 4758   0.877   3.697   7.011  0.6184 -0.0584  0.2732
   49CHL1   C18 4759   0.733   3.737   7.025 -0.6833  0.4101  0.0091
   49CHL1  H18A 4760   0.710   3.844   7.041 -0.8317  0.2408  0.9928
   49CHL1  H18B 4761   0.666   3.695   6.947 -0.4819 -2.4999  1.2572
   49CHL1  H18C 4762   0.687   3.696   7.117 -0.8232  0.2498 -0.1314
   49CHL1   C12 4763   0.874   3.539   7.024  0.4015  0.4403 -0.5280
   49CHL1  H12A 4764   0.794   3.495   6.961  2.5169 -2.9650 -1.0671
   49CHL1  H12B 4765   0.967   3.500   6.978 -1.6948 -2.6623 -2.4926
   49CHL1   C11 4766   0.856   3.493   7.174 -0.7663  0.8666  0.6338
   49CHL1  H11A 4767   0.751   3.464   7.198  0.1151 -1.9441  1.5323
   49CHL1  H11B 4768   0.914   3.398   7.183 -2.4747 -0.1658  1.1777
   49CHL1    C9 4769   0.919   3.589   7.279 -0.0098  0.3398 -0.5354
   49CHL1    H9 4770   1.026   3.562   7.266 -0.1067 -0.1537 -0.3569
   49CHL1   C10 4771   0.881   3.551   7.426  0.8733 -0.2569 -0.1180
   49CHL1   C19 4772   0.730   3.573   7.431 -0.2462  0.2334  0.2570
   49CHL1  H19A 4773   0.687   3.542   7.529  1.8185 -0.0328  1.1296
   49CHL1  H19B 4774   0.703   3.678   7.408  0.5244  0.4197  0.1630
   49CHL1  H19C 4775   0.664   3.522   7.357 -0.8151 -0.9320  1.5358
   49CHL1    C1 4776   0.918   3.405   7.457  0.4028  0.3128 -0.2150
   49CHL1   H1A 4777   0.848   3.335   7.407 -0.1427 -0.4798  1.5679
   49CHL1   H1B 4778   1.025   3.392   7.429  0.2874 -0.6257 -0.2416
   49CHL1    C2 4779   0.907   3.369   7.611  0.6445  0.0996 -0.1995
   49CHL1   H2A 4780   0.951   3.269   7.630 -1.8250 -0.5949  2.6436
   49CHL1   H2B 4781   0.798   3.358   7.632  0.8882 -6.0189 -0.4896
   49CHL1   C20 4782   0.858   3.762   6.748  0.5452 -0.6089  0.0522
   49CHL1   H20 4783   0.762   3.814   6.771 -0.0886 -1.4868 -0.5871
   49CHL1   C21 4784   0.818   3.619   6.704  0.5316 -0.0510  0.8763
   49CHL1  H21A 4785   0.904   3.550   6.716  0.0735 -0.5712  1.2211
   49CHL1  H21B 4786   0.779   3.632   6.601  0.7358 -1.5772  0.5815
   49CHL1  H21C 4787   0.731   3.576   6.758 -0.4666  2.4656  1.4025
   49CHL1   C22 4788   0.942   3.835   6.639 -0.8644  0.4059 -0.0431
   49CHL1  H22A 4789   0.878   3.829   6.548 -0.0949 -2.2844 -0.5009
   49CHL1  H22B 4790   0.956   3.944   6.655  2.7923  0.0462  0.1156
   49CHL1   C23 4791   1.065   3.764   6.587 -0.6749  0.2473 -0.4381
   49CHL1  H23A 4792   1.136   3.754   6.673 -2.3459 -0.8836  0.8659
   49CHL1  H23B 4793   1.052   3.660   6.551  2.4556  0.0744 -1.4134
   49CHL1   C24 4794   1.142   3.837   6.476  0.2884  0.4557 -0.6356
   49CHL1  H24A 4795   1.097   3.811   6.378  0.8972  0.6038 -0.9592
   49CHL1  H24B 4796   1.128   3.947   6.483 -0.0784  0.3329  0.6575
   49CHL1   C25 4797   1.294   3.795   6.458  0.5831  0.0645 -0.2789
   49CHL1   H25 4798   1.341   3.809   6.557  1.4655  3.8086 -1.0439
   49CHL1   C26 4799   1.308   3.649   6.411  0.2678  0.3042  0.1089
   49CHL1  H26A 4800   1.263   3.629   6.312  0.3829  0.5508  0.0069
   49CHL1  H26B 4801   1.413   3.615   6.398 -0.2633 -1.1522 -0.6038
   49CHL1  H26C 4802   1.253   3.572   6.470  0.4746  0.8205  1.0038
   49CHL1   C27 4803   1.371   3.875   6.353 -0.6618 -0.1791 -0.7245
   49CHL1  H27A 4804   1.393   3.973   6.402 -0.6531 -0.6400  0.2222
   49CHL1  H27B 4805   1.475   3.836   6.341  0.9909  2.9301  1.8060
   49CHL1  H27C 4806   1.321   3.889   6.255 -1.9232 -1.4722 -0.2990
   50CHL1    C3 4807   2.303   1.841   6.089 -0.0535 -0.2018 -0.2798
   50CHL1    H3 4808   2.344   1.738   6.094  1.4843  0.3509 -0.8505
   50CHL1    O3 4809   2.294   1.883   5.953 -0.5866  0.1715 -0.4258
   50CHL1   H3' 4810   2.281   1.978   5.957 -1.7502  0.2202 -3.3081
   50CHL1    C4 4811   2.162   1.848   6.155  0.4886  0.4874 -0.2016
   50CHL1   H4A 4812   2.113   1.947   6.153 -0.9668 -0.2102 -0.6284
   50CHL1   H4B 4813   2.108   1.779   6.086  0.7585  0.7563 -0.6804
   50CHL1    C5 4814   2.169   1.801   6.296 -0.7462  0.3148  0.0892
   50CHL1    C6 4815   2.086   1.704   6.343  0.0562  0.4169 -0.0060
   50CHL1    H6 4816   2.002   1.680   6.276 -0.6229  2.0364  0.2226
   50CHL1    C7 4817   2.095   1.651   6.485  0.2947 -0.1955 -0.5751
   50CHL1   H7A 4818   1.995   1.629   6.526  0.0043  1.5298 -0.2677
   50CHL1   H7B 4819   2.163   1.563   6.482 -0.7201 -0.9969 -0.5224
   50CHL1    C8 4820   2.172   1.745   6.584  0.6337 -0.4037  0.7088
   50CHL1    H8 4821   2.099   1.824   6.613 -0.1139 -1.0254  0.5527
   50CHL1   C14 4822   2.206   1.671   6.714 -0.1462 -0.0727 -0.8308
   50CHL1   H14 4823   2.276   1.592   6.677 -1.2527 -0.6237 -1.8371
   50CHL1   C15 4824   2.095   1.602   6.780  0.4782 -0.4945 -0.0429
   50CHL1  H15A 4825   2.014   1.677   6.790 -0.7967 -1.8164 -0.1879
   50CHL1  H15B 4826   2.046   1.515   6.732  0.3761 -0.4333 -0.0492
   50CHL1   C16 4827   2.155   1.574   6.918  0.2443 -0.5982 -0.4914
   50CHL1  H16A 4828   2.079   1.600   6.995  0.6114  0.8457 -0.5985
   50CHL1  H16B 4829   2.181   1.466   6.922  0.8011 -0.4836 -0.8674
   50CHL1   C17 4830   2.286   1.654   6.929 -0.0452 -0.5403  0.8350
   50CHL1   H17 4831   2.368   1.586   6.896 -0.1333  0.3036 -1.2768
   50CHL1   C13 4832   2.273   1.760   6.816  0.3598 -0.4652  0.4184
   50CHL1   C18 4833   2.176   1.875   6.851  0.7511  0.6877 -0.3524
   50CHL1  H18A 4834   2.150   1.940   6.765  1.1336  1.0933 -0.1637
   50CHL1  H18B 4835   2.080   1.852   6.903  0.6212  1.5025 -0.2044
   50CHL1  H18C 4836   2.231   1.946   6.917  1.9777 -1.4472  1.0142
   50CHL1   C12 4837   2.409   1.799   6.757  0.3695  0.4347  0.0314
   50CHL1  H12A 4838   2.471   1.863   6.824 -1.5330  1.7470  0.6298
   50CHL1  H12B 4839   2.473   1.714   6.727 -0.0411 -0.3479  1.2971
   50CHL1   C11 4840   2.386   1.874   6.626  0.0546  0.5624 -0.2688
   50CHL1  H11A 4841   2.341   1.973   6.646  0.9562  0.7097  1.1472
   50CHL1  H11B 4842   2.484   1.904   6.582  0.0326  0.0576 -0.6704
   50CHL1    C9 4843   2.300   1.796   6.517 -0.6079 -0.1655  0.6659
   50CHL1    H9 4844   2.365   1.709   6.491  0.0772  1.1014 -2.2201
   50CHL1   C10 4845   2.280   1.868   6.384  0.0808  0.7023 -0.2740
   50CHL1   C19 4846   2.231   2.007   6.410  0.0238  0.1701 -0.0517
   50CHL1  H19A 4847   2.304   2.070   6.465  0.2378  0.6995 -0.9321
   50CHL1  H19B 4848   2.215   2.069   6.320 -0.0448  2.0009  1.1694
   50CHL1  H19C 4849   2.133   1.999   6.462  0.5758 -0.1056  0.9831
   50CHL1    C1 4850   2.419   1.878   6.313 -0.1324 -0.3088  0.0500
   50CHL1   H1A 4851   2.485   1.955   6.357 -1.0033  1.0660 -0.9555
   50CHL1   H1B 4852   2.459   1.774   6.310 -0.2004 -0.3777  1.1922
   50CHL1    C2 4853   2.400   1.935   6.167 -0.3000 -0.0165 -0.0874
   50CHL1   H2A 4854   2.494   1.941   6.109 -1.1143 -0.4298 -1.4840
   50CHL1   H2B 4855   2.361   2.039   6.179  1.2264  0.4743  0.9615
   50CHL1   C20 4856   2.318   1.708   7.077  0.3418 -0.9664  1.1471
   50CHL1   H20 4857   2.227   1.758   7.116  0.9973 -0.0740  1.5823
   50CHL1   C21 4858   2.433   1.811   7.088  0.8188 -0.1458 -0.2637
   50CHL1  H21A 4859   2.455   1.840   7.193  1.4371  0.9106 -0.6697
   50CHL1  H21B 4860   2.390   1.897   7.031 -2.0984 -1.6474 -0.4827
   50CHL1  H21C 4861   2.525   1.763   7.049 -0.3489 -4.2195  1.4785
   50CHL1   C22 4862   2.334   1.601   7.179  1.1523  0.1131 -0.1344
   50CHL1  H22A 4863   2.270   1.514   7.157  1.2404 -1.1257  3.6476
   50CHL1  H22B 4864   2.438   1.562   7.170  0.9542  0.0497 -2.5964
   50CHL1   C23 4865   2.298   1.639   7.321  0.2863  0.6432  0.1204
   50CHL1  H23A 4866   2.330   1.546   7.373 -0.4892  0.1177 -0.3281
   50CHL1  H23B 4867   2.348   1.732   7.357 -0.8798  1.1696  0.4233
   50CHL1   C24 4868   2.147   1.639   7.356  0.3581 -0.2278 -0.0748
   50CHL1  H24A 4869   2.105   1.689   7.266  1.9016  0.2970 -0.5454
   50CHL1  H24B 4870   2.096   1.542   7.369  0.1070 -0.0355  0.3695
   50CHL1   C25 4871   2.131   1.740   7.473  0.6124 -0.3980 -0.9426
   50CHL1   H25 4872   2.200   1.824   7.450  1.0828  0.8810  3.9775
   50CHL1   C26 4873   1.984   1.791   7.486 -0.3295 -0.0922  0.3880
   50CHL1  H26A 4874   1.960   1.872   7.558 -2.7997  0.3976 -0.8708
   50CHL1  H26B 4875   1.949   1.830   7.388  1.7235  1.9874  0.3839
   50CHL1  H26C 4876   1.923   1.709   7.528 -1.6240  0.3724 -0.5397
   50CHL1   C27 4877   2.170   1.679   7.612  0.7670  0.1229  0.3026
   50CHL1  H27A 4878   2.275   1.642   7.618  0.5308 -0.7892 -0.8653
   50CHL1  H27B 4879   2.146   1.750   7.695  0.3410  0.3727 -0.0281
   50CHL1  H27C 4880   2.116   1.583   7.624  0.4899  0.3597  1.0101
   51CHL1    C3 4881   3.681   3.518   4.402 -0.3255 -0.7926  0.4468
   51CHL1    H3 4882   3.787   3.485   4.398 -0.3390 -1.7005  4.2819
   51CHL1    O3 4883   3.648   3.584   4.275 -0.0877 -0.3783 -0.1812
   51CHL1   H3' 4884   3.562   3.621   4.298  0.6064 -0.2099  2.4076
   51CHL1    C4 4885   3.590   3.398   4.429 -0.4310 -0.7319  0.0259
   51CHL1   H4A 4886   3.482   3.423   4.417 -0.5792 -0.7444  1.2275
   51CHL1   H4B 4887   3.612   3.323   4.350  1.3297  0.1226 -0.3330
   51CHL1    C5 4888   3.607   3.343   4.563 -0.1980  0.2776  0.0935
   51CHL1    C6 4889   3.620   3.211   4.577  0.4796  0.4170  0.2400
   51CHL1    H6 4890   3.619   3.149   4.486  0.3475  0.1604  0.4154
   51CHL1    C7 4891   3.643   3.131   4.700  0.8871  0.3785  0.2908
   51CHL1   H7A 4892   3.578   3.041   4.701  1.1568  0.1229 -1.5765
   51CHL1   H7B 4893   3.744   3.087   4.713  0.1273 -1.3210  0.7493
   51CHL1    C8 4894   3.612   3.221   4.824 -0.9311 -0.3125  0.4337
   51CHL1    H8 4895   3.503   3.244   4.832 -1.0994 -1.0125  0.1675
   51CHL1   C14 4896   3.671   3.154   4.952  0.2485 -0.1637  0.2567
   51CHL1   H14 4897   3.780   3.144   4.935  0.2730  3.2960 -3.0699
   51CHL1   C15 4898   3.638   3.013   4.983 -0.2403  0.2328 -0.3631
   51CHL1  H15A 4899   3.530   2.988   4.983 -0.3853  0.7386 -1.7073
   51CHL1  H15B 4900   3.683   2.945   4.908  0.5669 -1.6690  1.7335
   51CHL1   C16 4901   3.701   2.988   5.124  0.2108  0.4769  0.2142
   51CHL1  H16A 4902   3.614   2.951   5.183 -0.0851  1.3576  0.3409
   51CHL1  H16B 4903   3.791   2.923   5.123 -0.9296 -1.1822 -1.2603
   51CHL1   C17 4904   3.729   3.132   5.174 -0.3804  0.0137  0.2483
   51CHL1   H17 4905   3.839   3.141   5.164 -0.3144  0.5777  1.3510
   51CHL1   C13 4906   3.663   3.233   5.076 -0.3420  0.7645 -0.4280
   51CHL1   C18 4907   3.509   3.249   5.107 -0.1573  0.7777 -0.1437
   51CHL1  H18A 4908   3.447   3.282   5.021 -1.5764 -1.0994  0.1011
   51CHL1  H18B 4909   3.466   3.154   5.143 -0.3022  0.9877  0.2473
   51CHL1  H18C 4910   3.498   3.326   5.187  0.3454  0.2959  0.3993
   51CHL1   C12 4911   3.738   3.363   5.058  0.1398  0.4156  0.2298
   51CHL1  H12A 4912   3.731   3.419   5.154  0.7061  0.3032  0.3461
   51CHL1  H12B 4913   3.844   3.345   5.029 -1.0944 -2.2444 -3.2867
   51CHL1   C11 4914   3.671   3.442   4.934 -1.0106  0.1052  0.0323
   51CHL1  H11A 4915   3.569   3.469   4.970 -1.1329 -3.0404  2.4965
   51CHL1  H11B 4916   3.732   3.535   4.934 -0.9615  0.0804  1.1446
   51CHL1    C9 4917   3.680   3.358   4.806  0.7155 -0.0507 -0.5150
   51CHL1    H9 4918   3.788   3.349   4.785  0.8153  0.5274 -0.2695
   51CHL1   C10 4919   3.621   3.438   4.683 -0.4283  0.7594 -0.2746
   51CHL1   C19 4920   3.478   3.485   4.706  0.0807 -0.0728 -0.5285
   51CHL1  H19A 4921   3.436   3.535   4.616 -2.6704 -0.6089  0.3298
   51CHL1  H19B 4922   3.412   3.399   4.730  1.1885 -1.0331 -0.8616
   51CHL1  H19C 4923   3.482   3.556   4.791  1.5921 -0.1719 -0.5048
   51CHL1    C1 4924   3.717   3.558   4.646  0.5530  0.5306  0.7229
   51CHL1   H1A 4925   3.719   3.631   4.729 -2.1133  0.8472  0.5847
   51CHL1   H1B 4926   3.821   3.519   4.647 -0.0377 -1.1871 -0.3113
   51CHL1    C2 4927   3.683   3.625   4.507 -0.2405  0.1068  0.3437
   51CHL1   H2A 4928   3.746   3.715   4.489  2.2475 -0.8661  3.2594
   51CHL1   H2B 4929   3.581   3.668   4.521  0.2052  0.9285  1.2480
   51CHL1   C20 4930   3.693   3.150   5.320  0.4584  0.3486  0.1906
   51CHL1   H20 4931   3.583   3.139   5.330  0.5975 -2.5489 -0.4447
   51CHL1   C21 4932   3.730   3.285   5.382 -0.2685  0.0388  0.1096
   51CHL1  H21A 4933   3.839   3.302   5.377 -0.4800  2.6309  2.1052
   51CHL1  H21B 4934   3.720   3.275   5.492  1.4275 -1.8315  0.1497
   51CHL1  H21C 4935   3.674   3.371   5.340 -1.6271 -1.3714 -1.1432
   51CHL1   C22 4936   3.745   3.035   5.401 -0.4683  0.6893  0.4687
   51CHL1  H22A 4937   3.690   3.040   5.497 -0.5558  0.4385  0.4328
   51CHL1  H22B 4938   3.711   2.940   5.354 -1.0767  2.0520 -2.0230
   51CHL1   C23 4939   3.898   3.021   5.416  0.3619  0.2199  0.2154
   51CHL1  H23A 4940   3.951   2.986   5.325 -2.5774  0.6600 -1.7973
   51CHL1  H23B 4941   3.934   3.121   5.448 -0.3093  0.7225 -0.5759
   51CHL1   C24 4942   3.935   2.919   5.525  0.2412  0.0915  0.1048
   51CHL1  H24A 4943   3.859   2.942   5.603 -0.6524  1.4339 -1.1200
   51CHL1  H24B 4944   3.919   2.815   5.489  1.1014  0.3695 -1.1781
   51CHL1   C25 4945   4.072   2.947   5.588  0.2740 -0.0039 -0.0864
   51CHL1   H25 4946   4.075   3.058   5.583  0.0364  0.0404  0.6646
   51CHL1   C26 4947   4.083   2.899   5.734 -0.0533  0.9419 -0.0596
   51CHL1  H26A 4948   4.007   2.943   5.802 -1.3542  1.3277 -1.6990
   51CHL1  H26B 4949   4.067   2.789   5.740 -1.2783  1.0137 -1.4673
   51CHL1  H26C 4950   4.180   2.919   5.784 -1.3343  3.2343  1.6887
   51CHL1   C27 4951   4.176   2.893   5.492 -0.6521  0.9884 -0.1156
   51CHL1  H27A 4952   4.173   2.957   5.401 -1.2046  3.1402  1.3286
   51CHL1  H27B 4953   4.277   2.874   5.535 -0.5076 -0.6208 -1.0723
   51CHL1  H27C 4954   4.153   2.786   5.475  1.9861  0.2269  0.5287
   52CHL1    C3 4955   3.168   3.417   4.457  0.4216 -0.3054 -0.3342
   52CHL1    H3 4956   3.235   3.472   4.527 -0.4622 -0.6819  0.8338
   52CHL1    O3 4957   3.227   3.438   4.328 -0.4523 -0.3352  0.0102
   52CHL1   H3' 4958   3.163   3.396   4.269 -2.2296  0.4473  1.2693
   52CHL1    C4 4959   3.184   3.270   4.504  0.2026  0.0099 -0.1451
   52CHL1   H4A 4960   3.121   3.218   4.428  0.4426  0.0197 -0.3513
   52CHL1   H4B 4961   3.285   3.228   4.485 -0.5134 -3.6216  2.7632
   52CHL1    C5 4962   3.134   3.234   4.644 -0.3203 -0.0074  0.6698
   52CHL1    C6 4963   3.221   3.180   4.729  0.0553 -0.6149  0.1734
   52CHL1    H6 4964   3.325   3.159   4.699  0.4572 -1.0394  1.8054
   52CHL1    C7 4965   3.180   3.156   4.874  0.3532 -0.1519  0.0778
   52CHL1   H7A 4966   3.207   3.050   4.898  1.5622  0.0948 -0.0988
   52CHL1   H7B 4967   3.228   3.228   4.945  0.2645 -0.0678  0.0523
   52CHL1    C8 4968   3.022   3.157   4.894  0.2299  0.1416  0.4554
   52CHL1    H8 4969   2.978   3.065   4.851 -0.4478 -0.6912  2.7900
   52CHL1   C14 4970   3.000   3.158   5.055 -0.9343 -0.1367  0.0208
   52CHL1   H14 4971   3.037   3.257   5.091 -0.5606 -0.6666  1.1394
   52CHL1   C15 4972   3.059   3.052   5.140 -0.3355 -0.3698 -0.1552
   52CHL1  H15A 4973   3.047   2.951   5.096  0.0873 -0.7456  0.5782
   52CHL1  H15B 4974   3.167   3.059   5.164 -0.3154 -1.3492  0.0786
   52CHL1   C16 4975   2.970   3.054   5.266 -0.2821  1.0305 -0.4129
   52CHL1  H16A 4976   2.925   2.960   5.302 -1.3381  2.1548  1.3838
   52CHL1  H16B 4977   3.044   3.082   5.345  0.1598  0.3311 -0.5800
   52CHL1   C17 4978   2.863   3.171   5.248  0.0534 -0.1255  0.0429
   52CHL1   H17 4979   2.915   3.267   5.266  0.9653 -0.0475 -2.5376
   52CHL1   C13 4980   2.849   3.173   5.092 -0.5183  0.6809 -1.2095
   52CHL1   C18 4981   2.777   3.044   5.051  0.6701 -0.1367 -0.1047
   52CHL1  H18A 4982   2.772   3.029   4.941 -1.9994  0.2244 -0.1016
   52CHL1  H18B 4983   2.805   2.950   5.103 -1.6304 -0.0787  1.4298
   52CHL1  H18C 4984   2.670   3.048   5.082  0.4439  1.6620 -0.9629
   52CHL1   C12 4985   2.794   3.299   5.016 -0.3718  0.7607  0.0930
   52CHL1  H12A 4986   2.688   3.317   5.043 -0.9244 -0.3984 -1.2084
   52CHL1  H12B 4987   2.853   3.389   5.048 -1.1099  1.3573 -0.1989
   52CHL1   C11 4988   2.812   3.292   4.862 -0.7725  0.4394  0.1508
   52CHL1  H11A 4989   2.763   3.204   4.817  0.2384  0.5910 -1.3021
   52CHL1  H11B 4990   2.770   3.381   4.811 -1.4831  0.0644  0.0736
   52CHL1    C9 4991   2.961   3.283   4.824  0.4374  0.2639 -0.8745
   52CHL1    H9 4992   3.008   3.373   4.868  0.0645 -0.6098  1.4741
   52CHL1   C10 4993   2.989   3.290   4.665 -0.4955 -0.0096 -0.1008
   52CHL1   C19 4994   2.896   3.195   4.584  0.6815  0.3336  0.6095
   52CHL1  H19A 4995   2.916   3.088   4.605  1.9009  0.3946 -0.1571
   52CHL1  H19B 4996   2.790   3.221   4.604 -0.0496 -2.6488  1.1651
   52CHL1  H19C 4997   2.912   3.207   4.475 -2.4223 -1.3853 -0.1620
   52CHL1    C1 4998   2.967   3.433   4.623 -1.2078 -0.5190  0.9845
   52CHL1   H1A 4999   2.859   3.458   4.635 -0.7925  2.7051 -0.6950
   52CHL1   H1B 5000   3.023   3.500   4.692  1.9211  1.4484 -3.0157
   52CHL1    C2 5001   3.024   3.466   4.479  0.1816 -0.2517  0.1266
   52CHL1   H2A 5002   3.011   3.574   4.456 -1.6772  0.1250  2.5849
   52CHL1   H2B 5003   2.972   3.415   4.395 -0.3905 -1.9752  1.4631
   52CHL1   C20 5004   2.747   3.152   5.346  0.0171 -0.3361  0.9780
   52CHL1   H20 5005   2.709   3.048   5.335 -1.3832  0.1107  1.2947
   52CHL1   C21 5006   2.632   3.247   5.305 -0.1180 -0.7650  0.2048
   52CHL1  H21A 5007   2.658   3.355   5.309 -3.4170  0.1096  1.6154
   52CHL1  H21B 5008   2.541   3.238   5.369 -0.7566  1.2249 -0.3394
   52CHL1  H21C 5009   2.584   3.219   5.209  0.3659  0.2198 -0.3412
   52CHL1   C22 5010   2.788   3.178   5.489 -0.9231  0.3241 -0.2157
   52CHL1  H22A 5011   2.702   3.138   5.546  0.2631 -1.0182  0.7163
   52CHL1  H22B 5012   2.879   3.123   5.519 -1.6578  0.6362  2.8726
   52CHL1   C23 5013   2.806   3.318   5.542 -0.1027  0.3656  0.1640
   52CHL1  H23A 5014   2.890   3.375   5.497 -0.7554  0.3515 -1.1136
   52CHL1  H23B 5015   2.712   3.377   5.538  0.3677  1.2352  1.3872
   52CHL1   C24 5016   2.841   3.326   5.688 -0.0052  0.4925 -0.3138
   52CHL1  H24A 5017   2.775   3.246   5.729 -0.7730  0.5424 -1.4152
   52CHL1  H24B 5018   2.941   3.287   5.718 -0.2575 -1.0765 -1.4063
   52CHL1   C25 5019   2.820   3.464   5.755 -0.1978  0.0519  0.2195
   52CHL1   H25 5020   2.719   3.499   5.725  0.1504 -0.2732 -1.4349
   52CHL1   C26 5021   2.818   3.444   5.907 -0.5173  0.1014  0.2700
   52CHL1  H26A 5022   2.745   3.370   5.946 -1.0488  0.2000 -0.4960
   52CHL1  H26B 5023   2.914   3.398   5.937 -1.1755 -2.4429 -1.2121
   52CHL1  H26C 5024   2.799   3.540   5.960 -0.4995 -0.6261  1.6253
   52CHL1   C27 5025   2.919   3.566   5.728  0.6175 -0.0176  0.0432
   52CHL1  H27A 5026   2.908   3.654   5.796  0.8506 -0.7672  1.0638
   52CHL1  H27B 5027   3.015   3.516   5.752  1.4189  1.4469  0.0380
   52CHL1  H27C 5028   2.936   3.604   5.625  1.0790  0.6323  0.3501
   53CHL1    C3 5029   3.457   2.186   4.554 -0.8820 -0.7291 -0.7864
   53CHL1    H3 5030   3.350   2.157   4.551 -1.3326  0.4860  1.7403
   53CHL1    O3 5031   3.492   2.237   4.427  0.0983 -0.0325 -0.4225
   53CHL1   H3' 5032   3.534   2.322   4.440  0.9916  0.0412 -3.1825
   53CHL1    C4 5033   3.477   2.304   4.648 -0.4365 -0.7538 -0.1553
   53CHL1   H4A 5034   3.578   2.349   4.633  0.0397 -1.6583  0.2584
   53CHL1   H4B 5035   3.422   2.396   4.619  1.4083  0.3206 -0.4524
   53CHL1    C5 5036   3.460   2.264   4.791  0.0697  0.1783 -0.2136
   53CHL1    C6 5037   3.373   2.319   4.880  0.8368  0.2935  0.9190
   53CHL1    H6 5038   3.316   2.410   4.854 -2.5844 -1.3165  2.1091
   53CHL1    C7 5039   3.348   2.282   5.022  0.1543 -0.4570  0.0658
   53CHL1   H7A 5040   3.364   2.368   5.090  1.7552 -1.2036  0.6909
   53CHL1   H7B 5041   3.245   2.252   5.049 -0.9871  2.0332 -1.2621
   53CHL1    C8 5042   3.469   2.190   5.071  0.2135 -0.3034 -0.1055
   53CHL1    H8 5043   3.561   2.252   5.071 -0.5216  0.8597 -1.5521
   53CHL1   C14 5044   3.439   2.136   5.210 -0.4453  0.7590  0.2077
   53CHL1   H14 5045   3.340   2.085   5.207 -0.5325  0.8980  0.6369
   53CHL1   C15 5046   3.420   2.225   5.328  0.5199 -0.7247 -0.2271
   53CHL1  H15A 5047   3.504   2.296   5.344 -1.2748  1.2623  0.9804
   53CHL1  H15B 5048   3.333   2.294   5.324 -0.2095 -1.6068  0.2862
   53CHL1   C16 5049   3.406   2.144   5.456  0.3029 -0.2703  0.3456
   53CHL1  H16A 5050   3.472   2.186   5.535  1.3863  1.0209 -1.1761
   53CHL1  H16B 5051   3.301   2.124   5.484  0.4191  0.1930  1.1251
   53CHL1   C17 5052   3.456   1.994   5.409 -0.2169  0.3719  1.2307
   53CHL1   H17 5053   3.362   1.938   5.390 -1.0765  2.2269 -0.3553
   53CHL1   C13 5054   3.523   2.015   5.259  0.4879 -0.9083 -0.0606
   53CHL1   C18 5055   3.669   2.068   5.275  0.3354 -0.0608  0.6089
   53CHL1  H18A 5056   3.672   2.153   5.346  0.1513  2.2192 -1.9472
   53CHL1  H18B 5057   3.736   1.987   5.310  1.6470  0.2772 -0.9788
   53CHL1  H18C 5058   3.715   2.104   5.180  0.9915  0.0216  0.9516
   53CHL1   C12 5059   3.515   1.904   5.160 -0.2236 -0.4139  0.7210
   53CHL1  H12A 5060   3.579   1.817   5.188  0.1516  0.2451  2.0357
   53CHL1  H12B 5061   3.415   1.862   5.139  0.3690 -1.1551 -0.7693
   53CHL1   C11 5062   3.567   1.950   5.019 -0.6807 -0.1074 -0.3084
   53CHL1  H11A 5063   3.677   1.960   5.008 -0.7537 -1.4850 -3.4310
   53CHL1  H11B 5064   3.538   1.874   4.944 -0.4475  0.6346 -1.1793
   53CHL1    C9 5065   3.493   2.075   4.969 -0.2487 -0.7097  0.5905
   53CHL1    H9 5066   3.399   2.025   4.938  0.5690 -2.2234  0.4391
   53CHL1   C10 5067   3.537   2.132   4.835  0.0994 -0.3003 -0.0236
   53CHL1   C19 5068   3.682   2.178   4.839 -0.2932  0.0799  0.0215
   53CHL1  H19A 5069   3.693   2.254   4.919  0.1565 -0.6790  0.6913
   53CHL1  H19B 5070   3.749   2.097   4.874 -0.8833 -0.2220  0.4768
   53CHL1  H19C 5071   3.719   2.214   4.741  1.5592 -0.2994  0.5535
   53CHL1    C1 5072   3.530   2.016   4.728  0.8844 -0.1678 -0.5978
   53CHL1   H1A 5073   3.600   1.936   4.759 -0.8020 -1.0027  1.3269
   53CHL1   H1B 5074   3.427   1.974   4.731  0.4717  0.8624  1.7482
   53CHL1    C2 5075   3.550   2.063   4.582 -0.1772  0.0646  0.0676
   53CHL1   H2A 5076   3.526   1.982   4.510 -2.9617 -1.0232  2.0471
   53CHL1   H2B 5077   3.654   2.102   4.575 -0.0890 -0.4025 -1.6670
   53CHL1   C20 5078   3.537   1.909   5.514  0.0648  0.8393  0.2077
   53CHL1   H20 5079   3.641   1.893   5.480 -0.6520 -1.8722 -0.9782
   53CHL1   C21 5080   3.475   1.768   5.505  1.4044  0.2165  0.2113
   53CHL1  H21A 5081   3.482   1.722   5.404 -3.1366  1.8890 -1.1042
   53CHL1  H21B 5082   3.368   1.765   5.533  1.4884 -0.2905  0.4871
   53CHL1  H21C 5083   3.524   1.697   5.576 -0.2541 -0.3717  0.8018
   53CHL1   C22 5084   3.531   1.961   5.659  0.5060 -0.2647 -0.4239
   53CHL1  H22A 5085   3.592   2.053   5.674  0.0367  0.1128 -0.7805
   53CHL1  H22B 5086   3.425   1.986   5.682  1.3705  2.4566  1.0943
   53CHL1   C23 5087   3.583   1.868   5.777 -0.0925  0.0199  0.0615
   53CHL1  H23A 5088   3.518   1.778   5.777  1.0461 -0.8519  1.2111
   53CHL1  H23B 5089   3.687   1.838   5.751 -0.3826 -0.2562 -0.7963
   53CHL1   C24 5090   3.593   1.942   5.910  0.2702 -0.4793  0.2656
   53CHL1  H24A 5091   3.661   2.028   5.892  0.5836 -1.2132 -2.5125
   53CHL1  H24B 5092   3.490   1.977   5.928  0.5723 -0.0620  1.2203
   53CHL1   C25 5093   3.652   1.851   6.019 -0.1010  0.4716  0.6849
   53CHL1   H25 5094   3.621   1.745   6.007 -1.1788  0.5737  2.2784
   53CHL1   C26 5095   3.807   1.849   6.014 -0.4269  0.0894  0.2206
   53CHL1  H26A 5096   3.850   1.818   5.917  0.9358 -2.7860  1.6146
   53CHL1  H26B 5097   3.844   1.949   6.048 -1.3040  0.9764 -1.3220
   53CHL1  H26C 5098   3.829   1.767   6.086 -1.9239 -2.4604 -2.0367
   53CHL1   C27 5099   3.604   1.892   6.156  0.3251  0.0769 -0.5572
   53CHL1  H27A 5100   3.494   1.896   6.164  0.3694 -1.1127  1.6616
   53CHL1  H27B 5101   3.638   1.817   6.231  0.2492 -1.4637 -2.0133
   53CHL1  H27C 5102   3.649   1.989   6.187  3.8138 -1.1175 -1.4223
   54CHL1    C3 5103   1.640   2.929   4.634 -0.1986 -0.1102  0.1513
   54CHL1    H3 5104   1.681   3.032   4.640  0.7281 -0.4175 -0.6377
   54CHL1    O3 5105   1.614   2.879   4.506 -0.8174 -0.2277 -0.7081
   54CHL1   H3' 5106   1.586   2.957   4.456 -0.8067  0.2260 -0.0290
   54CHL1    C4 5107   1.734   2.830   4.701  0.7901 -0.1114 -0.5126
   54CHL1   H4A 5108   1.680   2.733   4.699  0.2566  0.1867 -0.7623
   54CHL1   H4B 5109   1.830   2.813   4.647  1.5739 -1.4656  1.2086
   54CHL1    C5 5110   1.755   2.876   4.846 -1.0317 -0.2182 -0.3013
   54CHL1    C6 5111   1.881   2.909   4.894  0.1351  0.5810  0.2807
   54CHL1    H6 5112   1.966   2.904   4.824  0.5188  0.5268  0.7407
   54CHL1    C7 5113   1.919   2.946   5.036 -0.0035  0.2945  0.4561
   54CHL1   H7A 5114   2.009   2.891   5.072  1.6895  1.6989 -1.3769
   54CHL1   H7B 5115   1.946   3.054   5.034 -0.6061  0.4424  0.1629
   54CHL1    C8 5116   1.795   2.921   5.128 -0.0467 -0.0019 -0.0263
   54CHL1    H8 5117   1.792   2.810   5.133 -0.7307  0.0513  0.9095
   54CHL1   C14 5118   1.822   2.987   5.261  0.4139 -0.0771  0.8906
   54CHL1   H14 5119   1.820   3.095   5.234 -1.1569 -0.8446 -2.6195
   54CHL1   C15 5120   1.959   2.967   5.326 -0.4308 -0.1811 -0.0810
   54CHL1  H15A 5121   1.982   2.860   5.307  0.1826 -0.1924  0.6897
   54CHL1  H15B 5122   2.038   3.037   5.292  1.8739 -2.9932 -0.9603
   54CHL1   C16 5123   1.927   2.989   5.473 -0.1075  0.2653  0.1380
   54CHL1  H16A 5124   1.948   2.901   5.537  0.9324 -0.2292 -0.8619
   54CHL1  H16B 5125   1.999   3.060   5.521  3.2413 -1.6464 -1.7405
   54CHL1   C17 5126   1.778   3.028   5.482 -0.4347 -0.0433 -0.0804
   54CHL1   H17 5127   1.774   3.139   5.475  3.4226  0.3112  1.1339
   54CHL1   C13 5128   1.708   2.956   5.364  0.4440 -0.1389  0.0679
   54CHL1   C18 5129   1.677   2.809   5.396  0.0575 -0.0593 -0.4539
   54CHL1  H18A 5130   1.650   2.749   5.306 -0.7349  1.0054 -0.9501
   54CHL1  H18B 5131   1.771   2.770   5.440  1.0878  1.2638 -1.3966
   54CHL1  H18C 5132   1.589   2.794   5.463 -1.3632  2.5041 -1.5835
   54CHL1   C12 5133   1.584   3.026   5.309 -0.1454 -0.1249  0.3175
   54CHL1  H12A 5134   1.503   3.005   5.382 -0.2880  0.2900  0.2824
   54CHL1  H12B 5135   1.592   3.137   5.302 -1.6680  0.1836  2.4113
   54CHL1   C11 5136   1.544   2.959   5.171  0.0626  0.1615 -0.4543
   54CHL1  H11A 5137   1.517   2.856   5.200 -0.2922  0.4112  0.1064
   54CHL1  H11B 5138   1.456   3.011   5.128 -0.4769 -0.8727 -0.6150
   54CHL1    C9 5139   1.660   2.962   5.063 -0.0043 -0.3864  0.1340
   54CHL1    H9 5140   1.666   3.072   5.047  0.3321 -0.4824 -0.4364
   54CHL1   C10 5141   1.622   2.889   4.923 -0.2658 -0.3629 -0.5137
   54CHL1   C19 5142   1.574   2.748   4.956 -0.0789 -0.9119 -0.1520
   54CHL1  H19A 5143   1.660   2.682   4.982  0.1266 -0.5639  0.0664
   54CHL1  H19B 5144   1.491   2.746   5.029  0.8454  2.4681  1.1839
   54CHL1  H19C 5145   1.532   2.702   4.864  1.6018 -1.5590 -0.6372
   54CHL1    C1 5146   1.517   2.969   4.847  0.3787 -0.2019  0.1830
   54CHL1   H1A 5147   1.417   2.955   4.895 -1.1980  1.2073 -2.4917
   54CHL1   H1B 5148   1.548   3.075   4.843  0.1745 -0.1805 -1.0395
   54CHL1    C2 5149   1.499   2.929   4.707  0.1685 -0.1018  0.1105
   54CHL1   H2A 5150   1.432   3.006   4.663  0.0648  0.9503  2.0390
   54CHL1   H2B 5151   1.453   2.828   4.701  0.6765 -0.2933 -0.6717
   54CHL1   C20 5152   1.714   3.010   5.626  0.4874 -0.5653 -0.0331
   54CHL1   H20 5153   1.685   2.904   5.638 -0.1268 -0.6334 -1.7525
   54CHL1   C21 5154   1.580   3.099   5.633 -0.1976 -0.3573 -0.2027
   54CHL1  H21A 5155   1.522   3.066   5.722  0.3536  1.0886  0.7271
   54CHL1  H21B 5156   1.499   3.081   5.560 -0.7951 -0.2860  0.4320
   54CHL1  H21C 5157   1.610   3.203   5.655  1.5779 -0.7443 -0.5790
   54CHL1   C22 5158   1.802   3.048   5.743 -0.1385  0.0422 -0.7379
   54CHL1  H22A 5159   1.904   3.004   5.742  0.1114  0.4671 -3.7516
   54CHL1  H22B 5160   1.815   3.158   5.738  0.5914  0.0180  0.3414
   54CHL1   C23 5161   1.741   3.033   5.884 -0.2479 -0.1754 -0.0452
   54CHL1  H23A 5162   1.638   3.074   5.886  0.0863  0.6674  1.3642
   54CHL1  H23B 5163   1.726   2.925   5.907  0.4054 -0.4889 -1.0068
   54CHL1   C24 5164   1.818   3.092   6.003 -0.0855 -0.7328 -0.1465
   54CHL1  H24A 5165   1.825   3.200   5.980 -0.8956 -0.5775  0.2979
   54CHL1  H24B 5166   1.760   3.082   6.098 -2.0258 -0.0728 -1.1994
   54CHL1   C25 5167   1.960   3.030   6.032  0.1421  0.6426 -0.4259
   54CHL1   H25 5168   2.023   3.046   5.942  0.5033  2.9779  0.1758
   54CHL1   C26 5169   2.034   3.111   6.140  0.5121  0.0904 -0.0620
   54CHL1  H26A 5170   2.131   3.068   6.172  1.7917  1.1190 -2.2807
   54CHL1  H26B 5171   2.053   3.214   6.102  1.6917 -0.3663 -0.7733
   54CHL1  H26C 5172   1.972   3.118   6.232 -0.1612  0.7781 -0.5522
   54CHL1   C27 5173   1.953   2.883   6.081  0.2911 -0.4998  0.3030
   54CHL1  H27A 5174   1.879   2.863   6.162  0.4843 -1.0091  0.3621
   54CHL1  H27B 5175   1.920   2.813   6.001 -3.1278  1.3813 -0.0827
   54CHL1  H27C 5176   2.049   2.855   6.129  1.0097  2.8856  1.1201
   55CHL1    C3 5177   6.182   2.337   4.530  0.3507  0.5942 -0.3575
   55CHL1    H3 5178   6.283   2.291   4.528  0.0741 -0.0767  0.5336
   55CHL1    O3 5179   6.143   2.331   4.394 -0.3088 -0.2439 -0.3772
   55CHL1   H3' 5180   6.059   2.378   4.388 -0.6125 -0.1057  3.1567
   55CHL1    C4 5181   6.087   2.256   4.624  0.4477  0.2487  0.4347
   55CHL1   H4A 5182   5.991   2.304   4.595  0.6930  1.0681  0.9596
   55CHL1   H4B 5183   6.084   2.152   4.583 -1.2673  0.1078  0.8273
   55CHL1    C5 5184   6.112   2.280   4.771 -0.4205 -0.1908  0.4759
   55CHL1    C6 5185   6.147   2.172   4.839  0.6029 -0.6217 -0.0931
   55CHL1    H6 5186   6.146   2.072   4.791  0.6089  0.7096 -3.1241
   55CHL1    C7 5187   6.175   2.188   4.983  0.6945 -0.1606 -0.2161
   55CHL1   H7A 5188   6.112   2.115   5.039 -0.9460  0.4856 -1.1370
   55CHL1   H7B 5189   6.280   2.160   5.008  1.0127  0.8941 -0.3407
   55CHL1    C8 5190   6.146   2.331   5.045  0.5329  0.2214 -1.0326
   55CHL1    H8 5191   6.038   2.327   5.071  1.1117  1.0428  1.9085
   55CHL1   C14 5192   6.221   2.346   5.177  0.4857  0.0936  0.1397
   55CHL1   H14 5193   6.331   2.345   5.160  0.6269 -4.5788  0.1378
   55CHL1   C15 5194   6.210   2.222   5.274 -0.1124 -0.3047  0.2228
   55CHL1  H15A 5195   6.104   2.194   5.289  0.5334 -2.0904  2.0184
   55CHL1  H15B 5196   6.277   2.139   5.242  2.2774  0.9938  1.5807
   55CHL1   C16 5197   6.259   2.297   5.401  0.2074  0.2000  0.5229
   55CHL1  H16A 5198   6.184   2.266   5.477  2.0298  1.0536  2.7604
   55CHL1  H16B 5199   6.351   2.250   5.440 -0.2341  0.4186  1.8875
   55CHL1   C17 5200   6.268   2.457   5.381 -0.4278  0.1231 -0.1543
   55CHL1   H17 5201   6.375   2.473   5.357 -0.6628 -0.0086 -1.4086
   55CHL1   C13 5202   6.189   2.477   5.255  0.1652  0.8294 -0.8312
   55CHL1   C18 5203   6.037   2.477   5.291  0.3374  0.4733 -0.2861
   55CHL1  H18A 5204   5.997   2.579   5.309 -3.3033 -0.2277 -3.1180
   55CHL1  H18B 5205   5.964   2.445   5.213  1.9167  0.5262 -1.8608
   55CHL1  H18C 5206   6.025   2.406   5.375  1.3627  0.0062 -0.5142
   55CHL1   C12 5207   6.219   2.596   5.164  0.2270 -0.0786  0.2405
   55CHL1  H12A 5208   6.184   2.691   5.209  0.1131 -0.0628  0.1201
   55CHL1  H12B 5209   6.328   2.613   5.157  0.1003  0.9499  0.6474
   55CHL1   C11 5210   6.154   2.582   5.025  0.2396 -0.2262  0.5971
   55CHL1  H11A 5211   6.046   2.600   5.046  0.5059  1.2977  0.7724
   55CHL1  H11B 5212   6.192   2.670   4.968  0.4118 -0.0574  0.9709
   55CHL1    C9 5213   6.184   2.449   4.955  0.5099  0.4270  0.2196
   55CHL1    H9 5214   6.293   2.424   4.950  0.6687  1.2834 -0.8416
   55CHL1   C10 5215   6.125   2.431   4.818  0.2501  0.1354 -0.0802
   55CHL1   C19 5216   5.976   2.483   4.815  0.1386 -1.0190  0.5769
   55CHL1  H19A 5217   5.995   2.591   4.831  3.9175 -1.7161  1.8461
   55CHL1  H19B 5218   5.928   2.466   4.716 -0.3598  2.9131 -0.0159
   55CHL1  H19C 5219   5.910   2.435   4.890 -1.8684  0.1217 -0.3999
   55CHL1    C1 5220   6.212   2.520   4.723 -0.0862 -0.4406  0.6110
   55CHL1   H1A 5221   6.200   2.628   4.744 -0.6056 -0.8749  2.7543
   55CHL1   H1B 5222   6.312   2.491   4.760 -0.5344 -0.2340  2.0347
   55CHL1    C2 5223   6.183   2.487   4.573 -0.1040 -0.1780 -0.3916
   55CHL1   H2A 5224   6.244   2.549   4.504  2.1182 -1.8060  0.0067
   55CHL1   H2B 5225   6.081   2.523   4.549  0.2058  1.2516  0.3201
   55CHL1   C20 5226   6.226   2.533   5.508 -0.4220  1.0301 -0.7051
   55CHL1   H20 5227   6.120   2.512   5.533 -0.0153 -1.7717 -1.0391
   55CHL1   C21 5228   6.256   2.682   5.481 -0.8887  0.1176  0.0791
   55CHL1  H21A 5229   6.364   2.677   5.456 -1.1861  0.9619 -1.4394
   55CHL1  H21B 5230   6.247   2.752   5.567  2.1029 -0.1804  0.7684
   55CHL1  H21C 5231   6.204   2.729   5.396 -0.9758  0.2502  0.2063
   55CHL1   C22 5232   6.299   2.483   5.638 -0.1364  0.0855  0.6665
   55CHL1  H22A 5233   6.278   2.375   5.654 -1.4761 -0.6757 -4.4700
   55CHL1  H22B 5234   6.407   2.482   5.613 -0.0954  0.5851  0.8198
   55CHL1   C23 5235   6.263   2.569   5.759  0.2426  0.3537  0.4612
   55CHL1  H23A 5236   6.290   2.676   5.754  3.5758 -0.3893  0.5299
   55CHL1  H23B 5237   6.152   2.565   5.770  0.2735 -0.5705  0.5210
   55CHL1   C24 5238   6.309   2.506   5.894 -0.1514 -0.0861  0.2624
   55CHL1  H24A 5239   6.281   2.399   5.894 -3.5987  0.6738 -1.3773
   55CHL1  H24B 5240   6.419   2.511   5.884 -0.0789 -0.5762  0.7581
   55CHL1   C25 5241   6.256   2.575   6.025  0.4116  0.3119  0.9867
   55CHL1   H25 5242   6.238   2.684   6.011  1.2509  0.5220  1.4410
   55CHL1   C26 5243   6.113   2.524   6.072 -0.5437 -0.3556 -0.2424
   55CHL1  H26A 5244   6.133   2.424   6.116 -0.8324  0.6289  2.2395
   55CHL1  H26B 5245   6.062   2.589   6.146 -1.0056 -0.7079 -0.2485
   55CHL1  H26C 5246   6.044   2.512   5.985 -0.6780  0.4456 -0.2553
   55CHL1   C27 5247   6.359   2.556   6.136 -0.8843  0.0142 -1.2172
   55CHL1  H27A 5248   6.384   2.448   6.141  2.5089  0.7360 -0.0720
   55CHL1  H27B 5249   6.442   2.628   6.120 -0.4687 -0.5971 -1.8343
   55CHL1  H27C 5250   6.316   2.591   6.233  0.0105  0.8823 -1.1171
   56CHL1    C3 5251   5.595   0.201   4.129  0.2806  0.0482 -0.4036
   56CHL1    H3 5252   5.696   0.248   4.133 -0.0921  0.7888  1.7105
   56CHL1    O3 5253   5.538   0.200   3.996 -0.5868  0.0009 -0.0579
   56CHL1   H3' 5254   5.514   0.289   3.968 -1.1057  1.1065  3.3629
   56CHL1    C4 5255   5.596   0.054   4.186 -0.1502 -0.4995 -0.0315
   56CHL1   H4A 5256   5.494   0.011   4.197  1.0024 -3.4786  0.0304
   56CHL1   H4B 5257   5.649  -0.014   4.116  0.5256 -1.1572  1.0844
   56CHL1    C5 5258   5.655   0.056   4.330 -0.6301 -0.5823  0.3384
   56CHL1    C6 5259   5.782   0.006   4.354  0.7534  0.3862 -0.7891
   56CHL1    H6 5260   5.838  -0.035   4.269 -0.8439  0.7998 -2.1063
   56CHL1    C7 5261   5.844  -0.010   4.489  0.4773  0.2533  0.0028
   56CHL1   H7A 5262   5.880  -0.115   4.500 -0.1909 -0.2030 -1.6741
   56CHL1   H7B 5263   5.934   0.052   4.508  1.5110 -0.5317 -1.9622
   56CHL1    C8 5264   5.740   0.030   4.595 -0.9084  0.1136 -0.3437
   56CHL1    H8 5265   5.675  -0.060   4.601 -0.8280  0.0185 -0.9150
   56CHL1   C14 5266   5.817   0.059   4.723 -0.2751 -0.7210  0.1016
   56CHL1   H14 5267   5.876   0.151   4.705 -1.8032  0.2756 -0.0218
   56CHL1   C15 5268   5.921  -0.048   4.769  0.6308  0.5015  0.5663
   56CHL1  H15A 5269   5.896  -0.154   4.745  0.1797  0.9470 -1.0808
   56CHL1  H15B 5270   6.015  -0.035   4.711 -0.5410  0.2498 -1.5013
   56CHL1   C16 5271   5.946  -0.016   4.916  0.6624  0.0599 -0.9599
   56CHL1  H16A 5272   5.925  -0.104   4.979  0.8948 -0.5273 -1.6817
   56CHL1  H16B 5273   6.054   0.007   4.930  0.6627 -1.4776  2.4306
   56CHL1   C17 5274   5.852   0.099   4.950  0.5091 -0.2170 -0.1226
   56CHL1   H17 5275   5.894   0.196   4.916 -1.0294  0.4398 -0.2170
   56CHL1   C13 5276   5.732   0.090   4.849  0.0970 -0.3023  0.0390
   56CHL1   C18 5277   5.643  -0.033   4.879 -0.5444  1.0316 -0.2092
   56CHL1  H18A 5278   5.564  -0.002   4.949  1.2775  1.4930  1.7488
   56CHL1  H18B 5279   5.585  -0.066   4.790  0.5827  1.0420 -0.9769
   56CHL1  H18C 5280   5.708  -0.106   4.931 -1.1311  2.1638  2.2438
   56CHL1   C12 5281   5.654   0.217   4.822 -0.0598  0.2995  0.1458
   56CHL1  H12A 5282   5.576   0.219   4.901 -0.6322 -0.6720 -0.3795
   56CHL1  H12B 5283   5.712   0.311   4.837 -1.5049  0.8806  2.5689
   56CHL1   C11 5284   5.573   0.209   4.685 -0.0256  0.2575 -0.2748
   56CHL1  H11A 5285   5.496   0.134   4.712  0.2050  0.2649  0.4348
   56CHL1  H11B 5286   5.526   0.305   4.656  0.1533  0.7070  0.8639
   56CHL1    C9 5287   5.655   0.155   4.562  0.6688 -0.1898  0.5441
   56CHL1    H9 5288   5.721   0.242   4.541  1.2782 -0.7114  0.2558
   56CHL1   C10 5289   5.570   0.132   4.430 -0.7242  0.2731  0.4502
   56CHL1   C19 5290   5.437   0.063   4.469 -0.5310  0.5659 -0.2879
   56CHL1  H19A 5291   5.384   0.031   4.376 -0.2319  1.2161 -0.6890
   56CHL1  H19B 5292   5.457  -0.024   4.536 -0.9515  0.1707 -0.6618
   56CHL1  H19C 5293   5.363   0.124   4.524 -0.1877 -0.8619  1.8793
   56CHL1    C1 5294   5.544   0.272   4.358  0.0209 -0.1058 -0.4477
   56CHL1   H1A 5295   5.464   0.322   4.417  0.5259  1.0074 -0.6760
   56CHL1   H1B 5296   5.633   0.338   4.368  0.4068 -0.8095  1.0507
   56CHL1    C2 5297   5.498   0.283   4.216  0.1694  0.7728  0.9173
   56CHL1   H2A 5298   5.496   0.389   4.184  1.6624  0.8856  1.1207
   56CHL1   H2B 5299   5.395   0.241   4.220  0.0526  0.9784  0.1970
   56CHL1   C20 5300   5.827   0.119   5.102  0.0101 -0.3224  0.2633
   56CHL1   H20 5301   5.720   0.148   5.110 -0.8198 -2.2183 -2.4986
   56CHL1   C21 5302   5.921   0.227   5.159  0.3300  1.0693 -0.5594
   56CHL1  H21A 5303   5.911   0.323   5.104  0.2472  1.6175  0.3795
   56CHL1  H21B 5304   6.022   0.181   5.154 -0.6887 -1.4322  0.4408
   56CHL1  H21C 5305   5.894   0.239   5.266 -0.5670  0.3658 -0.7011
   56CHL1   C22 5306   5.820  -0.012   5.197 -1.0182 -0.6423  0.4026
   56CHL1  H22A 5307   5.746  -0.079   5.149 -1.4619 -0.7655  1.2552
   56CHL1  H22B 5308   5.922  -0.054   5.206 -2.1619 -3.4189  1.5491
   56CHL1   C23 5309   5.767   0.006   5.341 -0.0230 -0.0387 -0.0342
   56CHL1  H23A 5310   5.850   0.068   5.382 -2.0113  3.1980 -0.5549
   56CHL1  H23B 5311   5.688   0.084   5.345  2.4990  2.6995 -0.4599
   56CHL1   C24 5312   5.735  -0.121   5.416  0.5554 -0.8516 -0.6713
   56CHL1  H24A 5313   5.664  -0.181   5.354 -0.9471  0.8956 -0.7020
   56CHL1  H24B 5314   5.837  -0.165   5.422  0.0643 -2.3066 -2.1487
   56CHL1   C25 5315   5.676  -0.100   5.562 -0.1594  0.2703 -0.0149
   56CHL1   H25 5316   5.585  -0.038   5.554 -0.0785  0.5865  1.2658
   56CHL1   C26 5317   5.652  -0.236   5.624  0.2022 -0.9429  0.2582
   56CHL1  H26A 5318   5.741  -0.302   5.615 -0.0537 -1.3212  0.4844
   56CHL1  H26B 5319   5.619  -0.225   5.729  0.5817 -1.6015  0.4540
   56CHL1  H26C 5320   5.577  -0.296   5.568  0.3892 -0.5977 -0.3818
   56CHL1   C27 5321   5.790  -0.035   5.647  0.0226 -1.0085 -0.0480
   56CHL1  H27A 5322   5.765  -0.048   5.755 -1.9404 -1.4725 -0.5100
   56CHL1  H27B 5323   5.883  -0.088   5.619 -0.1020 -1.8145  1.0086
   56CHL1  H27C 5324   5.795   0.075   5.627  2.8646  0.1777  5.1769
   57CHL1    C3 5325   0.786   1.982   4.352  0.1354  0.2038  0.2641
   57CHL1    H3 5326   0.825   1.878   4.337 -1.7899 -0.2599 -2.0478
   57CHL1    O3 5327   0.777   2.050   4.232 -0.2325 -0.0604  0.3454
   57CHL1   H3' 5328   0.816   1.996   4.164  0.2204  1.0183 -0.2826
   57CHL1    C4 5329   0.653   1.968   4.424 -0.3676  0.5034  0.0086
   57CHL1   H4A 5330   0.612   2.071   4.420  1.1827  1.1574 -0.0850
   57CHL1   H4B 5331   0.593   1.900   4.361 -2.2312  1.8437  0.2585
   57CHL1    C5 5332   0.664   1.915   4.567 -0.0033 -0.6451  0.1379
   57CHL1    C6 5333   0.596   1.808   4.600  0.3376  0.0242  0.2566
   57CHL1    H6 5334   0.522   1.764   4.531 -2.5040  3.0143  1.1155
   57CHL1    C7 5335   0.606   1.752   4.739  0.4739  0.3575  0.2574
   57CHL1   H7A 5336   0.511   1.709   4.779  1.7236 -0.5051  2.4546
   57CHL1   H7B 5337   0.686   1.675   4.735  0.2387  0.0117  1.8479
   57CHL1    C8 5338   0.653   1.853   4.844  0.5287 -0.1291  0.0361
   57CHL1    H8 5339   0.571   1.927   4.847  2.7510  2.6302 -1.7204
   57CHL1   C14 5340   0.684   1.791   4.979  0.0446 -0.4842  0.0106
   57CHL1   H14 5341   0.767   1.720   4.960  0.8113  0.8520 -2.0385
   57CHL1   C15 5342   0.567   1.716   5.057 -0.4758 -0.3203 -0.0094
   57CHL1  H15A 5343   0.489   1.795   5.048  1.3917  1.3337 -3.7691
   57CHL1  H15B 5344   0.541   1.622   5.003 -1.0336 -1.2407  1.7791
   57CHL1   C16 5345   0.627   1.690   5.198  0.1307 -0.5138  0.5404
   57CHL1  H16A 5346   0.559   1.722   5.280 -0.5689  0.4818 -0.3932
   57CHL1  H16B 5347   0.643   1.582   5.218  0.2979 -0.1450  2.5961
   57CHL1   C17 5348   0.750   1.786   5.206  0.7041 -0.2747  0.6182
   57CHL1   H17 5349   0.830   1.717   5.169  0.5960  0.3267 -0.8093
   57CHL1   C13 5350   0.747   1.881   5.085 -0.1442  0.6927  0.8993
   57CHL1   C18 5351   0.649   2.001   5.106 -0.7063 -0.0228  0.5962
   57CHL1  H18A 5352   0.635   2.053   5.009 -0.6659 -2.1079 -0.5927
   57CHL1  H18B 5353   0.551   1.969   5.147 -0.2168 -2.7795 -0.1622
   57CHL1  H18C 5354   0.692   2.073   5.178 -0.4545 -0.3006  0.7265
   57CHL1   C12 5355   0.888   1.929   5.040  0.3835 -0.2966 -0.3513
   57CHL1  H12A 5356   0.926   1.997   5.120 -1.3530  1.7234 -1.1392
   57CHL1  H12B 5357   0.956   1.841   5.045 -0.7110 -1.1299  0.6444
   57CHL1   C11 5358   0.871   1.996   4.899 -0.0771 -0.2447 -0.6744
   57CHL1  H11A 5359   0.816   2.090   4.917 -1.4455 -1.3628  1.5482
   57CHL1  H11B 5360   0.969   2.024   4.855 -0.6483  0.3354 -1.6024
   57CHL1    C9 5361   0.784   1.917   4.792  0.8389 -0.7222 -0.1121
   57CHL1    H9 5362   0.847   1.830   4.764  1.5905  0.5663 -2.7651
   57CHL1   C10 5363   0.759   1.996   4.655 -0.7007  0.8595 -0.3166
   57CHL1   C19 5364   0.692   2.131   4.680 -0.1265 -0.2425 -0.8012
   57CHL1  H19A 5365   0.737   2.195   4.758 -2.1446  1.2742 -0.8096
   57CHL1  H19B 5366   0.678   2.184   4.584 -2.0634 -2.7603 -2.0398
   57CHL1  H19C 5367   0.594   2.111   4.728  0.1655 -0.4933 -0.2976
   57CHL1    C1 5368   0.903   2.018   4.589  0.1873  0.4944  0.6293
   57CHL1   H1A 5369   0.958   2.106   4.630  0.4654  0.3934  0.4740
   57CHL1   H1B 5370   0.957   1.921   4.595 -1.3683 -0.3988  0.6712
   57CHL1    C2 5371   0.884   2.062   4.442 -0.2866  0.0584 -0.2639
   57CHL1   H2A 5372   0.988   2.057   4.402  0.9816 -1.5176  2.8467
   57CHL1   H2B 5373   0.847   2.166   4.439  1.1098  0.6613  1.6328
   57CHL1   C20 5374   0.788   1.829   5.349 -0.3899 -0.1604  0.1752
   57CHL1   H20 5375   0.746   1.929   5.375  0.7090 -0.2129  2.2897
   57CHL1   C21 5376   0.944   1.840   5.362  0.0061 -0.3597 -0.4082
   57CHL1  H21A 5377   0.976   1.739   5.329 -1.6554 -1.1802  0.4178
   57CHL1  H21B 5378   0.961   1.867   5.468 -0.1338  0.5742 -0.6128
   57CHL1  H21C 5379   0.990   1.923   5.304 -0.8621  0.8447  0.5561
   57CHL1   C22 5380   0.732   1.729   5.456  0.3863  1.0511 -0.5530
   57CHL1  H22A 5381   0.623   1.725   5.478  0.3982  1.3817 -0.4279
   57CHL1  H22B 5382   0.763   1.631   5.413  0.1730  0.9662 -0.5153
   57CHL1   C23 5383   0.793   1.730   5.594 -1.2126 -0.9802 -0.3077
   57CHL1  H23A 5384   0.775   1.639   5.655 -1.7865 -0.5210  0.2306
   57CHL1  H23B 5385   0.904   1.725   5.584 -0.9901  2.5977 -1.1836
   57CHL1   C24 5386   0.757   1.855   5.682 -0.4159 -0.2377  0.1394
   57CHL1  H24A 5387   0.812   1.943   5.641  2.7433 -0.1632  3.9762
   57CHL1  H24B 5388   0.648   1.875   5.673 -0.1078  1.4297 -0.1607
   57CHL1   C25 5389   0.801   1.832   5.825  0.4857 -0.4443 -0.0241
   57CHL1   H25 5390   0.904   1.790   5.825  0.6162 -0.1887 -1.7183
   57CHL1   C26 5391   0.803   1.969   5.894  0.7819  0.8099  0.3575
   57CHL1  H26A 5392   0.877   2.037   5.846 -0.7597  2.0648 -0.3354
   57CHL1  H26B 5393   0.702   2.013   5.883  0.7729  0.9874  1.0672
   57CHL1  H26C 5394   0.832   1.956   6.001  0.9835 -1.7895  0.0356
   57CHL1   C27 5395   0.709   1.738   5.901  0.9549  0.0455  0.5656
   57CHL1  H27A 5396   0.730   1.744   6.010 -2.9789  0.0775  1.4825
   57CHL1  H27B 5397   0.601   1.766   5.893  1.1331  0.3651 -0.9232
   57CHL1  H27C 5398   0.722   1.630   5.877 -2.1984 -0.0010 -1.6384
   58CHL1    C3 5399   5.737   1.767   4.324 -0.3722  0.4963 -0.3602
   58CHL1    H3 5400   5.836   1.813   4.300  0.4108 -1.0473 -0.2053
   58CHL1    O3 5401   5.686   1.697   4.215  0.4396  0.5922  0.6330
   58CHL1   H3' 5402   5.699   1.760   4.144 -1.3297 -1.7205 -1.9669
   58CHL1    C4 5403   5.749   1.670   4.449  0.0551 -0.2291 -0.5670
   58CHL1   H4A 5404   5.648   1.624   4.461  0.8480 -1.6955  0.8831
   58CHL1   H4B 5405   5.812   1.583   4.419 -1.6802 -1.2634 -1.4512
   58CHL1    C5 5406   5.788   1.732   4.579 -0.7556 -0.0783 -0.2789
   58CHL1    C6 5407   5.898   1.690   4.653 -0.1140 -0.8440  0.0026
   58CHL1    H6 5408   5.961   1.607   4.619  2.4359  0.7459  0.5409
   58CHL1    C7 5409   5.928   1.754   4.786 -0.0467 -0.1296 -0.3901
   58CHL1   H7A 5410   5.946   1.668   4.854  0.6770  0.2947 -0.0331
   58CHL1   H7B 5411   6.024   1.809   4.782 -0.7078  1.0096 -1.4189
   58CHL1    C8 5412   5.814   1.844   4.839  0.2837  0.4995  0.0207
   58CHL1    H8 5413   5.742   1.769   4.877  0.8146 -0.6275 -1.1334
   58CHL1   C14 5414   5.861   1.916   4.966 -0.6388 -0.0230 -0.5783
   58CHL1   H14 5415   5.939   1.982   4.925 -2.5466  1.5066 -1.9369
   58CHL1   C15 5416   5.933   1.838   5.078 -0.3716 -0.2615  0.9805
   58CHL1  H15A 5417   5.893   1.735   5.088 -0.5461 -0.2263  0.6414
   58CHL1  H15B 5418   6.038   1.825   5.043 -0.3143  0.7181  0.7590
   58CHL1   C16 5419   5.906   1.913   5.207 -0.1265  0.2589 -0.2423
   58CHL1  H16A 5420   5.842   1.841   5.262 -0.9180  0.2392 -1.1662
   58CHL1  H16B 5421   5.998   1.947   5.259 -0.1585 -2.9410  2.2173
   58CHL1   C17 5422   5.829   2.041   5.153 -0.5470 -0.9546 -0.1025
   58CHL1   H17 5423   5.910   2.109   5.120 -0.2377 -1.3672 -0.1936
   58CHL1   C13 5424   5.748   1.988   5.033 -0.1488 -0.4701 -0.5282
   58CHL1   C18 5425   5.635   1.894   5.075  0.1094 -0.4953 -0.6369
   58CHL1  H18A 5426   5.567   1.969   5.120  1.4001  1.0904 -1.2149
   58CHL1  H18B 5427   5.590   1.840   4.990  0.5300 -1.5373 -0.2175
   58CHL1  H18C 5428   5.674   1.818   5.147 -0.9542 -0.3011  0.1730
   58CHL1   C12 5429   5.702   2.095   4.928 -0.1701  0.3602  0.3808
   58CHL1  H12A 5430   5.613   2.155   4.956 -0.1569  1.5156 -1.7636
   58CHL1  H12B 5431   5.790   2.163   4.918 -0.1948  0.3835  0.3170
   58CHL1   C11 5432   5.661   2.041   4.791 -0.0306 -0.0840  0.1095
   58CHL1  H11A 5433   5.557   2.005   4.798 -0.3097  0.2354 -1.9645
   58CHL1  H11B 5434   5.662   2.127   4.720 -0.9907 -0.9942 -1.0369
   58CHL1    C9 5435   5.761   1.938   4.731  0.0904  0.4174 -0.1798
   58CHL1    H9 5436   5.844   1.997   4.687 -0.2411  2.2498  1.5115
   58CHL1   C10 5437   5.699   1.862   4.609 -0.6604  0.7829  0.0162
   58CHL1   C19 5438   5.563   1.809   4.654 -0.0670  0.2122 -0.6647
   58CHL1  H19A 5439   5.490   1.893   4.644  2.5531  2.7313  0.0705
   58CHL1  H19B 5440   5.523   1.728   4.590 -2.1320  0.8919 -0.3330
   58CHL1  H19C 5441   5.560   1.779   4.761 -1.0789  0.3180 -0.6514
   58CHL1    C1 5442   5.688   1.960   4.482  1.0464  0.5550  0.7947
   58CHL1   H1A 5443   5.610   2.032   4.514  0.7134  1.1482 -1.2535
   58CHL1   H1B 5444   5.789   2.003   4.466  1.4259 -1.0155 -1.5357
   58CHL1    C2 5445   5.633   1.884   4.359 -0.3568 -1.0548 -0.4388
   58CHL1   H2A 5446   5.614   1.951   4.274  1.0836 -0.7621 -0.5524
   58CHL1   H2B 5447   5.533   1.841   4.385  0.2284 -1.4472  1.3767
   58CHL1   C20 5448   5.749   2.108   5.269 -0.3698  0.0948  0.1676
   58CHL1   H20 5449   5.664   2.043   5.298 -0.3383  1.2697  3.1374
   58CHL1   C21 5450   5.693   2.236   5.229  0.5935 -0.1631  0.3026
   58CHL1  H21A 5451   5.629   2.269   5.314 -0.3084 -0.0170 -0.4269
   58CHL1  H21B 5452   5.624   2.215   5.145  0.1716 -1.1365  0.8799
   58CHL1  H21C 5453   5.763   2.319   5.204  1.7439 -1.5549 -1.2931
   58CHL1   C22 5454   5.832   2.127   5.404 -0.2058  0.2863  0.0107
   58CHL1  H22A 5455   5.853   2.026   5.446 -0.2741  1.4025  3.0013
   58CHL1  H22B 5456   5.925   2.182   5.378 -0.5511 -0.0199 -2.0150
   58CHL1   C23 5457   5.770   2.201   5.524 -0.0534 -0.9924 -0.7581
   58CHL1  H23A 5458   5.763   2.309   5.503 -0.0166 -0.9724 -0.6658
   58CHL1  H23B 5459   5.665   2.174   5.549  0.0891 -1.1211 -0.2811
   58CHL1   C24 5460   5.844   2.182   5.659  0.0087  0.1103  0.2932
   58CHL1  H24A 5461   5.853   2.073   5.680 -0.6732 -0.7562 -3.2302
   58CHL1  H24B 5462   5.947   2.224   5.659 -0.3001  0.8871  0.2057
   58CHL1   C25 5463   5.780   2.242   5.780  0.0033 -0.6936  0.4474
   58CHL1   H25 5464   5.675   2.208   5.773 -0.8604  2.0787 -1.4758
   58CHL1   C26 5465   5.833   2.197   5.911  0.2247  0.2457 -0.1120
   58CHL1  H26A 5466   5.838   2.087   5.905 -0.8900  0.1215  0.8749
   58CHL1  H26B 5467   5.935   2.240   5.920  0.7551 -1.3363  2.4175
   58CHL1  H26C 5468   5.781   2.229   6.004  0.1291 -0.1708 -0.0222
   58CHL1   C27 5469   5.785   2.398   5.779 -0.0161  0.0543 -0.1015
   58CHL1  H27A 5470   5.889   2.434   5.793  1.0910 -3.1453  0.9149
   58CHL1  H27B 5471   5.749   2.436   5.681  0.9667  1.0321 -0.1095
   58CHL1  H27C 5472   5.724   2.434   5.864 -0.0568  1.7113 -0.8094
   59CHL1    C3 5473   4.101   0.651   4.243 -0.1651 -0.7389  0.5668
   59CHL1    H3 5474   4.039   0.566   4.278 -0.8843 -0.2154  0.5785
   59CHL1    O3 5475   4.089   0.659   4.098 -0.7220 -0.0127  0.0137
   59CHL1   H3' 5476   4.006   0.706   4.088 -2.1595 -2.2667  0.5460
   59CHL1    C4 5477   4.062   0.783   4.312 -0.2714 -0.4044 -0.8770
   59CHL1   H4A 5478   4.126   0.866   4.274 -0.2398  1.1842  2.2820
   59CHL1   H4B 5479   3.958   0.808   4.283 -1.4081 -4.7351 -1.2453
   59CHL1    C5 5480   4.068   0.777   4.463  0.0263 -0.2677 -0.0897
   59CHL1    C6 5481   3.965   0.815   4.547 -0.1186  0.2383  0.3292
   59CHL1    H6 5482   3.875   0.857   4.499 -0.4489 -0.9704 -0.1399
   59CHL1    C7 5483   3.961   0.802   4.703 -0.1102  0.3406 -0.3440
   59CHL1   H7A 5484   3.918   0.895   4.746  2.3996  1.8452 -0.8768
   59CHL1   H7B 5485   3.887   0.727   4.740  0.0600  0.0064 -0.6817
   59CHL1    C8 5486   4.102   0.761   4.761  0.2651  0.1666 -0.2300
   59CHL1    H8 5487   4.161   0.855   4.765 -1.9329  1.6070  0.1183
   59CHL1   C14 5488   4.078   0.713   4.903 -0.2957  0.1014 -0.6296
   59CHL1   H14 5489   4.019   0.619   4.903 -0.5445  0.1724  2.2526
   59CHL1   C15 5490   4.005   0.803   5.010  0.0237  0.5688 -0.1577
   59CHL1  H15A 5491   4.031   0.911   5.013  1.1623  0.2927  1.3035
   59CHL1  H15B 5492   3.896   0.783   4.999 -0.1979  0.8497  1.3094
   59CHL1   C16 5493   4.044   0.743   5.147  0.0224  0.1313 -0.1055
   59CHL1  H16A 5494   4.083   0.822   5.215 -1.8759  0.2915  0.8623
   59CHL1  H16B 5495   3.966   0.691   5.206  1.6563 -2.7044 -0.2961
   59CHL1   C17 5496   4.147   0.632   5.114 -0.4233  0.1814 -0.0592
   59CHL1   H17 5497   4.092   0.538   5.093  1.1563 -0.2435 -2.7057
   59CHL1   C13 5498   4.208   0.670   4.968  0.4416 -1.1628 -0.7032
   59CHL1   C18 5499   4.304   0.792   4.989  0.2913  0.1327 -0.9754
   59CHL1  H18A 5500   4.269   0.871   5.059  0.2539 -1.2984  0.7033
   59CHL1  H18B 5501   4.396   0.746   5.032 -0.7594 -1.0180  0.1515
   59CHL1  H18C 5502   4.326   0.835   4.890  0.3964  0.0954 -0.9687
   59CHL1   C12 5503   4.283   0.565   4.884  0.3165 -0.9473  0.3299
   59CHL1  H12A 5504   4.376   0.527   4.932  1.2573 -1.9242 -2.1075
   59CHL1  H12B 5505   4.216   0.478   4.870  1.1107 -1.3752 -0.9742
   59CHL1   C11 5506   4.308   0.619   4.743 -0.0306  0.6362 -0.2419
   59CHL1  H11A 5507   4.385   0.698   4.751  2.1449 -1.3699 -0.2350
   59CHL1  H11B 5508   4.350   0.536   4.681 -2.8934 -1.0380 -0.1020
   59CHL1    C9 5509   4.174   0.663   4.674  0.6535 -0.0223 -0.6210
   59CHL1    H9 5510   4.112   0.571   4.669 -0.0704  0.4976 -1.6184
   59CHL1   C10 5511   4.190   0.710   4.529 -0.0595 -0.4978  0.1347
   59CHL1   C19 5512   4.309   0.814   4.527  0.3387  0.9705  1.1187
   59CHL1  H19A 5513   4.331   0.833   4.420 -1.1017 -1.1195  0.3880
   59CHL1  H19B 5514   4.282   0.909   4.577 -2.2863  0.5944  0.5550
   59CHL1  H19C 5515   4.402   0.771   4.572  0.8981 -1.2656 -1.8279
   59CHL1    C1 5516   4.236   0.593   4.438 -0.2884  0.6867  0.9508
   59CHL1   H1A 5517   4.342   0.568   4.459  0.5414  1.0970 -2.2919
   59CHL1   H1B 5518   4.169   0.508   4.460 -0.4151  1.0908  2.2137
   59CHL1    C2 5519   4.244   0.615   4.284 -0.5200 -0.0056 -0.6891
   59CHL1   H2A 5520   4.261   0.523   4.225  0.0329 -1.6908  1.9204
   59CHL1   H2B 5521   4.312   0.695   4.248  1.6769 -2.0151 -1.2095
   59CHL1   C20 5522   4.236   0.605   5.236 -0.1550  0.4057  0.4535
   59CHL1   H20 5523   4.287   0.701   5.262 -0.2039  0.7258 -0.5766
   59CHL1   C21 5524   4.349   0.505   5.205 -0.0453  0.4467 -0.2247
   59CHL1  H21A 5525   4.406   0.480   5.297 -1.0183  1.9969  0.8592
   59CHL1  H21B 5526   4.411   0.561   5.131 -0.1578  0.6070 -0.1991
   59CHL1  H21C 5527   4.308   0.411   5.163  1.3380 -1.4853  2.4145
   59CHL1   C22 5528   4.161   0.568   5.371 -0.4299 -0.5117  0.1213
   59CHL1  H22A 5529   4.238   0.576   5.450  0.6009 -1.6216 -0.7293
   59CHL1  H22B 5530   4.090   0.651   5.392 -0.8412 -0.7721 -0.2107
   59CHL1   C23 5531   4.085   0.437   5.386  0.1069  0.0325  0.2948
   59CHL1  H23A 5532   4.037   0.417   5.288  2.0840  0.5291 -0.8279
   59CHL1  H23B 5533   4.165   0.364   5.408  1.8107  1.0681 -2.0371
   59CHL1   C24 5534   3.965   0.442   5.488  0.3763 -0.3426 -0.0954
   59CHL1  H24A 5535   3.917   0.542   5.475 -1.4435 -0.9886  1.2444
   59CHL1  H24B 5536   3.888   0.367   5.461  2.0245 -1.3982 -2.1751
   59CHL1   C25 5537   4.000   0.431   5.633  0.0171  0.0695 -0.3499
   59CHL1   H25 5538   4.091   0.491   5.654 -0.3732  0.6384 -0.2494
   59CHL1   C26 5539   3.891   0.483   5.723  0.8471  0.8533 -0.1888
   59CHL1  H26A 5540   3.927   0.481   5.828 -1.5044  0.1829  0.6701
   59CHL1  H26B 5541   3.854   0.585   5.698 -0.1822  0.7786  0.8915
   59CHL1  H26C 5542   3.800   0.420   5.710  1.6889 -0.0929 -1.8003
   59CHL1   C27 5543   4.037   0.286   5.673 -0.0329  0.5767  0.4820
   59CHL1  H27A 5544   3.946   0.221   5.675  0.6965 -0.5348 -0.6620
   59CHL1  H27B 5545   4.113   0.262   5.596 -2.8281  1.7148 -2.8923
   59CHL1  H27C 5546   4.081   0.289   5.775  1.0501  1.4504  0.0025
   60CHL1    C3 5547   3.960   6.458   4.408 -0.3558 -0.9367 -0.3983
   60CHL1    H3 5548   3.861   6.436   4.453  0.4040  1.3387  2.7423
   60CHL1    O3 5549   3.961   6.491   4.267  0.4411 -0.0344  0.0208
   60CHL1   H3' 5550   3.941   6.408   4.221 -2.1578 -0.8689  2.3699
   60CHL1    C4 5551   4.021   6.581   4.488  0.7524 -0.2431  0.2299
   60CHL1   H4A 5552   4.127   6.596   4.459  0.6676 -2.6239 -1.6619
   60CHL1   H4B 5553   3.957   6.670   4.469 -1.5109 -1.8544 -0.0971
   60CHL1    C5 5554   4.005   6.540   4.632 -0.5687  0.5700 -0.5467
   60CHL1    C6 5555   3.926   6.607   4.717 -0.1046 -0.7469  0.3152
   60CHL1    H6 5556   3.877   6.699   4.683 -2.8639 -2.7327 -1.5009
   60CHL1    C7 5557   3.910   6.572   4.865 -0.1743 -0.7979  0.4002
   60CHL1   H7A 5558   3.900   6.656   4.937 -0.2276  0.6363 -1.2085
   60CHL1   H7B 5559   3.808   6.527   4.864  0.3138 -2.0926  2.4707
   60CHL1    C8 5560   4.009   6.468   4.927 -0.4072  0.4509 -0.1009
   60CHL1    H8 5561   4.106   6.519   4.949  0.3974 -1.0156 -0.0987
   60CHL1   C14 5562   3.943   6.412   5.054 -0.5068  0.4306 -0.4545
   60CHL1   H14 5563   3.855   6.352   5.025  1.2301 -2.1618 -0.7129
   60CHL1   C15 5564   3.899   6.508   5.166  0.3392  0.0482 -0.6783
   60CHL1  H15A 5565   3.970   6.594   5.176  0.4668 -0.1689  0.4318
   60CHL1  H15B 5566   3.800   6.547   5.135  0.5623 -0.5199 -2.1759
   60CHL1   C16 5567   3.887   6.415   5.286 -0.5222 -0.1023 -0.0034
   60CHL1  H16A 5568   3.954   6.454   5.365 -0.5356 -0.5984  0.2596
   60CHL1  H16B 5569   3.785   6.395   5.325 -1.2771  1.0977 -1.2574
   60CHL1   C17 5570   3.951   6.274   5.246 -0.4646  0.1859 -0.4764
   60CHL1   H17 5571   3.861   6.214   5.220  1.0941 -2.4228 -0.1324
   60CHL1   C13 5572   4.036   6.309   5.121  0.4679 -0.6840 -0.5705
   60CHL1   C18 5573   4.167   6.381   5.180  0.4653 -0.1877  0.9454
   60CHL1  H18A 5574   4.155   6.463   5.254  1.9571 -0.8681  1.9889
   60CHL1  H18B 5575   4.234   6.305   5.226  0.1956  0.4048  2.3798
   60CHL1  H18C 5576   4.224   6.429   5.098 -0.7890 -0.9447 -0.4217
   60CHL1   C12 5577   4.071   6.193   5.019 -0.1485 -0.0585 -0.2042
   60CHL1  H12A 5578   4.145   6.124   5.064 -0.8614 -1.2185 -0.7761
   60CHL1  H12B 5579   3.977   6.135   5.007  0.5409 -1.0265 -1.0913
   60CHL1   C11 5580   4.119   6.245   4.882  0.1186 -0.2131 -1.1314
   60CHL1  H11A 5581   4.223   6.278   4.904  0.2152 -1.4013  0.4412
   60CHL1  H11B 5582   4.126   6.149   4.827 -0.2241 -1.7536  1.3430
   60CHL1    C9 5583   4.027   6.356   4.824 -0.1434 -0.0012  0.1601
   60CHL1    H9 5584   3.925   6.314   4.807 -0.4881  1.2802 -1.0895
   60CHL1   C10 5585   4.069   6.409   4.683  0.1769 -0.6744  0.2888
   60CHL1   C19 5586   4.215   6.467   4.700 -0.5703 -0.0906  0.0570
   60CHL1  H19A 5587   4.283   6.398   4.755 -0.0236  0.2462 -0.1886
   60CHL1  H19B 5588   4.264   6.490   4.603 -1.8877 -0.1577 -0.6557
   60CHL1  H19C 5589   4.211   6.568   4.747 -1.3278  0.5400 -1.3034
   60CHL1    C1 5590   4.051   6.302   4.580 -0.0106  0.1031 -0.4906
   60CHL1   H1A 5591   4.127   6.223   4.597  0.0789  0.1681 -0.5883
   60CHL1   H1B 5592   3.954   6.252   4.604  1.6389 -2.9479  0.3691
   60CHL1    C2 5593   4.053   6.342   4.432 -0.3753  0.7249  0.4468
   60CHL1   H2A 5594   4.023   6.253   4.372  0.1098  0.8197  0.0612
   60CHL1   H2B 5595   4.155   6.359   4.391  0.4287  0.6001  2.3101
   60CHL1   C20 5596   4.010   6.202   5.374 -0.5604 -0.1695 -0.0516
   60CHL1   H20 5597   4.098   6.262   5.403  0.7240 -1.2315 -1.5546
   60CHL1   C21 5598   4.062   6.061   5.339  0.6589 -0.5944  0.2242
   60CHL1  H21A 5599   3.992   6.004   5.274 -0.6060 -0.2541  1.2403
   60CHL1  H21B 5600   4.090   6.000   5.427  2.1727 -0.0009  0.1902
   60CHL1  H21C 5601   4.157   6.074   5.282  0.0931  0.5218 -0.5081
   60CHL1   C22 5602   3.919   6.192   5.494  0.4223  0.0815 -0.1490
   60CHL1  H22A 5603   3.881   6.291   5.526 -0.9252 -0.5155  0.1793
   60CHL1  H22B 5604   3.826   6.138   5.464 -2.1914  3.3636  1.4243
   60CHL1   C23 5605   3.971   6.122   5.620 -0.5296 -0.4334  0.2720
   60CHL1  H23A 5606   3.973   6.011   5.628  0.8810 -0.5988 -1.6435
   60CHL1  H23B 5607   4.079   6.146   5.632 -0.8385  0.8016  0.8197
   60CHL1   C24 5608   3.896   6.153   5.750  0.9533  0.0353 -0.2413
   60CHL1  H24A 5609   3.871   6.262   5.744  0.4927 -0.1227 -1.7662
   60CHL1  H24B 5610   3.798   6.102   5.740  0.2347  0.8760  1.9054
   60CHL1   C25 5611   3.971   6.125   5.879 -0.9655  0.1058  0.4467
   60CHL1   H25 5612   4.078   6.138   5.851 -0.4796 -1.2783  1.5893
   60CHL1   C26 5613   3.933   6.235   5.985 -0.0980 -0.1710  0.8445
   60CHL1  H26A 5614   3.970   6.335   5.951  3.0107 -0.4282  3.0794
   60CHL1  H26B 5615   3.822   6.229   5.983 -0.0923 -3.1401 -2.9255
   60CHL1  H26C 5616   3.972   6.216   6.087  1.9478  0.4400  0.2363
   60CHL1   C27 5617   3.959   5.974   5.927  0.4437  0.5196  0.2320
   60CHL1  H27A 5618   3.973   5.911   5.836  0.2743  0.4228  0.2727
   60CHL1  H27B 5619   4.030   5.945   6.008 -0.5135 -3.3231 -0.0821
   60CHL1  H27C 5620   3.856   5.957   5.964  0.7114  0.7506  1.1078
   61CHL1    C3 5621   6.740   1.491   3.939  0.7015  0.2200  0.3989
   61CHL1    H3 5622   6.848   1.480   3.962  1.1579 -0.1158 -1.7009
   61CHL1    O3 5623   6.727   1.540   3.803  0.1700  0.3157 -0.1731
   61CHL1   H3' 5624   6.641   1.581   3.803  1.2185  2.7108  0.9251
   61CHL1    C4 5625   6.659   1.361   3.975 -0.3844 -0.2460 -0.4546
   61CHL1   H4A 5626   6.554   1.384   3.947 -0.8802 -0.8237  0.8543
   61CHL1   H4B 5627   6.690   1.276   3.911 -0.5425  0.5306 -1.6025
   61CHL1    C5 5628   6.672   1.313   4.123 -0.2169  0.6321  0.3025
   61CHL1    C6 5629   6.727   1.195   4.153  0.8932 -0.0140 -0.1706
   61CHL1    H6 5630   6.739   1.115   4.079  0.7089 -1.0026  0.8444
   61CHL1    C7 5631   6.746   1.157   4.298 -0.8559  0.3328 -0.1444
   61CHL1   H7A 5632   6.714   1.051   4.305  0.2511 -0.0957 -1.2573
   61CHL1   H7B 5633   6.853   1.150   4.328 -0.7197  0.2650 -0.6308
   61CHL1    C8 5634   6.667   1.242   4.399 -0.2893 -0.1937 -0.1836
   61CHL1    H8 5635   6.565   1.201   4.382 -0.4581 -0.1217  0.5981
   61CHL1   C14 5636   6.726   1.231   4.542 -0.0642  1.0731 -0.6235
   61CHL1   H14 5637   6.828   1.272   4.531  1.3103 -2.0621 -0.5232
   61CHL1   C15 5638   6.750   1.089   4.591  0.0658 -0.6118 -0.3343
   61CHL1  H15A 5639   6.659   1.029   4.573  1.5223 -2.4795 -1.8003
   61CHL1  H15B 5640   6.839   1.055   4.535 -0.5774  0.0311 -1.7965
   61CHL1   C16 5641   6.763   1.117   4.742  0.1494 -0.5945  0.5204
   61CHL1  H16A 5642   6.686   1.066   4.803 -0.5652  1.1540  1.1541
   61CHL1  H16B 5643   6.867   1.093   4.771 -0.1608  0.4483  2.6415
   61CHL1   C17 5644   6.728   1.267   4.771  0.1941  0.2213  0.8630
   61CHL1   H17 5645   6.815   1.333   4.752  1.2308 -0.8779  1.6345
   61CHL1   C13 5646   6.645   1.299   4.649 -0.7058 -0.2851  0.2887
   61CHL1   C18 5647   6.498   1.250   4.660 -0.4275 -0.2855  0.6329
   61CHL1  H18A 5648   6.439   1.327   4.715 -1.5260 -0.1882 -0.6364
   61CHL1  H18B 5649   6.449   1.238   4.561 -2.0445 -0.7507  1.4579
   61CHL1  H18C 5650   6.488   1.147   4.699 -1.1441 -1.1864 -1.7568
   61CHL1   C12 5651   6.649   1.450   4.608  0.2185 -0.7657 -0.4567
   61CHL1  H12A 5652   6.594   1.514   4.680 -0.5040 -0.3313 -1.3745
   61CHL1  H12B 5653   6.758   1.472   4.602 -0.1935  1.7389  0.2364
   61CHL1   C11 5654   6.595   1.477   4.470  0.3121 -0.3798  0.7087
   61CHL1  H11A 5655   6.487   1.455   4.477  0.5448 -1.3085  1.4276
   61CHL1  H11B 5656   6.614   1.584   4.445  2.7120 -1.4068 -2.6715
   61CHL1    C9 5657   6.672   1.392   4.364  0.6746 -0.0420  0.6544
   61CHL1    H9 5658   6.779   1.422   4.363  0.7231 -0.1735  1.2971
   61CHL1   C10 5659   6.629   1.423   4.220 -0.7511 -0.4816  0.2972
   61CHL1   C19 5660   6.467   1.433   4.211 -1.3954 -0.2753  0.2054
   61CHL1  H19A 5661   6.424   1.349   4.270 -1.1382 -0.0507  0.7253
   61CHL1  H19B 5662   6.435   1.528   4.259  2.4582  1.1226  0.4028
   61CHL1  H19C 5663   6.436   1.424   4.105  0.6000 -3.7453 -0.2280
   61CHL1    C1 5664   6.699   1.557   4.177 -0.6691 -0.3098 -0.7599
   61CHL1   H1A 5665   6.653   1.636   4.239  0.0258  0.5781 -1.3544
   61CHL1   H1B 5666   6.805   1.558   4.209  0.0937 -2.3274 -2.9813
   61CHL1    C2 5667   6.694   1.606   4.035 -0.0179 -0.7403  0.2111
   61CHL1   H2A 5668   6.766   1.685   4.007  0.9846 -1.2928  1.1251
   61CHL1   H2B 5669   6.588   1.633   4.015  0.2460 -1.8809 -3.3746
   61CHL1   C20 5670   6.672   1.287   4.912  0.1363  0.1720  0.5610
   61CHL1   H20 5671   6.577   1.230   4.919 -0.5382  0.9495 -1.5856
   61CHL1   C21 5672   6.625   1.429   4.943 -0.0556 -0.0567  0.0702
   61CHL1  H21A 5673   6.530   1.463   4.897 -0.3045  0.9576  1.3085
   61CHL1  H21B 5674   6.705   1.499   4.911  0.4394 -0.0142  1.3373
   61CHL1  H21C 5675   6.605   1.445   5.051  1.1615  0.9219  0.1686
   61CHL1   C22 5676   6.762   1.220   5.016 -0.7809  0.4820 -0.5175
   61CHL1  H22A 5677   6.783   1.114   4.989  1.6685  1.4422 -2.8524
   61CHL1  H22B 5678   6.861   1.268   5.004  1.2246 -3.2976 -0.5689
   61CHL1   C23 5679   6.713   1.246   5.161  0.4787 -0.4929  0.4170
   61CHL1  H23A 5680   6.701   1.353   5.187  1.8587  0.3139 -1.9308
   61CHL1  H23B 5681   6.613   1.197   5.168  0.6700 -0.8360  0.7503
   61CHL1   C24 5682   6.804   1.184   5.264 -0.2841  0.5266 -0.1292
   61CHL1  H24A 5683   6.811   1.075   5.249  1.8723  0.2725  2.1712
   61CHL1  H24B 5684   6.904   1.232   5.257 -0.4163  0.9934  1.0229
   61CHL1   C25 5685   6.756   1.208   5.407  0.5920 -0.5484 -0.4127
   61CHL1   H25 5686   6.645   1.198   5.405  0.3956  0.9788  1.2024
   61CHL1   C26 5687   6.795   1.100   5.511 -0.8088 -0.3030  0.0926
   61CHL1  H26A 5688   6.903   1.107   5.533 -0.9123 -0.6356  0.7235
   61CHL1  H26B 5689   6.739   1.092   5.607 -1.5985 -1.1192 -0.4280
   61CHL1  H26C 5690   6.783   1.004   5.458  0.9068  0.0768 -1.0525
   61CHL1   C27 5691   6.776   1.360   5.455 -0.0800  0.4115 -0.0775
   61CHL1  H27A 5692   6.734   1.377   5.557  2.2620 -0.2520  1.0720
   61CHL1  H27B 5693   6.884   1.384   5.461  0.0947 -0.4847  0.6257
   61CHL1  H27C 5694   6.722   1.420   5.379 -0.4809 -0.6194 -0.6230
   62CHL1    C3 5695   0.809   1.471   4.267  0.0035  0.0679 -0.0807
   62CHL1    H3 5696   0.862   1.568   4.284 -0.7111  0.3064  0.8541
   62CHL1    O3 5697   0.738   1.461   4.150  0.9201 -0.0114  0.2968
   62CHL1   H3' 5698   0.664   1.402   4.165  0.3434  0.6755  0.1893
   62CHL1    C4 5699   0.907   1.352   4.283  0.3011  0.2786 -0.5795
   62CHL1   H4A 5700   0.846   1.262   4.261  0.1648 -0.2269  1.6351
   62CHL1   H4B 5701   0.983   1.358   4.202  1.0104 -1.0564 -0.0399
   62CHL1    C5 5702   0.958   1.334   4.431  0.3985 -0.1886 -0.3920
   62CHL1    C6 5703   1.087   1.306   4.444  0.0102 -0.2245  0.3292
   62CHL1    H6 5704   1.153   1.288   4.358 -0.6755 -0.1344 -0.2256
   62CHL1    C7 5705   1.148   1.289   4.578  0.0986  0.0952  0.0933
   62CHL1   H7A 5706   1.193   1.188   4.574  0.2770  0.2039 -1.0305
   62CHL1   H7B 5707   1.225   1.364   4.603 -0.3334  0.3905  0.5583
   62CHL1    C8 5708   1.049   1.294   4.702 -0.7438  0.5648 -0.3641
   62CHL1    H8 5709   0.999   1.195   4.707 -1.7647  0.9581 -1.9022
   62CHL1   C14 5710   1.128   1.332   4.835 -0.6367 -0.0266  0.1359
   62CHL1   H14 5711   1.169   1.435   4.827  1.4671 -0.8647 -0.4627
   62CHL1   C15 5712   1.246   1.241   4.874 -0.5853  0.1607  0.0238
   62CHL1  H15A 5713   1.218   1.136   4.851 -2.2974  1.1823 -3.2365
   62CHL1  H15B 5714   1.340   1.271   4.823 -0.3479  1.0896  0.9634
   62CHL1   C16 5715   1.264   1.275   5.022  0.0875  0.7625 -0.0020
   62CHL1  H16A 5716   1.256   1.185   5.087  1.6680  1.7332  1.6584
   62CHL1  H16B 5717   1.365   1.317   5.040  0.3461  0.0769  0.1634
   62CHL1   C17 5718   1.149   1.368   5.068 -1.0635 -0.2093 -0.5881
   62CHL1   H17 5719   1.200   1.464   5.045  2.2341 -2.0451 -1.5920
   62CHL1   C13 5720   1.039   1.336   4.959 -0.6242  0.4366 -0.0432
   62CHL1   C18 5721   0.974   1.203   4.993 -0.7175 -0.7846 -0.5666
   62CHL1  H18A 5722   0.896   1.227   5.068  1.6001 -0.8015  1.9932
   62CHL1  H18B 5723   0.931   1.150   4.905  0.2495  1.4458 -2.4966
   62CHL1  H18C 5724   1.047   1.133   5.037 -0.3875 -0.9557 -1.3616
   62CHL1   C12 5725   0.928   1.439   4.940  0.5967 -0.6107 -0.2663
   62CHL1  H12A 5726   0.851   1.443   5.020  1.7791  1.2672  0.8388
   62CHL1  H12B 5727   0.976   1.539   4.945  0.1115 -0.4568  2.5183
   62CHL1   C11 5728   0.852   1.430   4.805 -0.5317  0.0651 -0.4626
   62CHL1  H11A 5729   0.788   1.340   4.824 -1.3811  0.7146 -0.1895
   62CHL1  H11B 5730   0.796   1.522   4.779 -0.5661  0.2888  0.3942
   62CHL1    C9 5731   0.946   1.394   4.677 -0.3882  0.0911 -0.1223
   62CHL1    H9 5732   0.995   1.494   4.675  1.0392 -0.6038 -1.5795
   62CHL1   C10 5733   0.869   1.371   4.543 -0.0341  1.0812  0.3307
   62CHL1   C19 5734   0.773   1.248   4.559  0.2675  0.0971 -0.2957
   62CHL1  H19A 5735   0.691   1.277   4.629  2.3507  0.5475  2.0985
   62CHL1  H19B 5736   0.740   1.216   4.458 -1.5377 -1.3277  0.6909
   62CHL1  H19C 5737   0.808   1.154   4.606  0.8298  1.1656  1.5199
   62CHL1    C1 5738   0.777   1.491   4.518 -0.1231 -1.0361 -0.0854
   62CHL1   H1A 5739   0.699   1.516   4.594 -1.3700 -2.1132 -0.9516
   62CHL1   H1B 5740   0.842   1.580   4.526 -1.8351  0.2566  0.1911
   62CHL1    C2 5741   0.711   1.484   4.379 -0.7242  0.0407 -0.1234
   62CHL1   H2A 5742   0.660   1.582   4.370 -0.0381  0.2819 -1.9689
   62CHL1   H2B 5743   0.637   1.401   4.370 -1.5584  0.9082 -1.9275
   62CHL1   C20 5744   1.113   1.363   5.215 -0.5162  0.3116 -0.1474
   62CHL1   H20 5745   1.035   1.286   5.231 -1.1016  0.1400 -3.1956
   62CHL1   C21 5746   1.050   1.493   5.261 -0.4237  0.4436  0.0647
   62CHL1  H21A 5747   0.981   1.463   5.342 -1.2372 -1.2913 -1.2036
   62CHL1  H21B 5748   0.992   1.540   5.179 -0.7343  2.7288  1.4991
   62CHL1  H21C 5749   1.122   1.576   5.279  1.7730 -0.8957 -1.9662
   62CHL1   C22 5750   1.236   1.334   5.308  0.2941 -0.1679 -0.7057
   62CHL1  H22A 5751   1.250   1.224   5.298 -2.6389 -0.5758 -1.5140
   62CHL1  H22B 5752   1.329   1.384   5.276 -0.2819  1.1964 -0.3095
   62CHL1   C23 5753   1.201   1.353   5.453 -0.4746 -0.0121 -0.1967
   62CHL1  H23A 5754   1.209   1.459   5.485  1.7998 -0.2688  0.2395
   62CHL1  H23B 5755   1.100   1.318   5.484 -0.9945  1.6594  0.1077
   62CHL1   C24 5756   1.302   1.286   5.541  1.0489  0.2262 -0.5704
   62CHL1  H24A 5757   1.317   1.183   5.502  1.3345 -0.5287  1.4178
   62CHL1  H24B 5758   1.402   1.335   5.539  0.7540  0.8303 -1.9743
   62CHL1   C25 5759   1.262   1.274   5.690  0.0303 -0.4474  0.1725
   62CHL1   H25 5760   1.161   1.228   5.687 -1.2163  2.1744 -2.4788
   62CHL1   C26 5761   1.367   1.192   5.762 -1.4175 -0.0245  0.8731
   62CHL1  H26A 5762   1.337   1.169   5.867  0.6582  0.7185  1.6644
   62CHL1  H26B 5763   1.394   1.100   5.707 -0.5021 -0.0090  1.2852
   62CHL1  H26C 5764   1.458   1.254   5.772 -0.0353 -1.3811 -2.0736
   62CHL1   C27 5765   1.255   1.411   5.757  0.8818 -0.3006  0.4192
   62CHL1  H27A 5766   1.217   1.390   5.860  1.6962  0.7801  0.9551
   62CHL1  H27B 5767   1.351   1.465   5.763  0.7752  0.3118 -2.4093
   62CHL1  H27C 5768   1.185   1.479   5.704  2.0849  0.1723 -0.5857
   63CHL1    C3 5769   3.652   0.471   4.299  0.0025 -0.3443 -0.4595
   63CHL1    H3 5770   3.629   0.574   4.332  1.1044 -0.2009 -0.0935
   63CHL1    O3 5771   3.690   0.488   4.167  0.2969  0.6297  0.4565
   63CHL1   H3' 5772   3.703   0.399   4.133 -0.1437 -0.1458  2.2385
   63CHL1    C4 5773   3.775   0.413   4.364  0.1943 -0.0829 -0.3502
   63CHL1   H4A 5774   3.784   0.315   4.312 -2.3729 -0.7899  0.4270
   63CHL1   H4B 5775   3.871   0.456   4.327  0.7817 -1.9338 -1.1290
   63CHL1    C5 5776   3.755   0.398   4.516  0.6480  0.1453  0.6039
   63CHL1    C6 5777   3.826   0.468   4.605 -0.4361  0.4620 -0.0656
   63CHL1    H6 5778   3.902   0.540   4.572  0.8620 -1.6479 -1.9256
   63CHL1    C7 5779   3.816   0.459   4.753  1.2325  0.1813 -0.1272
   63CHL1   H7A 5780   3.919   0.465   4.794  0.8064  0.1366  0.9971
   63CHL1   H7B 5781   3.768   0.552   4.790  1.2980 -0.1754  0.8907
   63CHL1    C8 5782   3.739   0.332   4.786  0.7763  0.7450 -0.2523
   63CHL1    H8 5783   3.806   0.244   4.773 -0.1476 -0.3552  1.8080
   63CHL1   C14 5784   3.698   0.332   4.936  0.4892  0.1563 -0.0100
   63CHL1   H14 5785   3.631   0.420   4.939  0.6973  0.2858  1.2374
   63CHL1   C15 5786   3.813   0.382   5.034  0.0446  0.2527  0.1823
   63CHL1  H15A 5787   3.912   0.347   4.999 -0.0539  1.2082 -1.1316
   63CHL1  H15B 5788   3.799   0.492   5.047 -3.2379 -0.1553  1.0177
   63CHL1   C16 5789   3.768   0.320   5.162 -0.0336 -0.4878  0.4986
   63CHL1  H16A 5790   3.846   0.258   5.213  1.7207  1.5493  0.4251
   63CHL1  H16B 5791   3.756   0.403   5.235  0.7170  1.0926 -1.1111
   63CHL1   C17 5792   3.623   0.245   5.135  0.3081 -0.1564 -0.0186
   63CHL1   H17 5793   3.554   0.331   5.143  0.1515 -0.4201  1.7406
   63CHL1   C13 5794   3.639   0.207   4.990 -1.1387  0.6863  0.2631
   63CHL1   C18 5795   3.729   0.081   4.981 -0.0570  0.3789  0.2116
   63CHL1  H18A 5796   3.665   0.009   5.036 -0.6173  1.2895  0.7743
   63CHL1  H18B 5797   3.752   0.039   4.880 -1.7125  0.3957 -0.1983
   63CHL1  H18C 5798   3.823   0.104   5.035  0.1929 -0.2531  0.0614
   63CHL1   C12 5799   3.507   0.192   4.910 -0.9279 -0.1863 -0.0948
   63CHL1  H12A 5800   3.440   0.111   4.945 -1.9683  0.5504 -0.3251
   63CHL1  H12B 5801   3.446   0.283   4.929  0.6029  0.7625  0.4478
   63CHL1   C11 5802   3.533   0.184   4.760 -0.0264 -0.2386  0.8993
   63CHL1  H11A 5803   3.585   0.086   4.753  0.4869 -0.0615  2.0082
   63CHL1  H11B 5804   3.435   0.173   4.708  0.6783  1.6865 -1.0117
   63CHL1    C9 5805   3.618   0.303   4.702  0.1273  0.4961  0.2616
   63CHL1    H9 5806   3.559   0.397   4.712 -1.2153 -0.2328 -0.5492
   63CHL1   C10 5807   3.642   0.298   4.557 -0.2482 -0.4897  0.6899
   63CHL1   C19 5808   3.685   0.152   4.516  0.0484 -0.3822  0.0346
   63CHL1  H19A 5809   3.745   0.155   4.423 -0.7454 -1.1148 -0.5157
   63CHL1  H19B 5810   3.745   0.098   4.593  0.0144 -0.7921 -0.2253
   63CHL1  H19C 5811   3.590   0.097   4.501 -0.3423  0.3770 -0.3160
   63CHL1    C1 5812   3.514   0.358   4.477 -0.1638  0.4803 -1.0036
   63CHL1   H1A 5813   3.423   0.299   4.500  0.2796  0.1733  0.0416
   63CHL1   H1B 5814   3.501   0.465   4.501 -1.7865  0.6380 -2.4295
   63CHL1    C2 5815   3.535   0.374   4.322 -0.1540 -0.2628  0.0819
   63CHL1   H2A 5816   3.442   0.412   4.275  0.1269  0.4830  0.1183
   63CHL1   H2B 5817   3.562   0.273   4.283  1.1708 -0.5420  1.6214
   63CHL1   C20 5818   3.595   0.137   5.249  0.3399 -0.6385  0.1210
   63CHL1   H20 5819   3.666   0.057   5.219  2.4663  1.4555 -0.6731
   63CHL1   C21 5820   3.451   0.073   5.220 -0.1761  0.6113  0.2596
   63CHL1  H21A 5821   3.369   0.147   5.223 -1.4807 -0.8019  1.1804
   63CHL1  H21B 5822   3.430  -0.002   5.299  1.5118  2.3319  2.4820
   63CHL1  H21C 5823   3.467   0.011   5.130  0.2871  1.7398 -0.4564
   63CHL1   C22 5824   3.613   0.206   5.393  0.8757  0.8659 -0.3840
   63CHL1  H22A 5825   3.575   0.139   5.473  0.1665 -0.2136 -1.5973
   63CHL1  H22B 5826   3.722   0.226   5.407  0.9797 -0.7515  1.5456
   63CHL1   C23 5827   3.533   0.340   5.402  0.3544 -0.0626 -0.0941
   63CHL1  H23A 5828   3.572   0.411   5.326 -0.1787 -0.3954 -0.6830
   63CHL1  H23B 5829   3.430   0.335   5.363 -0.5363  0.5472  2.0384
   63CHL1   C24 5830   3.525   0.392   5.549  0.4751 -0.7104 -0.3117
   63CHL1  H24A 5831   3.567   0.320   5.622 -3.1162 -1.7392  0.8985
   63CHL1  H24B 5832   3.588   0.484   5.553 -2.0202  1.0597  0.5488
   63CHL1   C25 5833   3.383   0.446   5.591  0.1613 -0.1845  0.3072
   63CHL1   H25 5834   3.308   0.381   5.541 -0.4686  1.4930 -1.0386
   63CHL1   C26 5835   3.363   0.453   5.743  0.0126 -0.5936 -0.5709
   63CHL1  H26A 5836   3.282   0.526   5.765  0.2966 -0.2445 -0.6826
   63CHL1  H26B 5837   3.336   0.358   5.795 -2.7644  1.1306  1.4512
   63CHL1  H26C 5838   3.455   0.502   5.784 -0.2187 -0.5721 -0.0676
   63CHL1   C27 5839   3.346   0.584   5.519  0.2822  0.2608 -0.6804
   63CHL1  H27A 5840   3.408   0.659   5.573 -0.5335 -1.5339  3.0963
   63CHL1  H27B 5841   3.374   0.592   5.412  0.6727  1.0810 -0.5252
   63CHL1  H27C 5842   3.243   0.615   5.545  0.3862 -0.3744  0.5522
   64CHL1    C3 5843   3.355   5.451   4.169  0.9346  0.0359  0.5430
   64CHL1    H3 5844   3.399   5.350   4.155 -0.0090 -0.3628  0.3355
   64CHL1    O3 5845   3.335   5.515   4.042 -0.0713  0.6723  0.7440
   64CHL1   H3' 5846   3.297   5.603   4.046 -0.4663  0.7800 -2.3480
   64CHL1    C4 5847   3.220   5.434   4.245  0.1786  0.1700 -0.6250
   64CHL1   H4A 5848   3.168   5.532   4.242 -1.3412 -0.5472  0.8469
   64CHL1   H4B 5849   3.166   5.354   4.191  0.1158  1.0459 -1.8850
   64CHL1    C5 5850   3.236   5.392   4.390  0.5867  0.2071  0.1437
   64CHL1    C6 5851   3.179   5.282   4.439 -0.5716  0.0788 -1.1677
   64CHL1    H6 5852   3.131   5.211   4.371  0.0337 -0.4002 -1.1110
   64CHL1    C7 5853   3.199   5.228   4.577  0.6696 -0.2832 -1.1810
   64CHL1   H7A 5854   3.102   5.182   4.607  0.4130  0.6390 -0.5435
   64CHL1   H7B 5855   3.275   5.148   4.571  0.2212 -0.8237  0.1659
   64CHL1    C8 5856   3.243   5.350   4.668 -0.1378  0.0648  0.0726
   64CHL1    H8 5857   3.160   5.422   4.679 -1.4614 -1.4503  0.2880
   64CHL1   C14 5858   3.270   5.296   4.805 -0.4184 -0.0082 -0.3642
   64CHL1   H14 5859   3.358   5.231   4.784  1.1761  2.4687 -1.8390
   64CHL1   C15 5860   3.159   5.226   4.881 -0.1135 -0.2198  0.2700
   64CHL1  H15A 5861   3.063   5.279   4.860  0.4023  1.8943  2.7268
   64CHL1  H15B 5862   3.150   5.121   4.845 -1.4082 -0.6278  1.6737
   64CHL1   C16 5863   3.192   5.243   5.030  0.1685  0.4054  0.1213
   64CHL1  H16A 5864   3.109   5.288   5.089  0.5544  1.1455  0.1171
   64CHL1  H16B 5865   3.215   5.147   5.080  1.6801  0.4093 -0.5271
   64CHL1   C17 5866   3.321   5.322   5.034 -0.6807 -0.6195 -0.6117
   64CHL1   H17 5867   3.403   5.249   5.016  0.3600  0.8656 -2.2309
   64CHL1   C13 5868   3.312   5.403   4.905 -0.1392  0.0336  0.3681
   64CHL1   C18 5869   3.200   5.506   4.924  0.2615  0.3272  0.0396
   64CHL1  H18A 5870   3.229   5.578   5.003 -2.0259 -0.7789  2.0326
   64CHL1  H18B 5871   3.189   5.563   4.829 -0.5389 -1.2010 -0.8257
   64CHL1  H18C 5872   3.106   5.460   4.962  0.9400 -1.1800 -0.0398
   64CHL1   C12 5873   3.438   5.470   4.855  0.9693 -0.7670 -0.0957
   64CHL1  H12A 5874   3.471   5.555   4.918  0.8191 -1.0124  0.3152
   64CHL1  H12B 5875   3.526   5.405   4.874  1.7882  0.5558  0.8043
   64CHL1   C11 5876   3.426   5.527   4.712 -0.2607 -0.1215 -0.1102
   64CHL1  H11A 5877   3.366   5.620   4.719  0.6401  0.5053 -0.6269
   64CHL1  H11B 5878   3.528   5.562   4.686 -0.3098  0.5271  0.5363
   64CHL1    C9 5879   3.370   5.420   4.610  0.4274  0.2786 -0.5150
   64CHL1    H9 5880   3.447   5.341   4.601 -1.2789 -1.5069 -0.0675
   64CHL1   C10 5881   3.337   5.482   4.474 -0.0322  0.2993 -0.0560
   64CHL1   C19 5882   3.268   5.619   4.485  0.1828  0.0340  0.1121
   64CHL1  H19A 5883   3.323   5.698   4.540 -2.0497  1.5530  0.2778
   64CHL1  H19B 5884   3.250   5.671   4.388  1.5265 -0.3154 -0.3563
   64CHL1  H19C 5885   3.170   5.607   4.534 -0.9467  1.1785 -1.7498
   64CHL1    C1 5886   3.474   5.488   4.389  0.5055 -0.0227 -0.4460
   64CHL1   H1A 5887   3.530   5.567   4.443 -1.0110  1.2819 -0.7212
   64CHL1   H1B 5888   3.522   5.389   4.409  0.3226  0.1690  1.0505
   64CHL1    C2 5889   3.453   5.539   4.247 -0.3088  0.1762 -0.4733
   64CHL1   H2A 5890   3.554   5.543   4.200  0.0879 -0.4108  0.3137
   64CHL1   H2B 5891   3.411   5.642   4.255  1.9687  1.1098  0.2169
   64CHL1   C20 5892   3.355   5.395   5.164  0.2676  0.0720  0.6305
   64CHL1   H20 5893   3.293   5.488   5.166 -0.9914 -0.5278 -2.8610
   64CHL1   C21 5894   3.499   5.439   5.174 -0.0627 -0.0081 -0.5026
   64CHL1  H21A 5895   3.501   5.504   5.264  1.9574 -0.3586 -0.2307
   64CHL1  H21B 5896   3.548   5.495   5.091  0.3728  0.2201 -0.0963
   64CHL1  H21C 5897   3.557   5.349   5.205 -2.9143 -1.3262  1.4102
   64CHL1   C22 5898   3.312   5.310   5.291 -0.3834  0.1726  0.1317
   64CHL1  H22A 5899   3.203   5.289   5.286 -0.6242  0.8329  2.0596
   64CHL1  H22B 5900   3.357   5.208   5.285 -1.0245 -0.0952 -0.2218
   64CHL1   C23 5901   3.344   5.368   5.423  0.0330 -0.3884 -0.2723
   64CHL1  H23A 5902   3.455   5.362   5.430  0.0211 -0.5870 -0.2449
   64CHL1  H23B 5903   3.324   5.476   5.436  0.3720 -0.2081 -1.1314
   64CHL1   C24 5904   3.282   5.284   5.536  0.0676  0.1987  0.5367
   64CHL1  H24A 5905   3.173   5.270   5.521  0.1578 -0.1303  0.1912
   64CHL1  H24B 5906   3.316   5.180   5.517 -1.1556  0.1989 -2.0724
   64CHL1   C25 5907   3.305   5.334   5.680 -0.4487  0.1040 -0.2487
   64CHL1   H25 5908   3.264   5.436   5.693  2.2329  1.3323 -0.6502
   64CHL1   C26 5909   3.220   5.258   5.784 -0.0552  0.4791  0.3719
   64CHL1  H26A 5910   3.266   5.157   5.792  0.6158  0.9267  4.1903
   64CHL1  H26B 5911   3.229   5.287   5.891  1.1656 -0.6578  0.5973
   64CHL1  H26C 5912   3.116   5.246   5.746  0.1358 -2.2378  0.5359
   64CHL1   C27 5913   3.458   5.343   5.720 -0.1583 -0.1897  0.7517
   64CHL1  H27A 5914   3.520   5.426   5.679 -0.6081 -0.8253 -1.3672
   64CHL1  H27B 5915   3.481   5.337   5.829  0.2094 -0.0925  0.6821
   64CHL1  H27C 5916   3.494   5.255   5.662 -1.2641  1.2527 -2.3157
   65CHL1    C3 5917   1.275   2.193   4.534 -0.2327 -0.0965  0.2486
   65CHL1    H3 5918   1.248   2.091   4.567  1.1823 -0.1794  1.2971
   65CHL1    O3 5919   1.231   2.203   4.405 -0.1397 -0.6332 -0.4122
   65CHL1   H3' 5920   1.283   2.274   4.368  0.9614 -0.7830  0.7448
   65CHL1    C4 5921   1.202   2.300   4.612 -0.8007  0.2248  1.1063
   65CHL1   H4A 5922   1.229   2.404   4.581 -0.7077 -0.3961 -0.9715
   65CHL1   H4B 5923   1.093   2.285   4.599 -0.7626  1.6226 -1.4292
   65CHL1    C5 5924   1.241   2.293   4.758 -0.6326 -0.1053 -0.6471
   65CHL1    C6 5925   1.148   2.265   4.855  0.5365  0.3336  0.4973
   65CHL1    H6 5926   1.044   2.257   4.821  0.8905  0.8462 -0.7744
   65CHL1    C7 5927   1.181   2.261   5.002  0.3882 -0.5682  0.3767
   65CHL1   H7A 5928   1.098   2.307   5.061 -0.4637  1.3564 -2.1162
   65CHL1   H7B 5929   1.173   2.154   5.031  1.0611 -0.6896  0.1093
   65CHL1    C8 5930   1.312   2.315   5.043 -0.2415  0.2370 -0.0063
   65CHL1    H8 5931   1.302   2.425   5.039  2.8291  0.5836 -0.2568
   65CHL1   C14 5932   1.357   2.261   5.180 -0.0690  0.3330 -0.2478
   65CHL1   H14 5933   1.386   2.154   5.170  2.1125  0.6755  1.4747
   65CHL1   C15 5934   1.264   2.264   5.302  0.2192  0.1313  0.8575
   65CHL1  H15A 5935   1.232   2.370   5.311  2.2335  1.0702 -1.8993
   65CHL1  H15B 5936   1.185   2.186   5.294  0.0051  0.5233 -1.2520
   65CHL1   C16 5937   1.356   2.241   5.423 -0.5000  0.1331 -0.0355
   65CHL1  H16A 5938   1.353   2.326   5.494 -1.0195  1.0241 -1.0842
   65CHL1  H16B 5939   1.328   2.147   5.475 -1.8626  0.7867  0.4531
   65CHL1   C17 5940   1.508   2.244   5.366  0.0036  0.1270 -0.5029
   65CHL1   H17 5941   1.522   2.138   5.336 -1.9140 -0.4307  0.3871
   65CHL1   C13 5942   1.494   2.318   5.228  0.0733  0.3728  0.3211
   65CHL1   C18 5943   1.485   2.471   5.267  0.7064  0.5147  0.5439
   65CHL1  H18A 5944   1.445   2.519   5.176 -0.0429 -1.0987 -0.0243
   65CHL1  H18B 5945   1.437   2.484   5.367  2.1674  1.2614  1.1892
   65CHL1  H18C 5946   1.586   2.514   5.286  0.8164  0.8713 -0.7654
   65CHL1   C12 5947   1.600   2.285   5.120  0.1448 -0.9118  0.6947
   65CHL1  H12A 5948   1.702   2.306   5.159  0.3329 -1.1794  0.3565
   65CHL1  H12B 5949   1.598   2.174   5.112  0.3369 -0.9426  1.0572
   65CHL1   C11 5950   1.566   2.330   4.977 -0.0884 -0.4065 -0.1457
   65CHL1  H11A 5951   1.573   2.440   4.988 -1.0799 -0.4681  1.4336
   65CHL1  H11B 5952   1.647   2.286   4.915  1.9518  1.4367  1.0597
   65CHL1    C9 5953   1.423   2.288   4.933  0.1900  0.0626  0.1458
   65CHL1    H9 5954   1.431   2.178   4.946  0.6496  0.2772  2.0205
   65CHL1   C10 5955   1.390   2.314   4.785  0.5931  0.0790 -0.3112
   65CHL1   C19 5956   1.412   2.461   4.756  0.4180  0.1456  0.3252
   65CHL1  H19A 5957   1.332   2.527   4.796  0.0810 -0.2336  0.2768
   65CHL1  H19B 5958   1.508   2.502   4.795 -1.0006  1.2127  3.0160
   65CHL1  H19C 5959   1.412   2.474   4.646  0.5952 -0.3375  0.2663
   65CHL1    C1 5960   1.476   2.209   4.694  0.1673  0.2945  0.2721
   65CHL1   H1A 5961   1.582   2.243   4.700  0.4090  0.0015 -1.6819
   65CHL1   H1B 5962   1.463   2.105   4.731  0.6063  1.1909  3.2077
   65CHL1    C2 5963   1.430   2.207   4.547 -0.2787 -0.1119 -0.6683
   65CHL1   H2A 5964   1.482   2.136   4.480 -4.3737 -1.5271 -2.7230
   65CHL1   H2B 5965   1.461   2.309   4.514 -2.3186  0.3810 -1.2173
   65CHL1   C20 5966   1.617   2.272   5.468 -0.4493 -0.1225  0.5419
   65CHL1   H20 5967   1.591   2.367   5.518 -0.3892  0.3780 -0.3602
   65CHL1   C21 5968   1.758   2.286   5.401  0.2869 -1.0232 -0.2747
   65CHL1  H21A 5969   1.789   2.191   5.352  1.5594  0.2645 -2.1286
   65CHL1  H21B 5970   1.832   2.314   5.479  0.6617  0.9560 -1.2760
   65CHL1  H21C 5971   1.757   2.372   5.330  0.3510 -0.2048  0.6890
   65CHL1   C22 5972   1.626   2.150   5.573 -0.1440 -0.3249 -0.9155
   65CHL1  H22A 5973   1.532   2.145   5.633  0.1276 -1.5790 -0.5736
   65CHL1  H22B 5974   1.617   2.054   5.519 -2.9600 -1.0555  0.6508
   65CHL1   C23 5975   1.742   2.155   5.668  0.1611 -0.2459  0.3820
   65CHL1  H23A 5976   1.828   2.127   5.603 -1.2015 -1.4400 -0.9939
   65CHL1  H23B 5977   1.754   2.259   5.705  0.4139 -0.4087  0.7567
   65CHL1   C24 5978   1.707   2.069   5.793 -0.3709 -0.0958  0.2733
   65CHL1  H24A 5979   1.607   2.103   5.827 -0.3472 -0.5083  0.7741
   65CHL1  H24B 5980   1.699   1.961   5.769 -2.3532 -0.0471  0.5555
   65CHL1   C25 5981   1.818   2.083   5.906  0.2527  0.0617 -0.2411
   65CHL1   H25 5982   1.834   2.192   5.921  0.8504 -0.2346  1.3941
   65CHL1   C26 5983   1.775   2.025   6.034 -0.6272  0.2372 -0.0654
   65CHL1  H26A 5984   1.674   2.042   6.078 -0.7659 -2.1090  0.7102
   65CHL1  H26B 5985   1.779   1.914   6.025  0.9915  0.2283  0.3456
   65CHL1  H26C 5986   1.850   2.049   6.112  0.5121 -0.3391 -0.9566
   65CHL1   C27 5987   1.952   2.030   5.865  0.3719 -0.5437 -0.1851
   65CHL1  H27A 5988   1.943   1.921   5.845  1.5261 -0.6031 -0.4612
   65CHL1  H27B 5989   1.991   2.086   5.777  1.9924  1.3112  1.6108
   65CHL1  H27C 5990   2.027   2.052   5.944 -0.8263  0.9550  0.5810
   66CHL1    C3 5991   6.590   3.004   4.245 -0.1435 -0.0094  1.0300
   66CHL1    H3 5992   6.661   3.086   4.269  0.6695  0.5842 -2.8496
   66CHL1    O3 5993   6.573   3.023   4.109  1.2007  0.2438  0.0715
   66CHL1   H3' 5994   6.659   3.020   4.068  2.0119 -1.8125  1.7597
   66CHL1    C4 5995   6.662   2.870   4.268  0.3143 -0.0276  0.0894
   66CHL1   H4A 5996   6.599   2.791   4.222 -1.1707  1.3049 -0.2606
   66CHL1   H4B 5997   6.753   2.857   4.206  0.2142 -0.7785  0.0850
   66CHL1    C5 5998   6.694   2.834   4.411 -0.8682 -0.8112 -1.1303
   66CHL1    C6 5999   6.818   2.819   4.453 -0.0944 -0.4898  0.6239
   66CHL1    H6 6000   6.900   2.817   4.380 -0.1649 -1.9721  0.5531
   66CHL1    C7 6001   6.857   2.786   4.593 -0.4339  0.0639 -0.2097
   66CHL1   H7A 6002   6.923   2.696   4.599 -0.9961 -0.3852 -0.6901
   66CHL1   H7B 6003   6.913   2.873   4.634 -0.5418  0.4919 -0.9530
   66CHL1    C8 6004   6.732   2.761   4.684  0.7687  0.2646 -0.6352
   66CHL1    H8 6005   6.684   2.666   4.651  0.5208 -0.0720  0.6565
   66CHL1   C14 6006   6.771   2.763   4.829 -0.8167  0.2724 -0.0671
   66CHL1   H14 6007   6.805   2.868   4.844 -2.4325  1.1521 -2.0386
   66CHL1   C15 6008   6.879   2.663   4.880  0.2100 -0.1257  0.6323
   66CHL1  H15A 6009   6.858   2.568   4.827 -2.2507  1.2640 -1.1263
   66CHL1  H15B 6010   6.977   2.704   4.848 -0.7053  1.5570 -0.1826
   66CHL1   C16 6011   6.858   2.641   5.025  0.1189  0.3684 -0.2121
   66CHL1  H16A 6012   6.819   2.540   5.047 -0.7799  0.8275  0.3721
   66CHL1  H16B 6013   6.944   2.663   5.093  1.1127  1.2802 -1.7050
   66CHL1   C17 6014   6.748   2.745   5.066 -0.2994  0.1217  0.0810
   66CHL1   H17 6015   6.807   2.839   5.071  0.6927 -0.5452  1.5498
   66CHL1   C13 6016   6.660   2.750   4.934 -0.3400  0.0222 -0.1118
   66CHL1   C18 6017   6.583   2.617   4.912  0.3574 -0.4811 -0.5108
   66CHL1  H18A 6018   6.569   2.595   4.804  0.7261 -1.5578 -0.3418
   66CHL1  H18B 6019   6.637   2.528   4.950 -1.1742 -0.9099  0.7599
   66CHL1  H18C 6020   6.482   2.618   4.959  0.8704 -1.5170  0.6569
   66CHL1   C12 6021   6.570   2.875   4.911  0.6726 -1.1980  0.0260
   66CHL1  H12A 6022   6.479   2.870   4.975 -0.8192 -0.2005 -1.8778
   66CHL1  H12B 6023   6.618   2.975   4.917 -0.2296 -0.8433  2.3997
   66CHL1   C11 6024   6.515   2.866   4.768 -0.3044 -0.2721 -0.6005
   66CHL1  H11A 6025   6.449   2.778   4.757  1.0395 -1.2320 -1.2224
   66CHL1  H11B 6026   6.450   2.955   4.754  0.9886  0.7084 -0.6649
   66CHL1    C9 6027   6.623   2.866   4.655  0.3213 -0.1183 -0.1980
   66CHL1    H9 6028   6.679   2.962   4.659 -0.2661  0.2325 -0.1507
   66CHL1   C10 6029   6.569   2.855   4.505 -0.4450  1.1277  0.4409
   66CHL1   C19 6030   6.473   2.736   4.482 -0.3413 -0.0013  0.0960
   66CHL1  H19A 6031   6.445   2.730   4.375  1.0800 -0.5153 -0.2629
   66CHL1  H19B 6032   6.511   2.635   4.509  0.3581  0.6619  1.6821
   66CHL1  H19C 6033   6.380   2.745   4.543  0.6846 -4.2376  2.7378
   66CHL1    C1 6034   6.495   2.987   4.471  0.3880  0.3739  0.2734
   66CHL1   H1A 6035   6.396   2.991   4.523 -0.8517  0.3852 -1.9859
   66CHL1   H1B 6036   6.552   3.073   4.514  0.8434  0.0770  0.2690
   66CHL1    C2 6037   6.462   3.011   4.327 -0.0862  0.0573  0.5670
   66CHL1   H2A 6038   6.408   3.107   4.310 -1.0261 -0.4982  0.3069
   66CHL1   H2B 6039   6.396   2.925   4.302  1.7531 -1.9949  2.2728
   66CHL1   C20 6040   6.692   2.715   5.211 -0.0741  0.7058  0.6663
   66CHL1   H20 6041   6.623   2.628   5.204 -0.1069  0.5088  2.8179
   66CHL1   C21 6042   6.615   2.842   5.251  0.0053  0.4930  0.3522
   66CHL1  H21A 6043   6.681   2.932   5.249  1.0613 -0.1877  2.1811
   66CHL1  H21B 6044   6.564   2.833   5.349 -3.6674  4.7250 -0.8169
   66CHL1  H21C 6045   6.531   2.856   5.180  0.2549  1.2975  0.2042
   66CHL1   C22 6046   6.800   2.687   5.313 -0.0030 -0.0638 -0.0921
   66CHL1  H22A 6047   6.863   2.599   5.286  1.9748  0.6491  1.8060
   66CHL1  H22B 6048   6.865   2.777   5.303 -1.6713  1.1190 -0.7249
   66CHL1   C23 6049   6.746   2.650   5.460 -0.6057  1.0976  0.0913
   66CHL1  H23A 6050   6.706   2.743   5.505  0.2968  0.8482  1.4395
   66CHL1  H23B 6051   6.661   2.581   5.440  0.1571  0.9246 -3.1988
   66CHL1   C24 6052   6.849   2.594   5.558 -0.3010 -0.1707  0.6148
   66CHL1  H24A 6053   6.909   2.527   5.492 -0.4587  0.9053 -0.6605
   66CHL1  H24B 6054   6.928   2.667   5.588  0.3466 -0.8796  0.6903
   66CHL1   C25 6055   6.796   2.522   5.682 -0.5075 -0.1742 -0.1611
   66CHL1   H25 6056   6.742   2.430   5.650 -1.3268 -0.1649  1.1518
   66CHL1   C26 6057   6.919   2.483   5.772  0.0632 -0.5236 -0.0643
   66CHL1  H26A 6058   6.971   2.408   5.708 -0.3194 -2.0645  1.3633
   66CHL1  H26B 6059   6.976   2.575   5.796 -0.6940 -0.1701  0.4118
   66CHL1  H26C 6060   6.894   2.447   5.874 -0.2774  1.0212  0.4100
   66CHL1   C27 6061   6.702   2.602   5.766  0.2954  0.0261 -0.7787
   66CHL1  H27A 6062   6.757   2.673   5.832 -0.2077 -0.1130 -0.1978
   66CHL1  H27B 6063   6.641   2.534   5.829 -0.4486  1.3363 -0.0281
   66CHL1  H27C 6064   6.624   2.649   5.703 -0.7530 -0.1457  0.3590
   67CHL1    C3 6065   1.987   5.146   4.493 -0.8622  0.7457 -0.5738
   67CHL1    H3 6066   2.085   5.180   4.533 -1.1202 -0.0889  0.8545
   67CHL1    O3 6067   2.008   5.122   4.354  0.6948 -0.6307  0.1943
   67CHL1   H3' 6068   2.066   5.045   4.348  2.1587  0.4727 -0.5794
   67CHL1    C4 6069   1.939   5.022   4.567 -0.4612 -0.3265  0.8989
   67CHL1   H4A 6070   1.842   4.994   4.520 -1.2843  0.7743  1.8901
   67CHL1   H4B 6071   2.013   4.945   4.537  0.2075  0.5881  0.1182
   67CHL1    C5 6072   1.932   5.040   4.717  0.4172 -0.1015 -0.0269
   67CHL1    C6 6073   2.010   4.985   4.812  0.4747  0.4098 -0.3125
   67CHL1    H6 6074   2.088   4.915   4.778  0.4198 -0.5134  1.3525
   67CHL1    C7 6075   2.001   5.005   4.961  0.3899 -0.7641  0.2530
   67CHL1   H7A 6076   1.987   4.906   5.011 -2.3952  0.3220  1.8468
   67CHL1   H7B 6077   2.084   5.070   4.995  0.1492  1.4883 -3.0366
   67CHL1    C8 6078   1.871   5.082   4.994 -0.3362  0.0079  0.2774
   67CHL1    H8 6079   1.783   5.014   4.983 -1.0022  0.3227  3.0425
   67CHL1   C14 6080   1.887   5.121   5.141 -0.0144 -0.1426  0.0201
   67CHL1   H14 6081   1.964   5.201   5.137  0.3837 -0.5469 -0.5609
   67CHL1   C15 6082   1.931   5.019   5.249 -0.4505 -0.4286  0.0583
   67CHL1  H15A 6083   1.873   4.927   5.224 -2.7529  1.3242 -1.5259
   67CHL1  H15B 6084   2.038   4.995   5.233 -0.9222 -2.6891 -0.0243
   67CHL1   C16 6085   1.892   5.086   5.379 -0.2709 -0.0826  0.0830
   67CHL1  H16A 6086   1.822   5.014   5.427 -0.7449  1.5469  2.0020
   67CHL1  H16B 6087   1.969   5.097   5.458 -1.3460  2.5241  0.8786
   67CHL1   C17 6088   1.806   5.214   5.339 -0.1797 -0.4981  0.0638
   67CHL1   H17 6089   1.875   5.301   5.340 -0.4831 -0.2578 -0.0268
   67CHL1   C13 6090   1.770   5.194   5.190  0.6328  0.6657  0.0688
   67CHL1   C18 6091   1.645   5.100   5.193  0.8855  0.3954  0.3045
   67CHL1  H18A 6092   1.557   5.150   5.238  0.6678 -0.1547  0.4895
   67CHL1  H18B 6093   1.614   5.086   5.087  1.1061  0.8628  0.1757
   67CHL1  H18C 6094   1.674   5.005   5.242  0.9390  0.2034 -0.0915
   67CHL1   C12 6095   1.746   5.324   5.110  0.1265 -0.8301 -0.1309
   67CHL1  H12A 6096   1.650   5.375   5.133  0.1342 -0.6869 -0.4059
   67CHL1  H12B 6097   1.836   5.388   5.119 -0.5050  0.3045 -1.4207
   67CHL1   C11 6098   1.740   5.298   4.957  0.7652  0.0902  0.5054
   67CHL1  H11A 6099   1.640   5.252   4.940  0.2444  1.8653 -1.6367
   67CHL1  H11B 6100   1.748   5.393   4.899  2.9436 -0.0108  0.5519
   67CHL1    C9 6101   1.851   5.204   4.903 -0.0169  0.3863  0.1122
   67CHL1    H9 6102   1.941   5.268   4.914  0.0426  0.4972 -0.9276
   67CHL1   C10 6103   1.836   5.162   4.759  0.2111  0.3727  0.5654
   67CHL1   C19 6104   1.689   5.126   4.731 -0.5909  0.2586  0.4042
   67CHL1  H19A 6105   1.629   5.220   4.732 -0.0802  0.7896 -3.2701
   67CHL1  H19B 6106   1.674   5.080   4.631 -2.5970  0.2052  0.6782
   67CHL1  H19C 6107   1.651   5.054   4.807 -0.0954 -0.3790  0.0628
   67CHL1    C1 6108   1.871   5.287   4.668  0.7646  0.0702  0.0860
   67CHL1   H1A 6109   1.789   5.361   4.683 -1.0126 -1.4936 -1.3138
   67CHL1   H1B 6110   1.965   5.336   4.699 -0.1430  2.9344 -1.2951
   67CHL1    C2 6111   1.885   5.254   4.517 -0.7774 -0.6912 -0.1880
   67CHL1   H2A 6112   1.912   5.346   4.461  2.9893 -0.9170  0.9705
   67CHL1   H2B 6113   1.788   5.224   4.472 -0.9500 -0.4415  0.0142
   67CHL1   C20 6114   1.698   5.251   5.443  0.2918 -0.6166  0.3505
   67CHL1   H20 6115   1.616   5.176   5.438 -0.3884  0.0224  1.4324
   67CHL1   C21 6116   1.643   5.391   5.419 -0.0293 -0.3005  0.2780
   67CHL1  H21A 6117   1.727   5.461   5.443 -1.2460  0.5165  2.4826
   67CHL1  H21B 6118   1.563   5.415   5.492 -1.8501 -1.5300 -1.2241
   67CHL1  H21C 6119   1.591   5.408   5.322  0.9516  1.5913  0.0284
   67CHL1   C22 6120   1.756   5.249   5.593  0.4165  1.1504  0.4579
   67CHL1  H22A 6121   1.773   5.141   5.615 -0.6261  1.2416  1.8156
   67CHL1  H22B 6122   1.853   5.303   5.587  1.3503 -0.1029  2.9611
   67CHL1   C23 6123   1.671   5.293   5.716  0.0552  0.8992 -0.1250
   67CHL1  H23A 6124   1.621   5.383   5.674  0.8430  1.8549  0.9366
   67CHL1  H23B 6125   1.583   5.233   5.748 -0.1389  1.1574 -0.1662
   67CHL1   C24 6126   1.752   5.316   5.845  0.6804 -0.1861  0.6165
   67CHL1  H24A 6127   1.670   5.325   5.918  0.7045 -0.7202  0.7145
   67CHL1  H24B 6128   1.802   5.220   5.872  0.0761  0.0785  2.8331
   67CHL1   C25 6129   1.843   5.445   5.847 -0.3190 -0.0579 -0.5479
   67CHL1   H25 6130   1.928   5.421   5.781 -0.2082  0.8453 -0.7462
   67CHL1   C26 6131   1.776   5.573   5.794 -0.6441 -0.3207 -0.2503
   67CHL1  H26A 6132   1.746   5.563   5.687  1.5838  0.5492 -1.0026
   67CHL1  H26B 6133   1.682   5.579   5.853 -1.0832  0.5909 -1.0119
   67CHL1  H26C 6134   1.846   5.659   5.799  0.2465 -1.0848  0.7818
   67CHL1   C27 6135   1.888   5.476   5.988 -0.7294  0.4623 -0.6362
   67CHL1  H27A 6136   1.801   5.481   6.057 -2.2069  1.0302 -2.4685
   67CHL1  H27B 6137   1.944   5.393   6.036 -0.9599  1.2486  1.0820
   67CHL1  H27C 6138   1.949   5.569   5.989  0.5134 -0.2257  2.5845
   68CHL1    C3 6139   2.716   1.106   4.444 -0.5604  0.1719 -0.1445
   68CHL1    H3 6140   2.821   1.071   4.440  0.3812  2.9225 -2.4368
   68CHL1    O3 6141   2.661   1.102   4.311  0.4518  0.2237 -0.1951
   68CHL1   H3' 6142   2.694   1.027   4.260  0.4382 -0.0950  0.2520
   68CHL1    C4 6143   2.638   1.005   4.522 -0.0177 -0.3052 -0.7595
   68CHL1   H4A 6144   2.529   1.016   4.503 -0.0107  2.3881  0.4132
   68CHL1   H4B 6145   2.675   0.914   4.470  0.3330 -0.3834 -0.3790
   68CHL1    C5 6146   2.670   1.016   4.672  0.3187 -0.1952 -0.3381
   68CHL1    C6 6147   2.721   0.910   4.733 -0.5386  0.0215 -0.1613
   68CHL1    H6 6148   2.717   0.808   4.691  0.1258 -0.4167  0.7869
   68CHL1    C7 6149   2.748   0.901   4.883  0.1093 -0.6519  0.0849
   68CHL1   H7A 6150   2.705   0.810   4.929 -0.8563 -1.7566 -2.7704
   68CHL1   H7B 6151   2.858   0.909   4.896  0.0136 -0.1369  0.5839
   68CHL1    C8 6152   2.687   1.024   4.955  0.0348 -0.1838  0.0298
   68CHL1    H8 6153   2.576   1.026   4.960  0.0637  2.2549  2.2217
   68CHL1   C14 6154   2.745   1.033   5.094 -0.0453  0.0296  0.5789
   68CHL1   H14 6155   2.855   1.044   5.084  0.0104  0.5066  1.5822
   68CHL1   C15 6156   2.724   0.913   5.185 -0.0845  0.6313  0.0676
   68CHL1  H15A 6157   2.622   0.868   5.182  0.3485 -0.4625  1.0135
   68CHL1  H15B 6158   2.788   0.828   5.155 -1.4546 -0.0827 -0.9483
   68CHL1   C16 6159   2.752   0.960   5.326 -0.6766 -0.0158  0.2151
   68CHL1  H16A 6160   2.677   0.920   5.397 -0.7844  1.0290  0.7105
   68CHL1  H16B 6161   2.848   0.915   5.359 -0.1264  0.0960 -1.1896
   68CHL1   C17 6162   2.767   1.117   5.311  0.7407  0.0546  0.5002
   68CHL1   H17 6163   2.876   1.136   5.302  0.6558  0.4365  0.2635
   68CHL1   C13 6164   2.701   1.153   5.176 -0.2107 -0.7695 -0.3020
   68CHL1   C18 6165   2.547   1.164   5.187  0.2676  0.4233 -0.3541
   68CHL1  H18A 6166   2.513   1.063   5.219  2.3765  0.2352  1.5532
   68CHL1  H18B 6167   2.518   1.241   5.263  0.0348 -0.9932  1.0499
   68CHL1  H18C 6168   2.502   1.198   5.092 -0.3458 -0.8100 -0.5287
   68CHL1   C12 6169   2.765   1.280   5.110 -0.1343 -0.4550  0.1049
   68CHL1  H12A 6170   2.735   1.371   5.167  0.2388 -0.7302  0.7563
   68CHL1  H12B 6171   2.875   1.274   5.122 -0.3553 -1.4901  2.1331
   68CHL1   C11 6172   2.723   1.286   4.962  0.2733 -0.5023 -0.1474
   68CHL1  H11A 6173   2.624   1.337   4.962  0.7114  0.3802 -0.1234
   68CHL1  H11B 6174   2.800   1.350   4.914 -0.0312  0.9185  1.1689
   68CHL1    C9 6175   2.723   1.154   4.884 -0.2294  0.2334  0.5160
   68CHL1    H9 6176   2.831   1.147   4.858 -0.3569  0.6167 -0.1344
   68CHL1   C10 6177   2.662   1.152   4.739  0.4678 -0.5579  0.0231
   68CHL1   C19 6178   2.511   1.193   4.746 -0.4228 -0.7396 -0.6259
   68CHL1  H19A 6179   2.459   1.197   4.647  1.6392 -0.3706 -1.7524
   68CHL1  H19B 6180   2.452   1.121   4.806 -0.6726 -0.3891 -0.4434
   68CHL1  H19C 6181   2.507   1.294   4.793  0.8467  0.2131 -2.4302
   68CHL1    C1 6182   2.733   1.259   4.654 -0.9508 -0.8254  0.3048
   68CHL1   H1A 6183   2.703   1.355   4.702  1.1196 -1.3555  2.8821
   68CHL1   H1B 6184   2.842   1.248   4.669 -0.6761  1.5232  0.3523
   68CHL1    C2 6185   2.697   1.247   4.500 -0.0633 -0.0897  0.6594
   68CHL1   H2A 6186   2.759   1.307   4.430  0.0410 -0.0323  0.8000
   68CHL1   H2B 6187   2.592   1.276   4.484 -0.0949 -1.4615 -2.0610
   68CHL1   C20 6188   2.721   1.184   5.445  1.0644  0.4494 -0.5588
   68CHL1   H20 6189   2.614   1.156   5.454  0.9290  0.9293 -0.6123
   68CHL1   C21 6190   2.716   1.337   5.435  0.3611 -0.3520 -0.2256
   68CHL1  H21A 6191   2.687   1.375   5.535  1.4530 -0.8924  0.3128
   68CHL1  H21B 6192   2.649   1.378   5.357  0.9387  2.4068  0.6119
   68CHL1  H21C 6193   2.811   1.385   5.406  0.9671 -0.6796  1.1134
   68CHL1   C22 6194   2.807   1.147   5.565  0.3098  0.2333 -0.3605
   68CHL1  H22A 6195   2.798   1.036   5.569 -2.9984  0.4637  1.3584
   68CHL1  H22B 6196   2.918   1.153   5.558  0.4076 -0.5265  0.2860
   68CHL1   C23 6197   2.754   1.189   5.702 -0.2621 -0.5751 -0.8908
   68CHL1  H23A 6198   2.799   1.288   5.721 -0.1766 -0.5303 -1.3183
   68CHL1  H23B 6199   2.644   1.204   5.705 -0.1724  0.0012 -0.1427
   68CHL1   C24 6200   2.801   1.109   5.829  0.0450 -0.0875 -0.2278
   68CHL1  H24A 6201   2.746   1.015   5.846  1.2803 -0.5359  1.5726
   68CHL1  H24B 6202   2.910   1.093   5.816  0.8133  3.6662  0.4812
   68CHL1   C25 6203   2.796   1.195   5.959  0.3262  0.4525  0.0554
   68CHL1   H25 6204   2.851   1.290   5.945  0.0806  0.5586 -0.1824
   68CHL1   C26 6205   2.654   1.241   5.991 -0.0400 -0.2147  0.4166
   68CHL1  H26A 6206   2.600   1.149   5.960  0.8094 -0.1271 -1.4324
   68CHL1  H26B 6207   2.631   1.267   6.097  0.2291 -2.0174  0.9584
   68CHL1  H26C 6208   2.624   1.333   5.937 -0.9774  0.1669  1.5483
   68CHL1   C27 6209   2.858   1.110   6.067  0.2024  0.5563  0.1070
   68CHL1  H27A 6210   2.968   1.105   6.048 -0.1999 -3.0913 -2.1855
   68CHL1  H27B 6211   2.851   1.155   6.169 -1.9154 -1.7846  1.0856
   68CHL1  H27C 6212   2.818   1.007   6.074 -0.1884  0.6057 -1.1226
   69CHL1    C3 6213   0.066   0.021   4.412 -0.2835  0.2155  0.3013
   69CHL1    H3 6214  -0.007  -0.062   4.399 -2.9156  2.0910  1.9459
   69CHL1    O3 6215   0.074   0.097   4.291  0.7941 -0.4952  0.8898
   69CHL1   H3' 6216   0.058   0.032   4.222  1.6462  1.1506 -0.9680
   69CHL1    C4 6217   0.027   0.117   4.527  0.8376  0.6850  0.2431
   69CHL1   H4A 6218   0.103   0.198   4.524  0.9359  0.6134 -3.1067
   69CHL1   H4B 6219  -0.070   0.163   4.498 -0.1273  0.2114  2.5097
   69CHL1    C5 6220   0.018   0.057   4.665  0.5755  0.0889  0.1816
   69CHL1    C6 6221  -0.083   0.074   4.750 -0.1182  0.5388 -0.3799
   69CHL1    H6 6222  -0.167   0.136   4.717 -0.7956  0.6397  1.4116
   69CHL1    C7 6223  -0.095   0.025   4.893 -0.0158  0.5519  0.2135
   69CHL1   H7A 6224  -0.106   0.103   4.971 -0.4276 -0.9670  1.7461
   69CHL1   H7B 6225  -0.184  -0.041   4.902  0.4927 -0.1496  0.1834
   69CHL1    C8 6226   0.032  -0.043   4.936  0.4297  0.5800  1.0139
   69CHL1    H8 6227   0.109   0.036   4.948  1.1386  0.9930 -4.1127
   69CHL1   C14 6228  -0.011  -0.129   5.060 -0.4162  0.1060 -0.0476
   69CHL1   H14 6229  -0.078  -0.203   5.012  0.2878 -0.4288 -0.2206
   69CHL1   C15 6230  -0.093  -0.065   5.177 -0.4764  0.1057  0.0370
   69CHL1  H15A 6231  -0.050   0.034   5.203  1.8151 -0.0145 -2.7227
   69CHL1  H15B 6232  -0.202  -0.053   5.159 -0.2803  3.8419  0.6291
   69CHL1   C16 6233  -0.067  -0.164   5.292  0.1313  0.1743  0.0174
   69CHL1  H16A 6234  -0.037  -0.105   5.382  1.7700 -0.4803 -0.0650
   69CHL1  H16B 6235  -0.162  -0.215   5.317 -0.1523  0.4162 -0.5504
   69CHL1   C17 6236   0.048  -0.263   5.239  0.6870 -0.7538 -0.4196
   69CHL1   H17 6237  -0.013  -0.342   5.190  1.8272 -2.1776  0.3928
   69CHL1   C13 6238   0.118  -0.189   5.127  0.7632  0.6152  0.6346
   69CHL1   C18 6239   0.210  -0.085   5.183  0.4730 -0.2825  0.9161
   69CHL1  H18A 6240   0.248  -0.018   5.104  1.4289 -2.8485 -0.9118
   69CHL1  H18B 6241   0.155  -0.012   5.247  1.3147  0.1072  1.2110
   69CHL1  H18C 6242   0.304  -0.125   5.226  1.6788 -2.4427 -3.1771
   69CHL1   C12 6243   0.190  -0.277   5.013 -0.2708 -0.2049  0.3843
   69CHL1  H12A 6244   0.281  -0.322   5.058  0.0280 -1.5608 -1.4778
   69CHL1  H12B 6245   0.122  -0.359   4.983 -0.8644 -0.5024  2.4433
   69CHL1   C11 6246   0.228  -0.201   4.886 -0.7728  0.0803 -0.2187
   69CHL1  H11A 6247   0.303  -0.122   4.910  0.7820 -0.9980 -1.2872
   69CHL1  H11B 6248   0.263  -0.267   4.803  0.4834  0.4495 -0.0026
   69CHL1    C9 6249   0.106  -0.125   4.829  0.3752  0.0755  0.4118
   69CHL1    H9 6250   0.035  -0.207   4.807 -1.1004  1.3811  0.0815
   69CHL1   C10 6251   0.139  -0.039   4.705  0.1070 -0.3967  0.3170
   69CHL1   C19 6252   0.256   0.065   4.735 -0.0199 -0.2388 -0.0090
   69CHL1  H19A 6253   0.354   0.013   4.734  1.8999  3.0016  2.0150
   69CHL1  H19B 6254   0.267   0.151   4.667  1.4172  0.3519  0.9231
   69CHL1  H19C 6255   0.255   0.103   4.840 -1.4886 -1.1122  0.3372
   69CHL1    C1 6256   0.177  -0.136   4.582 -0.8028 -0.8642 -0.3285
   69CHL1   H1A 6257   0.278  -0.177   4.604 -0.1987  1.5685  2.1860
   69CHL1   H1B 6258   0.110  -0.223   4.569  0.8815 -2.1163 -0.8774
   69CHL1    C2 6259   0.194  -0.055   4.452  0.3224  0.1883 -0.1844
   69CHL1   H2A 6260   0.226  -0.128   4.374 -1.0405 -1.3275  0.6349
   69CHL1   H2B 6261   0.273   0.022   4.469  1.1739 -0.3686 -1.4251
   69CHL1   C20 6262   0.126  -0.325   5.361  0.2634 -0.3088 -0.2548
   69CHL1   H20 6263   0.182  -0.239   5.405  0.3575 -0.3026 -0.3872
   69CHL1   C21 6264   0.235  -0.431   5.320 -0.4903  0.9111 -1.2257
   69CHL1  H21A 6265   0.190  -0.503   5.248  0.6805  0.2873 -1.3551
   69CHL1  H21B 6266   0.280  -0.494   5.400 -3.2158  0.3699  0.0271
   69CHL1  H21C 6267   0.312  -0.372   5.267  0.3777 -0.1528 -1.1979
   69CHL1   C22 6268   0.040  -0.382   5.471  0.3096  0.0028 -0.3178
   69CHL1  H22A 6269  -0.064  -0.342   5.478  0.3706  0.0131  0.7899
   69CHL1  H22B 6270   0.021  -0.484   5.432 -0.6052  1.2479 -3.4049
   69CHL1   C23 6271   0.102  -0.386   5.613  0.0583  0.1870  0.7945
   69CHL1  H23A 6272   0.195  -0.446   5.604 -0.6822 -0.6917 -2.3260
   69CHL1  H23B 6273   0.128  -0.284   5.647 -0.2545  0.2292  0.9106
   69CHL1   C24 6274   0.009  -0.453   5.723 -0.0058  0.3631 -0.3831
   69CHL1  H24A 6275  -0.067  -0.376   5.751  1.9888  1.9872  0.8208
   69CHL1  H24B 6276  -0.033  -0.544   5.675  1.4782 -1.2821  1.3010
   69CHL1   C25 6277   0.095  -0.495   5.845  0.0517 -0.4877  0.4613
   69CHL1   H25 6278   0.170  -0.568   5.807 -0.7719 -0.7277 -0.7597
   69CHL1   C26 6279   0.172  -0.375   5.905 -0.4121  0.2357  0.1440
   69CHL1  H26A 6280   0.228  -0.411   5.994  3.5855 -2.0162 -2.9092
   69CHL1  H26B 6281   0.252  -0.352   5.831 -0.5504 -0.8587 -0.3740
   69CHL1  H26C 6282   0.107  -0.285   5.906  1.8593  1.9801 -0.1814
   69CHL1   C27 6283  -0.001  -0.572   5.942  0.0951  0.3426  0.3774
   69CHL1  H27A 6284  -0.061  -0.651   5.891 -1.2977  1.2001  0.6165
   69CHL1  H27B 6285   0.050  -0.631   6.021 -0.4554 -1.2122 -0.3914
   69CHL1  H27C 6286  -0.066  -0.494   5.988  1.2049  1.1856  0.5636
   70CHL1    C3 6287   2.344   2.010   4.335  0.8394 -0.4457 -0.1696
   70CHL1    H3 6288   2.341   1.899   4.342 -1.3294 -0.6282 -2.5707
   70CHL1    O3 6289   2.317   2.043   4.201  0.4047 -0.1987 -0.7788
   70CHL1   H3' 6290   2.326   2.138   4.195 -2.4826  0.2449  0.1626
   70CHL1    C4 6291   2.231   2.058   4.429 -0.0180 -0.5982  0.2649
   70CHL1   H4A 6292   2.194   2.161   4.410 -1.1764 -0.9534  0.4665
   70CHL1   H4B 6293   2.135   2.007   4.405 -0.0430 -0.9415  1.0422
   70CHL1    C5 6294   2.263   2.052   4.577  0.2174  0.6935  0.1697
   70CHL1    C6 6295   2.193   1.986   4.672 -0.3298  0.0292  0.0899
   70CHL1    H6 6296   2.099   1.942   4.634  0.0781  0.3664 -1.3602
   70CHL1    C7 6297   2.215   1.987   4.820 -0.0641 -0.0892  0.0339
   70CHL1   H7A 6298   2.118   2.006   4.869  0.7168 -1.2486  2.1710
   70CHL1   H7B 6299   2.234   1.884   4.857  2.7046  0.9199  1.7187
   70CHL1    C8 6300   2.329   2.084   4.855  1.0891  0.5290  0.2536
   70CHL1    H8 6301   2.288   2.187   4.859 -1.2497 -0.3755  1.6889
   70CHL1   C14 6302   2.372   2.039   4.991  0.7511 -0.7670 -0.1859
   70CHL1   H14 6303   2.421   1.940   4.976  2.4950  0.3199 -2.1831
   70CHL1   C15 6304   2.269   2.015   5.102  0.6112 -0.5011  0.1270
   70CHL1  H15A 6305   2.192   2.093   5.088  0.0482 -0.8546  1.1146
   70CHL1  H15B 6306   2.218   1.918   5.080 -3.3403  1.4415 -0.1774
   70CHL1   C16 6307   2.337   2.025   5.238 -0.5271 -0.1936  0.0104
   70CHL1  H16A 6308   2.288   2.100   5.304 -3.1431 -0.8633 -1.0582
   70CHL1  H16B 6309   2.351   1.929   5.292  0.9456  0.9220  1.7225
   70CHL1   C17 6310   2.483   2.073   5.202 -0.1314 -0.9215  0.5026
   70CHL1   H17 6311   2.548   1.984   5.186  1.7801  0.5226 -0.1875
   70CHL1   C13 6312   2.467   2.134   5.058 -0.3960  0.3252 -0.0924
   70CHL1   C18 6313   2.418   2.281   5.071  0.3474  0.4334  0.1974
   70CHL1  H18A 6314   2.497   2.346   5.114  1.9389 -0.6627 -0.9304
   70CHL1  H18B 6315   2.383   2.332   4.979 -2.8242 -0.1432  0.9697
   70CHL1  H18C 6316   2.340   2.273   5.149  2.6985 -0.8695  2.5912
   70CHL1   C12 6317   2.594   2.134   4.959 -0.2096 -0.2339  0.1094
   70CHL1  H12A 6318   2.673   2.207   4.990  0.8171 -0.1822 -2.3897
   70CHL1  H12B 6319   2.641   2.034   4.966  1.7545  0.5983 -0.4829
   70CHL1   C11 6320   2.555   2.161   4.816  0.3521  0.8447  0.2897
   70CHL1  H11A 6321   2.525   2.267   4.804 -0.6555  0.3528 -2.3048
   70CHL1  H11B 6322   2.645   2.148   4.752 -1.4087  0.8352 -2.3432
   70CHL1    C9 6323   2.441   2.078   4.760  0.4350  0.0637  0.2389
   70CHL1    H9 6324   2.471   1.971   4.759 -2.1329 -0.7163 -0.2537
   70CHL1   C10 6325   2.397   2.112   4.617 -0.6223  0.6530  0.3287
   70CHL1   C19 6326   2.366   2.267   4.611 -0.3528  0.1946 -0.6421
   70CHL1  H19A 6327   2.299   2.305   4.530 -1.2622 -0.7174 -0.3295
   70CHL1  H19B 6328   2.319   2.303   4.705  1.2895  1.4818 -0.2646
   70CHL1  H19C 6329   2.461   2.324   4.613 -0.6008  0.5913  1.0293
   70CHL1    C1 6330   2.512   2.077   4.524  0.0989 -0.0265 -0.1073
   70CHL1   H1A 6331   2.604   2.136   4.544  0.5445 -1.0024  0.8493
   70CHL1   H1B 6332   2.544   1.975   4.555  0.0601  0.1952  0.7081
   70CHL1    C2 6333   2.478   2.081   4.375  0.1737  0.5607 -0.5485
   70CHL1   H2A 6334   2.563   2.025   4.331  0.4620 -1.1226  1.9470
   70CHL1   H2B 6335   2.474   2.189   4.349 -2.1857  0.6275 -0.1027
   70CHL1   C20 6336   2.554   2.145   5.319  0.0413  0.5027 -0.3340
   70CHL1   H20 6337   2.492   2.236   5.335 -0.0419  0.0858  2.0548
   70CHL1   C21 6338   2.700   2.170   5.285 -0.2930 -0.1106 -0.4685
   70CHL1  H21A 6339   2.752   2.233   5.360 -0.9281  0.3541 -0.4101
   70CHL1  H21B 6340   2.724   2.219   5.188  0.9874  0.8442  0.2889
   70CHL1  H21C 6341   2.756   2.074   5.287  0.7543  0.4394 -1.5867
   70CHL1   C22 6342   2.543   2.072   5.461 -0.8030  0.0396 -0.6308
   70CHL1  H22A 6343   2.437   2.045   5.479 -0.5135 -1.6510 -1.2330
   70CHL1  H22B 6344   2.602   1.978   5.456  0.3264  0.7566 -1.9411
   70CHL1   C23 6345   2.582   2.174   5.568 -0.6077  0.1616  1.3747
   70CHL1  H23A 6346   2.693   2.174   5.569 -0.5326  0.4775 -1.2833
   70CHL1  H23B 6347   2.548   2.274   5.536  1.1344 -0.1498 -1.8681
   70CHL1   C24 6348   2.531   2.133   5.706 -0.0685 -0.6987 -0.6887
   70CHL1  H24A 6349   2.422   2.152   5.716 -0.1269 -1.5067  0.4075
   70CHL1  H24B 6350   2.555   2.027   5.729 -0.2593 -0.1579  2.4720
   70CHL1   C25 6351   2.604   2.221   5.815  0.1984  0.0584 -0.5273
   70CHL1   H25 6352   2.709   2.229   5.782 -0.2485 -1.4473 -2.4706
   70CHL1   C26 6353   2.557   2.365   5.810  0.0029  0.2889  0.4271
   70CHL1  H26A 6354   2.604   2.418   5.896  2.9442 -0.6369 -0.4838
   70CHL1  H26B 6355   2.595   2.426   5.725 -0.6665  1.5579  1.0080
   70CHL1  H26C 6356   2.447   2.360   5.796  0.0707 -0.0610  0.0016
   70CHL1   C27 6357   2.595   2.162   5.955 -0.5231 -0.0662 -0.3704
   70CHL1  H27A 6358   2.493   2.180   5.995 -0.5479  2.9183 -1.5003
   70CHL1  H27B 6359   2.628   2.056   5.958  2.1256  0.6956 -0.0712
   70CHL1  H27C 6360   2.671   2.219   6.013  2.7491 -0.4262 -3.8919
   71CHL1    C3 6361   5.671   0.813   4.360 -0.5396 -0.1431 -0.4236
   71CHL1    H3 6362   5.694   0.704   4.355  1.8136  0.3303 -1.2067
   71CHL1    O3 6363   5.621   0.854   4.236 -0.0383  0.2087  0.1662
   71CHL1   H3' 6364   5.677   0.816   4.167 -1.6532 -0.5666 -0.7656
   71CHL1    C4 6365   5.566   0.842   4.468 -0.2016  0.2377  1.3082
   71CHL1   H4A 6366   5.524   0.945   4.466 -1.8315 -0.3975 -0.7019
   71CHL1   H4B 6367   5.477   0.779   4.446  1.3940 -2.4176  2.0046
   71CHL1    C5 6368   5.630   0.800   4.600 -0.4781  0.5501 -0.6549
   71CHL1    C6 6369   5.561   0.708   4.678 -0.5612 -0.6933  0.8716
   71CHL1    H6 6370   5.454   0.691   4.657 -1.0531 -0.2143  2.7835
   71CHL1    C7 6371   5.610   0.667   4.811  0.2317  0.0974  0.2447
   71CHL1   H7A 6372   5.525   0.671   4.883 -1.0015 -0.9110 -1.1088
   71CHL1   H7B 6373   5.647   0.562   4.815  0.5794  0.2422  1.1569
   71CHL1    C8 6374   5.723   0.762   4.865  0.4264  0.3364  0.0358
   71CHL1    H8 6375   5.684   0.859   4.904  1.7835  0.7709  0.3865
   71CHL1   C14 6376   5.796   0.682   4.979  0.8121 -0.2814  1.1841
   71CHL1   H14 6377   5.830   0.586   4.936 -3.1547 -0.5067 -2.0993
   71CHL1   C15 6378   5.713   0.641   5.099 -0.1328  0.2261 -0.2380
   71CHL1  H15A 6379   5.661   0.730   5.141  0.3350  1.5968 -2.4237
   71CHL1  H15B 6380   5.638   0.561   5.082  1.2678 -1.2901  0.3952
   71CHL1   C16 6381   5.819   0.613   5.212  0.0005  0.0375 -0.4613
   71CHL1  H16A 6382   5.779   0.652   5.308 -0.0322  0.4624 -0.6457
   71CHL1  H16B 6383   5.830   0.503   5.211  0.9655  0.0614  2.0570
   71CHL1   C17 6384   5.960   0.662   5.155  0.4534  0.1616  0.0783
   71CHL1   H17 6385   6.007   0.570   5.113 -1.3678 -0.7133 -0.1227
   71CHL1   C13 6386   5.922   0.753   5.038  0.7982 -0.7343 -0.6341
   71CHL1   C18 6387   5.878   0.889   5.098  0.6070  0.1701 -0.1233
   71CHL1  H18A 6388   5.850   0.961   5.018  0.4338 -0.7525 -0.9106
   71CHL1  H18B 6389   5.803   0.876   5.180  1.5450 -2.0688  0.4405
   71CHL1  H18C 6390   5.965   0.932   5.152  2.9231 -0.3175 -3.2413
   71CHL1   C12 6391   6.025   0.778   4.929 -0.7913  0.1250  0.0449
   71CHL1  H12A 6392   6.113   0.834   4.968 -0.7248  0.4222 -0.5239
   71CHL1  H12B 6393   6.067   0.682   4.893 -0.1539  0.7398 -0.8957
   71CHL1   C11 6394   5.966   0.853   4.803  0.3574  0.1779 -0.1168
   71CHL1  H11A 6395   5.952   0.958   4.836 -2.7972 -0.1364 -0.1123
   71CHL1  H11B 6396   6.042   0.852   4.722  1.3506  1.5723  0.7479
   71CHL1    C9 6397   5.831   0.789   4.751 -0.1292 -0.0990 -0.7503
   71CHL1    H9 6398   5.862   0.690   4.711  2.1724  0.3472 -0.2249
   71CHL1   C10 6399   5.771   0.857   4.629 -0.4353  0.5304 -0.5626
   71CHL1   C19 6400   5.757   1.001   4.652 -0.7705 -0.5372 -0.5186
   71CHL1  H19A 6401   5.859   1.045   4.657 -0.4572 -1.2561  4.9399
   71CHL1  H19B 6402   5.701   1.067   4.582 -1.8373 -0.2315  0.5961
   71CHL1  H19C 6403   5.709   1.014   4.751  0.0095 -0.0357 -0.2016
   71CHL1    C1 6404   5.873   0.828   4.515  0.4009  0.2569  0.2508
   71CHL1   H1A 6405   5.967   0.885   4.530 -0.6904  2.1426  0.2497
   71CHL1   H1B 6406   5.888   0.718   4.508 -0.2832  0.1623  0.2409
   71CHL1    C2 6407   5.815   0.877   4.385  0.8109 -0.2751  0.4820
   71CHL1   H2A 6408   5.886   0.861   4.301  0.7571 -1.4524  0.6468
   71CHL1   H2B 6409   5.807   0.988   4.391  1.4618 -0.1577 -0.4977
   71CHL1   C20 6410   6.062   0.709   5.262  0.3543  0.4383 -0.5399
   71CHL1   H20 6411   6.126   0.794   5.229  0.2391  0.9241  0.4544
   71CHL1   C21 6412   6.143   0.584   5.300 -0.0691 -0.0721 -0.1246
   71CHL1  H21A 6413   6.083   0.510   5.357  1.1557 -0.9783  0.0072
   71CHL1  H21B 6414   6.224   0.627   5.362 -1.7368  3.1324  0.0518
   71CHL1  H21C 6415   6.179   0.537   5.206 -0.3555  1.4793 -1.0386
   71CHL1   C22 6416   5.997   0.770   5.392  0.8574 -0.5979 -0.8975
   71CHL1  H22A 6417   5.921   0.844   5.361  1.1658  0.1730  0.1403
   71CHL1  H22B 6418   5.928   0.700   5.444  0.7727 -0.4947 -0.8709
   71CHL1   C23 6419   6.095   0.845   5.487 -0.3706 -0.4259 -0.6629
   71CHL1  H23A 6420   6.171   0.775   5.528 -0.1848 -0.4514 -1.0499
   71CHL1  H23B 6421   6.161   0.912   5.430  0.9119  0.3224  1.5818
   71CHL1   C24 6422   6.021   0.913   5.601  0.1676  0.3841  0.1507
   71CHL1  H24A 6423   5.946   0.985   5.564 -0.5282  0.5305  1.7478
   71CHL1  H24B 6424   5.960   0.841   5.660  0.3065  2.1699  2.6464
   71CHL1   C25 6425   6.113   0.960   5.716 -0.2384  0.3275  0.3214
   71CHL1   H25 6426   6.212   0.989   5.675 -0.1494  0.2540  0.4846
   71CHL1   C26 6427   6.054   1.072   5.798  1.0581 -0.0947 -0.2087
   71CHL1  H26A 6428   6.123   1.097   5.882 -1.8159 -0.5004  2.4447
   71CHL1  H26B 6429   6.035   1.159   5.732 -1.7273 -1.1833 -0.9599
   71CHL1  H26C 6430   5.970   1.030   5.857  0.6037  0.8751 -0.1417
   71CHL1   C27 6431   6.149   0.839   5.810  0.6562  0.3938 -0.8442
   71CHL1  H27A 6432   6.208   0.759   5.760  0.8846 -0.0521  0.1019
   71CHL1  H27B 6433   6.211   0.862   5.899 -2.0948  0.5259  1.1603
   71CHL1  H27C 6434   6.050   0.796   5.839  2.2260 -3.2472 -0.2403
   72CHL1    C3 6435   5.061   1.608   4.167  0.0313 -0.1503  0.1564
   72CHL1    H3 6436   4.962   1.563   4.190 -0.0157  0.6593  1.6109
   72CHL1    O3 6437   5.064   1.621   4.026  0.0262  0.7518 -0.0361
   72CHL1   H3' 6438   5.154   1.649   4.007 -0.2283  1.3281 -0.4283
   72CHL1    C4 6439   5.078   1.739   4.251  0.4797  0.1905 -0.1672
   72CHL1   H4A 6440   5.182   1.778   4.240  1.1086 -1.0738  0.9709
   72CHL1   H4B 6441   5.008   1.817   4.214  2.0066  1.0304 -1.4745
   72CHL1    C5 6442   5.052   1.711   4.397 -0.7587  0.4557 -0.0435
   72CHL1    C6 6443   4.955   1.772   4.470  0.5579  0.1533 -0.2750
   72CHL1    H6 6444   4.896   1.850   4.420  0.5001  0.1557 -0.2034
   72CHL1    C7 6445   4.931   1.749   4.620 -0.4177 -0.3663  0.0609
   72CHL1   H7A 6446   4.917   1.845   4.675 -0.0262 -0.0634 -0.3507
   72CHL1   H7B 6447   4.846   1.680   4.634  0.0992 -1.4063 -1.6096
   72CHL1    C8 6448   5.050   1.670   4.686 -0.3358  0.4107  0.0624
   72CHL1    H8 6449   5.135   1.741   4.687  1.2961 -1.4673 -0.2145
   72CHL1   C14 6450   5.014   1.628   4.827 -0.0140 -0.2821 -0.1902
   72CHL1   H14 6451   4.936   1.549   4.814 -0.9505  0.4581  0.7239
   72CHL1   C15 6452   4.958   1.729   4.927  0.2460  0.0151  0.7876
   72CHL1  H15A 6453   4.989   1.834   4.912  0.7346  0.1180  2.3513
   72CHL1  H15B 6454   4.847   1.723   4.918  0.1577  0.0907  1.6863
   72CHL1   C16 6455   5.000   1.677   5.071  0.1016  0.3781  0.1073
   72CHL1  H16A 6456   5.071   1.758   5.097  0.8166 -0.0455 -0.5105
   72CHL1  H16B 6457   4.922   1.678   5.150  0.4274  5.2151  0.7075
   72CHL1   C17 6458   5.072   1.546   5.052 -0.4878  0.8507 -0.1388
   72CHL1   H17 6459   4.994   1.467   5.048 -0.5500  0.9570 -1.5132
   72CHL1   C13 6460   5.128   1.558   4.907  0.5462 -0.0047 -0.3125
   72CHL1   C18 6461   5.249   1.655   4.914  0.1129  0.3964  0.2784
   72CHL1  H18A 6462   5.323   1.605   4.980 -1.5376 -1.0368  1.1073
   72CHL1  H18B 6463   5.290   1.678   4.813  0.9342 -0.5656  0.3781
   72CHL1  H18C 6464   5.222   1.754   4.957 -1.6434 -0.0891  0.3498
   72CHL1   C12 6465   5.157   1.429   4.833  0.4076 -0.2684 -0.1512
   72CHL1  H12A 6466   5.235   1.362   4.876  0.2929 -0.9045 -0.9038
   72CHL1  H12B 6467   5.066   1.366   4.824  1.3248 -1.4266 -2.0809
   72CHL1   C11 6468   5.201   1.455   4.686 -0.1521  0.6404 -0.5460
   72CHL1  H11A 6469   5.295   1.514   4.680  0.2396  0.4958  2.5492
   72CHL1  H11B 6470   5.219   1.357   4.638 -0.1389  1.2779 -1.8884
   72CHL1    C9 6471   5.094   1.543   4.605 -0.3361  0.1516 -0.1738
   72CHL1    H9 6472   5.010   1.473   4.586 -1.4893  1.6805 -0.8989
   72CHL1   C10 6473   5.137   1.589   4.459  0.4631  0.0091 -0.6591
   72CHL1   C19 6474   5.279   1.661   4.466  0.4022  0.3054 -0.5464
   72CHL1  H19A 6475   5.277   1.751   4.532  1.7784  0.6172 -0.8972
   72CHL1  H19B 6476   5.356   1.592   4.506 -0.3797  0.7029  1.8298
   72CHL1  H19C 6477   5.321   1.690   4.367  2.1119 -0.0703  0.0398
   72CHL1    C1 6478   5.138   1.473   4.363  0.5902  0.1779  0.3314
   72CHL1   H1A 6479   5.221   1.408   4.398  0.5081  0.0632  0.3142
   72CHL1   H1B 6480   5.037   1.428   4.375  0.4994 -0.1002 -1.2315
   72CHL1    C2 6481   5.170   1.512   4.218  0.6422  0.2296  0.2293
   72CHL1   H2A 6482   5.182   1.432   4.141  0.2361  1.8515 -1.6107
   72CHL1   H2B 6483   5.267   1.565   4.220  1.8101 -1.7748  2.3017
   72CHL1   C20 6484   5.178   1.511   5.165  0.3961 -0.6014 -0.5676
   72CHL1   H20 6485   5.260   1.447   5.126  1.1096 -0.8667  1.3069
   72CHL1   C21 6486   5.108   1.415   5.261  0.3274 -0.4988  0.1137
   72CHL1  H21A 6487   5.067   1.324   5.211  3.6083 -0.5086 -2.9641
   72CHL1  H21B 6488   5.022   1.470   5.306  0.1421 -0.7340  0.0526
   72CHL1  H21C 6489   5.175   1.388   5.345 -1.0609  0.1752  1.4855
   72CHL1   C22 6490   5.245   1.628   5.252 -0.4632 -0.2227 -0.8171
   72CHL1  H22A 6491   5.263   1.714   5.184  1.7470  1.2058  1.4115
   72CHL1  H22B 6492   5.173   1.673   5.324  0.1990 -0.7118  0.1696
   72CHL1   C23 6493   5.383   1.595   5.317 -0.2681  0.1255  0.0621
   72CHL1  H23A 6494   5.369   1.520   5.397  1.2528  1.4171  1.6379
   72CHL1  H23B 6495   5.447   1.562   5.233  0.1105  0.2984  0.2796
   72CHL1   C24 6496   5.454   1.720   5.372  0.3807 -0.5251  0.1450
   72CHL1  H24A 6497   5.479   1.788   5.288 -2.9237  1.6128  0.7250
   72CHL1  H24B 6498   5.383   1.775   5.438  1.3107  0.4866  0.3365
   72CHL1   C25 6499   5.576   1.687   5.462  0.5978 -0.6054 -0.5486
   72CHL1   H25 6500   5.659   1.639   5.405  0.3351 -0.1424 -1.3388
   72CHL1   C26 6501   5.634   1.823   5.509  0.0693  0.0173  0.5158
   72CHL1  H26A 6502   5.549   1.892   5.530 -1.9050 -1.6450 -1.5443
   72CHL1  H26B 6503   5.705   1.801   5.592  0.7290 -1.9554 -0.5117
   72CHL1  H26C 6504   5.685   1.873   5.424  0.7033  0.1135  0.9459
   72CHL1   C27 6505   5.533   1.607   5.589 -0.5068  0.5094  1.3174
   72CHL1  H27A 6506   5.437   1.642   5.631 -0.5830  2.8870 -0.6296
   72CHL1  H27B 6507   5.535   1.497   5.574  2.5815  0.8015 -1.4415
   72CHL1  H27C 6508   5.613   1.617   5.666 -0.6364  0.9356  1.3996
   73CHL1    C3 6509   1.646   0.564   4.755 -0.1719  0.4013 -0.6218
   73CHL1    H3 6510   1.661   0.673   4.748 -0.0693  0.4236 -0.0422
   73CHL1    O3 6511   1.611   0.512   4.625  0.0434 -0.1692  0.6413
   73CHL1   H3' 6512   1.583   0.420   4.629  0.6346 -0.3104  2.1301
   73CHL1    C4 6513   1.781   0.495   4.801 -0.0736  0.8746  0.1552
   73CHL1   H4A 6514   1.761   0.387   4.783 -1.0440  1.3213 -1.6937
   73CHL1   H4B 6515   1.854   0.530   4.725  0.0319 -0.2972 -0.3144
   73CHL1    C5 6516   1.811   0.533   4.941  0.0040 -1.1137 -0.0339
   73CHL1    C6 6517   1.930   0.591   4.975  0.1703 -0.2043 -0.1424
   73CHL1    H6 6518   2.003   0.602   4.893 -2.5902 -0.6118 -2.7957
   73CHL1    C7 6519   1.964   0.629   5.110 -0.7004 -0.0213  0.0304
   73CHL1   H7A 6520   2.072   0.608   5.123 -0.6373 -0.3240 -0.8959
   73CHL1   H7B 6521   1.948   0.737   5.134  1.6609  0.7284 -1.4077
   73CHL1    C8 6522   1.884   0.546   5.212  0.4270 -0.3501  1.0385
   73CHL1    H8 6523   1.899   0.436   5.215  0.8652 -0.3497 -0.2586
   73CHL1   C14 6524   1.909   0.604   5.346 -0.2717  0.1291 -0.1653
   73CHL1   H14 6525   1.878   0.711   5.338  1.3767  0.6074 -0.3787
   73CHL1   C15 6526   2.052   0.600   5.401 -0.8030  0.3311 -0.0234
   73CHL1  H15A 6527   2.094   0.498   5.397  2.5644  1.5025  1.6996
   73CHL1  H15B 6528   2.130   0.653   5.343 -0.9005 -2.3617 -2.8637
   73CHL1   C16 6529   2.039   0.639   5.552  0.1856 -0.2265  0.4064
   73CHL1  H16A 6530   2.095   0.561   5.609 -0.0377 -0.0467  0.8752
   73CHL1  H16B 6531   2.069   0.743   5.574 -1.2342  0.2807  0.0142
   73CHL1   C17 6532   1.889   0.638   5.581  0.4936 -0.3447 -0.2599
   73CHL1   H17 6533   1.868   0.746   5.565  1.6560  0.1289  1.1579
   73CHL1   C13 6534   1.822   0.561   5.465 -0.7397 -0.6058  0.3815
   73CHL1   C18 6535   1.852   0.411   5.489  0.0410 -0.2722  0.0901
   73CHL1  H18A 6536   1.787   0.371   5.571 -1.0451 -1.7014 -1.4062
   73CHL1  H18B 6537   1.839   0.357   5.393  0.5869  0.1426 -0.2255
   73CHL1  H18C 6538   1.952   0.381   5.525 -0.0681  0.0965  0.7241
   73CHL1   C12 6539   1.678   0.581   5.440  0.5106 -0.9355 -0.5095
   73CHL1  H12A 6540   1.620   0.539   5.525  0.9048  0.7441  0.6528
   73CHL1  H12B 6541   1.656   0.690   5.440 -0.3994 -1.1104 -0.2203
   73CHL1   C11 6542   1.641   0.533   5.295  0.3604 -0.5155  0.0699
   73CHL1  H11A 6543   1.634   0.423   5.311 -3.0600 -0.3639  0.4483
   73CHL1  H11B 6544   1.534   0.552   5.274 -0.6549 -0.5841  4.2051
   73CHL1    C9 6545   1.737   0.571   5.182  0.8117 -0.1290  0.1518
   73CHL1    H9 6546   1.723   0.680   5.169 -1.8096 -0.5342 -1.1888
   73CHL1   C10 6547   1.703   0.511   5.050 -0.5759  0.0882 -0.1959
   73CHL1   C19 6548   1.683   0.361   5.066  0.0871  0.3405 -0.7620
   73CHL1  H19A 6549   1.678   0.315   4.965  1.7710  1.3354 -1.3467
   73CHL1  H19B 6550   1.756   0.306   5.129 -1.1279  0.0796  0.4668
   73CHL1  H19C 6551   1.588   0.344   5.121  1.1100 -2.1081  0.4160
   73CHL1    C1 6552   1.576   0.567   4.990 -0.4469 -1.2019  0.3659
   73CHL1   H1A 6553   1.489   0.554   5.058 -2.0163  2.4381 -0.6952
   73CHL1   H1B 6554   1.584   0.678   4.992 -1.7405 -1.0883  0.5799
   73CHL1    C2 6555   1.534   0.524   4.850  0.5823 -0.1242  1.1418
   73CHL1   H2A 6556   1.441   0.576   4.817 -0.1461 -2.4546 -0.7258
   73CHL1   H2B 6557   1.521   0.414   4.842 -1.0249  0.1167  0.0625
   73CHL1   C20 6558   1.840   0.606   5.726 -0.1044 -0.3868 -0.4635
   73CHL1   H20 6559   1.834   0.495   5.729 -0.6821 -0.3830 -1.2143
   73CHL1   C21 6560   1.714   0.680   5.758 -0.3861 -0.4040  0.3268
   73CHL1  H21A 6561   1.644   0.669   5.673 -0.9663 -0.1349  0.7668
   73CHL1  H21B 6562   1.720   0.791   5.766 -0.5020 -0.3301 -0.5536
   73CHL1  H21C 6563   1.663   0.648   5.852 -0.2945 -0.4050  0.3763
   73CHL1   C22 6564   1.950   0.662   5.826 -0.1851 -0.2161 -0.1246
   73CHL1  H22A 6565   2.047   0.610   5.807 -0.2111  0.2249 -1.5427
   73CHL1  H22B 6566   1.973   0.769   5.807  0.5263  0.7139  4.6489
   73CHL1   C23 6567   1.921   0.651   5.984 -0.1309 -0.2777 -0.2116
   73CHL1  H23A 6568   1.820   0.692   6.001 -0.8749 -2.1241  0.0689
   73CHL1  H23B 6569   1.908   0.545   6.016 -1.6248  0.2816  1.1319
   73CHL1   C24 6570   2.029   0.721   6.070  0.5826 -0.2664 -0.0786
   73CHL1  H24A 6571   2.128   0.680   6.043  0.8223  1.2918 -1.7174
   73CHL1  H24B 6572   2.024   0.827   6.037 -4.8688 -0.7146 -1.6288
   73CHL1   C25 6573   1.989   0.727   6.218 -0.4818 -0.6696  0.0726
   73CHL1   H25 6574   1.887   0.770   6.229  0.5262  1.5870  1.2904
   73CHL1   C26 6575   1.988   0.591   6.289  0.4513  0.4477 -0.1892
   73CHL1  H26A 6576   2.093   0.554   6.300 -0.3573 -2.3273 -1.0519
   73CHL1  H26B 6577   1.945   0.601   6.390 -1.1100 -0.6670 -0.7068
   73CHL1  H26C 6578   1.928   0.515   6.235  1.1776 -0.8313  0.7511
   73CHL1   C27 6579   2.082   0.812   6.295 -0.1859  0.0112 -0.0268
   73CHL1  H27A 6580   2.187   0.776   6.304  0.0543  1.0888  2.2608
   73CHL1  H27B 6581   2.076   0.918   6.260  0.8419  0.0688 -0.0528
   73CHL1  H27C 6582   2.058   0.811   6.403 -0.1176  0.5778 -0.0017
   74CHL1    C3 6583   4.906   4.142   4.133 -0.0910 -0.3527 -0.9553
   74CHL1    H3 6584   4.998   4.205   4.128  0.0929 -0.0906  2.6865
   74CHL1    O3 6585   4.860   4.119   4.004 -0.1683 -0.1127  0.4706
   74CHL1   H3' 6586   4.766   4.100   3.996 -0.0301 -0.7811  0.4221
   74CHL1    C4 6587   4.934   4.006   4.211  0.3477 -0.2273 -0.5048
   74CHL1   H4A 6588   4.841   3.947   4.220 -0.0008  0.4180  0.2807
   74CHL1   H4B 6589   5.009   3.959   4.145 -0.9896 -1.5265 -1.1444
   74CHL1    C5 6590   4.986   4.041   4.353 -0.1160  0.0018 -0.2551
   74CHL1    C6 6591   5.097   3.980   4.399 -0.1675 -0.4767 -0.2849
   74CHL1    H6 6592   5.138   3.903   4.333 -0.8512  1.0731 -2.6214
   74CHL1    C7 6593   5.149   3.993   4.540 -0.8968  0.0580 -1.2211
   74CHL1   H7A 6594   5.170   3.896   4.591 -1.1664 -0.1438 -1.4858
   74CHL1   H7B 6595   5.238   4.059   4.550  0.3320 -1.5913 -0.8425
   74CHL1    C8 6596   5.044   4.056   4.631 -0.4511  1.1591  0.3132
   74CHL1    H8 6597   4.962   3.982   4.637  0.2543  0.2447 -0.8307
   74CHL1   C14 6598   5.093   4.085   4.767  0.8400  0.3214 -0.7441
   74CHL1   H14 6599   5.179   4.154   4.752  1.3062  0.1020  0.7738
   74CHL1   C15 6600   5.153   3.964   4.843  0.3308  0.6356  1.0938
   74CHL1  H15A 6601   5.090   3.873   4.831  0.4122  0.5581  1.2454
   74CHL1  H15B 6602   5.254   3.927   4.817  0.2573  1.3931 -0.3564
   74CHL1   C16 6603   5.151   4.015   4.984 -0.6184  0.3269  0.1094
   74CHL1  H16A 6604   5.096   3.943   5.048  0.2725  1.4381  2.2354
   74CHL1  H16B 6605   5.254   4.020   5.027  0.2242 -1.1409 -1.6186
   74CHL1   C17 6606   5.092   4.159   4.986 -0.4137  0.2676  0.3620
   74CHL1   H17 6607   5.169   4.234   4.960  0.9247 -0.3774  2.1792
   74CHL1   C13 6608   4.998   4.157   4.856 -0.6028 -0.2095  0.5628
   74CHL1   C18 6609   4.874   4.079   4.885 -0.3416 -0.1281 -0.3280
   74CHL1  H18A 6610   4.814   4.118   4.969  1.6419  0.0700  1.0741
   74CHL1  H18B 6611   4.804   4.062   4.800 -2.1060 -0.3532  1.1041
   74CHL1  H18C 6612   4.908   3.977   4.914 -0.8625 -0.4618 -0.8660
   74CHL1   C12 6613   4.982   4.296   4.793 -0.3660 -1.0423 -0.0938
   74CHL1  H12A 6614   4.920   4.367   4.852  0.3591 -0.1385 -0.3882
   74CHL1  H12B 6615   5.079   4.350   4.785 -0.0370 -1.8335 -1.8467
   74CHL1   C11 6616   4.911   4.285   4.657  0.0230 -0.5930 -0.0644
   74CHL1  H11A 6617   4.811   4.240   4.678  0.6718 -2.4780 -0.8078
   74CHL1  H11B 6618   4.912   4.385   4.609  1.8705 -0.1304  0.8554
   74CHL1    C9 6619   4.980   4.179   4.564 -0.0599 -0.5156  0.1006
   74CHL1    H9 6620   5.072   4.229   4.527  1.5444 -2.6890  0.9992
   74CHL1   C10 6621   4.899   4.146   4.432 -0.4431  0.1920 -0.1768
   74CHL1   C19 6622   4.774   4.072   4.465 -0.1801  0.4090  0.7976
   74CHL1  H19A 6623   4.710   4.128   4.536  0.1323  2.0952 -0.1852
   74CHL1  H19B 6624   4.701   4.058   4.383  1.6282 -1.8843 -0.5718
   74CHL1  H19C 6625   4.805   3.973   4.506  1.5295  0.3696 -0.4664
   74CHL1    C1 6626   4.868   4.279   4.350  0.7063 -0.1851  0.4403
   74CHL1   H1A 6627   4.787   4.323   4.412  0.2721  1.0167 -0.9353
   74CHL1   H1B 6628   4.956   4.347   4.343 -1.9805  3.5174 -0.2474
   74CHL1    C2 6629   4.810   4.244   4.209  0.6963 -0.5922  0.0577
   74CHL1   H2A 6630   4.806   4.343   4.159  0.3858  0.0860  1.3957
   74CHL1   H2B 6631   4.709   4.198   4.206  0.2620  0.3745 -1.3793
   74CHL1   C20 6632   5.022   4.190   5.121 -0.0960 -0.0930 -0.3878
   74CHL1   H20 6633   4.958   4.104   5.151 -0.0702 -0.2702 -0.8383
   74CHL1   C21 6634   4.947   4.329   5.129 -0.1813 -0.1120  0.3442
   74CHL1  H21A 6635   5.011   4.414   5.098 -1.0528  1.1706  1.8699
   74CHL1  H21B 6636   4.917   4.345   5.235 -0.3320  0.6799  0.1890
   74CHL1  H21C 6637   4.852   4.317   5.073 -0.6955 -1.8314  1.5037
   74CHL1   C22 6638   5.144   4.193   5.225  0.3692 -0.4064  0.2991
   74CHL1  H22A 6639   5.201   4.097   5.225  0.2010 -0.5810 -2.3913
   74CHL1  H22B 6640   5.219   4.270   5.197  0.4463 -0.5130  0.2096
   74CHL1   C23 6641   5.099   4.222   5.367  0.1832 -0.1861 -1.1616
   74CHL1  H23A 6642   5.074   4.330   5.377  0.9427 -0.1084  0.1469
   74CHL1  H23B 6643   5.011   4.156   5.380 -0.2895  0.4605 -1.0329
   74CHL1   C24 6644   5.216   4.196   5.471 -0.3640  0.1021  0.2441
   74CHL1  H24A 6645   5.181   4.205   5.577 -0.6939 -0.8886  0.2399
   74CHL1  H24B 6646   5.241   4.087   5.467 -1.0644 -0.1836  2.1803
   74CHL1   C25 6647   5.338   4.281   5.450  0.4243 -0.4574  0.3156
   74CHL1   H25 6648   5.330   4.331   5.351  0.9729 -0.2164  0.3855
   74CHL1   C26 6649   5.343   4.397   5.553 -0.2721 -0.7524  0.6546
   74CHL1  H26A 6650   5.411   4.482   5.528  1.3379 -1.9376  0.8783
   74CHL1  H26B 6651   5.240   4.436   5.570 -1.0554 -3.5247  2.9323
   74CHL1  H26C 6652   5.372   4.359   5.653  1.4572  1.9428  1.2959
   74CHL1   C27 6653   5.466   4.195   5.442  0.2028 -0.0435  0.7804
   74CHL1  H27A 6654   5.497   4.169   5.545  0.0168  2.1605  1.4331
   74CHL1  H27B 6655   5.438   4.104   5.385  1.6124 -0.5818  0.9148
   74CHL1  H27C 6656   5.548   4.241   5.384  0.1754 -0.8178  0.1105
   75CHL1    C3 6657   3.536   6.586   4.291 -0.0037 -0.1629  0.4824
   75CHL1    H3 6658   3.643   6.612   4.310  0.1231  0.4344 -0.9106
   75CHL1    O3 6659   3.515   6.603   4.148 -0.0843 -0.2816  0.0159
   75CHL1   H3' 6660   3.430   6.647   4.146 -0.2915 -0.5603  1.4299
   75CHL1    C4 6661   3.503   6.439   4.334  0.3799 -0.6202  0.6612
   75CHL1   H4A 6662   3.398   6.423   4.301  0.7762  0.9488 -1.5599
   75CHL1   H4B 6663   3.568   6.367   4.280 -1.8563 -1.5241 -0.9568
   75CHL1    C5 6664   3.526   6.413   4.482 -0.3745 -0.6495 -0.0571
   75CHL1    C6 6665   3.605   6.310   4.519 -0.3078  0.0797 -0.3481
   75CHL1    H6 6666   3.650   6.243   4.444  0.8624  1.6846 -1.1289
   75CHL1    C7 6667   3.613   6.289   4.670  0.6820  0.3761  0.2686
   75CHL1   H7A 6668   3.602   6.178   4.678 -2.8441  0.4086 -1.8047
   75CHL1   H7B 6669   3.717   6.317   4.695  0.7270 -0.4840  1.0979
   75CHL1    C8 6670   3.517   6.358   4.764  0.0493 -0.7125  0.5380
   75CHL1    H8 6671   3.420   6.306   4.750  0.0963 -0.0558 -3.2623
   75CHL1   C14 6672   3.550   6.354   4.910 -0.1767  0.0242 -0.4379
   75CHL1   H14 6673   3.650   6.401   4.922  0.1084 -0.6587 -0.0213
   75CHL1   C15 6674   3.577   6.207   4.963  0.1633  0.4206 -0.3624
   75CHL1  H15A 6675   3.493   6.152   4.917  0.6852  0.6405 -1.6209
   75CHL1  H15B 6676   3.673   6.161   4.928 -0.3560  0.6192 -2.1494
   75CHL1   C16 6677   3.558   6.211   5.121 -0.9009  0.3398  0.9137
   75CHL1  H16A 6678   3.488   6.138   5.167  1.1832 -0.7426  2.5113
   75CHL1  H16B 6679   3.651   6.197   5.181  0.7059  1.1874 -1.2369
   75CHL1   C17 6680   3.517   6.360   5.140  0.0284 -0.7461 -0.4877
   75CHL1   H17 6681   3.614   6.414   5.144 -0.0245 -0.6991  0.5907
   75CHL1   C13 6682   3.449   6.409   5.011 -0.0682  0.2265 -0.3449
   75CHL1   C18 6683   3.305   6.347   4.993 -0.5298  0.0635  0.0708
   75CHL1  H18A 6684   3.262   6.391   4.901 -1.5433  2.7060  1.7080
   75CHL1  H18B 6685   3.298   6.236   5.003  1.9733 -0.3139 -1.4994
   75CHL1  H18C 6686   3.245   6.389   5.077 -0.7185  0.6301 -0.3469
   75CHL1   C12 6687   3.456   6.561   4.973  0.3811 -0.5466  0.2050
   75CHL1  H12A 6688   3.392   6.624   5.038  1.0405  1.1378 -0.7288
   75CHL1  H12B 6689   3.561   6.591   4.994 -0.3961  0.8378  2.5520
   75CHL1   C11 6690   3.421   6.596   4.828 -0.6732 -0.8180  0.1836
   75CHL1  H11A 6691   3.312   6.599   4.806 -0.3386 -1.4140 -1.8579
   75CHL1  H11B 6692   3.434   6.705   4.813 -0.1014 -0.3819  3.2152
   75CHL1    C9 6693   3.502   6.507   4.725 -0.1243  0.0037  0.4053
   75CHL1    H9 6694   3.605   6.548   4.733 -0.0231  0.5637 -2.5211
   75CHL1   C10 6695   3.454   6.514   4.575  0.4522  0.0953 -0.3960
   75CHL1   C19 6696   3.308   6.471   4.564 -0.4520  0.0886  0.3477
   75CHL1  H19A 6697   3.270   6.486   4.461 -2.2356 -1.8113  0.6646
   75CHL1  H19B 6698   3.295   6.362   4.580  0.9386  0.1572  2.3340
   75CHL1  H19C 6699   3.234   6.525   4.627 -1.6142 -0.3551 -0.6166
   75CHL1    C1 6700   3.479   6.664   4.524 -0.8055  0.2036  0.0637
   75CHL1   H1A 6701   3.434   6.746   4.583  0.1027 -0.1119  1.2397
   75CHL1   H1B 6702   3.584   6.693   4.542 -0.7394 -0.0420  0.0772
   75CHL1    C2 6703   3.453   6.684   4.377 -0.1555  0.1148 -0.3891
   75CHL1   H2A 6704   3.469   6.789   4.346  0.7117  1.0757  2.9314
   75CHL1   H2B 6705   3.346   6.658   4.365  0.1548 -1.2103 -0.4575
   75CHL1   C20 6706   3.447   6.404   5.272 -0.5237 -0.4509 -0.5719
   75CHL1   H20 6707   3.340   6.381   5.258 -0.2666 -0.4023 -3.2668
   75CHL1   C21 6708   3.471   6.557   5.307 -0.4017 -0.2635 -0.1513
   75CHL1  H21A 6709   3.418   6.575   5.403 -1.1350 -0.9176 -0.4194
   75CHL1  H21B 6710   3.429   6.620   5.226  1.3802  1.9237  0.5289
   75CHL1  H21C 6711   3.582   6.568   5.314 -0.3475  0.1823 -1.4418
   75CHL1   C22 6712   3.498   6.318   5.387 -0.4882  1.0129 -0.0096
   75CHL1  H22A 6713   3.478   6.211   5.364 -0.0297  0.9027  0.0953
   75CHL1  H22B 6714   3.606   6.329   5.407 -0.4462  1.3600 -0.4214
   75CHL1   C23 6715   3.421   6.335   5.525  0.2247  0.1012 -0.2725
   75CHL1  H23A 6716   3.469   6.423   5.572  0.5532 -0.3808  0.3098
   75CHL1  H23B 6717   3.312   6.333   5.502  0.4410 -3.0935 -1.6142
   75CHL1   C24 6718   3.458   6.216   5.614 -0.3606  0.7601 -0.5436
   75CHL1  H24A 6719   3.422   6.117   5.579 -1.9719  0.0447  2.7786
   75CHL1  H24B 6720   3.569   6.220   5.618 -0.2422 -1.0348 -1.1995
   75CHL1   C25 6721   3.395   6.231   5.761  0.2837  0.5966 -0.4674
   75CHL1   H25 6722   3.441   6.325   5.798  1.8809 -0.0958 -0.6113
   75CHL1   C26 6723   3.238   6.222   5.745 -0.5822 -0.3976  0.1251
   75CHL1  H26A 6724   3.197   6.322   5.720  1.9026  0.4357 -0.8991
   75CHL1  H26B 6725   3.227   6.152   5.660  1.1283  0.4191 -0.8229
   75CHL1  H26C 6726   3.194   6.173   5.835 -0.9835  0.1963  0.2604
   75CHL1   C27 6727   3.440   6.114   5.850 -0.2499  0.4041 -0.4126
   75CHL1  H27A 6728   3.381   6.028   5.812  0.3355  0.2026 -0.8667
   75CHL1  H27B 6729   3.548   6.091   5.842 -0.3563 -0.3384  0.1805
   75CHL1  H27C 6730   3.415   6.118   5.958  1.2496 -0.5542 -0.0012
   76CHL1    C3 6731   0.979   0.381   4.677 -1.2037 -0.2076  0.5128
   76CHL1    H3 6732   1.051   0.466   4.678  0.6916 -1.7517 -0.1425
   76CHL1    O3 6733   0.929   0.371   4.542 -0.4465 -0.3300  0.1510
   76CHL1   H3' 6734   1.000   0.332   4.491  1.1372  0.9459  1.2820
   76CHL1    C4 6735   1.046   0.252   4.724  0.1879  0.4562  1.1218
   76CHL1   H4A 6736   0.983   0.161   4.710 -0.7161  1.2193  0.0286
   76CHL1   H4B 6737   1.134   0.250   4.656 -0.2883  0.2223  0.4952
   76CHL1    C5 6738   1.085   0.259   4.864 -0.3988 -0.0365 -0.4279
   76CHL1    C6 6739   1.215   0.245   4.903 -0.7493 -0.7678 -0.1550
   76CHL1    H6 6740   1.289   0.231   4.822  0.6557  0.6125  0.8403
   76CHL1    C7 6741   1.262   0.253   5.042 -0.2729  0.3207 -0.3229
   76CHL1   H7A 6742   1.327   0.165   5.063 -0.3278 -0.0892 -1.7906
   76CHL1   H7B 6743   1.327   0.339   5.069  1.6183 -1.1678  0.1109
   76CHL1    C8 6744   1.149   0.253   5.151  0.1280  0.4118  0.6281
   76CHL1    H8 6745   1.116   0.147   5.154 -1.5509  0.8174 -1.0974
   76CHL1   C14 6746   1.209   0.298   5.277 -0.1795  0.1792 -0.9608
   76CHL1   H14 6747   1.231   0.406   5.264 -1.0768  0.5006 -0.0174
   76CHL1   C15 6748   1.339   0.228   5.329  0.2621  0.7500 -0.5255
   76CHL1  H15A 6749   1.337   0.117   5.323  1.8292  0.7294 -1.2810
   76CHL1  H15B 6750   1.429   0.258   5.271  1.7729 -1.0010  0.7842
   76CHL1   C16 6751   1.349   0.269   5.477 -0.3856 -0.4963  0.5375
   76CHL1  H16A 6752   1.354   0.174   5.534 -2.4185 -2.2206 -1.8945
   76CHL1  H16B 6753   1.437   0.331   5.505 -1.0117  1.1010 -0.8663
   76CHL1   C17 6754   1.214   0.348   5.506  1.1459 -0.2897  0.5908
   76CHL1   H17 6755   1.227   0.454   5.475  0.5007 -0.4726 -0.3393
   76CHL1   C13 6756   1.116   0.301   5.398  0.0871  0.0248  0.6191
   76CHL1   C18 6757   1.070   0.154   5.428  0.4607  0.0244  0.0921
   76CHL1  H18A 6758   0.991   0.155   5.506  0.0621 -1.2276 -0.2682
   76CHL1  H18B 6759   1.027   0.110   5.335 -0.2431  1.0386 -0.0738
   76CHL1  H18C 6760   1.150   0.088   5.467  0.0095 -0.3585  0.3815
   76CHL1   C12 6761   0.996   0.394   5.360 -0.1771  0.0767 -0.1415
   76CHL1  H12A 6762   0.910   0.386   5.429 -2.0712 -1.6623 -2.5370
   76CHL1  H12B 6763   1.035   0.498   5.361 -0.0376  0.0449 -1.0840
   76CHL1   C11 6764   0.930   0.356   5.224 -0.4934  0.1110 -0.3213
   76CHL1  H11A 6765   0.877   0.259   5.236 -0.8325  0.2835 -0.4144
   76CHL1  H11B 6766   0.845   0.420   5.194  0.3860  1.7484  0.5156
   76CHL1    C9 6767   1.035   0.342   5.108 -0.0839 -0.4891  0.4538
   76CHL1    H9 6768   1.082   0.443   5.097  1.1464 -1.0741  0.1761
   76CHL1   C10 6769   0.977   0.302   4.969  0.3277  0.1837  0.0555
   76CHL1   C19 6770   0.893   0.166   4.982 -0.2905 -0.3141  0.5277
   76CHL1  H19A 6771   0.815   0.174   5.060 -1.6958 -1.1496 -0.7465
   76CHL1  H19B 6772   0.832   0.141   4.893  0.4336  1.7500 -0.6118
   76CHL1  H19C 6773   0.962   0.084   5.013  0.2659 -0.3825 -0.8243
   76CHL1    C1 6774   0.882   0.415   4.912  0.1160 -0.5882 -0.2422
   76CHL1   H1A 6775   0.788   0.424   4.971 -0.8204  1.2112 -1.8796
   76CHL1   H1B 6776   0.935   0.509   4.940 -2.2959  0.2191  2.0917
   76CHL1    C2 6777   0.858   0.416   4.761 -0.8303  0.3630  0.4840
   76CHL1   H2A 6778   0.827   0.519   4.734 -3.1081  0.0293  1.6138
   76CHL1   H2B 6779   0.776   0.350   4.727  0.4168 -0.9544 -0.0757
   76CHL1   C20 6780   1.168   0.342   5.654 -0.3786  0.8973  0.1779
   76CHL1   H20 6781   1.158   0.236   5.686  1.1569  1.6568  3.6625
   76CHL1   C21 6782   1.032   0.414   5.689 -0.2331 -0.6670  0.3951
   76CHL1  H21A 6783   1.030   0.504   5.625  0.9200 -0.8183  0.1057
   76CHL1  H21B 6784   1.026   0.422   5.800 -0.0008  0.4099  0.3351
   76CHL1  H21C 6785   0.939   0.361   5.662 -1.3068  1.2208  0.2266
   76CHL1   C22 6786   1.287   0.388   5.740 -0.5405  0.0354  0.0838
   76CHL1  H22A 6787   1.375   0.324   5.713  0.4840  0.5317  2.0340
   76CHL1  H22B 6788   1.314   0.492   5.713  0.1091 -0.6426 -2.1710
   76CHL1   C23 6789   1.272   0.369   5.892  1.4369  0.3106 -0.0306
   76CHL1  H23A 6790   1.192   0.435   5.931  0.3936 -0.1007 -1.4034
   76CHL1  H23B 6791   1.246   0.265   5.923 -0.0089  0.3324 -1.0609
   76CHL1   C24 6792   1.396   0.399   5.966  0.1494 -0.1387 -0.1332
   76CHL1  H24A 6793   1.470   0.326   5.928 -2.3871 -2.3317 -1.2121
   76CHL1  H24B 6794   1.432   0.499   5.933  0.9167 -0.0812  0.8159
   76CHL1   C25 6795   1.389   0.410   6.125 -0.1721  0.4585  0.1813
   76CHL1   H25 6796   1.332   0.322   6.163 -1.4595  0.9018 -0.6402
   76CHL1   C26 6797   1.529   0.405   6.190 -0.0952  0.4349  0.3133
   76CHL1  H26A 6798   1.569   0.304   6.166 -0.7341  0.2629 -0.0406
   76CHL1  H26B 6799   1.596   0.479   6.141  1.1143  0.5318  2.0317
   76CHL1  H26C 6800   1.526   0.411   6.301 -0.0465  0.8729  0.2936
   76CHL1   C27 6801   1.311   0.536   6.161 -0.4212 -0.5772  0.5276
   76CHL1  H27A 6802   1.209   0.528   6.118 -0.1508 -2.4445  0.1378
   76CHL1  H27B 6803   1.308   0.545   6.272 -1.9448  1.6760  0.3700
   76CHL1  H27C 6804   1.354   0.625   6.111  1.0579 -1.5127  0.0414
   77SOPE     N 6805   0.366   4.411   8.048  0.2639  0.0156  0.0276
   77SOPE   HN1 6806   0.438   4.416   8.122  1.2068 -2.0715 -0.6857
   77SOPE   HN2 6807   0.289   4.481   8.039 -0.6183 -1.0878 -1.4365
   77SOPE   HN3 6808   0.302   4.333   8.076  0.2230  0.7364  2.1209
   77SOPE   C12 6809   0.432   4.389   7.909  0.6265  0.4265 -0.1259
   77SOPE  H12A 6810   0.498   4.300   7.916  2.5519  1.5207 -2.4851
   77SOPE  H12B 6811   0.501   4.474   7.887  1.9393 -0.5361  0.1790
   77SOPE   C11 6812   0.328   4.375   7.791 -0.7812 -0.0041 -0.3062
   77SOPE  H11A 6813   0.266   4.283   7.801  1.2181 -1.3790  0.0667
   77SOPE  H11B 6814   0.390   4.354   7.702  0.7214 -0.9200  0.8906
   77SOPE     P 6815   0.110   4.518   7.825  0.1935  0.0636 -0.1474
   77SOPE   O13 6816   0.122   4.535   7.969 -0.2312  0.5901  0.5946
   77SOPE   O14 6817   0.013   4.418   7.778 -0.1294 -0.1229  0.2006
   77SOPE   O12 6818   0.248   4.493   7.771  0.0273  0.1584 -0.1279
   77SOPE   O11 6819   0.074   4.668   7.778 -0.7775 -0.0222  0.3666
   77SOPE    C1 6820   0.174   4.770   7.794  0.6351 -0.4384 -0.3352
   77SOPE    HA 6821   0.234   4.766   7.700  1.2524  1.2309 -0.0412
   77SOPE    HB 6822   0.246   4.743   7.874  0.7643 -2.3731 -1.0484
   77SOPE    C2 6823   0.106   4.914   7.815  0.7035  0.5871 -0.1285
   77SOPE    HS 6824   0.022   4.900   7.887  0.5437  1.7197 -0.0835
   77SOPE   O21 6825   0.063   4.972   7.690 -0.7097 -0.1159  0.2259
   77SOPE   C21 6826  -0.015   5.082   7.704  0.1858  0.1404 -0.0254
   77SOPE   O22 6827  -0.030   5.143   7.811 -0.2122  0.5617 -0.2590
   77SOPE   C22 6828  -0.090   5.118   7.578  0.2561  0.0526 -0.0673
   77SOPE   H2R 6829  -0.197   5.094   7.597  0.2348  1.3875  1.8546
   77SOPE   H2S 6830  -0.043   5.055   7.500  1.2332 -2.1300  2.1205
   77SOPE    C3 6831   0.220   5.002   7.885 -0.6111  1.1847  0.0300
   77SOPE    HX 6832   0.273   4.953   7.970  0.7062  0.5739 -1.1002
   77SOPE    HY 6833   0.158   5.085   7.924  1.5291  3.9024 -2.0064
   77SOPE   O31 6834   0.330   5.040   7.795 -0.2825 -0.0487  0.3318
   77SOPE   C31 6835   0.323   5.165   7.759 -0.7944  0.7019  0.1389
   77SOPE   O32 6836   0.231   5.239   7.776  0.5198 -0.3890  0.3342
   77SOPE   C32 6837   0.453   5.203   7.686  0.4873 -0.3166  0.8027
   77SOPE   H2X 6838   0.519   5.202   7.775 -2.1508 -0.4410  2.9006
   77SOPE   H2Y 6839   0.446   5.309   7.655  1.4956  0.2477  2.3744
   77SOPE   C23 6840  -0.075   5.265   7.545 -0.6947 -0.5463 -1.0077
   77SOPE   H3R 6841   0.030   5.298   7.562 -1.1457  0.6271 -0.4231
   77SOPE   H3S 6842  -0.136   5.322   7.618  0.5393 -2.2388  1.4835
   77SOPE   C24 6843  -0.122   5.288   7.398 -0.0576 -0.1984  0.6645
   77SOPE   H4R 6844  -0.218   5.237   7.376  0.2340  0.4687 -2.6155
   77SOPE   H4S 6845  -0.137   5.396   7.382 -1.1307 -0.7524 -2.6839
   77SOPE   C25 6846  -0.013   5.242   7.308 -0.1865  0.2870  0.4041
   77SOPE   H5R 6847   0.084   5.293   7.324  0.5258 -1.2518  1.1784
   77SOPE   H5S 6848   0.008   5.134   7.325 -1.2980  0.2876  1.9852
   77SOPE   C26 6849  -0.061   5.263   7.159  0.3979 -0.2094 -0.0614
   77SOPE   H6R 6850  -0.117   5.359   7.160  0.3244 -0.2167  1.9532
   77SOPE   H6S 6851   0.028   5.274   7.094 -0.7966  2.1451 -1.4425
   77SOPE   C27 6852  -0.146   5.155   7.100 -0.3998  0.9015  0.0674
   77SOPE   H7R 6853  -0.087   5.062   7.108  0.8002  1.7705  1.9492
   77SOPE   H7S 6854  -0.224   5.132   7.176 -1.0163 -0.9767 -1.0751
   77SOPE   C28 6855  -0.206   5.196   6.962 -0.0826  0.2663 -0.3122
   77SOPE   H8R 6856  -0.299   5.138   6.942 -1.0931  1.7526 -0.0638
   77SOPE   H8S 6857  -0.242   5.300   6.977 -0.2151  0.0129  1.4249
   77SOPE   C29 6858  -0.107   5.188   6.851 -0.0686  0.0727  0.2247
   77SOPE   H91 6859   0.000   5.185   6.873  0.5224  0.3847 -2.3175
   77SOPE  C210 6860  -0.137   5.171   6.723 -0.3910  0.3158  0.2313
   77SOPE  H101 6861  -0.063   5.191   6.643  1.2887  0.0928  1.6742
   77SOPE  C211 6862  -0.277   5.159   6.675  0.2309 -0.1311  0.1378
   77SOPE  H11R 6863  -0.330   5.245   6.722 -0.2748 -0.1086 -0.4560
   77SOPE  H11S 6864  -0.317   5.068   6.724 -3.0481  0.5751 -0.9807
   77SOPE  C212 6865  -0.291   5.169   6.522 -0.2712  0.2321 -0.0924
   77SOPE  H12R 6866  -0.234   5.253   6.477  0.2009 -1.4325 -2.8242
   77SOPE  H12S 6867  -0.397   5.186   6.493  0.7455  3.1981 -2.6277
   77SOPE  C213 6868  -0.241   5.041   6.443  0.2635 -0.1020  0.0209
   77SOPE  H13R 6869  -0.298   4.957   6.489  0.3746  0.5543  1.4233
   77SOPE  H13S 6870  -0.130   5.040   6.452  0.2103  0.1059  0.8022
   77SOPE  C214 6871  -0.277   5.055   6.293 -0.5278  0.4499 -0.0390
   77SOPE  H14R 6872  -0.218   5.141   6.255  0.0451 -0.3336 -0.9669
   77SOPE  H14S 6873  -0.381   5.090   6.278 -0.4553  0.2362 -1.1291
   77SOPE  C215 6874  -0.257   4.917   6.225  0.6838  0.2452  0.3360
   77SOPE  H15R 6875  -0.340   4.857   6.269 -0.3290  0.7476 -0.8450
   77SOPE  H15S 6876  -0.162   4.869   6.258 -1.1287 -2.8696  1.4851
   77SOPE  C216 6877  -0.258   4.905   6.067  0.1013 -0.4871 -0.3213
   77SOPE  H16R 6878  -0.177   4.977   6.044  0.7730  0.1977  3.4432
   77SOPE  H16S 6879  -0.361   4.928   6.032 -0.2965 -1.7414 -0.0310
   77SOPE  C217 6880  -0.226   4.771   6.008  0.0764  0.2610  0.3885
   77SOPE  H17R 6881  -0.317   4.713   6.032 -0.4041 -0.0465 -1.9296
   77SOPE  H17S 6882  -0.136   4.725   6.055  0.9340  0.5549 -0.8963
   77SOPE  C218 6883  -0.213   4.761   5.857  0.4361  0.0869  0.2388
   77SOPE  H18R 6884  -0.110   4.785   5.821  0.8487 -1.8115  0.0556
   77SOPE  H18S 6885  -0.291   4.819   5.804  0.0613 -2.1303 -1.7888
   77SOPE  H18T 6886  -0.232   4.657   5.822 -0.3429 -0.3125  1.7784
   77SOPE   C33 6887   0.486   5.108   7.572  0.2259  0.4717  0.0297
   77SOPE   H3X 6888   0.475   5.002   7.606 -0.4652  0.2889 -0.7102
   77SOPE   H3Y 6889   0.595   5.116   7.557  0.2884 -0.2598  0.0481
   77SOPE   C34 6890   0.416   5.132   7.438  0.0401 -0.7789 -0.1828
   77SOPE   H4X 6891   0.461   5.217   7.382 -1.0811  0.4222  0.6652
   77SOPE   H4Y 6892   0.311   5.167   7.447  0.2460  0.1794 -1.2810
   77SOPE   C35 6893   0.383   5.005   7.363  0.3783 -0.0062  0.5298
   77SOPE   H5X 6894   0.327   4.937   7.432  0.7868 -2.6976 -1.6018
   77SOPE   H5Y 6895   0.482   4.969   7.328  1.1133  1.0156  1.4809
   77SOPE   C36 6896   0.305   5.038   7.237  0.3834  0.3983  0.5576
   77SOPE   H6X 6897   0.221   5.107   7.256  0.4235  0.2438  1.3459
   77SOPE   H6Y 6898   0.246   4.950   7.202 -1.0851  0.8580  1.7995
   77SOPE   C37 6899   0.380   5.098   7.119 -0.2740 -0.0305 -0.3370
   77SOPE   H7X 6900   0.464   5.029   7.096 -0.7667 -0.9889  0.6503
   77SOPE   H7Y 6901   0.421   5.194   7.157  0.0542  0.4772 -1.8982
   77SOPE   C38 6902   0.296   5.129   6.993 -0.0420  0.0406 -0.0082
   77SOPE   H8X 6903   0.242   5.226   7.002 -0.9565 -0.3937 -0.6267
   77SOPE   H8Y 6904   0.216   5.053   6.989  0.6627 -0.6731 -0.8314
   77SOPE   C39 6905   0.362   5.127   6.853  0.7114  0.3181 -0.4573
   77SOPE   H9X 6906   0.418   5.033   6.830 -1.4192 -0.4511 -2.9557
   77SOPE   H9Y 6907   0.434   5.210   6.842 -0.4253  1.0899 -2.4950
   77SOPE  C310 6908   0.256   5.133   6.737  0.6231 -0.1662 -0.0096
   77SOPE  H10X 6909   0.222   5.238   6.726 -1.7533 -1.0687 -2.2257
   77SOPE  H10Y 6910   0.172   5.063   6.755 -0.5373  0.9125 -1.0013
   77SOPE  C311 6911   0.306   5.074   6.602 -0.5988  0.2292 -0.3685
   77SOPE  H11X 6912   0.345   4.971   6.618 -2.8647 -0.5646  0.5996
   77SOPE  H11Y 6913   0.385   5.146   6.573  1.2096 -1.9640 -1.2184
   77SOPE  C312 6914   0.214   5.076   6.490  0.5503  0.2901  0.7611
   77SOPE  H12X 6915   0.155   5.170   6.483 -0.8490 -0.6683 -2.9777
   77SOPE  H12Y 6916   0.135   5.000   6.511 -2.4428  2.4118 -1.7702
   77SOPE  C313 6917   0.272   5.032   6.355 -0.4029 -0.0297 -0.6021
   77SOPE  H13X 6918   0.321   4.933   6.363 -1.6001 -0.7361 -1.5859
   77SOPE  H13Y 6919   0.347   5.108   6.324  1.4352 -0.7763  1.6998
   77SOPE  C314 6920   0.156   5.011   6.258  0.7730  0.2273  0.3182
   77SOPE  H14X 6921   0.082   5.093   6.248 -2.1904 -2.2548  0.6346
   77SOPE  H14Y 6922   0.089   4.929   6.291 -2.0263  1.6471 -1.4397
   77SOPE  C315 6923   0.189   4.980   6.111  0.1190 -0.8715  0.0217
   77SOPE  H15X 6924   0.234   5.068   6.061 -0.6797 -1.8195 -2.5309
   77SOPE  H15Y 6925   0.091   4.958   6.063  0.6826 -0.7326 -1.2229
   77SOPE  C316 6926   0.267   4.853   6.094 -0.1666 -0.5660 -0.9642
   77SOPE  H16X 6927   0.212   4.770   6.143  1.9726 -0.8424  1.1133
   77SOPE  H16Y 6928   0.364   4.867   6.145 -0.8177 -0.4641  0.2764
   77SOPE  C317 6929   0.281   4.813   5.948 -0.1140 -0.2316  0.4782
   77SOPE  H17X 6930   0.334   4.889   5.887 -5.2061  1.4778 -2.4025
   77SOPE  H17Y 6931   0.181   4.811   5.900  1.0746 -0.4865 -2.1784
   77SOPE  C318 6932   0.350   4.670   5.938  0.4426  0.1600 -0.1928
   77SOPE  H18X 6933   0.299   4.601   6.008  0.5532 -0.3441 -0.6026
   77SOPE  H18Y 6934   0.460   4.671   5.955  0.4288 -1.7819  0.2750
   77SOPE  H18Z 6935   0.339   4.631   5.835 -1.1702 -0.7438  0.2897
   78SOPE     N 6936   5.886   4.296   8.013  0.3142 -0.0273 -0.3261
   78SOPE   HN1 6937   5.854   4.214   8.068 -0.0030 -1.0219 -1.9088
   78SOPE   HN2 6938   5.988   4.296   8.035  0.3413  0.3101 -0.4456
   78SOPE   HN3 6939   5.843   4.385   8.045  0.4503 -0.1877  0.3091
   78SOPE   C12 6940   5.851   4.281   7.870  0.0580 -0.4772 -0.4195
   78SOPE  H12A 6941   5.742   4.269   7.853  0.3520 -1.1748 -1.8888
   78SOPE  H12B 6942   5.891   4.183   7.836  1.7884  0.2054 -0.4396
   78SOPE   C11 6943   5.925   4.390   7.783 -0.1379 -0.0210  0.1031
   78SOPE  H11A 6944   5.905   4.368   7.676 -0.1017  0.8410 -0.0884
   78SOPE  H11B 6945   6.033   4.402   7.803  0.2076 -0.9968 -1.0685
   78SOPE     P 6946   5.742   4.575   7.742 -0.2105  0.4900  0.6938
   78SOPE   O13 6947   5.673   4.685   7.811  0.5340  0.2527 -0.1914
   78SOPE   O14 6948   5.656   4.458   7.707 -0.4221 -1.0345  0.1047
   78SOPE   O12 6949   5.868   4.520   7.826  0.5765 -0.0349  0.1608
   78SOPE   O11 6950   5.816   4.624   7.616  0.5262  0.4934 -0.2330
   78SOPE    C1 6951   5.935   4.700   7.603  0.2397  0.0669 -0.2218
   78SOPE    HA 6952   5.979   4.692   7.501 -0.9561  1.7624 -0.9212
   78SOPE    HB 6953   6.013   4.661   7.671 -0.5679  0.2226  0.8170
   78SOPE    C2 6954   5.921   4.851   7.631  0.4276 -0.5612 -0.2061
   78SOPE    HS 6955   5.847   4.860   7.713  0.9804  0.3962  0.1964
   78SOPE   O21 6956   5.870   4.915   7.504  0.4830  0.3666 -0.2785
   78SOPE   C21 6957   5.812   5.031   7.528 -0.3045 -0.1847 -0.0610
   78SOPE   O22 6958   5.775   5.072   7.638  0.0238 -0.0026 -0.2102
   78SOPE   C22 6959   5.799   5.103   7.396 -0.1480  0.1452  0.0068
   78SOPE   H2R 6960   5.724   5.046   7.337  0.7530  2.2433 -3.4451
   78SOPE   H2S 6961   5.898   5.109   7.347  0.0379 -1.5044  0.1382
   78SOPE    C3 6962   6.054   4.915   7.674 -0.3358  0.3322 -0.2821
   78SOPE    HX 6963   6.082   4.857   7.764 -1.1978  0.3193 -0.0048
   78SOPE    HY 6964   6.040   5.022   7.702  1.4712  0.6250 -0.4093
   78SOPE   O31 6965   6.167   4.888   7.591 -0.2987  0.0350  0.5989
   78SOPE   C31 6966   6.193   4.985   7.512 -0.0767 -0.9423  0.8838
   78SOPE   O32 6967   6.121   5.083   7.492  0.3700  0.7830  0.0804
   78SOPE   C32 6968   6.329   4.971   7.440 -0.0055 -0.0833 -0.4844
   78SOPE   H2X 6969   6.362   4.865   7.444  3.2020  0.8471  0.6765
   78SOPE   H2Y 6970   6.406   5.026   7.498 -1.1345 -1.0714  2.1005
   78SOPE   C23 6971   5.735   5.244   7.415 -0.3152  0.3262 -1.0631
   78SOPE   H3R 6972   5.816   5.307   7.458  0.3643 -1.1245 -0.1406
   78SOPE   H3S 6973   5.643   5.251   7.478  0.2193 -0.2468 -0.1992
   78SOPE   C24 6974   5.699   5.287   7.271 -0.2599  0.2043 -0.4958
   78SOPE   H4R 6975   5.602   5.236   7.255 -0.2013 -0.8169  2.0120
   78SOPE   H4S 6976   5.685   5.397   7.281  3.8778  1.0569 -1.9915
   78SOPE   C25 6977   5.805   5.271   7.161 -0.3674 -0.1193 -0.0400
   78SOPE   H5R 6978   5.903   5.308   7.198  0.7385 -1.4429 -1.5230
   78SOPE   H5S 6979   5.820   5.161   7.148 -3.6847 -0.8697  1.3713
   78SOPE   C26 6980   5.768   5.332   7.028 -0.2783 -0.1959 -0.0785
   78SOPE   H6R 6981   5.660   5.313   7.011 -0.2978  0.1030 -0.3053
   78SOPE   H6S 6982   5.775   5.443   7.028 -1.0517 -0.1443 -0.1392
   78SOPE   C27 6983   5.848   5.283   6.911 -0.0629  0.4179 -0.0186
   78SOPE   H7R 6984   5.953   5.263   6.943  0.1127 -0.2428 -0.9755
   78SOPE   H7S 6985   5.811   5.183   6.878  1.9532 -0.4347  0.1585
   78SOPE   C28 6986   5.840   5.377   6.797  0.9040  0.3595  0.1233
   78SOPE   H8R 6987   5.878   5.477   6.826 -0.9645  1.0593  0.3141
   78SOPE   H8S 6988   5.896   5.338   6.710 -0.8092  1.2568 -1.4631
   78SOPE   C29 6989   5.699   5.390   6.748 -0.1321  0.9895 -0.0272
   78SOPE   H91 6990   5.626   5.436   6.817  0.4949  2.3502 -0.2318
   78SOPE  C210 6991   5.646   5.339   6.635 -0.9715 -0.0881  0.2984
   78SOPE  H101 6992   5.539   5.357   6.621 -1.1509 -2.2901 -1.7706
   78SOPE  C211 6993   5.718   5.251   6.533  0.1359  0.4752 -0.0490
   78SOPE  H11R 6994   5.686   5.145   6.537  1.4383  0.0091 -1.2378
   78SOPE  H11S 6995   5.829   5.256   6.540  0.0494  2.0121  0.9004
   78SOPE  C212 6996   5.685   5.314   6.394 -0.5403  0.1667 -0.5905
   78SOPE  H12R 6997   5.604   5.390   6.396 -2.0752 -1.4028  0.2780
   78SOPE  H12S 6998   5.656   5.237   6.318 -1.3994  0.2351 -0.3442
   78SOPE  C213 6999   5.808   5.388   6.333 -0.5714 -0.0574  0.6759
   78SOPE  H13R 7000   5.894   5.319   6.324 -0.4353  0.2624 -0.6996
   78SOPE  H13S 7001   5.825   5.470   6.406 -0.5631 -0.3938  1.0500
   78SOPE  C214 7002   5.791   5.442   6.195  0.0419  0.3267  0.3021
   78SOPE  H14R 7003   5.685   5.474   6.183 -0.1514 -0.3073  0.2985
   78SOPE  H14S 7004   5.804   5.358   6.124 -0.4124  0.5491 -0.0467
   78SOPE  C215 7005   5.875   5.562   6.141 -0.1124 -0.2820 -0.2799
   78SOPE  H15R 7006   5.983   5.539   6.141 -0.0997 -0.2140 -0.5723
   78SOPE  H15S 7007   5.849   5.646   6.210 -3.7627 -1.0935 -0.4518
   78SOPE  C216 7008   5.818   5.607   6.007 -0.0827  0.8561  1.2013
   78SOPE  H16R 7009   5.723   5.664   6.017 -0.4033  0.5916 -0.1665
   78SOPE  H16S 7010   5.797   5.514   5.951 -1.2826  0.3534  2.4348
   78SOPE  C217 7011   5.923   5.695   5.929  0.5169 -0.0801 -0.1525
   78SOPE  H17R 7012   6.019   5.643   5.951  0.6213  0.0795 -0.2338
   78SOPE  H17S 7013   5.929   5.799   5.966 -0.4313  0.1086 -0.4957
   78SOPE  C218 7014   5.901   5.699   5.780  0.5988  0.0713  0.8420
   78SOPE  H18R 7015   5.886   5.599   5.733  1.3108  0.0565  0.6364
   78SOPE  H18S 7016   5.984   5.755   5.733  0.9188 -0.3726  0.8653
   78SOPE  H18T 7017   5.815   5.760   5.748 -0.0373 -1.3413 -0.2610
   78SOPE   C33 7018   6.331   5.011   7.294 -0.1763 -0.5611 -0.5591
   78SOPE   H3X 7019   6.432   5.052   7.273 -0.5236 -0.0154 -1.2221
   78SOPE   H3Y 7020   6.256   5.092   7.277  1.5143  0.6156 -3.0311
   78SOPE   C34 7021   6.299   4.898   7.195  0.3089  0.2944 -0.2735
   78SOPE   H4X 7022   6.201   4.850   7.221  0.2394  0.5118 -0.1344
   78SOPE   H4Y 7023   6.378   4.822   7.211 -1.2860 -1.2843  0.5527
   78SOPE   C35 7024   6.306   4.935   7.044 -0.3912 -0.0131  0.3531
   78SOPE   H5X 7025   6.300   4.837   6.991 -0.7320  0.5678 -0.6950
   78SOPE   H5Y 7026   6.408   4.969   7.017  0.0184 -1.4162  0.0221
   78SOPE   C36 7027   6.202   5.039   7.002  0.3810  0.7839  0.3041
   78SOPE   H6X 7028   6.233   5.135   7.048  0.7271  0.7628  0.1107
   78SOPE   H6Y 7029   6.099   5.014   7.037 -0.8163  1.7707 -2.2482
   78SOPE   C37 7030   6.209   5.044   6.847  0.0717 -0.6185  0.0056
   78SOPE   H7X 7031   6.314   5.031   6.813 -0.4262 -2.1044 -1.0942
   78SOPE   H7Y 7032   6.165   5.139   6.812  0.5320 -0.8394 -1.2617
   78SOPE   C38 7033   6.134   4.930   6.768  0.9367 -0.0892  0.5813
   78SOPE   H8X 7034   6.025   4.942   6.788  0.6619 -1.6050  0.1560
   78SOPE   H8Y 7035   6.177   4.831   6.796  1.4960 -0.4122 -1.2962
   78SOPE   C39 7036   6.143   4.930   6.618 -0.2477 -0.0366 -0.0377
   78SOPE   H9X 7037   6.073   4.853   6.578  0.6659 -0.3707 -1.0274
   78SOPE   H9Y 7038   6.249   4.916   6.589 -0.5532  0.2328 -1.3524
   78SOPE  C310 7039   6.100   5.062   6.541 -0.2317 -0.0199 -0.4885
   78SOPE  H10X 7040   6.152   5.145   6.593  0.2216  0.0497 -1.0371
   78SOPE  H10Y 7041   5.991   5.077   6.550 -0.3120  0.4662 -1.9811
   78SOPE  C311 7042   6.117   5.071   6.390 -0.5333  0.2804 -0.4068
   78SOPE  H11X 7043   6.214   5.027   6.358 -0.9725 -0.9968 -0.0325
   78SOPE  H11Y 7044   6.115   5.177   6.357  0.4411 -0.1720 -2.0755
   78SOPE  C312 7045   6.003   5.007   6.307 -0.6024 -0.2627  0.3584
   78SOPE  H12X 7046   5.905   5.042   6.346 -0.1722  1.7915 -0.2680
   78SOPE  H12Y 7047   6.009   4.898   6.326  1.0156 -0.4263 -0.9118
   78SOPE  C313 7048   6.005   5.037   6.154 -0.0788 -0.4641  0.9184
   78SOPE  H13X 7049   6.032   5.142   6.133  3.1115 -1.2381  0.6969
   78SOPE  H13Y 7050   5.900   5.017   6.123  0.5427 -0.8142 -1.0558
   78SOPE  C314 7051   6.091   4.940   6.072  0.3827  0.1610  0.6698
   78SOPE  H14X 7052   6.098   4.849   6.135  2.1725  0.9214  1.6462
   78SOPE  H14Y 7053   6.190   4.989   6.069  0.9354 -1.0102 -1.5756
   78SOPE  C315 7054   6.053   4.909   5.930 -0.0565 -0.5399  0.3929
   78SOPE  H15X 7055   6.008   5.003   5.891  1.6627  0.8369  1.5827
   78SOPE  H15Y 7056   5.959   4.849   5.931 -1.1836  0.9586 -2.8234
   78SOPE  C316 7057   6.166   4.865   5.838 -0.0622 -0.3471  0.0974
   78SOPE  H16X 7058   6.203   4.766   5.873 -1.1868 -0.5220  0.8478
   78SOPE  H16Y 7059   6.252   4.935   5.833 -0.7184  0.6341  1.5838
   78SOPE  C317 7060   6.122   4.856   5.691 -1.0552  0.6215 -0.1665
   78SOPE  H17X 7061   6.209   4.823   5.631 -1.4350  1.4060 -1.1874
   78SOPE  H17Y 7062   6.096   4.960   5.659 -0.5517  0.7861 -0.0446
   78SOPE  C318 7063   6.013   4.756   5.667  0.9160  0.3569 -0.7076
   78SOPE  H18X 7064   5.993   4.722   5.564  1.0470 -0.3943 -0.4940
   78SOPE  H18Y 7065   5.915   4.781   5.713  0.4610 -1.5869 -0.5271
   78SOPE  H18Z 7066   6.045   4.657   5.706 -1.0709 -0.7104 -1.6764
   79SOPE     N 7067   1.078   3.519   8.166  0.1410 -0.4619  0.1525
   79SOPE   HN1 7068   1.051   3.612   8.203 -1.6121 -0.4645 -0.9846
   79SOPE   HN2 7069   1.158   3.487   8.224  2.8904 -0.6711 -3.3704
   79SOPE   HN3 7070   1.124   3.539   8.074 -0.0520  0.1101  0.1746
   79SOPE   C12 7071   0.956   3.430   8.147 -0.2431  0.2147 -0.5283
   79SOPE  H12A 7072   0.973   3.352   8.070  1.6022  1.3430 -1.3442
   79SOPE  H12B 7073   0.881   3.503   8.110  0.4423  0.7735 -0.8351
   79SOPE   C11 7074   0.899   3.394   8.282 -0.0251  0.7759 -0.0768
   79SOPE  H11A 7075   0.799   3.350   8.264 -0.8855  1.9132  1.6669
   79SOPE  H11B 7076   0.877   3.484   8.343 -0.1080  0.9505 -0.3621
   79SOPE     P 7077   1.007   3.164   8.328 -0.1189 -0.1175  0.0162
   79SOPE   O13 7078   0.891   3.114   8.248 -0.1930 -0.3353  0.0397
   79SOPE   O14 7079   1.061   3.085   8.447  0.6639 -0.3346  0.0514
   79SOPE   O12 7080   0.986   3.314   8.368  0.0617 -0.1932  0.0256
   79SOPE   O11 7081   1.117   3.182   8.217 -0.1929  0.3979 -0.2845
   79SOPE    C1 7082   1.188   3.068   8.169 -0.1050 -0.7534  0.1834
   79SOPE    HA 7083   1.118   2.983   8.153 -0.6463 -0.4891  1.1154
   79SOPE    HB 7084   1.265   3.039   8.244  2.2499  1.4540 -1.2112
   79SOPE    C2 7085   1.266   3.106   8.036 -0.0901 -0.1098  0.7586
   79SOPE    HS 7086   1.339   3.027   8.008  1.4220  1.3131  0.4823
   79SOPE   O21 7087   1.339   3.226   8.066  0.5064 -0.0387  1.0742
   79SOPE   C21 7088   1.450   3.245   8.001 -0.3802 -0.2391  0.5230
   79SOPE   O22 7089   1.498   3.169   7.915  0.1732  0.2120  0.3167
   79SOPE   C22 7090   1.513   3.373   8.052 -0.7922 -0.1699  0.0361
   79SOPE   H2R 7091   1.549   3.363   8.157  3.2900  0.0323 -1.1927
   79SOPE   H2S 7092   1.427   3.443   8.051 -1.5401 -1.0566  0.7051
   79SOPE    C3 7093   1.172   3.127   7.911 -0.1576 -0.1015 -0.4190
   79SOPE    HX 7094   1.101   3.209   7.935  1.8263  2.1863 -1.8729
   79SOPE    HY 7095   1.124   3.031   7.886  2.3641 -1.4583 -0.4093
   79SOPE   O31 7096   1.251   3.176   7.787  0.1117 -0.2967 -0.1086
   79SOPE   C31 7097   1.308   3.085   7.712 -0.2260 -0.0811 -0.0194
   79SOPE   O32 7098   1.292   2.967   7.729 -0.4004  0.2953  0.3622
   79SOPE   C32 7099   1.404   3.155   7.613  0.1975  0.7253 -0.8717
   79SOPE   H2X 7100   1.499   3.170   7.668 -0.8616  1.1139  0.9753
   79SOPE   H2Y 7101   1.362   3.258   7.601 -2.5613 -0.1142  0.4788
   79SOPE   C23 7102   1.632   3.432   7.970 -0.3345 -0.4908 -0.5646
   79SOPE   H3R 7103   1.715   3.359   7.957  0.0933  0.1198 -1.3353
   79SOPE   H3S 7104   1.666   3.512   8.039  0.0929 -2.0455  1.1242
   79SOPE   C24 7105   1.568   3.485   7.837  0.5106  0.0803  0.2883
   79SOPE   H4R 7106   1.531   3.399   7.777 -0.4183 -0.5142  1.6552
   79SOPE   H4S 7107   1.477   3.539   7.870 -1.3930 -2.6739 -0.1617
   79SOPE   C25 7108   1.668   3.569   7.761  0.1247 -0.4451 -0.4988
   79SOPE   H5R 7109   1.702   3.649   7.831 -2.1815  0.3615 -0.2141
   79SOPE   H5S 7110   1.762   3.514   7.739  0.7623  0.7035 -0.7574
   79SOPE   C26 7111   1.636   3.634   7.626 -0.0152 -0.5323  0.7624
   79SOPE   H6R 7112   1.735   3.659   7.584 -0.6990 -0.2079 -0.7013
   79SOPE   H6S 7113   1.580   3.559   7.566 -1.9004  0.9957  0.5386
   79SOPE   C27 7114   1.543   3.762   7.628 -0.6809  0.1750 -0.3284
   79SOPE   H7R 7115   1.470   3.727   7.704  0.3114 -0.9141  0.1609
   79SOPE   H7S 7116   1.605   3.845   7.667  2.1761 -1.1508 -1.7342
   79SOPE   C28 7117   1.474   3.814   7.493  0.2459  0.3940  0.1866
   79SOPE   H8R 7118   1.423   3.910   7.516 -1.0256  0.4360 -2.3972
   79SOPE   H8S 7119   1.551   3.835   7.415 -1.9042 -0.8725 -2.4446
   79SOPE   C29 7120   1.372   3.716   7.439 -0.3166  0.4972 -0.2677
   79SOPE   H91 7121   1.278   3.705   7.496 -1.2326 -1.0787 -1.9911
   79SOPE  C210 7122   1.381   3.628   7.334  0.1062  0.7287  0.3360
   79SOPE  H101 7123   1.304   3.555   7.305  1.0433 -0.0985 -0.1328
   79SOPE  C211 7124   1.501   3.631   7.244  0.0304  0.5949  0.7584
   79SOPE  H11R 7125   1.590   3.600   7.303 -0.1178 -0.6419  0.3781
   79SOPE  H11S 7126   1.525   3.733   7.209 -0.1217  0.1651 -0.6950
   79SOPE  C212 7127   1.487   3.532   7.125 -0.3482  0.6950 -0.6992
   79SOPE  H12R 7128   1.488   3.427   7.160  0.8979  0.6287 -0.8838
   79SOPE  H12S 7129   1.568   3.547   7.050 -0.7974  1.8196 -0.9809
   79SOPE  C213 7130   1.369   3.560   7.036  0.1346 -0.6768  0.4559
   79SOPE  H13R 7131   1.395   3.651   6.979 -3.7560  1.6037  1.8731
   79SOPE  H13S 7132   1.276   3.593   7.088 -0.2188 -0.1599 -0.4760
   79SOPE  C214 7133   1.337   3.447   6.942 -0.0508 -0.2708 -0.2550
   79SOPE  H14R 7134   1.266   3.376   6.990 -1.9888  1.5353 -0.2939
   79SOPE  H14S 7135   1.428   3.402   6.898  0.9860 -0.3597  1.8641
   79SOPE  C215 7136   1.252   3.497   6.825  0.2591 -0.0805 -0.8837
   79SOPE  H15R 7137   1.315   3.564   6.764  0.4026 -0.2754 -0.9511
   79SOPE  H15S 7138   1.174   3.560   6.873  0.7664  0.5276 -0.8524
   79SOPE  C216 7139   1.173   3.399   6.733 -0.2314 -0.5260 -0.0676
   79SOPE  H16R 7140   1.100   3.446   6.664 -1.5701  0.4685  1.9361
   79SOPE  H16S 7141   1.127   3.325   6.802  2.2089  0.2668  2.5976
   79SOPE  C217 7142   1.278   3.326   6.645 -0.7887 -0.1412 -0.4430
   79SOPE  H17R 7143   1.335   3.262   6.717  2.1184  1.8972 -0.7674
   79SOPE  H17S 7144   1.354   3.398   6.609 -0.6354 -0.7716 -1.4133
   79SOPE  C218 7145   1.212   3.245   6.531  0.0748  0.3646  0.2994
   79SOPE  H18R 7146   1.275   3.158   6.502  1.2020  1.0154  0.7384
   79SOPE  H18S 7147   1.194   3.303   6.439 -0.0875 -1.3073 -0.7675
   79SOPE  H18T 7148   1.114   3.201   6.559 -0.9337  0.7859 -2.3500
   79SOPE   C33 7149   1.426   3.077   7.484  0.0626  0.8715 -0.2265
   79SOPE   H3X 7150   1.328   3.045   7.442 -1.2260  1.4066  2.1747
   79SOPE   H3Y 7151   1.476   2.980   7.504  0.1128  1.3483  2.2450
   79SOPE   C34 7152   1.508   3.149   7.374  0.3021 -0.0077  0.2908
   79SOPE   H4X 7153   1.611   3.164   7.413  0.4658  0.0948 -0.1797
   79SOPE   H4Y 7154   1.470   3.251   7.352  0.4931  0.3044  1.3391
   79SOPE   C35 7155   1.506   3.072   7.242 -0.3718 -0.4775 -0.8754
   79SOPE   H5X 7156   1.538   2.970   7.270  0.9537  0.5815  1.8326
   79SOPE   H5Y 7157   1.576   3.120   7.170 -0.5824  0.6584 -0.3518
   79SOPE   C36 7158   1.373   3.054   7.163  0.1951 -0.1967 -0.3457
   79SOPE   H6X 7159   1.330   3.156   7.153 -0.6321 -0.5639 -0.5311
   79SOPE   H6Y 7160   1.301   3.005   7.231  1.6363  0.9871  2.1744
   79SOPE   C37 7161   1.405   2.995   7.029  0.3836  0.0020  0.4814
   79SOPE   H7X 7162   1.303   2.969   6.993  1.6108 -1.7788 -1.9873
   79SOPE   H7Y 7163   1.459   2.901   7.051  3.0240  0.8538 -1.7517
   79SOPE   C38 7164   1.463   3.091   6.927 -1.0008  0.2897 -0.6751
   79SOPE   H8X 7165   1.530   3.160   6.983  0.8758 -1.7955 -0.2080
   79SOPE   H8Y 7166   1.388   3.149   6.869 -0.3958  0.2852 -1.4767
   79SOPE   C39 7167   1.539   3.019   6.804  0.6796  0.1139  0.0128
   79SOPE   H9X 7168   1.634   2.966   6.826  0.2305 -0.4423  0.6282
   79SOPE   H9Y 7169   1.549   3.109   6.739 -1.5551 -0.5403 -1.3479
   79SOPE  C310 7170   1.445   2.918   6.727  0.4652 -0.1737 -0.1931
   79SOPE  H10X 7171   1.351   2.971   6.701  2.1182  2.7097 -0.8043
   79SOPE  H10Y 7172   1.423   2.840   6.803  1.6229  0.0033  0.3498
   79SOPE  C311 7173   1.520   2.864   6.602  0.3007  0.0519  0.1628
   79SOPE  H11X 7174   1.624   2.835   6.629  0.4500 -0.8396 -1.2340
   79SOPE  H11Y 7175   1.514   2.952   6.535 -0.3273  1.2860  1.7860
   79SOPE  C312 7176   1.454   2.738   6.557  0.2792  0.5902  0.4740
   79SOPE  H12X 7177   1.350   2.763   6.526  0.7504 -0.4176 -2.1518
   79SOPE  H12Y 7178   1.436   2.677   6.648 -2.8187 -1.2475 -1.2178
   79SOPE  C313 7179   1.531   2.655   6.454  0.1857 -0.4804 -0.4233
   79SOPE  H13X 7180   1.476   2.560   6.437 -0.5744 -0.1945  0.3342
   79SOPE  H13Y 7181   1.625   2.626   6.505  0.4483 -0.4084 -0.8638
   79SOPE  C314 7182   1.567   2.728   6.322  0.3116  0.1128 -0.3009
   79SOPE  H14X 7183   1.616   2.663   6.247  0.7307 -0.3711  0.3781
   79SOPE  H14Y 7184   1.633   2.815   6.341 -1.9038  1.3913  2.2768
   79SOPE  C315 7185   1.449   2.781   6.236 -0.0290 -0.3782  0.1247
   79SOPE  H15X 7186   1.414   2.877   6.280  0.6129  0.1701 -0.5388
   79SOPE  H15Y 7187   1.363   2.712   6.249 -1.7966  2.0620  2.2611
   79SOPE  C316 7188   1.493   2.792   6.095  0.1078 -0.1881 -0.0556
   79SOPE  H16X 7189   1.510   2.690   6.055  1.1952  0.3904 -1.1560
   79SOPE  H16Y 7190   1.585   2.855   6.100  0.7727 -1.0683 -0.9102
   79SOPE  C317 7191   1.398   2.873   6.014  0.6515 -0.2171 -0.0555
   79SOPE  H17X 7192   1.409   2.983   6.029 -0.1046 -0.2973  1.2609
   79SOPE  H17Y 7193   1.302   2.838   6.057  1.6459 -0.3677  2.2287
   79SOPE  C318 7194   1.408   2.843   5.865  0.3161 -0.2832 -0.0635
   79SOPE  H18X 7195   1.371   2.747   5.824 -0.7833  1.0716 -2.4660
   79SOPE  H18Y 7196   1.514   2.855   5.834  0.1984 -0.2687 -0.4709
   79SOPE  H18Z 7197   1.350   2.918   5.807 -1.2917 -1.8951 -0.6502
   80SOPE     N 7198   4.679   4.335   8.111 -0.3599 -0.3149 -0.2338
   80SOPE   HN1 7199   4.759   4.399   8.092 -0.9217  1.2613  2.3498
   80SOPE   HN2 7200   4.656   4.286   8.022 -0.6738 -1.4224  0.4407
   80SOPE   HN3 7201   4.600   4.397   8.135 -1.5306 -2.4747  2.0594
   80SOPE   C12 7202   4.704   4.234   8.216  0.2801 -0.0897 -0.4610
   80SOPE  H12A 7203   4.712   4.281   8.317  0.4138 -0.1292 -0.4528
   80SOPE  H12B 7204   4.803   4.184   8.206  0.5909  0.5757 -0.7824
   80SOPE   C11 7205   4.599   4.117   8.218 -0.0121 -0.2270 -0.0642
   80SOPE  H11A 7206   4.498   4.162   8.228  0.5572  1.4187 -1.2803
   80SOPE  H11B 7207   4.634   4.061   8.307 -0.8856  0.1843  0.5505
   80SOPE     P 7208   4.518   3.901   8.092 -0.5123 -0.2664  0.2357
   80SOPE   O13 7209   4.438   3.916   7.972 -0.5833 -0.8213 -0.5105
   80SOPE   O14 7210   4.439   3.882   8.216  0.2365 -0.4501  0.1068
   80SOPE   O12 7211   4.603   4.034   8.098 -0.0731 -0.3616 -0.3453
   80SOPE   O11 7212   4.614   3.779   8.084 -0.7118 -0.5491 -0.8998
   80SOPE    C1 7213   4.742   3.780   8.033 -0.3109 -0.2366 -0.1808
   80SOPE    HA 7214   4.803   3.715   8.099  0.4760 -1.5160 -2.0867
   80SOPE    HB 7215   4.787   3.881   8.044 -1.1709 -0.0660  2.2816
   80SOPE    C2 7216   4.775   3.725   7.882  0.0676  0.5352 -0.6321
   80SOPE    HS 7217   4.706   3.769   7.807  0.5448  2.8431  0.1974
   80SOPE   O21 7218   4.743   3.583   7.882 -0.3423 -0.1031  0.3168
   80SOPE   C21 7219   4.626   3.525   7.901  0.2870 -0.0302 -0.3612
   80SOPE   O22 7220   4.522   3.577   7.920  0.3655 -0.1725 -0.6169
   80SOPE   C22 7221   4.636   3.381   7.856  1.1441  0.1458  0.0546
   80SOPE   H2R 7222   4.662   3.325   7.948  0.8929  0.3374  0.2434
   80SOPE   H2S 7223   4.717   3.365   7.782  0.1143  0.2757 -1.1528
   80SOPE    C3 7224   4.917   3.753   7.830  0.1785  0.2108 -0.0905
   80SOPE    HX 7225   4.995   3.697   7.886 -0.8388 -0.0315  1.1289
   80SOPE    HY 7226   4.932   3.858   7.863 -0.8040  0.3889 -0.1686
   80SOPE   O31 7227   4.925   3.735   7.684  0.3622 -0.0479 -0.2281
   80SOPE   C31 7228   4.955   3.614   7.648  0.3226  0.1468  0.1216
   80SOPE   O32 7229   4.959   3.512   7.715 -0.0587 -0.0945  0.0287
   80SOPE   C32 7230   4.972   3.631   7.491 -0.0170 -0.4169 -0.4311
   80SOPE   H2X 7231   5.000   3.528   7.460  0.0692 -1.8752  3.9210
   80SOPE   H2Y 7232   5.058   3.698   7.468  0.3942 -0.6338  0.4269
   80SOPE   C23 7233   4.497   3.338   7.797 -0.7276 -0.2439  0.4468
   80SOPE   H3R 7234   4.414   3.389   7.851 -0.2662  2.6513 -1.3732
   80SOPE   H3S 7235   4.473   3.230   7.801 -1.5329 -0.0844  0.1017
   80SOPE   C24 7236   4.485   3.388   7.646  0.1978 -0.5600 -0.5271
   80SOPE   H4R 7237   4.375   3.394   7.628 -0.3406 -1.0653  2.2005
   80SOPE   H4S 7238   4.512   3.495   7.643 -0.7170 -0.3355 -1.8105
   80SOPE   C25 7239   4.539   3.301   7.538 -0.4595  0.0181  0.2558
   80SOPE   H5R 7240   4.649   3.294   7.547 -0.2388 -0.0513 -1.8252
   80SOPE   H5S 7241   4.501   3.197   7.552 -0.8928 -0.0095 -0.9429
   80SOPE   C26 7242   4.495   3.365   7.404  0.0582  0.4499  0.0088
   80SOPE   H6R 7243   4.385   3.364   7.388  0.0936 -2.8576 -0.6279
   80SOPE   H6S 7244   4.523   3.473   7.401 -0.3846  0.5557 -0.7595
   80SOPE   C27 7245   4.564   3.311   7.275  0.3933 -0.0089  0.1429
   80SOPE   H7R 7246   4.573   3.393   7.200 -1.4913 -1.4911 -1.8649
   80SOPE   H7S 7247   4.665   3.275   7.300  1.0910  0.1609 -2.1403
   80SOPE   C28 7248   4.477   3.207   7.199  0.2309 -0.4817 -0.1028
   80SOPE   H8R 7249   4.556   3.159   7.137  1.2178  0.0908  0.6784
   80SOPE   H8S 7250   4.452   3.140   7.284  0.5800 -0.6773 -0.1504
   80SOPE   C29 7251   4.351   3.255   7.134 -0.3022 -0.5221  0.8406
   80SOPE   H91 7252   4.271   3.296   7.199 -1.6876  0.0712 -1.1495
   80SOPE  C210 7253   4.320   3.228   7.005  0.2091 -0.0510  0.9530
   80SOPE  H101 7254   4.224   3.265   6.968  0.5774 -0.3888 -0.4010
   80SOPE  C211 7255   4.415   3.169   6.898  0.3783  0.0567  0.2397
   80SOPE  H11R 7256   4.439   3.062   6.916 -1.5067 -0.3596  0.4187
   80SOPE  H11S 7257   4.513   3.223   6.904 -0.7187  2.0418  1.4477
   80SOPE  C212 7258   4.355   3.184   6.758 -0.1878 -0.3682  0.6098
   80SOPE  H12R 7259   4.251   3.146   6.761 -0.5597  0.6789  1.8792
   80SOPE  H12S 7260   4.421   3.128   6.688  1.3768  0.2830  1.4929
   80SOPE  C213 7261   4.356   3.330   6.706  0.5195  0.4215  0.9424
   80SOPE  H13R 7262   4.454   3.343   6.655  0.6908 -0.8428  0.8996
   80SOPE  H13S 7263   4.338   3.415   6.774  1.2852  1.9588 -0.6888
   80SOPE  C214 7264   4.246   3.348   6.598  0.0709  0.1863 -0.3595
   80SOPE  H14R 7265   4.248   3.445   6.543  0.4374  0.4755  0.1593
   80SOPE  H14S 7266   4.147   3.331   6.645  0.5694  1.4517  1.2181
   80SOPE  C215 7267   4.252   3.241   6.486  0.1408  0.0416  0.2026
   80SOPE  H15R 7268   4.160   3.272   6.432  0.1265  0.2930  0.3655
   80SOPE  H15S 7269   4.242   3.136   6.520 -0.7683 -0.1139 -0.4884
   80SOPE  C216 7270   4.361   3.254   6.382 -0.1783 -0.0729  0.4971
   80SOPE  H16R 7271   4.460   3.253   6.431 -0.7315 -0.1269  1.6526
   80SOPE  H16S 7272   4.348   3.342   6.315  1.8139  0.6531  0.9967
   80SOPE  C217 7273   4.369   3.123   6.294 -0.8128 -0.6296  0.5913
   80SOPE  H17R 7274   4.383   3.029   6.350 -2.6168  0.0825  2.3649
   80SOPE  H17S 7275   4.460   3.132   6.230 -0.8830  0.9538  0.6598
   80SOPE  C218 7276   4.250   3.099   6.200  0.9612 -0.1239  0.9837
   80SOPE  H18R 7277   4.161   3.063   6.256 -0.6831 -1.1726 -2.0571
   80SOPE  H18S 7278   4.268   3.012   6.133 -1.4130  0.1468 -0.1351
   80SOPE  H18T 7279   4.221   3.185   6.135 -1.8732 -0.9878  0.9676
   80SOPE   C33 7280   4.841   3.678   7.416  0.3076  0.4423  0.5783
   80SOPE   H3X 7281   4.828   3.784   7.445  1.6763  0.7242  0.2085
   80SOPE   H3Y 7282   4.757   3.616   7.454  0.1824  0.7739  0.8495
   80SOPE   C34 7283   4.854   3.674   7.260 -0.1228  0.0514 -0.2349
   80SOPE   H4X 7284   4.945   3.733   7.235 -0.7382  0.0529 -2.7797
   80SOPE   H4Y 7285   4.768   3.733   7.221  0.4886  1.2838  0.2523
   80SOPE   C35 7286   4.859   3.536   7.202  0.0501  0.5395 -0.5092
   80SOPE   H5X 7287   4.771   3.471   7.219  0.8754 -0.6576 -0.6686
   80SOPE   H5Y 7288   4.942   3.484   7.256 -0.4644 -0.6481 -0.8392
   80SOPE   C36 7289   4.882   3.543   7.052 -0.4648  0.3960  0.6563
   80SOPE   H6X 7290   4.908   3.440   7.020 -3.2783 -0.1638 -0.1207
   80SOPE   H6Y 7291   4.964   3.614   7.025  1.4531 -1.7467  0.5267
   80SOPE   C37 7292   4.760   3.567   6.969 -0.2698 -0.6413 -0.2239
   80SOPE   H7X 7293   4.736   3.672   6.995  3.4451  0.4698 -0.5791
   80SOPE   H7Y 7294   4.675   3.502   6.996 -1.4262  0.8201 -0.2678
   80SOPE   C38 7295   4.801   3.551   6.821  0.0155  0.4070  0.4321
   80SOPE   H8X 7296   4.857   3.456   6.815 -1.7991 -0.6577 -0.4178
   80SOPE   H8Y 7297   4.871   3.633   6.796  0.0420 -0.2585 -1.8931
   80SOPE   C39 7298   4.682   3.555   6.713  0.0406  0.3427  0.7008
   80SOPE   H9X 7299   4.628   3.646   6.746  0.1940  0.5153  0.4805
   80SOPE   H9Y 7300   4.620   3.468   6.745 -1.6434  0.8099 -1.0928
   80SOPE  C310 7301   4.724   3.563   6.563 -0.0793 -0.0987 -0.1223
   80SOPE  H10X 7302   4.713   3.668   6.528 -1.4615 -0.7306 -1.7168
   80SOPE  H10Y 7303   4.646   3.506   6.509  2.5979 -2.4392 -1.7443
   80SOPE  C311 7304   4.865   3.515   6.526 -0.1766  0.6636  0.1050
   80SOPE  H11X 7305   4.890   3.408   6.546  1.4355  0.6555 -1.7060
   80SOPE  H11Y 7306   4.948   3.574   6.570  0.2771  3.0518 -3.5398
   80SOPE  C312 7307   4.894   3.530   6.371 -0.0724  0.3097 -0.1576
   80SOPE  H12X 7308   4.991   3.484   6.341 -0.8881 -1.2190 -0.5417
   80SOPE  H12Y 7309   4.890   3.639   6.347 -1.2360  0.8758  2.2621
   80SOPE  C313 7310   4.794   3.453   6.278 -0.1619  0.4432 -0.3596
   80SOPE  H13X 7311   4.692   3.478   6.315  0.3419  2.8269 -0.3887
   80SOPE  H13Y 7312   4.798   3.343   6.269  2.3852  0.4251  0.2765
   80SOPE  C314 7313   4.789   3.507   6.138  0.1090 -0.3500 -0.3720
   80SOPE  H14X 7314   4.775   3.618   6.140  0.2322 -0.3277 -0.6505
   80SOPE  H14Y 7315   4.699   3.461   6.091  0.6812 -0.9597 -0.8892
   80SOPE  C315 7316   4.919   3.466   6.064  0.4193 -0.2316 -0.2826
   80SOPE  H15X 7317   4.949   3.360   6.081 -2.2725 -1.1785 -0.9886
   80SOPE  H15Y 7318   5.002   3.538   6.084 -0.2088  0.4044  0.0856
   80SOPE  C316 7319   4.899   3.487   5.906 -0.7730  0.5481 -0.0633
   80SOPE  H16X 7320   4.865   3.591   5.892  0.8369  1.4510  2.0625
   80SOPE  H16Y 7321   4.823   3.412   5.876 -1.0090 -0.6370  3.0855
   80SOPE  C317 7322   5.031   3.476   5.826 -0.4518  0.3596 -0.6613
   80SOPE  H17X 7323   5.115   3.540   5.859  3.7068 -4.5691 -0.4080
   80SOPE  H17Y 7324   5.024   3.499   5.717 -0.0724  0.9879 -0.5574
   80SOPE  C318 7325   5.084   3.332   5.827 -0.5326  0.3838 -0.2162
   80SOPE  H18X 7326   5.007   3.257   5.796  0.2679 -0.8530  0.6805
   80SOPE  H18Y 7327   5.124   3.311   5.928 -1.7055  0.9762  0.3977
   80SOPE  H18Z 7328   5.163   3.324   5.750  0.6631 -1.1115  1.0923
   81SOPE     N 7329   2.337   6.490   8.507 -0.2474 -0.3324  0.2912
   81SOPE   HN1 7330   2.244   6.476   8.551 -0.8925 -1.0966 -1.2328
   81SOPE   HN2 7331   2.398   6.411   8.536  0.4258 -0.8965 -2.3795
   81SOPE   HN3 7332   2.370   6.583   8.540  0.0647 -0.0555 -0.7632
   81SOPE   C12 7333   2.336   6.499   8.355 -0.0513 -0.4465  0.2348
   81SOPE  H12A 7334   2.313   6.397   8.317 -0.2294 -0.5162  0.5315
   81SOPE  H12B 7335   2.440   6.528   8.330 -0.0544  1.0614  1.8050
   81SOPE   C11 7336   2.237   6.602   8.302  0.4939  0.7697  0.5587
   81SOPE  H11A 7337   2.137   6.559   8.326  1.6685 -2.8110 -0.3945
   81SOPE  H11B 7338   2.245   6.606   8.191  1.4763 -1.6724  0.4811
   81SOPE     P 7339   2.179   6.859   8.303 -0.1029  0.3379  0.1580
   81SOPE   O13 7340   2.158   6.938   8.428 -0.1995  0.4684 -0.2333
   81SOPE   O14 7341   2.066   6.821   8.222 -0.3675  0.0445 -0.6662
   81SOPE   O12 7342   2.257   6.728   8.356  0.0800 -0.6766 -0.2245
   81SOPE   O11 7343   2.281   6.939   8.210  0.4897 -0.4192  0.5844
   81SOPE    C1 7344   2.390   6.874   8.148  0.4174  0.1424 -0.2048
   81SOPE    HA 7345   2.409   6.772   8.186  2.8905 -0.0447 -1.6700
   81SOPE    HB 7346   2.482   6.935   8.163  0.6639 -0.1338 -0.5577
   81SOPE    C2 7347   2.365   6.869   7.991 -0.1632  0.6367  1.1192
   81SOPE    HS 7348   2.277   6.803   7.976  0.3683 -0.3770  2.2636
   81SOPE   O21 7349   2.485   6.826   7.924  1.4901 -0.1729  0.2690
   81SOPE   C21 7350   2.525   6.706   7.939  0.5092  0.0075 -0.0876
   81SOPE   O22 7351   2.474   6.624   8.011  0.3762  0.5999 -0.2342
   81SOPE   C22 7352   2.659   6.684   7.869  0.0751 -0.7903 -0.2727
   81SOPE   H2R 7353   2.746   6.704   7.935  0.9178  0.8717 -1.7833
   81SOPE   H2S 7354   2.660   6.752   7.781  0.0847  0.1421  0.4353
   81SOPE    C3 7355   2.323   7.010   7.939  0.2229  0.3571 -0.4060
   81SOPE    HX 7356   2.405   7.077   7.973 -0.2911  1.0562 -0.5248
   81SOPE    HY 7357   2.233   7.045   7.994  0.3742  0.7406 -0.4013
   81SOPE   O31 7358   2.302   7.028   7.795  0.2101 -0.4628  0.2967
   81SOPE   C31 7359   2.187   6.979   7.754  0.4495 -0.8559 -0.0994
   81SOPE   O32 7360   2.096   6.945   7.827  0.0998  0.5646  0.4847
   81SOPE   C32 7361   2.191   6.977   7.604 -0.4005  0.2395  0.2633
   81SOPE   H2X 7362   2.165   6.876   7.564 -1.6530  0.7365 -0.2024
   81SOPE   H2Y 7363   2.292   7.002   7.564 -2.0223  0.1495 -4.4652
   81SOPE   C23 7364   2.671   6.543   7.811  0.8071  0.8067  0.3979
   81SOPE   H3R 7365   2.642   6.470   7.890  1.4354 -1.7962 -1.6462
   81SOPE   H3S 7366   2.780   6.525   7.799  0.3102 -0.2307 -3.9638
   81SOPE   C24 7367   2.601   6.517   7.672 -0.7917 -1.1060  0.3397
   81SOPE   H4R 7368   2.552   6.418   7.681 -0.6241 -1.4492 -1.9361
   81SOPE   H4S 7369   2.521   6.593   7.656 -0.0461 -0.0647  1.3712
   81SOPE   C25 7370   2.699   6.526   7.556 -0.6334  0.2589 -0.4410
   81SOPE   H5R 7371   2.751   6.623   7.570 -1.2588  0.4123  0.9496
   81SOPE   H5S 7372   2.771   6.442   7.562 -0.6602  0.3472  1.4641
   81SOPE   C26 7373   2.629   6.542   7.413  0.1289  0.6279  0.6569
   81SOPE   H6R 7374   2.582   6.642   7.415 -0.8859  0.1743  0.1225
   81SOPE   H6S 7375   2.703   6.545   7.329  1.0552 -0.6630  1.3834
   81SOPE   C27 7376   2.516   6.447   7.386 -0.1382 -0.5671 -0.1995
   81SOPE   H7R 7377   2.558   6.344   7.376  2.2422  0.1442  1.5156
   81SOPE   H7S 7378   2.445   6.438   7.471 -1.8707  0.2514 -1.4959
   81SOPE   C28 7379   2.439   6.493   7.259  0.3116  0.0740  0.2225
   81SOPE   H8R 7380   2.338   6.448   7.246  0.3224 -0.0648  0.6250
   81SOPE   H8S 7381   2.414   6.600   7.272  0.5517 -0.1725  3.6926
   81SOPE   C29 7382   2.518   6.463   7.136  0.4284  0.2829  0.6067
   81SOPE   H91 7383   2.555   6.362   7.116  1.6455  0.5116  1.5634
   81SOPE  C210 7384   2.562   6.552   7.044 -0.7698  0.2436 -0.2573
   81SOPE  H101 7385   2.623   6.527   6.956  0.7926  4.2236 -0.5358
   81SOPE  C211 7386   2.545   6.705   7.049 -0.2989 -0.1107  0.5852
   81SOPE  H11R 7387   2.639   6.756   7.020 -0.2796 -1.1301 -1.3140
   81SOPE  H11S 7388   2.506   6.744   7.145 -2.2381 -2.3373  0.7833
   81SOPE  C212 7389   2.442   6.748   6.945 -0.1035 -0.5193 -0.1357
   81SOPE  H12R 7390   2.350   6.693   6.974  1.7209 -2.9291  1.5419
   81SOPE  H12S 7391   2.487   6.706   6.852 -0.5334  1.1907 -1.1445
   81SOPE  C213 7392   2.423   6.901   6.950  1.0834  0.0409  0.0049
   81SOPE  H13R 7393   2.520   6.942   6.915 -0.7321  1.2557 -4.1573
   81SOPE  H13S 7394   2.395   6.931   7.054 -0.4904 -1.3363  0.0199
   81SOPE  C214 7395   2.322   6.959   6.853 -0.2031  0.1468  0.0809
   81SOPE  H14R 7396   2.221   6.924   6.882  0.5904 -0.0692  2.7835
   81SOPE  H14S 7397   2.341   6.916   6.752 -0.4417 -1.5465  0.7356
   81SOPE  C215 7398   2.323   7.109   6.860 -0.4401 -0.6194  0.7699
   81SOPE  H15R 7399   2.413   7.159   6.818 -1.3497  0.2905 -0.1934
   81SOPE  H15S 7400   2.302   7.133   6.966  2.2374  1.6280  0.8837
   81SOPE  C216 7401   2.206   7.159   6.782 -0.2719  0.0031  0.1047
   81SOPE  H16R 7402   2.213   7.268   6.802 -2.0558  0.1222  0.2056
   81SOPE  H16S 7403   2.109   7.140   6.832 -0.4187  1.8423  0.5904
   81SOPE  C217 7404   2.207   7.145   6.632  0.6958 -0.4031  0.4814
   81SOPE  H17R 7405   2.113   7.190   6.594  1.1081  0.8158  0.8620
   81SOPE  H17S 7406   2.204   7.037   6.606 -0.0913 -0.4539  0.7639
   81SOPE  C218 7407   2.329   7.198   6.563 -0.9632 -0.5361  0.0006
   81SOPE  H18R 7408   2.424   7.147   6.591  0.6548  2.6195  0.7733
   81SOPE  H18S 7409   2.347   7.307   6.570 -2.0966 -0.4282  1.7932
   81SOPE  H18T 7410   2.319   7.181   6.453  0.9939  0.1943 -0.3341
   81SOPE   C33 7411   2.102   7.090   7.538 -0.4016  0.6389  0.0288
   81SOPE   H3X 7412   2.006   7.107   7.592 -0.9628 -0.6373 -0.5177
   81SOPE   H3Y 7413   2.082   7.056   7.434 -1.1213  0.3840  0.2449
   81SOPE   C34 7414   2.179   7.217   7.538 -0.5170  0.2965  0.2901
   81SOPE   H4X 7415   2.238   7.225   7.632 -0.5267  1.1607  0.2321
   81SOPE   H4Y 7416   2.105   7.301   7.542 -0.0499  0.7337 -0.1683
   81SOPE   C35 7417   2.273   7.245   7.419  0.2517  0.4816 -0.9134
   81SOPE   H5X 7418   2.359   7.175   7.410  1.7881  2.3751 -1.8620
   81SOPE   H5Y 7419   2.320   7.344   7.442 -0.2905  0.2183  1.6483
   81SOPE   C36 7420   2.197   7.260   7.289  0.1008  0.1730  0.2698
   81SOPE   H6X 7421   2.111   7.330   7.292 -1.6430 -1.7952 -0.8944
   81SOPE   H6Y 7422   2.157   7.168   7.242 -1.1123  0.9008 -0.1812
   81SOPE   C37 7423   2.287   7.317   7.176  0.6480  0.2293 -0.1919
   81SOPE   H7X 7424   2.236   7.294   7.080  1.6656  2.1091 -1.2509
   81SOPE   H7Y 7425   2.386   7.267   7.185  1.6632  2.0645 -0.4834
   81SOPE   C38 7426   2.298   7.469   7.178  0.2050 -0.1699 -0.1252
   81SOPE   H8X 7427   2.350   7.500   7.271  2.0622  1.8100 -1.7194
   81SOPE   H8Y 7428   2.197   7.513   7.192  0.8255  0.8432  1.4027
   81SOPE   C39 7429   2.354   7.526   7.049 -0.5979 -0.6571 -0.3387
   81SOPE   H9X 7430   2.348   7.637   7.058  2.2296 -0.3658 -1.1476
   81SOPE   H9Y 7431   2.289   7.495   6.965  1.0614  0.0289 -1.9390
   81SOPE  C310 7432   2.502   7.491   7.027  1.1381  0.3553 -0.5045
   81SOPE  H10X 7433   2.493   7.381   7.009 -0.2128  0.3527  0.0959
   81SOPE  H10Y 7434   2.564   7.502   7.119 -0.3151 -0.8667  0.6720
   81SOPE  C311 7435   2.577   7.555   6.912  0.6224  0.1092  0.2378
   81SOPE  H11X 7436   2.682   7.520   6.904  0.7402  0.2446  1.1204
   81SOPE  H11Y 7437   2.581   7.660   6.948 -1.8042 -0.7046  3.3326
   81SOPE  C312 7438   2.504   7.544   6.777 -0.1525  0.7545 -0.2680
   81SOPE  H12X 7439   2.399   7.578   6.788 -0.4600  0.0043 -0.8009
   81SOPE  H12Y 7440   2.504   7.437   6.749  0.4600  0.2535  1.4853
   81SOPE  C313 7441   2.580   7.619   6.668 -0.2331 -0.9520  0.1781
   81SOPE  H13X 7442   2.687   7.587   6.660  0.4662  1.2995 -0.1595
   81SOPE  H13Y 7443   2.585   7.728   6.689  0.7198 -1.0532  0.5564
   81SOPE  C314 7444   2.511   7.598   6.534  0.3151 -0.7398 -0.2746
   81SOPE  H14X 7445   2.410   7.644   6.541  0.8144  0.3052  0.3954
   81SOPE  H14Y 7446   2.493   7.490   6.513  0.3864 -1.1503  1.5938
   81SOPE  C315 7447   2.591   7.670   6.431 -0.0633  0.0416  1.2883
   81SOPE  H15X 7448   2.692   7.624   6.428 -0.2500 -0.3825  1.4196
   81SOPE  H15Y 7449   2.612   7.777   6.455  0.8794  0.0807  0.3973
   81SOPE  C316 7450   2.518   7.665   6.297  0.1317  0.7457 -0.2137
   81SOPE  H16X 7451   2.552   7.758   6.246  1.3633 -0.2276 -1.2465
   81SOPE  H16Y 7452   2.409   7.683   6.306  0.5253  4.3691 -1.0545
   81SOPE  C317 7453   2.553   7.555   6.207 -0.4084  0.5191  0.5090
   81SOPE  H17X 7454   2.574   7.462   6.264 -1.0841  0.6697  1.0182
   81SOPE  H17Y 7455   2.651   7.579   6.162 -0.7355  2.2643  0.6748
   81SOPE  C318 7456   2.459   7.530   6.098  0.0678  0.0113  0.3738
   81SOPE  H18X 7457   2.434   7.626   6.048  1.8472  1.5427  2.2932
   81SOPE  H18Y 7458   2.369   7.482   6.141 -0.9491  3.1082  2.0047
   81SOPE  H18Z 7459   2.495   7.468   6.013 -1.7120  1.5637 -1.6162
   82SOPE     N 7460   6.547   5.477   7.994  0.1449  0.1538 -0.0650
   82SOPE   HN1 7461   6.461   5.422   7.974 -0.5943  2.3070 -3.7178
   82SOPE   HN2 7462   6.586   5.517   7.906 -1.4821 -1.0995 -1.4213
   82SOPE   HN3 7463   6.628   5.417   8.020  1.5682  2.0365  0.0818
   82SOPE   C12 7464   6.521   5.572   8.119 -0.3881 -0.7034 -0.8327
   82SOPE  H12A 7465   6.491   5.505   8.202 -0.0362  0.2938  0.1209
   82SOPE  H12B 7466   6.432   5.633   8.092 -1.8872 -2.2522  0.3581
   82SOPE   C11 7467   6.645   5.651   8.148  0.5186 -0.2277 -0.1041
   82SOPE  H11A 7468   6.618   5.721   8.231  1.1344 -1.5910  1.2989
   82SOPE  H11B 7469   6.693   5.696   8.059  0.8998 -0.0886  0.1647
   82SOPE     P 7470   6.885   5.611   8.242  0.5230 -0.0526  0.5219
   82SOPE   O13 7471   6.969   5.498   8.287  0.2165  0.3254  0.0139
   82SOPE   O14 7472   6.874   5.726   8.334 -0.0826 -0.0975 -0.1991
   82SOPE   O12 7473   6.741   5.556   8.199 -0.3824 -0.0384 -0.5139
   82SOPE   O11 7474   6.937   5.653   8.107  0.4190  0.3258 -0.3825
   82SOPE    C1 7475   7.042   5.749   8.102  0.0852 -0.3351  0.2645
   82SOPE    HA 7476   7.121   5.696   8.044  0.1026  2.0617 -2.0789
   82SOPE    HB 7477   7.102   5.770   8.193  0.8090 -0.4010 -0.1907
   82SOPE    C2 7478   7.022   5.883   8.032 -0.6476  0.6978  0.0437
   82SOPE    HS 7479   7.115   5.937   8.004 -1.5669  1.7087 -1.2434
   82SOPE   O21 7480   6.946   5.976   8.113 -0.4056 -0.1057  0.5767
   82SOPE   C21 7481   7.019   6.045   8.205 -0.4214  0.6875  0.6768
   82SOPE   O22 7482   7.126   6.003   8.252 -0.5183  0.4905  0.0234
   82SOPE   C22 7483   6.950   6.178   8.244 -0.1728 -0.1395  0.4240
   82SOPE   H2R 7484   7.015   6.235   8.315 -1.3042 -0.0518  1.4273
   82SOPE   H2S 7485   6.855   6.166   8.301 -0.2477  1.5461  0.7105
   82SOPE    C3 7486   6.952   5.865   7.898  0.1269 -0.7316 -0.4363
   82SOPE    HX 7487   6.860   5.808   7.922  0.4768 -0.9482  0.4094
   82SOPE    HY 7488   7.020   5.806   7.833  0.8568  0.0190 -0.3760
   82SOPE   O31 7489   6.914   5.989   7.835 -0.0602  0.0899 -0.2946
   82SOPE   C31 7490   6.850   5.968   7.718  0.0025  0.5983  0.4895
   82SOPE   O32 7491   6.825   5.858   7.672  0.2132 -0.5108  0.3629
   82SOPE   C32 7492   6.798   6.093   7.661  0.0732 -0.1376  0.8518
   82SOPE   H2X 7493   6.785   6.173   7.737 -0.8510  1.6738 -1.1026
   82SOPE   H2Y 7494   6.694   6.080   7.624  0.3267  1.5916 -0.5891
   82SOPE   C23 7495   6.908   6.267   8.124 -0.3817 -0.4336  0.6630
   82SOPE   H3R 7496   6.857   6.360   8.157 -0.4050  0.2624 -1.2292
   82SOPE   H3S 7497   6.837   6.216   8.056  1.0300 -1.1054 -0.3674
   82SOPE   C24 7498   7.039   6.317   8.049 -0.2441 -0.1354 -0.1387
   82SOPE   H4R 7499   7.103   6.375   8.118 -0.1656  2.0638 -1.9232
   82SOPE   H4S 7500   7.096   6.227   8.016  2.2231  0.1264  2.9965
   82SOPE   C25 7501   7.014   6.394   7.922 -0.2653 -0.6374 -0.3007
   82SOPE   H5R 7502   6.962   6.336   7.842  0.9464 -0.3341 -1.3445
   82SOPE   H5S 7503   6.951   6.481   7.949 -0.6163 -1.2919  1.0563
   82SOPE   C26 7504   7.147   6.459   7.869  0.6735 -0.0043  0.1234
   82SOPE   H6R 7505   7.169   6.523   7.957 -1.6118 -0.2592  0.9501
   82SOPE   H6S 7506   7.232   6.388   7.856 -0.4717 -1.1884 -1.2392
   82SOPE   C27 7507   7.134   6.564   7.757 -0.2360  0.3082 -0.2620
   82SOPE   H7R 7508   7.057   6.642   7.772  1.7784  2.6949 -1.4464
   82SOPE   H7S 7509   7.233   6.615   7.760  0.2644 -0.6987  2.1399
   82SOPE   C28 7510   7.125   6.505   7.611  0.2254  0.1027 -0.5195
   82SOPE   H8R 7511   7.035   6.442   7.595  0.9928 -0.5946 -2.4576
   82SOPE   H8S 7512   7.116   6.599   7.552 -1.7320  1.0496  1.1679
   82SOPE   C29 7513   7.250   6.424   7.570  0.0564  0.4429  0.2162
   82SOPE   H91 7514   7.263   6.339   7.638 -2.5902 -0.6330 -0.4997
   82SOPE  C210 7515   7.333   6.450   7.466  0.5010 -0.4624  0.1819
   82SOPE  H101 7516   7.415   6.380   7.446  0.2744 -1.8249  3.4286
   82SOPE  C211 7517   7.311   6.563   7.359  0.2955  0.6485  0.6225
   82SOPE  H11R 7518   7.346   6.658   7.406 -0.2945  0.3861  1.6363
   82SOPE  H11S 7519   7.203   6.573   7.338 -0.0590  1.4468  2.6057
   82SOPE  C212 7520   7.378   6.530   7.226 -0.1598 -0.3587 -0.1044
   82SOPE  H12R 7521   7.348   6.438   7.170  1.8008 -0.3049 -1.3200
   82SOPE  H12S 7522   7.487   6.517   7.244 -0.3557  1.1700  2.7587
   82SOPE  C213 7523   7.360   6.641   7.122  0.2365  0.1867  0.3517
   82SOPE  H13R 7524   7.403   6.739   7.152 -1.4893  1.6637 -1.6915
   82SOPE  H13S 7525   7.254   6.670   7.104  0.2547 -0.1239 -0.2951
   82SOPE  C214 7526   7.428   6.605   6.983 -0.3789 -0.0033  0.2287
   82SOPE  H14R 7527   7.367   6.522   6.940 -1.1788  0.3492  0.6713
   82SOPE  H14S 7528   7.532   6.570   7.003 -0.4089  0.5313  1.4102
   82SOPE  C215 7529   7.420   6.715   6.865 -0.1995 -0.5087  0.3788
   82SOPE  H15R 7530   7.495   6.792   6.897  0.7848 -0.6965 -1.3631
   82SOPE  H15S 7531   7.319   6.754   6.840 -0.2904 -1.2001 -0.3691
   82SOPE  C216 7532   7.479   6.667   6.730 -0.5127  0.1565 -0.2053
   82SOPE  H16R 7533   7.420   6.578   6.699  1.0805 -1.1051  0.2004
   82SOPE  H16S 7534   7.584   6.633   6.720 -0.8493 -0.5852 -1.4768
   82SOPE  C217 7535   7.473   6.784   6.633  0.3180 -0.7627 -0.0457
   82SOPE  H17R 7536   7.544   6.866   6.659 -0.0725 -1.2083  2.7029
   82SOPE  H17S 7537   7.372   6.831   6.642  1.5424  1.7171  2.2827
   82SOPE  C218 7538   7.490   6.745   6.490 -1.0198  0.4768  0.2075
   82SOPE  H18R 7539   7.555   6.656   6.477 -0.7529  1.0852 -3.7121
   82SOPE  H18S 7540   7.527   6.826   6.424 -3.3620 -0.6160 -2.6479
   82SOPE  H18T 7541   7.389   6.718   6.453 -1.3581  0.1680  1.3010
   82SOPE   C33 7542   6.892   6.157   7.553 -0.0385  0.3887  0.2714
   82SOPE   H3X 7543   6.992   6.149   7.601 -0.1807  0.0024  0.5092
   82SOPE   H3Y 7544   6.874   6.263   7.527  1.4728  0.2375 -1.5819
   82SOPE   C34 7545   6.886   6.085   7.422 -0.4739  0.5225 -0.1401
   82SOPE   H4X 7546   6.823   5.994   7.415  0.1708  0.0416  0.1728
   82SOPE   H4Y 7547   6.986   6.046   7.390  0.4684  2.6634  0.0112
   82SOPE   C35 7548   6.857   6.188   7.310  0.0302 -0.5960 -0.3295
   82SOPE   H5X 7549   6.938   6.263   7.293 -0.5535 -0.2356 -1.5482
   82SOPE   H5Y 7550   6.755   6.224   7.335 -0.5471 -2.8296  0.7216
   82SOPE   C36 7551   6.835   6.117   7.174  0.3270  0.2920 -0.2468
   82SOPE   H6X 7552   6.732   6.075   7.173 -0.1277  1.3737 -0.2937
   82SOPE   H6Y 7553   6.899   6.027   7.162 -0.4614 -0.2712 -0.2921
   82SOPE   C37 7554   6.857   6.198   7.049 -0.4231 -0.7752  0.5143
   82SOPE   H7X 7555   6.951   6.257   7.052 -0.9976  0.3324 -1.3779
   82SOPE   H7Y 7556   6.783   6.281   7.040  1.1083  0.6153  0.3033
   82SOPE   C38 7557   6.854   6.114   6.916  0.1118 -0.0742 -0.1569
   82SOPE   H8X 7558   6.755   6.065   6.906  0.9771 -2.3033  1.3922
   82SOPE   H8Y 7559   6.929   6.032   6.917  2.3673  1.8956  1.0687
   82SOPE   C39 7560   6.881   6.197   6.791 -0.0339  0.6770  0.0704
   82SOPE   H9X 7561   6.982   6.243   6.793 -0.2653  1.2650 -1.0095
   82SOPE   H9Y 7562   6.802   6.275   6.793 -2.8698 -1.9100  4.0249
   82SOPE  C310 7563   6.859   6.115   6.662  0.1058 -0.2510 -0.2295
   82SOPE  H10X 7564   6.777   6.045   6.689  1.1625 -1.3712  0.1282
   82SOPE  H10Y 7565   6.951   6.059   6.639  0.9338  1.3367 -0.9400
   82SOPE  C311 7566   6.819   6.215   6.550 -0.1777 -0.4936  0.5629
   82SOPE  H11X 7567   6.744   6.294   6.568  0.8269  1.0538 -1.6261
   82SOPE  H11Y 7568   6.783   6.165   6.458  3.1278  0.9359 -1.7387
   82SOPE  C312 7569   6.947   6.300   6.502  0.2232  0.2366 -0.2462
   82SOPE  H12X 7570   6.988   6.361   6.585 -0.8374  0.3520  0.2015
   82SOPE  H12Y 7571   6.920   6.373   6.422 -0.7575  0.0767 -0.0743
   82SOPE  C313 7572   7.056   6.218   6.438  0.1226 -0.6949  0.1728
   82SOPE  H13X 7573   7.107   6.148   6.506  0.5274  0.4785  1.1106
   82SOPE  H13Y 7574   7.133   6.292   6.407 -0.3295 -0.0027  0.6779
   82SOPE  C314 7575   7.014   6.131   6.323  0.6530 -0.3106  0.1377
   82SOPE  H14X 7576   6.977   6.200   6.245 -0.6894 -2.8277 -1.5906
   82SOPE  H14Y 7577   6.935   6.060   6.354  0.9896  0.3945  2.8639
   82SOPE  C315 7578   7.140   6.064   6.262 -0.4244  0.1552  0.6608
   82SOPE  H15X 7579   7.174   5.984   6.331  1.4084 -0.0583 -0.4194
   82SOPE  H15Y 7580   7.218   6.141   6.243  0.5261 -0.7600  0.7551
   82SOPE  C316 7581   7.116   5.998   6.125  0.5531  0.1097  0.2068
   82SOPE  H16X 7582   7.203   5.935   6.097 -1.1533 -2.6880  0.8015
   82SOPE  H16Y 7583   7.118   6.072   6.042 -2.7251  0.4103  0.2727
   82SOPE  C317 7584   6.992   5.914   6.123  0.0977  0.4473  0.1056
   82SOPE  H17X 7585   6.907   5.976   6.160  0.2347 -0.0302  1.2778
   82SOPE  H17Y 7586   6.987   5.828   6.193  1.5125  0.5479  0.3651
   82SOPE  C318 7587   6.939   5.861   5.984 -0.1795  0.0490 -0.0522
   82SOPE  H18X 7588   6.835   5.830   6.008  0.9192 -1.7598  2.9810
   82SOPE  H18Y 7589   7.007   5.782   5.946 -0.0118 -1.3165  2.8209
   82SOPE  H18Z 7590   6.946   5.939   5.906  1.3605  0.9529  0.9342
   83SOPE     N 7591   1.684   4.022   3.922  0.3207 -0.7929 -0.0627
   83SOPE   HN1 7592   1.643   3.956   3.853  1.8505 -0.7582 -1.0674
   83SOPE   HN2 7593   1.596   4.065   3.957 -0.0173 -1.5593  0.0474
   83SOPE   HN3 7594   1.745   4.085   3.867  0.9775  0.1115  1.6203
   83SOPE   C12 7595   1.757   3.955   4.036  0.1019 -0.0552  0.2368
   83SOPE  H12A 7596   1.775   4.030   4.115  0.5695 -2.4175  2.5035
   83SOPE  H12B 7597   1.854   3.941   3.984  0.2411  1.7299 -0.0377
   83SOPE   C11 7598   1.680   3.840   4.088 -0.0730  0.6646 -0.3540
   83SOPE  H11A 7599   1.577   3.861   4.125 -1.1348 -3.0249 -0.8482
   83SOPE  H11B 7600   1.731   3.810   4.181  0.9970 -0.2020 -1.1900
   83SOPE     P 7601   1.552   3.710   3.903  0.0510  0.2175  0.5344
   83SOPE   O13 7602   1.557   3.581   3.832 -0.2780 -0.4048  0.2798
   83SOPE   O14 7603   1.549   3.821   3.806  0.0310  0.1886 -0.0122
   83SOPE   O12 7604   1.680   3.729   3.991  0.2555  0.0369 -0.7979
   83SOPE   O11 7605   1.430   3.713   3.995  0.1411 -0.3362  0.6813
   83SOPE    C1 7606   1.401   3.598   4.074  0.8338  0.2311  0.1532
   83SOPE    HA 7607   1.494   3.539   4.092  0.2470 -0.4732  0.9229
   83SOPE    HB 7608   1.335   3.528   4.019  0.8094 -1.2593  1.9944
   83SOPE    C2 7609   1.344   3.625   4.222  0.3964  1.2400  0.5225
   83SOPE    HS 7610   1.238   3.658   4.212  0.4235  1.0130 -0.7610
   83SOPE   O21 7611   1.431   3.710   4.294 -0.6233  0.5133 -0.0117
   83SOPE   C21 7612   1.377   3.797   4.363 -0.3762 -0.2588 -1.4142
   83SOPE   O22 7613   1.258   3.823   4.371  0.1352  0.1458 -0.3226
   83SOPE   C22 7614   1.484   3.859   4.453  0.5598  0.1209  0.4166
   83SOPE   H2R 7615   1.471   3.969   4.463  0.9624  0.0688  1.6306
   83SOPE   H2S 7616   1.582   3.848   4.401  0.7465  2.0437  0.2808
   83SOPE    C3 7617   1.341   3.487   4.289  0.6373  0.2344  0.2236
   83SOPE    HX 7618   1.441   3.438   4.281  1.1431  1.0139  1.4791
   83SOPE    HY 7619   1.270   3.416   4.242 -0.9692  1.7589  0.2429
   83SOPE   O31 7620   1.310   3.485   4.433 -0.1335  0.1386  0.2793
   83SOPE   C31 7621   1.179   3.496   4.455 -0.2852  0.2536 -0.2765
   83SOPE   O32 7622   1.092   3.501   4.371  0.1261 -0.1710 -0.3279
   83SOPE   C32 7623   1.151   3.501   4.605 -0.8341 -0.5710 -1.0763
   83SOPE   H2X 7624   1.044   3.528   4.619 -0.6072 -0.5999  0.9234
   83SOPE   H2Y 7625   1.213   3.582   4.647  0.2228 -2.1421  0.5527
   83SOPE   C23 7626   1.493   3.791   4.590 -0.3075  0.3799  0.1425
   83SOPE   H3R 7627   1.578   3.825   4.654 -0.8472  0.3065  0.9211
   83SOPE   H3S 7628   1.509   3.681   4.592 -0.0800  0.3976 -0.7150
   83SOPE   C24 7629   1.373   3.832   4.679  0.0514 -0.1949  0.1320
   83SOPE   H4R 7630   1.380   3.941   4.703  0.6185 -0.2372  0.1807
   83SOPE   H4S 7631   1.276   3.827   4.626 -0.1863  1.7383  0.3037
   83SOPE   C25 7632   1.369   3.760   4.810  0.5722 -0.0382 -0.4773
   83SOPE   H5R 7633   1.381   3.654   4.779  1.4964 -1.3063  3.5457
   83SOPE   H5S 7634   1.448   3.789   4.882  0.5887  2.2040 -1.3141
   83SOPE   C26 7635   1.230   3.783   4.876  0.3492  0.1967  0.2362
   83SOPE   H6R 7636   1.230   3.894   4.885  2.2847  0.2035  0.5450
   83SOPE   H6S 7637   1.153   3.734   4.814 -0.1082  0.6380  0.4485
   83SOPE   C27 7638   1.224   3.748   5.021  0.4742  0.2366 -0.4987
   83SOPE   H7R 7639   1.252   3.641   5.034  1.5645  0.6257  0.6079
   83SOPE   H7S 7640   1.306   3.802   5.074  0.2427 -1.2843  1.5116
   83SOPE   C28 7641   1.086   3.781   5.093 -0.9278 -0.7228  0.1202
   83SOPE   H8R 7642   1.089   3.723   5.188  2.8857 -1.3656 -0.2576
   83SOPE   H8S 7643   1.098   3.885   5.131 -3.2088 -0.2522 -0.2879
   83SOPE   C29 7644   0.958   3.750   5.016  0.5634 -0.3427 -0.2800
   83SOPE   H91 7645   0.953   3.787   4.913  2.0727 -1.5986 -0.8593
   83SOPE  C210 7646   0.857   3.675   5.057 -0.1666  0.4667  0.0443
   83SOPE  H101 7647   0.777   3.655   4.984 -0.6126  2.0427  0.0459
   83SOPE  C211 7648   0.843   3.608   5.196 -0.4846 -0.0815 -0.0498
   83SOPE  H11R 7649   0.921   3.642   5.267 -0.8718  0.0268  0.3309
   83SOPE  H11S 7650   0.857   3.499   5.179  0.5113  0.3585 -2.4473
   83SOPE  C212 7651   0.699   3.632   5.251  0.1411  0.3711  0.3442
   83SOPE  H12R 7652   0.626   3.619   5.168  1.1561  0.2043 -0.5464
   83SOPE  H12S 7653   0.697   3.740   5.274  3.3469  0.6229 -0.1798
   83SOPE  C213 7654   0.669   3.555   5.378 -1.2220  0.3850 -0.1950
   83SOPE  H13R 7655   0.560   3.567   5.389 -1.3591 -0.4830 -0.5363
   83SOPE  H13S 7656   0.725   3.598   5.464 -1.8377  0.8481 -0.0222
   83SOPE  C214 7657   0.705   3.409   5.373 -0.5896  0.3470 -0.3729
   83SOPE  H14R 7658   0.682   3.373   5.475  1.6933 -0.6872 -0.1671
   83SOPE  H14S 7659   0.813   3.403   5.348 -0.5930  0.3078 -0.3778
   83SOPE  C215 7660   0.632   3.320   5.276  0.5619  0.3339  0.0105
   83SOPE  H15R 7661   0.657   3.348   5.172 -1.3188 -0.0936 -0.6052
   83SOPE  H15S 7662   0.522   3.336   5.280  0.7436  1.3936  1.9307
   83SOPE  C216 7663   0.668   3.171   5.281 -0.1008  0.2511 -0.6947
   83SOPE  H16R 7664   0.588   3.118   5.224  0.2415  1.2300 -2.1421
   83SOPE  H16S 7665   0.652   3.144   5.388 -1.7732 -1.3576 -1.2936
   83SOPE  C217 7666   0.809   3.122   5.241  0.1919 -0.4511 -0.7372
   83SOPE  H17R 7667   0.847   3.030   5.291  0.5543  0.9252  1.6332
   83SOPE  H17S 7668   0.881   3.197   5.279  0.6580 -1.9803  1.5430
   83SOPE  C218 7669   0.827   3.091   5.091 -0.4032  0.0277 -0.1994
   83SOPE  H18R 7670   0.804   3.176   5.024  0.1219  0.4064  0.0957
   83SOPE  H18S 7671   0.762   3.002   5.073  1.9105 -1.8705  0.2876
   83SOPE  H18T 7672   0.929   3.060   5.059 -0.5187 -0.2525 -0.3019
   83SOPE   C33 7673   1.199   3.377   4.682 -0.0331  0.0513  0.1218
   83SOPE   H3X 7674   1.294   3.332   4.645  0.7098 -0.9637  3.0022
   83SOPE   H3Y 7675   1.125   3.298   4.657  1.1493 -1.9801  2.6096
   83SOPE   C34 7676   1.209   3.392   4.831 -0.7622  0.4935 -0.8703
   83SOPE   H4X 7677   1.125   3.448   4.878 -0.1216 -0.3655  1.4329
   83SOPE   H4Y 7678   1.302   3.450   4.849  0.8425 -2.0420 -0.4312
   83SOPE   C35 7679   1.217   3.255   4.903 -0.2613  0.3147 -0.2830
   83SOPE   H5X 7680   1.290   3.191   4.849 -1.6998 -1.2012 -0.5073
   83SOPE   H5Y 7681   1.121   3.205   4.881 -0.0014 -0.0345 -0.6207
   83SOPE   C36 7682   1.255   3.266   5.049  0.2645 -0.2499  0.4081
   83SOPE   H6X 7683   1.357   3.308   5.064 -1.2185  3.0865  2.4345
   83SOPE   H6Y 7684   1.262   3.162   5.087  1.6755 -0.3649 -0.0875
   83SOPE   C37 7685   1.149   3.338   5.134 -0.4468  0.1274  0.2768
   83SOPE   H7X 7686   1.044   3.300   5.125 -0.6195  0.1756  1.7541
   83SOPE   H7Y 7687   1.143   3.443   5.098 -0.4324  0.0751  0.1247
   83SOPE   C38 7688   1.177   3.334   5.287 -0.4151 -0.2821  0.1296
   83SOPE   H8X 7689   1.097   3.394   5.335  0.7905  1.1327  0.4458
   83SOPE   H8Y 7690   1.274   3.383   5.306 -1.7494  2.0246  1.4364
   83SOPE   C39 7691   1.176   3.196   5.358  0.6971 -0.4769  0.2271
   83SOPE   H9X 7692   1.264   3.134   5.329  0.2115 -1.1450  0.1531
   83SOPE   H9Y 7693   1.082   3.148   5.324  1.6489 -0.9197 -1.9702
   83SOPE  C310 7694   1.183   3.214   5.507  0.0077  0.6079  0.3603
   83SOPE  H10X 7695   1.107   3.286   5.543  1.5140  1.9984  0.8724
   83SOPE  H10Y 7696   1.277   3.260   5.542  0.3095 -0.3013  0.7753
   83SOPE  C311 7697   1.171   3.080   5.591  0.6230 -0.0888  0.5006
   83SOPE  H11X 7698   1.249   3.004   5.571 -1.4115 -1.8986 -0.9568
   83SOPE  H11Y 7699   1.081   3.039   5.540  1.2531 -2.2650  1.0394
   83SOPE  C312 7700   1.128   3.099   5.741  0.5008  0.4728 -0.0778
   83SOPE  H12X 7701   1.117   2.993   5.773  0.1167 -0.2520 -2.3970
   83SOPE  H12Y 7702   1.026   3.143   5.751  0.6598  0.8116  0.0814
   83SOPE  C313 7703   1.227   3.169   5.831  0.6178 -1.0696 -0.0005
   83SOPE  H13X 7704   1.321   3.177   5.773  0.9628 -1.5463  0.4799
   83SOPE  H13Y 7705   1.249   3.112   5.924 -0.8410 -2.5575 -0.5110
   83SOPE  C314 7706   1.196   3.313   5.875 -0.7938 -0.3841 -0.3802
   83SOPE  H14X 7707   1.175   3.373   5.783  2.6486  1.2023 -0.2562
   83SOPE  H14Y 7708   1.287   3.361   5.917  0.6784 -1.2578 -2.3915
   83SOPE  C315 7709   1.074   3.325   5.965 -0.1817  0.5398  0.3984
   83SOPE  H15X 7710   1.100   3.280   6.064  0.9946  0.6356  0.1560
   83SOPE  H15Y 7711   0.982   3.275   5.928 -0.8801  0.6070  1.9748
   83SOPE  C316 7712   1.025   3.474   5.995 -0.4782 -0.1946 -0.4359
   83SOPE  H16X 7713   0.925   3.459   6.042 -1.3413  4.3495 -0.3780
   83SOPE  H16Y 7714   0.994   3.529   5.904 -2.4927 -0.4835  0.0091
   83SOPE  C317 7715   1.129   3.555   6.077  0.2448  0.2554 -0.4400
   83SOPE  H17X 7716   1.227   3.505   6.071  0.4372  0.7316 -1.7933
   83SOPE  H17Y 7717   1.100   3.568   6.183  1.9453  0.5731  0.0085
   83SOPE  C318 7718   1.157   3.692   6.017 -0.6165 -0.3286  0.3880
   83SOPE  H18X 7719   1.076   3.768   6.027  1.4456  1.8958  1.3237
   83SOPE  H18Y 7720   1.207   3.674   5.919 -0.4895 -1.8866  0.7171
   83SOPE  H18Z 7721   1.237   3.742   6.075 -2.2675  2.7270  0.2325
   84SOPE     N 7722   3.733   3.607   4.014  0.2779  0.5273  0.6202
   84SOPE   HN1 7723   3.717   3.590   4.115  1.5016  0.2520  0.7916
   84SOPE   HN2 7724   3.667   3.557   3.952  0.1799  1.6239 -0.1714
   84SOPE   HN3 7725   3.827   3.568   3.993  0.6649  1.3845  0.7289
   84SOPE   C12 7726   3.712   3.753   3.973 -0.0396  0.3793  0.3378
   84SOPE  H12A 7727   3.810   3.787   3.933 -0.1257  1.1093  0.7278
   84SOPE  H12B 7728   3.687   3.807   4.067  4.1749  1.2585  1.1793
   84SOPE   C11 7729   3.605   3.770   3.862 -0.1028  0.2800  0.1032
   84SOPE  H11A 7730   3.521   3.708   3.900  0.2721 -1.5261 -1.8141
   84SOPE  H11B 7731   3.641   3.713   3.773 -1.3430  0.1282 -0.3276
   84SOPE     P 7732   3.471   3.999   3.881 -0.4673  0.0084 -0.4056
   84SOPE   O13 7733   3.339   3.958   3.836 -0.3707 -0.3280  1.1193
   84SOPE   O14 7734   3.516   4.137   3.836 -0.4030  0.6655  0.0052
   84SOPE   O12 7735   3.573   3.901   3.819  0.0826 -1.1778  0.8245
   84SOPE   O11 7736   3.497   3.966   4.031  0.3769 -0.5440  0.3652
   84SOPE    C1 7737   3.393   3.950   4.131  0.0811  0.3140  0.2415
   84SOPE    HA 7738   3.443   3.898   4.216 -2.0038  0.2603  1.5185
   84SOPE    HB 7739   3.310   3.883   4.096  0.4128 -0.0832  0.2075
   84SOPE    C2 7740   3.337   4.086   4.176 -0.2840  0.4933  0.6434
   84SOPE    HS 7741   3.312   4.147   4.086 -1.3221  0.8899  1.1749
   84SOPE   O21 7742   3.441   4.152   4.244 -0.6150  0.7635 -0.0637
   84SOPE   C21 7743   3.424   4.276   4.263  0.6526  0.6536  0.1774
   84SOPE   O22 7744   3.334   4.347   4.223 -0.3875  0.0137 -0.0565
   84SOPE   C22 7745   3.551   4.336   4.326  0.6852 -0.4673  0.0271
   84SOPE   H2R 7746   3.584   4.412   4.252  1.1087  0.7752  1.4306
   84SOPE   H2S 7747   3.626   4.257   4.345  0.6032 -0.3882  0.7049
   84SOPE    C3 7748   3.204   4.074   4.258  0.0839  0.2241 -0.0852
   84SOPE    HX 7749   3.146   3.988   4.218  0.8973 -0.5044  0.2718
   84SOPE    HY 7750   3.136   4.159   4.237 -0.9238  0.0158  2.1179
   84SOPE   O31 7751   3.229   4.067   4.402 -0.1073 -0.5788 -0.3579
   84SOPE   C31 7752   3.244   3.947   4.452 -0.4400 -0.2685  0.2123
   84SOPE   O32 7753   3.217   3.843   4.395  0.7454 -0.3753  0.1270
   84SOPE   C32 7754   3.315   3.962   4.584  0.1025  0.0264 -0.4479
   84SOPE   H2X 7755   3.259   4.035   4.647  0.0677 -1.7045  1.6354
   84SOPE   H2Y 7756   3.419   3.996   4.564  0.1319  1.5490  1.9203
   84SOPE   C23 7757   3.524   4.422   4.458 -0.3697  0.2569  0.2597
   84SOPE   H3R 7758   3.480   4.520   4.433 -2.5881 -1.2912 -2.5731
   84SOPE   H3S 7759   3.620   4.446   4.509 -1.6611  3.6714  1.2993
   84SOPE   C24 7760   3.428   4.348   4.556 -0.3220  0.1056 -0.1244
   84SOPE   H4R 7761   3.327   4.320   4.519 -0.2885 -0.7039  0.3627
   84SOPE   H4S 7762   3.476   4.250   4.574  0.0841  0.0100 -1.6480
   84SOPE   C25 7763   3.406   4.423   4.693  0.3722 -0.4673 -0.1006
   84SOPE   H5R 7764   3.492   4.494   4.693 -2.0918  2.7393 -1.2501
   84SOPE   H5S 7765   3.314   4.484   4.687  0.5555 -0.2280 -0.5111
   84SOPE   C26 7766   3.408   4.341   4.825  0.5075  0.4996  0.2559
   84SOPE   H6R 7767   3.373   4.238   4.806 -1.2314  1.2370 -0.8804
   84SOPE   H6S 7768   3.512   4.331   4.862  1.1941 -1.9559 -2.0401
   84SOPE   C27 7769   3.340   4.407   4.936  0.0738 -0.0634 -0.3036
   84SOPE   H7R 7770   3.371   4.514   4.943 -1.2939  0.2944  0.7096
   84SOPE   H7S 7771   3.230   4.416   4.923 -0.1417 -1.4341  0.4172
   84SOPE   C28 7772   3.368   4.329   5.068 -0.3415 -0.3240  0.8164
   84SOPE   H8R 7773   3.309   4.235   5.058  0.6530 -0.7628 -1.5943
   84SOPE   H8S 7774   3.475   4.303   5.083  0.0782 -0.3012 -1.6975
   84SOPE   C29 7775   3.323   4.410   5.194 -0.3085  0.4223 -0.8188
   84SOPE   H91 7776   3.355   4.516   5.200 -0.4904  0.3971  1.8612
   84SOPE  C210 7777   3.269   4.356   5.304 -0.6508 -0.1624  0.3264
   84SOPE  H101 7778   3.239   4.414   5.392 -1.2431 -1.5825  1.0998
   84SOPE  C211 7779   3.255   4.207   5.324 -0.0370 -0.3127  1.0316
   84SOPE  H11R 7780   3.306   4.192   5.422  0.1164 -0.0240  0.9987
   84SOPE  H11S 7781   3.309   4.145   5.250 -2.1778  0.0450 -0.9265
   84SOPE  C212 7782   3.113   4.158   5.341 -0.0400 -0.3457 -0.1904
   84SOPE  H12R 7783   3.055   4.139   5.248 -3.1177  0.2050  1.4565
   84SOPE  H12S 7784   3.045   4.231   5.391  1.5176 -0.5283  2.3487
   84SOPE  C213 7785   3.111   4.034   5.433  0.0842  0.2324  0.3741
   84SOPE  H13R 7786   3.182   4.047   5.518 -0.0700  1.0187  0.3974
   84SOPE  H13S 7787   3.166   3.956   5.377  1.9940 -0.3785  2.9269
   84SOPE  C214 7788   2.966   3.980   5.450 -0.4370  0.3631 -0.0612
   84SOPE  H14R 7789   2.966   3.872   5.480 -2.1298  0.5316  0.6417
   84SOPE  H14S 7790   2.909   3.997   5.356  0.3542  1.0551 -0.4238
   84SOPE  C215 7791   2.907   4.040   5.573 -0.0111 -0.2254 -1.6102
   84SOPE  H15R 7792   2.875   4.140   5.538  1.3664 -0.0217 -2.3566
   84SOPE  H15S 7793   2.975   4.053   5.659 -1.8608  0.4327 -0.1759
   84SOPE  C216 7794   2.773   3.969   5.610  0.2355  0.0116 -0.3120
   84SOPE  H16R 7795   2.785   3.858   5.614 -0.3675 -0.0663 -0.5144
   84SOPE  H16S 7796   2.688   3.995   5.544  0.8464 -0.2191 -1.2024
   84SOPE  C217 7797   2.716   4.004   5.749  0.2062 -1.0085 -0.5306
   84SOPE  H17R 7798   2.793   4.006   5.830  0.2257  0.6426 -0.5574
   84SOPE  H17S 7799   2.644   3.924   5.775 -0.0895 -1.1160 -1.6279
   84SOPE  C218 7800   2.642   4.146   5.738 -0.2731  0.0208 -0.7893
   84SOPE  H18R 7801   2.570   4.159   5.822  0.2725  1.1897 -0.4776
   84SOPE  H18S 7802   2.570   4.148   5.654 -0.1036 -1.5135 -0.9905
   84SOPE  H18T 7803   2.706   4.237   5.731  0.7392 -0.6495 -0.5483
   84SOPE   C33 7804   3.323   3.826   4.660  0.1317 -0.3321 -0.2680
   84SOPE   H3X 7805   3.426   3.791   4.638  0.4796  0.6445 -0.2405
   84SOPE   H3Y 7806   3.249   3.751   4.624 -1.8696  0.9840  0.8862
   84SOPE   C34 7807   3.331   3.838   4.814 -0.3550  0.0899  0.1492
   84SOPE   H4X 7808   3.341   3.730   4.839  1.5860 -0.0860 -1.1415
   84SOPE   H4Y 7809   3.237   3.876   4.859  0.2122 -0.1679  1.6185
   84SOPE   C35 7810   3.449   3.919   4.872  0.7790 -0.6160 -0.0405
   84SOPE   H5X 7811   3.446   4.023   4.832  0.0053 -0.5918  0.0676
   84SOPE   H5Y 7812   3.537   3.863   4.835  0.1555 -2.2695  0.8884
   84SOPE   C36 7813   3.456   3.944   5.024  0.4789  0.8003 -0.1644
   84SOPE   H6X 7814   3.373   4.003   5.067 -0.4020 -0.3329 -0.2791
   84SOPE   H6Y 7815   3.537   4.020   5.034 -0.8375  2.5247 -1.8491
   84SOPE   C37 7816   3.479   3.815   5.107  0.5754  0.0463 -0.3592
   84SOPE   H7X 7817   3.563   3.753   5.069  0.7558 -0.2321  0.4552
   84SOPE   H7Y 7818   3.393   3.744   5.101  0.5061  0.0590  0.3858
   84SOPE   C38 7819   3.510   3.834   5.252  0.2016  0.1083 -0.0207
   84SOPE   H8X 7820   3.526   3.738   5.305  0.6390 -0.6967 -1.5578
   84SOPE   H8Y 7821   3.422   3.881   5.303 -0.7025 -1.4152 -0.1396
   84SOPE   C39 7822   3.639   3.920   5.269  0.0898 -0.5511  0.6129
   84SOPE   H9X 7823   3.646   4.026   5.236 -0.5416 -0.9431 -0.8444
   84SOPE   H9Y 7824   3.720   3.867   5.214 -1.4960 -0.2874 -2.1423
   84SOPE  C310 7825   3.694   3.922   5.413  0.1409  0.0522 -0.5079
   84SOPE  H10X 7826   3.614   3.876   5.475  0.0661 -1.0811 -1.4302
   84SOPE  H10Y 7827   3.693   4.023   5.459 -2.2826 -0.2523  0.2609
   84SOPE  C311 7828   3.825   3.844   5.420  0.1768 -0.1244  0.8178
   84SOPE  H11X 7829   3.918   3.883   5.372 -0.5565 -2.1577 -2.5596
   84SOPE  H11Y 7830   3.809   3.741   5.382  0.6706  0.2907 -0.5877
   84SOPE  C312 7831   3.861   3.824   5.568  0.2296 -0.1853 -0.0375
   84SOPE  H12X 7832   3.842   3.923   5.616 -1.7007  0.8506 -2.6950
   84SOPE  H12Y 7833   3.969   3.798   5.559  0.5208 -0.3521  2.9352
   84SOPE  C313 7834   3.787   3.721   5.652  0.0403 -0.4472  0.1293
   84SOPE  H13X 7835   3.796   3.616   5.616  1.9489 -0.0414 -0.6403
   84SOPE  H13Y 7836   3.679   3.742   5.633  0.0449 -0.9817 -0.5186
   84SOPE  C314 7837   3.809   3.714   5.806 -0.6093 -0.3731  0.2917
   84SOPE  H14X 7838   3.920   3.712   5.813 -0.6639 -0.5035  1.4667
   84SOPE  H14Y 7839   3.764   3.621   5.845  1.6931 -1.4350  0.5826
   84SOPE  C315 7840   3.738   3.818   5.889  0.6354  0.0087 -0.3418
   84SOPE  H15X 7841   3.627   3.817   5.876  0.7656  0.8517 -1.6897
   84SOPE  H15Y 7842   3.772   3.914   5.846  2.4154 -0.9150 -1.0910
   84SOPE  C316 7843   3.779   3.806   6.038  0.1887 -0.4230 -0.2732
   84SOPE  H16X 7844   3.784   3.913   6.066  0.5220 -0.2374 -0.9953
   84SOPE  H16Y 7845   3.886   3.776   6.047  1.0915  2.0963 -1.7716
   84SOPE  C317 7846   3.686   3.720   6.130 -0.0867  0.6128  0.7722
   84SOPE  H17X 7847   3.692   3.617   6.091 -1.0840  0.7105  0.3272
   84SOPE  H17Y 7848   3.577   3.742   6.130 -0.4794 -1.1883  0.4853
   84SOPE  C318 7849   3.724   3.731   6.282  0.2296 -1.2558  0.1888
   84SOPE  H18X 7850   3.831   3.746   6.309  0.4834 -0.6473 -1.0795
   84SOPE  H18Y 7851   3.675   3.655   6.346 -0.8537  0.5151  1.5477
   84SOPE  H18Z 7852   3.684   3.829   6.314  2.2896  0.0063 -0.9055
   85SOPE     N 7853   3.488   0.729   3.849 -0.0087 -0.1847  0.4695
   85SOPE   HN1 7854   3.507   0.681   3.759  1.3348 -0.2696  0.7831
   85SOPE   HN2 7855   3.408   0.795   3.840  1.5225  1.5576 -1.0608
   85SOPE   HN3 7856   3.568   0.792   3.866 -0.2510 -0.4971  3.3317
   85SOPE   C12 7857   3.487   0.621   3.954  0.3884  0.1608 -0.3721
   85SOPE  H12A 7858   3.502   0.671   4.052  2.0485 -0.8870 -0.0566
   85SOPE  H12B 7859   3.565   0.545   3.935 -0.8627 -1.7061  1.5115
   85SOPE   C11 7860   3.353   0.542   3.965  0.0060 -0.3074  0.2802
   85SOPE  H11A 7861   3.264   0.605   3.987  0.7157  0.7928  0.0588
   85SOPE  H11B 7862   3.366   0.469   4.048  0.5687  0.5680  0.9747
   85SOPE     P 7863   3.205   0.416   3.788  0.1207 -0.3397  0.1857
   85SOPE   O13 7864   3.230   0.313   3.690  0.1822 -0.2120 -0.2203
   85SOPE   O14 7865   3.128   0.530   3.731  0.1586 -0.1179  0.0222
   85SOPE   O12 7866   3.337   0.478   3.841 -0.2444  0.0458 -0.0722
   85SOPE   O11 7867   3.134   0.357   3.912 -0.1766  0.5245 -0.0086
   85SOPE    C1 7868   3.164   0.229   3.965  0.1534  0.2222 -0.2323
   85SOPE    HA 7869   3.272   0.208   3.951  0.7281  1.0796  2.2571
   85SOPE    HB 7870   3.124   0.139   3.915 -0.1227 -0.7290  1.6087
   85SOPE    C2 7871   3.139   0.209   4.121 -0.2140  0.3137  0.2228
   85SOPE    HS 7872   3.028   0.198   4.117 -0.1839  0.3344 -1.3974
   85SOPE   O21 7873   3.184   0.321   4.199 -0.1884 -0.4001  0.7116
   85SOPE   C21 7874   3.114   0.359   4.299 -0.3477 -0.6514  0.5030
   85SOPE   O22 7875   3.015   0.304   4.344 -0.0904 -0.0909 -0.3536
   85SOPE   C22 7876   3.163   0.497   4.353 -0.0361  0.2874  0.4124
   85SOPE   H2R 7877   3.095   0.579   4.324  2.2372  1.7972 -1.0043
   85SOPE   H2S 7878   3.254   0.532   4.299 -0.6153  3.0023  1.0306
   85SOPE    C3 7879   3.222   0.082   4.169  0.6453  0.1824  1.3236
   85SOPE    HX 7880   3.325   0.098   4.131 -0.1922 -1.7057 -2.1936
   85SOPE    HY 7881   3.183  -0.004   4.112 -2.0340  0.8009  2.0773
   85SOPE   O31 7882   3.220   0.069   4.309  0.1150  0.0856 -0.1908
   85SOPE   C31 7883   3.112   0.009   4.365  0.4967 -0.3973  0.0200
   85SOPE   O32 7884   3.028  -0.047   4.300  0.9891  0.6788  0.1269
   85SOPE   C32 7885   3.132  -0.011   4.517  0.6247 -0.3673 -0.1923
   85SOPE   H2X 7886   3.242  -0.029   4.527  1.0025  1.6957 -0.0179
   85SOPE   H2Y 7887   3.077  -0.103   4.546  1.2311 -1.4609 -2.3121
   85SOPE   C23 7888   3.180   0.499   4.506  0.5977 -0.1347 -0.2746
   85SOPE   H3R 7889   3.229   0.597   4.522 -2.4284  1.2474  1.3134
   85SOPE   H3S 7890   3.233   0.407   4.540 -2.1320 -1.5614  0.4032
   85SOPE   C24 7891   3.045   0.507   4.585  1.0451  0.2732 -0.2577
   85SOPE   H4R 7892   3.003   0.607   4.561 -0.2392 -0.5098 -1.4062
   85SOPE   H4S 7893   2.974   0.427   4.554  0.0888  0.6746  0.7977
   85SOPE   C25 7894   3.041   0.505   4.739  0.0111  0.1813  0.1205
   85SOPE   H5R 7895   2.939   0.542   4.761  1.1544  3.7849  0.0707
   85SOPE   H5S 7896   3.052   0.401   4.776 -2.5389 -0.5917 -1.0966
   85SOPE   C26 7897   3.154   0.590   4.797 -0.0449 -0.0850  0.0229
   85SOPE   H6R 7898   3.255   0.557   4.763  0.4265  0.7742  0.5610
   85SOPE   H6S 7899   3.155   0.694   4.756  3.0387  0.2766  0.7421
   85SOPE   C27 7900   3.152   0.589   4.954  0.4589 -0.4069 -0.1864
   85SOPE   H7R 7901   3.227   0.664   4.987  0.3719  0.7847 -2.5184
   85SOPE   H7S 7902   3.050   0.612   4.992  0.5788  0.8696 -0.5779
   85SOPE   C28 7903   3.202   0.460   5.012  0.3536 -0.1402  0.3224
   85SOPE   H8R 7904   3.121   0.391   4.979  0.2952  0.4119 -0.7378
   85SOPE   H8S 7905   3.294   0.429   4.958 -1.1512 -1.7742 -1.4389
   85SOPE   C29 7906   3.229   0.453   5.155  0.1104 -0.8014  0.6052
   85SOPE   H91 7907   3.318   0.509   5.187 -0.6772  0.8517 -0.0116
   85SOPE  C210 7908   3.163   0.390   5.252  0.1499 -0.2121  0.5193
   85SOPE  H101 7909   3.186   0.402   5.359 -1.6363  0.9580  0.8114
   85SOPE  C211 7910   3.030   0.322   5.230 -1.0416 -0.3924 -0.2461
   85SOPE  H11R 7911   3.004   0.254   5.314 -1.1947  0.1592  0.1664
   85SOPE  H11S 7912   3.043   0.247   5.149  2.2459  0.4338 -0.5897
   85SOPE  C212 7913   2.908   0.410   5.187  0.1734  0.4207  0.4009
   85SOPE  H12R 7914   2.824   0.338   5.176  2.4219 -2.1930 -0.8399
   85SOPE  H12S 7915   2.923   0.444   5.083  1.3358 -3.0340 -0.7015
   85SOPE  C213 7916   2.882   0.528   5.280  0.6387 -0.2364  0.0338
   85SOPE  H13R 7917   2.817   0.606   5.234 -0.2453 -0.4041  0.9772
   85SOPE  H13S 7918   2.975   0.589   5.283  1.3482 -0.6559 -4.7893
   85SOPE  C214 7919   2.839   0.488   5.425 -0.0078 -0.2231  0.1944
   85SOPE  H14R 7920   2.920   0.430   5.473  0.6582 -0.4488 -1.1542
   85SOPE  H14S 7921   2.747   0.427   5.414  0.8827 -2.1297  2.4975
   85SOPE  C215 7922   2.807   0.608   5.516 -0.1942 -0.1157  0.1571
   85SOPE  H15R 7923   2.698   0.598   5.534 -0.0712 -1.0571  0.4533
   85SOPE  H15S 7924   2.837   0.699   5.459  1.1335 -0.8821 -0.4422
   85SOPE  C216 7925   2.876   0.609   5.657 -0.0816 -0.0128 -0.2464
   85SOPE  H16R 7926   2.986   0.613   5.650 -0.0381  2.6756  0.9050
   85SOPE  H16S 7927   2.857   0.514   5.711 -1.0887 -1.1451 -2.4400
   85SOPE  C217 7928   2.842   0.738   5.738  0.8176  0.5352 -0.3621
   85SOPE  H17R 7929   2.798   0.811   5.668  1.0226  0.6123 -0.4106
   85SOPE  H17S 7930   2.940   0.774   5.779  0.3418  1.3731  0.0560
   85SOPE  C218 7931   2.746   0.704   5.846  0.6792  0.1148  0.0232
   85SOPE  H18R 7932   2.655   0.657   5.802 -0.4603  2.1537  0.0505
   85SOPE  H18S 7933   2.721   0.793   5.908 -0.0483  2.5331 -3.4664
   85SOPE  H18T 7934   2.780   0.633   5.924  0.8793 -1.8137 -1.7495
   85SOPE   C33 7935   3.109   0.111   4.606 -0.3933  0.0893 -0.4116
   85SOPE   H3X 7936   3.017   0.163   4.572 -1.0099 -1.1783 -0.7654
   85SOPE   H3Y 7937   3.189   0.187   4.612 -0.6837  0.2863  1.5977
   85SOPE   C34 7938   3.097   0.061   4.751 -1.3302  0.0227  0.3117
   85SOPE   H4X 7939   3.110   0.156   4.806  0.8898  1.3204 -2.2471
   85SOPE   H4Y 7940   3.192   0.004   4.765 -1.4763 -1.5301 -3.6811
   85SOPE   C35 7941   2.977  -0.033   4.777 -0.7330 -0.4282  0.1213
   85SOPE   H5X 7942   3.011  -0.139   4.788 -1.6699 -0.8685 -1.0288
   85SOPE   H5Y 7943   2.913  -0.028   4.687  0.7736  1.1160 -0.9302
   85SOPE   C36 7944   2.887  -0.013   4.894 -0.1349  0.2663 -0.5601
   85SOPE   H6X 7945   2.821  -0.102   4.906  0.3940 -0.3411 -1.9960
   85SOPE   H6Y 7946   2.822   0.075   4.876 -1.1964 -0.4337 -0.2890
   85SOPE   C37 7947   2.977   0.005   5.025  0.6184  0.0993 -0.0166
   85SOPE   H7X 7948   2.902   0.051   5.094 -1.9285 -2.2387 -1.0262
   85SOPE   H7Y 7949   3.060   0.077   5.016  2.3736 -1.5832  1.8307
   85SOPE   C38 7950   3.012  -0.128   5.085  0.3726  0.1548 -0.2092
   85SOPE   H8X 7951   3.056  -0.194   5.007  0.7864 -0.3207  0.4205
   85SOPE   H8Y 7952   2.927  -0.187   5.125 -1.6896  2.0798 -1.5446
   85SOPE   C39 7953   3.117  -0.130   5.198 -0.2770  0.1499 -0.8599
   85SOPE   H9X 7954   3.213  -0.083   5.168  0.8036 -2.4620 -1.7465
   85SOPE   H9Y 7955   3.145  -0.233   5.227  1.0248  0.4456 -1.0289
   85SOPE  C310 7956   3.072  -0.072   5.337 -0.0596 -0.4339  0.9147
   85SOPE  H10X 7957   2.968  -0.106   5.355 -1.2742  2.7138  0.6045
   85SOPE  H10Y 7958   3.080   0.039   5.333  1.2404 -0.5065  0.9378
   85SOPE  C311 7959   3.167  -0.112   5.450 -0.4654 -0.2525  0.7043
   85SOPE  H11X 7960   3.266  -0.081   5.411 -0.3788 -2.0333 -0.6337
   85SOPE  H11Y 7961   3.176  -0.223   5.455  1.8226 -0.1530 -0.1254
   85SOPE  C312 7962   3.128  -0.056   5.591 -0.1122  0.4574 -0.0449
   85SOPE  H12X 7963   3.047  -0.113   5.642  0.0900 -0.1935 -0.4401
   85SOPE  H12Y 7964   3.084   0.046   5.579  0.8415  0.7220 -1.3679
   85SOPE  C313 7965   3.242  -0.066   5.690 -0.7761  0.6372  0.4234
   85SOPE  H13X 7966   3.317   0.003   5.647 -1.6787  0.1211 -2.1535
   85SOPE  H13Y 7967   3.287  -0.167   5.696 -0.4366  0.5801 -1.9484
   85SOPE  C314 7968   3.205  -0.027   5.836  0.2461 -0.2218 -0.8547
   85SOPE  H14X 7969   3.134   0.058   5.838 -0.0736 -0.4938  0.7675
   85SOPE  H14Y 7970   3.298   0.008   5.887 -0.7601  1.0218  0.2127
   85SOPE  C315 7971   3.161  -0.147   5.913 -0.0278  0.1309 -0.3181
   85SOPE  H15X 7972   3.240  -0.226   5.913 -0.7879 -0.6655 -1.7895
   85SOPE  H15Y 7973   3.070  -0.187   5.865 -0.6359  1.5842 -0.4253
   85SOPE  C316 7974   3.133  -0.097   6.060  0.3745 -0.0066  0.5331
   85SOPE  H16X 7975   3.038  -0.040   6.050  0.5860  0.0139 -1.8345
   85SOPE  H16Y 7976   3.203  -0.018   6.093 -0.8520  1.4651 -0.2585
   85SOPE  C317 7977   3.119  -0.211   6.157 -0.3015 -0.5715  0.0391
   85SOPE  H17X 7978   3.098  -0.305   6.102 -1.8154 -1.2399  1.6814
   85SOPE  H17Y 7979   3.024  -0.189   6.209  0.1541  2.4802 -0.2564
   85SOPE  C318 7980   3.233  -0.234   6.247  0.0269  0.6942  0.4647
   85SOPE  H18X 7981   3.260  -0.138   6.296  0.6978  1.2425 -0.9208
   85SOPE  H18Y 7982   3.325  -0.283   6.207 -0.5394  0.0872 -0.1169
   85SOPE  H18Z 7983   3.197  -0.307   6.323 -0.7298 -0.0100 -0.5424
   86SOPE     N 7984   6.425   0.154   3.543  0.7271 -0.8022 -0.6047
   86SOPE   HN1 7985   6.434   0.054   3.571  1.1267 -1.1853 -2.0342
   86SOPE   HN2 7986   6.518   0.198   3.531 -0.0961  0.5386 -2.3901
   86SOPE   HN3 7987   6.371   0.198   3.621 -1.9826 -2.0110 -1.6731
   86SOPE   C12 7988   6.349   0.158   3.422 -0.6872  0.0514 -0.1089
   86SOPE  H12A 7989   6.267   0.085   3.439 -2.3232  2.2302  1.9505
   86SOPE  H12B 7990   6.422   0.127   3.343  0.3354 -1.1108  1.2390
   86SOPE   C11 7991   6.303   0.300   3.384  0.8130 -0.3353 -0.2507
   86SOPE  H11A 7992   6.283   0.301   3.275  1.7004 -1.4001 -0.4391
   86SOPE  H11B 7993   6.380   0.371   3.419 -0.5132  0.6675  0.7594
   86SOPE     P 7994   6.165   0.432   3.577 -0.3294 -0.3389  0.1332
   86SOPE   O13 7995   6.021   0.454   3.602 -0.2050  0.1092  0.5266
   86SOPE   O14 7996   6.250   0.549   3.550  0.3578 -0.0504  0.1470
   86SOPE   O12 7997   6.181   0.336   3.455  0.5470 -0.2348  0.7596
   86SOPE   O11 7998   6.244   0.350   3.687 -0.5557 -0.0548 -0.1039
   86SOPE    C1 7999   6.312   0.413   3.794 -0.3920 -0.7136  0.1114
   86SOPE    HA 8000   6.377   0.499   3.765  0.7578 -0.6799  2.5547
   86SOPE    HB 8001   6.385   0.340   3.834  0.6649 -0.3641 -1.1005
   86SOPE    C2 8002   6.216   0.482   3.893  0.3895  0.4027  0.2377
   86SOPE    HS 8003   6.133   0.408   3.898  1.0483 -0.4432 -0.7627
   86SOPE   O21 8004   6.177   0.609   3.843  0.0945  0.2041 -0.4143
   86SOPE   C21 8005   6.040   0.628   3.850 -0.0630  0.1041 -0.7217
   86SOPE   O22 8006   5.958   0.548   3.886  0.8252  0.2335 -0.0965
   86SOPE   C22 8007   6.009   0.760   3.790  0.2637 -0.3145 -0.0023
   86SOPE   H2R 8008   5.906   0.745   3.750 -0.7030 -0.5760  2.3914
   86SOPE   H2S 8009   6.078   0.786   3.707 -0.2860 -1.0999 -0.7240
   86SOPE    C3 8010   6.276   0.493   4.038 -0.7762 -0.3492 -0.1527
   86SOPE    HX 8011   6.337   0.586   4.040 -0.8601 -0.2653 -1.0021
   86SOPE    HY 8012   6.344   0.405   4.046  0.0636  0.2683 -0.3891
   86SOPE   O31 8013   6.180   0.486   4.145 -0.3807  0.2743 -0.3400
   86SOPE   C31 8014   6.139   0.366   4.183  0.0519  0.3620  0.0128
   86SOPE   O32 8015   6.161   0.255   4.135 -0.1002 -0.4114  0.1784
   86SOPE   C32 8016   6.027   0.378   4.288  0.6871 -0.8641 -0.5574
   86SOPE   H2X 8017   5.978   0.279   4.285 -1.2520  0.0744 -2.1197
   86SOPE   H2Y 8018   5.951   0.456   4.267 -0.8108 -1.5327  1.8829
   86SOPE   C23 8019   5.999   0.864   3.903  0.0995 -0.6975  0.3769
   86SOPE   H3R 8020   6.097   0.915   3.907 -0.6744  0.7988  1.1467
   86SOPE   H3S 8021   5.965   0.820   4.000  2.1802 -1.7098  0.6907
   86SOPE   C24 8022   5.891   0.969   3.860  0.4536 -0.4111 -0.5162
   86SOPE   H4R 8023   5.870   0.969   3.751  2.1868  3.0362 -0.9714
   86SOPE   H4S 8024   5.794   0.942   3.907  0.6433  3.1313  2.3644
   86SOPE   C25 8025   5.934   1.101   3.917 -0.5195 -0.1013  0.8448
   86SOPE   H5R 8026   6.029   1.128   3.866 -0.9510  2.4420  1.2869
   86SOPE   H5S 8027   5.851   1.166   3.883 -0.7275 -1.3687 -1.2609
   86SOPE   C26 8028   5.954   1.104   4.068 -1.0526 -0.0272  0.6098
   86SOPE   H6R 8029   5.867   1.066   4.126 -0.0394 -0.4734  1.8829
   86SOPE   H6S 8030   6.050   1.057   4.097 -0.5855  0.5950  0.1040
   86SOPE   C27 8031   5.957   1.243   4.111  0.3735 -0.9676  0.2916
   86SOPE   H7R 8032   6.039   1.298   4.062  0.3279 -1.2670 -0.1248
   86SOPE   H7S 8033   5.863   1.289   4.073  0.2697 -0.7925  0.7449
   86SOPE   C28 8034   5.948   1.266   4.268 -0.5680  0.8583 -0.2603
   86SOPE   H8R 8035   5.924   1.372   4.288 -0.4751  0.8680 -0.1970
   86SOPE   H8S 8036   5.877   1.190   4.307  0.2130  0.0031 -0.4551
   86SOPE   C29 8037   6.091   1.239   4.321 -0.1811  0.4367  0.5452
   86SOPE   H91 8038   6.140   1.165   4.256 -1.5195  0.4750 -0.5516
   86SOPE  C210 8039   6.159   1.305   4.415  0.0223  0.1670  0.4698
   86SOPE  H101 8040   6.250   1.252   4.445 -1.7758 -2.9007  0.9825
   86SOPE  C211 8041   6.111   1.414   4.498 -0.5141  0.0119  0.4465
   86SOPE  H11R 8042   6.001   1.430   4.491 -0.2696  2.0731  0.4729
   86SOPE  H11S 8043   6.142   1.506   4.444 -0.4768 -0.1310  0.2253
   86SOPE  C212 8044   6.161   1.432   4.635 -0.4425 -0.1598 -0.2038
   86SOPE  H12R 8045   6.124   1.517   4.697  1.5115 -0.3687  1.3503
   86SOPE  H12S 8046   6.272   1.435   4.631 -0.3713 -2.3299 -3.4728
   86SOPE  C213 8047   6.129   1.308   4.716 -0.1202 -0.1236 -0.9449
   86SOPE  H13R 8048   6.193   1.230   4.669  0.7088  1.9813 -3.5286
   86SOPE  H13S 8049   6.020   1.286   4.706 -0.2263  0.1325 -0.4288
   86SOPE  C214 8050   6.161   1.323   4.869 -0.1356 -0.3259  0.3265
   86SOPE  H14R 8051   6.080   1.395   4.893  0.1733  1.1600 -2.5881
   86SOPE  H14S 8052   6.264   1.360   4.889 -1.2160  1.1054  4.3927
   86SOPE  C215 8053   6.133   1.189   4.934 -0.1309  0.6211  0.0695
   86SOPE  H15R 8054   6.194   1.106   4.893  2.4690  1.9234  1.0551
   86SOPE  H15S 8055   6.024   1.171   4.921  0.0137 -0.2126 -0.0508
   86SOPE  C216 8056   6.166   1.200   5.088 -0.0221 -0.4941 -0.3065
   86SOPE  H16R 8057   6.141   1.109   5.148 -0.1379  0.4964  1.2033
   86SOPE  H16S 8058   6.107   1.283   5.132  0.0603 -0.4695 -0.2408
   86SOPE  C217 8059   6.311   1.218   5.135  0.0180 -0.3226 -0.7325
   86SOPE  H17R 8060   6.355   1.299   5.074 -0.4797  0.2467 -0.3502
   86SOPE  H17S 8061   6.363   1.125   5.102  0.9370 -0.2915  0.5535
   86SOPE  C218 8062   6.324   1.243   5.284 -0.6940  0.5905 -0.3896
   86SOPE  H18R 8063   6.231   1.205   5.330 -1.8108  0.6905 -2.4264
   86SOPE  H18S 8064   6.335   1.353   5.289 -0.4708  0.6409 -1.6063
   86SOPE  H18T 8065   6.413   1.205   5.339  1.0869  3.4190 -1.0583
   86SOPE   C33 8066   6.090   0.415   4.427 -0.3211 -0.3241  0.4862
   86SOPE   H3X 8067   6.116   0.522   4.413 -2.3729  0.0093 -1.3532
   86SOPE   H3Y 8068   6.178   0.354   4.456  0.6046  0.7014 -0.0665
   86SOPE   C34 8069   5.991   0.395   4.537 -0.2467  0.3932 -0.8473
   86SOPE   H4X 8070   5.963   0.288   4.531  0.0678  0.2183  0.4737
   86SOPE   H4Y 8071   5.902   0.460   4.526 -1.1477 -0.4327  1.0703
   86SOPE   C35 8072   6.058   0.416   4.675  0.7168  0.3360  0.5194
   86SOPE   H5X 8073   5.969   0.426   4.741 -0.3677  1.8532 -1.0826
   86SOPE   H5Y 8074   6.112   0.513   4.676  0.1548  0.7144 -1.2045
   86SOPE   C36 8075   6.159   0.308   4.724 -0.0046  0.7758  0.6231
   86SOPE   H6X 8076   6.261   0.320   4.681 -0.4323 -0.1485 -0.6916
   86SOPE   H6Y 8077   6.130   0.203   4.708  0.6165  0.6512  0.2654
   86SOPE   C37 8078   6.188   0.335   4.874  0.1119 -0.2986  0.2933
   86SOPE   H7X 8079   6.098   0.329   4.939  0.1621 -1.5792  0.2572
   86SOPE   H7Y 8080   6.250   0.427   4.877  3.2739 -2.2945  0.3378
   86SOPE   C38 8081   6.279   0.229   4.948 -0.1586 -0.3621 -0.9077
   86SOPE   H8X 8082   6.373   0.218   4.889  1.2626  1.2021  0.9408
   86SOPE   H8Y 8083   6.224   0.133   4.961 -1.1386  0.1680 -1.0721
   86SOPE   C39 8084   6.335   0.266   5.086 -0.0229 -0.4812  0.3025
   86SOPE   H9X 8085   6.267   0.324   5.152  0.9623 -0.6781  1.5311
   86SOPE   H9Y 8086   6.427   0.325   5.066 -1.2346  0.8799 -1.5679
   86SOPE  C310 8087   6.356   0.137   5.160 -1.0985  0.5400  0.3707
   86SOPE  H10X 8088   6.424   0.070   5.103 -2.3471  0.1044 -0.6655
   86SOPE  H10Y 8089   6.257   0.086   5.166 -0.9050 -0.0334 -0.9827
   86SOPE  C311 8090   6.420   0.156   5.297 -0.1532  0.4579 -0.1932
   86SOPE  H11X 8091   6.506   0.227   5.297 -0.2114  0.6734  3.4115
   86SOPE  H11Y 8092   6.446   0.062   5.349 -3.8146 -1.3780 -1.3276
   86SOPE  C312 8093   6.326   0.236   5.393  0.1960 -0.6151  0.0996
   86SOPE  H12X 8094   6.293   0.336   5.356 -1.3555 -0.6190  1.3628
   86SOPE  H12Y 8095   6.391   0.250   5.482 -0.0739 -0.4411  0.2725
   86SOPE  C313 8096   6.198   0.170   5.448 -0.7298  0.7947  0.4882
   86SOPE  H13X 8097   6.229   0.088   5.515 -1.5128 -0.2767 -0.4263
   86SOPE  H13Y 8098   6.141   0.108   5.376  0.9431 -3.5951  2.5959
   86SOPE  C314 8099   6.100   0.261   5.521  0.0323 -0.6078 -0.7025
   86SOPE  H14X 8100   6.014   0.201   5.558  0.0620 -1.2056 -1.5886
   86SOPE  H14Y 8101   6.055   0.333   5.450 -0.7991 -1.1938 -0.7865
   86SOPE  C315 8102   6.159   0.340   5.644 -0.0418 -0.1678 -0.3642
   86SOPE  H15X 8103   6.233   0.415   5.608  1.4181 -1.3365  0.0821
   86SOPE  H15Y 8104   6.209   0.259   5.702 -0.4395  0.8393  1.4822
   86SOPE  C316 8105   6.048   0.401   5.735 -0.7037  0.4483 -0.7142
   86SOPE  H16X 8106   6.105   0.450   5.817  2.0208 -3.1513 -0.2274
   86SOPE  H16Y 8107   5.986   0.316   5.772 -1.6055  1.0451 -0.7984
   86SOPE  C317 8108   5.962   0.507   5.661 -0.1285 -0.5072 -0.2162
   86SOPE  H17X 8109   5.910   0.472   5.568  2.6493 -0.8503 -1.7455
   86SOPE  H17Y 8110   6.026   0.592   5.631  0.2269 -0.1554  1.4853
   86SOPE  C318 8111   5.852   0.560   5.752 -0.0658  0.0652 -0.3544
   86SOPE  H18X 8112   5.899   0.608   5.841 -1.1588  1.0026 -0.2651
   86SOPE  H18Y 8113   5.788   0.479   5.793 -0.4822  0.7210  0.3276
   86SOPE  H18Z 8114   5.796   0.644   5.705  0.5847  0.9568  0.4122
   87SOPE     N 8115   1.919   6.480   3.869  0.2189 -0.0676  0.4086
   87SOPE   HN1 8116   1.900   6.565   3.811 -1.0885 -0.4319  0.2756
   87SOPE   HN2 8117   1.944   6.403   3.804 -1.6253 -0.6519  0.3267
   87SOPE   HN3 8118   1.828   6.450   3.909  0.5568  2.0992  3.0724
   87SOPE   C12 8119   2.004   6.505   3.988  0.0711 -0.5780  0.3869
   87SOPE  H12A 8120   2.103   6.536   3.948 -0.2662 -1.2521 -1.0117
   87SOPE  H12B 8121   2.015   6.406   4.037 -1.6322  0.4151  2.9819
   87SOPE   C11 8122   1.937   6.600   4.087 -0.3268 -0.5727  0.0499
   87SOPE  H11A 8123   2.021   6.651   4.139  0.9618 -0.9539 -1.5938
   87SOPE  H11B 8124   1.891   6.536   4.165  2.6745 -1.5269  1.1815
   87SOPE     P 8125   1.869   6.846   4.022  0.3260  0.2404 -0.1405
   87SOPE   O13 8126   1.755   6.897   3.945  0.0854  0.2297 -0.4960
   87SOPE   O14 8127   1.999   6.866   3.966 -0.4337 -0.7138 -0.8628
   87SOPE   O12 8128   1.846   6.693   4.020  0.1913  0.1954  0.0229
   87SOPE   O11 8129   1.862   6.884   4.178 -0.4631  0.4411 -0.5947
   87SOPE    C1 8130   1.725   6.873   4.233  0.3681  0.2602  0.4631
   87SOPE    HA 8131   1.724   6.779   4.292  1.2433  0.5360  0.9366
   87SOPE    HB 8132   1.649   6.862   4.152 -0.5121 -1.2658  1.4355
   87SOPE    C2 8133   1.698   6.990   4.322  0.3285 -0.2849 -0.5985
   87SOPE    HS 8134   1.691   7.068   4.242 -3.0409 -1.4787 -1.6568
   87SOPE   O21 8135   1.798   6.992   4.422 -0.5586  0.3226 -0.0762
   87SOPE   C21 8136   1.889   7.088   4.420 -0.0843  0.5678  0.1683
   87SOPE   O22 8137   1.906   7.171   4.335 -0.1618  0.1113  0.1608
   87SOPE   C22 8138   1.958   7.091   4.559  0.2197  0.2650  0.7343
   87SOPE   H2R 8139   1.982   6.986   4.587 -1.9367 -0.8446 -1.1633
   87SOPE   H2S 8140   1.882   7.135   4.626  0.4301  0.6631  0.7107
   87SOPE    C3 8141   1.552   6.996   4.385 -0.3599  0.8665  0.4141
   87SOPE    HX 8142   1.477   6.987   4.303  0.9267  1.5133 -0.8794
   87SOPE    HY 8143   1.531   7.099   4.420  0.8693  0.9329  1.0174
   87SOPE   O31 8144   1.535   6.891   4.489  0.5543 -0.0430  0.6223
   87SOPE   C31 8145   1.572   6.933   4.613 -0.1434  0.7146 -0.5149
   87SOPE   O32 8146   1.598   7.045   4.642  0.5625  0.2982 -0.3196
   87SOPE   C32 8147   1.580   6.813   4.702  0.2225  0.4784 -0.2559
   87SOPE   H2X 8148   1.687   6.820   4.731  0.9433  0.7031 -2.7384
   87SOPE   H2Y 8149   1.564   6.715   4.652  0.2291  0.4543 -0.2108
   87SOPE   C23 8150   2.089   7.180   4.564 -0.0094  0.2024  0.1360
   87SOPE   H3R 8151   2.051   7.285   4.559  0.4446  0.4623  1.6861
   87SOPE   H3S 8152   2.158   7.167   4.478 -0.7015  2.0175 -0.7748
   87SOPE   C24 8153   2.151   7.171   4.701  0.3600 -0.5553 -0.0127
   87SOPE   H4R 8154   2.226   7.249   4.724 -0.8552  0.4125  0.8233
   87SOPE   H4S 8155   2.071   7.196   4.774 -0.1351  0.7179 -0.9490
   87SOPE   C25 8156   2.211   7.038   4.735 -0.6334  0.8234  0.2678
   87SOPE   H5R 8157   2.132   6.961   4.720 -1.3941  1.0966  2.4915
   87SOPE   H5S 8158   2.294   7.024   4.662  0.1561  0.0442  1.2908
   87SOPE   C26 8159   2.273   7.031   4.878  0.5937 -0.7249 -0.8281
   87SOPE   H6R 8160   2.328   6.936   4.893 -0.2703 -0.7149  4.2324
   87SOPE   H6S 8161   2.361   7.098   4.890  0.3341 -0.1363 -2.0290
   87SOPE   C27 8162   2.163   7.042   4.989 -0.7333  0.9638  0.0956
   87SOPE   H7R 8163   2.130   7.149   4.986 -0.7044  1.0020  0.9532
   87SOPE   H7S 8164   2.078   6.982   4.952 -0.7395  1.6221 -1.0322
   87SOPE   C28 8165   2.205   7.005   5.126  0.1070 -0.1776 -0.5520
   87SOPE   H8R 8166   2.235   6.898   5.125 -0.7650 -0.4318 -1.5349
   87SOPE   H8S 8167   2.297   7.063   5.148 -1.2777  1.7078  0.5974
   87SOPE   C29 8168   2.099   7.041   5.228 -0.2490 -0.1688 -0.0668
   87SOPE   H91 8169   2.039   7.128   5.199  0.5965 -0.1996 -2.0671
   87SOPE  C210 8170   2.066   6.968   5.334 -0.2798 -0.6931 -0.2246
   87SOPE  H101 8171   1.998   7.017   5.404 -0.1513 -0.3629 -0.3318
   87SOPE  C211 8172   2.129   6.850   5.400 -0.4044  0.2365 -0.4001
   87SOPE  H11R 8173   2.218   6.818   5.341  0.4629 -0.0490  1.0157
   87SOPE  H11S 8174   2.069   6.759   5.422 -0.5258  0.3171 -0.3945
   87SOPE  C212 8175   2.214   6.889   5.522 -0.2485 -0.2912 -0.0441
   87SOPE  H12R 8176   2.153   6.948   5.594  0.8286  0.7011  0.0911
   87SOPE  H12S 8177   2.291   6.958   5.481  2.0877 -2.3425  0.6604
   87SOPE  C213 8178   2.278   6.785   5.613 -0.5889 -0.0330  0.4145
   87SOPE  H13R 8179   2.337   6.834   5.694  0.7292  0.5254 -0.8309
   87SOPE  H13S 8180   2.353   6.743   5.542  0.1860  1.2770  0.4226
   87SOPE  C214 8181   2.182   6.682   5.674 -0.1484 -0.9601 -0.1548
   87SOPE  H14R 8182   2.235   6.597   5.724 -2.9041 -1.2193  2.7024
   87SOPE  H14S 8183   2.115   6.633   5.600 -0.2755 -1.5998  0.3700
   87SOPE  C215 8184   2.078   6.743   5.774  0.8056 -0.0316 -0.1713
   87SOPE  H15R 8185   1.979   6.740   5.722  1.3503  1.3982 -1.3820
   87SOPE  H15S 8186   2.106   6.850   5.780 -0.1971  0.4873 -3.0290
   87SOPE  C216 8187   2.071   6.664   5.910  0.3514 -0.4990 -0.2820
   87SOPE  H16R 8188   2.176   6.660   5.945  1.2168  0.6495 -2.5471
   87SOPE  H16S 8189   2.054   6.554   5.906 -0.7472 -0.4234  1.3491
   87SOPE  C217 8190   1.974   6.716   6.013 -0.2890 -0.0844 -0.7873
   87SOPE  H17R 8191   1.868   6.684   5.998  0.3831 -2.0019 -1.9062
   87SOPE  H17S 8192   1.968   6.826   6.000  1.8942  0.1773  0.0189
   87SOPE  C218 8193   2.023   6.705   6.162 -0.8194  0.1426  0.4620
   87SOPE  H18R 8194   2.030   6.598   6.187 -4.6083  0.1511  2.3553
   87SOPE  H18S 8195   1.955   6.755   6.235  0.0386 -2.1016  2.9380
   87SOPE  H18T 8196   2.121   6.757   6.168  0.4077 -2.0167  0.0137
   87SOPE   C33 8197   1.489   6.833   4.826 -0.1887  0.1889 -0.5517
   87SOPE   H3X 8198   1.386   6.843   4.786 -0.5613 -0.6685  0.1540
   87SOPE   H3Y 8199   1.517   6.932   4.868  0.9209 -0.0010 -0.8060
   87SOPE   C34 8200   1.490   6.727   4.941  0.0640  0.1122 -0.2679
   87SOPE   H4X 8201   1.443   6.633   4.904 -1.1836  0.1632  1.0739
   87SOPE   H4Y 8202   1.420   6.767   5.017 -3.2828 -2.7811 -1.5369
   87SOPE   C35 8203   1.629   6.706   5.014  0.5377  0.4406  0.0919
   87SOPE   H5X 8204   1.633   6.797   5.077 -0.2292  1.3877 -1.1804
   87SOPE   H5Y 8205   1.711   6.700   4.940  0.9170  0.1979  0.5220
   87SOPE   C36 8206   1.615   6.574   5.092  0.3665  0.1912 -0.1612
   87SOPE   H6X 8207   1.611   6.487   5.024 -1.1514 -0.2712  0.4608
   87SOPE   H6Y 8208   1.530   6.569   5.164  0.1430  0.4749 -0.4010
   87SOPE   C37 8209   1.741   6.553   5.171  0.3768 -0.4960  0.5175
   87SOPE   H7X 8210   1.833   6.584   5.116 -0.8444 -0.7697 -1.7996
   87SOPE   H7Y 8211   1.755   6.443   5.182  1.4699 -0.2478  2.0341
   87SOPE   C38 8212   1.742   6.603   5.313 -0.2167  0.6789  0.2271
   87SOPE   H8X 8213   1.846   6.577   5.341  0.5018 -1.4375 -3.6561
   87SOPE   H8Y 8214   1.670   6.546   5.376  2.7180 -1.5136  1.8437
   87SOPE   C39 8215   1.727   6.754   5.338 -0.9579  1.0096  0.6344
   87SOPE   H9X 8216   1.625   6.777   5.301 -0.2216  0.6463 -1.8623
   87SOPE   H9Y 8217   1.814   6.790   5.279 -0.6401 -0.2462  0.2877
   87SOPE  C310 8218   1.762   6.802   5.478  0.1579  0.7597  0.6849
   87SOPE  H10X 8219   1.802   6.906   5.475 -3.1322  2.1519  0.1062
   87SOPE  H10Y 8220   1.842   6.743   5.527  1.5176 -0.0343 -2.2656
   87SOPE  C311 8221   1.633   6.799   5.565  0.3065  0.9739  0.4989
   87SOPE  H11X 8222   1.592   6.696   5.568 -0.1138  1.1608  2.0090
   87SOPE  H11Y 8223   1.555   6.860   5.515  0.7925  0.3612 -1.0722
   87SOPE  C312 8224   1.655   6.840   5.713 -0.3544 -0.7304 -0.0085
   87SOPE  H12X 8225   1.715   6.933   5.727 -0.5887 -0.7455  1.1509
   87SOPE  H12Y 8226   1.720   6.761   5.757 -0.5000 -0.8194  0.0449
   87SOPE  C313 8227   1.530   6.850   5.801 -0.4967 -0.1101  0.6140
   87SOPE  H13X 8228   1.479   6.752   5.795  1.8556 -1.3171 -1.6907
   87SOPE  H13Y 8229   1.462   6.926   5.757  1.4999  1.4309  0.0038
   87SOPE  C314 8230   1.569   6.880   5.941 -0.6114  0.5387 -0.0750
   87SOPE  H14X 8231   1.586   6.989   5.951  0.8450  0.3485 -0.1896
   87SOPE  H14Y 8232   1.662   6.823   5.963 -1.3488 -0.5254  0.3843
   87SOPE  C315 8233   1.470   6.852   6.056 -0.7418 -0.0521 -0.5151
   87SOPE  H15X 8234   1.377   6.904   6.027  1.2189  2.0603 -3.6090
   87SOPE  H15Y 8235   1.506   6.890   6.154 -1.1393 -1.1414  0.0808
   87SOPE  C316 8236   1.458   6.694   6.064 -0.0058 -0.8145 -0.3308
   87SOPE  H16X 8237   1.554   6.640   6.052 -0.1867 -0.9385 -1.2988
   87SOPE  H16Y 8238   1.399   6.658   5.977 -0.6228  0.7484 -0.5966
   87SOPE  C317 8239   1.389   6.657   6.197  0.0056  0.6151  0.2967
   87SOPE  H17X 8240   1.357   6.551   6.190 -1.7696  1.1329  0.1465
   87SOPE  H17Y 8241   1.293   6.712   6.205 -1.7199 -2.3459  1.3154
   87SOPE  C318 8242   1.470   6.665   6.327 -0.5070  0.1009  0.2798
   87SOPE  H18X 8243   1.420   6.618   6.414 -0.9534 -0.7462 -0.4244
   87SOPE  H18Y 8244   1.478   6.774   6.347 -2.1671  0.3530 -0.3097
   87SOPE  H18Z 8245   1.568   6.613   6.323 -0.5029 -0.1828  2.6866
   88SOPE     N 8246   0.986   6.300   3.911 -0.2778 -0.1389  0.7092
   88SOPE   HN1 8247   1.086   6.307   3.884 -0.5790  0.7379 -0.2542
   88SOPE   HN2 8248   0.958   6.200   3.914 -0.1900 -0.1554  1.0064
   88SOPE   HN3 8249   0.929   6.340   3.833 -1.3234 -0.0113  1.5099
   88SOPE   C12 8250   0.950   6.378   4.035  0.2114  0.7336  0.1605
   88SOPE  H12A 8251   0.989   6.320   4.121 -1.5277  1.3172  1.4044
   88SOPE  H12B 8252   0.839   6.387   4.039  0.3985  3.4990  2.1863
   88SOPE   C11 8253   1.014   6.520   4.053 -0.0244 -0.6171 -0.1524
   88SOPE  H11A 8254   0.957   6.573   4.133  0.1446  1.3944 -1.2902
   88SOPE  H11B 8255   1.001   6.574   3.956  0.8786 -0.5659 -0.2504
   88SOPE     P 8256   1.258   6.623   4.066 -0.0619 -0.1954 -0.0119
   88SOPE   O13 8257   1.202   6.757   4.080  0.6729 -0.5260 -0.4876
   88SOPE   O14 8258   1.328   6.583   3.946 -0.3797  0.5373  0.2113
   88SOPE   O12 8259   1.151   6.511   4.088 -1.0933  0.0715  0.2360
   88SOPE   O11 8260   1.349   6.593   4.199 -0.0386 -0.3070 -0.7370
   88SOPE    C1 8261   1.412   6.464   4.211  0.7157 -0.2223  0.2479
   88SOPE    HA 8262   1.489   6.448   4.133 -0.7475 -0.4861 -1.2055
   88SOPE    HB 8263   1.333   6.386   4.202  0.5461 -0.1811  1.2794
   88SOPE    C2 8264   1.491   6.450   4.348 -0.1159 -0.1934 -0.6784
   88SOPE    HS 8265   1.526   6.346   4.338 -0.3462 -0.1694 -1.7864
   88SOPE   O21 8266   1.408   6.487   4.461 -0.2068  0.7579 -0.3986
   88SOPE   C21 8267   1.315   6.396   4.476 -0.1085  0.3082  0.6381
   88SOPE   O22 8268   1.321   6.278   4.437  0.0166 -0.2233 -0.5244
   88SOPE   C22 8269   1.189   6.458   4.528  0.0128  0.3982 -0.1022
   88SOPE   H2R 8270   1.131   6.498   4.442  1.1964 -0.7782 -1.4930
   88SOPE   H2S 8271   1.223   6.532   4.604  1.4544 -1.5645  1.2586
   88SOPE    C3 8272   1.615   6.539   4.343  0.3857  0.2180 -0.3949
   88SOPE    HX 8273   1.576   6.637   4.307 -1.1928  0.4803  1.7418
   88SOPE    HY 8274   1.683   6.501   4.265 -2.9679 -2.3022 -2.3992
   88SOPE   O31 8275   1.680   6.559   4.473  0.6070 -0.3632  0.0081
   88SOPE   C31 8276   1.773   6.475   4.503 -0.2225 -0.0005  0.6014
   88SOPE   O32 8277   1.790   6.366   4.452 -0.4080  0.4723  0.4474
   88SOPE   C32 8278   1.859   6.530   4.617 -0.2609  0.2332 -0.5781
   88SOPE   H2X 8279   1.903   6.441   4.667  3.5138  1.2042 -1.8766
   88SOPE   H2Y 8280   1.795   6.576   4.695  1.3272 -1.2743  1.7420
   88SOPE   C23 8281   1.090   6.363   4.603  0.2122  0.4166 -0.3709
   88SOPE   H3R 8282   1.072   6.280   4.531  0.2761 -1.0330  1.2276
   88SOPE   H3S 8283   0.995   6.413   4.631  1.2631  1.9421  0.6319
   88SOPE   C24 8284   1.145   6.303   4.738 -0.8960 -0.1501 -0.2427
   88SOPE   H4R 8285   1.178   6.200   4.715  1.5024 -0.1982  2.8022
   88SOPE   H4S 8286   1.239   6.354   4.768  0.0775 -1.9361 -0.1362
   88SOPE   C25 8287   1.043   6.312   4.845  0.1401  0.3237 -0.1659
   88SOPE   H5R 8288   0.944   6.281   4.804  0.2623 -1.4374  0.7872
   88SOPE   H5S 8289   1.061   6.235   4.923  0.2148 -0.7158 -1.1816
   88SOPE   C26 8290   1.030   6.452   4.902 -0.5796 -0.3216 -0.0502
   88SOPE   H6R 8291   1.046   6.528   4.822  1.1749 -1.2856 -0.6830
   88SOPE   H6S 8292   0.928   6.469   4.943 -1.4381 -0.9178 -1.8160
   88SOPE   C27 8293   1.120   6.475   5.026  0.0902 -0.5232 -0.1150
   88SOPE   H7R 8294   1.106   6.393   5.100  1.2197 -0.6048  0.0270
   88SOPE   H7S 8295   1.222   6.463   4.986  0.3518 -2.3590  0.9765
   88SOPE   C28 8296   1.094   6.618   5.084 -0.1431 -0.5241 -0.3485
   88SOPE   H8R 8297   1.126   6.684   5.000  0.9004 -2.1125 -1.2657
   88SOPE   H8S 8298   0.989   6.638   5.114 -0.5098 -0.7172 -1.4629
   88SOPE   C29 8299   1.189   6.657   5.197 -0.4995 -0.3233 -0.0846
   88SOPE   H91 8300   1.260   6.740   5.182  0.1721 -0.6817  1.0405
   88SOPE  C210 8301   1.160   6.636   5.329 -0.5476  0.0410 -0.3530
   88SOPE  H101 8302   1.234   6.671   5.403  0.2069  0.7082 -1.4010
   88SOPE  C211 8303   1.056   6.549   5.387 -0.3311  0.2003  0.0541
   88SOPE  H11R 8304   1.034   6.465   5.318  0.2784 -0.3387  0.5147
   88SOPE  H11S 8305   0.970   6.620   5.382 -0.8960 -0.3724  1.3293
   88SOPE  C212 8306   1.063   6.494   5.532 -0.0865 -0.2952 -0.1444
   88SOPE  H12R 8307   1.136   6.410   5.522  2.2238  1.6091 -0.1802
   88SOPE  H12S 8308   0.964   6.454   5.563 -0.0906 -0.1663  0.0075
   88SOPE  C213 8309   1.107   6.587   5.643 -0.5167 -0.1591  0.0747
   88SOPE  H13R 8310   1.206   6.628   5.614 -1.3065  0.5119 -1.8727
   88SOPE  H13S 8311   1.125   6.520   5.729  0.7026  1.5015  1.1754
   88SOPE  C214 8312   1.011   6.706   5.673  0.5086  0.0790  0.2200
   88SOPE  H14R 8313   0.911   6.661   5.692  0.7998 -1.1402 -0.9750
   88SOPE  H14S 8314   0.986   6.763   5.581 -0.6446  0.9865  1.0667
   88SOPE  C215 8315   1.055   6.803   5.779  0.2363  0.6773 -0.6416
   88SOPE  H15R 8316   1.010   6.902   5.754  1.9845  2.0992  1.4358
   88SOPE  H15S 8317   1.163   6.831   5.784  0.2894  0.2370  1.5556
   88SOPE  C216 8318   0.996   6.770   5.918 -0.0799 -0.9963  0.7341
   88SOPE  H16R 8319   1.040   6.674   5.952  2.4803  0.4295  1.7386
   88SOPE  H16S 8320   0.885   6.765   5.909 -0.2733  1.8436  0.5773
   88SOPE  C217 8321   1.025   6.887   6.014  0.5157 -0.2996  0.1904
   88SOPE  H17R 8322   0.978   6.979   5.975 -0.8722  0.5117  3.4555
   88SOPE  H17S 8323   1.136   6.896   6.022  0.7548 -1.0462 -1.7632
   88SOPE  C218 8324   0.973   6.844   6.153  0.2147 -0.0477  0.1715
   88SOPE  H18R 8325   0.977   6.930   6.223 -3.8432 -0.4260  1.1249
   88SOPE  H18S 8326   1.015   6.750   6.194 -2.4498 -1.9829 -1.1867
   88SOPE  H18T 8327   0.865   6.820   6.139 -0.3819  1.8273  1.2031
   88SOPE   C33 8328   1.983   6.611   4.578 -0.1071 -0.3232  0.1729
   88SOPE   H3X 8329   1.944   6.705   4.533 -0.5093 -0.7043 -0.2924
   88SOPE   H3Y 8330   2.043   6.560   4.500  0.2854 -1.8673  1.4285
   88SOPE   C34 8331   2.071   6.645   4.698 -0.0141 -0.6721  0.4922
   88SOPE   H4X 8332   2.153   6.703   4.651  0.9553 -0.8164  1.9345
   88SOPE   H4Y 8333   2.120   6.549   4.724 -0.0096 -0.4923  1.1622
   88SOPE   C35 8334   2.013   6.714   4.822  0.2948  0.3227 -0.5354
   88SOPE   H5X 8335   1.922   6.665   4.863 -0.7229  2.4902 -0.1074
   88SOPE   H5Y 8336   1.982   6.815   4.788  0.4391  0.4738 -0.2147
   88SOPE   C36 8337   2.090   6.706   4.944  0.3095 -0.7581  0.3139
   88SOPE   H6X 8338   2.043   6.769   5.023  0.3656  0.0890 -0.3215
   88SOPE   H6Y 8339   2.187   6.757   4.923  0.0841 -0.7526 -0.7218
   88SOPE   C37 8340   2.106   6.566   5.002  0.8532 -0.1329  0.1562
   88SOPE   H7X 8341   2.183   6.511   4.943 -0.0679  1.1536 -2.3819
   88SOPE   H7Y 8342   2.014   6.505   5.003  0.1783  0.8527 -0.3418
   88SOPE   C38 8343   2.158   6.577   5.146  0.4277  0.1731 -0.8102
   88SOPE   H8X 8344   2.088   6.636   5.209 -1.7822 -1.8475 -1.2218
   88SOPE   H8Y 8345   2.251   6.638   5.140 -0.0459  1.2826  1.8870
   88SOPE   C39 8346   2.195   6.438   5.200  0.2890  1.0222  0.1282
   88SOPE   H9X 8347   2.259   6.396   5.119  1.7979  3.3131  0.0174
   88SOPE   H9Y 8348   2.101   6.381   5.215  1.0274  0.2864  2.4085
   88SOPE  C310 8349   2.266   6.458   5.337  0.2452 -0.0906 -0.3464
   88SOPE  H10X 8350   2.208   6.532   5.397 -0.8705 -0.7780 -0.5602
   88SOPE  H10Y 8351   2.365   6.505   5.317  0.4510 -0.3905 -0.0458
   88SOPE  C311 8352   2.268   6.333   5.421  0.3109 -0.4375 -0.9459
   88SOPE  H11X 8353   2.363   6.287   5.387  1.3679  1.2048 -0.2903
   88SOPE  H11Y 8354   2.177   6.273   5.398 -1.5053  0.3821  3.2377
   88SOPE  C312 8355   2.266   6.373   5.570  0.1393 -0.0235  0.6962
   88SOPE  H12X 8356   2.169   6.421   5.592  0.1245  0.0397  0.4991
   88SOPE  H12Y 8357   2.344   6.443   5.606  1.2538 -1.3475  0.9567
   88SOPE  C313 8358   2.287   6.249   5.662 -0.0323 -0.8291 -0.3370
   88SOPE  H13X 8359   2.392   6.222   5.639  0.4294  0.4459  0.1681
   88SOPE  H13Y 8360   2.215   6.169   5.634 -1.9939  1.3743 -2.0831
   88SOPE  C314 8361   2.266   6.284   5.815  0.2733  0.3116  0.1014
   88SOPE  H14X 8362   2.245   6.190   5.870  0.4534  0.4588  0.4265
   88SOPE  H14Y 8363   2.172   6.343   5.817  0.5088  0.7745 -1.3294
   88SOPE  C315 8364   2.378   6.370   5.871  0.6635 -0.4918 -0.5740
   88SOPE  H15X 8365   2.375   6.474   5.830 -2.2291 -0.0689  0.5092
   88SOPE  H15Y 8366   2.479   6.329   5.850  1.0388 -0.1933  0.5541
   88SOPE  C316 8367   2.358   6.383   6.024 -0.7416  0.2152 -0.4066
   88SOPE  H16X 8368   2.351   6.283   6.071  4.4229  0.0329  0.5757
   88SOPE  H16Y 8369   2.265   6.442   6.040 -1.3214 -1.2414  2.1772
   88SOPE  C317 8370   2.468   6.469   6.090 -0.2582  0.0795  0.2139
   88SOPE  H17X 8371   2.483   6.564   6.034 -0.4410 -0.3687 -0.6040
   88SOPE  H17Y 8372   2.567   6.418   6.090  0.7877  1.9590  1.8989
   88SOPE  C318 8373   2.435   6.503   6.235  0.3211  0.0644 -0.5548
   88SOPE  H18X 8374   2.524   6.552   6.280 -0.1837 -0.2227  0.7967
   88SOPE  H18Y 8375   2.424   6.417   6.304 -1.4001  1.4489  0.9916
   88SOPE  H18Z 8376   2.350   6.574   6.241  0.8648  0.8591 -1.8530
   89SAPC     N 8377   2.552   3.240   8.691 -0.0160  0.0519  0.1470
   89SAPC   C12 8378   2.450   3.264   8.577 -0.7315  0.3428 -0.0630
   89SAPC  H12A 8379   2.436   3.369   8.560 -0.6718  0.4525  0.5581
   89SAPC  H12B 8380   2.353   3.231   8.612 -1.1822  0.6675 -0.9663
   89SAPC   C13 8381   2.515   3.313   8.815  0.4568  0.2303  0.6957
   89SAPC  H13A 8382   2.591   3.313   8.891  2.2394  1.5525 -0.9608
   89SAPC  H13B 8383   2.504   3.419   8.796  0.6963  0.2289  0.5375
   89SAPC  H13C 8384   2.422   3.281   8.859  1.2714  0.4769  2.7062
   89SAPC   C14 8385   2.540   3.097   8.717  0.4456  0.4802  0.0197
   89SAPC  H14A 8386   2.594   3.062   8.803  1.0377  1.8414  0.2377
   89SAPC  H14B 8387   2.437   3.077   8.740  1.0948 -0.6576  2.0873
   89SAPC  H14C 8388   2.555   3.043   8.624 -0.7760 -0.3719  0.2969
   89SAPC   C15 8389   2.695   3.287   8.665  0.3070 -0.1579  0.0490
   89SAPC  H15A 8390   2.695   3.393   8.647 -0.5619  0.1496  1.6751
   89SAPC  H15B 8391   2.764   3.267   8.746  0.0954  0.7290  0.4558
   89SAPC  H15C 8392   2.742   3.235   8.583 -1.8062 -0.7289 -0.8581
   89SAPC   C11 8393   2.480   3.205   8.440 -0.1970  0.1740 -0.1778
   89SAPC  H11A 8394   2.589   3.217   8.422 -0.1854 -2.2475 -2.1018
   89SAPC  H11B 8395   2.433   3.260   8.356 -2.8390 -1.2263  0.2858
   89SAPC     P 8396   2.317   3.015   8.362  0.0955 -0.3034 -0.0585
   89SAPC   O13 8397   2.308   2.869   8.386  0.0126  0.2703  0.2978
   89SAPC   O14 8398   2.197   3.102   8.382 -0.0041 -0.3591  0.0879
   89SAPC   O12 8399   2.440   3.065   8.441 -0.6407 -0.3075  0.3676
   89SAPC   O11 8400   2.365   3.030   8.209  0.2327  0.5327  0.1449
   89SAPC    C1 8401   2.289   2.966   8.110  0.9955 -0.4634  1.2411
   89SAPC    HA 8402   2.356   2.901   8.051  1.9706  0.6971  1.0346
   89SAPC    HB 8403   2.232   2.875   8.140 -0.1546 -1.2549 -2.7402
   89SAPC    C2 8404   2.216   3.068   8.013  0.3804 -0.1188 -0.3321
   89SAPC    HS 8405   2.110   3.064   8.047  0.5186  0.8377  0.2417
   89SAPC   O21 8406   2.212   3.015   7.883 -0.2950 -0.1610  0.0800
   89SAPC   C21 8407   2.167   2.893   7.861  0.7000  0.4385  0.7430
   89SAPC   O22 8408   2.097   2.827   7.928 -0.0642  0.1637  0.0883
   89SAPC   C22 8409   2.212   2.846   7.719  0.4232  0.2806 -0.7476
   89SAPC   H2R 8410   2.161   2.909   7.643  1.3762  0.1970 -1.4842
   89SAPC   H2S 8411   2.323   2.842   7.716  0.3914 -1.9661 -0.7507
   89SAPC    C3 8412   2.276   3.212   8.020 -0.0998  0.0073  0.1275
   89SAPC    HX 8413   2.385   3.196   8.000 -0.5332 -2.5604 -0.5748
   89SAPC    HY 8414   2.261   3.259   8.120 -0.9167  2.0045 -0.8853
   89SAPC   O31 8415   2.226   3.295   7.910 -0.9167 -0.2335 -0.0777
   89SAPC   C31 8416   2.106   3.341   7.938  0.1723  0.2979  0.4505
   89SAPC   O32 8417   2.040   3.318   8.039  0.0177 -0.1701  0.1379
   89SAPC   C32 8418   2.046   3.416   7.817 -0.6327  0.5481  0.5778
   89SAPC   H2X 8419   2.045   3.520   7.855  2.1121 -0.1167  2.8325
   89SAPC   H2Y 8420   1.942   3.377   7.806 -0.5562  0.9610 -2.6752
   89SAPC   C23 8421   2.175   2.697   7.688  0.1588 -0.1279 -0.4315
   89SAPC   H3R 8422   2.064   2.689   7.689  0.0791  0.6554  1.2318
   89SAPC   H3S 8423   2.210   2.639   7.776 -1.1329 -0.1987  0.0710
   89SAPC   C24 8424   2.232   2.647   7.556  0.6947 -0.1153  0.1436
   89SAPC   H4R 8425   2.204   2.715   7.473 -1.3379  1.4630  1.9821
   89SAPC   H4S 8426   2.191   2.547   7.528  0.0816 -0.1559  1.1198
   89SAPC   C25 8427   2.374   2.612   7.566  0.3890 -0.1490  0.5454
   89SAPC   H5R 8428   2.408   2.579   7.665  0.6947 -2.6835 -0.3383
   89SAPC   C26 8429   2.450   2.593   7.453  0.5779  0.1011 -0.2938
   89SAPC   H6R 8430   2.544   2.536   7.460  2.7559  3.4297  0.2332
   89SAPC   C27 8431   2.413   2.620   7.309 -0.1441  0.3597  0.0469
   89SAPC   H7R 8432   2.311   2.656   7.283  1.1377  1.7744 -3.6179
   89SAPC   H7S 8433   2.433   2.525   7.256  0.6553  0.1439  0.7165
   89SAPC   C28 8434   2.501   2.724   7.248 -0.5169  0.6181  0.3582
   89SAPC   H8R 8435   2.550   2.787   7.324  1.5261 -1.5216  0.9351
   89SAPC   C29 8436   2.537   2.757   7.124  0.3313 -0.5449 -0.3302
   89SAPC   H9R 8437   2.619   2.829   7.112 -0.8376  1.5676  2.9834
   89SAPC  C210 8438   2.503   2.684   6.997  0.9604  0.9601  0.9643
   89SAPC  H10R 8439   2.453   2.587   7.018 -0.9544  1.8756  0.7917
   89SAPC  H10S 8440   2.598   2.651   6.950 -0.2109 -1.6442  0.2317
   89SAPC  C211 8441   2.433   2.781   6.910  0.1073  0.6089  0.2876
   89SAPC  H11R 8442   2.393   2.867   6.967 -0.1236  0.3304  0.5514
   89SAPC  C212 8443   2.410   2.772   6.774 -0.2080  0.1999 -0.1085
   89SAPC  H12R 8444   2.355   2.849   6.718  0.2523  0.6486  0.0415
   89SAPC  C213 8445   2.469   2.672   6.687  0.4687  0.1152  0.6014
   89SAPC  H13R 8446   2.383   2.623   6.636  0.6260 -1.9163  2.1818
   89SAPC  H13S 8447   2.514   2.590   6.746  1.8430  1.0584  0.9218
   89SAPC  C214 8448   2.554   2.740   6.582  0.4879 -0.3405 -0.4385
   89SAPC  H14R 8449   2.625   2.817   6.617 -2.7149  1.3853  3.0232
   89SAPC  C215 8450   2.541   2.705   6.450  0.1223  0.1388 -0.1558
   89SAPC  H15R 8451   2.607   2.757   6.379 -0.3505  1.8619  0.6103
   89SAPC  C216 8452   2.448   2.600   6.378 -0.8491  0.2696  0.7979
   89SAPC  H16R 8453   2.361   2.569   6.438 -0.7387 -1.5702  0.0682
   89SAPC  H16S 8454   2.497   2.504   6.350 -0.2042  0.4329  1.3481
   89SAPC  C217 8455   2.401   2.660   6.245  0.7945  0.9653 -0.7584
   89SAPC  H17R 8456   2.488   2.713   6.199  0.7699  1.7561  0.0830
   89SAPC  H17S 8457   2.327   2.742   6.256  0.0103  0.5589 -2.5589
   89SAPC  C218 8458   2.351   2.558   6.148  0.1666 -0.0737  1.0806
   89SAPC  H18R 8459   2.255   2.513   6.179  0.3063 -1.5991 -0.5499
   89SAPC  H18S 8460   2.430   2.479   6.142  0.5206  0.3014  0.7027
   89SAPC  C219 8461   2.340   2.606   5.997  0.0886  0.1484 -0.3436
   89SAPC  H19R 8462   2.313   2.530   5.921 -1.8107  0.4313  0.0139
   89SAPC  H19S 8463   2.443   2.644   5.981 -0.3334  2.1359  1.3230
   89SAPC  C220 8464   2.227   2.709   5.986  0.1759  1.0711  0.5961
   89SAPC  H20R 8465   2.221   2.748   5.882  1.1550 -0.6418 -0.1477
   89SAPC  H20S 8466   2.256   2.794   6.051 -0.7701  0.5256  1.7699
   89SAPC  H20T 8467   2.128   2.669   6.018  0.5630 -0.1646  0.2901
   89SAPC   C33 8468   2.112   3.390   7.683 -0.3504  0.3117  0.1634
   89SAPC   H3X 8469   2.120   3.280   7.665  1.7170  0.4040  0.3093
   89SAPC   H3Y 8470   2.213   3.437   7.678  0.2032 -0.8549 -0.1674
   89SAPC   C34 8471   2.028   3.440   7.565  0.6201 -0.2162  0.3486
   89SAPC   H4X 8472   2.092   3.442   7.474  0.9347 -0.1207  0.5667
   89SAPC   H4Y 8473   1.997   3.544   7.586  2.1446  0.1834  0.7479
   89SAPC   C35 8474   1.901   3.352   7.540 -0.2695  0.0858  0.3762
   89SAPC   H5X 8475   1.831   3.347   7.626 -2.4183 -3.1910 -1.3378
   89SAPC   H5Y 8476   1.939   3.250   7.518  1.0804  1.1229 -2.6646
   89SAPC   C36 8477   1.822   3.399   7.413 -0.4785 -0.6514  0.7707
   89SAPC   H6X 8478   1.805   3.508   7.422  0.2875 -0.4187 -0.3924
   89SAPC   H6Y 8479   1.727   3.342   7.416 -0.0236 -1.4283  0.6561
   89SAPC   C37 8480   1.910   3.379   7.289  0.5086 -0.3966  0.5852
   89SAPC   H7X 8481   1.968   3.285   7.296 -0.6714 -1.1217  0.8013
   89SAPC   H7Y 8482   1.988   3.458   7.283  2.1236 -1.8891  1.0944
   89SAPC   C38 8483   1.816   3.362   7.161  0.2878  0.3725 -0.2424
   89SAPC   H8X 8484   1.749   3.450   7.150  1.3002  0.9419 -2.5329
   89SAPC   H8Y 8485   1.744   3.279   7.173  0.4316  0.2926  0.0905
   89SAPC   C39 8486   1.900   3.343   7.035 -0.1947 -0.4489  0.0964
   89SAPC   H9X 8487   1.974   3.261   7.051 -1.1356 -0.7886  3.5868
   89SAPC   H9Y 8488   1.954   3.438   7.016 -0.7921  0.0403  0.7890
   89SAPC  C310 8489   1.808   3.299   6.927 -0.2051  0.6165 -0.0195
   89SAPC  H10X 8490   1.729   3.378   6.924 -0.7504  0.0731 -0.1038
   89SAPC  H10Y 8491   1.759   3.199   6.931  1.5964 -0.2708  0.8649
   89SAPC  C311 8492   1.890   3.281   6.798  0.3190  0.0387  0.1014
   89SAPC  H11X 8493   1.986   3.231   6.825 -0.4684 -1.8661 -0.5181
   89SAPC  H11Y 8494   1.922   3.378   6.753 -2.1527  1.0226  0.2775
   89SAPC  C312 8495   1.821   3.215   6.673 -0.0664  0.5641 -0.2336
   89SAPC  H12X 8496   1.767   3.126   6.711 -0.1035  0.9559  0.6510
   89SAPC  H12Y 8497   1.909   3.177   6.616 -1.0112 -0.0237 -1.3573
   89SAPC  C313 8498   1.724   3.299   6.594 -0.1760  0.1939  0.2013
   89SAPC  H13X 8499   1.780   3.392   6.567  0.1259 -0.5430 -1.9137
   89SAPC  H13Y 8500   1.644   3.323   6.667  0.9861  0.2475  1.5141
   89SAPC  C314 8501   1.663   3.219   6.477 -0.2000 -0.0978 -0.2226
   89SAPC  H14X 8502   1.591   3.147   6.520 -0.9339 -0.3213 -1.7594
   89SAPC  H14Y 8503   1.747   3.157   6.436 -1.4518 -1.9312 -0.1195
   89SAPC  C315 8504   1.593   3.317   6.388 -0.7807 -0.0565 -0.2780
   89SAPC  H15X 8505   1.660   3.400   6.360 -1.5112 -0.0101 -2.0222
   89SAPC  H15Y 8506   1.494   3.348   6.429 -1.1591 -1.6979  0.1630
   89SAPC  C316 8507   1.576   3.254   6.244 -0.1644  0.0382 -0.0295
   89SAPC  H16X 8508   1.518   3.161   6.261 -0.9741  0.9101  2.4853
   89SAPC  H16Y 8509   1.678   3.223   6.214 -0.1168 -0.1665  0.3456
   89SAPC  C317 8510   1.497   3.336   6.135 -0.1228  1.1056  0.4462
   89SAPC  H17X 8511   1.389   3.323   6.159  0.0915 -1.9061  0.1760
   89SAPC  H17Y 8512   1.526   3.298   6.035  1.8896  0.8676  1.0641
   89SAPC  C318 8513   1.513   3.489   6.141 -0.2578 -0.3839  0.2576
   89SAPC  H18X 8514   1.621   3.516   6.147 -0.1157 -0.8722 -0.0028
   89SAPC  H18Y 8515   1.491   3.531   6.241 -0.9740  1.5586 -0.6611
   89SAPC  H18Z 8516   1.452   3.542   6.065 -2.4415  0.3384  2.4310
   90SAPC     N 8517   1.032   1.994   8.528 -0.6323 -0.8462  0.4780
   90SAPC   C12 8518   1.049   2.111   8.433 -0.0256 -0.1988  0.1451
   90SAPC  H12A 8519   1.150   2.126   8.398  0.2957 -0.9242  0.7308
   90SAPC  H12B 8520   1.026   2.202   8.486 -1.3562 -0.6755  0.4246
   90SAPC   C13 8521   1.070   1.868   8.458  0.4125  0.9111  0.2529
   90SAPC  H13A 8522   1.050   1.781   8.518  0.5480 -0.5865 -1.7949
   90SAPC  H13B 8523   1.020   1.849   8.364  3.8764 -1.1508 -1.3706
   90SAPC  H13C 8524   1.174   1.860   8.428  0.6680 -0.6450  1.4380
   90SAPC   C14 8525   1.136   2.010   8.640  0.7592  0.2255  0.8821
   90SAPC  H14A 8526   1.123   1.926   8.707 -0.5691 -1.1833 -1.0290
   90SAPC  H14B 8527   1.238   2.018   8.606 -0.0547  1.1857 -1.5796
   90SAPC  H14C 8528   1.107   2.099   8.693 -1.6186  1.1360 -1.7305
   90SAPC   C15 8529   0.896   1.982   8.580 -0.0586 -0.0943 -0.2237
   90SAPC  H15A 8530   0.832   1.998   8.494  2.2383  1.9049 -1.6929
   90SAPC  H15B 8531   0.876   1.889   8.630  0.5292  0.4363  1.0439
   90SAPC  H15C 8532   0.869   2.067   8.642 -1.2447 -0.4906 -0.1642
   90SAPC   C11 8533   0.947   2.120   8.314  0.7414 -0.1485  0.9708
   90SAPC  H11A 8534   0.927   2.020   8.270 -3.0347  0.1941  1.5422
   90SAPC  H11B 8535   0.982   2.197   8.242  0.4327 -0.3468  0.6073
   90SAPC     P 8536   0.773   2.310   8.385  0.0136 -0.2126 -0.1343
   90SAPC   O13 8537   0.626   2.321   8.415 -0.1627 -0.2121 -0.3148
   90SAPC   O14 8538   0.867   2.381   8.476 -0.4193 -0.3245  0.7295
   90SAPC   O12 8539   0.819   2.157   8.367  0.9574  0.4202 -0.6120
   90SAPC   O11 8540   0.798   2.363   8.247 -0.3595 -0.6575 -0.3103
   90SAPC    C1 8541   0.715   2.439   8.162  0.5037  0.2368 -0.0532
   90SAPC    HA 8542   0.641   2.505   8.212 -2.5763 -2.3956 -0.8231
   90SAPC    HB 8543   0.771   2.502   8.089 -0.6091  2.4015  0.8539
   90SAPC    C2 8544   0.637   2.343   8.074  0.5622 -0.2249 -0.4229
   90SAPC    HS 8545   0.560   2.302   8.142  0.6637 -0.1750 -0.2780
   90SAPC   O21 8546   0.729   2.246   8.023 -0.4923 -0.3421  0.4565
   90SAPC   C21 8547   0.680   2.131   7.989  0.6974  0.2647 -0.0944
   90SAPC   O22 8548   0.565   2.100   7.990 -0.3337 -0.0639 -0.7829
   90SAPC   C22 8549   0.800   2.047   7.946 -0.2023  0.4365  0.3321
   90SAPC   H2R 8550   0.849   2.093   7.857 -0.1320 -2.8403 -1.4848
   90SAPC   H2S 8551   0.876   2.059   8.026  1.0274 -0.2757 -0.6777
   90SAPC    C3 8552   0.558   2.399   7.953 -0.3509 -0.2208  0.3766
   90SAPC    HX 8553   0.483   2.464   8.003  1.2284  1.3573  0.7926
   90SAPC    HY 8554   0.499   2.318   7.905 -0.3437  0.2856 -0.5056
   90SAPC   O31 8555   0.637   2.477   7.852  0.2246 -0.2383  0.4570
   90SAPC   C31 8556   0.684   2.409   7.749  0.7661 -0.3317  0.1941
   90SAPC   O32 8557   0.679   2.289   7.748  0.0760 -0.4644  0.5810
   90SAPC   C32 8558   0.747   2.501   7.646  0.1363  0.2128  0.3308
   90SAPC   H2X 8559   0.822   2.565   7.696  1.3140 -0.5064 -0.4563
   90SAPC   H2Y 8560   0.672   2.569   7.601 -0.7580 -2.0670 -1.9033
   90SAPC   C23 8561   0.762   1.901   7.913  0.1764 -0.5470  0.1869
   90SAPC   H3R 8562   0.697   1.907   7.823  0.1840  1.5000  0.2610
   90SAPC   H3S 8563   0.707   1.865   8.003  1.0472 -1.0035  0.5400
   90SAPC   C24 8564   0.884   1.805   7.881  0.1665  0.8849 -0.1192
   90SAPC   H4R 8565   0.949   1.793   7.971  1.0025  5.4372  0.1496
   90SAPC   H4S 8566   0.950   1.853   7.806  0.2512  1.0632  0.0688
   90SAPC   C25 8567   0.825   1.667   7.832 -0.0865 -0.1017 -0.1498
   90SAPC   H5R 8568   0.819   1.592   7.912 -0.3599 -1.4501 -1.4009
   90SAPC   C26 8569   0.787   1.642   7.712  0.6285  0.0806  0.2075
   90SAPC   H6R 8570   0.730   1.553   7.683  1.0301 -0.2803  0.5146
   90SAPC   C27 8571   0.795   1.741   7.593 -0.1599 -0.0447  0.1119
   90SAPC   H7R 8572   0.873   1.820   7.602 -0.1121 -0.1114  0.2825
   90SAPC   H7S 8573   0.694   1.785   7.600 -0.0261  0.9241 -2.6754
   90SAPC   C28 8574   0.821   1.664   7.463 -0.0286  0.2569 -0.0513
   90SAPC   H8R 8575   0.926   1.635   7.446  0.2343  1.7656 -1.2757
   90SAPC   C29 8576   0.732   1.643   7.361  0.4940  0.1440 -0.8870
   90SAPC   H9R 8577   0.772   1.582   7.278  1.1257 -0.6805  0.0024
   90SAPC  C210 8578   0.587   1.697   7.348 -0.4094 -0.0124  0.4034
   90SAPC  H10R 8579   0.593   1.807   7.342  0.0008 -0.0492  0.0376
   90SAPC  H10S 8580   0.536   1.683   7.446  0.4966  2.0822  1.2331
   90SAPC  C211 8581   0.507   1.637   7.240 -0.3360 -0.7150 -0.1427
   90SAPC  H11R 8582   0.500   1.688   7.143 -0.5742 -0.7643 -0.1534
   90SAPC  C212 8583   0.440   1.530   7.255  0.2555  0.5811 -0.2746
   90SAPC  H12R 8584   0.371   1.508   7.171  0.2676  1.5410 -0.5533
   90SAPC  C213 8585   0.430   1.424   7.362  0.2239 -0.6612 -0.4658
   90SAPC  H13R 8586   0.371   1.459   7.450  1.2154 -0.2346  0.0515
   90SAPC  H13S 8587   0.534   1.406   7.394  0.8973  1.3708 -1.3382
   90SAPC  C214 8588   0.374   1.293   7.309  0.1334  0.5797 -1.0652
   90SAPC  H14R 8589   0.410   1.261   7.210 -2.0638 -0.2199 -1.6526
   90SAPC  C215 8590   0.287   1.210   7.372  0.2103 -0.1311 -0.4111
   90SAPC  H15R 8591   0.264   1.114   7.323  1.8593  0.2783 -2.1029
   90SAPC  C216 8592   0.219   1.242   7.502 -0.5811  0.1193  0.4192
   90SAPC  H16R 8593   0.109   1.230   7.492 -0.3365 -0.7418 -1.7983
   90SAPC  H16S 8594   0.233   1.345   7.541 -2.9648  0.3870  0.7088
   90SAPC  C217 8595   0.247   1.127   7.614  0.4873 -0.3939  0.0866
   90SAPC  H17R 8596   0.204   1.028   7.585  0.9262 -0.6808  0.3997
   90SAPC  H17S 8597   0.193   1.151   7.708  2.2410  2.0534  0.5339
   90SAPC  C218 8598   0.399   1.119   7.646 -0.0250 -0.0507 -0.2456
   90SAPC  H18R 8599   0.452   1.114   7.549  0.5397 -1.2973  0.1038
   90SAPC  H18S 8600   0.426   1.028   7.703  0.1473 -0.4682 -0.9864
   90SAPC  C219 8601   0.453   1.244   7.726 -0.5088  0.7640  0.2948
   90SAPC  H19R 8602   0.457   1.339   7.668  0.3904  1.1274  0.9281
   90SAPC  H19S 8603   0.558   1.216   7.749 -0.5999 -2.4739 -2.4498
   90SAPC  C220 8604   0.384   1.258   7.857  0.4510 -0.1075  0.1688
   90SAPC  H20R 8605   0.449   1.324   7.918  0.8820  0.0618 -0.4649
   90SAPC  H20S 8606   0.363   1.161   7.908 -2.1356 -0.2467 -1.0325
   90SAPC  H20T 8607   0.288   1.310   7.840 -0.4665 -2.5908 -3.4396
   90SAPC   C33 8608   0.811   2.418   7.529  0.5277 -1.1451 -0.1538
   90SAPC   H3X 8609   0.750   2.327   7.513 -3.0149  1.2366 -1.2347
   90SAPC   H3Y 8610   0.916   2.384   7.544  1.1303 -0.4342 -2.4684
   90SAPC   C34 8611   0.799   2.493   7.401 -0.5977 -0.0542 -1.0426
   90SAPC   H4X 8612   0.844   2.594   7.411 -0.7065 -0.2124  2.3703
   90SAPC   H4Y 8613   0.696   2.516   7.368 -0.0704 -0.8909 -3.4196
   90SAPC   C35 8614   0.869   2.415   7.293  0.5782 -0.7769  0.6348
   90SAPC   H5X 8615   0.830   2.311   7.294 -1.6635  0.0063  2.3657
   90SAPC   H5Y 8616   0.977   2.414   7.320  1.1764  0.5064 -1.4112
   90SAPC   C36 8617   0.850   2.467   7.152 -0.3082 -0.9373  0.4687
   90SAPC   H6X 8618   0.899   2.566   7.141  0.0482 -0.8077  2.7957
   90SAPC   H6Y 8619   0.743   2.490   7.131 -0.0912  0.3243  0.6671
   90SAPC   C37 8620   0.883   2.369   7.037 -0.3804  0.0345  0.2823
   90SAPC   H7X 8621   0.842   2.270   7.067 -1.7475  0.1468 -1.0572
   90SAPC   H7Y 8622   0.993   2.362   7.024 -0.6071 -0.6769 -1.6952
   90SAPC   C38 8623   0.821   2.420   6.905  0.2537 -0.4319 -0.0220
   90SAPC   H8X 8624   0.855   2.525   6.889  1.9263 -0.6881  1.5133
   90SAPC   H8Y 8625   0.711   2.408   6.909  0.4408 -1.9201  1.2057
   90SAPC   C39 8626   0.868   2.340   6.787 -0.1235  0.4606 -0.0779
   90SAPC   H9X 8627   0.826   2.237   6.779 -0.5831  0.6599 -0.3267
   90SAPC   H9Y 8628   0.976   2.315   6.796 -0.6513 -1.8575  0.7084
   90SAPC  C310 8629   0.853   2.411   6.651 -0.1714  0.5305  0.0995
   90SAPC  H10X 8630   0.910   2.504   6.672  0.2467  0.3092 -0.0452
   90SAPC  H10Y 8631   0.751   2.448   6.623 -0.3730 -1.1768 -1.6178
   90SAPC  C311 8632   0.907   2.332   6.530  0.3492  0.8346  0.3548
   90SAPC  H11X 8633   0.819   2.274   6.495  0.0512  0.9549  0.8864
   90SAPC  H11Y 8634   0.983   2.257   6.559  0.1720  0.4665 -0.1163
   90SAPC  C312 8635   0.969   2.431   6.438  0.5736  0.8104 -0.1708
   90SAPC  H12X 8636   1.050   2.486   6.489 -0.3917  2.0682  0.0624
   90SAPC  H12Y 8637   0.898   2.506   6.397  0.0598  1.3681  1.6596
   90SAPC  C313 8638   1.029   2.367   6.311  0.9137 -0.0499  0.0963
   90SAPC  H13X 8639   1.088   2.447   6.262 -0.1960  0.3275 -0.6796
   90SAPC  H13Y 8640   0.934   2.346   6.257  1.0768 -2.8867  0.7266
   90SAPC  C314 8641   1.105   2.240   6.331 -0.2850  0.3916 -0.3154
   90SAPC  H14X 8642   1.039   2.157   6.365  1.3282 -1.3634 -1.2567
   90SAPC  H14Y 8643   1.176   2.262   6.414  0.7030 -0.4956 -0.9005
   90SAPC  C315 8644   1.182   2.175   6.211 -0.3226 -0.1065  0.1093
   90SAPC  H15X 8645   1.119   2.188   6.120 -0.0716  0.3478 -0.0053
   90SAPC  H15Y 8646   1.189   2.065   6.227  0.9503  0.3427  3.1941
   90SAPC  C316 8647   1.322   2.242   6.184  0.6912 -0.2272 -0.2857
   90SAPC  H16X 8648   1.306   2.351   6.194 -1.2113 -0.4408 -0.5447
   90SAPC  H16Y 8649   1.347   2.228   6.077  1.0714  0.9909 -0.3659
   90SAPC  C317 8650   1.441   2.193   6.274  0.5318 -0.1288  0.3054
   90SAPC  H17X 8651   1.459   2.088   6.242 -1.8971 -0.3697 -0.4791
   90SAPC  H17Y 8652   1.413   2.196   6.382  0.6745 -1.9814  0.4262
   90SAPC  C318 8653   1.559   2.295   6.260  0.2116  0.0754 -0.3090
   90SAPC  H18X 8654   1.526   2.394   6.299  0.3460 -1.1885  3.3900
   90SAPC  H18Y 8655   1.593   2.318   6.157 -0.4518  0.2971 -0.4830
   90SAPC  H18Z 8656   1.645   2.256   6.318  1.7992  0.9854 -1.9658
   91SAPC     N 8657   4.117   6.311   8.490  0.1038 -0.0927  0.0547
   91SAPC   C12 8658   4.109   6.457   8.462 -0.2447 -0.3715 -0.2405
   91SAPC  H12A 8659   4.206   6.491   8.426 -0.9463  0.1574 -1.7280
   91SAPC  H12B 8660   4.104   6.510   8.556 -1.6613  1.8947 -1.5097
   91SAPC   C13 8661   3.997   6.277   8.572 -0.2886  0.0190  0.1788
   91SAPC  H13A 8662   3.998   6.180   8.620  1.6854  0.9726  2.2755
   91SAPC  H13B 8663   3.993   6.354   8.648 -0.1132  1.8290 -1.5722
   91SAPC  H13C 8664   3.907   6.286   8.514 -0.3706  2.2338  0.5669
   91SAPC   C14 8665   4.111   6.226   8.366 -0.1706 -0.3015 -0.4297
   91SAPC  H14A 8666   4.196   6.242   8.301  1.8159 -1.0303  1.8523
   91SAPC  H14B 8667   4.107   6.121   8.388 -2.6507  0.0380  1.1229
   91SAPC  H14C 8668   4.017   6.250   8.318 -0.5302 -1.3057 -0.2383
   91SAPC   C15 8669   4.243   6.279   8.559 -0.1990  0.4933  0.6406
   91SAPC  H15A 8670   4.333   6.315   8.512 -1.6471  1.1819 -1.7582
   91SAPC  H15B 8671   4.257   6.322   8.658  1.4917  1.5169  0.0035
   91SAPC  H15C 8672   4.259   6.173   8.575  0.8186  0.6461  0.7274
   91SAPC   C11 8673   3.990   6.519   8.388  0.2248  0.5715 -0.0673
   91SAPC  H11A 8674   3.996   6.630   8.397 -0.2428  0.4448  2.3046
   91SAPC  H11B 8675   3.893   6.495   8.436  1.0406  3.0223  3.1123
   91SAPC     P 8676   4.087   6.553   8.144  0.0844  0.3700  0.0538
   91SAPC   O13 8677   4.109   6.686   8.198 -0.2472  0.3561 -0.6239
   91SAPC   O14 8678   4.205   6.466   8.115  0.5283 -0.3249 -0.0301
   91SAPC   O12 8679   3.994   6.477   8.246 -0.9866 -0.0063 -0.0724
   91SAPC   O11 8680   3.997   6.555   8.022 -0.1823  0.0738 -0.4475
   91SAPC    C1 8681   3.879   6.646   8.018 -0.1373 -0.7581  0.1861
   91SAPC    HA 8682   3.803   6.595   8.081 -1.9012  0.9313 -0.4976
   91SAPC    HB 8683   3.894   6.738   8.079  0.2669 -0.1590 -0.7933
   91SAPC    C2 8684   3.808   6.666   7.884 -0.0705 -0.3188 -0.4036
   91SAPC    HS 8685   3.707   6.620   7.893  1.0461 -2.6764  0.8320
   91SAPC   O21 8686   3.889   6.603   7.779  0.3871  0.1889 -0.2250
   91SAPC   C21 8687   3.878   6.473   7.779  0.4388 -0.9583 -0.9263
   91SAPC   O22 8688   3.807   6.408   7.856 -0.4984  0.3105 -0.4727
   91SAPC   C22 8689   3.942   6.416   7.649 -0.0143  0.3224  0.5982
   91SAPC   H2R 8690   3.989   6.499   7.592  1.5261 -0.5045  0.6031
   91SAPC   H2S 8691   4.019   6.346   7.686 -0.8120 -0.4395  0.8613
   91SAPC    C3 8692   3.786   6.822   7.849 -0.0714 -0.3890 -0.6056
   91SAPC    HX 8693   3.888   6.864   7.858 -0.1580  0.2086 -2.0835
   91SAPC    HY 8694   3.729   6.881   7.924  1.3156 -2.4532  2.2337
   91SAPC   O31 8695   3.738   6.843   7.713  0.1316 -0.0916 -0.1191
   91SAPC   C31 8696   3.604   6.837   7.701 -0.6284 -0.2773 -0.1879
   91SAPC   O32 8697   3.531   6.789   7.786 -0.5119  0.0369 -0.0316
   91SAPC   C32 8698   3.556   6.900   7.570  0.1082  0.0911  0.2074
   91SAPC   H2X 8699   3.525   7.006   7.587 -0.4240  0.0218 -0.3008
   91SAPC   H2Y 8700   3.466   6.839   7.550 -0.4192  1.2860 -1.2884
   91SAPC   C23 8701   3.847   6.332   7.566 -0.4359  0.3148 -0.2630
   91SAPC   H3R 8702   3.790   6.279   7.646 -0.1369  0.5441  0.1067
   91SAPC   H3S 8703   3.899   6.256   7.504 -0.0799  0.2409  0.1154
   91SAPC   C24 8704   3.761   6.413   7.467  0.6000  0.2355 -0.5842
   91SAPC   H4R 8705   3.726   6.338   7.392 -0.2173 -0.0257  0.0385
   91SAPC   H4S 8706   3.817   6.488   7.409 -0.6128  0.5518 -1.3888
   91SAPC   C25 8707   3.648   6.478   7.547 -0.3499  0.5983 -0.0304
   91SAPC   H5R 8708   3.677   6.563   7.611  1.2075  0.2265 -0.1998
   91SAPC   C26 8709   3.519   6.439   7.548  0.4799 -0.5813  0.3577
   91SAPC   H6R 8710   3.443   6.506   7.591 -1.1760 -2.1679  0.0286
   91SAPC   C27 8711   3.454   6.326   7.470 -0.6265 -0.7749  0.5203
   91SAPC   H7R 8712   3.452   6.227   7.520  3.0343 -1.4652 -0.3590
   91SAPC   H7S 8713   3.526   6.299   7.389  0.5621  2.4622  0.3364
   91SAPC   C28 8714   3.335   6.360   7.386  0.4580  0.5585  0.4440
   91SAPC   H8R 8715   3.243   6.340   7.443  1.1842 -1.2954  1.0526
   91SAPC   C29 8716   3.329   6.401   7.257  0.1455 -0.4187  0.8210
   91SAPC   H9R 8717   3.230   6.429   7.220 -0.1130 -3.8846 -1.5869
   91SAPC  C210 8718   3.435   6.428   7.148 -1.0993 -0.5673 -0.9280
   91SAPC  H10R 8719   3.538   6.444   7.188 -1.6014  1.7270 -0.3810
   91SAPC  H10S 8720   3.405   6.527   7.106 -0.7153 -0.0075  0.0598
   91SAPC  C211 8721   3.438   6.317   7.052  0.3840 -0.1249  0.1785
   91SAPC  H11R 8722   3.522   6.247   7.066  0.6018  0.1317  0.1759
   91SAPC  C212 8723   3.357   6.303   6.946  0.1394  0.5113  0.0861
   91SAPC  H12R 8724   3.369   6.209   6.889  1.7179  1.0118 -0.4741
   91SAPC  C213 8725   3.236   6.387   6.904 -0.4146 -0.0537 -0.5376
   91SAPC  H13R 8726   3.219   6.460   6.986 -0.3090 -1.2043  0.5613
   91SAPC  H13S 8727   3.149   6.317   6.903 -1.3219  1.0068  0.5630
   91SAPC  C214 8728   3.234   6.466   6.770 -0.1900  0.1683  0.5974
   91SAPC  H14R 8729   3.323   6.526   6.749  1.4981 -2.5588 -0.5751
   91SAPC  C215 8730   3.136   6.467   6.676 -0.7151 -0.9108  0.6312
   91SAPC  H15R 8731   3.150   6.531   6.588  1.9895 -0.8176  1.0422
   91SAPC  C216 8732   3.016   6.380   6.682  0.3829  0.7118 -0.1522
   91SAPC  H16R 8733   2.937   6.401   6.758  1.3030 -1.8926  1.6776
   91SAPC  H16S 8734   3.034   6.272   6.698 -1.4351  0.4003  0.0346
   91SAPC  C217 8735   2.930   6.403   6.552 -0.2707 -0.0519  0.0220
   91SAPC  H17R 8736   2.981   6.332   6.483  1.0001  0.1086  0.7658
   91SAPC  H17S 8737   2.939   6.507   6.514  1.5722 -0.8507 -1.9754
   91SAPC  C218 8738   2.781   6.354   6.560 -0.0273  0.2050  0.4659
   91SAPC  H18R 8739   2.782   6.277   6.641 -0.9504 -0.4560 -0.1385
   91SAPC  H18S 8740   2.763   6.311   6.459  0.5241 -0.8358  0.7915
   91SAPC  C219 8741   2.681   6.458   6.606  0.1972  0.3994  0.3765
   91SAPC  H19R 8742   2.673   6.537   6.528 -2.0043  0.3773  0.5290
   91SAPC  H19S 8743   2.721   6.515   6.693 -0.2363  0.3911  0.5841
   91SAPC  C220 8744   2.539   6.413   6.629 -0.1917  0.2705  0.5933
   91SAPC  H20R 8745   2.539   6.337   6.710  0.0261 -1.1926 -0.7278
   91SAPC  H20S 8746   2.498   6.357   6.542  0.3965 -0.2337  0.6314
   91SAPC  H20T 8747   2.473   6.499   6.654 -0.3757  0.1350  0.5815
   91SAPC   C33 8748   3.651   6.866   7.452 -0.6309 -0.9338  0.3659
   91SAPC   H3X 8749   3.673   6.757   7.461 -0.5633 -0.8781  0.8592
   91SAPC   H3Y 8750   3.741   6.931   7.460  0.6038 -2.4207 -0.6397
   91SAPC   C34 8751   3.591   6.891   7.314  0.4941  0.5384  0.0337
   91SAPC   H4X 8752   3.666   6.867   7.237 -0.0072 -0.0567 -0.2775
   91SAPC   H4Y 8753   3.577   7.001   7.315  1.6883  0.7456 -1.7195
   91SAPC   C35 8754   3.463   6.812   7.279 -0.0964  0.3155 -0.1860
   91SAPC   H5X 8755   3.385   6.849   7.349 -0.9394  0.9628 -1.4258
   91SAPC   H5Y 8756   3.480   6.705   7.302  2.0149  0.6949  0.2301
   91SAPC   C36 8757   3.424   6.824   7.135  0.3955  0.1718  0.6649
   91SAPC   H6X 8758   3.349   6.751   7.096  0.7411  0.3552 -0.3950
   91SAPC   H6Y 8759   3.512   6.809   7.069 -0.9461 -2.1315 -0.7832
   91SAPC   C37 8760   3.367   6.962   7.093 -0.3041  0.1783 -0.0410
   91SAPC   H7X 8761   3.447   7.039   7.095 -1.2181  1.1490  1.0512
   91SAPC   H7Y 8762   3.300   6.995   7.176  2.3505  0.1140  2.2546
   91SAPC   C38 8763   3.308   6.957   6.950 -0.7270 -0.1273 -0.6421
   91SAPC   H8X 8764   3.260   7.057   6.936  1.1199  0.6427 -1.7810
   91SAPC   H8Y 8765   3.230   6.879   6.961  1.0022 -1.6438  2.1575
   91SAPC   C39 8766   3.415   6.921   6.847  0.3864  0.2094  0.0190
   91SAPC   H9X 8767   3.445   6.814   6.851 -0.1863  0.0549  0.3460
   91SAPC   H9Y 8768   3.507   6.980   6.863 -0.4083  1.2352  0.9783
   91SAPC  C310 8769   3.368   6.947   6.707  0.1561  0.2999  0.9265
   91SAPC  H10X 8770   3.320   7.047   6.709  1.9869  1.2249  2.7206
   91SAPC  H10Y 8771   3.292   6.873   6.672 -0.9079  2.0467 -0.6204
   91SAPC  C311 8772   3.477   6.939   6.601 -0.3306 -0.0944 -0.4090
   91SAPC  H11X 8773   3.528   6.840   6.594 -0.9804 -0.4325 -0.4240
   91SAPC  H11Y 8774   3.550   7.021   6.617 -0.0452 -0.5351  0.6141
   91SAPC  C312 8775   3.425   6.963   6.467 -0.2522  0.9311  0.0065
   91SAPC  H12X 8776   3.374   7.061   6.456  0.5374  1.4760  1.0179
   91SAPC  H12Y 8777   3.341   6.896   6.438  0.1435  0.8647 -1.0284
   91SAPC  C313 8778   3.523   6.924   6.356 -0.0832  0.3248 -0.5873
   91SAPC  H13X 8779   3.544   6.817   6.379  3.1227  0.8764 -0.4290
   91SAPC  H13Y 8780   3.615   6.985   6.361  0.7957 -1.0188  1.5152
   91SAPC  C314 8781   3.478   6.918   6.207  0.6147  0.1557  0.1476
   91SAPC  H14X 8782   3.401   6.838   6.200 -0.1493  1.0138 -2.4883
   91SAPC  H14Y 8783   3.571   6.882   6.159  2.1288  1.1880  2.1571
   91SAPC  C315 8784   3.423   7.040   6.140  1.3294  0.8658  0.3768
   91SAPC  H15X 8785   3.330   7.072   6.193 -0.0069 -3.3887  0.9551
   91SAPC  H15Y 8786   3.386   7.007   6.040 -0.8412 -0.7127  1.6139
   91SAPC  C316 8787   3.528   7.161   6.128 -0.4860  0.4017  0.4316
   91SAPC  H16X 8788   3.534   7.210   6.227 -0.0654  0.0377  0.5928
   91SAPC  H16Y 8789   3.464   7.224   6.062  1.0501  1.8267  0.2294
   91SAPC  C317 8790   3.662   7.128   6.067  0.3211 -0.2529 -0.1432
   91SAPC  H17X 8791   3.709   7.062   6.143  0.2151  0.5897  0.6789
   91SAPC  H17Y 8792   3.725   7.220   6.065  0.5647 -0.2662  2.5231
   91SAPC  C318 8793   3.645   7.066   5.929 -0.5739 -0.2161 -0.0891
   91SAPC  H18X 8794   3.602   7.139   5.857  0.0324  0.3192  0.0764
   91SAPC  H18Y 8795   3.582   6.975   5.934  0.1622 -0.8481 -1.6329
   91SAPC  H18Z 8796   3.742   7.029   5.891 -0.6593 -0.1357 -0.3892
   92SAPC     N 8797   3.868   4.991   8.618 -0.6805  0.5064 -0.4573
   92SAPC   C12 8798   3.958   4.994   8.498  0.3286 -0.1996 -0.5362
   92SAPC  H12A 8799   4.046   5.054   8.518  0.8032 -1.7045  2.4003
   92SAPC  H12B 8800   3.914   5.053   8.419 -1.2304 -0.0657  0.3945
   92SAPC   C13 8801   3.797   5.124   8.624 -0.1589 -0.3275  0.0089
   92SAPC  H13A 8802   3.755   5.144   8.721 -0.0983 -0.0186 -0.0286
   92SAPC  H13B 8803   3.872   5.200   8.610  1.3107 -0.4938  5.0189
   92SAPC  H13C 8804   3.726   5.133   8.543  0.6497  1.0792 -0.5847
   92SAPC   C14 8805   3.756   4.895   8.594  0.9995  0.4074  0.4827
   92SAPC  H14A 8806   3.686   4.937   8.523 -0.1688 -0.5702  1.0235
   92SAPC  H14B 8807   3.778   4.802   8.545  0.4248  1.3187 -1.5985
   92SAPC  H14C 8808   3.694   4.886   8.682 -2.0367 -1.0832 -1.6256
   92SAPC   C15 8809   3.945   4.950   8.744  0.0688 -0.0046  0.6402
   92SAPC  H15A 8810   3.875   4.942   8.827  1.7671  0.7123  2.2205
   92SAPC  H15B 8811   3.990   4.852   8.747 -2.5276 -1.2801  3.5086
   92SAPC  H15C 8812   4.031   5.014   8.756  0.9114 -0.7895 -0.9721
   92SAPC   C11 8813   4.011   4.861   8.440  0.1372  1.1246  0.1937
   92SAPC  H11A 8814   4.044   4.803   8.529 -0.3055 -1.4671 -1.2420
   92SAPC  H11B 8815   4.099   4.885   8.377  0.0029  1.4374  0.1250
   92SAPC     P 8816   3.867   4.835   8.218  0.0002  0.2071  0.0445
   92SAPC   O13 8817   3.717   4.835   8.182 -0.1216  0.2165 -0.2911
   92SAPC   O14 8818   3.942   4.957   8.187  0.8190 -0.0266  0.1358
   92SAPC   O12 8819   3.900   4.794   8.366 -1.1291  0.2271 -0.4923
   92SAPC   O11 8820   3.927   4.707   8.151  0.3703 -0.0849  0.3790
   92SAPC    C1 8821   3.850   4.619   8.071  0.0463  0.1533  0.2680
   92SAPC    HA 8822   3.892   4.517   8.056  1.5906  0.7452  0.3792
   92SAPC    HB 8823   3.752   4.593   8.116  1.4248  0.0835  3.4657
   92SAPC    C2 8824   3.823   4.686   7.924 -0.0529  0.0711  0.3116
   92SAPC    HS 8825   3.771   4.782   7.940 -1.8684 -0.6560 -0.9383
   92SAPC   O21 8826   3.735   4.595   7.847  0.2174 -0.0370 -0.5513
   92SAPC   C21 8827   3.641   4.659   7.781 -0.0147 -0.2556  0.0217
   92SAPC   O22 8828   3.627   4.780   7.770 -0.2101  0.5657 -0.4832
   92SAPC   C22 8829   3.558   4.561   7.706 -0.2354  0.8793  0.6823
   92SAPC   H2R 8830   3.619   4.469   7.697 -2.1079 -0.2461 -1.5682
   92SAPC   H2S 8831   3.462   4.546   7.758 -0.4756  0.5560  0.1546
   92SAPC    C3 8832   3.952   4.708   7.850 -0.4740 -0.3026  0.3099
   92SAPC    HX 8833   4.018   4.620   7.839 -1.5990 -1.1919  0.5303
   92SAPC    HY 8834   4.017   4.787   7.894 -0.5123  0.5949 -1.1551
   92SAPC   O31 8835   3.925   4.756   7.716  0.3350 -0.4809 -0.2858
   92SAPC   C31 8836   3.906   4.888   7.698 -0.0728  0.5272 -0.5344
   92SAPC   O32 8837   3.881   4.961   7.790 -0.0821  0.0334  0.3025
   92SAPC   C32 8838   3.918   4.931   7.553  0.5914 -0.1797  0.0680
   92SAPC   H2X 8839   3.920   4.841   7.488 -1.7997  1.0991 -1.9736
   92SAPC   H2Y 8840   4.005   4.999   7.542  1.0876 -0.6995  0.7090
   92SAPC   C23 8841   3.545   4.604   7.563 -0.3106  0.8382  0.8494
   92SAPC   H3R 8842   3.644   4.640   7.525 -0.9449  1.2312 -0.5205
   92SAPC   H3S 8843   3.474   4.689   7.553  0.3795  1.2672 -0.8167
   92SAPC   C24 8844   3.509   4.486   7.471 -0.3633  0.0395  1.0721
   92SAPC   H4R 8845   3.594   4.415   7.482 -1.0868 -1.1775 -0.7986
   92SAPC   H4S 8846   3.510   4.514   7.363  1.1470 -0.0748  1.0381
   92SAPC   C25 8847   3.377   4.418   7.514 -0.3568 -0.2622 -0.7267
   92SAPC   H5R 8848   3.360   4.390   7.619 -1.8332  1.6142 -0.4180
   92SAPC   C26 8849   3.289   4.368   7.423  1.0266  0.1026 -0.1740
   92SAPC   H6R 8850   3.214   4.297   7.461  2.9308 -1.5301  0.6917
   92SAPC   C27 8851   3.279   4.387   7.274 -0.6913  0.7497 -0.0956
   92SAPC   H7R 8852   3.334   4.482   7.256 -0.4498  0.4562 -0.9376
   92SAPC   H7S 8853   3.175   4.410   7.241 -0.5324 -0.9128 -1.8757
   92SAPC   C28 8854   3.337   4.275   7.187  0.0432 -0.4456  0.2586
   92SAPC   H8R 8855   3.407   4.206   7.236  0.9692  0.7160  0.6302
   92SAPC   C29 8856   3.287   4.237   7.071  0.1086 -0.0946 -0.0153
   92SAPC   H9R 8857   3.338   4.152   7.025  0.4480 -1.1595  2.2180
   92SAPC  C210 8858   3.176   4.302   6.988 -0.5165  0.2459 -0.4144
   92SAPC  H10R 8859   3.232   4.360   6.912 -1.1886  0.0486 -1.0701
   92SAPC  H10S 8860   3.117   4.371   7.050  1.7501  1.7659  0.1566
   92SAPC  C211 8861   3.094   4.190   6.917  0.1422 -0.3305  0.5231
   92SAPC  H11R 8862   3.086   4.102   6.982  0.0283  0.6168  1.8259
   92SAPC  C212 8863   3.039   4.210   6.795 -0.2259 -0.2394  0.3271
   92SAPC  H12R 8864   2.981   4.131   6.745  0.8658  1.2247 -3.6643
   92SAPC  C213 8865   3.067   4.327   6.695  0.9320  0.3273  0.0380
   92SAPC  H13R 8866   3.057   4.433   6.727  1.6553  0.8540 -1.3848
   92SAPC  H13S 8867   2.993   4.324   6.612  2.5339  0.0170 -1.4574
   92SAPC  C214 8868   3.199   4.306   6.620 -0.9027 -0.1108  0.3728
   92SAPC  H14R 8869   3.283   4.255   6.669  1.3081 -0.2440 -3.2453
   92SAPC  C215 8870   3.221   4.313   6.486  0.1799 -0.6098 -0.0916
   92SAPC  H15R 8871   3.325   4.299   6.452  0.1687  1.2192 -0.9874
   92SAPC  C216 8872   3.123   4.364   6.381  0.3041 -0.0976  0.1282
   92SAPC  H16R 8873   3.173   4.443   6.320  0.1775  1.3676  1.8454
   92SAPC  H16S 8874   3.030   4.409   6.421 -0.1237  0.7451 -1.7119
   92SAPC  C217 8875   3.072   4.247   6.296 -0.6453 -0.1349  0.1833
   92SAPC  H17R 8876   3.039   4.164   6.363  4.4150 -2.2031  0.5685
   92SAPC  H17S 8877   3.159   4.206   6.239  1.5060 -0.3857  3.3462
   92SAPC  C218 8878   2.968   4.291   6.197 -0.0061  0.4040  0.5831
   92SAPC  H18R 8879   3.021   4.362   6.129 -1.2465  1.9518  1.1855
   92SAPC  H18S 8880   2.901   4.352   6.261  0.1642  0.8836  0.3152
   92SAPC  C219 8881   2.893   4.179   6.125 -0.1531  0.1861 -0.3740
   92SAPC  H19R 8882   2.873   4.104   6.204 -0.2280  2.8310  2.2948
   92SAPC  H19S 8883   2.960   4.137   6.047 -0.9549 -1.2898 -0.3040
   92SAPC  C220 8884   2.766   4.226   6.067  0.2903  0.4887  0.3319
   92SAPC  H20R 8885   2.699   4.139   6.053 -0.0675  0.7862  0.1933
   92SAPC  H20S 8886   2.782   4.266   5.964  0.0854 -1.0867 -0.3367
   92SAPC  H20T 8887   2.705   4.298   6.125 -0.0043 -1.1636  2.1364
   92SAPC   C33 8888   3.792   5.021   7.509 -0.0726 -0.5483 -0.3476
   92SAPC   H3X 8889   3.830   5.059   7.412 -0.6998  1.4423  0.1482
   92SAPC   H3Y 8890   3.781   5.109   7.575  1.2954 -0.0045 -0.8215
   92SAPC   C34 8891   3.669   4.940   7.470  0.7336 -0.2225 -0.7325
   92SAPC   H4X 8892   3.608   4.922   7.561 -1.1329 -0.5829 -2.0146
   92SAPC   H4Y 8893   3.698   4.840   7.432 -0.9722 -0.9710 -0.1595
   92SAPC   C35 8894   3.577   5.014   7.367 -0.0362  0.5071  0.6960
   92SAPC   H5X 8895   3.548   5.109   7.417  0.7544  0.2296  1.7161
   92SAPC   H5Y 8896   3.493   4.941   7.365 -0.4369  0.9048 -2.3695
   92SAPC   C36 8897   3.650   5.031   7.225  0.4845 -0.1409  0.1262
   92SAPC   H6X 8898   3.745   5.088   7.226  0.1491  0.4483  1.8564
   92SAPC   H6Y 8899   3.570   5.094   7.181  0.7192 -0.9619 -1.5620
   92SAPC   C37 8900   3.675   4.903   7.145 -0.4720 -0.5021 -0.1770
   92SAPC   H7X 8901   3.780   4.879   7.174 -0.2824  0.8926  0.3635
   92SAPC   H7Y 8902   3.680   4.949   7.044  0.9490  1.7349  0.8407
   92SAPC   C38 8903   3.565   4.803   7.135 -0.2578  0.4363 -0.4448
   92SAPC   H8X 8904   3.469   4.849   7.168  0.1271  1.0985 -0.2254
   92SAPC   H8Y 8905   3.581   4.719   7.205  1.4381  0.9127 -0.2187
   92SAPC   C39 8906   3.532   4.750   6.996  0.0692 -0.0645 -0.5494
   92SAPC   H9X 8907   3.470   4.658   6.996 -0.1669  0.0832 -1.3982
   92SAPC   H9Y 8908   3.620   4.704   6.945  0.4502 -1.3071  1.1488
   92SAPC  C310 8909   3.469   4.858   6.903  0.4263 -0.6993 -0.9893
   92SAPC  H10X 8910   3.535   4.942   6.874  0.9228  0.5259  3.0724
   92SAPC  H10Y 8911   3.389   4.903   6.966  0.1332  0.5913 -2.2329
   92SAPC  C311 8912   3.421   4.803   6.769  0.2564 -0.1113 -0.1714
   92SAPC  H11X 8913   3.383   4.891   6.713  0.8319 -0.5228 -1.2325
   92SAPC  H11Y 8914   3.337   4.730   6.777  0.9603 -0.8210  1.2582
   92SAPC  C312 8915   3.537   4.738   6.699  0.0635 -0.8260  0.4376
   92SAPC  H12X 8916   3.573   4.656   6.764  1.6055 -1.1448 -0.7450
   92SAPC  H12Y 8917   3.626   4.804   6.686  1.7100 -2.8650  0.8893
   92SAPC  C313 8918   3.493   4.687   6.562 -0.0231 -0.1903 -0.6009
   92SAPC  H13X 8919   3.437   4.765   6.507 -0.6333 -0.5585 -0.5042
   92SAPC  H13Y 8920   3.417   4.608   6.573 -0.8476  0.5974 -0.5590
   92SAPC  C314 8921   3.599   4.613   6.485 -0.1505 -0.0527  0.2804
   92SAPC  H14X 8922   3.639   4.534   6.552 -0.1411  0.4594  0.8883
   92SAPC  H14Y 8923   3.679   4.683   6.454  0.5544  0.3618  2.8279
   92SAPC  C315 8924   3.542   4.535   6.359 -1.2433  0.8248  0.2118
   92SAPC  H15X 8925   3.493   4.610   6.293 -2.2272 -1.7681 -2.2092
   92SAPC  H15Y 8926   3.459   4.468   6.392 -0.7711 -0.4118 -1.0133
   92SAPC  C316 8927   3.656   4.464   6.287  0.2427 -0.2561 -0.4913
   92SAPC  H16X 8928   3.719   4.395   6.347  0.7478 -0.5454 -1.3372
   92SAPC  H16Y 8929   3.726   4.547   6.266 -0.7228  1.2494  1.8317
   92SAPC  C317 8930   3.602   4.396   6.160  0.2989 -0.1402 -0.4066
   92SAPC  H17X 8931   3.668   4.395   6.071 -0.8240  1.3436 -1.2989
   92SAPC  H17Y 8932   3.510   4.453   6.134  0.0727  0.5170  1.6367
   92SAPC  C318 8933   3.556   4.246   6.187  0.7478  0.1961  0.5981
   92SAPC  H18X 8934   3.474   4.254   6.261  0.5781 -0.3785  0.4740
   92SAPC  H18Y 8935   3.635   4.182   6.231  2.7715  2.5186  0.5985
   92SAPC  H18Z 8936   3.509   4.212   6.092  0.3356  1.5758  0.2802
   93SAPC     N 8937   5.957   5.983   8.260 -0.1623  0.6202 -0.8571
   93SAPC   C12 8938   5.828   5.968   8.184 -0.2681 -0.1464  0.0790
   93SAPC  H12A 8939   5.809   5.869   8.145 -0.5330  0.1127 -0.4593
   93SAPC  H12B 8940   5.833   6.031   8.096  0.6447  1.0698  0.9521
   93SAPC   C13 8941   6.065   5.918   8.182 -0.3331 -0.2446 -0.0394
   93SAPC  H13A 8942   6.146   5.937   8.251 -2.1940 -0.7414  2.4389
   93SAPC  H13B 8943   6.054   5.812   8.166  0.4031 -0.8080  2.6874
   93SAPC  H13C 8944   6.074   5.960   8.083 -2.1429 -0.2740 -0.2438
   93SAPC   C14 8945   5.978   6.129   8.260 -0.3553  0.6329 -0.0980
   93SAPC  H14A 8946   6.073   6.145   8.309 -0.0090 -0.3635 -0.4061
   93SAPC  H14B 8947   5.986   6.171   8.161  1.4462  1.9008  0.5384
   93SAPC  H14C 8948   5.897   6.183   8.306 -2.8364 -0.7980 -2.4611
   93SAPC   C15 8949   5.949   5.942   8.404 -0.0291  0.9328  0.1224
   93SAPC  H15A 8950   5.905   6.027   8.454  0.9796  2.0501 -0.8426
   93SAPC  H15B 8951   5.887   5.854   8.417  0.0335  0.8868  0.1067
   93SAPC  H15C 8952   6.047   5.916   8.442  0.7022 -0.4946 -2.5253
   93SAPC   C11 8953   5.689   6.002   8.261  0.0266  0.0888  0.3431
   93SAPC  H11A 8954   5.685   5.953   8.361  0.5185 -0.4989  0.0803
   93SAPC  H11B 8955   5.606   5.958   8.203  1.5587 -2.7846  0.1440
   93SAPC     P 8956   5.626   6.227   8.139 -0.2686 -0.3691 -0.0550
   93SAPC   O13 8957   5.489   6.189   8.094 -0.0637 -0.5027  0.1107
   93SAPC   O14 8958   5.650   6.368   8.163  0.0406 -1.1335 -0.0367
   93SAPC   O12 8959   5.671   6.145   8.266 -0.6108 -0.3705 -0.3769
   93SAPC   O11 8960   5.730   6.182   8.027 -0.1465 -0.6525  0.2930
   93SAPC    C1 8961   5.840   6.266   7.989 -0.0175 -0.3579  0.2660
   93SAPC    HA 8962   5.885   6.316   8.077  0.2001  1.0499 -0.6121
   93SAPC    HB 8963   5.920   6.210   7.935  0.1134 -0.0340  0.1227
   93SAPC    C2 8964   5.809   6.370   7.887 -0.2757 -0.2030  0.1752
   93SAPC    HS 8965   5.756   6.457   7.933  0.8910  1.5247 -1.5874
   93SAPC   O21 8966   5.728   6.307   7.789 -0.1911 -0.3174 -0.0986
   93SAPC   C21 8967   5.625   6.372   7.741  0.5291 -0.4251 -0.2494
   93SAPC   O22 8968   5.569   6.469   7.793 -0.1664 -0.3814 -0.4437
   93SAPC   C22 8969   5.585   6.306   7.610  0.1210 -0.3855  0.4046
   93SAPC   H2R 8970   5.665   6.236   7.576 -0.8924 -1.4563  0.1535
   93SAPC   H2S 8971   5.491   6.249   7.625 -0.2654 -1.3038 -3.9908
   93SAPC    C3 8972   5.937   6.447   7.833  1.1437 -0.4214  0.4057
   93SAPC    HX 8973   6.004   6.370   7.788 -0.1831 -1.0870 -0.4777
   93SAPC    HY 8974   5.994   6.491   7.918  0.5800 -0.1342  0.6391
   93SAPC   O31 8975   5.908   6.534   7.724 -0.3885 -0.1674  0.0005
   93SAPC   C31 8976   5.979   6.647   7.717 -0.4043  0.2805 -0.1034
   93SAPC   O32 8977   6.090   6.657   7.766  0.3363  0.2257  0.4414
   93SAPC   C32 8978   5.889   6.748   7.634  0.2698  0.2141  0.0351
   93SAPC   H2X 8979   5.822   6.793   7.710  0.3881  0.1559  0.1718
   93SAPC   H2Y 8980   5.825   6.699   7.557  0.7801  1.9039 -1.5479
   93SAPC   C23 8981   5.547   6.409   7.503  0.5379 -0.7275 -0.3931
   93SAPC   H3R 8982   5.499   6.498   7.548  0.8387  0.0077 -1.4880
   93SAPC   H3S 8983   5.472   6.358   7.438  0.7860 -1.4932 -0.0960
   93SAPC   C24 8984   5.674   6.441   7.416  0.0413 -0.0484 -0.4647
   93SAPC   H4R 8985   5.704   6.349   7.363  0.6339  0.3698 -0.8729
   93SAPC   H4S 8986   5.756   6.471   7.484  0.1012  3.1343 -1.7342
   93SAPC   C25 8987   5.659   6.566   7.327 -0.1682  0.2011 -0.6469
   93SAPC   H5R 8988   5.650   6.659   7.384 -2.0829 -0.1011 -0.3828
   93SAPC   C26 8989   5.641   6.560   7.190 -0.1057 -0.0784  0.0774
   93SAPC   H6R 8990   5.620   6.654   7.137  1.0835 -0.4319 -1.0472
   93SAPC   C27 8991   5.672   6.442   7.100  1.0863  0.1867  0.5544
   93SAPC   H7R 8992   5.779   6.416   7.115  0.9603 -1.2386 -0.7078
   93SAPC   H7S 8993   5.662   6.481   6.996 -1.2588  3.8620  1.9793
   93SAPC   C28 8994   5.594   6.321   7.120  0.7339  0.0430 -0.7020
   93SAPC   H8R 8995   5.577   6.305   7.227 -2.0824  2.7835 -0.6191
   93SAPC   C29 8996   5.519   6.255   7.027 -0.8159 -0.4583 -0.6747
   93SAPC   H9R 8997   5.466   6.164   7.056 -0.7590  0.2976  2.1416
   93SAPC  C210 8998   5.516   6.278   6.881  0.6271  0.2644  0.4222
   93SAPC  H10R 8999   5.572   6.203   6.820 -1.6526 -0.7923 -0.4736
   93SAPC  H10S 9000   5.573   6.369   6.853  1.8857 -0.4305  0.6106
   93SAPC  C211 9001   5.380   6.289   6.828  0.0797 -0.1152  0.5472
   93SAPC  H11R 9002   5.317   6.352   6.893 -0.3542  0.4109 -0.3744
   93SAPC  C212 9003   5.335   6.241   6.717  0.8525  0.3998  0.4887
   93SAPC  H12R 9004   5.231   6.267   6.693  1.0965  1.0759  0.1417
   93SAPC  C213 9005   5.394   6.158   6.608 -0.3697 -0.4810 -0.2919
   93SAPC  H13R 9006   5.340   6.061   6.603 -2.5950  0.5796  1.3203
   93SAPC  H13S 9007   5.501   6.136   6.626  0.3526  3.0948  0.5041
   93SAPC  C214 9008   5.371   6.249   6.489  0.3622 -0.2925  0.5701
   93SAPC  H14R 9009   5.411   6.350   6.504 -1.9649  0.9855 -1.1551
   93SAPC  C215 9010   5.286   6.239   6.386  0.4445 -0.1176 -0.5147
   93SAPC  H15R 9011   5.283   6.320   6.312  0.5506  1.2968  0.9767
   93SAPC  C216 9012   5.200   6.118   6.355  0.3144 -0.5965  0.0495
   93SAPC  H16R 9013   5.097   6.136   6.395 -0.7169  1.0372 -3.0096
   93SAPC  H16S 9014   5.239   6.026   6.404  1.5811 -0.1202 -0.0308
   93SAPC  C217 9015   5.180   6.105   6.204  0.5025  0.0411  0.1871
   93SAPC  H17R 9016   5.133   6.199   6.167 -1.6293 -0.9994  0.1220
   93SAPC  H17S 9017   5.106   6.024   6.186 -0.3914  1.0590 -0.8879
   93SAPC  C218 9018   5.301   6.056   6.123 -0.9413 -0.0484  1.4433
   93SAPC  H18R 9019   5.333   5.955   6.158  1.5481  0.2904  0.3396
   93SAPC  H18S 9020   5.385   6.126   6.144 -1.1133  0.3664  0.7849
   93SAPC  C219 9021   5.272   6.052   5.971 -0.1456 -1.1102 -0.3932
   93SAPC  H19R 9022   5.260   6.159   5.943 -2.4761 -0.2054  3.3738
   93SAPC  H19S 9023   5.170   6.009   5.958 -2.0380  2.1931  1.9187
   93SAPC  C220 9024   5.381   5.996   5.886  0.0012  1.2411  0.2706
   93SAPC  H20R 9025   5.405   5.891   5.911  1.6024  1.4738 -0.1807
   93SAPC  H20S 9026   5.471   6.059   5.900  0.4542  0.1846  2.7641
   93SAPC  H20T 9027   5.340   5.989   5.783 -2.3630 -0.4151  1.2263
   93SAPC   C33 9028   5.963   6.860   7.578 -0.2839  0.8195  0.4602
   93SAPC   H3X 9029   6.028   6.901   7.658  0.4766  1.7227 -0.5938
   93SAPC   H3Y 9030   5.898   6.946   7.552  0.3494  1.4360  0.8633
   93SAPC   C34 9031   6.054   6.815   7.451  0.4386  0.0237 -1.0736
   93SAPC   H4X 9032   6.116   6.730   7.489 -3.1311 -1.7388  1.4341
   93SAPC   H4Y 9033   6.118   6.901   7.426 -0.0456  0.8015  0.2363
   93SAPC   C35 9034   5.981   6.777   7.324  0.6665 -0.0923 -0.0719
   93SAPC   H5X 9035   5.896   6.847   7.307  0.2457 -0.9506 -1.7265
   93SAPC   H5Y 9036   5.966   6.668   7.334  2.9675 -0.6730 -1.9196
   93SAPC   C36 9037   6.073   6.760   7.203 -0.0884 -0.5809  0.0291
   93SAPC   H6X 9038   6.152   6.685   7.224  1.4907  1.3667  1.4023
   93SAPC   H6Y 9039   6.128   6.854   7.183  0.2380 -0.4554  1.4223
   93SAPC   C37 9040   5.991   6.731   7.076 -0.5056  0.8757  0.9327
   93SAPC   H7X 9041   5.923   6.818   7.062  0.4270  1.4015 -0.7809
   93SAPC   H7Y 9042   5.924   6.646   7.098  3.0338 -1.5497  3.4803
   93SAPC   C38 9043   6.062   6.714   6.942  0.1009  0.7748 -0.1755
   93SAPC   H8X 9044   6.139   6.635   6.958 -0.5394  0.6416  2.8977
   93SAPC   H8Y 9045   6.108   6.810   6.909  1.1575  0.3995  0.1810
   93SAPC   C39 9046   5.966   6.659   6.829 -0.4201 -0.3724 -0.4489
   93SAPC   H9X 9047   5.889   6.736   6.812  0.5828  0.8539  0.3679
   93SAPC   H9Y 9048   5.905   6.580   6.879 -3.4479  2.4340  0.6569
   93SAPC  C310 9049   6.042   6.614   6.698  1.2279 -0.1470 -0.7709
   93SAPC  H10X 9050   5.977   6.550   6.635 -1.2423  0.5723  0.8749
   93SAPC  H10Y 9051   6.129   6.549   6.719 -0.3633 -1.4673  2.3842
   93SAPC  C311 9052   6.078   6.733   6.622  0.5620  0.7827 -0.2738
   93SAPC  H11X 9053   6.159   6.784   6.678 -0.1065 -0.3485  1.8150
   93SAPC  H11Y 9054   5.994   6.805   6.625  0.4739  0.6392  1.5258
   93SAPC  C312 9055   6.123   6.725   6.471 -0.0832  0.0393 -0.2163
   93SAPC  H12X 9056   6.090   6.625   6.436  0.8986 -0.1883 -0.5237
   93SAPC  H12Y 9057   6.233   6.724   6.459 -0.1888  0.9221 -1.5306
   93SAPC  C313 9058   6.074   6.836   6.379 -0.4407 -0.8644 -0.2319
   93SAPC  H13X 9059   6.137   6.927   6.393  1.3383 -1.8470 -1.4071
   93SAPC  H13Y 9060   5.965   6.846   6.397 -0.2274  2.2725 -0.0769
   93SAPC  C314 9061   6.075   6.792   6.234  0.5238 -0.1618 -0.4727
   93SAPC  H14X 9062   6.009   6.703   6.225  1.1330 -0.7510  0.6624
   93SAPC  H14Y 9063   6.177   6.754   6.218  0.8596 -0.1614  1.4299
   93SAPC  C315 9064   6.026   6.880   6.121  0.1677 -0.7572  0.0887
   93SAPC  H15X 9065   6.054   6.845   6.020  1.0709  0.2732 -0.0338
   93SAPC  H15Y 9066   6.079   6.976   6.136  2.2604 -2.0182  1.1061
   93SAPC  C316 9067   5.878   6.916   6.132  0.2929  0.0697  0.5004
   93SAPC  H16X 9068   5.859   6.982   6.220 -0.8328 -0.7398  0.8766
   93SAPC  H16Y 9069   5.815   6.827   6.154  1.0469 -0.4888  0.4418
   93SAPC  C317 9070   5.825   7.000   6.007  0.1708 -0.2346  0.3531
   93SAPC  H17X 9071   5.820   6.935   5.917  1.9773  2.3790 -1.7993
   93SAPC  H17Y 9072   5.899   7.081   5.988 -1.9264  1.7185  0.0169
   93SAPC  C318 9073   5.694   7.084   6.030 -0.3546 -0.3296  0.3440
   93SAPC  H18X 9074   5.605   7.021   6.049 -0.2297 -0.1456  1.6096
   93SAPC  H18Y 9075   5.662   7.150   5.946 -0.3308 -1.5122 -0.6212
   93SAPC  H18Z 9076   5.712   7.157   6.112  0.6973  0.9755 -0.9846
   94SAPC     N 9077   2.500   5.072   8.187 -0.5391 -0.3372  0.0797
   94SAPC   C12 9078   2.428   4.965   8.105 -0.0080  0.5968 -0.5048
   94SAPC  H12A 9079   2.372   5.011   8.025 -1.6077 -0.7062 -0.1887
   94SAPC  H12B 9080   2.357   4.921   8.174  1.7213  0.2333  1.1105
   94SAPC   C13 9081   2.541   5.007   8.318 -0.0087 -0.0198  0.2656
   94SAPC  H13A 9082   2.603   5.071   8.379  0.5895  0.3817 -0.7360
   94SAPC  H13B 9083   2.457   4.978   8.379 -0.4545 -0.2166 -0.4408
   94SAPC  H13C 9084   2.608   4.924   8.296 -0.3410 -0.2863  0.2530
   94SAPC   C14 9085   2.623   5.131   8.114  0.2080  0.1449  0.6368
   94SAPC  H14A 9086   2.706   5.062   8.110  2.0566  2.1692  1.7501
   94SAPC  H14B 9087   2.597   5.146   8.010 -0.2322 -0.6887  0.6216
   94SAPC  H14C 9088   2.651   5.224   8.162 -1.4141  0.7559  0.4606
   94SAPC   C15 9089   2.399   5.178   8.203 -0.2417 -0.4103 -0.5974
   94SAPC  H15A 9090   2.449   5.261   8.252  2.9545 -2.2986 -0.4254
   94SAPC  H15B 9091   2.362   5.218   8.109 -1.7212  0.8017  0.4398
   94SAPC  H15C 9092   2.321   5.160   8.276  0.2930  1.8343  0.6493
   94SAPC   C11 9093   2.515   4.853   8.027 -0.3209  0.3580  0.0544
   94SAPC  H11A 9094   2.603   4.897   7.977 -2.0709  1.1378 -2.5528
   94SAPC  H11B 9095   2.450   4.812   7.947 -0.8478 -0.1625  0.7319
   94SAPC     P 9096   2.478   4.636   8.173 -0.1036  0.2071  0.0950
   94SAPC   O13 9097   2.539   4.587   8.294  0.2145  0.5564  0.6981
   94SAPC   O14 9098   2.335   4.673   8.181  0.3910 -0.3344 -0.6412
   94SAPC   O12 9099   2.563   4.759   8.125 -0.3888  0.4137 -0.6363
   94SAPC   O11 9100   2.517   4.526   8.070  0.0708  0.0362 -0.1583
   94SAPC    C1 9101   2.653   4.508   8.037  1.0010  0.7915  0.1344
   94SAPC    HA 9102   2.731   4.526   8.115 -0.9096 -0.4294  2.4305
   94SAPC    HB 9103   2.671   4.399   8.032  0.1244  0.5958  0.8976
   94SAPC    C2 9104   2.693   4.562   7.900  0.0290  0.1346 -0.0444
   94SAPC    HS 9105   2.696   4.670   7.928 -1.6240 -0.2660  1.9014
   94SAPC   O21 9106   2.583   4.543   7.809 -0.2722 -0.2525 -0.5462
   94SAPC   C21 9107   2.588   4.625   7.710  0.3242  0.4797  0.8435
   94SAPC   O22 9108   2.648   4.727   7.698 -0.0697  0.3799  0.0021
   94SAPC   C22 9109   2.488   4.565   7.608  0.4071 -0.1097  1.1765
   94SAPC   H2R 9110   2.537   4.474   7.568  2.2543  0.8838  1.0607
   94SAPC   H2S 9111   2.391   4.545   7.659 -0.5785  1.3114 -0.0428
   94SAPC    C3 9112   2.826   4.501   7.861 -0.1994  0.4864  0.3400
   94SAPC    HX 9113   2.806   4.413   7.797  0.6573  0.9834 -0.6372
   94SAPC    HY 9114   2.883   4.463   7.948 -0.7224  0.3441  0.6221
   94SAPC   O31 9115   2.912   4.596   7.783 -0.3293  0.5442 -0.5913
   94SAPC   C31 9116   2.901   4.581   7.657  0.2620 -0.4893 -0.1076
   94SAPC   O32 9117   2.827   4.500   7.597  0.0279 -0.4988 -0.0607
   94SAPC   C32 9118   3.030   4.646   7.597 -1.2004  0.8103  0.0032
   94SAPC   H2X 9119   3.035   4.590   7.502 -0.0586 -1.2958  1.2249
   94SAPC   H2Y 9120   3.123   4.626   7.654 -1.2812 -1.7417 -0.6341
   94SAPC   C23 9121   2.433   4.659   7.487 -0.2911 -0.2813  0.1192
   94SAPC   H3R 9122   2.394   4.757   7.522  3.2287  1.9979 -1.7546
   94SAPC   H3S 9123   2.350   4.613   7.430  2.1358 -2.1200 -2.1926
   94SAPC   C24 9124   2.551   4.687   7.391  0.0975 -0.0780  0.2298
   94SAPC   H4R 9125   2.623   4.743   7.454 -0.8927 -1.5369  2.8350
   94SAPC   H4S 9126   2.516   4.765   7.321  0.1416  1.3047  1.6989
   94SAPC   C25 9127   2.622   4.570   7.323 -0.3239 -0.7481  0.0132
   94SAPC   H5R 9128   2.709   4.541   7.384 -1.0948 -0.7354  1.1598
   94SAPC   C26 9129   2.597   4.506   7.215  0.8110  0.1617  0.1025
   94SAPC   H6R 9130   2.666   4.428   7.177 -0.2703  0.3241 -2.4186
   94SAPC   C27 9131   2.478   4.533   7.134  0.2981 -0.5426 -0.7959
   94SAPC   H7R 9132   2.388   4.566   7.191 -0.4622  1.6272 -3.0566
   94SAPC   H7S 9133   2.444   4.436   7.090  2.7201 -1.6299 -0.4092
   94SAPC   C28 9134   2.495   4.636   7.028  0.2892 -0.3911  0.3272
   94SAPC   H8R 9135   2.578   4.708   7.037 -0.4155  0.4026  0.5203
   94SAPC   C29 9136   2.422   4.638   6.917  0.4219  0.7912 -0.0215
   94SAPC   H9R 9137   2.443   4.712   6.838  0.1086 -1.3110 -2.2077
   94SAPC  C210 9138   2.321   4.536   6.873  0.9248  0.9429 -0.0308
   94SAPC  H10R 9139   2.221   4.584   6.871  0.5701  0.2725  1.0489
   94SAPC  H10S 9140   2.305   4.456   6.948  1.3655 -0.5361 -1.4563
   94SAPC  C211 9141   2.357   4.478   6.737  0.2848 -0.5521  0.2844
   94SAPC  H11R 9142   2.451   4.421   6.734  0.5536 -0.3321  2.6845
   94SAPC  C212 9143   2.284   4.484   6.624 -0.0639 -0.4110  0.4055
   94SAPC  H12R 9144   2.325   4.431   6.537  0.8117  1.3693 -0.3326
   94SAPC  C213 9145   2.146   4.548   6.611  0.6143 -0.2990  0.1275
   94SAPC  H13R 9146   2.137   4.626   6.689  3.0686 -1.0518  1.2897
   94SAPC  H13S 9147   2.066   4.477   6.638  0.7452  0.0839  1.6248
   94SAPC  C214 9148   2.137   4.623   6.482  0.7289  0.2331  0.1448
   94SAPC  H14R 9149   2.192   4.718   6.489  0.9188  0.0207  2.7524
   94SAPC  C215 9150   2.073   4.584   6.369 -0.2661 -0.6374 -0.5201
   94SAPC  H15R 9151   2.068   4.651   6.282  0.8860  0.5843  0.3111
   94SAPC  C216 9152   1.989   4.458   6.360 -0.3758 -0.6283  0.2659
   94SAPC  H16R 9153   2.030   4.382   6.431  0.1711 -1.4523 -0.8881
   94SAPC  H16S 9154   1.996   4.408   6.261 -1.8683 -1.1174  0.3883
   94SAPC  C217 9155   1.839   4.486   6.391 -0.6452  0.5575 -0.4659
   94SAPC  H17R 9156   1.814   4.527   6.491 -0.1576 -0.0192 -0.0945
   94SAPC  H17S 9157   1.799   4.382   6.390  1.1555 -0.2804  2.3978
   94SAPC  C218 9158   1.787   4.586   6.288 -0.4086  0.1406  0.3898
   94SAPC  H18R 9159   1.820   4.550   6.188 -1.0375 -2.0703  0.9076
   94SAPC  H18S 9160   1.826   4.688   6.307 -1.3705  0.1548  2.6826
   94SAPC  C219 9161   1.635   4.601   6.289 -0.4674  0.6835 -0.3701
   94SAPC  H19R 9162   1.591   4.506   6.252 -2.1892  2.4433 -3.2588
   94SAPC  H19S 9163   1.601   4.680   6.218 -1.9408  1.0784  0.7263
   94SAPC  C220 9164   1.588   4.617   6.433  0.8007  0.1985  0.3652
   94SAPC  H20R 9165   1.586   4.517   6.480 -1.6936 -1.1883 -2.4393
   94SAPC  H20S 9166   1.481   4.645   6.442  1.2223  1.7780  0.8960
   94SAPC  H20T 9167   1.669   4.673   6.486  1.2914 -0.2290  0.0761
   94SAPC   C33 9168   3.016   4.799   7.568  0.8681  0.3985  0.3709
   94SAPC   H3X 9169   3.116   4.846   7.562 -0.1995  2.6436 -2.7138
   94SAPC   H3Y 9170   2.951   4.846   7.645 -0.8581  2.8706 -2.3684
   94SAPC   C34 9171   2.949   4.824   7.436 -0.1037  0.0478 -0.4972
   94SAPC   H4X 9172   2.921   4.931   7.433 -0.4947 -0.0780 -1.7535
   94SAPC   H4Y 9173   2.859   4.759   7.436  0.8956 -1.3833 -1.0457
   94SAPC   C35 9174   3.026   4.782   7.312  0.3569 -0.5360 -0.1949
   94SAPC   H5X 9175   3.050   4.673   7.315  1.5224 -0.2766  0.8937
   94SAPC   H5Y 9176   3.120   4.842   7.308  0.7878 -1.0777  1.1132
   94SAPC   C36 9177   2.952   4.822   7.190  0.6070  0.0234  0.4176
   94SAPC   H6X 9178   2.916   4.928   7.196 -0.5857 -0.3200 -0.2824
   94SAPC   H6Y 9179   2.865   4.756   7.168  1.1494 -0.1036 -1.5042
   94SAPC   C37 9180   3.036   4.833   7.065  0.1085  0.4331 -0.1665
   94SAPC   H7X 9181   3.143   4.850   7.088  0.6798 -3.0151  0.3295
   94SAPC   H7Y 9182   2.992   4.900   6.988 -1.2812  0.0862  0.2984
   94SAPC   C38 9183   3.050   4.693   7.001  0.3252  0.1859 -0.3416
   94SAPC   H8X 9184   3.074   4.625   7.087  0.9264 -0.1958 -0.8031
   94SAPC   H8Y 9185   3.130   4.691   6.924 -0.6779 -0.7530 -1.4088
   94SAPC   C39 9186   2.927   4.636   6.923 -0.1867  0.4121 -0.4998
   94SAPC   H9X 9187   2.832   4.640   6.980 -1.3682 -1.8078 -2.1454
   94SAPC   H9Y 9188   2.946   4.528   6.911 -0.9455 -0.0809  2.1950
   94SAPC  C310 9189   2.905   4.693   6.778 -0.2644 -0.4151  0.0307
   94SAPC  H10X 9190   2.992   4.660   6.717 -1.0690 -4.5477  0.7800
   94SAPC  H10Y 9191   2.883   4.802   6.778  0.6464 -0.2212 -0.7622
   94SAPC  C311 9192   2.791   4.620   6.706  0.9003  0.2155 -0.4890
   94SAPC  H11X 9193   2.702   4.637   6.772  0.8904 -1.6795  0.0507
   94SAPC  H11Y 9194   2.807   4.510   6.711 -1.7669 -0.2029  1.5971
   94SAPC  C312 9195   2.752   4.688   6.571  0.1694 -0.0990  0.4230
   94SAPC  H12X 9196   2.835   4.696   6.497  0.1033  1.6447  0.5134
   94SAPC  H12Y 9197   2.725   4.795   6.580 -0.6700 -0.2505 -0.1396
   94SAPC  C313 9198   2.634   4.612   6.507 -0.6671  0.3044  0.4710
   94SAPC  H13X 9199   2.591   4.683   6.433  1.6434  0.7008 -0.5911
   94SAPC  H13Y 9200   2.556   4.593   6.583  0.7216 -0.1695  1.8296
   94SAPC  C314 9201   2.686   4.485   6.440 -0.8479 -0.2871 -0.0130
   94SAPC  H14X 9202   2.739   4.420   6.512 -0.1871  0.8232  0.5332
   94SAPC  H14Y 9203   2.767   4.500   6.365 -1.2509  2.0107 -0.0598
   94SAPC  C315 9204   2.588   4.389   6.366 -0.0418  0.5506 -1.2164
   94SAPC  H15X 9205   2.527   4.338   6.444  1.1980 -0.1660 -0.6755
   94SAPC  H15Y 9206   2.651   4.314   6.313  1.8909  0.3330  1.2020
   94SAPC  C316 9207   2.498   4.451   6.260 -0.0719  0.0419 -0.0026
   94SAPC  H16X 9208   2.555   4.491   6.174 -0.5170  0.4228 -0.1245
   94SAPC  H16Y 9209   2.429   4.529   6.299 -1.6330 -1.2329 -0.0803
   94SAPC  C317 9210   2.410   4.337   6.189 -0.2216 -0.8216 -0.1462
   94SAPC  H17X 9211   2.357   4.292   6.276 -1.2386  2.5604  1.1141
   94SAPC  H17Y 9212   2.465   4.252   6.142 -0.4929 -0.9512 -0.2282
   94SAPC  C318 9213   2.306   4.379   6.088 -1.4684 -0.3129  0.6093
   94SAPC  H18X 9214   2.277   4.482   6.118  1.4115  1.7140 -2.6604
   94SAPC  H18Y 9215   2.216   4.317   6.072 -1.2008 -0.1984 -1.8037
   94SAPC  H18Z 9216   2.353   4.402   5.990 -0.9410  1.8441  1.2924
   95SAPC     N 9217   5.386   2.254   3.339  0.3886 -0.1421  0.5311
   95SAPC   C12 9218   5.323   2.288   3.476 -1.0883  0.2092 -0.6014
   95SAPC  H12A 9219   5.319   2.396   3.468  4.3179  0.8932  1.5423
   95SAPC  H12B 9220   5.388   2.260   3.557 -0.9160  1.3886 -0.3106
   95SAPC   C13 9221   5.428   2.104   3.317 -0.4533 -0.7983 -0.9006
   95SAPC  H13A 9222   5.339   2.046   3.337 -0.9820  0.0760 -0.6817
   95SAPC  H13B 9223   5.465   2.084   3.218  0.9445  2.0160 -1.0456
   95SAPC  H13C 9224   5.499   2.083   3.396  0.5154 -1.2071 -1.8500
   95SAPC   C14 9225   5.300   2.296   3.219  0.3267  0.3863  0.0393
   95SAPC  H14A 9226   5.281   2.402   3.216  1.9030  0.7112  0.3736
   95SAPC  H14B 9227   5.348   2.272   3.125 -0.0862 -1.8988  0.3476
   95SAPC  H14C 9228   5.205   2.245   3.220 -0.1653  1.1848 -1.8438
   95SAPC   C15 9229   5.509   2.328   3.328 -0.1165  0.4842  0.6518
   95SAPC  H15A 9230   5.581   2.286   3.398  0.7907 -0.1010 -0.5912
   95SAPC  H15B 9231   5.562   2.327   3.234  0.6315  2.2252  1.0110
   95SAPC  H15C 9232   5.497   2.433   3.348 -1.5848  0.4877 -0.1732
   95SAPC   C11 9233   5.182   2.230   3.495  0.0365 -0.3221  0.1744
   95SAPC  H11A 9234   5.151   2.233   3.602 -1.2624 -0.6135 -0.1753
   95SAPC  H11B 9235   5.178   2.121   3.474  0.4102 -0.3226  0.1066
   95SAPC     P 9236   4.975   2.396   3.475  0.2989  0.2824 -0.5408
   95SAPC   O13 9237   4.984   2.521   3.397 -0.0171 -0.5993  0.3476
   95SAPC   O14 9238   4.847   2.325   3.482  0.3470  0.0444 -0.2186
   95SAPC   O12 9239   5.084   2.286   3.413  0.2920 -1.2553 -0.1408
   95SAPC   O11 9240   5.021   2.420   3.625  0.0336 -0.7887 -0.0311
   95SAPC    C1 9241   4.923   2.442   3.726  0.2037  0.5256 -0.4381
   95SAPC    HA 9242   4.858   2.524   3.689 -0.4943  0.0415 -0.3254
   95SAPC    HB 9243   4.856   2.354   3.737 -0.5856  0.8686 -2.1255
   95SAPC    C2 9244   4.990   2.452   3.864 -0.3503  0.0357 -0.7687
   95SAPC    HS 9245   4.922   2.502   3.936 -1.2347 -1.2678 -0.6731
   95SAPC   O21 9246   5.108   2.530   3.869 -0.5322 -0.0626 -0.0103
   95SAPC   C21 9247   5.093   2.662   3.874  0.3877  0.6751  0.1641
   95SAPC   O22 9248   4.989   2.725   3.877  0.2664 -0.7046 -0.0825
   95SAPC   C22 9249   5.234   2.722   3.881 -0.2103 -0.2414 -0.7849
   95SAPC   H2R 9250   5.306   2.641   3.857  1.4553  1.3742 -1.3756
   95SAPC   H2S 9251   5.252   2.793   3.798  4.0613 -0.0389  0.0745
   95SAPC    C3 9252   5.024   2.313   3.911  0.5049 -0.5753  0.0319
   95SAPC    HX 9253   5.070   2.267   3.821 -0.8593 -0.6636 -0.6524
   95SAPC    HY 9254   4.930   2.255   3.926  0.5263 -0.7738 -0.5685
   95SAPC   O31 9255   5.107   2.311   4.026 -0.2785  0.8582  0.1640
   95SAPC   C31 9256   5.219   2.253   4.012  0.0640  0.6881  0.3063
   95SAPC   O32 9257   5.255   2.173   3.925 -0.9640 -0.3015  0.3917
   95SAPC   C32 9258   5.311   2.292   4.133 -0.2289  0.7125  0.6835
   95SAPC   H2X 9259   5.250   2.360   4.196 -0.7446 -0.0417  1.0132
   95SAPC   H2Y 9260   5.390   2.352   4.084  0.3315 -2.0284 -2.1190
   95SAPC   C23 9261   5.252   2.779   4.024  0.0020 -0.3086  0.6476
   95SAPC   H3R 9262   5.172   2.844   4.067 -1.0935 -2.5789  2.2472
   95SAPC   H3S 9263   5.348   2.832   4.032 -0.3661  0.9742 -2.1086
   95SAPC   C24 9264   5.249   2.662   4.126  0.2928  0.4270 -0.5361
   95SAPC   H4R 9265   5.301   2.574   4.083 -1.9167 -1.4168  0.3550
   95SAPC   H4S 9266   5.146   2.626   4.141  0.6163 -0.8783 -1.3616
   95SAPC   C25 9267   5.309   2.708   4.260 -0.1981  0.5549  0.5232
   95SAPC   H5R 9268   5.388   2.783   4.246  1.1941 -0.2953  3.0768
   95SAPC   C26 9269   5.273   2.668   4.383  0.4270  0.2780  0.9813
   95SAPC   H6R 9270   5.315   2.723   4.468  1.2756  0.6427  0.3439
   95SAPC   C27 9271   5.154   2.569   4.403 -0.5270  0.4419  0.7197
   95SAPC   H7R 9272   5.167   2.481   4.337  1.1100  0.9615  0.2877
   95SAPC   H7S 9273   5.053   2.607   4.377 -0.6113 -0.0588  0.2909
   95SAPC   C28 9274   5.145   2.528   4.551 -0.3078 -0.2768  0.3423
   95SAPC   H8R 9275   5.228   2.464   4.583 -0.2336 -0.3471  0.0145
   95SAPC   C29 9276   5.055   2.558   4.645  0.0886  0.2186  0.3466
   95SAPC   H9R 9277   5.061   2.505   4.742  1.2381  0.0627  0.2090
   95SAPC  C210 9278   4.932   2.644   4.636 -0.0249  0.5123  0.4341
   95SAPC  H10R 9279   4.926   2.689   4.535 -0.0280  2.3040  1.1992
   95SAPC  H10S 9280   4.956   2.738   4.689  0.0786  0.5134  0.3871
   95SAPC  C211 9281   4.811   2.571   4.688  0.6590  0.5614  0.1913
   95SAPC  H11R 9282   4.746   2.528   4.610  0.2661  0.4638  0.5679
   95SAPC  C212 9283   4.782   2.535   4.813 -0.8451 -0.0874  0.0715
   95SAPC  H12R 9284   4.683   2.492   4.833 -0.1426 -1.9344 -0.2743
   95SAPC  C213 9285   4.858   2.573   4.938 -0.3790  0.0425  0.9009
   95SAPC  H13R 9286   4.796   2.638   5.002  1.9017  2.7006  0.5891
   95SAPC  H13S 9287   4.939   2.645   4.913 -2.2117  1.3140 -1.8868
   95SAPC  C214 9288   4.917   2.456   5.027  0.3841  0.1153  0.2123
   95SAPC  H14R 9289   4.950   2.367   4.972 -1.2311 -0.5089  0.2173
   95SAPC  C215 9290   4.947   2.472   5.161 -0.8667  0.0245  0.2183
   95SAPC  H15R 9291   4.988   2.389   5.221  2.7873  1.0438 -0.6180
   95SAPC  C216 9292   4.929   2.594   5.248 -0.1276  0.1087 -0.7542
   95SAPC  H16R 9293   4.876   2.562   5.340  1.1762 -0.6511 -0.2536
   95SAPC  H16S 9294   4.870   2.672   5.194 -1.2849  2.2531  3.2504
   95SAPC  C217 9295   5.069   2.643   5.287 -0.2757  0.2338 -0.2413
   95SAPC  H17R 9296   5.131   2.647   5.194 -0.7909  0.1493 -0.5924
   95SAPC  H17S 9297   5.124   2.578   5.359  1.8028  1.8835 -0.2552
   95SAPC  C218 9298   5.080   2.785   5.339 -0.7278  0.1947  1.0675
   95SAPC  H18R 9299   5.012   2.842   5.273  0.6480 -0.9657 -1.5080
   95SAPC  H18S 9300   5.183   2.817   5.310 -0.7226 -2.0580 -1.9102
   95SAPC  C219 9301   5.057   2.794   5.491  0.3173 -0.0569  0.0792
   95SAPC  H19R 9302   5.117   2.720   5.548 -1.4117 -1.6009 -0.0032
   95SAPC  H19S 9303   4.957   2.759   5.523 -0.4850  0.0685 -2.1563
   95SAPC  C220 9304   5.074   2.934   5.549  0.2313 -0.2032  0.0558
   95SAPC  H20R 9305   5.017   3.014   5.497  0.2780  2.3677  3.6085
   95SAPC  H20S 9306   5.182   2.955   5.563  0.0821 -0.5125  1.8542
   95SAPC  H20T 9307   5.037   2.925   5.653  1.2526  2.1196  0.6860
   95SAPC   C33 9308   5.366   2.174   4.202 -0.3956  0.1421 -0.0833
   95SAPC   H3X 9309   5.456   2.199   4.262 -0.1306 -0.3345 -0.2753
   95SAPC   H3Y 9310   5.408   2.100   4.130  3.0171  0.1430  1.7037
   95SAPC   C34 9311   5.261   2.110   4.305 -0.2925  0.4030 -0.3053
   95SAPC   H4X 9312   5.307   2.013   4.333 -3.7559 -1.3625 -0.1964
   95SAPC   H4Y 9313   5.174   2.077   4.244 -0.5965 -1.3079  0.9823
   95SAPC   C35 9314   5.230   2.208   4.414  0.2650 -0.4447 -0.0408
   95SAPC   H5X 9315   5.145   2.274   4.386  0.6969  0.2665  0.2904
   95SAPC   H5Y 9316   5.322   2.266   4.436  2.2342 -3.2914 -0.2077
   95SAPC   C36 9317   5.171   2.144   4.548 -0.3734 -0.1137  0.1246
   95SAPC   H6X 9318   5.064   2.115   4.556 -0.8109  1.7250  1.6700
   95SAPC   H6Y 9319   5.165   2.235   4.611 -3.0701 -0.9749  1.2674
   95SAPC   C37 9320   5.269   2.046   4.617  0.1643 -0.3053  0.0457
   95SAPC   H7X 9321   5.373   2.085   4.623 -0.1420  0.7468 -1.0236
   95SAPC   H7Y 9322   5.259   1.955   4.554 -1.3964  0.6144 -1.1083
   95SAPC   C38 9323   5.213   2.018   4.755 -0.3272 -0.4228  0.2753
   95SAPC   H8X 9324   5.272   1.932   4.794  1.8357  1.0855  0.5618
   95SAPC   H8Y 9325   5.105   1.999   4.742 -0.3419  0.5351 -1.1231
   95SAPC   C39 9326   5.244   2.132   4.859 -0.1294  0.0828 -0.6818
   95SAPC   H9X 9327   5.191   2.228   4.840 -0.8017  0.6871  3.3548
   95SAPC   H9Y 9328   5.354   2.144   4.863 -0.1232 -0.1072 -0.2523
   95SAPC  C310 9329   5.197   2.074   4.992  0.1616 -0.0992  0.7959
   95SAPC  H10X 9330   5.264   1.988   5.013 -0.0597 -1.0947 -2.1606
   95SAPC  H10Y 9331   5.093   2.036   4.993  0.2613 -0.3643  1.0265
   95SAPC  C311 9332   5.226   2.174   5.109  0.1558  0.2380  0.2239
   95SAPC  H11X 9333   5.176   2.261   5.061  0.1340  0.6487  0.9811
   95SAPC  H11Y 9334   5.335   2.195   5.105  0.0123  0.8325 -1.8910
   95SAPC  C312 9335   5.165   2.146   5.244 -0.3325  0.2038 -0.2014
   95SAPC  H12X 9336   5.064   2.101   5.240  0.1734 -0.9150 -1.1414
   95SAPC  H12Y 9337   5.186   2.237   5.305 -1.3221 -0.1693  0.7151
   95SAPC  C313 9338   5.243   2.032   5.315 -0.2287 -0.2485  0.3907
   95SAPC  H13X 9339   5.351   2.051   5.296  0.2375 -2.1626  0.9137
   95SAPC  H13Y 9340   5.202   1.935   5.281 -1.2913  0.8974 -1.7687
   95SAPC  C314 9341   5.225   2.035   5.475 -0.0166  0.1648  0.4374
   95SAPC  H14X 9342   5.263   1.937   5.513  1.4061  0.2159 -0.7529
   95SAPC  H14Y 9343   5.116   2.046   5.491 -0.5281 -2.9520 -0.3454
   95SAPC  C315 9344   5.306   2.150   5.546 -0.0713 -0.3310 -0.2967
   95SAPC  H15X 9345   5.265   2.253   5.534 -1.6698 -0.6979  1.4772
   95SAPC  H15Y 9346   5.404   2.153   5.494  0.4991  0.2987  0.7814
   95SAPC  C316 9347   5.336   2.133   5.698  0.6555  0.0947  0.3961
   95SAPC  H16X 9348   5.392   2.038   5.708  0.0043 -0.5378 -1.5341
   95SAPC  H16Y 9349   5.233   2.123   5.738  1.6489 -0.7890  2.9394
   95SAPC  C317 9350   5.395   2.252   5.764 -0.4346  0.2417  0.2653
   95SAPC  H17X 9351   5.341   2.346   5.738 -0.5667  0.4801  1.3520
   95SAPC  H17Y 9352   5.491   2.283   5.716 -1.0814  1.5508 -0.2604
   95SAPC  C318 9353   5.410   2.243   5.910 -0.1768  0.3335 -0.2869
   95SAPC  H18X 9354   5.307   2.222   5.947 -0.1057 -2.8614 -1.5758
   95SAPC  H18Y 9355   5.464   2.334   5.943  2.8951  0.2587 -4.3279
   95SAPC  H18Z 9356   5.472   2.156   5.942  0.1706  1.3757  2.1264
   96SAPC     N 9357   5.691   3.628   3.117  0.5284 -0.3312  0.0769
   96SAPC   C12 9358   5.631   3.731   3.216  0.1566  0.4941  0.5947
   96SAPC  H12A 9359   5.571   3.812   3.177 -0.7969 -0.2743  0.4054
   96SAPC  H12B 9360   5.713   3.767   3.276  0.8087 -0.6399  0.3999
   96SAPC   C13 9361   5.812   3.555   3.181  0.1595  0.1299  0.0968
   96SAPC  H13A 9362   5.777   3.494   3.264 -0.5486  0.8856  0.3712
   96SAPC  H13B 9363   5.867   3.493   3.113  0.5478  0.1106  0.4204
   96SAPC  H13C 9364   5.889   3.622   3.216 -1.4172  2.7123 -1.0932
   96SAPC   C14 9365   5.587   3.531   3.063 -0.1041 -0.0099  0.6446
   96SAPC  H14A 9366   5.533   3.480   3.141  1.1696  1.7885  2.8214
   96SAPC  H14B 9367   5.524   3.584   2.993  0.7558 -0.3197 -0.3853
   96SAPC  H14C 9368   5.650   3.459   3.013  0.5417  2.1123 -1.8530
   96SAPC   C15 9369   5.739   3.713   3.008  0.4890  0.4203  0.3170
   96SAPC  H15A 9370   5.776   3.656   2.923 -1.7596  2.2985 -2.0849
   96SAPC  H15B 9371   5.666   3.785   2.974  0.8646 -0.4271 -2.5612
   96SAPC  H15C 9372   5.827   3.770   3.034  1.6814 -1.0036 -0.4364
   96SAPC   C11 9373   5.542   3.660   3.328 -0.9731  0.3658 -0.1998
   96SAPC  H11A 9374   5.447   3.626   3.283 -1.1385 -1.0643  1.1325
   96SAPC  H11B 9375   5.502   3.744   3.389 -0.8107  1.9156 -2.1202
   96SAPC     P 9376   5.560   3.413   3.424 -0.2421 -0.5778 -0.3314
   96SAPC   O13 9377   5.466   3.366   3.322 -0.1498  0.5296  0.3290
   96SAPC   O14 9378   5.671   3.317   3.468  0.2096 -0.3878 -0.0139
   96SAPC   O12 9379   5.614   3.558   3.398 -0.1077  0.0650 -0.3493
   96SAPC   O11 9380   5.476   3.453   3.550 -0.7628  0.1889 -0.5965
   96SAPC    C1 9381   5.517   3.445   3.685 -0.5870 -0.3794 -0.1200
   96SAPC    HA 9382   5.619   3.488   3.698  0.0910 -2.0547  0.4462
   96SAPC    HB 9383   5.459   3.515   3.748  1.5123  1.2824  0.0961
   96SAPC    C2 9384   5.500   3.298   3.735  0.3113  0.3165  0.5513
   96SAPC    HS 9385   5.557   3.230   3.668 -1.9049  1.1431 -2.3781
   96SAPC   O21 9386   5.362   3.259   3.729 -0.0921 -0.1443  0.2909
   96SAPC   C21 9387   5.341   3.122   3.732 -0.2519 -0.3812  0.8339
   96SAPC   O22 9388   5.430   3.043   3.748 -0.3151  0.2884  0.2168
   96SAPC   C22 9389   5.190   3.092   3.722  0.6196  0.5445 -0.1670
   96SAPC   H2R 9390   5.132   3.167   3.664  0.9148  2.4912  1.8921
   96SAPC   H2S 9391   5.178   2.996   3.668  0.1196  1.7361 -2.2992
   96SAPC    C3 9392   5.549   3.288   3.882  0.0672  0.0663  0.0206
   96SAPC    HX 9393   5.543   3.187   3.928 -0.7437  0.8268  1.6962
   96SAPC    HY 9394   5.471   3.349   3.932 -0.6980 -0.2182 -0.7955
   96SAPC   O31 9395   5.687   3.338   3.900  0.0632 -0.1014 -0.2628
   96SAPC   C31 9396   5.789   3.252   3.874  0.0551 -0.2624 -0.0525
   96SAPC   O32 9397   5.778   3.147   3.816 -0.6139  0.1729  0.7408
   96SAPC   C32 9398   5.918   3.326   3.901 -0.1069 -0.0844  0.0421
   96SAPC   H2X 9399   5.905   3.422   3.847 -0.1503 -1.3444 -2.3288
   96SAPC   H2Y 9400   5.994   3.263   3.850 -1.9036 -1.1594 -1.4242
   96SAPC   C23 9401   5.133   3.081   3.867 -0.5568 -0.8125  0.5920
   96SAPC   H3R 9402   5.195   3.009   3.926 -2.0593 -0.7504  2.3521
   96SAPC   H3S 9403   5.039   3.022   3.872 -1.2040  0.0734 -0.7442
   96SAPC   C24 9404   5.124   3.205   3.955  0.4369 -0.5519  0.2339
   96SAPC   H4R 9405   5.223   3.255   3.962  0.5133 -0.9600  3.1265
   96SAPC   H4S 9406   5.103   3.181   4.061 -0.9071  1.1253  0.3932
   96SAPC   C25 9407   5.013   3.301   3.910 -0.7923  1.2934  0.1837
   96SAPC   H5R 9408   4.920   3.243   3.905  0.2058 -0.3388 -0.4376
   96SAPC   C26 9409   5.021   3.429   3.878 -0.0208 -0.0539 -0.7349
   96SAPC   H6R 9410   4.931   3.484   3.848  0.6039  1.5976  0.3296
   96SAPC   C27 9411   5.131   3.528   3.874 -0.4035 -0.3781  0.9657
   96SAPC   H7R 9412   5.147   3.579   3.776  2.5315  0.3538  1.7159
   96SAPC   H7S 9413   5.228   3.480   3.900 -0.0370  0.0290  0.3860
   96SAPC   C28 9414   5.114   3.643   3.968 -0.2327 -0.1468 -0.2534
   96SAPC   H8R 9415   5.048   3.721   3.927 -1.2761 -1.0679 -0.3728
   96SAPC   C29 9416   5.193   3.678   4.070 -0.5788  0.7085  0.0634
   96SAPC   H9R 9417   5.159   3.767   4.125 -0.0388  1.4346 -0.7490
   96SAPC  C210 9418   5.310   3.595   4.117 -0.5541 -0.1301  1.2139
   96SAPC  H10R 9419   5.397   3.660   4.138 -0.0641 -0.6584  0.8671
   96SAPC  H10S 9420   5.346   3.534   4.031 -2.5828  0.7568 -0.3771
   96SAPC  C211 9421   5.266   3.509   4.233 -0.8871  0.4708  0.2211
   96SAPC  H11R 9422   5.186   3.436   4.210 -0.7824  0.2377  0.5826
   96SAPC  C212 9423   5.325   3.514   4.351  0.2513  0.3374 -0.0592
   96SAPC  H12R 9424   5.300   3.433   4.421  0.6925  1.8828  1.9827
   96SAPC  C213 9425   5.437   3.597   4.400  0.2704 -0.1590  0.4173
   96SAPC  H13R 9426   5.401   3.667   4.478 -1.0906 -0.9095  0.4711
   96SAPC  H13S 9427   5.481   3.669   4.327 -0.2402  0.8185  1.0506
   96SAPC  C214 9428   5.547   3.530   4.474  0.4689 -0.1732 -1.2987
   96SAPC  H14R 9429   5.639   3.548   4.416  1.4687 -1.2517 -0.1184
   96SAPC  C215 9430   5.537   3.458   4.593 -0.4999 -0.1667 -0.0580
   96SAPC  H15R 9431   5.626   3.439   4.655 -0.8895 -1.5578  0.0936
   96SAPC  C216 9432   5.412   3.433   4.679  0.7294 -0.2883  0.0115
   96SAPC  H16R 9433   5.398   3.323   4.682 -1.2282 -0.0599  0.5156
   96SAPC  H16S 9434   5.319   3.474   4.635 -0.3900 -2.1558  0.5315
   96SAPC  C217 9435   5.424   3.493   4.822 -0.2866 -1.0719  0.3076
   96SAPC  H17R 9436   5.434   3.602   4.805 -1.2692 -0.9824  0.2225
   96SAPC  H17S 9437   5.517   3.469   4.877  0.3246  2.3098  0.9494
   96SAPC  C218 9438   5.305   3.460   4.901  0.4875 -0.3473 -1.1392
   96SAPC  H18R 9439   5.298   3.350   4.920 -0.1222  0.0211  1.0665
   96SAPC  H18S 9440   5.215   3.487   4.841  0.0169  2.6548  0.7347
   96SAPC  C219 9441   5.291   3.530   5.039 -0.9129  0.1759 -0.9837
   96SAPC  H19R 9442   5.393   3.536   5.082 -1.4359  0.8635  0.2186
   96SAPC  H19S 9443   5.238   3.462   5.109  0.3768  0.6810  0.5457
   96SAPC  C220 9444   5.229   3.668   5.028 -0.2090  0.2527  0.0912
   96SAPC  H20R 9445   5.129   3.656   4.980 -1.0047 -1.8366  2.0742
   96SAPC  H20S 9446   5.298   3.728   4.966 -0.0941  0.1891  0.1578
   96SAPC  H20T 9447   5.210   3.705   5.131 -1.2587  2.0454 -0.6928
   96SAPC   C33 9448   5.947   3.361   4.047  0.1568  0.2280 -0.3970
   96SAPC   H3X 9449   5.864   3.418   4.094  0.4581 -0.2512  0.7654
   96SAPC   H3Y 9450   6.037   3.427   4.051 -0.3837  1.1034 -2.0030
   96SAPC   C34 9451   5.950   3.241   4.137 -0.5158  0.8468  0.0294
   96SAPC   H4X 9452   6.032   3.173   4.109 -1.3218 -1.2665  2.4411
   96SAPC   H4Y 9453   5.856   3.181   4.133  0.7046 -1.0844 -0.9824
   96SAPC   C35 9454   5.979   3.275   4.289 -0.4371  0.0084 -0.2642
   96SAPC   H5X 9455   6.029   3.373   4.303 -0.0869 -0.5105  2.7646
   96SAPC   H5Y 9456   6.044   3.197   4.334 -0.1954  0.1906 -0.2934
   96SAPC   C36 9457   5.854   3.300   4.380 -0.0125 -0.1846 -0.4887
   96SAPC   H6X 9458   5.777   3.221   4.370  0.8116 -1.7068  3.3845
   96SAPC   H6Y 9459   5.798   3.390   4.345 -0.3234 -1.0537 -2.3592
   96SAPC   C37 9460   5.892   3.297   4.525 -0.4915  0.0466 -0.6212
   96SAPC   H7X 9461   5.959   3.211   4.543 -0.2674  0.2727 -0.3743
   96SAPC   H7Y 9462   5.799   3.276   4.582 -0.8286 -0.7641 -1.4436
   96SAPC   C38 9463   5.942   3.442   4.574 -0.5230 -0.2136  0.5337
   96SAPC   H8X 9464   5.853   3.508   4.577  0.2986  1.1483 -2.1998
   96SAPC   H8Y 9465   6.021   3.486   4.509 -0.2290 -0.1152  0.9501
   96SAPC   C39 9466   5.988   3.437   4.719  0.0331  0.7938 -0.9114
   96SAPC   H9X 9467   6.034   3.534   4.749  0.0013 -0.3342  3.3831
   96SAPC   H9Y 9468   6.064   3.357   4.726 -1.4547 -0.5154  1.2027
   96SAPC  C310 9469   5.889   3.409   4.837  0.0330  0.2867  0.3443
   96SAPC  H10X 9470   5.864   3.300   4.834  0.2916  0.2460 -0.3821
   96SAPC  H10Y 9471   5.793   3.461   4.818 -0.9185 -1.7734 -0.8225
   96SAPC  C311 9472   5.942   3.445   4.974 -0.6722 -0.1122  0.2349
   96SAPC  H11X 9473   5.962   3.554   4.975 -2.2230  0.2173 -0.6889
   96SAPC  H11Y 9474   6.040   3.393   4.984 -0.9557 -0.4567  1.4634
   96SAPC  C312 9475   5.839   3.397   5.074 -0.0958 -0.3625  0.3496
   96SAPC  H12X 9476   5.844   3.287   5.078 -0.7203 -0.4758 -1.2558
   96SAPC  H12Y 9477   5.739   3.430   5.039  0.7631  1.6538 -0.3334
   96SAPC  C313 9478   5.872   3.451   5.221  0.2529 -0.0218  0.5242
   96SAPC  H13X 9479   5.903   3.557   5.223  3.5019 -0.8836  1.1565
   96SAPC  H13Y 9480   5.961   3.390   5.246  0.3496 -1.6718 -3.1830
   96SAPC  C314 9481   5.751   3.418   5.304  0.5947 -0.1128  0.0182
   96SAPC  H14X 9482   5.670   3.469   5.247  0.9678  0.6802  0.1729
   96SAPC  H14Y 9483   5.762   3.480   5.396 -1.8209 -0.1013  0.3788
   96SAPC  C315 9484   5.743   3.272   5.337 -0.0446  0.4726 -0.2888
   96SAPC  H15X 9485   5.844   3.233   5.362 -0.5114 -1.8004 -1.6193
   96SAPC  H15Y 9486   5.725   3.226   5.237 -1.9614 -0.1475  0.2896
   96SAPC  C316 9487   5.631   3.237   5.434  0.0278 -0.1418  0.0927
   96SAPC  H16X 9488   5.634   3.306   5.521 -0.7782 -0.4638  0.3875
   96SAPC  H16Y 9489   5.647   3.132   5.466  0.4157 -1.3855 -3.7021
   96SAPC  C317 9490   5.485   3.245   5.379  0.4344  0.1595  0.5854
   96SAPC  H17X 9491   5.462   3.346   5.337 -0.8667 -0.1552  0.5046
   96SAPC  H17Y 9492   5.415   3.216   5.460  0.1369  0.5871  0.4857
   96SAPC  C318 9493   5.456   3.144   5.268  1.1605  0.7183 -0.0932
   96SAPC  H18X 9494   5.357   3.163   5.222 -0.7187 -0.7531  3.0136
   96SAPC  H18Y 9495   5.450   3.043   5.312 -0.2344  0.5442 -0.6368
   96SAPC  H18Z 9496   5.529   3.155   5.185  2.4788 -0.2633  0.8840
   97SAPC     N 9497   3.428   2.356   3.957  0.4393  0.0860  0.3585
   97SAPC   C12 9498   3.550   2.397   4.039  0.1772 -0.7552 -0.3099
   97SAPC  H12A 9499   3.530   2.464   4.121  0.3086 -0.8421 -0.2074
   97SAPC  H12B 9500   3.605   2.450   3.963 -2.7344 -2.4014 -3.8894
   97SAPC   C13 9501   3.338   2.257   4.023  0.9606 -0.1646  0.4199
   97SAPC  H13A 9502   3.384   2.162   4.043 -1.6552 -1.0919  2.7833
   97SAPC  H13B 9503   3.302   2.290   4.120 -1.9490 -2.1308  0.1407
   97SAPC  H13C 9504   3.258   2.230   3.956  1.6751 -0.7637 -0.2135
   97SAPC   C14 9505   3.344   2.489   3.936 -0.8914  0.2111 -0.4444
   97SAPC  H14A 9506   3.294   2.505   4.031 -2.2852 -2.6042 -0.6186
   97SAPC  H14B 9507   3.408   2.571   3.907 -0.2685 -0.1380 -0.0927
   97SAPC  H14C 9508   3.268   2.467   3.863 -1.7841 -0.5724  0.6791
   97SAPC   C15 9509   3.475   2.307   3.825  0.0065 -0.6433 -0.9585
   97SAPC  H15A 9510   3.531   2.215   3.837  2.1025  0.2467 -3.1468
   97SAPC  H15B 9511   3.388   2.292   3.763 -1.1033  2.3331 -0.2774
   97SAPC  H15C 9512   3.543   2.376   3.778 -0.1149 -0.8299 -1.4159
   97SAPC   C11 9513   3.631   2.293   4.100  0.2179  0.8843 -0.7028
   97SAPC  H11A 9514   3.573   2.213   4.151  1.4039 -0.0271 -0.7697
   97SAPC  H11B 9515   3.690   2.342   4.180 -1.1646  0.5517  0.5551
   97SAPC     P 9516   3.851   2.283   3.947 -0.4272 -0.0222 -0.3701
   97SAPC   O13 9517   3.871   2.217   3.818  0.4831 -0.0115  0.3513
   97SAPC   O14 9518   3.846   2.428   3.942 -0.4499 -0.3747 -0.0104
   97SAPC   O12 9519   3.708   2.231   3.995 -0.1297  0.6282 -0.1415
   97SAPC   O11 9520   3.952   2.234   4.052 -0.1561  0.0528  0.1332
   97SAPC    C1 9521   3.924   2.125   4.140 -0.7420  0.1452 -0.3661
   97SAPC    HA 9522   3.820   2.121   4.177 -0.7319 -0.5746 -0.4061
   97SAPC    HB 9523   3.942   2.025   4.094 -0.9178 -0.1878  0.2839
   97SAPC    C2 9524   4.015   2.139   4.264 -0.0240  0.1160 -0.0569
   97SAPC    HS 9525   4.104   2.199   4.238 -0.6235  1.1187  0.1284
   97SAPC   O21 9526   4.034   2.004   4.322 -0.5934 -0.0452  0.1852
   97SAPC   C21 9527   4.164   1.964   4.314  0.2233 -0.5622 -0.3372
   97SAPC   O22 9528   4.252   2.046   4.291 -0.3106  0.3450  0.1138
   97SAPC   C22 9529   4.176   1.817   4.306  0.9700 -0.6489 -0.5076
   97SAPC   H2R 9530   4.091   1.784   4.369  1.2670  1.7528  1.2970
   97SAPC   H2S 9531   4.163   1.791   4.199 -1.9401  0.0705 -0.4308
   97SAPC    C3 9532   3.945   2.225   4.381 -0.1404  0.0695  1.0814
   97SAPC    HX 9533   3.849   2.172   4.396  0.9827 -2.1589  0.8644
   97SAPC    HY 9534   3.920   2.324   4.337  1.2890 -0.3758 -0.8785
   97SAPC   O31 9535   4.023   2.228   4.504 -0.2185  0.3019 -0.0109
   97SAPC   C31 9536   4.149   2.284   4.501 -0.6465  0.6385 -0.0981
   97SAPC   O32 9537   4.192   2.337   4.401  0.5708  0.1133 -0.0220
   97SAPC   C32 9538   4.210   2.290   4.642 -0.0466 -0.1633 -0.0702
   97SAPC   H2X 9539   4.248   2.393   4.659 -3.4553  1.1431  0.3991
   97SAPC   H2Y 9540   4.297   2.220   4.641 -0.1350 -0.2887 -1.7242
   97SAPC   C23 9541   4.312   1.769   4.349  0.5315  0.2488 -1.0053
   97SAPC   H3R 9542   4.385   1.831   4.293  1.6014  1.2287  1.3660
   97SAPC   H3S 9543   4.312   1.660   4.325 -2.5676 -0.0053 -0.3162
   97SAPC   C24 9544   4.345   1.793   4.498  0.2527 -0.3125  0.6554
   97SAPC   H4R 9545   4.266   1.741   4.554  0.1165 -4.6870 -3.0384
   97SAPC   H4S 9546   4.353   1.901   4.526  0.9145 -0.2510  0.2571
   97SAPC   C25 9547   4.471   1.724   4.535 -0.0967 -0.4513 -0.6916
   97SAPC   H5R 9548   4.545   1.734   4.454 -0.9239  2.0821 -1.2363
   97SAPC   C26 9549   4.513   1.691   4.661 -0.2977  0.6029  0.4417
   97SAPC   H6R 9550   4.612   1.646   4.673 -0.6431 -0.2917 -0.0315
   97SAPC   C27 9551   4.430   1.694   4.784  0.3693  0.2120 -0.5993
   97SAPC   H7R 9552   4.486   1.627   4.854 -0.2745  0.3042  0.0102
   97SAPC   H7S 9553   4.336   1.639   4.763 -0.3176 -0.2695  2.9882
   97SAPC   C28 9554   4.380   1.826   4.831  0.2091 -0.3667 -0.4290
   97SAPC   H8R 9555   4.408   1.912   4.768  0.7304  0.4452  0.8649
   97SAPC   C29 9556   4.318   1.852   4.951 -0.1058 -0.3648  0.0434
   97SAPC   H9R 9557   4.267   1.948   4.966 -0.6834 -0.1805 -2.6120
   97SAPC  C210 9558   4.288   1.741   5.046 -1.0531  0.0482 -0.5212
   97SAPC  H10R 9559   4.350   1.652   5.021 -0.9114  0.0226 -0.0932
   97SAPC  H10S 9560   4.182   1.709   5.046 -2.2530  3.6285 -0.7473
   97SAPC  C211 9561   4.333   1.794   5.180 -0.0845 -0.0034 -0.1585
   97SAPC  H11R 9562   4.329   1.904   5.192  0.1841  0.0390 -0.4229
   97SAPC  C212 9563   4.367   1.722   5.293 -0.3850 -0.4829 -0.3448
   97SAPC  H12R 9564   4.396   1.784   5.379  1.2816  1.1208 -1.9695
   97SAPC  C213 9565   4.373   1.573   5.331 -0.0419  0.2801 -0.6021
   97SAPC  H13R 9566   4.340   1.517   5.241 -1.4492  0.8576 -0.4692
   97SAPC  H13S 9567   4.293   1.554   5.406  0.1527  0.2336 -0.4027
   97SAPC  C214 9568   4.516   1.535   5.370  0.5653 -0.0531 -0.3924
   97SAPC  H14R 9569   4.599   1.601   5.340 -1.1912  4.3151  3.1822
   97SAPC  C215 9570   4.554   1.429   5.442  0.2759 -0.1823 -0.8839
   97SAPC  H15R 9571   4.661   1.409   5.454  0.2787 -0.7693 -1.8652
   97SAPC  C216 9572   4.449   1.338   5.500 -0.3952 -0.0794  0.0775
   97SAPC  H16R 9573   4.466   1.234   5.464 -0.0592  0.3871 -1.1768
   97SAPC  H16S 9574   4.345   1.363   5.472 -0.6447 -1.5776 -0.4432
   97SAPC  C217 9575   4.463   1.339   5.657 -0.4129 -0.1285  0.1627
   97SAPC  H17R 9576   4.488   1.443   5.688  1.4718 -0.3407 -0.5035
   97SAPC  H17S 9577   4.556   1.280   5.674  1.0792  1.9297 -0.3858
   97SAPC  C218 9578   4.334   1.291   5.711  0.4359 -0.8889 -0.0293
   97SAPC  H18R 9579   4.305   1.214   5.637  1.0031 -0.8861 -0.2587
   97SAPC  H18S 9580   4.259   1.372   5.728  0.5074 -1.0812  1.3653
   97SAPC  C219 9581   4.340   1.226   5.851  0.3855  0.2251  0.4767
   97SAPC  H19R 9582   4.376   1.301   5.925  2.0981 -1.1801  1.1337
   97SAPC  H19S 9583   4.421   1.151   5.842  1.9130  1.7850  0.6758
   97SAPC  C220 9584   4.218   1.156   5.898  0.4987 -0.3704  0.1746
   97SAPC  H20R 9585   4.218   1.148   6.008 -0.1773 -2.2693  0.0830
   97SAPC  H20S 9586   4.213   1.051   5.862  1.7151 -0.3491 -0.1075
   97SAPC  H20T 9587   4.127   1.205   5.858  1.6637  1.6287 -0.1920
   97SAPC   C33 9588   4.111   2.255   4.754  0.6858 -0.1197 -0.0672
   97SAPC   H3X 9589   4.070   2.155   4.727  1.9933 -0.3861 -1.2108
   97SAPC   H3Y 9590   4.036   2.338   4.756  0.6506 -0.1136  2.9189
   97SAPC   C34 9591   4.165   2.259   4.890  0.4651  0.7862  0.1525
   97SAPC   H4X 9592   4.188   2.366   4.909 -0.3004  0.8705  0.6344
   97SAPC   H4Y 9593   4.248   2.186   4.895  0.0861  0.1402 -1.9662
   97SAPC   C35 9594   4.061   2.216   4.999 -0.2145  0.0074  0.2880
   97SAPC   H5X 9595   4.026   2.113   4.975  2.0626 -0.7524  0.0430
   97SAPC   H5Y 9596   3.965   2.272   4.996  0.5421  1.5363  2.2858
   97SAPC   C36 9597   4.125   2.215   5.136 -0.9273 -0.3074 -0.1669
   97SAPC   H6X 9598   4.176   2.312   5.149 -1.7555 -0.0510  1.4221
   97SAPC   H6Y 9599   4.191   2.126   5.128 -1.7297 -0.8609 -0.8971
   97SAPC   C37 9600   4.020   2.182   5.243  0.2197  0.3473 -0.8007
   97SAPC   H7X 9601   3.973   2.081   5.242  0.5469  0.1564  0.6397
   97SAPC   H7Y 9602   3.943   2.262   5.238 -1.2081 -0.4426  3.7980
   97SAPC   C38 9603   4.067   2.199   5.390 -0.3187  0.7660  0.2575
   97SAPC   H8X 9604   4.122   2.292   5.416 -0.7515  0.1137  3.9653
   97SAPC   H8Y 9605   4.141   2.121   5.418 -0.3413  0.5363 -0.3122
   97SAPC   C39 9606   3.945   2.196   5.487  0.3679 -0.7892 -0.3239
   97SAPC   H9X 9607   3.893   2.099   5.472 -0.2471 -0.7559  1.3737
   97SAPC   H9Y 9608   3.884   2.281   5.451 -0.9587 -1.9515 -0.9249
   97SAPC  C310 9609   3.987   2.205   5.633  0.5888 -1.1944 -0.0524
   97SAPC  H10X 9610   4.061   2.287   5.633 -1.8196  1.1123 -1.0557
   97SAPC  H10Y 9611   4.039   2.113   5.669  0.2003 -0.5190  2.3579
   97SAPC  C311 9612   3.877   2.240   5.725  0.0765  0.3353  0.0172
   97SAPC  H11X 9613   3.780   2.191   5.703 -0.8857  1.4918  1.4775
   97SAPC  H11Y 9614   3.852   2.348   5.716 -1.8684  0.0575  1.4445
   97SAPC  C312 9615   3.926   2.213   5.872  0.3446 -0.4075 -0.1171
   97SAPC  H12X 9616   4.028   2.243   5.906  0.1455 -0.1718  0.2790
   97SAPC  H12Y 9617   3.914   2.103   5.884 -2.3345 -0.1827 -0.1199
   97SAPC  C313 9618   3.829   2.292   5.961 -0.1904 -0.1145 -0.2474
   97SAPC  H13X 9619   3.728   2.250   5.939  0.4849 -1.0535 -1.6465
   97SAPC  H13Y 9620   3.821   2.402   5.945 -0.9603  0.0574  1.0962
   97SAPC  C314 9621   3.857   2.278   6.112  0.5553  0.3561  0.7582
   97SAPC  H14X 9622   3.967   2.283   6.127  0.5473 -1.1417  1.5539
   97SAPC  H14Y 9623   3.820   2.174   6.130  3.1290 -0.3728  2.4590
   97SAPC  C315 9624   3.783   2.385   6.189 -0.1631  0.4410 -0.1148
   97SAPC  H15X 9625   3.692   2.399   6.126  0.8262  0.1815 -1.6633
   97SAPC  H15Y 9626   3.841   2.478   6.205 -0.3961  0.5893 -0.1258
   97SAPC  C316 9627   3.741   2.336   6.323  0.4270 -0.7260  0.8077
   97SAPC  H16X 9628   3.693   2.237   6.315  2.1725 -1.4531 -2.7797
   97SAPC  H16Y 9629   3.671   2.413   6.361  0.8580 -0.3336  0.8192
   97SAPC  C317 9630   3.858   2.343   6.424 -0.3542  0.1904  0.7445
   97SAPC  H17X 9631   3.922   2.432   6.403  1.9849 -1.5419  0.1970
   97SAPC  H17Y 9632   3.911   2.251   6.393  0.0480  1.2371 -1.9626
   97SAPC  C318 9633   3.820   2.351   6.568  0.4832 -0.1604  0.2918
   97SAPC  H18X 9634   3.727   2.408   6.587  1.0685  0.7002  0.6191
   97SAPC  H18Y 9635   3.899   2.406   6.623  0.2326  0.4478  0.0422
   97SAPC  H18Z 9636   3.795   2.253   6.615  1.2575  0.1042  1.2923
   98SAPC     N 9637   0.084   4.375   3.610  0.3981  0.2384 -0.0486
   98SAPC   C12 9638  -0.015   4.398   3.718 -0.1315 -0.1123 -0.5592
   98SAPC  H12A 9639  -0.108   4.436   3.678 -0.1901  0.8457  0.4385
   98SAPC  H12B 9640   0.022   4.481   3.777  0.8743 -0.4621 -0.6789
   98SAPC   C13 9641   0.037   4.271   3.513 -0.3116  0.2566 -0.1711
   98SAPC  H13A 9642   0.053   4.174   3.559 -0.8075 -0.2692 -1.0778
   98SAPC  H13B 9643  -0.067   4.291   3.493 -0.9171 -1.0477  1.4128
   98SAPC  H13C 9644   0.093   4.274   3.420 -1.6838 -0.5365 -1.0667
   98SAPC   C14 9645   0.098   4.505   3.535  0.0187 -0.1450  0.4166
   98SAPC  H14A 9646   0.152   4.577   3.596  0.7562 -0.2782 -0.0644
   98SAPC  H14B 9647   0.165   4.497   3.451  0.4099  1.5485  0.5125
   98SAPC  H14C 9648   0.003   4.544   3.500 -0.2532 -1.8576 -0.8728
   98SAPC   C15 9649   0.217   4.339   3.659 -1.0161  0.0921 -0.7787
   98SAPC  H15A 9650   0.239   4.384   3.754  0.4694 -3.6835  0.8923
   98SAPC  H15B 9651   0.225   4.232   3.673 -1.1475  0.1479 -0.2749
   98SAPC  H15C 9652   0.294   4.356   3.586  1.2181 -1.8241  0.9624
   98SAPC   C11 9653  -0.046   4.289   3.815 -0.0246  0.0298  0.2568
   98SAPC  H11A 9654   0.048   4.251   3.862  0.8476  0.8776 -0.7663
   98SAPC  H11B 9655  -0.091   4.201   3.765 -1.1643  0.3486  0.6711
   98SAPC     P 9656  -0.279   4.331   3.928 -0.0868  0.2996 -0.1435
   98SAPC   O13 9657  -0.322   4.462   3.974 -0.0414 -0.0242 -0.3101
   98SAPC   O14 9658  -0.324   4.291   3.795  0.2960  0.0313  0.8658
   98SAPC   O12 9659  -0.124   4.339   3.920  0.4000 -0.0318  0.9196
   98SAPC   O11 9660  -0.315   4.218   4.029  0.6155  0.2809  0.2070
   98SAPC    C1 9661  -0.215   4.124   4.081  0.5476 -0.5314 -0.7288
   98SAPC    HA 9662  -0.267   4.026   4.073 -1.6821  0.3613  1.4544
   98SAPC    HB 9663  -0.119   4.127   4.025  0.1680  1.1563 -1.3375
   98SAPC    C2 9664  -0.193   4.133   4.236  0.4782 -0.8684 -0.4959
   98SAPC    HS 9665  -0.115   4.207   4.266  0.6196 -0.9701 -0.6147
   98SAPC   O21 9666  -0.152   4.011   4.285  0.2034 -0.2382 -0.2972
   98SAPC   C21 9667  -0.030   3.974   4.253  0.2134  0.0513  0.1019
   98SAPC   O22 9668   0.052   4.051   4.206 -0.0872  0.3165 -0.3256
   98SAPC   C22 9669   0.001   3.833   4.303  0.9140 -0.3037  0.2875
   98SAPC   H2R 9670   0.033   3.776   4.213  0.7678 -0.5563  0.3957
   98SAPC   H2S 9671   0.097   3.829   4.358  2.9265 -0.4981 -2.9876
   98SAPC    C3 9672  -0.313   4.176   4.319  0.2806 -0.2672 -0.4322
   98SAPC    HX 9673  -0.398   4.112   4.288 -1.5248 -0.3549  3.9906
   98SAPC    HY 9674  -0.355   4.275   4.291  0.0395  0.4521  2.1934
   98SAPC   O31 9675  -0.292   4.166   4.461 -0.7164  0.0881  1.0170
   98SAPC   C31 9676  -0.228   4.270   4.518 -0.2434  0.2901  0.2182
   98SAPC   O32 9677  -0.199   4.372   4.458  0.3245  0.5919  0.0133
   98SAPC   C32 9678  -0.205   4.241   4.664  0.2474 -0.2569 -0.5500
   98SAPC   H2X 9679  -0.174   4.135   4.673 -0.1170 -0.4870 -1.8659
   98SAPC   H2Y 9680  -0.305   4.256   4.710  1.7118  1.5573  2.3595
   98SAPC   C23 9681  -0.109   3.758   4.378 -0.0936 -0.3224 -0.3200
   98SAPC   H3R 9682  -0.202   3.764   4.317 -1.4425  1.1673  1.7686
   98SAPC   H3S 9683  -0.137   3.795   4.479 -1.7319 -1.3060 -0.3769
   98SAPC   C24 9684  -0.073   3.611   4.396  0.7777  0.2880 -0.4667
   98SAPC   H4R 9685  -0.070   3.564   4.295  1.3087  2.0171 -1.3040
   98SAPC   H4S 9686  -0.164   3.564   4.438  2.0910  0.3663  2.7391
   98SAPC   C25 9687   0.048   3.573   4.477  0.1278 -0.0454  0.7493
   98SAPC   H5R 9688   0.138   3.631   4.451  0.2389  0.1745  1.5921
   98SAPC   C26 9689   0.058   3.479   4.573  0.1750 -0.2593 -0.2170
   98SAPC   H6R 9690   0.157   3.446   4.609  0.1685  0.0417  0.0789
   98SAPC   C27 9691  -0.050   3.381   4.616  0.2608  0.0566 -0.5604
   98SAPC   H7R 9692  -0.147   3.392   4.563 -0.3507 -0.7607  0.3483
   98SAPC   H7S 9693  -0.073   3.385   4.725  0.3612 -0.1448 -0.5317
   98SAPC   C28 9694  -0.011   3.241   4.586 -0.3181 -0.6845 -0.0047
   98SAPC   H8R 9695  -0.058   3.206   4.493 -0.8042  0.1581 -0.0846
   98SAPC   C29 9696   0.074   3.158   4.652  0.1939  0.0569 -0.4869
   98SAPC   H9R 9697   0.100   3.059   4.610  0.0932 -1.2292  2.3001
   98SAPC  C210 9698   0.148   3.186   4.780  0.2238  0.2040  0.0023
   98SAPC  H10R 9699   0.196   3.286   4.769 -0.4706  0.7409  1.5820
   98SAPC  H10S 9700   0.226   3.107   4.786  0.4507  0.2503 -1.7754
   98SAPC  C211 9701   0.054   3.181   4.898  0.2877 -0.1006  0.4321
   98SAPC  H11R 9702  -0.052   3.206   4.883  0.3281  0.7840  1.4729
   98SAPC  C212 9703   0.085   3.153   5.026 -0.3160 -0.0106  0.5036
   98SAPC  H12R 9704  -0.000   3.154   5.096  1.1305  1.7424  2.3641
   98SAPC  C213 9705   0.217   3.124   5.091  0.3721 -0.2281  0.1167
   98SAPC  H13R 9706   0.299   3.119   5.017  1.1629 -2.6273  1.0817
   98SAPC  H13S 9707   0.222   3.022   5.135  1.2437 -0.0663  0.4162
   98SAPC  C214 9708   0.254   3.223   5.203  0.4038 -0.0492 -1.1029
   98SAPC  H14R 9709   0.268   3.328   5.176 -0.4962  0.7863  1.3971
   98SAPC  C215 9710   0.237   3.196   5.336 -0.3530  0.3972 -0.3256
   98SAPC  H15R 9711   0.258   3.280   5.404 -2.4713  0.7963 -0.0963
   98SAPC  C216 9712   0.187   3.068   5.389 -0.3876 -0.2780  0.1542
   98SAPC  H16R 9713   0.270   2.994   5.386 -0.3071 -0.1563 -1.5248
   98SAPC  H16S 9714   0.111   3.014   5.329  1.0783 -2.9632  0.5575
   98SAPC  C217 9715   0.146   3.076   5.539  0.4595 -0.0703 -0.1736
   98SAPC  H17R 9716   0.081   3.165   5.558 -0.8692 -1.0203 -0.1529
   98SAPC  H17S 9717   0.236   3.090   5.603 -0.2954 -0.1193  0.9175
   98SAPC  C218 9718   0.072   2.949   5.593 -0.4621 -0.0400 -0.5981
   98SAPC  H18R 9719   0.136   2.859   5.594 -0.5235 -0.1212 -1.9646
   98SAPC  H18S 9720  -0.000   2.921   5.514  0.8666 -1.9483 -1.1976
   98SAPC  C219 9721  -0.005   2.975   5.721  0.2768  0.3022  0.0334
   98SAPC  H19R 9722  -0.095   2.911   5.733 -0.4958  1.7086  2.1502
   98SAPC  H19S 9723  -0.046   3.075   5.747 -0.5771 -0.3389  1.2433
   98SAPC  C220 9724   0.081   2.924   5.839 -0.6423  0.0606  0.1232
   98SAPC  H20R 9725   0.174   2.983   5.852  0.5849 -1.7320 -0.0186
   98SAPC  H20S 9726   0.110   2.822   5.805  2.8721  0.8612  0.3431
   98SAPC  H20T 9727   0.013   2.931   5.927 -0.5108 -1.9341  0.4317
   98SAPC   C33 9728  -0.113   4.341   4.735  0.1681 -0.0176 -0.0994
   98SAPC   H3X 9729  -0.119   4.440   4.686  0.5145  0.3230  0.5269
   98SAPC   H3Y 9730  -0.013   4.293   4.724 -0.3083 -0.8194 -1.0728
   98SAPC   C34 9731  -0.143   4.350   4.885 -0.5271  0.2344 -0.4396
   98SAPC   H4X 9732  -0.114   4.247   4.917  2.3887  0.6011 -1.5858
   98SAPC   H4Y 9733  -0.247   4.376   4.914 -0.1082 -0.3473  1.8202
   98SAPC   C35 9734  -0.055   4.455   4.958 -0.3748  0.3003 -0.9205
   98SAPC   H5X 9735  -0.103   4.464   5.058 -0.3658  0.7046 -0.9540
   98SAPC   H5Y 9736  -0.058   4.542   4.890 -0.7387 -1.2330 -2.9921
   98SAPC   C36 9737   0.095   4.417   4.969 -0.0376  0.0931  0.2074
   98SAPC   H6X 9738   0.129   4.416   4.863  1.1133  0.8342  0.5471
   98SAPC   H6Y 9739   0.102   4.313   5.007  0.2677 -0.2153 -0.6617
   98SAPC   C37 9740   0.171   4.501   5.067  0.0807  0.8136 -0.2288
   98SAPC   H7X 9741   0.098   4.543   5.139  0.0970  1.8897 -0.8132
   98SAPC   H7Y 9742   0.213   4.594   5.022 -1.7069  1.9427  0.3157
   98SAPC   C38 9743   0.295   4.446   5.138  0.2669  0.3709  0.4976
   98SAPC   H8X 9744   0.375   4.421   5.065 -0.3477  1.4618 -0.5855
   98SAPC   H8Y 9745   0.279   4.348   5.188 -1.5703 -0.1750 -1.0320
   98SAPC   C39 9746   0.373   4.543   5.232 -0.4258  0.2924  0.0317
   98SAPC   H9X 9747   0.298   4.598   5.292 -4.4146 -2.6250 -1.7927
   98SAPC   H9Y 9748   0.443   4.615   5.183 -0.3832  0.6016  0.5491
   98SAPC  C310 9749   0.462   4.457   5.323  0.4259  0.0246  0.0289
   98SAPC  H10X 9750   0.538   4.394   5.270 -0.3091 -0.3077 -0.6542
   98SAPC  H10Y 9751   0.395   4.390   5.380  0.1424 -0.0915 -0.4358
   98SAPC  C311 9752   0.543   4.551   5.409 -0.3087 -0.2298 -0.4032
   98SAPC  H11X 9753   0.472   4.610   5.470  1.5948  1.6173  0.1513
   98SAPC  H11Y 9754   0.603   4.617   5.342 -0.0100  4.0781  3.5752
   98SAPC  C312 9755   0.633   4.474   5.507  0.0242 -0.5151 -0.0185
   98SAPC  H12X 9756   0.712   4.419   5.452 -0.5196 -2.8264  1.3791
   98SAPC  H12Y 9757   0.556   4.402   5.541  0.9234 -1.1774  0.6971
   98SAPC  C313 9758   0.698   4.571   5.615  0.2296  0.3466  0.1232
   98SAPC  H13X 9759   0.727   4.505   5.699  2.8622 -0.6204 -1.4099
   98SAPC  H13Y 9760   0.622   4.644   5.649 -1.3919 -1.1658 -0.1093
   98SAPC  C314 9761   0.823   4.641   5.558 -0.1779  1.0364 -0.0790
   98SAPC  H14X 9762   0.862   4.710   5.636  0.1061 -0.2683  0.9638
   98SAPC  H14Y 9763   0.793   4.699   5.468 -1.2836 -0.4731 -0.7072
   98SAPC  C315 9764   0.928   4.540   5.523 -0.1347  0.2902  0.0479
   98SAPC  H15X 9765   0.886   4.478   5.441 -0.9118  0.5294  0.2572
   98SAPC  H15Y 9766   0.930   4.462   5.602  1.3360 -0.5101 -0.7488
   98SAPC  C316 9767   1.072   4.592   5.477 -0.8539  0.5263  0.2193
   98SAPC  H16X 9768   1.081   4.703   5.482  1.3102  0.3347  2.5697
   98SAPC  H16Y 9769   1.087   4.564   5.370  1.1558 -1.2509  0.8889
   98SAPC  C317 9770   1.185   4.532   5.564 -0.3929 -0.1591 -0.5162
   98SAPC  H17X 9771   1.292   4.546   5.538 -0.4786 -0.6854 -1.1778
   98SAPC  H17Y 9772   1.165   4.423   5.568 -1.6338 -0.0025 -1.6330
   98SAPC  C318 9773   1.166   4.585   5.708  0.0332 -0.1065  0.0298
   98SAPC  H18X 9774   1.060   4.602   5.739 -0.4607  0.2838 -1.7756
   98SAPC  H18Y 9775   1.213   4.686   5.709 -0.4728  0.1414 -0.5999
   98SAPC  H18Z 9776   1.221   4.519   5.777  0.0529 -0.1849 -0.0615
   99SAPC     N 9777   4.165   5.896   3.455 -0.1105 -0.5157  0.7144
   99SAPC   C12 9778   4.027   5.950   3.491  0.9732 -0.0320  0.0380
   99SAPC  H12A 9779   3.970   5.864   3.524 -1.6838  0.9224 -1.6913
   99SAPC  H12B 9780   3.977   5.976   3.399  2.2473 -0.6164 -0.8369
   99SAPC   C13 9781   4.239   5.850   3.578  0.5086  0.8069 -0.2032
   99SAPC  H13A 9782   4.177   5.774   3.623  0.8068  0.8618  0.3171
   99SAPC  H13B 9783   4.342   5.826   3.554  0.6884  1.8181 -0.5207
   99SAPC  H13C 9784   4.259   5.925   3.654  1.1017 -0.3107  0.7741
   99SAPC   C14 9785   4.150   5.777   3.364 -0.6531  0.1985 -0.1044
   99SAPC  H14A 9786   4.100   5.799   3.271  1.0675  0.8115 -0.9379
   99SAPC  H14B 9787   4.253   5.757   3.339 -0.5945  1.8163 -1.3202
   99SAPC  H14C 9788   4.104   5.696   3.419 -0.9612 -0.0715 -0.7547
   99SAPC   C15 9789   4.241   6.007   3.378 -0.0125  0.1452  0.7200
   99SAPC  H15A 9790   4.173   6.031   3.298  0.9225 -2.1992 -0.8961
   99SAPC  H15B 9791   4.252   6.097   3.438  2.3727  0.5015 -0.1568
   99SAPC  H15C 9792   4.330   5.973   3.327  0.1282 -0.7986  1.5542
   99SAPC   C11 9793   4.013   6.061   3.599  0.4890 -0.1041  1.0754
   99SAPC  H11A 9794   4.055   6.037   3.699  0.6176 -0.9486  0.8267
   99SAPC  H11B 9795   3.903   6.072   3.614  0.3381  0.0984 -0.0997
   99SAPC     P 9796   4.088   6.312   3.616  0.1873 -0.0289 -0.1080
   99SAPC   O13 9797   4.171   6.407   3.539  0.1167  0.5433  0.3584
   99SAPC   O14 9798   3.965   6.356   3.672  0.2567 -0.4136  0.1051
   99SAPC   O12 9799   4.064   6.179   3.535  0.1330 -0.2127  0.1927
   99SAPC   O11 9800   4.173   6.263   3.731 -0.0819  0.1491  0.0065
   99SAPC    C1 9801   4.306   6.224   3.703  0.0139  0.3516  0.0909
   99SAPC    HA 9802   4.316   6.129   3.646  1.0925  0.1270  0.6165
   99SAPC    HB 9803   4.356   6.296   3.636 -1.8293 -0.0719 -1.8433
   99SAPC    C2 9804   4.379   6.219   3.843 -0.2415 -0.3162  0.0857
   99SAPC    HS 9805   4.475   6.164   3.832 -0.0189 -1.0515  4.1365
   99SAPC   O21 9806   4.294   6.164   3.947 -0.4746  0.2181  0.6722
   99SAPC   C21 9807   4.290   6.030   3.925 -0.1089 -0.0461  0.4210
   99SAPC   O22 9808   4.343   5.974   3.831  0.0571 -0.0579  0.1596
   99SAPC   C22 9809   4.214   5.966   4.037  0.5676 -0.5473 -0.0348
   99SAPC   H2R 9810   4.149   6.045   4.081  1.9160  0.6230 -0.0836
   99SAPC   H2S 9811   4.146   5.897   3.984  1.0633  0.0085 -1.4374
   99SAPC    C3 9812   4.434   6.360   3.880  0.5398  0.2800 -0.2827
   99SAPC    HX 9813   4.347   6.428   3.888  2.4523  2.8683 -0.3801
   99SAPC    HY 9814   4.497   6.393   3.795  0.2873  1.0218 -0.1909
   99SAPC   O31 9815   4.511   6.351   3.991 -0.5322 -0.3342 -0.4124
   99SAPC   C31 9816   4.464   6.357   4.113  0.4831  0.0122 -0.4757
   99SAPC   O32 9817   4.347   6.389   4.135  0.0936  0.0326 -0.1766
   99SAPC   C32 9818   4.564   6.324   4.225 -0.1076  0.3510 -0.4008
   99SAPC   H2X 9819   4.598   6.424   4.260 -0.0966 -0.5265  2.3241
   99SAPC   H2Y 9820   4.636   6.255   4.178 -0.7545  0.0568 -0.9762
   99SAPC   C23 9821   4.308   5.895   4.134 -0.4537 -0.8430  0.4923
   99SAPC   H3R 9822   4.388   5.966   4.163 -0.1050 -0.8619 -0.3898
   99SAPC   H3S 9823   4.359   5.815   4.076  0.5789  0.7582 -0.9262
   99SAPC   C24 9824   4.232   5.832   4.258 -0.2200  0.7973  0.0924
   99SAPC   H4R 9825   4.310   5.763   4.296  1.0994  1.3061 -1.5411
   99SAPC   H4S 9826   4.143   5.775   4.222 -0.4300 -0.9861  3.1256
   99SAPC   C25 9827   4.183   5.939   4.348 -0.2030 -0.3768  0.1716
   99SAPC   H5R 9828   4.142   6.030   4.302  1.1399  0.8403  1.3104
   99SAPC   C26 9829   4.205   5.944   4.480  0.4822 -0.2887 -0.3107
   99SAPC   H6R 9830   4.165   6.025   4.544 -2.2236 -1.6162 -0.1869
   99SAPC   C27 9831   4.276   5.845   4.568 -0.3412  0.7333  0.0164
   99SAPC   H7R 9832   4.313   5.893   4.661  0.4810  1.8832 -0.8741
   99SAPC   H7S 9833   4.372   5.832   4.514 -0.9454  0.2121 -0.9831
   99SAPC   C28 9834   4.199   5.716   4.590  1.1845 -0.7463  0.2104
   99SAPC   H8R 9835   4.118   5.708   4.516  1.9173  1.1318 -0.8751
   99SAPC   C29 9836   4.217   5.635   4.697 -0.2589  0.1389 -0.3689
   99SAPC   H9R 9837   4.147   5.550   4.696  2.0351 -1.9595 -3.6588
   99SAPC  C210 9838   4.311   5.656   4.811  0.3865 -0.2083  0.1199
   99SAPC  H10R 9839   4.404   5.693   4.762  0.1629  0.9444  0.5320
   99SAPC  H10S 9840   4.331   5.564   4.871  0.9218 -0.3307 -0.2434
   99SAPC  C211 9841   4.260   5.772   4.901 -0.3877  0.5040  0.7185
   99SAPC  H11R 9842   4.292   5.868   4.857  2.8199  0.1925  2.0942
   99SAPC  C212 9843   4.207   5.764   5.023 -0.3181 -0.1011  0.0093
   99SAPC  H12R 9844   4.170   5.853   5.075 -0.7114 -1.1940  1.6923
   99SAPC  C213 9845   4.181   5.641   5.101 -0.0906  0.0033 -0.3188
   99SAPC  H13R 9846   4.282   5.601   5.121 -0.5840 -1.2938 -0.3291
   99SAPC  H13S 9847   4.132   5.564   5.038  0.1024  0.0442 -0.5198
   99SAPC  C214 9848   4.102   5.654   5.232 -0.3306  0.2415  0.5023
   99SAPC  H14R 9849   3.994   5.633   5.226 -0.3102  0.3664 -0.4708
   99SAPC  C215 9850   4.154   5.705   5.349  0.4860  0.1611 -0.5453
   99SAPC  H15R 9851   4.090   5.724   5.436  0.1301 -0.1117 -0.7418
   99SAPC  C216 9852   4.301   5.744   5.365 -0.8373 -0.2309 -0.0295
   99SAPC  H16R 9853   4.317   5.850   5.391  1.0202 -0.4060 -0.3492
   99SAPC  H16S 9854   4.368   5.723   5.279 -1.7851 -0.5729 -0.7048
   99SAPC  C217 9855   4.350   5.652   5.482 -0.6806 -0.6084 -0.3023
   99SAPC  H17R 9856   4.460   5.671   5.485 -0.9028  0.7082  0.4529
   99SAPC  H17S 9857   4.329   5.544   5.468 -0.3460 -0.7842  0.4505
   99SAPC  C218 9858   4.319   5.702   5.624 -0.5159 -0.3836 -0.3362
   99SAPC  H18R 9859   4.211   5.726   5.633 -0.7839 -0.0779 -3.2076
   99SAPC  H18S 9860   4.373   5.799   5.635  3.6030 -2.7458  3.7488
   99SAPC  C219 9861   4.357   5.613   5.748 -0.4017 -0.2553 -0.4453
   99SAPC  H19R 9862   4.307   5.515   5.734  0.8863 -0.7603 -1.7616
   99SAPC  H19S 9863   4.304   5.660   5.834 -0.8551 -1.3299 -0.1236
   99SAPC  C220 9864   4.506   5.593   5.778 -0.7553 -0.1680 -0.0327
   99SAPC  H20R 9865   4.520   5.519   5.860  0.4210  0.4802  0.3720
   99SAPC  H20S 9866   4.540   5.697   5.799  0.6776 -0.4959 -0.6635
   99SAPC  H20T 9867   4.564   5.559   5.690 -2.0673  0.6252 -1.2498
   99SAPC   C33 9868   4.487   6.257   4.339 -1.1099 -0.1172  0.4647
   99SAPC   H3X 9869   4.454   6.156   4.305  1.7236 -0.7302 -0.7062
   99SAPC   H3Y 9870   4.395   6.311   4.370 -0.7227  0.6001  0.3730
   99SAPC   C34 9871   4.579   6.233   4.469  0.1007  0.0379 -0.1160
   99SAPC   H4X 9872   4.621   6.329   4.506  0.5718 -0.4731  0.6997
   99SAPC   H4Y 9873   4.664   6.173   4.429 -0.8906 -1.5059  0.0150
   99SAPC   C35 9874   4.493   6.169   4.574  0.5719 -0.0065 -0.8994
   99SAPC   H5X 9875   4.448   6.074   4.539 -2.6755  0.9507  0.2669
   99SAPC   H5Y 9876   4.404   6.232   4.598  1.0871  0.3317  0.1813
   99SAPC   C36 9877   4.571   6.142   4.705 -0.3042 -0.0420 -0.0900
   99SAPC   H6X 9878   4.644   6.226   4.712  0.8894 -1.0756  0.3630
   99SAPC   H6Y 9879   4.632   6.051   4.684  0.5722  0.8255 -1.4962
   99SAPC   C37 9880   4.489   6.135   4.832 -0.0208  0.3261  0.1989
   99SAPC   H7X 9881   4.411   6.056   4.827  0.9999 -0.8194  1.5966
   99SAPC   H7Y 9882   4.425   6.219   4.865 -0.5742 -0.3944  1.0084
   99SAPC   C38 9883   4.580   6.112   4.951 -0.5399  0.0457 -0.2366
   99SAPC   H8X 9884   4.652   6.197   4.954  0.7331 -0.9984 -0.1926
   99SAPC   H8Y 9885   4.629   6.016   4.924 -0.2501  0.5048 -1.4156
   99SAPC   C39 9886   4.514   6.125   5.084  0.1639 -0.6213 -0.3888
   99SAPC   H9X 9887   4.422   6.063   5.089 -0.1598 -0.1484 -0.4500
   99SAPC   H9Y 9888   4.488   6.231   5.106 -0.2028 -0.8289  0.1921
   99SAPC  C310 9889   4.611   6.068   5.188  0.7380  0.4297 -0.3007
   99SAPC  H10X 9890   4.701   6.129   5.210  0.1409  1.7083 -1.2333
   99SAPC  H10Y 9891   4.654   5.969   5.166  1.3247  0.3020  1.2741
   99SAPC  C311 9892   4.534   6.044   5.321  0.2881  0.3937 -0.2221
   99SAPC  H11X 9893   4.526   5.934   5.332 -0.7345  0.3364 -1.3176
   99SAPC  H11Y 9894   4.432   6.088   5.317 -0.2377 -0.7540  0.3637
   99SAPC  C312 9895   4.610   6.076   5.446  0.4623  0.2142 -0.8741
   99SAPC  H12X 9896   4.642   6.183   5.449  0.4109  0.2195  2.1686
   99SAPC  H12Y 9897   4.704   6.018   5.441 -0.0447 -0.9493  1.5607
   99SAPC  C313 9898   4.555   6.038   5.582  0.2562 -0.2138  0.1314
   99SAPC  H13X 9899   4.527   5.931   5.592 -2.1459  0.2929 -0.4540
   99SAPC  H13Y 9900   4.452   6.080   5.588 -0.0919 -1.1444  1.0618
   99SAPC  C314 9901   4.635   6.090   5.697 -0.2202 -0.2176 -0.8747
   99SAPC  H14X 9902   4.648   6.200   5.707 -1.2905 -0.1804  0.2906
   99SAPC  H14Y 9903   4.739   6.052   5.687 -0.1090 -0.3930  0.7651
   99SAPC  C315 9904   4.573   6.055   5.834 -0.5462  0.4971 -0.3915
   99SAPC  H15X 9905   4.592   5.948   5.857 -1.4818  0.4917  0.3691
   99SAPC  H15Y 9906   4.463   6.070   5.833 -0.9523 -1.5848  2.2476
   99SAPC  C316 9907   4.617   6.154   5.945 -0.1099 -0.6033 -0.4091
   99SAPC  H16X 9908   4.539   6.145   6.024 -2.3970 -1.3980 -2.6048
   99SAPC  H16Y 9909   4.604   6.253   5.896  2.9889 -0.5875 -1.3695
   99SAPC  C317 9910   4.759   6.140   5.991 -0.2448 -0.5099 -0.3368
   99SAPC  H17X 9911   4.832   6.159   5.909  2.2483  1.9486  2.1885
   99SAPC  H17Y 9912   4.782   6.034   6.015  0.7166 -0.1189  0.5911
   99SAPC  C318 9913   4.802   6.225   6.118  0.4504 -0.1268 -0.1518
   99SAPC  H18X 9914   4.899   6.192   6.160  1.1782 -0.6006 -2.0977
   99SAPC  H18Y 9915   4.724   6.221   6.198  1.7964 -0.7434  1.1783
   99SAPC  H18Z 9916   4.810   6.331   6.087 -1.1847  0.2153  0.4807
  100SAPC     N 9917   2.420   1.344   3.580  0.4289 -0.5350  0.6063
  100SAPC   C12 9918   2.388   1.249   3.467  0.1019  0.3117 -0.6766
  100SAPC  H12A 9919   2.436   1.270   3.372 -0.9756 -2.6067 -2.0060
  100SAPC  H12B 9920   2.282   1.263   3.452  0.3882  1.1948 -2.0857
  100SAPC   C13 9921   2.389   1.484   3.533 -0.8190  0.2198 -0.2714
  100SAPC  H13A 9922   2.286   1.504   3.508 -0.8617 -3.1601 -3.5210
  100SAPC  H13B 9923   2.418   1.550   3.614 -0.0393  0.0322 -0.3930
  100SAPC  H13C 9924   2.450   1.527   3.455 -0.7790 -0.1964 -0.4670
  100SAPC   C14 9925   2.342   1.308   3.700 -0.1543  0.1328  0.3611
  100SAPC  H14A 9926   2.239   1.317   3.670 -0.8344 -1.4734  2.0498
  100SAPC  H14B 9927   2.362   1.209   3.738  0.2042  0.3104  0.6413
  100SAPC  H14C 9928   2.371   1.378   3.777  1.3252  0.3220 -0.3236
  100SAPC   C15 9929   2.566   1.343   3.603 -0.5534 -0.0144  0.5506
  100SAPC  H15A 9930   2.595   1.239   3.601  0.4282  0.2546  0.0117
  100SAPC  H15B 9931   2.629   1.382   3.524 -0.4829  0.5537  0.8800
  100SAPC  H15C 9932   2.589   1.384   3.700 -0.2838 -0.0879  0.5190
  100SAPC   C11 9933   2.397   1.094   3.490 -0.0875 -0.2142 -0.5149
  100SAPC  H11A 9934   2.383   1.036   3.396  1.9380 -1.1284 -0.3201
  100SAPC  H11B 9935   2.317   1.050   3.553  0.9416 -0.9428  0.3304
  100SAPC     P 9936   2.573   0.917   3.557  0.0480  0.0174  0.5986
  100SAPC   O13 9937   2.456   0.826   3.569  0.1901  0.5146  0.2350
  100SAPC   O14 9938   2.679   0.888   3.459 -0.3918  0.2533  0.1937
  100SAPC   O12 9939   2.529   1.072   3.537  0.0541  0.2691 -0.1943
  100SAPC   O11 9940   2.645   0.933   3.695 -0.1354 -0.0273  0.1888
  100SAPC    C1 9941   2.578   0.984   3.808  0.9041 -0.3354 -0.3649
  100SAPC    HA 9942   2.640   1.059   3.861 -0.9527  0.0526  1.3614
  100SAPC    HB 9943   2.479   1.029   3.788  0.9485  0.0430  0.2430
  100SAPC    C2 9944   2.573   0.876   3.916 -0.4279 -0.4731 -0.0556
  100SAPC    HS 9945   2.502   0.798   3.880  2.2782 -3.0694 -0.0986
  100SAPC   O21 9946   2.521   0.930   4.036 -0.2075 -0.3699  0.3834
  100SAPC   C21 9947   2.390   0.945   4.035 -0.0553 -0.5607  0.3363
  100SAPC   O22 9948   2.318   0.936   3.938 -0.1953 -0.1040  0.1532
  100SAPC   C22 9949   2.338   0.968   4.177 -0.7373  0.3665 -0.4709
  100SAPC   H2R 9950   2.249   0.903   4.193  0.8001 -1.9610 -0.8367
  100SAPC   H2S 9951   2.419   0.952   4.252  1.9392  0.3904 -3.1674
  100SAPC    C3 9952   2.710   0.807   3.951  0.4706 -0.3079  0.4467
  100SAPC    HX 9953   2.772   0.894   3.985 -0.8650  0.9208 -0.1415
  100SAPC    HY 9954   2.751   0.782   3.851 -1.6852  0.2444 -0.6259
  100SAPC   O31 9955   2.712   0.698   4.042  0.1731  0.5092 -0.0834
  100SAPC   C31 9956   2.709   0.731   4.173  0.5410 -0.5037 -0.5619
  100SAPC   O32 9957   2.716   0.843   4.222 -0.9845  0.4438  0.9587
  100SAPC   C32 9958   2.704   0.602   4.258 -0.4537 -0.8174  0.5255
  100SAPC   H2X 9959   2.810   0.577   4.278  0.2972  1.0777 -0.7856
  100SAPC   H2Y 9960   2.652   0.525   4.198 -1.6434  1.0663 -1.0049
  100SAPC   C23 9961   2.274   1.108   4.198  0.4814  0.2623  0.1939
  100SAPC   H3R 9962   2.194   1.115   4.120 -0.2676  0.7318  0.9882
  100SAPC   H3S 9963   2.355   1.184   4.196  2.0012 -1.3172  0.0974
  100SAPC   C24 9964   2.198   1.120   4.331  0.2640  0.4557 -0.7944
  100SAPC   H4R 9965   2.167   1.225   4.349  1.0558  0.6539 -0.5473
  100SAPC   H4S 9966   2.270   1.093   4.412  0.3680 -1.2762 -1.4305
  100SAPC   C25 9967   2.088   1.019   4.333 -0.1615  0.0222 -0.1569
  100SAPC   H5R 9968   2.126   0.916   4.338  2.5644  0.9877  3.3517
  100SAPC   C26 9969   1.956   1.039   4.337 -0.8272 -0.1675 -0.1805
  100SAPC   H6R 9970   1.880   0.960   4.324 -1.9262  0.5567  1.5213
  100SAPC   C27 9971   1.897   1.172   4.361 -0.1177 -0.1681  0.2339
  100SAPC   H7R 9972   1.945   1.211   4.454 -3.2305 -1.6960  2.6478
  100SAPC   H7S 9973   1.791   1.148   4.381 -0.4285  0.8699 -0.0940
  100SAPC   C28 9974   1.891   1.270   4.243 -0.3810  0.0325 -0.4947
  100SAPC   H8R 9975   1.927   1.239   4.144 -1.0585  2.7973 -1.7081
  100SAPC   C29 9976   1.842   1.391   4.261  0.5208 -0.3743  0.5150
  100SAPC   H9R 9977   1.832   1.453   4.170 -1.5038 -1.2517  0.0928
  100SAPC  C210 9978   1.766   1.449   4.381  0.1352  0.0007 -0.2017
  100SAPC  H10R 9979   1.787   1.557   4.391 -5.5558  1.3543  0.0020
  100SAPC  H10S 9980   1.802   1.400   4.474 -1.2801 -1.6524 -0.4804
  100SAPC  C211 9981   1.614   1.446   4.378  0.0550 -0.8079  0.6547
  100SAPC  H11R 9982   1.579   1.473   4.277  2.4299 -0.3581 -0.1051
  100SAPC  C212 9983   1.535   1.426   4.487  0.0315 -0.1085  0.3105
  100SAPC  H12R 9984   1.429   1.441   4.459  0.7260 -1.8704 -3.9433
  100SAPC  C213 9985   1.577   1.405   4.631  0.0648 -0.4435  0.5852
  100SAPC  H13R 9986   1.672   1.349   4.640  1.7028  0.2723 -6.4640
  100SAPC  H13S 9987   1.502   1.331   4.669  0.6423 -1.7581 -0.7289
  100SAPC  C214 9988   1.572   1.528   4.720 -0.1181 -0.1723 -0.5984
  100SAPC  H14R 9989   1.497   1.606   4.700  1.7914  1.4754 -1.7513
  100SAPC  C215 9990   1.656   1.557   4.819  0.5818 -0.0962 -0.2199
  100SAPC  H15R 9991   1.637   1.649   4.877  0.2585 -0.3772  0.1300
  100SAPC  C216 9992   1.774   1.472   4.854 -0.6064  0.4082  0.1371
  100SAPC  H16R 9993   1.860   1.492   4.787  0.2827 -1.3326  0.7154
  100SAPC  H16S 9994   1.758   1.364   4.832  1.2016  0.4393 -1.5734
  100SAPC  C217 9995   1.810   1.488   5.002  0.6050  0.6176 -0.1607
  100SAPC  H17R 9996   1.854   1.588   5.024  2.5102 -0.2508  0.1456
  100SAPC  H17S 9997   1.880   1.411   5.040 -3.5399 -1.3793  4.5414
  100SAPC  C218 9998   1.687   1.465   5.102 -0.4249 -0.1143 -0.8117
  100SAPC  H18R 9999   1.636   1.370   5.076 -0.6322  0.3490 -2.1982
  100SAPC  H18S10000   1.607   1.540   5.086 -3.1395 -2.6214 -0.0028
  100SAPC  C21910001   1.732   1.465   5.249  0.1898 -0.7791  0.1635
  100SAPC  H19R10002   1.804   1.546   5.273 -1.1682  0.2425  0.9197
  100SAPC  H19S10003   1.797   1.376   5.265  0.0486 -1.0810 -0.8929
  100SAPC  C22010004   1.620   1.458   5.352  0.2088  0.0663  0.2686
  100SAPC  H20R10005   1.659   1.477   5.454  1.9427 -2.1276  0.0806
  100SAPC  H20S10006   1.560   1.365   5.347  1.7306 -0.8972 -0.7794
  100SAPC  H20T10007   1.546   1.537   5.325 -0.5242 -0.8497 -0.4561
  100SAPC   C3310008   2.626   0.616   4.391 -0.2467  0.9099 -1.0653
  100SAPC   H3X10009   2.651   0.715   4.435  0.3002  0.4734 -0.3727
  100SAPC   H3Y10010   2.669   0.532   4.449 -0.9463 -0.9807 -3.1414
  100SAPC   C3410011   2.480   0.584   4.367 -0.2817  0.3573  1.0025
  100SAPC   H4X10012   2.471   0.479   4.403  2.4477  0.0441  0.9559
  100SAPC   H4Y10013   2.455   0.592   4.259  0.0715  1.1580  0.9728
  100SAPC   C3510014   2.384   0.671   4.446 -0.1993 -0.0624  0.4230
  100SAPC   H5X10015   2.286   0.632   4.411 -0.1390 -0.5499  0.7977
  100SAPC   H5Y10016   2.394   0.778   4.416  1.4548 -0.1830  0.4570
  100SAPC   C3610017   2.413   0.658   4.593  0.0849  0.1058 -0.1544
  100SAPC   H6X10018   2.523   0.662   4.606 -0.0636  2.3562  0.8043
  100SAPC   H6Y10019   2.381   0.555   4.617  3.9259 -0.9611  1.0157
  100SAPC   C3710020   2.338   0.759   4.678 -0.3659  0.3987  0.0187
  100SAPC   H7X10021   2.366   0.861   4.643 -0.1440  0.2850 -0.1333
  100SAPC   H7Y10022   2.359   0.752   4.787 -1.0828  0.0483  0.1404
  100SAPC   C3810023   2.180   0.758   4.675  0.0200  0.7057  0.7939
  100SAPC   H8X10024   2.130   0.659   4.674 -0.9498  1.0784 -2.9048
  100SAPC   H8Y10025   2.143   0.806   4.582 -0.1771  0.2712  0.6504
  100SAPC   C3910026   2.119   0.838   4.788 -0.2076  0.6458 -0.5439
  100SAPC   H9X10027   2.109   0.772   4.877 -1.4561  1.1156 -0.3148
  100SAPC   H9Y10028   2.014   0.845   4.750  0.1503  0.3661 -1.6257
  100SAPC  C31010029   2.181   0.975   4.817 -0.4758  0.0626 -0.0988
  100SAPC  H10X10030   2.185   1.027   4.719 -0.0468 -1.2267 -0.7805
  100SAPC  H10Y10031   2.286   0.968   4.852 -0.2003 -0.8753 -1.0415
  100SAPC  C31110032   2.091   1.062   4.903  0.1140 -0.3794 -0.7228
  100SAPC  H11X10033   1.992   1.069   4.853 -0.6282 -0.0615  0.7428
  100SAPC  H11Y10034   2.137   1.163   4.908 -0.5748 -0.1225  1.7451
  100SAPC  C31210035   2.067   1.029   5.052  0.5566 -0.0856 -0.1025
  100SAPC  H12X10036   2.003   0.941   5.072 -0.3301  1.0349  2.4420
  100SAPC  H12Y10037   2.005   1.112   5.094 -0.4704 -1.1965  0.6441
  100SAPC  C31310038   2.199   1.020   5.137 -0.7091  0.3875  0.0284
  100SAPC  H13X10039   2.251   1.117   5.152 -0.6909  0.8359 -2.5583
  100SAPC  H13Y10040   2.276   0.962   5.082 -0.6145  1.5407 -1.0938
  100SAPC  C31410041   2.171   0.958   5.278 -0.0515 -0.2275 -0.3565
  100SAPC  H14X10042   2.124   0.857   5.271  1.8845 -1.4869  2.6694
  100SAPC  H14Y10043   2.097   1.015   5.336  0.0361 -1.4430  1.0105
  100SAPC  C31510044   2.299   0.974   5.369 -0.6879 -0.6018 -0.2061
  100SAPC  H15X10045   2.322   1.081   5.390  1.6685 -0.9261 -0.8274
  100SAPC  H15Y10046   2.395   0.934   5.331  0.6222  0.7060  1.5561
  100SAPC  C31610047   2.279   0.904   5.508 -0.4946  0.5689  0.3830
  100SAPC  H16X10048   2.259   0.797   5.485  1.7437  0.4390 -1.3455
  100SAPC  H16Y10049   2.192   0.956   5.553 -1.5664 -2.3953  2.0845
  100SAPC  C31710050   2.408   0.892   5.592 -0.6254 -0.1300  0.1089
  100SAPC  H17X10051   2.499   0.864   5.535 -2.2642 -2.5226 -1.5243
  100SAPC  H17Y10052   2.390   0.821   5.675  1.7730  0.9649  1.6890
  100SAPC  C31810053   2.422   1.020   5.668  0.1715 -0.8881 -0.8137
  100SAPC  H18X10054   2.494   1.018   5.753 -0.6044  0.6620 -0.0675
  100SAPC  H18Y10055   2.326   1.063   5.704 -0.2438 -2.0608 -0.4938
  100SAPC  H18Z10056   2.456   1.103   5.602  1.3765 -0.1714  0.6278
  101OSM      N10057   6.457   3.432   8.085  0.7562 -0.0560 -0.1842
  101OSM    C1510058   6.556   3.503   8.160 -0.6249  0.4408 -0.9951
  101OSM   H15A10059   6.655   3.475   8.127 -0.0015 -0.7415  1.6375
  101OSM   H15B10060   6.546   3.480   8.265 -2.1452  1.3125 -0.9287
  101OSM   H15C10061   6.562   3.611   8.159  0.9720  0.4073  0.2614
  101OSM    C1410062   6.327   3.492   8.121 -0.1751 -0.5326 -0.1244
  101OSM   H14A10063   6.245   3.433   8.082 -0.8610  0.8085 -0.7825
  101OSM   H14B10064   6.322   3.595   8.088 -0.2598  0.0661  1.6824
  101OSM   H14C10065   6.317   3.496   8.228  0.5393 -2.4540  0.0549
  101OSM    C1310066   6.483   3.450   7.939 -0.4327 -0.3056  0.2356
  101OSM   H13A10067   6.394   3.433   7.881  1.7080 -0.3422 -3.3233
  101OSM   H13B10068   6.560   3.380   7.909  0.0473  0.2032  0.2771
  101OSM   H13C10069   6.508   3.554   7.927 -1.6209 -0.1472 -1.2088
  101OSM    C1210070   6.464   3.286   8.119 -0.1511  0.2246  0.2103
  101OSM   H12A10071   6.388   3.227   8.071 -0.2129  0.3157  0.1953
  101OSM   H12B10072   6.436   3.269   8.222 -1.0000 -0.2876 -0.0997
  101OSM    C1110073   6.600   3.205   8.102 -0.0637 -0.0025 -0.3334
  101OSM   H11A10074   6.625   3.193   7.995  2.9936  0.0549  0.2986
  101OSM   H11B10075   6.566   3.106   8.138  1.3029  0.3001  1.9894
  101OSM      P10076   6.860   3.231   8.167 -0.3906  0.1607 -0.3077
  101OSM    O1310077   6.938   3.358   8.156  0.1402  0.8789  0.3138
  101OSM    O1410078   6.900   3.161   8.289  0.2812  0.0667  0.5034
  101OSM    O1110079   6.880   3.148   8.033 -0.3071 -0.0024  0.3052
  101OSM    O1210080   6.705   3.261   8.178 -0.1762 -0.6814  0.4029
  101OSM    C1S10081   7.001   3.159   7.961 -0.8510  0.7187 -0.6462
  101OSM    H1S10082   7.077   3.107   8.024 -4.0315  0.4976  3.4096
  101OSM    H1T10083   7.040   3.261   7.945  3.4482 -0.5153  0.5997
  101OSM     NF10084   7.131   3.062   7.772 -0.0796 -0.7223 -0.8265
  101OSM    HNF10085   7.176   3.119   7.703 -1.0524  3.1663  1.4436
  101OSM    C2S10086   6.994   3.079   7.824  0.3944  0.3474 -0.2297
  101OSM    H2S10087   6.948   2.980   7.847  0.2634  0.2469 -0.9183
  101OSM    C3S10088   6.895   3.141   7.719  0.3579  0.5820  0.4410
  101OSM    H3S10089   6.936   3.234   7.674  2.9602  0.5614  2.5598
  101OSM     O310090   6.774   3.190   7.782  0.5154 -0.3320  0.0711
  101OSM    HO310091   6.797   3.185   7.875 -0.3567 -0.8609  0.2685
  101OSM    C4S10092   6.876   3.047   7.599  0.2487 -0.0563  0.0551
  101OSM    H4S10093   6.968   3.057   7.541  1.3936  0.7663  1.9287
  101OSM    C5S10094   6.774   2.962   7.572 -0.4851  0.5433  0.4458
  101OSM    H5S10095   6.697   2.947   7.650 -0.5648  0.0904  0.2820
  101OSM    C6S10096   6.751   2.865   7.457  0.0163 -0.2340  0.2025
  101OSM    H6S10097   6.656   2.888   7.404  1.4902  2.3544 -1.5242
  101OSM    H6T10098   6.742   2.759   7.489  0.2530 -0.3072  0.0258
  101OSM    C7S10099   6.850   2.881   7.344  0.1310  0.4006  0.8917
  101OSM    H7S10100   6.952   2.863   7.383  0.4502 -2.8058 -1.0518
  101OSM    H7T10101   6.827   2.982   7.302 -1.8776 -0.3595  0.0095
  101OSM    C8S10102   6.810   2.775   7.236  0.1462 -0.0497  0.0608
  101OSM    H8S10103   6.706   2.781   7.198 -0.2108 -2.8972  0.3519
  101OSM    H8T10104   6.800   2.680   7.294 -2.7967  1.0823  1.6453
  101OSM    C9S10105   6.910   2.755   7.119  0.1240 -0.2213 -0.1179
  101OSM    H9S10106   7.008   2.714   7.151  0.2368 -1.4232 -1.8476
  101OSM    H9T10107   6.933   2.859   7.089 -1.3901  0.2445  0.2578
  101OSM   C10S10108   6.855   2.663   7.014  0.6227 -0.9254 -0.0929
  101OSM   H10S10109   6.753   2.697   6.984  0.7535  2.1440  2.4701
  101OSM   H10T10110   6.840   2.557   7.045 -1.1464 -0.9129 -0.7538
  101OSM   C11S10111   6.933   2.675   6.884  0.2657  0.6913 -0.3161
  101OSM   H11S10112   7.022   2.609   6.895 -1.0981 -0.9943  1.3286
  101OSM   H11T10113   6.959   2.779   6.857 -0.9783  0.4950 -2.5274
  101OSM   C12S10114   6.869   2.623   6.755  0.4445  0.6495  0.5143
  101OSM   H12S10115   6.759   2.640   6.753 -0.1847 -2.0700  3.1818
  101OSM   H12T10116   6.872   2.512   6.754  0.0531  0.5953  2.3434
  101OSM   C13S10117   6.924   2.681   6.629  0.3844 -0.4217 -0.6351
  101OSM   H13S10118   7.035   2.693   6.626  0.5087 -1.3388 -0.3039
  101OSM   H13T10119   6.875   2.780   6.623  0.9970 -0.1898 -2.3346
  101OSM   C14S10120   6.874   2.603   6.506 -1.8080  0.0167  0.4145
  101OSM   H14S10121   6.763   2.602   6.509 -1.9221 -0.8051 -2.0609
  101OSM   H14T10122   6.924   2.503   6.501  0.4195  1.0985 -0.4409
  101OSM   C15S10123   6.917   2.679   6.379  0.1924 -0.1163 -0.3962
  101OSM   H15S10124   7.024   2.707   6.389  0.2121 -0.1968 -0.3709
  101OSM   H15T10125   6.861   2.773   6.399 -0.6760 -1.3719  4.3022
  101OSM   C16S10126   6.890   2.591   6.251 -0.2124  0.0382 -0.7640
  101OSM   H16S10127   6.783   2.562   6.251 -1.2093  3.3087 -1.0125
  101OSM   H16T10128   6.952   2.500   6.263 -2.7433 -2.3153 -3.7384
  101OSM   C17S10129   6.929   2.650   6.116  0.1573 -1.1722 -0.2154
  101OSM   H17S10130   6.893   2.755   6.115 -1.5570 -1.7334  0.1961
  101OSM   H17T10131   6.882   2.598   6.030 -0.3801 -2.0554  0.6008
  101OSM   C18S10132   7.084   2.662   6.082  0.4962  0.0171  0.0731
  101OSM   H18S10133   7.145   2.720   6.155  1.1146 -0.1289 -0.3191
  101OSM   H18T10134   7.101   2.691   5.976 -0.4530 -2.6690 -0.9032
  101OSM   H18U10135   7.124   2.558   6.087 -1.0601 -0.5781  0.7412
  101OSM    C1F10136   7.219   2.986   7.843  0.4316 -0.1259  0.3438
  101OSM     OF10137   7.177   2.909   7.932 -0.3528 -0.4323 -0.3625
  101OSM    C2F10138   7.357   3.006   7.816 -1.2610  0.0708 -0.2137
  101OSM    H2F10139   7.420   2.999   7.907 -0.6070 -0.9371 -0.7244
  101OSM    H2G10140   7.386   3.107   7.778  0.1523  0.1306  0.9252
  101OSM    C3F10141   7.416   2.915   7.701  0.3511 -0.1361 -0.5721
  101OSM    H3F10142   7.344   2.902   7.617  0.9077  1.9118 -1.4384
  101OSM    H3G10143   7.443   2.813   7.735 -0.5723 -1.2528 -2.9976
  101OSM    C4F10144   7.546   2.954   7.630  0.6438  0.7773  0.4747
  101OSM    H4F10145   7.620   3.016   7.686  1.6299  0.6570 -0.6512
  101OSM    H4G10146   7.513   3.019   7.546  0.5515  1.2808  0.8937
  101OSM    C5F10147   7.623   2.842   7.562  0.0686  0.7172  0.2251
  101OSM    H5F10148   7.554   2.767   7.517  0.2928  0.3545  0.4800
  101OSM    H5G10149   7.657   2.788   7.653 -0.4519 -0.2369 -0.1326
  101OSM    C6F10150   7.735   2.874   7.464  0.0914  1.2234 -0.3165
  101OSM    H6F10151   7.769   2.779   7.417  2.8416 -0.0001  3.6051
  101OSM    H6G10152   7.815   2.906   7.535 -0.6152  1.1139  0.5482
  101OSM    C7F10153   7.713   2.975   7.357 -0.1957  0.2797  0.5179
  101OSM    H7F10154   7.680   3.060   7.420  2.3484  0.5465  1.6203
  101OSM    H7G10155   7.627   2.954   7.290  0.0174  1.2227 -0.0809
  101OSM    C8F10156   7.849   2.988   7.283  0.1775 -0.4047  0.2468
  101OSM    H8F10157   7.874   2.884   7.254 -2.5849 -1.6299  1.8866
  101OSM    H8G10158   7.932   3.025   7.347  0.5647  0.6559 -0.8268
  101OSM    C9F10159   7.844   3.072   7.161  0.0798 -0.8672 -0.3155
  101OSM    H9F10160   7.876   3.176   7.168  0.8852 -1.1747  0.6879
  101OSM   C10F10161   7.826   3.032   7.034 -0.6442 -0.0676  0.0532
  101OSM   H10F10162   7.815   3.102   6.950 -1.1130 -2.1476 -1.7359
  101OSM   C11F10163   7.778   2.890   6.998 -0.8605 -0.3838 -0.2547
  101OSM   H11F10164   7.683   2.891   6.939 -0.5987 -1.5385 -0.7265
  101OSM   H11G10165   7.738   2.844   7.091 -3.8607  2.4268  0.0149
  101OSM   C12F10166   7.885   2.801   6.934  0.2721  0.0544  0.5356
  101OSM   H12F10167   7.854   2.695   6.939  0.9946 -0.1560  0.6106
  101OSM   H12G10168   7.973   2.817   7.000  0.2974  2.2547  0.0657
  101OSM   C13F10169   7.921   2.830   6.786  0.1816  0.2750 -1.1987
  101OSM   H13F10170   8.005   2.762   6.760  1.4022  1.5579 -0.7330
  101OSM   H13G10171   7.965   2.931   6.778  0.2533  0.2995 -0.5448
  101OSM   C14F10172   7.811   2.805   6.681 -0.6138 -0.1853  0.0144
  101OSM   H14F10173   7.728   2.878   6.689 -0.4467 -0.1242  1.4106
  101OSM   H14G10174   7.763   2.710   6.711  1.0425  0.0008  3.7949
  101OSM   C15F10175   7.862   2.805   6.531 -0.4934 -0.1660  0.1420
  101OSM   H15F10176   7.778   2.760   6.474 -0.4672  0.0680 -0.0855
  101OSM   H15G10177   7.940   2.728   6.517 -1.6330 -1.0064 -2.0883
  101OSM   C16F10178   7.900   2.939   6.451  0.6431  0.0505 -0.1827
  101OSM   H16F10179   8.005   2.970   6.470  0.9658 -0.3956 -1.2281
  101OSM   H16G10180   7.843   3.027   6.489  3.2663  2.5479 -1.7193
  101OSM   C17F10181   7.882   2.927   6.295 -0.4722  0.5953  0.1276
  101OSM   H17F10182   7.773   2.927   6.272 -0.5116 -2.2242  0.0100
  101OSM   H17G10183   7.915   2.829   6.254  0.7888  1.1768 -0.2823
  101OSM   C18F10184   7.940   3.041   6.210 -0.3481  1.2324 -1.0258
  101OSM   H18F10185   8.050   3.048   6.223 -0.1033 -1.8300 -0.7364
  101OSM   H18G10186   7.898   3.142   6.233 -1.0187  0.3732  1.9780
  101OSM   H18H10187   7.929   3.025   6.101  0.4201 -0.3224 -0.8957
  102OSM      N10188   2.020   3.927   8.557 -0.2811  0.5530 -0.2338
  102OSM    C1510189   2.135   3.927   8.653  0.0244  0.1165 -0.3212
  102OSM   H15A10190   2.108   3.962   8.751  1.3105 -0.0431  0.1145
  102OSM   H15B10191   2.220   3.989   8.628  0.7579  0.0214  1.7679
  102OSM   H15C10192   2.165   3.825   8.669 -0.3898  0.2555  1.5588
  102OSM    C1410193   1.928   3.816   8.612  0.0403 -0.5950  0.8427
  102OSM   H14A10194   1.980   3.722   8.616  1.8290  0.3662  1.2769
  102OSM   H14B10195   1.841   3.819   8.549  0.1585 -0.6891  0.6729
  102OSM   H14C10196   1.893   3.841   8.711 -1.3168  2.9723 -0.3838
  102OSM    C1310197   1.943   4.050   8.556 -0.4678  0.1145  0.2421
  102OSM   H13A10198   1.887   4.068   8.646 -0.5790  0.8398  0.0296
  102OSM   H13B10199   1.871   4.051   8.476 -0.0344  1.3240 -0.1598
  102OSM   H13C10200   2.008   4.135   8.538 -0.8727  0.7276  1.6060
  102OSM    C1210201   2.067   3.892   8.420  0.1315  0.4734  0.7450
  102OSM   H12A10202   2.138   3.960   8.374  0.1450 -0.3236 -0.4799
  102OSM   H12B10203   1.976   3.899   8.362  0.0516 -0.8278  0.6749
  102OSM    C1110204   2.125   3.751   8.385  0.5920 -0.5348 -0.5766
  102OSM   H11A10205   2.167   3.761   8.283 -0.2471  0.8687 -0.8088
  102OSM   H11B10206   2.037   3.683   8.389 -0.5567  0.8797 -0.9355
  102OSM      P10207   2.299   3.592   8.491 -0.3292  0.3497 -0.0319
  102OSM    O1310208   2.432   3.597   8.550 -0.1597 -0.1601 -0.2278
  102OSM    O1410209   2.211   3.491   8.544  0.8416 -0.4896 -0.4667
  102OSM    O1110210   2.307   3.563   8.332 -0.5663 -0.4009 -0.2209
  102OSM    O1210211   2.225   3.719   8.483  0.6454 -0.6116  0.3370
  102OSM    C1S10212   2.434   3.599   8.266 -0.0484 -0.2039 -0.2776
  102OSM    H1S10213   2.512   3.527   8.297 -0.7488 -0.9295 -0.1470
  102OSM    H1T10214   2.465   3.704   8.282 -1.0198 -0.0170  0.5303
  102OSM     NF10215   2.553   3.562   8.060 -0.1180 -0.5135  0.7635
  102OSM    HNF10216   2.559   3.648   8.010 -1.3471 -1.0599 -0.4111
  102OSM    C2S10217   2.421   3.563   8.117  0.0325  0.4223  0.4258
  102OSM    H2S10218   2.386   3.457   8.114 -0.2850  0.4063  2.7807
  102OSM    C3S10219   2.316   3.645   8.045 -0.3083 -0.6147 -0.2411
  102OSM    H3S10220   2.332   3.753   8.066 -1.3172 -0.6551  0.8157
  102OSM     O310221   2.184   3.605   8.070 -0.6348  0.1778  0.0354
  102OSM    HO310222   2.186   3.544   8.144  0.5750 -0.2741 -0.3529
  102OSM    C4S10223   2.335   3.622   7.899 -0.0312 -0.6286  0.6806
  102OSM    H4S10224   2.332   3.514   7.880 -0.8490 -0.9263  2.2884
  102OSM    C5S10225   2.371   3.708   7.802 -0.3332 -0.2536 -0.1324
  102OSM    H5S10226   2.403   3.813   7.817 -1.1925 -0.3124  2.6740
  102OSM    C6S10227   2.397   3.670   7.657 -0.0066 -0.3958 -0.3119
  102OSM    H6S10228   2.428   3.563   7.661  3.0281  0.3714 -0.9786
  102OSM    H6T10229   2.490   3.715   7.617  0.2164 -1.5259 -1.1147
  102OSM    C7S10230   2.283   3.702   7.564 -0.1309 -0.3369 -0.1537
  102OSM    H7S10231   2.272   3.812   7.569  1.4494 -0.1416 -0.4314
  102OSM    H7T10232   2.189   3.655   7.600 -0.8872  0.4191 -1.0782
  102OSM    C8S10233   2.312   3.648   7.427 -0.5276 -0.2625 -0.1555
  102OSM    H8S10234   2.307   3.537   7.424  2.4742 -0.4923  0.1106
  102OSM    H8T10235   2.413   3.676   7.389  0.2237 -0.4263  1.6279
  102OSM    C9S10236   2.210   3.700   7.329  0.1521 -0.3911  0.3961
  102OSM    H9S10237   2.217   3.808   7.304 -0.3430 -1.0125 -2.9632
  102OSM    H9T10238   2.109   3.670   7.365  0.0590  0.0184  0.4750
  102OSM   C10S10239   2.225   3.644   7.185 -0.6938  0.1979  0.1304
  102OSM   H10S10240   2.211   3.535   7.194  0.5686  0.0446  0.3659
  102OSM   H10T10241   2.323   3.668   7.138 -1.7485  1.9370 -1.2871
  102OSM   C11S10242   2.121   3.693   7.076 -1.1453 -0.3686 -0.4662
  102OSM   H11S10243   2.117   3.804   7.078 -1.6264 -0.3861 -0.0985
  102OSM   H11T10244   2.020   3.665   7.115  0.0279 -2.3430  1.3685
  102OSM   C12S10245   2.152   3.644   6.936 -0.5739  0.3017  1.1318
  102OSM   H12S10246   2.185   3.538   6.937 -0.2036  0.3486 -1.0882
  102OSM   H12T10247   2.239   3.696   6.889 -1.1008  0.2490  0.0637
  102OSM   C13S10248   2.035   3.656   6.830 -0.6098 -0.2203 -0.3572
  102OSM   H13S10249   2.014   3.765   6.818 -0.1458  0.1025  1.5335
  102OSM   H13T10250   1.947   3.599   6.866  0.7938 -2.7697 -0.7155
  102OSM   C14S10251   2.083   3.601   6.697  0.1070 -0.3115  0.1384
  102OSM   H14S10252   2.083   3.490   6.699  1.7542 -0.4445 -2.1524
  102OSM   H14T10253   2.186   3.639   6.681  0.1375 -1.0675 -1.8279
  102OSM   C15S10254   2.000   3.645   6.570  0.1256 -0.6259 -0.0496
  102OSM   H15S10255   2.038   3.746   6.540  0.4535 -0.1554  1.8066
  102OSM   H15T10256   1.898   3.656   6.612  0.8681 -2.1903  2.3882
  102OSM   C16S10257   2.006   3.563   6.440  0.6843  0.1668  0.2335
  102OSM   H16S10258   1.988   3.456   6.463  0.2087  0.2066  0.0525
  102OSM   H16T10259   2.096   3.569   6.375  0.7424 -0.3747  0.2641
  102OSM   C17S10260   1.885   3.620   6.359 -0.1820 -1.0976  0.0117
  102OSM   H17S10261   1.899   3.730   6.373 -1.8478 -0.9908  1.3106
  102OSM   H17T10262   1.783   3.610   6.402 -0.0503  1.8065  1.2721
  102OSM   C18S10263   1.901   3.564   6.217 -1.2263 -0.2768 -0.0652
  102OSM   H18S10264   1.907   3.453   6.222 -1.3999 -0.2400  2.6054
  102OSM   H18T10265   1.997   3.597   6.173  0.2116 -0.2202  2.9033
  102OSM   H18U10266   1.823   3.599   6.145  1.1219  2.8500 -1.3487
  102OSM    C1F10267   2.654   3.477   8.085  0.5469 -0.0070  0.7881
  102OSM     OF10268   2.638   3.387   8.165  0.2477  0.0574  0.2000
  102OSM    C2F10269   2.779   3.482   8.000  0.3266 -0.8015 -0.2545
  102OSM    H2F10270   2.870   3.495   8.062 -0.3135  0.0912  0.5230
  102OSM    H2G10271   2.766   3.574   7.940  0.7375 -1.6278 -1.6636
  102OSM    C3F10272   2.779   3.363   7.915 -0.1274 -0.0361  0.0691
  102OSM    H3F10273   2.787   3.264   7.966  0.8235  0.0190  0.0461
  102OSM    H3G10274   2.874   3.375   7.860 -1.1114  0.4776 -1.5972
  102OSM    C4F10275   2.664   3.352   7.818 -0.5883  0.0361 -0.0184
  102OSM    H4F10276   2.648   3.455   7.779  1.3503  0.9515  1.4171
  102OSM    H4G10277   2.564   3.332   7.863 -1.3276  1.8036 -0.7514
  102OSM    C5F10278   2.694   3.247   7.708  0.3439  0.2515  0.0205
  102OSM    H5F10279   2.714   3.146   7.750  0.2976 -0.2369 -1.1025
  102OSM    H5G10280   2.790   3.272   7.659  1.1088  1.2682  1.9314
  102OSM    C6F10281   2.586   3.231   7.605  0.1460  0.3120 -0.1104
  102OSM    H6F10282   2.618   3.152   7.534 -0.5146 -2.6201  2.6274
  102OSM    H6G10283   2.562   3.324   7.548  0.8073 -0.1304 -1.1201
  102OSM    C7F10284   2.450   3.170   7.665 -0.0850  0.7092 -0.7494
  102OSM    H7F10285   2.401   3.228   7.746  0.3629  1.7139 -1.1846
  102OSM    H7G10286   2.477   3.070   7.707  0.0603  0.9057 -0.3744
  102OSM    C8F10287   2.342   3.155   7.553  0.3845 -0.4327 -0.3585
  102OSM    H8F10288   2.314   3.262   7.541 -1.6247 -0.6813  1.4981
  102OSM    H8G10289   2.248   3.127   7.606 -0.3932  2.4386 -0.0338
  102OSM    C9F10290   2.371   3.062   7.435 -0.7352 -0.1826  0.1692
  102OSM    H9F10291   2.346   2.957   7.460  0.6091 -0.7476 -0.7557
  102OSM   C10F10292   2.427   3.081   7.314  0.6677 -0.5180  0.9058
  102OSM   H10F10293   2.453   2.998   7.248  0.2207 -0.8670  1.1640
  102OSM   C11F10294   2.472   3.212   7.249  0.0376  0.5486  0.0395
  102OSM   H11F10295   2.564   3.209   7.186 -1.2839  0.2789 -1.9498
  102OSM   H11G10296   2.487   3.285   7.332  0.9343 -1.3108  1.6080
  102OSM   C12F10297   2.367   3.273   7.160 -0.0224 -0.4798 -0.1045
  102OSM   H12F10298   2.397   3.374   7.124  0.6714 -1.0763 -1.2448
  102OSM   H12G10299   2.270   3.292   7.209 -1.5648 -1.5153 -2.5898
  102OSM   C13F10300   2.342   3.179   7.035  0.2447 -0.1552  0.1512
  102OSM   H13F10301   2.254   3.113   7.045 -0.6204  1.2235  2.4235
  102OSM   H13G10302   2.439   3.127   7.019 -0.3953 -0.9849 -1.2781
  102OSM   C14F10303   2.317   3.258   6.904  0.1083  0.1320 -0.8463
  102OSM   H14F10304   2.398   3.332   6.893  0.5251 -0.1562  0.1776
  102OSM   H14G10305   2.217   3.303   6.922  0.8155  1.7870 -0.9314
  102OSM   C15F10306   2.313   3.184   6.768  0.2124 -0.3012  0.3082
  102OSM   H15F10307   2.219   3.126   6.759 -0.4784  0.8906 -0.5308
  102OSM   H15G10308   2.405   3.123   6.771 -0.7224 -1.7316  0.7302
  102OSM   C16F10309   2.318   3.290   6.653 -0.1359 -0.2642 -0.0050
  102OSM   H16F10310   2.419   3.334   6.669 -0.4528 -0.3920  2.9084
  102OSM   H16G10311   2.243   3.369   6.672  0.4235  0.0766  0.8375
  102OSM   C17F10312   2.296   3.235   6.514 -0.7830  0.2024 -0.2634
  102OSM   H17F10313   2.192   3.196   6.503 -0.5160 -1.9368  3.1610
  102OSM   H17G10314   2.364   3.151   6.487 -2.2670 -1.1965  0.1391
  102OSM   C18F10315   2.316   3.350   6.414 -0.0200  0.6124 -0.3434
  102OSM   H18F10316   2.308   3.325   6.306  0.1458 -0.4384 -0.1279
  102OSM   H18G10317   2.418   3.389   6.433  0.7116 -0.9722 -0.8070
  102OSM   H18H10318   2.239   3.424   6.442 -2.5372 -2.7201  2.3350
  103OSM      N10319   5.927   5.165   8.512  0.9157  0.4522  0.1268
  103OSM    C1510320   5.953   5.066   8.620 -0.0594  0.1365 -0.9317
  103OSM   H15A10321   5.873   4.994   8.626 -0.2772  0.4762  0.8768
  103OSM   H15B10322   5.954   5.115   8.716  0.2832 -2.1832  0.3045
  103OSM   H15C10323   6.039   5.003   8.604 -0.2595 -0.7104  1.0655
  103OSM    C1410324   5.807   5.241   8.564  0.0568  0.3411 -0.2026
  103OSM   H14A10325   5.803   5.240   8.672 -0.0846  3.1723 -0.1235
  103OSM   H14B10326   5.717   5.192   8.530 -0.7270  0.8178  1.0906
  103OSM   H14C10327   5.808   5.344   8.533 -1.0377  0.4794  0.1721
  103OSM    C1310328   6.044   5.259   8.503 -0.3220 -0.1828 -0.2600
  103OSM   H13A10329   6.037   5.338   8.430 -0.8341 -1.8853 -2.1428
  103OSM   H13B10330   6.127   5.203   8.463 -0.6490 -1.0863  0.2963
  103OSM   H13C10331   6.080   5.293   8.599 -0.8044 -1.7169  0.5080
  103OSM    C1210332   5.899   5.092   8.382 -0.1411 -0.3461 -0.2831
  103OSM   H12A10333   5.835   5.010   8.411  0.2843  0.0430  2.0087
  103OSM   H12B10334   5.989   5.038   8.356 -0.2696  0.5610 -2.8759
  103OSM    C1110335   5.851   5.168   8.265 -0.0031  0.0675  0.2930
  103OSM   H11A10336   5.881   5.109   8.175  3.7407  1.8518  0.1468
  103OSM   H11B10337   5.909   5.263   8.271 -1.0308  0.7262  0.0310
  103OSM      P10338   5.616   5.092   8.239  0.5714  0.5913  0.0704
  103OSM    O1310339   5.685   4.966   8.237  0.0340 -0.3063 -0.3253
  103OSM    O1410340   5.497   5.106   8.331  1.0265  0.2787 -1.0324
  103OSM    O1110341   5.559   5.129   8.092 -0.2261  0.5237 -0.1397
  103OSM    O1210342   5.716   5.208   8.276 -0.4388  0.0608 -0.2663
  103OSM    C1S10343   5.605   5.241   8.019 -0.7302 -0.1104  0.8949
  103OSM    H1S10344   5.709   5.264   8.049  0.1959 -2.8698  0.0654
  103OSM    H1T10345   5.539   5.328   8.038 -1.1663 -0.3055  0.2902
  103OSM     NF10346   5.648   5.348   7.800  0.2229  0.0580 -0.0722
  103OSM    HNF10347   5.570   5.395   7.759 -0.0434 -1.7470 -1.7588
  103OSM    C2S10348   5.593   5.227   7.866 -0.5233  0.1120  0.4888
  103OSM    H2S10349   5.667   5.147   7.842 -0.2122 -0.3244  2.6520
  103OSM    C3S10350   5.457   5.181   7.821  0.3649  0.5055 -0.1139
  103OSM    H3S10351   5.381   5.250   7.863 -1.0659 -1.5872  0.9298
  103OSM     O310352   5.414   5.064   7.891  0.3330 -0.2658 -0.1670
  103OSM    HO310353   5.467   5.074   7.970  1.1919  0.9098 -0.8627
  103OSM    C4S10354   5.443   5.163   7.665 -0.5564  0.2442  1.1854
  103OSM    H4S10355   5.519   5.099   7.618  0.3504  1.6590  0.6397
  103OSM    C5S10356   5.340   5.207   7.597 -0.3432 -0.4770  0.2647
  103OSM    H5S10357   5.268   5.279   7.640  1.3927  1.5206 -0.0552
  103OSM    C6S10358   5.331   5.166   7.449 -0.1414 -0.3776 -0.4927
  103OSM    H6S10359   5.365   5.060   7.439 -0.0629 -0.5969  1.6217
  103OSM    H6T10360   5.395   5.235   7.391  2.0516  0.3522  2.5309
  103OSM    C7S10361   5.185   5.164   7.407  0.1292 -0.2005  0.3380
  103OSM    H7S10362   5.154   5.270   7.397 -1.2715 -0.7766 -2.1092
  103OSM    H7T10363   5.107   5.108   7.463 -0.4413 -0.1455 -0.3855
  103OSM    C8S10364   5.176   5.113   7.260  0.2177  0.4510 -0.3400
  103OSM    H8S10365   5.070   5.106   7.228 -0.0577 -1.6298  0.8230
  103OSM    H8T10366   5.210   5.007   7.265 -1.2912 -0.0069  1.0014
  103OSM    C9S10367   5.247   5.179   7.140 -0.5409  0.4598  0.4759
  103OSM    H9S10368   5.356   5.179   7.164 -0.1535  0.5984 -1.1764
  103OSM    H9T10369   5.207   5.281   7.124 -1.5338 -0.3285 -3.0140
  103OSM   C10S10370   5.232   5.097   7.006 -0.0153 -0.5791  0.1025
  103OSM   H10S10371   5.126   5.089   6.975 -0.1643 -1.7223  0.8324
  103OSM   H10T10372   5.259   4.989   7.013  0.1665 -0.4814  0.9542
  103OSM   C11S10373   5.308   5.164   6.887  0.2611  0.1245 -0.3588
  103OSM   H11S10374   5.415   5.137   6.895  0.3900  0.3919 -1.1245
  103OSM   H11T10375   5.305   5.275   6.884 -0.9608  0.0821 -2.1381
  103OSM   C12S10376   5.264   5.107   6.749  0.4524 -0.5998 -1.0124
  103OSM   H12S10377   5.157   5.133   6.735  0.7365  1.8700  0.6857
  103OSM   H12T10378   5.289   4.999   6.754  0.8671 -0.5075 -1.0697
  103OSM   C13S10379   5.345   5.171   6.638 -0.4550  0.0497 -0.4024
  103OSM   H13S10380   5.454   5.161   6.658 -0.6000  0.4331  0.6163
  103OSM   H13T10381   5.315   5.278   6.637 -0.9703 -0.0952 -0.7907
  103OSM   C14S10382   5.321   5.123   6.503 -0.4569  0.9908 -0.3646
  103OSM   H14S10383   5.216   5.155   6.483 -0.9585 -0.2292  0.2191
  103OSM   H14T10384   5.310   5.013   6.503 -0.3299  0.8958 -3.5668
  103OSM   C15S10385   5.406   5.170   6.387  0.1261 -0.0611  0.8343
  103OSM   H15S10386   5.504   5.121   6.402  0.3346  0.2311  0.4442
  103OSM   H15T10387   5.437   5.276   6.400 -0.9579  0.6722 -1.8901
  103OSM   C16S10388   5.343   5.157   6.243 -0.2578  0.0294  0.0601
  103OSM   H16S10389   5.267   5.235   6.222  0.9565  1.7830  1.8350
  103OSM   H16T10390   5.304   5.053   6.233  0.2973 -0.2170  0.4076
  103OSM   C17S10391   5.449   5.163   6.130 -0.6467  0.4763 -0.3452
  103OSM   H17S10392   5.537   5.097   6.146 -0.9402  0.1773  0.0582
  103OSM   H17T10393   5.490   5.267   6.130  1.4564 -0.3026 -0.5683
  103OSM   C18S10394   5.393   5.132   5.987  0.0494  0.0903 -0.5909
  103OSM   H18S10395   5.338   5.035   5.990 -0.5710  0.4605  1.0124
  103OSM   H18T10396   5.467   5.116   5.906 -0.4898 -1.3423 -0.8372
  103OSM   H18U10397   5.320   5.211   5.961  0.4596  0.7880  0.3249
  103OSM    C1F10398   5.761   5.413   7.804 -0.4934 -0.7087 -0.2762
  103OSM     OF10399   5.853   5.368   7.874 -0.4964 -0.3780  0.1552
  103OSM    C2F10400   5.775   5.531   7.721 -0.5353 -0.1608 -0.1503
  103OSM    H2F10401   5.764   5.619   7.788 -0.3487  1.6826 -2.3982
  103OSM    H2G10402   5.695   5.539   7.643 -0.7104 -0.2992  0.0141
  103OSM    C3F10403   5.912   5.545   7.650  0.0484 -0.3151  0.9625
  103OSM    H3F10404   5.946   5.453   7.598 -1.8971 -0.1669 -0.6905
  103OSM    H3G10405   5.995   5.558   7.723  0.4202  0.8513  0.3605
  103OSM    C4F10406   5.926   5.659   7.552  0.2417  0.0392  0.2040
  103OSM    H4F10407   6.029   5.701   7.548  1.1689 -2.1221 -0.4385
  103OSM    H4G10408   5.853   5.740   7.572 -1.0359 -0.7047 -1.2170
  103OSM    C5F10409   5.903   5.605   7.413  0.2897 -0.3963  0.1103
  103OSM    H5F10410   5.799   5.572   7.394  0.7025 -0.3879 -2.6696
  103OSM    H5G10411   5.968   5.516   7.393 -0.5084 -1.1843  0.9204
  103OSM    C6F10412   5.944   5.707   7.302  1.1964 -0.0827 -0.1626
  103OSM    H6F10413   6.049   5.741   7.312  1.3249 -0.6968  0.6314
  103OSM    H6G10414   5.878   5.795   7.319  2.1952  0.9183 -1.2923
  103OSM    C7F10415   5.914   5.658   7.161  0.8961  0.9386  0.6620
  103OSM    H7F10416   5.817   5.605   7.157  0.8121  1.1579 -1.6217
  103OSM    H7G10417   5.989   5.576   7.151 -1.4442 -1.1144 -1.2726
  103OSM    C8F10418   5.930   5.755   7.046 -0.5892 -0.0454  0.1815
  103OSM    H8F10419   5.919   5.695   6.953  0.2618 -1.1512  0.7810
  103OSM    H8G10420   6.026   5.811   7.053 -2.0291  2.8920 -1.3204
  103OSM    C9F10421   5.841   5.876   7.028  0.7604 -0.6258  0.3991
  103OSM    H9F10422   5.844   5.946   7.113 -1.3141  0.7297 -0.5572
  103OSM   C10F10423   5.761   5.918   6.928 -0.2717  0.7519 -0.3216
  103OSM   H10F10424   5.703   6.010   6.949 -0.1408  0.7656 -0.0267
  103OSM   C11F10425   5.754   5.861   6.787  0.1210 -0.1420  0.1501
  103OSM   H11F10426   5.819   5.772   6.779  0.8925  0.4244  0.0692
  103OSM   H11G10427   5.795   5.935   6.715  1.0527  0.2325  1.0392
  103OSM   C12F10428   5.611   5.814   6.758  0.2228  0.3755  0.5203
  103OSM   H12F10429   5.546   5.904   6.749 -0.1834  0.2210  1.7191
  103OSM   H12G10430   5.554   5.750   6.829 -1.7812 -2.4115 -3.2130
  103OSM   C13F10431   5.607   5.738   6.622 -0.2909  0.1294  0.3194
  103OSM   H13F10432   5.511   5.685   6.604  0.1457  0.0035 -1.9130
  103OSM   H13G10433   5.698   5.674   6.611  0.9791  1.5860  1.8245
  103OSM   C14F10434   5.635   5.836   6.501  0.8512 -0.0298  0.3903
  103OSM   H14F10435   5.743   5.857   6.487  1.1159 -0.6712  1.3636
  103OSM   H14G10436   5.584   5.934   6.512  0.4785 -0.3649  1.9617
  103OSM   C15F10437   5.593   5.769   6.369  0.1103 -0.4791 -0.6291
  103OSM   H15F10438   5.495   5.727   6.398  0.9884  0.0384  3.7091
  103OSM   H15G10439   5.668   5.693   6.338  1.6494  1.5569 -2.1873
  103OSM   C16F10440   5.582   5.876   6.262 -0.6699 -0.1319  0.5246
  103OSM   H16F10441   5.523   5.963   6.297 -0.6770 -0.0759  0.3749
  103OSM   H16G10442   5.520   5.831   6.181 -0.4281  2.1116 -0.9850
  103OSM   C17F10443   5.715   5.927   6.197 -0.5093  0.3142 -1.0729
  103OSM   H17F10444   5.778   5.836   6.189 -0.7431  0.2361 -2.1294
  103OSM   H17G10445   5.755   5.986   6.282  0.9818 -0.4094 -1.2332
  103OSM   C18F10446   5.712   6.002   6.066 -0.0548 -0.1414 -0.2877
  103OSM   H18F10447   5.820   6.008   6.039  0.2696 -2.5062  0.2122
  103OSM   H18G10448   5.663   6.101   6.079  1.5157  0.4609  1.6180
  103OSM   H18H10449   5.652   5.950   5.989 -0.7492  1.6128 -0.9854
  104OSM      N10450   0.622   3.864   8.017  0.2122 -0.2828 -0.5888
  104OSM    C1510451   0.741   3.794   7.950  0.1973  0.2927 -0.7536
  104OSM   H15A10452   0.718   3.768   7.848  0.3433  1.5233 -1.1225
  104OSM   H15B10453   0.743   3.702   8.006 -4.8592 -0.1666 -0.8406
  104OSM   H15C10454   0.830   3.856   7.948  1.9330 -2.0611 -0.3499
  104OSM    C1410455   0.675   3.918   8.147  0.1527  0.0839 -0.2554
  104OSM   H14A10456   0.593   3.960   8.203  1.3499  3.5907 -0.8467
  104OSM   H14B10457   0.746   3.999   8.139 -0.0918  0.2037 -1.2700
  104OSM   H14C10458   0.718   3.844   8.213  1.3071 -0.8052 -1.9533
  104OSM    C1310459   0.584   3.981   7.931  0.3174 -0.2924 -0.8436
  104OSM   H13A10460   0.511   4.042   7.981  2.9114  2.8705 -0.5867
  104OSM   H13B10461   0.540   3.949   7.837 -1.6211 -1.1976  0.2992
  104OSM   H13C10462   0.672   4.039   7.905  1.7648 -2.1361 -0.2950
  104OSM    C1210463   0.503   3.771   8.033 -0.4093 -0.8851 -0.1003
  104OSM   H12A10464   0.462   3.736   7.939 -0.7272 -3.1159  0.8145
  104OSM   H12B10465   0.420   3.825   8.077  0.2621 -0.2318  0.3930
  104OSM    C1110466   0.535   3.637   8.106  0.0260 -0.2963  0.3052
  104OSM   H11A10467   0.433   3.602   8.131 -0.1048 -1.0007 -1.1534
  104OSM   H11B10468   0.592   3.668   8.197 -0.3704  0.7718  0.2060
  104OSM      P10469   0.598   3.406   7.997  0.0615  0.5408  0.0022
  104OSM    O1310470   0.712   3.348   7.926 -0.7623 -0.6542  0.4089
  104OSM    O1410471   0.556   3.342   8.124 -0.2529  0.1444 -0.0771
  104OSM    O1110472   0.471   3.423   7.901 -0.1487 -0.4211  0.0782
  104OSM    O1210473   0.615   3.554   8.026 -0.0947  0.1018 -0.2706
  104OSM    C1S10474   0.490   3.423   7.762 -0.2280 -0.1966  0.0026
  104OSM    H1S10475   0.531   3.324   7.731  1.1557  0.3807 -0.0950
  104OSM    H1T10476   0.551   3.509   7.728 -1.5206  0.4881 -0.6885
  104OSM     NF10477   0.362   3.423   7.533 -0.1658  0.7772  0.8934
  104OSM    HNF10478   0.364   3.507   7.479 -0.6681  0.6551  0.6876
  104OSM    C2S10479   0.351   3.442   7.678  0.0076 -0.3718 -0.3723
  104OSM    H2S10480   0.279   3.363   7.711 -1.0341  2.3381  4.7885
  104OSM    C3S10481   0.282   3.572   7.716 -0.0834 -0.4601 -0.0678
  104OSM    H3S10482   0.349   3.649   7.671  2.0718 -0.1160  3.3587
  104OSM     O310483   0.280   3.608   7.858  0.4977 -0.7315  0.2412
  104OSM    HO310484   0.353   3.554   7.889  0.8260 -0.1745  0.4613
  104OSM    C4S10485   0.151   3.582   7.647  0.2389  0.2465 -0.9630
  104OSM    H4S10486   0.156   3.610   7.541 -0.5918 -0.1871 -1.1240
  104OSM    C5S10487   0.034   3.556   7.705  0.1585 -0.0478 -0.3025
  104OSM    H5S10488   0.041   3.522   7.809  0.7931  1.2952  0.1173
  104OSM    C6S10489  -0.096   3.544   7.640  0.4305 -0.9327  0.5029
  104OSM    H6S10490  -0.167   3.626   7.664  0.7056 -0.8083  0.9095
  104OSM    H6T10491  -0.150   3.453   7.674 -0.1745 -0.9220 -0.3988
  104OSM    C7S10492  -0.091   3.548   7.488 -0.3968  0.7105  0.1709
  104OSM    H7S10493  -0.036   3.641   7.467  0.4110  0.1191 -0.3678
  104OSM    H7T10494  -0.197   3.553   7.453 -1.0616 -1.4109  1.6111
  104OSM    C8S10495  -0.028   3.420   7.425 -0.4731 -0.6006 -0.0722
  104OSM    H8S10496  -0.085   3.333   7.464 -2.8777  0.3827 -1.2246
  104OSM    H8T10497   0.075   3.403   7.465 -0.2748 -0.7477 -0.6319
  104OSM    C9S10498  -0.030   3.417   7.266 -0.0322  0.0042  0.0584
  104OSM    H9S10499   0.010   3.511   7.221  0.6320 -1.2800 -2.2116
  104OSM    H9T10500  -0.138   3.412   7.240 -0.4483 -1.4385  1.9076
  104OSM   C10S10501   0.044   3.304   7.204 -0.0316 -0.3628 -0.3958
  104OSM   H10S10502   0.006   3.206   7.240  1.3899 -1.1050 -0.8650
  104OSM   H10T10503   0.146   3.309   7.246 -0.1592 -3.1848  0.4689
  104OSM   C11S10504   0.031   3.312   7.053  0.5094  0.8050 -0.4204
  104OSM   H11S10505   0.098   3.393   7.018 -0.5551  0.3976 -3.6918
  104OSM   H11T10506  -0.073   3.334   7.019 -0.1549 -1.8858 -0.3565
  104OSM   C12S10507   0.071   3.183   6.984  0.2224 -0.1076  0.3758
  104OSM   H12S10508  -0.004   3.107   7.014  0.3396  0.2585  1.6554
  104OSM   H12T10509   0.167   3.135   7.014  0.9450  2.2302  2.0877
  104OSM   C13S10510   0.085   3.190   6.832 -0.3367 -0.2267  0.1178
  104OSM   H13S10511   0.155   3.276   6.824  0.7412 -1.0871  0.1259
  104OSM   H13T10512  -0.017   3.215   6.794 -0.5265 -1.7005 -0.3960
  104OSM   C14S10513   0.136   3.065   6.768 -0.6547  0.1209  0.1964
  104OSM   H14S10514   0.075   2.982   6.810 -0.0741 -0.3500  0.1265
  104OSM   H14T10515   0.240   3.041   6.799 -0.0992  3.0018  0.8541
  104OSM   C15S10516   0.125   3.069   6.615 -0.5707 -0.6075 -0.2287
  104OSM   H15S10517   0.018   3.084   6.586 -0.7407  0.2951  0.7630
  104OSM   H15T10518   0.162   2.969   6.586  1.9107  0.5598 -1.4001
  104OSM   C16S10519   0.225   3.173   6.561  0.1046  0.1924  0.0299
  104OSM   H16S10520   0.325   3.131   6.588 -0.7731 -1.4546  0.8548
  104OSM   H16T10521   0.209   3.270   6.612 -1.2480  0.4707 -0.8817
  104OSM   C17S10522   0.230   3.196   6.409  0.5702 -0.3258 -0.1988
  104OSM   H17S10523   0.229   3.099   6.355 -0.9712  1.0181 -2.7783
  104OSM   H17T10524   0.321   3.258   6.394  0.0665  0.3787 -0.3894
  104OSM   C18S10525   0.115   3.280   6.349 -0.9051  1.1503 -0.4360
  104OSM   H18S10526   0.124   3.379   6.398  0.8214  1.7872 -1.9471
  104OSM   H18T10527   0.020   3.223   6.362 -0.6318  0.0086 -2.8086
  104OSM   H18U10528   0.144   3.272   6.242 -1.1381 -0.9335 -0.3883
  104OSM    C1F10529   0.398   3.306   7.483  0.1961  0.5509 -0.0504
  104OSM     OF10530   0.391   3.206   7.555 -0.0676  0.3460  0.1821
  104OSM    C2F10531   0.440   3.296   7.340 -0.2575 -0.0469  0.6072
  104OSM    H2F10532   0.542   3.337   7.326  0.1696 -0.5313  2.0684
  104OSM    H2G10533   0.371   3.371   7.296 -1.2945 -0.1637  1.9529
  104OSM    C3F10534   0.413   3.160   7.272 -0.2474  1.0064  0.5520
  104OSM    H3F10535   0.312   3.125   7.301  0.2048 -0.0404  0.9138
  104OSM    H3G10536   0.480   3.079   7.308 -2.4607 -3.1029 -3.4566
  104OSM    C4F10537   0.414   3.163   7.116  0.0458 -0.4620  0.4835
  104OSM    H4F10538   0.333   3.235   7.093  0.6256  0.8771  2.4306
  104OSM    H4G10539   0.395   3.060   7.077  0.1980 -1.1328  2.0925
  104OSM    C5F10540   0.553   3.210   7.063  0.0057  0.5654  0.6998
  104OSM    H5F10541   0.629   3.147   7.115  0.0479 -0.4581 -0.5622
  104OSM    H5G10542   0.565   3.312   7.104  0.0710  0.1286  1.8030
  104OSM    C6F10543   0.567   3.176   6.909  0.6502 -0.0947  0.0903
  104OSM    H6F10544   0.477   3.218   6.860  0.9546 -0.3936 -0.7385
  104OSM    H6G10545   0.551   3.067   6.894  0.0705 -0.0315  0.2017
  104OSM    C7F10546   0.696   3.218   6.839 -0.3732 -0.6419  0.9206
  104OSM    H7F10547   0.785   3.189   6.900 -0.9951 -0.9447  1.7079
  104OSM    H7G10548   0.701   3.329   6.842  0.5772 -0.5902 -0.9734
  104OSM    C8F10549   0.700   3.186   6.687  0.1167 -0.1089  0.3457
  104OSM    H8F10550   0.601   3.220   6.651 -0.1709 -3.0269 -1.9549
  104OSM    H8G10551   0.701   3.077   6.671  0.6422 -0.1428  0.5966
  104OSM    C9F10552   0.819   3.255   6.629 -0.8088 -0.4214  0.2577
  104OSM    H9F10553   0.916   3.230   6.676 -0.7238 -1.8151 -0.5865
  104OSM   C10F10554   0.824   3.330   6.521 -0.4070  0.2409  0.6296
  104OSM   H10F10555   0.916   3.384   6.496 -1.1267  0.7436 -1.0558
  104OSM   C11F10556   0.712   3.368   6.426 -0.4005  0.0691  0.0420
  104OSM   H11F10557   0.711   3.479   6.424  0.4560  0.1007  0.7226
  104OSM   H11G10558   0.613   3.336   6.465 -1.8189  2.0253 -1.7673
  104OSM   C12F10559   0.744   3.316   6.285 -0.7014  0.2717  0.3871
  104OSM   H12F10560   0.760   3.206   6.290  1.0577  0.3506 -1.9913
  104OSM   H12G10561   0.839   3.357   6.243 -0.0640 -0.5373  0.9999
  104OSM   C13F10562   0.635   3.354   6.185  0.1604  0.3224  0.2683
  104OSM   H13F10563   0.621   3.464   6.184  0.6910  0.4434  1.9976
  104OSM   H13G10564   0.542   3.319   6.236  0.8736 -0.2801  1.1830
  104OSM   C14F10565   0.659   3.291   6.042 -0.3937 -0.4708 -0.2463
  104OSM   H14F10566   0.653   3.182   6.062  2.0285 -0.4069  1.2313
  104OSM   H14G10567   0.764   3.306   6.008  0.7799 -1.0212  2.7843
  104OSM   C15F10568   0.554   3.330   5.940 -0.2471  0.6643  0.3961
  104OSM   H15F10569   0.603   3.320   5.840 -1.3991  4.1057 -0.6381
  104OSM   H15G10570   0.529   3.438   5.943  0.9683  0.9964 -0.4637
  104OSM   C16F10571   0.430   3.237   5.950 -0.1136 -0.4339 -0.6174
  104OSM   H16F10572   0.419   3.232   6.061  0.6097  0.5905 -0.4873
  104OSM   H16G10573   0.450   3.133   5.916 -1.5104 -1.2481  0.8802
  104OSM   C17F10574   0.303   3.295   5.882 -0.7853  0.0031  0.0222
  104OSM   H17F10575   0.259   3.378   5.941 -0.4459 -0.6313  1.2002
  104OSM   H17G10576   0.227   3.214   5.882 -1.4343  0.6057 -0.2780
  104OSM   C18F10577   0.338   3.341   5.738  0.3604 -0.4966 -1.3060
  104OSM   H18F10578   0.252   3.378   5.678  0.0538 -1.7781 -1.6895
  104OSM   H18G10579   0.397   3.258   5.693  0.3279 -1.7266  0.7954
  104OSM   H18H10580   0.399   3.433   5.749 -0.0540 -0.3312 -0.3219
  105OSM      N10581   1.793   5.544   8.574  0.1688 -0.0031 -0.2389
  105OSM    C1510582   1.773   5.401   8.618  0.6085  0.0684 -0.2459
  105OSM   H15A10583   1.718   5.405   8.711 -0.6056 -0.6910 -0.9025
  105OSM   H15B10584   1.871   5.355   8.624  0.7699  0.3122 -0.9026
  105OSM   H15C10585   1.705   5.345   8.555  0.4253 -0.3258  0.2946
  105OSM    C1410586   1.679   5.631   8.611 -0.2332  0.2642 -0.3092
  105OSM   H14A10587   1.587   5.596   8.567 -1.0413  0.7459  0.9584
  105OSM   H14B10588   1.701   5.731   8.577  2.4392 -0.0596  0.2376
  105OSM   H14C10589   1.662   5.636   8.717 -0.6610  0.1723 -0.3702
  105OSM    C1310590   1.912   5.598   8.646  0.1737 -0.4661  0.1444
  105OSM   H13A10591   1.880   5.625   8.745  0.8637 -1.1343  0.5649
  105OSM   H13B10592   1.947   5.685   8.593 -1.5587 -0.8398 -1.7395
  105OSM   H13C10593   1.990   5.524   8.644  0.0916 -0.5488 -0.0967
  105OSM    C1210594   1.813   5.541   8.423 -0.5214  0.1200  0.5737
  105OSM   H12A10595   1.742   5.468   8.387 -0.3480  0.3305 -0.2018
  105OSM   H12B10596   1.907   5.491   8.405 -0.2692  0.5716  0.6161
  105OSM    C1110597   1.816   5.677   8.343 -0.0108  0.4077 -0.1009
  105OSM   H11A10598   1.709   5.702   8.363  0.4270  1.1217  1.5142
  105OSM   H11B10599   1.829   5.658   8.234  0.5970  0.3665 -0.0230
  105OSM      P10600   1.861   5.918   8.441 -0.0148 -0.1155  0.4584
  105OSM    O1310601   1.725   5.906   8.497  0.1950 -0.3172 -0.2473
  105OSM    O1410602   1.973   5.977   8.522 -0.1431 -0.4590 -0.8688
  105OSM    O1110603   1.858   6.004   8.308  0.1824 -1.0941 -0.4668
  105OSM    O1210604   1.908   5.773   8.393 -0.0016  0.3422 -0.5181
  105OSM    C1S10605   1.749   5.978   8.216  0.1915 -0.3884 -0.4991
  105OSM    H1S10606   1.652   6.011   8.260 -0.4471 -2.4322 -0.2689
  105OSM    H1T10607   1.736   5.871   8.190 -1.5935 -0.6561  1.2323
  105OSM     NF10608   1.657   6.043   8.004 -0.1970 -0.2157  0.3312
  105OSM    HNF10609   1.665   5.981   7.926  0.9507  2.2785 -1.6517
  105OSM    C2S10610   1.774   6.051   8.084 -0.8401  0.0398 -0.2380
  105OSM    H2S10611   1.798   6.156   8.112  1.6616 -1.0607  2.3750
  105OSM    C3S10612   1.907   5.998   8.023 -0.0026 -0.8007  0.5782
  105OSM    H3S10613   1.914   5.889   8.003  0.5866 -0.3586 -1.8446
  105OSM     O310614   2.023   6.015   8.106 -0.1683 -0.5993  0.3219
  105OSM    HO310615   1.992   6.015   8.196 -0.7389 -1.6538  0.1388
  105OSM    C4S10616   1.921   6.051   7.885 -0.0936  0.4991  0.6563
  105OSM    H4S10617   1.982   6.142   7.883  2.7752 -1.2868  0.6483
  105OSM    C5S10618   1.900   5.984   7.766  0.4114  0.3722 -0.2567
  105OSM    H5S10619   1.864   5.881   7.753  1.7413  0.0425 -1.7018
  105OSM    C6S10620   1.954   6.037   7.634 -0.1029 -1.2137 -0.7149
  105OSM    H6S10621   2.043   5.983   7.594  0.5726 -0.8855  0.3009
  105OSM    H6T10622   1.995   6.139   7.651  2.0727 -2.0904 -0.2722
  105OSM    C7S10623   1.846   6.048   7.519 -0.0283 -0.2042  0.4585
  105OSM    H7S10624   1.785   6.137   7.547 -0.8866 -1.2875  2.1983
  105OSM    H7T10625   1.775   5.963   7.527 -0.5705  0.0590 -1.1636
  105OSM    C8S10626   1.904   6.064   7.374  0.2814 -0.1398 -0.1380
  105OSM    H8S10627   1.955   5.972   7.337  1.1625  0.9527 -1.7808
  105OSM    H8T10628   1.988   6.137   7.376  1.4102 -1.2832 -2.1041
  105OSM    C9S10629   1.798   6.114   7.276 -0.0162 -0.0585 -0.3246
  105OSM    H9S10630   1.756   6.208   7.319 -1.3292 -1.1862  0.9233
  105OSM    H9T10631   1.716   6.041   7.261  1.4439 -2.1130  1.1481
  105OSM   C10S10632   1.844   6.155   7.136 -0.2987  0.3870 -0.1079
  105OSM   H10S10633   1.889   6.062   7.097 -1.0222  1.0616 -2.7186
  105OSM   H10T10634   1.935   6.220   7.133 -1.3608  1.9038 -1.8374
  105OSM   C11S10635   1.734   6.202   7.050  0.7159 -0.5938  0.7021
  105OSM   H11S10636   1.715   6.309   7.073 -1.8827 -0.0593 -3.0046
  105OSM   H11T10637   1.638   6.148   7.063 -0.4543  1.1234 -0.2662
  105OSM   C12S10638   1.761   6.202   6.902 -0.1555  0.5968  0.5734
  105OSM   H12S10639   1.664   6.201   6.847 -0.7535  1.8683  1.5506
  105OSM   H12T10640   1.822   6.117   6.865  0.4584  2.0227 -1.9501
  105OSM   C13S10641   1.835   6.328   6.856  0.1905 -0.6324  0.0070
  105OSM   H13S10642   1.932   6.321   6.910  1.6338  1.3464 -2.1457
  105OSM   H13T10643   1.784   6.422   6.882 -0.1852 -0.5851 -0.8631
  105OSM   C14S10644   1.874   6.335   6.706  0.3678  0.0318 -0.2608
  105OSM   H14S10645   1.790   6.335   6.633  0.8358  0.5220 -0.8114
  105OSM   H14T10646   1.922   6.240   6.675  0.7406 -0.4575  1.7018
  105OSM   C15S10647   1.958   6.467   6.662  0.7138  0.6606 -0.2669
  105OSM   H15S10648   1.897   6.559   6.673 -0.0147 -0.0073  1.7248
  105OSM   H15T10649   1.972   6.455   6.552  0.4230 -2.4900 -0.0505
  105OSM   C16S10650   2.088   6.476   6.741 -0.6732 -0.1794  0.0905
  105OSM   H16S10651   2.133   6.377   6.723 -3.3471 -1.4280 -0.1758
  105OSM   H16T10652   2.073   6.487   6.850  1.4818  0.0702  0.4002
  105OSM   C17S10653   2.180   6.596   6.690 -0.4134  0.2528  0.8263
  105OSM   H17S10654   2.284   6.586   6.727  0.4853 -0.5072 -1.6893
  105OSM   H17T10655   2.133   6.690   6.724 -1.8634 -0.2846  0.3814
  105OSM   C18S10656   2.190   6.616   6.533 -0.0752  0.2779  0.0408
  105OSM   H18S10657   2.085   6.637   6.503 -0.2471  1.0765  1.1279
  105OSM   H18T10658   2.212   6.515   6.492  2.0197  0.7468 -0.0951
  105OSM   H18U10659   2.258   6.700   6.505  0.7396 -0.0981  0.8606
  105OSM    C1F10660   1.546   6.115   8.021  0.2321  0.3860 -0.1018
  105OSM     OF10661   1.513   6.165   8.128  0.0754  0.0761 -0.3397
  105OSM    C2F10662   1.453   6.144   7.902 -0.0682  0.1963  0.4140
  105OSM    H2F10663   1.371   6.070   7.916  0.6161 -0.4776  0.9352
  105OSM    H2G10664   1.512   6.116   7.812 -0.6770  2.0437 -0.6260
  105OSM    C3F10665   1.406   6.287   7.884  0.1433 -0.3285  0.0862
  105OSM    H3F10666   1.494   6.353   7.893 -0.9358  1.0835  0.7126
  105OSM    H3G10667   1.342   6.305   7.974  0.9990 -0.2062  0.6781
  105OSM    C4F10668   1.345   6.300   7.742  0.0094 -0.7667 -0.2373
  105OSM    H4F10669   1.292   6.398   7.735 -2.1339 -1.5992  2.3492
  105OSM    H4G10670   1.264   6.228   7.720 -1.5545  1.0935 -0.8678
  105OSM    C5F10671   1.442   6.303   7.624  0.3473 -0.1212 -0.2809
  105OSM    H5F10672   1.498   6.207   7.616  0.4023 -0.1660  0.5829
  105OSM    H5G10673   1.523   6.378   7.628  1.8900 -1.6037 -1.8074
  105OSM    C6F10674   1.365   6.335   7.493  0.4338  0.7665 -0.1181
  105OSM    H6F10675   1.304   6.427   7.503 -1.0798 -0.2977  0.6897
  105OSM    H6G10676   1.299   6.246   7.492 -1.4726  2.1101 -0.3652
  105OSM    C7F10677   1.445   6.348   7.359 -0.1237 -0.4319  0.7457
  105OSM    H7F10678   1.490   6.247   7.350  1.5973  0.4437 -1.1155
  105OSM    H7G10679   1.519   6.429   7.345 -0.7858 -0.0424 -0.6430
  105OSM    C8F10680   1.348   6.373   7.241 -0.4352 -1.0126  0.6616
  105OSM    H8F10681   1.344   6.483   7.227  1.1068 -1.0993 -0.7993
  105OSM    H8G10682   1.245   6.335   7.258 -0.9091  0.5540  1.5797
  105OSM    C9F10683   1.406   6.306   7.118 -0.0380  0.7300 -0.7553
  105OSM    H9F10684   1.444   6.205   7.135  0.3094  0.8615 -0.7515
  105OSM   C10F10685   1.422   6.355   6.992  0.3063 -0.5018 -0.5835
  105OSM   H10F10686   1.471   6.299   6.911  0.2404  1.2182 -1.8674
  105OSM   C11F10687   1.372   6.495   6.954 -0.7267  0.3407 -0.0161
  105OSM   H11F10688   1.456   6.542   6.898  1.2540 -1.8837  0.9313
  105OSM   H11G10689   1.348   6.560   7.041  0.3494  1.4050 -0.4852
  105OSM   C12F10690   1.255   6.503   6.855 -0.2076 -0.4192  0.2026
  105OSM   H12F10691   1.164   6.464   6.906 -1.1519  1.6131  0.1583
  105OSM   H12G10692   1.279   6.432   6.773 -2.1089  0.1597 -0.9141
  105OSM   C13F10693   1.219   6.636   6.810 -0.1276 -0.1047  0.0163
  105OSM   H13F10694   1.303   6.684   6.755  1.8343  1.5214  4.0668
  105OSM   H13G10695   1.192   6.709   6.889 -0.9632 -1.6961  1.2506
  105OSM   C14F10696   1.095   6.638   6.717  0.1678  0.1488 -0.5871
  105OSM   H14F10697   1.000   6.619   6.771 -1.4818  2.3094 -2.5654
  105OSM   H14G10698   1.118   6.579   6.626  0.1044  0.5916 -0.8915
  105OSM   C15F10699   1.060   6.782   6.664  1.1109  0.5075  0.3906
  105OSM   H15F10700   1.040   6.848   6.752  0.8219 -1.2489  1.7086
  105OSM   H15G10701   0.968   6.789   6.602  1.1067 -0.8246  0.2280
  105OSM   C16F10702   1.164   6.843   6.565  0.1829 -0.2617  0.2162
  105OSM   H16F10703   1.185   6.762   6.492 -1.3878  0.6603 -1.3424
  105OSM   H16G10704   1.259   6.873   6.614  0.9502  1.1631 -1.9896
  105OSM   C17F10705   1.094   6.952   6.490  0.3556  0.1970 -0.2089
  105OSM   H17F10706   1.048   7.019   6.565 -0.1505 -0.2433 -0.1161
  105OSM   H17G10707   1.007   6.899   6.445 -0.7598  0.2884  1.7274
  105OSM   C18F10708   1.175   7.028   6.382  0.0713  0.5184 -0.5776
  105OSM   H18F10709   1.125   7.116   6.337  0.0089  0.9892  0.3933
  105OSM   H18G10710   1.197   6.962   6.295 -4.4449 -1.0196 -0.8210
  105OSM   H18H10711   1.266   7.063   6.435 -0.9991  1.5690  0.6399
  106OSM      N10712   2.024   2.628   0.086 -0.4444 -0.3094 -0.2652
  106OSM    C1510713   2.043   2.589   0.236 -0.3360 -0.3958  0.3223
  106OSM   H15A10714   2.089   2.493   0.253  2.2156  0.9690  1.6490
  106OSM   H15B10715   1.952   2.604   0.292  0.0441  3.6697  0.1189
  106OSM   H15C10716   2.109   2.663   0.278 -1.8495  0.8006  0.6726
  106OSM    C1410717   2.154   2.616   0.015  0.0424  0.1250  0.6703
  106OSM   H14A10718   2.134   2.624  -0.091 -2.5536 -0.8944  0.9986
  106OSM   H14B10719   2.183   2.512   0.018 -0.4888 -0.0249  0.7968
  106OSM   H14C10720   2.221   2.695   0.044 -1.1411  1.3504  0.2025
  106OSM    C1310721   1.923   2.537   0.031  0.3923  0.4001  0.3280
  106OSM   H13A10722   1.970   2.439   0.028 -0.7971 -0.1938  0.5087
  106OSM   H13B10723   1.899   2.551  -0.074 -2.1900 -1.7867  0.5153
  106OSM   H13C10724   1.833   2.525   0.089 -0.2234  0.4772 -0.5968
  106OSM    C1210725   1.976   2.771   0.080  0.3429 -0.2718 -0.5398
  106OSM   H12A10726   2.031   2.834   0.148  0.8071 -0.8462 -0.3751
  106OSM   H12B10727   1.870   2.770   0.101  0.0832  0.9088 -1.6801
  106OSM    C1110728   1.987   2.828  -0.060  0.3163 -0.4556  0.3243
  106OSM   H11A10729   2.091   2.832  -0.101 -0.8260 -0.5208 -2.8327
  106OSM   H11B10730   1.956   2.935  -0.061  0.5391 -0.3853  0.8604
  106OSM      P10731   1.762   2.802  -0.201 -0.0676 -0.4791  0.2994
  106OSM    O1310732   1.691   2.691  -0.269  0.2690 -0.0900 -0.6894
  106OSM    O1410733   1.685   2.852  -0.086 -0.3620 -0.0138 -0.1782
  106OSM    O1110734   1.793   2.926  -0.295 -0.8139 -0.3551 -0.3871
  106OSM    O1210735   1.904   2.762  -0.157  1.0833 -0.2047 -0.6137
  106OSM    C1S10736   1.900   2.922  -0.390  0.2876 -0.3495 -0.4060
  106OSM    H1S10737   1.982   2.857  -0.353  2.1338  0.8483 -2.1796
  106OSM    H1T10738   1.941   3.025  -0.393 -0.8209  0.1248  0.1828
  106OSM     NF10739   1.949   2.791  -0.605  0.3017 -0.1042 -0.1846
  106OSM    HNF10740   1.984   2.823  -0.693 -0.9423 -0.6745 -0.9239
  106OSM    C2S10741   1.858   2.880  -0.538  0.5542 -0.0230 -0.3063
  106OSM    H2S10742   1.763   2.824  -0.521 -0.2813  1.1726 -0.9124
  106OSM    C3S10743   1.818   3.006  -0.619  0.6857 -0.4481 -0.9255
  106OSM    H3S10744   1.905   3.075  -0.627  2.1809 -2.4018 -2.2364
  106OSM     O310745   1.711   3.077  -0.547 -0.5900 -0.7547  0.0560
  106OSM    HO310746   1.715   3.037  -0.461  3.8406 -0.5816  0.1848
  106OSM    C4S10747   1.766   2.987  -0.753  0.4609  1.1723 -0.1115
  106OSM    H4S10748   1.659   2.962  -0.754  0.4651  0.9740  1.3877
  106OSM    C5S10749   1.839   3.011  -0.863 -0.0520  0.7193  0.3682
  106OSM    H5S10750   1.941   3.052  -0.850  0.0600  0.6373 -0.1877
  106OSM    C6S10751   1.780   3.008  -1.000 -0.1290  0.0476  0.2879
  106OSM    H6S10752   1.777   3.114  -1.034 -0.1559  1.2858  3.6960
  106OSM    H6T10753   1.675   2.972  -1.000 -0.3329  0.5162  2.4778
  106OSM    C7S10754   1.862   2.927  -1.094  0.1751 -0.2867  0.1261
  106OSM    H7S10755   1.877   2.824  -1.055  0.6762  0.1038  0.9892
  106OSM    H7T10756   1.959   2.981  -1.089 -0.2683  0.4510  0.9415
  106OSM    C8S10757   1.819   2.940  -1.239 -0.3509  0.3687 -0.1218
  106OSM    H8S10758   1.803   3.048  -1.260 -1.9891  0.1162 -0.3074
  106OSM    H8T10759   1.723   2.886  -1.255 -1.3830  2.3069 -0.8549
  106OSM    C9S10760   1.935   2.908  -1.340 -0.7739  0.4137 -0.2483
  106OSM    H9S10761   1.961   2.801  -1.325  0.6947  1.0729  2.7812
  106OSM    H9T10762   2.033   2.957  -1.320 -0.0879 -0.8986 -0.2420
  106OSM   C10S10763   1.883   2.924  -1.481 -0.4663  0.3866  0.1137
  106OSM   H10S10764   1.866   3.033  -1.489  2.7246  0.9097 -1.2742
  106OSM   H10T10765   1.786   2.871  -1.489  0.0249 -0.8616  1.7350
  106OSM   C11S10766   1.984   2.877  -1.585 -0.3182  0.9195  0.2051
  106OSM   H11S10767   2.000   2.768  -1.571 -0.6230  0.7625 -0.5860
  106OSM   H11T10768   2.082   2.928  -1.572 -0.3134  0.4895  2.0519
  106OSM   C12S10769   1.925   2.895  -1.727 -0.2883  0.2750  0.2160
  106OSM   H12S10770   1.898   3.000  -1.753 -0.5493  0.6551  1.8962
  106OSM   H12T10771   1.841   2.826  -1.747  0.9778 -0.9905 -0.9829
  106OSM   C13S10772   2.018   2.845  -1.838 -0.0363 -0.4935 -0.1923
  106OSM   H13S10773   2.018   2.736  -1.815 -0.6536 -0.6914 -1.0843
  106OSM   H13T10774   2.123   2.880  -1.829 -0.1217 -0.2939  0.0217
  106OSM   C14S10775   1.972   2.863  -1.984  0.3528  0.4705 -0.3990
  106OSM   H14S10776   1.979   2.968  -2.020 -0.7044 -0.3900 -3.4897
  106OSM   H14T10777   1.863   2.842  -1.989 -0.3279  0.7290  5.8889
  106OSM   C15S10778   2.048   2.776  -2.089 -0.0723  0.4411  0.3922
  106OSM   H15S10779   2.068   2.673  -2.050 -0.5792 -0.3576 -1.3756
  106OSM   H15T10780   2.146   2.826  -2.108  0.2780 -0.4882 -0.3183
  106OSM   C16S10781   1.980   2.782  -2.226  0.2460  0.1082  0.4527
  106OSM   H16S10782   1.984   2.890  -2.251 -0.6265 -0.0524 -0.4551
  106OSM   H16T10783   1.871   2.759  -2.215  0.0395  0.5503 -0.5646
  106OSM   C17S10784   2.056   2.709  -2.335 -0.2645  0.5481  0.0072
  106OSM   H17S10785   2.160   2.750  -2.336 -0.0511  0.0152 -0.8335
  106OSM   H17T10786   2.013   2.735  -2.434 -0.5168 -1.2173 -0.3846
  106OSM   C18S10787   2.073   2.558  -2.312  0.1555  0.8029 -0.5731
  106OSM   H18S10788   2.145   2.537  -2.230  0.0427  0.6234 -0.5219
  106OSM   H18T10789   2.122   2.507  -2.397  1.5257  0.9600  0.0902
  106OSM   H18U10790   1.981   2.508  -2.275  0.8218  1.8658  2.9099
  106OSM    C1F10791   1.984   2.675  -0.551  0.2483  0.3079 -0.0680
  106OSM     OF10792   1.937   2.631  -0.442 -0.2766  0.1593  0.2748
  106OSM    C2F10793   2.080   2.592  -0.633  0.1817  0.1095  0.2210
  106OSM    H2F10794   2.179   2.638  -0.613  0.3980 -0.6486  0.9407
  106OSM    H2G10795   2.042   2.599  -0.737 -0.8029 -0.5434  0.5237
  106OSM    C3F10796   2.090   2.438  -0.600  0.5334  0.3032 -0.1351
  106OSM    H3F10797   1.994   2.383  -0.605  0.7875 -0.0444 -2.7201
  106OSM    H3G10798   2.128   2.425  -0.496 -1.1104 -2.9157  0.1959
  106OSM    C4F10799   2.191   2.364  -0.688  0.0092  0.4186  0.2008
  106OSM    H4F10800   2.171   2.397  -0.792 -0.9616  2.4127  0.9554
  106OSM    H4G10801   2.164   2.257  -0.678 -2.7834  1.0185 -0.0333
  106OSM    C5F10802   2.333   2.383  -0.636 -0.1932  0.0519 -0.2123
  106OSM    H5F10803   2.348   2.350  -0.530  1.2293  0.2556 -0.3353
  106OSM    H5G10804   2.376   2.486  -0.633 -0.7060  0.3019 -1.0946
  106OSM    C6F10805   2.427   2.305  -0.734  0.0736 -0.1262 -0.2451
  106OSM    H6F10806   2.379   2.215  -0.776 -1.2748  0.6892 -0.5203
  106OSM    H6G10807   2.517   2.262  -0.686  0.9443  1.5070 -0.3182
  106OSM    C7F10808   2.477   2.390  -0.847  0.3031 -0.4313 -0.0053
  106OSM    H7F10809   2.507   2.492  -0.814 -1.0181 -0.1414  0.3624
  106OSM    H7G10810   2.400   2.399  -0.927  2.3304  2.2891 -1.8303
  106OSM    C8F10811   2.599   2.342  -0.934 -0.3066 -0.7595  0.0441
  106OSM    H8F10812   2.615   2.418  -1.013  2.4738 -0.5227  0.7165
  106OSM    H8G10813   2.566   2.245  -0.977 -0.8551  0.2589 -1.9082
  106OSM    C9F10814   2.719   2.322  -0.856 -0.9875 -0.2750 -0.6077
  106OSM    H9F10815   2.727   2.381  -0.763 -1.5168  1.8464 -1.8428
  106OSM   C10F10816   2.825   2.256  -0.901 -0.3435  0.4100 -1.1108
  106OSM   H10F10817   2.903   2.238  -0.825 -3.7087 -3.4860  1.9138
  106OSM   C11F10818   2.839   2.182  -1.032  0.3700 -0.1593 -0.2248
  106OSM   H11F10819   2.940   2.207  -1.070 -0.1077  0.9742 -0.8111
  106OSM   H11G10820   2.764   2.197  -1.113 -0.9628 -2.3609  0.5004
  106OSM   C12F10821   2.842   2.029  -1.018 -0.3514 -0.2346 -0.4796
  106OSM   H12F10822   2.738   1.989  -1.023 -1.1379  1.8561 -2.3883
  106OSM   H12G10823   2.886   2.001  -0.920  0.1042  1.4831 -0.1601
  106OSM   C13F10824   2.919   1.965  -1.132  0.3651  1.1474 -0.4264
  106OSM   H13F10825   2.898   1.856  -1.138  2.5715  0.6397  0.1755
  106OSM   H13G10826   3.028   1.965  -1.110 -0.2763 -2.2046  4.3034
  106OSM   C14F10827   2.870   2.008  -1.273 -0.2383  0.1555  0.6711
  106OSM   H14F10828   2.880   2.116  -1.294  2.6113 -0.4437 -1.7646
  106OSM   H14G10829   2.761   1.983  -1.279 -0.0701 -0.3239 -1.0948
  106OSM   C15F10830   2.949   1.959  -1.397  0.6961  0.1807  0.4907
  106OSM   H15F10831   2.958   1.850  -1.377 -1.1382 -0.3698 -1.3583
  106OSM   H15G10832   3.043   2.019  -1.394 -1.0449  3.0822  0.7153
  106OSM   C16F10833   2.874   1.992  -1.524 -0.1761  0.6461  0.1602
  106OSM   H16F10834   2.842   2.099  -1.529 -1.6385  0.3631  2.1872
  106OSM   H16G10835   2.777   1.941  -1.539  0.4778 -0.0660 -1.9734
  106OSM   C17F10836   2.947   1.963  -1.653 -0.1948  0.4656 -0.1365
  106OSM   H17F10837   2.982   1.857  -1.646 -0.2847  0.2727 -2.0787
  106OSM   H17G10838   3.032   2.034  -1.664 -0.2381  0.7682  1.2928
  106OSM   C18F10839   2.845   1.974  -1.767 -0.9393 -0.6483 -0.3090
  106OSM   H18F10840   2.799   2.074  -1.753  0.0626 -0.4358  1.7047
  106OSM   H18G10841   2.766   1.896  -1.753 -3.7394  1.9926 -0.3358
  106OSM   H18H10842   2.891   1.958  -1.867  0.6873 -0.2419  0.3488
  107OSM      N10843   2.088   0.060   0.061 -0.0713  0.3271 -0.0078
  107OSM    C1510844   2.113  -0.012  -0.071  0.1800 -0.7175  0.3041
  107OSM   H15A10845   2.026  -0.063  -0.109 -1.2634  2.6120 -1.2423
  107OSM   H15B10846   2.186  -0.091  -0.077 -0.7673 -1.6700  0.9255
  107OSM   H15C10847   2.134   0.057  -0.151 -0.6404 -0.9411 -0.1183
  107OSM    C1410848   2.037  -0.043   0.158 -0.3205 -0.3382 -0.1374
  107OSM   H14A10849   2.118  -0.112   0.174 -0.8283 -2.0019 -3.7130
  107OSM   H14B10850   1.968  -0.103   0.101 -1.6227 -0.4171  1.4463
  107OSM   H14C10851   1.990  -0.020   0.253  0.2782 -0.5218  0.2114
  107OSM    C1310852   2.228   0.107   0.104  0.6800  0.4635  0.1903
  107OSM   H13A10853   2.273   0.184   0.044  2.8406 -0.7537  0.1212
  107OSM   H13B10854   2.294   0.021   0.099 -0.8002 -0.6381 -1.5762
  107OSM   H13C10855   2.224   0.135   0.208 -0.4657 -1.2280  0.6556
  107OSM    C1210856   1.992   0.175   0.053 -0.3367  0.7151  0.1925
  107OSM   H12A10857   2.002   0.232   0.144  1.0205  1.6093 -0.4781
  107OSM   H12B10858   1.890   0.140   0.048 -0.2545  0.5335 -0.4172
  107OSM    C1110859   2.017   0.285  -0.057 -0.4577  0.1659  0.2713
  107OSM   H11A10860   2.021   0.239  -0.158 -1.8219  2.0176 -0.6788
  107OSM   H11B10861   2.113   0.338  -0.039 -0.6314  0.6686 -0.2709
  107OSM      P10862   1.886   0.517  -0.097 -0.1648 -0.0162 -0.1183
  107OSM    O1310863   1.743   0.541  -0.078  0.2911 -0.1803 -0.1691
  107OSM    O1410864   1.987   0.590  -0.010 -0.3837  0.1400 -0.2816
  107OSM    O1110865   1.920   0.520  -0.253  0.6406  0.6902  0.4430
  107OSM    O1210866   1.901   0.364  -0.066 -0.5770 -0.3441 -0.0103
  107OSM    C1S10867   1.855   0.422  -0.343  0.1272 -0.3621  0.5987
  107OSM    H1S10868   1.745   0.415  -0.328 -0.2746 -0.5246 -1.9960
  107OSM    H1T10869   1.895   0.320  -0.324  4.6671  0.5441 -2.4942
  107OSM     NF10870   1.808   0.379  -0.577  0.2552  0.6584  0.1722
  107OSM    HNF10871   1.844   0.304  -0.633 -5.6363 -2.8125  0.1798
  107OSM    C2S10872   1.894   0.459  -0.493 -0.1914  0.0431  0.8926
  107OSM    H2S10873   1.877   0.567  -0.513 -1.3964 -0.2326  0.3302
  107OSM    C3S10874   2.043   0.416  -0.512 -0.3560 -0.9584  1.0427
  107OSM    H3S10875   2.046   0.305  -0.509 -1.4921 -1.2209 -2.6538
  107OSM     O310876   2.135   0.468  -0.411  0.2229  0.4235  0.9107
  107OSM    HO310877   2.078   0.524  -0.358 -1.9103 -0.8137  0.1044
  107OSM    C4S10878   2.098   0.449  -0.648 -0.1169 -0.2614  0.3902
  107OSM    H4S10879   2.093   0.356  -0.707 -1.8173  0.0790 -0.0732
  107OSM    C5S10880   2.148   0.557  -0.703 -0.4197 -0.6056  0.0103
  107OSM    H5S10881   2.151   0.654  -0.651  0.2403 -0.5775 -0.0625
  107OSM    C6S10882   2.207   0.560  -0.845  0.3543 -0.0449 -0.7818
  107OSM    H6S10883   2.123   0.583  -0.913  0.0701  1.6833  0.1037
  107OSM    H6T10884   2.254   0.463  -0.873  0.3851  0.1376 -1.3615
  107OSM    C7S10885   2.313   0.671  -0.863  0.3152 -0.2443  0.0971
  107OSM    H7S10886   2.394   0.626  -0.802 -1.4973  0.4983  3.2342
  107OSM    H7T10887   2.287   0.765  -0.810 -0.6704 -1.2460  1.4685
  107OSM    C8S10888   2.349   0.711  -1.009 -0.1225 -0.5439 -0.1426
  107OSM    H8S10889   2.251   0.730  -1.058  0.3138 -0.6949 -1.1092
  107OSM    H8T10890   2.378   0.618  -1.062  1.4166 -0.1912  0.0357
  107OSM    C9S10891   2.449   0.829  -1.029 -0.3306 -0.1437 -0.1571
  107OSM    H9S10892   2.539   0.822  -0.965 -0.7479  0.3001  0.4841
  107OSM    H9T10893   2.402   0.923  -0.993  1.5587  0.3481  1.1863
  107OSM   C10S10894   2.490   0.845  -1.179  0.3224  0.0905 -0.3502
  107OSM   H10S10895   2.514   0.949  -1.207 -0.9827 -0.0366 -2.1177
  107OSM   H10T10896   2.393   0.835  -1.233 -0.8770  0.0366  1.7026
  107OSM   C11S10897   2.604   0.751  -1.218  1.4486 -0.2801 -0.1681
  107OSM   H11S10898   2.554   0.655  -1.242 -0.5212 -0.1467  2.8440
  107OSM   H11T10899   2.667   0.744  -1.127  2.3549 -1.1676 -0.8443
  107OSM   C12S10900   2.681   0.802  -1.337 -0.7656  0.7056  0.1715
  107OSM   H12S10901   2.729   0.899  -1.313  0.6630  0.2991 -0.8477
  107OSM   H12T10902   2.614   0.831  -1.421  0.0562 -0.6427 -1.0042
  107OSM   C13S10903   2.793   0.702  -1.394 -0.0598  0.1795  0.6037
  107OSM   H13S10904   2.836   0.747  -1.486 -2.8901  0.7559 -0.5484
  107OSM   H13T10905   2.751   0.600  -1.409  3.8595 -1.3875 -1.0461
  107OSM   C14S10906   2.913   0.680  -1.308 -0.4423  0.2552 -0.1044
  107OSM   H14S10907   2.879   0.655  -1.205  0.7501 -0.5837  0.1101
  107OSM   H14T10908   2.968   0.776  -1.306  0.9110 -0.4809 -0.3626
  107OSM   C15S10909   3.004   0.567  -1.357 -0.4043 -0.1857  0.6288
  107OSM   H15S10910   3.036   0.594  -1.460  2.5099  2.4064  2.0789
  107OSM   H15T10911   2.956   0.467  -1.369 -4.1202  1.6315 -1.5237
  107OSM   C16S10912   3.126   0.554  -1.268  0.0788 -0.6226 -0.3965
  107OSM   H16S10913   3.098   0.503  -1.174  0.9089 -0.9862 -0.3378
  107OSM   H16T10914   3.175   0.650  -1.243  0.0169  0.0509 -2.6579
  107OSM   C17S10915   3.226   0.477  -1.348 -0.2702  0.0207 -0.1366
  107OSM   H17S10916   3.282   0.548  -1.412  1.0965  0.8456  1.8623
  107OSM   H17T10917   3.167   0.413  -1.417 -3.3531  0.8391  1.5182
  107OSM   C18S10918   3.324   0.394  -1.256 -1.1055  0.7110 -0.2885
  107OSM   H18S10919   3.384   0.454  -1.184 -0.8996  1.1515 -0.8216
  107OSM   H18T10920   3.396   0.333  -1.316 -0.6351  1.1773 -0.2076
  107OSM   H18U10921   3.276   0.312  -1.198  1.7831 -1.9896 -1.3829
  107OSM    C1F10922   1.682   0.400  -0.598  0.2140 -0.7220 -0.6254
  107OSM     OF10923   1.614   0.476  -0.531  0.2653  0.0792 -0.2041
  107OSM    C2F10924   1.629   0.333  -0.725 -0.5882 -0.4648  0.6746
  107OSM    H2F10925   1.535   0.279  -0.701 -0.5426 -0.8523 -0.0033
  107OSM    H2G10926   1.703   0.264  -0.770 -2.9098 -0.5949 -3.3553
  107OSM    C3F10927   1.576   0.431  -0.841 -0.3044 -0.1040  0.5005
  107OSM    H3F10928   1.645   0.518  -0.847 -1.3778  0.6833 -0.8251
  107OSM    H3G10929   1.484   0.478  -0.801 -0.9024 -1.7090  1.0948
  107OSM    C4F10930   1.556   0.371  -0.978 -0.3692  0.4082  0.1051
  107OSM    H4F10931   1.509   0.442  -1.050  0.0020 -2.0399 -2.7294
  107OSM    H4G10932   1.482   0.290  -0.962 -0.0065  0.1804  0.6425
  107OSM    C5F10933   1.689   0.313  -1.030 -0.0527  0.6490  0.1316
  107OSM    H5F10934   1.708   0.227  -0.962  1.6699 -0.1043 -1.2086
  107OSM    H5G10935   1.776   0.382  -1.027  1.1837 -0.6531 -2.2254
  107OSM    C6F10936   1.689   0.252  -1.170  0.2759  0.0652  0.2693
  107OSM    H6F10937   1.600   0.186  -1.174  0.1928  0.1517  0.6880
  107OSM    H6G10938   1.776   0.193  -1.204 -0.4860 -1.5320  1.0026
  107OSM    C7F10939   1.668   0.363  -1.271  0.2292 -0.3111  0.7260
  107OSM    H7F10940   1.736   0.449  -1.254 -2.1853  2.3780 -2.1297
  107OSM    H7G10941   1.563   0.399  -1.265  0.0911 -0.8454  1.6057
  107OSM    C8F10942   1.701   0.318  -1.413  0.3967  0.1235  0.3728
  107OSM    H8F10943   1.644   0.223  -1.414  0.8016 -0.1320  1.0698
  107OSM    H8G10944   1.810   0.300  -1.425 -0.2885 -3.5875 -1.7947
  107OSM    C9F10945   1.640   0.415  -1.508 -0.2730 -0.4747  0.6880
  107OSM    H9F10946   1.545   0.451  -1.467 -0.0971 -0.9804  1.5523
  107OSM   C10F10947   1.699   0.478  -1.616  0.2887  0.3958  0.2770
  107OSM   H10F10948   1.638   0.552  -1.670 -0.2033 -1.3645 -1.7438
  107OSM   C11F10949   1.834   0.444  -1.659  0.4403 -0.0574  0.3763
  107OSM   H11F10950   1.836   0.367  -1.739 -1.0929 -0.8614  1.0811
  107OSM   H11G10951   1.894   0.403  -1.575  0.1011 -1.9329 -0.2412
  107OSM   C12F10952   1.922   0.561  -1.710  0.3194  0.1089 -1.0227
  107OSM   H12F10953   2.025   0.526  -1.730  0.9606  1.3157  0.0555
  107OSM   H12G10954   1.920   0.643  -1.635 -0.2150  0.4851 -1.4445
  107OSM   C13F10955   1.868   0.615  -1.845 -0.1994 -0.4131 -0.3761
  107OSM   H13F10956   1.774   0.559  -1.868 -2.0503  2.4528 -0.2115
  107OSM   H13G10957   1.949   0.608  -1.920  0.5120 -0.4928  0.3870
  107OSM   C14F10958   1.832   0.766  -1.832  0.1010 -0.2433  0.1888
  107OSM   H14F10959   1.776   0.785  -1.738 -1.3063  0.5599 -0.7720
  107OSM   H14G10960   1.771   0.795  -1.920 -1.2212 -3.4175 -0.0959
  107OSM   C15F10961   1.961   0.851  -1.815  0.1014  0.0593  1.1952
  107OSM   H15F10962   2.009   0.847  -1.915 -4.0291  0.3118 -1.0115
  107OSM   H15G10963   2.034   0.805  -1.745  2.1921  0.8029 -0.4051
  107OSM   C16F10964   1.920   0.993  -1.769 -0.3887  0.4836 -0.1348
  107OSM   H16F10965   1.843   0.983  -1.689 -0.9532  0.4731 -0.6713
  107OSM   H16G10966   1.873   1.056  -1.847 -0.2253  0.4639 -0.2473
  107OSM   C17F10967   2.044   1.063  -1.718 -0.4033 -0.2624 -0.2069
  107OSM   H17F10968   2.118   1.073  -1.800  0.6761 -1.6659  0.5505
  107OSM   H17G10969   2.090   1.005  -1.635  1.1333  1.4404  0.1838
  107OSM   C18F10970   2.017   1.206  -1.670 -0.6976  0.0818  0.6564
  107OSM   H18F10971   1.940   1.209  -1.591  0.4737 -3.8338  2.1774
  107OSM   H18G10972   1.984   1.261  -1.761 -0.2762 -0.6062  0.0728
  107OSM   H18H10973   2.108   1.249  -1.623 -1.1049 -0.1299  1.6561
  108OSM      N10974   5.098   6.291   8.203 -0.0040 -0.7309  0.3007
  108OSM    C1510975   5.131   6.436   8.202 -0.2224 -0.7787  0.7364
  108OSM   H15A10976   5.209   6.441   8.128  1.8722  1.8731  2.9012
  108OSM   H15B10977   5.170   6.484   8.290 -0.7892  2.3335 -0.5993
  108OSM   H15C10978   5.044   6.493   8.174  0.4554 -0.0015  0.1886
  108OSM    C1410979   5.223   6.214   8.227 -0.8938 -0.6834 -0.6673
  108OSM   H14A10980   5.205   6.108   8.236 -3.6616 -0.4025 -1.9316
  108OSM   H14B10981   5.253   6.236   8.329  0.8310 -1.8458 -0.8839
  108OSM   H14C10982   5.303   6.232   8.157 -0.5516  1.0687  0.1006
  108OSM    C1310983   4.999   6.268   8.319 -0.3569  0.1912  0.4413
  108OSM   H13A10984   4.976   6.162   8.313  0.2891  0.0648  0.1719
  108OSM   H13B10985   4.911   6.330   8.323 -0.2636  0.3104  0.6584
  108OSM   H13C10986   5.052   6.288   8.411 -1.2630  2.5063  0.5013
  108OSM    C1210987   5.049   6.238   8.070  0.6335 -0.4580  0.0062
  108OSM   H12A10988   5.014   6.138   8.091 -2.3185  0.8845  2.3177
  108OSM   H12B10989   5.134   6.227   8.005  1.5960  0.7524  1.0089
  108OSM    C1110990   4.929   6.309   7.999 -0.2752 -0.8780  0.3360
  108OSM   H11A10991   4.912   6.252   7.905 -1.1243 -1.2370  0.6960
  108OSM   H11B10992   4.961   6.414   7.980  0.4547 -0.9231  1.2508
  108OSM      P10993   4.731   6.447   8.098  0.1229 -0.0450  0.1720
  108OSM    O1310994   4.607   6.417   8.173  0.0345  0.1740 -0.1200
  108OSM    O1410995   4.822   6.545   8.156  0.0986  0.0612  0.1743
  108OSM    O1110996   4.691   6.482   7.949 -0.1850 -0.0902 -0.1774
  108OSM    O1210997   4.806   6.310   8.072  0.5772  1.0903  0.2273
  108OSM    C1S10998   4.633   6.377   7.876  0.4545  0.3172 -0.0271
  108OSM    H1S10999   4.531   6.362   7.917  0.5456 -0.6282 -0.1160
  108OSM    H1T11000   4.681   6.279   7.897 -0.7549 -0.0833  1.0240
  108OSM     NF11001   4.562   6.290   7.659 -0.7460  0.1171  0.1600
  108OSM    HNF11002   4.612   6.219   7.610 -1.4493  0.7038 -1.4704
  108OSM    C2S11003   4.629   6.403   7.722 -0.1821 -0.0426 -0.6526
  108OSM    H2S11004   4.565   6.493   7.712 -0.8383 -0.3842  0.3183
  108OSM    C3S11005   4.773   6.437   7.667 -0.4206 -0.6494 -0.1726
  108OSM    H3S11006   4.840   6.353   7.695 -0.1727 -0.5261 -0.3905
  108OSM     O311007   4.833   6.556   7.729  0.0382 -0.7475  0.4185
  108OSM    HO311008   4.789   6.564   7.814  0.5717 -1.0611  0.7332
  108OSM    C4S11009   4.776   6.451   7.519  0.5888 -0.1389 -0.5782
  108OSM    H4S11010   4.741   6.355   7.478 -1.8132 -0.4310  1.8475
  108OSM    C5S11011   4.754   6.563   7.454  0.7105 -0.1971  0.7388
  108OSM    H5S11012   4.722   6.655   7.505 -0.2906 -0.3514  0.4081
  108OSM    C6S11013   4.729   6.567   7.306 -0.8275  0.5489 -0.3145
  108OSM    H6S11014   4.802   6.501   7.253 -0.4468  0.3175  0.4810
  108OSM    H6T11015   4.754   6.673   7.285  2.0930 -0.3010 -1.7140
  108OSM    C7S11016   4.584   6.529   7.265  0.4338  0.1757  0.0626
  108OSM    H7S11017   4.528   6.621   7.292  1.7533  0.7040  1.1648
  108OSM    H7T11018   4.553   6.441   7.325  1.2678  0.9710  1.7464
  108OSM    C8S11019   4.563   6.502   7.115  0.4361  0.4925  0.2342
  108OSM    H8S11020   4.455   6.505   7.088  0.6682  3.3807 -0.7205
  108OSM    H8T11021   4.598   6.399   7.094 -1.2529 -0.8433  3.2985
  108OSM    C9S11022   4.637   6.604   7.020  0.1847  0.1775  0.5793
  108OSM    H9S11023   4.744   6.593   7.049 -0.4674 -0.3850  2.9660
  108OSM    H9T11024   4.610   6.710   7.040  0.7072  0.3941  0.1859
  108OSM   C10S11025   4.633   6.581   6.865 -0.4184 -0.7520 -0.6755
  108OSM   H10S11026   4.691   6.488   6.848  1.6553 -0.1453  2.3010
  108OSM   H10T11027   4.677   6.672   6.819  0.3591 -0.7782 -0.0036
  108OSM   C11S11028   4.484   6.567   6.811  0.1384 -0.1225  0.2902
  108OSM   H11S11029   4.435   6.667   6.818  1.7303  0.6990  0.1292
  108OSM   H11T11030   4.428   6.500   6.880  0.6719 -0.2712  0.5830
  108OSM   C12S11031   4.471   6.514   6.666 -0.5354 -0.2606 -0.3403
  108OSM   H12S11032   4.370   6.467   6.658 -0.1898 -0.9905 -0.4871
  108OSM   H12T11033   4.545   6.431   6.660 -0.2810 -0.1081  0.5175
  108OSM   C13S11034   4.495   6.623   6.562 -0.6720 -0.4377  0.0009
  108OSM   H13S11035   4.514   6.563   6.471 -1.2279 -2.0210  0.8956
  108OSM   H13T11036   4.590   6.680   6.574 -0.5741 -0.4210 -0.7786
  108OSM   C14S11037   4.373   6.710   6.526  0.1446  0.1681 -0.2930
  108OSM   H14S11038   4.362   6.746   6.630  0.6623  1.0403 -0.5219
  108OSM   H14T11039   4.292   6.636   6.506  1.1404 -1.8322  2.5011
  108OSM   C15S11040   4.405   6.808   6.411  0.0731 -0.4011 -0.1057
  108OSM   H15S11041   4.507   6.844   6.436  0.1414 -1.5211  1.3277
  108OSM   H15T11042   4.343   6.900   6.424 -1.1620 -1.5081  2.6711
  108OSM   C16S11043   4.410   6.759   6.268 -0.0011  0.2834 -0.2637
  108OSM   H16S11044   4.308   6.728   6.236  0.5965 -0.0161 -1.9485
  108OSM   H16T11045   4.482   6.674   6.265  0.8721  1.0248 -1.2743
  108OSM   C17S11046   4.458   6.874   6.185  0.4922 -0.2594  0.2528
  108OSM   H17S11047   4.535   6.936   6.235 -0.7702  1.0180  0.6949
  108OSM   H17T11048   4.380   6.953   6.179  2.3586  1.6684 -0.0142
  108OSM   C18S11049   4.507   6.840   6.048  0.4497  0.2695  0.9811
  108OSM   H18S11050   4.562   6.919   5.992  1.2425 -1.1860 -0.3997
  108OSM   H18T11051   4.418   6.796   5.998 -0.2100  0.7876  1.6803
  108OSM   H18U11052   4.576   6.754   6.048 -0.0353 -0.5417 -4.8754
  108OSM    C1F11053   4.431   6.260   7.690 -0.1930 -0.1079 -0.3587
  108OSM     OF11054   4.353   6.338   7.749 -0.2408 -0.0828  0.2408
  108OSM    C2F11055   4.380   6.127   7.646  0.4384  0.5506  0.1225
  108OSM    H2F11056   4.314   6.080   7.722  1.0382  0.3479  0.5298
  108OSM    H2G11057   4.463   6.066   7.604 -0.5923 -0.0634 -1.0674
  108OSM    C3F11058   4.289   6.155   7.521  0.6671  1.0228 -0.1370
  108OSM    H3F11059   4.351   6.205   7.444 -1.5826  5.1677  0.4623
  108OSM    H3G11060   4.201   6.219   7.540  0.5833  0.6200  0.8978
  108OSM    C4F11061   4.251   6.021   7.454  0.0672  0.0622  0.7010
  108OSM    H4F11062   4.200   5.958   7.530 -2.0909 -0.8303 -1.3593
  108OSM    H4G11063   4.339   5.964   7.418 -0.7105 -0.3292 -0.6422
  108OSM    C5F11064   4.162   6.052   7.331 -0.1206 -0.1153 -0.0622
  108OSM    H5F11065   4.195   6.131   7.259  2.5633 -0.1243  1.0228
  108OSM    H5G11066   4.059   6.069   7.369 -0.1158 -0.7032  0.2290
  108OSM    C6F11067   4.169   5.938   7.224 -1.0163  0.2292 -0.3332
  108OSM    H6F11068   4.277   5.933   7.201 -0.2228 -0.2032  2.9562
  108OSM    H6G11069   4.095   5.962   7.145 -2.2332  0.0410  0.7190
  108OSM    C7F11070   4.115   5.800   7.280 -0.7480 -0.6803 -0.6636
  108OSM    H7F11071   4.027   5.822   7.346  0.7900  0.6772  1.0565
  108OSM    H7G11072   4.191   5.760   7.350  0.5622  0.7561 -1.1994
  108OSM    C8F11073   4.086   5.690   7.184  0.1339 -0.1099  0.1437
  108OSM    H8F11074   4.018   5.723   7.102 -1.3643 -2.0491  0.5381
  108OSM    H8G11075   4.031   5.608   7.235  0.2582  0.0609  0.5543
  108OSM    C9F11076   4.211   5.638   7.110  0.6264 -0.1675 -0.1454
  108OSM    H9F11077   4.280   5.601   7.188  0.3317 -0.9328 -0.2383
  108OSM   C10F11078   4.253   5.668   6.985  0.4903 -0.4294  0.0717
  108OSM   H10F11079   4.344   5.618   6.947  1.9863  2.5404 -0.4871
  108OSM   C11F11080   4.167   5.727   6.869 -0.2390 -0.5453 -0.4449
  108OSM   H11F11081   4.203   5.831   6.852  0.3502 -0.8864 -1.3112
  108OSM   H11G11082   4.057   5.722   6.886 -0.6062 -2.4116 -2.9162
  108OSM   C12F11083   4.203   5.632   6.757  0.0189 -0.2785 -0.7945
  108OSM   H12F11084   4.178   5.525   6.779  0.8811 -0.4658 -0.7175
  108OSM   H12G11085   4.313   5.630   6.744 -0.1692  0.4667 -2.7204
  108OSM   C13F11086   4.145   5.657   6.622 -0.6254  0.6886  0.5286
  108OSM   H13F11087   4.205   5.743   6.587  2.5829 -1.2393  0.8411
  108OSM   H13G11088   4.039   5.687   6.627 -0.2695  1.7599  3.5000
  108OSM   C14F11089   4.165   5.546   6.521  0.0573  0.0428  0.8655
  108OSM   H14F11090   4.125   5.449   6.558 -0.0844 -0.2995 -0.1356
  108OSM   H14G11091   4.273   5.528   6.507  0.0117  0.5720 -0.2710
  108OSM   C15F11092   4.110   5.585   6.378  0.6923 -0.0034  0.3917
  108OSM   H15F11093   4.159   5.683   6.360  0.8348 -0.4422 -1.7894
  108OSM   H15G11094   4.001   5.603   6.377  0.5210 -0.7930  1.6136
  108OSM   C16F11095   4.137   5.481   6.276 -0.3032  0.5606  0.1461
  108OSM   H16F11096   4.247   5.476   6.263  0.3784  1.0861  4.3439
  108OSM   H16G11097   4.094   5.512   6.178  0.6745 -1.7777 -1.1113
  108OSM   C17F11098   4.075   5.341   6.307  0.2424 -0.7632  0.1542
  108OSM   H17F11099   4.103   5.316   6.412  4.1964  0.0360 -0.5640
  108OSM   H17G11100   4.126   5.275   6.234 -1.0013  1.0339 -2.5132
  108OSM   C18F11101   3.921   5.343   6.306 -0.7422  1.5819 -0.0022
  108OSM   H18F11102   3.879   5.419   6.376  0.1340  1.0516  1.1399
  108OSM   H18G11103   3.886   5.245   6.343  3.6089 -1.0814 -2.1804
  108OSM   H18H11104   3.880   5.353   6.203 -0.5403 -1.9100 -0.5392
  109OSM      N11105   5.668   3.196   8.427 -0.7498 -0.7816  0.1727
  109OSM    C1511106   5.725   3.254   8.552  0.1894  0.0518  0.2791
  109OSM   H15A11107   5.779   3.346   8.532  1.2421 -0.4210  0.8420
  109OSM   H15B11108   5.792   3.183   8.599 -0.3117 -0.2606  0.5243
  109OSM   H15C11109   5.647   3.273   8.624 -0.3979 -0.4790 -0.2025
  109OSM    C1411110   5.633   3.052   8.457 -1.0284 -0.1488  0.2988
  109OSM   H14A11111   5.715   2.997   8.500  0.2093  0.9937 -0.5096
  109OSM   H14B11112   5.611   2.999   8.365 -1.3997 -0.8291  0.7694
  109OSM   H14C11113   5.552   3.057   8.529  1.3253 -0.9140  3.1775
  109OSM    C1311114   5.547   3.276   8.386  0.3781 -0.2704 -0.6629
  109OSM   H13A11115   5.489   3.296   8.474 -0.7632 -2.4860 -0.8370
  109OSM   H13B11116   5.488   3.225   8.311  0.9714  0.8387 -1.9174
  109OSM   H13C11117   5.572   3.374   8.350  0.4261 -0.5910 -1.5242
  109OSM    C1211118   5.761   3.201   8.308  0.1331 -0.3131 -0.9056
  109OSM   H12A11119   5.768   3.304   8.275  0.8847  0.5113  1.5512
  109OSM   H12B11120   5.725   3.140   8.226  0.1402 -1.2541 -0.2291
  109OSM    C1111121   5.911   3.164   8.338 -0.2780 -0.0988 -0.2916
  109OSM   H11A11122   5.963   3.160   8.240 -1.3826  0.0223 -0.8970
  109OSM   H11B11123   5.922   3.066   8.388  2.9096 -0.1279 -0.8455
  109OSM      P11124   5.988   3.413   8.388 -0.0224 -0.2330 -0.1405
  109OSM    O1311125   5.895   3.493   8.471 -0.0618 -0.0691  0.5688
  109OSM    O1411126   6.128   3.454   8.400  0.3527 -0.3685 -0.1194
  109OSM    O1111127   5.946   3.426   8.239  0.3056 -0.0681 -0.8475
  109OSM    O1211128   5.978   3.260   8.422 -0.3591 -0.3697  1.1113
  109OSM    C1S11129   5.932   3.563   8.192 -0.4891  0.6203  0.1189
  109OSM    H1S11130   6.023   3.623   8.217 -0.4029  0.6912 -0.3472
  109OSM    H1T11131   5.852   3.621   8.242  0.2700  1.6003  0.2267
  109OSM     NF11132   5.923   3.705   7.979  0.1292 -0.4881  0.2120
  109OSM    HNF11133   5.835   3.752   7.976  0.8579  0.9231  0.4370
  109OSM    C2S11134   5.936   3.568   8.034  0.5280  0.5139 -0.1054
  109OSM    H2S11135   6.027   3.534   7.980 -1.4377  0.4024 -3.6870
  109OSM    C3S11136   5.823   3.466   7.997 -0.6745  0.0433  0.2573
  109OSM    H3S11137   5.742   3.497   8.066  1.4549  1.7347  2.1965
  109OSM     O311138   5.856   3.326   8.020  0.3799 -0.0141 -0.1453
  109OSM    HO311139   5.911   3.330   8.098 -1.7892 -0.7815  1.5123
  109OSM    C4S11140   5.789   3.483   7.849 -0.0567 -0.4518 -0.1237
  109OSM    H4S11141   5.731   3.575   7.833 -1.7853 -1.2100  1.4868
  109OSM    C5S11142   5.816   3.406   7.745  0.5622  0.4640  0.0768
  109OSM    H5S11143   5.867   3.310   7.759  1.1447  0.9093  1.0691
  109OSM    C6S11144   5.767   3.450   7.610 -0.5398 -0.7543  0.4608
  109OSM    H6S11145   5.813   3.549   7.590 -0.6376 -0.8434 -0.2378
  109OSM    H6T11146   5.656   3.443   7.604 -0.5314 -1.0652  0.6523
  109OSM    C7S11147   5.804   3.353   7.498  0.3256 -0.3649 -0.4889
  109OSM    H7S11148   5.758   3.255   7.520 -0.2552 -0.0339 -0.2196
  109OSM    H7T11149   5.914   3.337   7.491  0.4070 -0.1730  0.2671
  109OSM    C8S11150   5.744   3.397   7.360 -0.1048  0.2610  0.4388
  109OSM    H8S11151   5.797   3.482   7.312  1.3248 -0.5821  0.4642
  109OSM    H8T11152   5.634   3.412   7.360  0.1799  2.8299 -0.2697
  109OSM    C9S11153   5.776   3.276   7.274  0.0198 -0.1556 -0.2266
  109OSM    H9S11154   5.713   3.190   7.306 -1.2489  0.9209  0.2556
  109OSM    H9T11155   5.883   3.246   7.284  1.1289  3.6547  1.1574
  109OSM   C10S11156   5.753   3.306   7.116 -0.1612  0.8037 -0.4638
  109OSM   H10S11157   5.833   3.378   7.087 -0.8263  2.0603  0.6636
  109OSM   H10T11158   5.654   3.353   7.102 -0.0517  0.8678 -1.0438
  109OSM   C11S11159   5.779   3.184   7.036  0.0669 -0.1433 -0.3144
  109OSM   H11S11160   5.717   3.104   7.084 -1.1878  0.7530 -0.3795
  109OSM   H11T11161   5.884   3.149   7.037 -0.0544 -0.7553  2.9197
  109OSM   C12S11162   5.724   3.197   6.891  0.0498  0.5352 -0.5950
  109OSM   H12S11163   5.616   3.222   6.886 -0.0891 -0.1226 -0.9987
  109OSM   H12T11164   5.730   3.096   6.846  1.5107 -0.2023  1.1785
  109OSM   C13S11165   5.791   3.290   6.800 -0.0495  0.0878 -0.3331
  109OSM   H13S11166   5.897   3.264   6.816 -0.2924  0.4657  2.3810
  109OSM   H13T11167   5.775   3.392   6.842  0.6864  0.2803 -0.5174
  109OSM   C14S11168   5.749   3.285   6.654  0.2040  0.3061 -0.6775
  109OSM   H14S11169   5.640   3.305   6.644 -0.1328 -0.5516  0.8771
  109OSM   H14T11170   5.753   3.175   6.640 -1.4784  0.1002  0.1586
  109OSM   C15S11171   5.828   3.369   6.550  0.3264  0.6413  0.0300
  109OSM   H15S11172   5.837   3.479   6.567  0.9504  0.8537 -1.5396
  109OSM   H15T11173   5.781   3.352   6.451 -1.5679  0.6014  0.8854
  109OSM   C16S11174   5.977   3.346   6.531 -0.3629  0.0867 -0.0002
  109OSM   H16S11175   5.996   3.236   6.524 -3.8197 -0.6233 -0.0394
  109OSM   H16T11176   6.027   3.386   6.621 -2.6430 -0.5528  1.6456
  109OSM   C17S11177   6.046   3.416   6.409  0.5586 -0.1982 -0.6466
  109OSM   H17S11178   6.036   3.523   6.438 -1.4471  0.0865 -2.1580
  109OSM   H17T11179   5.993   3.398   6.313 -0.5001 -0.7182  0.0163
  109OSM   C18S11180   6.195   3.391   6.391  0.5446  0.3497  0.3208
  109OSM   H18S11181   6.243   3.393   6.492 -1.6146 -1.8574  1.5276
  109OSM   H18T11182   6.243   3.462   6.321  1.7215 -1.2956 -0.5809
  109OSM   H18U11183   6.197   3.285   6.358  0.7743 -0.2261  2.0780
  109OSM    C1F11184   6.026   3.797   7.977 -0.6481 -0.8689  0.6290
  109OSM     OF11185   6.135   3.762   8.021  0.0316 -0.7359  0.2886
  109OSM    C2F11186   5.994   3.929   7.924  0.1459  0.3025 -0.0101
  109OSM    H2F11187   6.019   4.011   7.994 -2.2910  0.7823  0.3689
  109OSM    H2G11188   5.888   3.933   7.893  0.3745  3.1798 -0.7424
  109OSM    C3F11189   6.085   3.956   7.801 -0.1438 -0.1737 -0.5687
  109OSM    H3F11190   6.192   3.933   7.823  0.5798  1.6116 -1.9553
  109OSM    H3G11191   6.071   4.064   7.780 -3.1569  0.1397  2.2378
  109OSM    C4F11192   6.040   3.879   7.677  0.2916  0.7210  0.4000
  109OSM    H4F11193   5.955   3.810   7.699 -0.8176  1.4095 -1.4788
  109OSM    H4G11194   6.122   3.821   7.629  1.5764  0.9705  2.1785
  109OSM    C5F11195   5.985   3.965   7.560  0.0303  0.7272  0.1037
  109OSM    H5F11196   6.071   4.030   7.533  0.7308 -0.3252 -0.2584
  109OSM    H5G11197   5.894   4.026   7.577  0.7565  1.7811  0.3457
  109OSM    C6F11198   5.959   3.870   7.438  0.1227  0.2611 -0.7526
  109OSM    H6F11199   5.893   3.785   7.469  0.5120  0.0171 -0.5877
  109OSM    H6G11200   6.055   3.819   7.417 -1.2014 -2.4716 -0.7231
  109OSM    C7F11201   5.909   3.937   7.312  0.2627 -0.1376 -0.6425
  109OSM    H7F11202   5.962   4.035   7.303  0.6760 -0.2150  0.7323
  109OSM    H7G11203   5.807   3.975   7.335  0.1433 -0.9287  0.1784
  109OSM    C8F11204   5.912   3.854   7.190  0.0112  0.0375  0.7491
  109OSM    H8F11205   6.018   3.822   7.182 -0.1483 -0.8475  1.8789
  109OSM    H8G11206   5.886   3.930   7.113  2.1150  0.4692  0.3850
  109OSM    C9F11207   5.827   3.732   7.192 -0.5597 -0.0667 -1.0642
  109OSM    H9F11208   5.838   3.679   7.288  1.4301  0.9650 -0.6571
  109OSM   C10F11209   5.753   3.686   7.093  0.6969  0.5913  0.4474
  109OSM   H10F11210   5.715   3.584   7.109  1.5715  0.5321  2.4695
  109OSM   C11F11211   5.745   3.734   6.950 -0.5024 -0.3093 -0.5338
  109OSM   H11F11212   5.687   3.828   6.934 -1.1681 -0.7756 -0.9341
  109OSM   H11G11213   5.696   3.656   6.889 -2.6006 -0.1427  0.8490
  109OSM   C12F11214   5.881   3.759   6.880 -0.1240 -0.2631 -0.6706
  109OSM   H12F11215   5.959   3.683   6.904 -0.2250  0.5153  2.6359
  109OSM   H12G11216   5.916   3.855   6.925 -2.2745  0.1607  0.2153
  109OSM   C13F11217   5.860   3.777   6.729  0.7355  0.3501 -0.2840
  109OSM   H13F11218   5.790   3.862   6.710 -0.2122 -0.2357  0.4993
  109OSM   H13G11219   5.823   3.681   6.687 -1.2618  0.4626  1.0969
  109OSM   C14F11220   5.997   3.816   6.666  0.2899 -0.3691  0.8907
  109OSM   H14F11221   6.060   3.734   6.707 -1.2428 -1.0242  1.9952
  109OSM   H14G11222   6.022   3.920   6.699 -1.2211  0.4941 -0.5204
  109OSM   C15F11223   5.984   3.814   6.516  0.4125  0.6799 -0.2393
  109OSM   H15F11224   5.912   3.883   6.467  0.1305  0.7191  0.2237
  109OSM   H15G11225   5.942   3.716   6.487  0.1853  1.4693 -2.8487
  109OSM   C16F11226   6.124   3.816   6.450 -0.5819  0.6769 -0.9346
  109OSM   H16F11227   6.174   3.726   6.493  0.1916  1.7425  0.4791
  109OSM   H16G11228   6.189   3.898   6.488  0.2523 -0.2301 -0.3549
  109OSM   C17F11229   6.120   3.811   6.296 -0.3572  0.3587 -0.2710
  109OSM   H17F11230   6.054   3.894   6.264 -0.7978 -0.2670 -1.0131
  109OSM   H17G11231   6.082   3.714   6.257  1.7877  0.3885 -2.7063
  109OSM   C18F11232   6.257   3.832   6.226  0.3586 -0.1289  0.0088
  109OSM   H18F11233   6.339   3.777   6.277  0.1565 -1.9302 -1.4859
  109OSM   H18G11234   6.279   3.940   6.220  0.9464 -0.2981 -1.0615
  109OSM   H18H11235   6.261   3.822   6.115 -1.2223  1.6686 -0.2652
  110OSM      N11236   1.643   6.386   8.361  0.0555  0.2333  0.3368
  110OSM    C1511237   1.636   6.511   8.442  0.0101  0.6472  0.4702
  110OSM   H15A11238   1.563   6.580   8.404 -0.4555 -0.1861 -0.2053
  110OSM   H15B11239   1.734   6.555   8.446  1.6713 -2.2983 -2.5070
  110OSM   H15C11240   1.619   6.478   8.544  2.4264 -2.6001  0.0103
  110OSM    C1411241   1.664   6.422   8.212  0.2927 -0.5508  0.1008
  110OSM   H14A11242   1.762   6.459   8.187 -1.3381  2.5665 -2.3218
  110OSM   H14B11243   1.590   6.496   8.187  1.0165  0.1293 -0.0391
  110OSM   H14C11244   1.641   6.332   8.156 -1.4334 -0.0806  0.0043
  110OSM    C1311245   1.765   6.312   8.409  0.6978  0.1605  0.1484
  110OSM   H13A11246   1.784   6.224   8.350  2.3397  0.8667 -0.4545
  110OSM   H13B11247   1.770   6.291   8.515  0.2806 -2.8932 -0.3630
  110OSM   H13C11248   1.852   6.375   8.394  0.1368  1.4656  1.9665
  110OSM    C1211249   1.514   6.305   8.374  0.3618 -0.2407 -0.3073
  110OSM   H12A11250   1.531   6.218   8.312 -1.2752  0.2308 -1.4786
  110OSM   H12B11251   1.432   6.356   8.326  0.1650 -1.1160 -0.9254
  110OSM    C1111252   1.460   6.269   8.514  0.8545  0.2476  0.2541
  110OSM   H11A11253   1.548   6.218   8.558  0.2257 -2.1949 -1.0996
  110OSM   H11B11254   1.388   6.185   8.520  1.9192 -0.6813  0.4981
  110OSM      P11255   1.272   6.443   8.589  0.1489 -0.5037 -0.0139
  110OSM    O1311256   1.188   6.371   8.692  0.2834 -0.6343  0.2766
  110OSM    O1411257   1.278   6.597   8.598 -0.5067  0.0169 -0.5298
  110OSM    O1111258   1.228   6.398   8.443  0.3668 -0.4592  0.6053
  110OSM    O1211259   1.418   6.385   8.598  0.1458 -0.7450  0.5636
  110OSM    C1S11260   1.209   6.503   8.342 -0.1993  0.5509 -0.5034
  110OSM    H1S11261   1.289   6.580   8.349 -0.5846  0.9283 -0.1708
  110OSM    H1T11262   1.115   6.560   8.358 -0.5895 -0.3170  0.3778
  110OSM     NF11263   1.175   6.542   8.100  0.6667  0.3107  0.2000
  110OSM    HNF11264   1.092   6.555   8.046  0.4305 -1.7975 -0.0335
  110OSM    C2S11265   1.195   6.437   8.200  0.2201 -0.0801 -0.0739
  110OSM    H2S11266   1.293   6.392   8.173 -0.3653 -2.4937  1.4959
  110OSM    C3S11267   1.080   6.327   8.211 -0.1411 -0.4726 -0.1692
  110OSM    H3S11268   0.985   6.378   8.239  0.2373  0.6227 -0.8307
  110OSM     O311269   1.102   6.234   8.316  0.0729  0.0783  0.4092
  110OSM    HO311270   1.170   6.271   8.373 -0.7071  1.4424  0.4753
  110OSM    C4S11271   1.060   6.242   8.086  0.3728 -0.5801 -0.1481
  110OSM    H4S11272   1.122   6.152   8.096 -0.0476 -0.6451  5.0136
  110OSM    C5S11273   0.968   6.255   7.988  0.4377  0.1478  0.2976
  110OSM    H5S11274   0.891   6.333   7.987 -1.5891 -1.7621  0.7640
  110OSM    C6S11275   0.951   6.157   7.873  0.4504 -0.9290  0.2098
  110OSM    H6S11276   0.858   6.104   7.902  0.4261 -1.1000 -0.1825
  110OSM    H6T11277   1.032   6.080   7.867 -0.3997 -1.8361  0.0347
  110OSM    C7S11278   0.927   6.245   7.748 -0.2440  0.3971 -0.7749
  110OSM    H7S11279   1.007   6.322   7.743  0.9755 -0.8394 -0.9546
  110OSM    H7T11280   0.827   6.293   7.762 -0.0281  0.1328  2.3432
  110OSM    C8S11281   0.918   6.169   7.615  0.5846  0.0977  0.6210
  110OSM    H8S11282   0.822   6.113   7.617  1.2733 -1.5175 -2.9838
  110OSM    H8T11283   1.006   6.106   7.591 -0.1369 -0.7028 -0.0109
  110OSM    C9S11284   0.889   6.265   7.497  0.4066  0.3853 -0.4252
  110OSM    H9S11285   0.814   6.338   7.533  2.4546  1.6690  1.4395
  110OSM    H9T11286   0.834   6.198   7.427  0.9622 -1.4953  0.8526
  110OSM   C10S11287   1.008   6.325   7.423 -0.5769  0.3729 -0.0852
  110OSM   H10S11288   1.088   6.252   7.399  0.3298  1.7739 -1.5521
  110OSM   H10T11289   1.058   6.397   7.492  1.3368 -2.5657  1.8350
  110OSM   C11S11290   0.967   6.399   7.297  0.3165 -0.7140 -0.2895
  110OSM   H11S11291   0.858   6.380   7.291  0.3110 -1.2255  1.0715
  110OSM   H11T11292   1.013   6.360   7.203 -0.9017 -3.1010  0.0233
  110OSM   C12S11293   0.983   6.551   7.313 -0.1986 -0.0015 -0.2175
  110OSM   H12S11294   0.942   6.597   7.220 -1.6852 -0.4918  0.1657
  110OSM   H12T11295   1.089   6.582   7.321 -1.0428  2.8279  1.6397
  110OSM   C13S11296   0.894   6.601   7.428 -0.9975 -0.4477 -0.4472
  110OSM   H13S11297   0.935   6.551   7.519 -1.4257 -0.2437 -0.1425
  110OSM   H13T11298   0.788   6.575   7.410 -2.0323  1.9898  1.4538
  110OSM   C14S11299   0.905   6.746   7.445 -0.3887 -0.3765  0.1169
  110OSM   H14S11300   0.890   6.812   7.357  1.9005 -0.7310 -0.6114
  110OSM   H14T11301   1.009   6.778   7.469  0.1595 -1.1609 -1.1347
  110OSM   C15S11302   0.822   6.789   7.565  0.8933  0.2070 -0.3028
  110OSM   H15S11303   0.725   6.735   7.555  1.3841 -0.7669  0.1255
  110OSM   H15T11304   0.800   6.898   7.567 -3.4031 -0.4637  0.0615
  110OSM   C16S11305   0.869   6.753   7.705  0.8189 -0.2791 -0.6919
  110OSM   H16S11306   0.969   6.799   7.717  1.9526 -2.5831 -0.7766
  110OSM   H16T11307   0.880   6.643   7.717 -1.0828 -0.4432 -0.0710
  110OSM   C17S11308   0.779   6.817   7.821  0.1748  0.2180  0.2283
  110OSM   H17S11309   0.783   6.928   7.816  0.7720  0.3375  2.3374
  110OSM   H17T11310   0.839   6.796   7.912 -0.1862 -0.9795  0.2011
  110OSM   C18S11311   0.646   6.759   7.840 -0.0796 -0.1089 -0.3549
  110OSM   H18S11312   0.653   6.650   7.861  1.2766 -0.1251 -0.8219
  110OSM   H18T11313   0.590   6.770   7.745  2.0699  1.2010 -1.5555
  110OSM   H18U11314   0.592   6.808   7.924  1.0440 -1.0941  0.9941
  110OSM    C1F11315   1.271   6.624   8.070  0.5264  0.2840  0.1377
  110OSM     OF11316   1.382   6.599   8.113  0.0780  0.8055  0.1724
  110OSM    C2F11317   1.235   6.748   7.993  0.3789  0.7760 -0.2617
  110OSM    H2F11318   1.189   6.822   8.062 -0.1243 -0.1978  0.4708
  110OSM    H2G11319   1.169   6.715   7.911  1.3949 -1.5970 -0.1961
  110OSM    C3F11320   1.358   6.820   7.930  0.7904  0.6493  0.2343
  110OSM    H3F11321   1.428   6.855   8.009 -0.7408 -0.9447  2.4278
  110OSM    H3G11322   1.335   6.915   7.877  1.4594 -0.0878 -1.4443
  110OSM    C4F11323   1.429   6.739   7.823  0.8564 -0.2320 -0.3018
  110OSM    H4F11324   1.449   6.634   7.856 -0.0469 -0.2371  0.2627
  110OSM    H4G11325   1.522   6.795   7.805  0.7082  0.5791  1.2572
  110OSM    C5F11326   1.351   6.754   7.685  0.1394  0.0633 -0.4808
  110OSM    H5F11327   1.316   6.859   7.680 -1.3403 -0.4229 -0.9522
  110OSM    H5G11328   1.257   6.697   7.699 -0.1735  0.4472 -1.0081
  110OSM    C6F11329   1.426   6.707   7.563 -0.2100  0.4899  0.3250
  110OSM    H6F11330   1.467   6.604   7.574 -2.0476 -0.3628 -0.3822
  110OSM    H6G11331   1.512   6.774   7.543  1.7845 -2.0117 -0.0444
  110OSM    C7F11332   1.347   6.700   7.427  0.2389 -0.5338  0.5481
  110OSM    H7F11333   1.252   6.647   7.448  0.8310 -0.3207  4.5175
  110OSM    H7G11334   1.415   6.637   7.366 -0.2103 -0.0863 -0.4324
  110OSM    C8F11335   1.314   6.838   7.376  0.1933 -0.4358 -0.1577
  110OSM    H8F11336   1.414   6.884   7.357 -0.0782  0.1292 -0.2435
  110OSM    H8G11337   1.264   6.900   7.453  3.0624  1.8731  0.0234
  110OSM    C9F11338   1.246   6.835   7.244 -0.4063  0.3252  0.1980
  110OSM    H9F11339   1.168   6.758   7.234  0.3241 -0.3111 -0.8957
  110OSM   C10F11340   1.292   6.899   7.131  0.5694 -0.0058  0.2198
  110OSM   H10F11341   1.247   6.866   7.036  0.2080 -1.5469  0.8927
  110OSM   C11F11342   1.401   7.003   7.121 -0.2247  0.0254 -0.2005
  110OSM   H11F11343   1.498   6.965   7.160  0.4907  1.2793 -0.6964
  110OSM   H11G11344   1.366   7.097   7.169  0.5869  0.5324 -0.5911
  110OSM   C12F11345   1.457   7.029   6.979  0.0826  0.2456 -0.5119
  110OSM   H12F11346   1.487   6.934   6.930 -1.6941 -0.6472  0.0425
  110OSM   H12G11347   1.545   7.097   6.989 -1.3934  2.2484 -0.6385
  110OSM   C13F11348   1.361   7.108   6.891 -0.1156 -0.7294 -0.2295
  110OSM   H13F11349   1.319   7.198   6.940  3.7326  1.4719 -0.6471
  110OSM   H13G11350   1.286   7.043   6.839  1.2712 -1.3165 -1.5792
  110OSM   C14F11351   1.440   7.159   6.767 -0.1412 -0.0027  0.4820
  110OSM   H14F11352   1.473   7.073   6.705  0.0295  1.5760 -1.7402
  110OSM   H14G11353   1.526   7.217   6.807 -0.8400  1.3498  0.0840
  110OSM   C15F11354   1.367   7.249   6.664  0.4028 -0.2920 -0.3446
  110OSM   H15F11355   1.317   7.320   6.733  0.5700 -0.3233 -0.1904
  110OSM   H15G11356   1.301   7.176   6.612  2.1314 -2.0605 -0.1470
  110OSM   C16F11357   1.463   7.311   6.570  0.4158  0.3020  0.1760
  110OSM   H16F11358   1.405   7.361   6.490  3.5919 -1.5968 -3.6371
  110OSM   H16G11359   1.524   7.239   6.511  0.3783  1.0275 -0.7787
  110OSM   C17F11360   1.554   7.423   6.631  0.1671 -0.5131  0.4068
  110OSM   H17F11361   1.620   7.392   6.715  2.1107  0.0319 -0.8696
  110OSM   H17G11362   1.498   7.512   6.666  0.6787 -0.8253  2.1391
  110OSM   C18F11363   1.661   7.475   6.522  0.5784  0.8903 -0.8113
  110OSM   H18F11364   1.676   7.584   6.535  3.5776  0.4960 -0.3882
  110OSM   H18G11365   1.628   7.462   6.417  3.0705  0.4787 -1.6115
  110OSM   H18H11366   1.757   7.421   6.534 -0.9932 -2.7482 -2.8316
  111OSM      N11367   4.389   3.218   8.400  0.3319  0.3570 -0.4962
  111OSM    C1511368   4.374   3.080   8.462 -1.9121  0.5126  0.5065
  111OSM   H15A11369   4.459   3.015   8.448 -0.6592  2.1693  0.0842
  111OSM   H15B11370   4.293   3.027   8.413  0.3407 -0.9803 -1.8536
  111OSM   H15C11371   4.359   3.102   8.567  0.9869  0.2120  1.0598
  111OSM    C1411372   4.279   3.313   8.433  0.6166 -0.0824 -0.0607
  111OSM   H14A11373   4.280   3.338   8.538  0.1454  1.6485 -0.4357
  111OSM   H14B11374   4.184   3.271   8.401 -0.1616  0.3816  1.5009
  111OSM   H14C11375   4.295   3.406   8.381 -0.7141  0.8241  1.0566
  111OSM    C1311376   4.512   3.272   8.463  0.0735 -0.4578  0.0484
  111OSM   H13A11377   4.536   3.372   8.430  2.6763 -1.4314 -1.2683
  111OSM   H13B11378   4.593   3.206   8.438  0.8628 -0.7795  3.0479
  111OSM   H13C11379   4.507   3.286   8.570 -0.2725  2.5201 -0.2638
  111OSM    C1211380   4.398   3.210   8.254  0.6141  0.4076 -0.1418
  111OSM   H12A11381   4.403   3.306   8.204  0.1893  0.6627  0.2920
  111OSM   H12B11382   4.305   3.167   8.221  0.2892 -1.0443  2.4313
  111OSM    C1111383   4.510   3.118   8.178  0.2336  0.0979 -0.1876
  111OSM   H11A11384   4.612   3.147   8.210  0.2623 -0.5982  0.3584
  111OSM   H11B11385   4.489   3.136   8.070  0.2883 -1.3203 -0.4462
  111OSM      P11386   4.601   2.875   8.190 -0.1655  0.0483  0.1651
  111OSM    O1311387   4.684   2.873   8.307 -0.5146  0.0346 -0.6403
  111OSM    O1411388   4.532   2.749   8.155  0.2725 -0.0878 -0.1004
  111OSM    O1111389   4.680   2.928   8.064 -0.2460  0.0987  0.4569
  111OSM    O1211390   4.486   2.979   8.200  0.3503  0.0318 -0.1284
  111OSM    C1S11391   4.619   2.900   7.935 -0.2073 -0.0765  0.1199
  111OSM    H1S11392   4.510   2.924   7.941  0.1952  1.8622  0.1691
  111OSM    H1T11393   4.638   2.795   7.906 -1.7349  0.1596 -2.0197
  111OSM     NF11394   4.625   2.929   7.695  0.6199  0.0606  0.4323
  111OSM    HNF11395   4.698   2.892   7.637  2.3229  1.6570  1.4266
  111OSM    C2S11396   4.668   2.994   7.816 -0.0233 -0.3433 -0.6848
  111OSM    H2S11397   4.616   3.090   7.836  1.8086  0.2504  1.6931
  111OSM    C3S11398   4.822   3.024   7.821  0.3616  0.5334  0.3258
  111OSM    H3S11399   4.877   2.928   7.811 -3.0633 -1.5103 -1.0539
  111OSM     O311400   4.868   3.074   7.945  0.0589  0.7415  0.0687
  111OSM    HO311401   4.794   3.059   8.004  1.0958  0.7888  1.4080
  111OSM    C4S11402   4.864   3.118   7.713  0.6967 -0.0073  0.0313
  111OSM    H4S11403   4.833   3.222   7.732  0.2229 -0.0510 -0.5175
  111OSM    C5S11404   4.940   3.078   7.612 -0.2104 -0.0188 -0.0801
  111OSM    H5S11405   4.970   2.973   7.605 -0.4251 -0.2113  1.6098
  111OSM    C6S11406   4.999   3.157   7.498 -0.0959  0.5043  0.0204
  111OSM    H6S11407   5.095   3.112   7.464  0.1915  0.5360  0.7693
  111OSM    H6T11408   5.015   3.264   7.523  1.0741  0.1316  0.9398
  111OSM    C7S11409   4.898   3.158   7.381 -0.0387  0.1558  0.0193
  111OSM    H7S11410   4.838   3.251   7.388  0.5420  0.6090 -0.9109
  111OSM    H7T11411   4.828   3.073   7.400  1.8270 -1.0400  2.0459
  111OSM    C8S11412   4.968   3.153   7.248  1.0512  0.0153 -0.6020
  111OSM    H8S11413   5.018   3.054   7.251  1.5867  0.3025  2.4048
  111OSM    H8T11414   5.044   3.231   7.227  0.3834  0.3371 -1.9783
  111OSM    C9S11415   4.868   3.133   7.130 -0.3881  0.0231 -0.4977
  111OSM    H9S11416   4.796   3.218   7.133  2.2070  2.3344  0.0274
  111OSM    H9T11417   4.824   3.032   7.148  4.1712 -1.7103  2.6255
  111OSM   C10S11418   4.934   3.136   6.984 -0.0072 -0.7078 -0.3891
  111OSM   H10S11419   4.984   3.234   6.991 -1.3934 -0.0380  0.6232
  111OSM   H10T11420   4.849   3.149   6.913  1.0887 -1.3968 -1.8726
  111OSM   C11S11421   5.031   3.030   6.955 -0.9937  0.6806  0.2760
  111OSM   H11S11422   4.973   2.938   6.936 -0.6645 -0.0310  2.4910
  111OSM   H11T11423   5.091   3.001   7.044 -0.5501 -1.4815 -0.6637
  111OSM   C12S11424   5.131   3.060   6.843  0.0704  0.2992  0.5132
  111OSM   H12S11425   5.205   2.979   6.825  1.5231  2.0493 -2.0339
  111OSM   H12T11426   5.195   3.149   6.862  1.6542 -0.7920  0.5292
  111OSM   C13S11427   5.056   3.085   6.713  0.4396  0.8270  0.0655
  111OSM   H13S11428   5.126   3.135   6.643  2.1689  0.8638  1.7252
  111OSM   H13T11429   4.967   3.150   6.725 -2.0012 -2.4002  0.8174
  111OSM   C14S11430   5.000   2.954   6.655  0.5093 -1.2799  0.3267
  111OSM   H14S11431   4.909   2.917   6.705 -2.1581  2.6126 -1.1792
  111OSM   H14T11432   5.076   2.874   6.646 -0.4554 -2.3710  1.5760
  111OSM   C15S11433   4.940   2.985   6.512 -0.5604 -0.3434 -0.2125
  111OSM   H15S11434   4.898   3.088   6.504 -3.1453 -1.2981  0.1105
  111OSM   H15T11435   4.850   2.923   6.495 -0.7221 -1.0285  2.6068
  111OSM   C16S11436   5.035   2.951   6.401 -0.2976 -0.2945  0.5846
  111OSM   H16S11437   4.994   2.871   6.335  0.0620  0.4629 -0.6000
  111OSM   H16T11438   5.136   2.921   6.437 -0.5023  0.4001  1.7625
  111OSM   C17S11439   5.076   3.073   6.313  0.1682  0.3222  0.1596
  111OSM   H17S11440   5.140   3.145   6.369  1.5274 -0.2092 -0.6628
  111OSM   H17T11441   4.989   3.121   6.262  1.3640  0.2751 -2.0455
  111OSM   C18S11442   5.162   3.029   6.193  0.3868 -0.2482  0.5899
  111OSM   H18S11443   5.198   3.109   6.125  1.5684 -2.6316 -1.7503
  111OSM   H18T11444   5.109   2.958   6.127 -1.4277  0.8590  0.7920
  111OSM   H18U11445   5.253   2.985   6.240  0.4137 -1.1198 -0.2462
  111OSM    C1F11446   4.500   2.925   7.657  0.2310  0.3371 -0.0439
  111OSM     OF11447   4.410   2.965   7.731  0.1357  0.1726  0.0533
  111OSM    C2F11448   4.472   2.873   7.517 -0.3831  0.1867 -0.0633
  111OSM    H2F11449   4.478   2.958   7.446  0.2489 -0.1621 -0.4400
  111OSM    H2G11450   4.368   2.837   7.501 -0.5068  0.5635 -0.1224
  111OSM    C3F11451   4.560   2.745   7.491  0.1070  0.0066 -0.4924
  111OSM    H3F11452   4.554   2.673   7.575  1.3147  1.2685  0.7404
  111OSM    H3G11453   4.664   2.785   7.487 -0.7189  2.2913 -1.0424
  111OSM    C4F11454   4.539   2.677   7.353  0.7624 -0.0342  0.0124
  111OSM    H4F11455   4.437   2.637   7.339 -0.2184  2.9548 -2.6890
  111OSM    H4G11456   4.612   2.593   7.352  0.3086 -0.4362  0.5526
  111OSM    C5F11457   4.563   2.768   7.228  0.1131  0.0245 -0.6507
  111OSM    H5F11458   4.667   2.789   7.196  0.0856  0.3550 -0.5319
  111OSM    H5G11459   4.498   2.858   7.231 -0.9257 -0.7421  0.5914
  111OSM    C6F11460   4.524   2.682   7.102 -0.5755  0.1274  0.2264
  111OSM    H6F11461   4.420   2.656   7.129 -0.9510  2.5595  1.3629
  111OSM    H6G11462   4.594   2.596   7.093  0.0022  0.2799  2.7465
  111OSM    C7F11463   4.526   2.764   6.969 -0.2222  0.8053 -1.2905
  111OSM    H7F11464   4.478   2.860   6.996  1.6799  1.6489 -0.8014
  111OSM    H7G11465   4.462   2.719   6.889 -1.7560  0.9648 -0.1979
  111OSM    C8F11466   4.664   2.805   6.917 -0.2600  0.4410 -0.2589
  111OSM    H8F11467   4.737   2.722   6.903  1.0531  1.6138 -0.5642
  111OSM    H8G11468   4.714   2.869   6.993  0.3525 -0.6252  0.2615
  111OSM    C9F11469   4.652   2.881   6.780  0.4517  0.2290 -0.2866
  111OSM    H9F11470   4.632   2.989   6.789 -0.3660  0.0654  0.0154
  111OSM   C10F11471   4.631   2.823   6.664 -0.3106  0.2220 -0.5651
  111OSM   H10F11472   4.588   2.872   6.576 -0.0526 -0.4548 -1.0794
  111OSM   C11F11473   4.652   2.674   6.646 -1.0100 -0.1871  0.0236
  111OSM   H11F11474   4.557   2.619   6.632 -1.3042  0.5294 -0.9095
  111OSM   H11G11475   4.712   2.622   6.723 -0.5629  1.2148  0.6592
  111OSM   C12F11476   4.740   2.648   6.518 -0.5802 -0.5786  0.7283
  111OSM   H12F11477   4.748   2.537   6.512  1.6329 -0.3912 -3.0518
  111OSM   H12G11478   4.844   2.686   6.526 -1.0848  1.4465 -1.3442
  111OSM   C13F11479   4.667   2.685   6.380 -0.7242 -0.0860 -0.0223
  111OSM   H13F11480   4.649   2.793   6.360 -3.0611 -0.4843 -0.4532
  111OSM   H13G11481   4.568   2.634   6.381  0.1764 -1.9209 -0.2979
  111OSM   C14F11482   4.750   2.643   6.256  0.0086  0.7107 -0.0987
  111OSM   H14F11483   4.790   2.539   6.258 -0.1633  0.6528  0.6394
  111OSM   H14G11484   4.844   2.702   6.263  0.5064 -0.2414  2.1791
  111OSM   C15F11485   4.668   2.653   6.130  0.2809 -0.4664 -0.1274
  111OSM   H15F11486   4.588   2.577   6.130  0.8470 -1.1188 -1.9549
  111OSM   H15G11487   4.744   2.638   6.050  0.2881 -0.8177 -0.0530
  111OSM   C16F11488   4.598   2.796   6.109 -0.2116  0.1485  0.5999
  111OSM   H16F11489   4.526   2.816   6.191 -2.1621 -0.7633 -0.8168
  111OSM   H16G11490   4.549   2.797   6.009  0.2590 -2.1064  0.2852
  111OSM   C17F11491   4.700   2.914   6.111 -0.5190 -0.2167  0.3424
  111OSM   H17F11492   4.756   2.918   6.206  2.1170 -1.8497 -1.0250
  111OSM   H17G11493   4.624   2.994   6.120 -2.0820 -1.2318 -2.3567
  111OSM   C18F11494   4.790   2.938   5.991  0.2311 -0.1592  0.3224
  111OSM   H18F11495   4.733   2.956   5.897 -2.1919  1.0703  1.9044
  111OSM   H18G11496   4.857   2.851   5.973 -0.9805 -1.1165  0.3282
  111OSM   H18H11497   4.849   3.032   6.004 -0.2141  0.3624 -1.2480
  112OSM      N11498   0.463   1.352   8.469  0.0788  0.3858  0.1634
  112OSM    C1511499   0.468   1.505   8.477  0.2392  0.0841  0.0231
  112OSM   H15A11500   0.545   1.543   8.410  0.1792  0.1915  0.0150
  112OSM   H15B11501   0.492   1.530   8.579 -2.3463 -2.0050  1.2499
  112OSM   H15C11502   0.381   1.565   8.454  1.0436  1.2374 -0.1309
  112OSM    C1411503   0.344   1.308   8.549 -0.7876 -0.5078  0.1016
  112OSM   H14A11504   0.341   1.337   8.653  0.0420  0.6162 -0.1751
  112OSM   H14B11505   0.341   1.201   8.539  1.6682 -0.4737 -1.6550
  112OSM   H14C11506   0.249   1.341   8.509 -2.6909 -4.3734  0.8974
  112OSM    C1311507   0.441   1.316   8.325 -0.0991  0.2731 -0.6544
  112OSM   H13A11508   0.517   1.357   8.260  2.2684  1.5324  2.6328
  112OSM   H13B11509   0.348   1.365   8.299 -0.1770  1.9446  2.3270
  112OSM   H13C11510   0.429   1.210   8.308 -2.9541 -0.0375  2.2370
  112OSM    C1211511   0.589   1.286   8.525  0.4909 -0.4968 -0.6402
  112OSM   H12A11512   0.577   1.179   8.531 -1.6798 -0.3463 -1.4996
  112OSM   H12B11513   0.610   1.320   8.625 -0.4740 -2.6365  0.3282
  112OSM    C1111514   0.720   1.291   8.446  0.4150 -0.8074  0.0954
  112OSM   H11A11515   0.752   1.397   8.442 -2.3555  0.0733 -0.5940
  112OSM   H11B11516   0.698   1.248   8.346 -1.5610 -2.5360  1.1794
  112OSM      P11517   0.902   1.286   8.628  0.0517 -0.0692 -0.5330
  112OSM    O1311518   0.819   1.367   8.719  0.7655  0.2880  0.9284
  112OSM    O1411519   0.983   1.173   8.687  0.8106 -0.3605 -0.6391
  112OSM    O1111520   0.993   1.381   8.531 -0.4123 -1.0846  0.1958
  112OSM    O1211521   0.804   1.214   8.528 -0.2226  0.0129  0.4574
  112OSM    C1S11522   1.034   1.326   8.407 -0.4658  0.2868 -0.7706
  112OSM    H1S11523   0.944   1.296   8.349 -0.6603 -1.6553  0.4588
  112OSM    H1T11524   1.092   1.233   8.420  2.8015  1.3137 -5.4949
  112OSM     NF11525   1.157   1.357   8.183  0.4497  0.0014  0.8104
  112OSM    HNF11526   1.222   1.281   8.189 -0.5608 -0.8595  1.1641
  112OSM    C2S11527   1.129   1.417   8.316  0.1859 -0.6921 -0.0987
  112OSM    H2S11528   1.074   1.513   8.304 -0.4638 -1.0924 -0.3916
  112OSM    C3S11529   1.256   1.460   8.399 -0.3850  0.4241 -0.2632
  112OSM    H3S11530   1.311   1.368   8.425  0.0004  0.3651 -1.2230
  112OSM     O311531   1.234   1.539   8.514  0.3893  0.2637  0.1136
  112OSM    HO311532   1.143   1.524   8.538  0.1030  2.4848  0.5980
  112OSM    C4S11533   1.347   1.535   8.303  0.3100  0.5989 -0.4496
  112OSM    H4S11534   1.438   1.483   8.270 -0.5092 -0.7648 -0.6121
  112OSM    C5S11535   1.313   1.659   8.245  0.2044 -0.0222 -0.4185
  112OSM    H5S11536   1.213   1.701   8.263  0.9990  1.6217  0.4557
  112OSM    C6S11537   1.402   1.751   8.162  0.1186  0.6038 -0.0507
  112OSM    H6S11538   1.497   1.701   8.133  0.8453  1.0575  1.4517
  112OSM    H6T11539   1.425   1.840   8.224  1.7660  0.2628 -0.1243
  112OSM    C7S11540   1.330   1.810   8.038  0.3354 -0.7522  0.0543
  112OSM    H7S11541   1.409   1.878   8.001  0.6750  0.3130  2.5048
  112OSM    H7T11542   1.241   1.874   8.053  3.4312  3.5299  2.3863
  112OSM    C8S11543   1.309   1.699   7.934  0.4191 -0.5743  0.3093
  112OSM    H8S11544   1.229   1.628   7.965 -0.3400 -0.0132 -0.3189
  112OSM    H8T11545   1.396   1.631   7.922 -0.4588 -1.3731 -2.3516
  112OSM    C9S11546   1.275   1.742   7.796  0.9812 -0.3787 -0.0391
  112OSM    H9S11547   1.325   1.832   7.753  0.3090  0.2698  0.5172
  112OSM    H9T11548   1.169   1.774   7.796  0.8792 -0.6512  1.7792
  112OSM   C10S11549   1.303   1.630   7.691 -0.0163 -0.9634  0.0608
  112OSM   H10S11550   1.261   1.534   7.729  0.5341 -1.5026 -0.6859
  112OSM   H10T11551   1.414   1.625   7.683 -0.0815 -0.4293 -1.2965
  112OSM   C11S11552   1.242   1.657   7.554 -0.4416 -0.0318  0.6782
  112OSM   H11S11553   1.280   1.741   7.492 -0.9741 -0.6965 -0.5895
  112OSM   H11T11554   1.135   1.683   7.566 -0.5422 -0.9069  1.9401
  112OSM   C12S11555   1.248   1.535   7.459 -0.0540  0.2004  0.4534
  112OSM   H12S11556   1.206   1.444   7.507 -1.2516  0.3864 -0.1950
  112OSM   H12T11557   1.352   1.512   7.427  0.4174  3.0250 -0.3297
  112OSM   C13S11558   1.180   1.564   7.320  0.7221 -0.1464  0.4232
  112OSM   H13S11559   1.238   1.640   7.264 -0.9915 -0.2103 -1.5715
  112OSM   H13T11560   1.088   1.612   7.360  1.7806  0.8930  1.7193
  112OSM   C14S11561   1.166   1.442   7.237 -0.9670 -0.5948  0.3178
  112OSM   H14S11562   1.094   1.368   7.279 -0.6265 -0.7383  0.6519
  112OSM   H14T11563   1.269   1.403   7.226 -0.8342  0.4613 -3.7906
  112OSM   C15S11564   1.127   1.475   7.091  0.6084 -0.0448 -0.1429
  112OSM   H15S11565   1.140   1.377   7.040  2.9322 -0.0259  0.3126
  112OSM   H15T11566   1.195   1.558   7.062 -1.5711  2.2390  0.9064
  112OSM   C16S11567   0.979   1.527   7.077 -0.9496  0.1134 -0.7455
  112OSM   H16S11568   0.962   1.621   7.135  2.1185  0.3968 -0.1275
  112OSM   H16T11569   0.923   1.438   7.112 -0.3828  0.2372  0.5430
  112OSM   C17S11570   0.932   1.563   6.934  0.4481  0.6477  0.4326
  112OSM   H17S11571   0.957   1.476   6.870 -4.4872 -1.2525  0.6652
  112OSM   H17T11572   0.995   1.649   6.899  0.2420 -0.1717 -2.1934
  112OSM   C18S11573   0.793   1.611   6.921  0.1675 -0.7787  0.3127
  112OSM   H18S11574   0.718   1.537   6.957  1.3201 -1.6566  0.9692
  112OSM   H18T11575   0.772   1.628   6.813 -1.1897 -1.0238  0.5215
  112OSM   H18U11576   0.766   1.696   6.987  0.1815 -0.1554 -0.4608
  112OSM    C1F11577   1.068   1.370   8.085 -0.9415  0.0061  0.3214
  112OSM     OF11578   0.962   1.429   8.120  0.1819 -0.0732  0.6451
  112OSM    C2F11579   1.098   1.294   7.954  0.0642  0.3333  0.0823
  112OSM    H2F11580   1.083   1.185   7.968  0.8276  0.1281 -0.6262
  112OSM    H2G11581   1.202   1.307   7.916  0.5996  0.1139  1.4193
  112OSM    C3F11582   1.007   1.346   7.832 -0.0505 -0.0620 -0.9268
  112OSM    H3F11583   1.047   1.448   7.813 -0.5463  0.2491 -0.3225
  112OSM    H3G11584   0.902   1.348   7.866 -0.2239  0.4876 -1.4716
  112OSM    C4F11585   1.016   1.258   7.712 -0.4460  0.1455  0.2635
  112OSM    H4F11586   1.006   1.153   7.749  1.8055  0.8986  3.4425
  112OSM    H4G11587   1.121   1.264   7.675 -1.0517 -0.9589 -1.8056
  112OSM    C5F11588   0.934   1.300   7.589 -0.2395 -0.4636  0.3918
  112OSM    H5F11589   0.967   1.402   7.558 -0.1998 -1.1230 -1.9343
  112OSM    H5G11590   0.826   1.307   7.616 -0.2578 -1.3434  0.5693
  112OSM    C6F11591   0.936   1.219   7.461  0.0239 -0.7932  0.1868
  112OSM    H6F11592   0.909   1.117   7.496 -1.2641  0.0310  1.6539
  112OSM    H6G11593   1.044   1.215   7.433  0.5762  1.8151  1.6428
  112OSM    C7F11594   0.842   1.277   7.357  0.3709  0.5869  1.2876
  112OSM    H7F11595   0.888   1.374   7.328 -1.7859  1.3779  0.3425
  112OSM    H7G11596   0.746   1.304   7.405 -0.2098 -0.4431  0.7444
  112OSM    C8F11597   0.818   1.191   7.227  0.3407 -0.1043 -0.2004
  112OSM    H8F11598   0.786   1.097   7.276  2.4840  0.1230  1.7668
  112OSM    H8G11599   0.913   1.172   7.173 -0.9318 -2.2326 -1.8397
  112OSM    C9F11600   0.709   1.252   7.145 -0.6262  0.3653  0.3281
  112OSM    H9F11601   0.663   1.341   7.190 -1.1210 -0.0885  0.7401
  112OSM   C10F11602   0.682   1.241   7.020 -0.4028 -0.4683  0.2550
  112OSM   H10F11603   0.590   1.288   6.982  1.2705  0.3829 -3.1674
  112OSM   C11F11604   0.739   1.147   6.919  0.1661  0.1654 -0.4187
  112OSM   H11F11605   0.651   1.096   6.876 -1.2120  2.5228 -0.5324
  112OSM   H11G11606   0.812   1.077   6.965 -0.0587  0.7916  0.9594
  112OSM   C12F11607   0.806   1.203   6.790  0.1430 -0.4132 -0.3353
  112OSM   H12F11608   0.834   1.121   6.722 -0.1974 -1.5272  0.8258
  112OSM   H12G11609   0.894   1.262   6.822 -1.8199  2.3917  0.2846
  112OSM   C13F11610   0.712   1.291   6.703 -0.3776 -0.1974 -0.1745
  112OSM   H13F11611   0.663   1.378   6.750 -1.1397 -0.7475  0.0741
  112OSM   H13G11612   0.623   1.235   6.667 -1.1930  1.9665 -1.7006
  112OSM   C14F11613   0.791   1.353   6.581  0.2787 -0.0984 -0.5199
  112OSM   H14F11614   0.852   1.272   6.535  3.6338  1.5578  0.6923
  112OSM   H14G11615   0.868   1.424   6.618 -1.1567  1.2496  0.0102
  112OSM   C15F11616   0.709   1.429   6.481 -0.3191 -0.1330  0.4169
  112OSM   H15F11617   0.642   1.500   6.534 -0.4664 -0.2150  0.3398
  112OSM   H15G11618   0.642   1.351   6.439  0.3195 -0.4694 -0.0036
  112OSM   C16F11619   0.782   1.487   6.365  0.0127 -0.3808 -0.2697
  112OSM   H16F11620   0.826   1.586   6.391 -2.3629  0.3037  1.4319
  112OSM   H16G11621   0.706   1.493   6.284 -0.1106  0.0275 -0.1285
  112OSM   C17F11622   0.904   1.404   6.320  0.2504 -0.4174  0.0964
  112OSM   H17F11623   0.982   1.396   6.399  0.0645  0.5394  0.3851
  112OSM   H17G11624   0.948   1.460   6.234  0.4447 -0.2324  0.3145
  112OSM   C18F11625   0.856   1.259   6.264 -0.2376 -1.1268 -0.2188
  112OSM   H18F11626   0.802   1.270   6.167 -1.6129  0.2279  0.6602
  112OSM   H18G11627   0.783   1.216   6.337 -0.2820  0.9103  0.9978
  112OSM   H18H11628   0.944   1.196   6.239  0.3196 -0.8484  0.9571
  113OSM      N11629   5.039   2.922   8.252 -0.8726 -0.3261  0.8866
  113OSM    C1511630   4.964   3.042   8.312  0.5316 -0.2843  0.6499
  113OSM   H15A11631   4.871   3.007   8.355 -0.7113 -0.9463 -2.2974
  113OSM   H15B11632   4.931   3.111   8.235  2.6557 -1.5414 -1.5436
  113OSM   H15C11633   5.016   3.101   8.386  2.6532  0.9449 -1.6780
  113OSM    C1411634   5.178   2.963   8.208 -0.0663  0.4443 -0.1226
  113OSM   H14A11635   5.225   3.023   8.285  0.0196 -0.4880  0.5815
  113OSM   H14B11636   5.174   3.022   8.119  0.3779  0.3522 -0.2047
  113OSM   H14C11637   5.231   2.872   8.183 -0.1018  0.6585 -0.9892
  113OSM    C1311638   5.062   2.824   8.357 -0.2288 -0.6034 -0.6009
  113OSM   H13A11639   4.962   2.805   8.393 -1.2823  2.7482 -1.3937
  113OSM   H13B11640   5.130   2.858   8.433 -2.9686  1.8670  0.9402
  113OSM   H13C11641   5.093   2.732   8.310 -0.7878 -1.3095  0.3844
  113OSM    C1211642   4.965   2.850   8.143 -1.1671 -0.0286 -0.7504
  113OSM   H12A11643   4.928   2.928   8.079  1.1780  1.5098 -0.3413
  113OSM   H12B11644   4.874   2.803   8.178 -1.1429  0.2660 -0.2846
  113OSM    C1111645   5.047   2.754   8.055  0.3742  0.2704 -0.3046
  113OSM   H11A11646   5.147   2.797   8.036  0.9303 -0.4150  0.9560
  113OSM   H11B11647   4.986   2.755   7.962  0.6399  0.0379 -0.4817
  113OSM      P11648   4.952   2.528   8.125 -0.1666  0.1211 -0.4684
  113OSM    O1311649   5.000   2.410   8.197  0.0498 -0.3578 -0.5537
  113OSM    O1411650   4.835   2.597   8.181  0.5221 -0.0957 -0.3464
  113OSM    O1111651   4.923   2.497   7.970  0.1018 -0.3790 -0.2829
  113OSM    O1211652   5.070   2.633   8.117  0.0620 -0.1533 -0.2563
  113OSM    C1S11653   5.005   2.410   7.893 -0.6055 -0.1112 -0.4016
  113OSM    H1S11654   5.068   2.336   7.947 -2.2431 -0.8103  0.6018
  113OSM    H1T11655   5.080   2.476   7.844  0.4605 -1.6508 -0.9152
  113OSM     NF11656   5.009   2.235   7.725  0.2012 -0.7274 -0.4905
  113OSM    HNF11657   5.062   2.265   7.647 -0.7625  1.3812 -0.4204
  113OSM    C2S11658   4.929   2.339   7.782  0.7119  0.0345 -0.8723
  113OSM    H2S11659   4.849   2.287   7.839  0.8982  2.1438  1.5308
  113OSM    C3S11660   4.870   2.449   7.689 -0.6612 -0.2815 -0.4342
  113OSM    H3S11661   4.966   2.500   7.666  0.1529 -2.1097 -1.2984
  113OSM     O311662   4.784   2.542   7.746  0.0791 -0.4393  0.0882
  113OSM    HO311663   4.811   2.527   7.837  1.1821  1.1455  0.0801
  113OSM    C4S11664   4.802   2.390   7.569 -0.5196 -0.0492 -0.0807
  113OSM    H4S11665   4.716   2.326   7.592 -0.2343  0.7698  4.0313
  113OSM    C5S11666   4.835   2.418   7.440  0.0431 -0.1203 -0.4039
  113OSM    H5S11667   4.914   2.494   7.427  1.5401 -1.0014  2.6999
  113OSM    C6S11668   4.767   2.366   7.318 -0.5848 -0.1522 -0.0745
  113OSM    H6S11669   4.748   2.454   7.252 -0.3031  0.2672  0.3961
  113OSM    H6T11670   4.662   2.332   7.333 -0.8111 -1.0919 -2.9887
  113OSM    C7S11671   4.835   2.247   7.236  0.4051 -0.1589  0.5532
  113OSM    H7S11672   4.837   2.156   7.299 -1.3876  0.3580  1.4605
  113OSM    H7T11673   4.934   2.271   7.194 -0.6067 -1.7099 -3.0891
  113OSM    C8S11674   4.751   2.209   7.112  0.7168  1.5924  0.1958
  113OSM    H8S11675   4.730   2.299   7.050  1.1876  0.8380 -1.0877
  113OSM    H8T11676   4.649   2.177   7.143  0.5310  0.5515 -1.3957
  113OSM    C9S11677   4.807   2.097   7.027  0.2100 -0.6386  0.1782
  113OSM    H9S11678   4.815   1.999   7.078  0.4990 -1.7264 -1.8503
  113OSM    H9T11679   4.911   2.126   6.999 -0.9210  2.5815 -1.1020
  113OSM   C10S11680   4.743   2.076   6.890  0.3965  0.2917 -0.5131
  113OSM   H10S11681   4.755   2.173   6.837  3.0140  0.2565 -0.1308
  113OSM   H10T11682   4.634   2.058   6.897  0.4676 -1.3159 -2.7436
  113OSM   C11S11683   4.792   1.959   6.794 -0.0322 -0.3299 -0.4582
  113OSM   H11S11684   4.778   1.865   6.852 -2.8637  1.4517  2.1182
  113OSM   H11T11685   4.898   1.982   6.770  0.6482 -1.6461  1.1042
  113OSM   C12S11686   4.708   1.960   6.666  0.3988  0.3640  0.3241
  113OSM   H12S11687   4.602   1.931   6.681  0.5857 -1.7224 -1.7639
  113OSM   H12T11688   4.756   1.874   6.615  0.3079 -0.0707  0.9543
  113OSM   C13S11689   4.714   2.077   6.574  0.1896  0.5888 -0.4325
  113OSM   H13S11690   4.816   2.102   6.541  0.0833  0.7230 -0.6571
  113OSM   H13T11691   4.672   2.166   6.626 -1.1041 -0.2183 -0.0188
  113OSM   C14S11692   4.632   2.046   6.445 -0.1769 -0.0650  0.5963
  113OSM   H14S11693   4.545   1.980   6.463 -0.1702  0.1213  1.3390
  113OSM   H14T11694   4.688   1.981   6.375 -3.0873  0.0868 -2.1259
  113OSM   C15S11695   4.597   2.179   6.370 -0.3082  0.3818 -0.5472
  113OSM   H15S11696   4.688   2.243   6.375  1.1532 -1.6487  0.1316
  113OSM   H15T11697   4.516   2.225   6.430  0.1653 -0.3597  0.6921
  113OSM   C16S11698   4.573   2.170   6.219  0.0915 -0.2538  0.2123
  113OSM   H16S11699   4.519   2.259   6.179  0.8664 -0.2802 -0.9413
  113OSM   H16T11700   4.533   2.068   6.198  3.1152 -1.0316 -2.5642
  113OSM   C17S11701   4.703   2.170   6.151  0.6219  0.3703  0.6876
  113OSM   H17S11702   4.775   2.100   6.199 -0.3488 -0.2370  1.2916
  113OSM   H17T11703   4.756   2.265   6.171 -0.4307  0.8716  1.1545
  113OSM   C18S11704   4.690   2.148   6.000 -0.8897 -0.6512 -0.1689
  113OSM   H18S11705   4.638   2.056   5.966 -0.0875 -1.0201 -0.4324
  113OSM   H18T11706   4.791   2.148   5.954 -0.2136 -2.2818  1.2014
  113OSM   H18U11707   4.624   2.224   5.953  1.8955  1.9385 -0.2131
  113OSM    C1F11708   5.027   2.114   7.784 -0.4239 -0.5275 -0.1011
  113OSM     OF11709   4.986   2.094   7.894 -0.4123  0.3803 -0.3161
  113OSM    C2F11710   5.095   2.002   7.706 -0.1071  0.3447  0.0607
  113OSM    H2F11711   5.191   1.968   7.752 -1.5984 -1.4878  2.0536
  113OSM    H2G11712   5.116   2.045   7.606 -2.2243  0.6903 -0.2823
  113OSM    C3F11713   4.988   1.894   7.671 -0.4625 -0.3290 -0.5521
  113OSM    H3F11714   4.907   1.953   7.622 -1.5956  0.1805  1.7761
  113OSM    H3G11715   4.935   1.858   7.762 -0.5205 -0.0222 -0.4603
  113OSM    C4F11716   5.033   1.775   7.585 -0.0719  0.7514 -0.4027
  113OSM    H4F11717   4.941   1.719   7.557 -0.9526  1.8832  0.1529
  113OSM    H4G11718   5.091   1.705   7.650 -0.5264 -0.1546 -0.9541
  113OSM    C5F11719   5.119   1.796   7.455  0.2717 -0.0995 -0.6495
  113OSM    H5F11720   5.200   1.869   7.476  0.0486  0.5296 -1.8809
  113OSM    H5G11721   5.055   1.843   7.377 -0.1140 -0.2715 -0.4410
  113OSM    C6F11722   5.162   1.666   7.393  0.2949  0.0608 -0.5074
  113OSM    H6F11723   5.067   1.611   7.374  0.4054  0.5962 -3.0830
  113OSM    H6G11724   5.220   1.604   7.465  0.9304 -0.0547 -1.1056
  113OSM    C7F11725   5.228   1.668   7.260 -0.0136  0.8530  0.6748
  113OSM    H7F11726   5.325   1.722   7.266  0.5810  0.0113 -0.5980
  113OSM    H7G11727   5.165   1.706   7.177 -1.2772 -0.8396  0.8176
  113OSM    C8F11728   5.267   1.524   7.205 -0.2871 -0.3707  0.4785
  113OSM    H8F11729   5.170   1.479   7.175 -0.6717  0.5537  0.2817
  113OSM    H8G11730   5.317   1.459   7.280 -1.1367  0.9138  2.2430
  113OSM    C9F11731   5.358   1.543   7.084 -0.8301  1.0249  0.0198
  113OSM    H9F11732   5.459   1.571   7.117 -0.4655  0.0056 -0.1956
  113OSM   C10F11733   5.334   1.540   6.954 -0.4181 -0.0178  0.2150
  113OSM   H10F11734   5.422   1.560   6.891 -0.8804 -0.3600 -0.5580
  113OSM   C11F11735   5.204   1.504   6.887  0.0431 -0.1618 -0.7118
  113OSM   H11F11736   5.128   1.583   6.900  1.0064  0.4490  1.7861
  113OSM   H11G11737   5.155   1.412   6.924 -0.1942  0.7161  1.2577
  113OSM   C12F11738   5.224   1.503   6.727 -0.3453 -0.2629 -0.4428
  113OSM   H12F11739   5.297   1.421   6.712  3.1445  2.2801  1.3402
  113OSM   H12G11740   5.271   1.595   6.689 -0.6989 -0.5456 -1.5981
  113OSM   C13F11741   5.085   1.486   6.664  0.3373  0.1390  0.5377
  113OSM   H13F11742   5.008   1.559   6.696  1.0752  0.7980  0.8629
  113OSM   H13G11743   5.051   1.390   6.707  1.4617  0.2012  1.6083
  113OSM   C14F11744   5.092   1.470   6.513  0.4351 -0.4075  0.3302
  113OSM   H14F11745   4.991   1.445   6.472  0.4805 -1.1289  0.6572
  113OSM   H14G11746   5.161   1.390   6.480  2.7778  0.8247  1.9721
  113OSM   C15F11747   5.124   1.606   6.441  0.4525 -0.2543 -0.2875
  113OSM   H15F11748   5.216   1.647   6.487 -0.1750 -0.6798  1.4127
  113OSM   H15G11749   5.046   1.682   6.463  0.1502 -0.8590  0.8247
  113OSM   C16F11750   5.137   1.591   6.287 -0.4285  0.1101  0.4531
  113OSM   H16F11751   5.037   1.548   6.263 -0.3390  0.3383 -0.3765
  113OSM   H16G11752   5.221   1.519   6.278  0.9406  1.8762 -2.4787
  113OSM   C17F11753   5.163   1.712   6.197  0.3900  0.1624 -0.7456
  113OSM   H17F11754   5.163   1.689   6.088 -1.4881 -0.9654 -0.5432
  113OSM   H17G11755   5.268   1.740   6.221 -0.1830  0.3407  1.9140
  113OSM   C18F11756   5.069   1.835   6.221 -0.1250  0.6462 -0.6890
  113OSM   H18F11757   4.971   1.823   6.171 -0.8201 -0.4872  0.8678
  113OSM   H18G11758   5.123   1.923   6.178 -0.2507  2.1784  2.0242
  113OSM   H18H11759   5.056   1.857   6.329  0.6755 -0.0745 -0.4317
  114OSM      N11760   4.412   0.609   8.500 -0.4384  0.6782 -0.2746
  114OSM    C1511761   4.506   0.630   8.612 -0.4999 -0.3932 -0.1282
  114OSM   H15A11762   4.564   0.545   8.645  2.5155  1.4202 -0.3582
  114OSM   H15B11763   4.446   0.660   8.697  0.2822 -2.0201  1.0719
  114OSM   H15C11764   4.588   0.697   8.594  0.3886 -1.4035  0.0396
  114OSM    C1411765   4.307   0.504   8.537  0.5747  0.1591  0.5010
  114OSM   H14A11766   4.351   0.406   8.553  0.0711 -0.1724 -0.0823
  114OSM   H14B11767   4.238   0.486   8.456 -0.3125 -1.3456  1.5382
  114OSM   H14C11768   4.254   0.531   8.627  1.0863  0.6055  0.6759
  114OSM    C1311769   4.348   0.736   8.460 -0.5373  0.4288  0.4682
  114OSM   H13A11770   4.301   0.730   8.363  0.6202  2.1134 -0.2457
  114OSM   H13B11771   4.412   0.823   8.460  2.0465 -1.3809  0.5849
  114OSM   H13C11772   4.269   0.751   8.532 -0.2623 -0.7285  1.0412
  114OSM    C1211773   4.502   0.577   8.389  0.6659  0.8047  0.4651
  114OSM   H12A11774   4.556   0.484   8.398 -0.7605 -0.1098 -0.1460
  114OSM   H12B11775   4.566   0.663   8.376  3.0605 -1.1209 -1.5419
  114OSM    C1111776   4.434   0.586   8.241  0.9323 -0.6112 -0.8330
  114OSM   H11A11777   4.336   0.536   8.258  1.1773 -0.6532  0.5992
  114OSM   H11B11778   4.490   0.516   8.176  0.8822  0.1867 -1.7655
  114OSM      P11779   4.543   0.784   8.115  0.3973 -0.0982  0.3303
  114OSM    O1311780   4.491   0.865   8.006 -0.0519 -0.9886 -0.0721
  114OSM    O1411781   4.627   0.859   8.209  0.0085 -0.5256  0.6836
  114OSM    O1111782   4.620   0.669   8.052 -0.7734 -0.4483  0.6316
  114OSM    O1211783   4.421   0.722   8.195  0.0340  0.4272 -0.3925
  114OSM    C1S11784   4.589   0.597   7.929 -0.1474  0.4019  0.6948
  114OSM    H1S11785   4.481   0.607   7.906  0.1223 -0.1993 -0.9451
  114OSM    H1T11786   4.623   0.492   7.935  0.1080  0.4706  0.4872
  114OSM     NF11787   4.610   0.606   7.686  0.0114 -0.7999  0.7809
  114OSM    HNF11788   4.669   0.536   7.647 -0.8873 -0.4664 -1.2730
  114OSM    C2S11789   4.660   0.663   7.805 -0.2684  0.0158  0.2433
  114OSM    H2S11790   4.632   0.771   7.797 -1.6613 -0.3685 -0.6245
  114OSM    C3S11791   4.819   0.659   7.825  0.0318  0.1153 -0.0317
  114OSM    H3S11792   4.853   0.555   7.844 -1.4670 -0.5816 -0.9023
  114OSM     O311793   4.853   0.740   7.938  0.0798  0.0637 -0.5406
  114OSM    HO311794   4.777   0.740   7.996  1.0407  2.8719  0.8818
  114OSM    C4S11795   4.903   0.715   7.701 -0.0613  0.7039 -0.1409
  114OSM    H4S11796   4.911   0.824   7.716  1.5566  0.3483  2.0125
  114OSM    C5S11797   4.976   0.650   7.604  0.0285 -0.8731  0.0828
  114OSM    H5S11798   4.977   0.540   7.605  1.1775 -0.8802  0.1377
  114OSM    C6S11799   5.065   0.723   7.500  0.2729 -0.2174  0.3141
  114OSM    H6S11800   5.148   0.653   7.477 -1.9727 -2.5804 -1.1738
  114OSM    H6T11801   5.112   0.816   7.538 -0.2196  0.4553 -0.6841
  114OSM    C7S11802   4.987   0.747   7.375 -0.2658 -0.1059  0.6677
  114OSM    H7S11803   4.911   0.826   7.395  1.7727  2.1883 -0.1646
  114OSM    H7T11804   4.929   0.658   7.342  1.1916 -0.9997  0.4166
  114OSM    C8S11805   5.081   0.794   7.265 -0.4261  0.1219  0.0090
  114OSM    H8S11806   5.168   0.725   7.256 -0.3314  0.2809 -0.3077
  114OSM    H8T11807   5.126   0.891   7.292  0.7780 -0.2740 -0.5091
  114OSM    C9S11808   5.031   0.787   7.121 -0.8113 -0.2812  0.8342
  114OSM    H9S11809   4.944   0.855   7.103 -1.4274 -1.5165 -1.1437
  114OSM    H9T11810   4.985   0.687   7.109 -1.6886  0.0592  1.2060
  114OSM   C10S11811   5.143   0.807   7.006  0.6676 -0.1740 -0.6141
  114OSM   H10S11812   5.097   0.788   6.907  1.7328 -3.5806 -0.6019
  114OSM   H10T11813   5.221   0.729   7.020 -2.8178 -4.0248 -0.6827
  114OSM   C11S11814   5.212   0.944   6.993 -0.5165  0.1107 -0.3155
  114OSM   H11S11815   5.262   0.974   7.088 -0.4605 -0.2466 -0.2282
  114OSM   H11T11816   5.139   1.027   6.988  0.5317  1.0441 -0.6066
  114OSM   C12S11817   5.305   0.956   6.867  0.2083 -0.5613 -0.2434
  114OSM   H12S11818   5.405   0.907   6.875  1.3567  1.8778  1.4087
  114OSM   H12T11819   5.318   1.066   6.861  2.1198 -0.7564 -0.4425
  114OSM   C13S11820   5.254   0.905   6.734  0.5868  0.3757 -0.4084
  114OSM   H13S11821   5.156   0.951   6.707  0.7450  0.5935 -0.6076
  114OSM   H13T11822   5.231   0.798   6.752 -1.3515  1.1069  2.0059
  114OSM   C14S11823   5.348   0.927   6.622 -0.1475 -0.2000 -0.1216
  114OSM   H14S11824   5.331   0.857   6.537 -0.8538  0.1273 -0.2595
  114OSM   H14T11825   5.454   0.907   6.647  1.2205  0.6419 -4.4851
  114OSM   C15S11826   5.336   1.061   6.551  0.3281  0.0798 -0.2615
  114OSM   H15S11827   5.360   1.147   6.618 -1.5934 -0.6806  1.5195
  114OSM   H15T11828   5.228   1.077   6.529 -0.0523  0.7536  1.8741
  114OSM   C16S11829   5.425   1.070   6.421 -0.7436 -0.4859 -0.6016
  114OSM   H16S11830   5.389   0.996   6.347 -1.1584 -1.3983  0.4880
  114OSM   H16T11831   5.535   1.055   6.431 -0.7656 -1.1904 -1.3647
  114OSM   C17S11832   5.408   1.213   6.364  0.2376  0.4511  0.3471
  114OSM   H17S11833   5.423   1.290   6.442  0.0688  0.2393  0.5913
  114OSM   H17T11834   5.303   1.218   6.329 -0.0366 -0.6612  0.9448
  114OSM   C18S11835   5.505   1.232   6.253 -0.0100  0.0402 -0.4495
  114OSM   H18S11836   5.585   1.155   6.249 -0.0899 -0.1510  0.9714
  114OSM   H18T11837   5.538   1.338   6.259 -0.6521  0.1886  0.6854
  114OSM   H18U11838   5.444   1.227   6.161  1.2265 -0.1588 -1.2880
  114OSM    C1F11839   4.487   0.616   7.634  0.4414  0.2120 -0.1967
  114OSM     OF11840   4.400   0.691   7.675 -0.8468  0.1025  0.2189
  114OSM    C2F11841   4.467   0.525   7.509  0.1795  0.3656  0.7465
  114OSM    H2F11842   4.533   0.436   7.514  0.8499  0.7283 -0.8686
  114OSM    H2G11843   4.493   0.589   7.423  0.0564  0.2082  0.5908
  114OSM    C3F11844   4.323   0.480   7.495 -0.8716  0.0634  0.1816
  114OSM    H3F11845   4.256   0.565   7.520 -0.7776 -0.0284  0.7719
  114OSM    H3G11846   4.296   0.415   7.582 -0.0385  0.6996  0.9412
  114OSM    C4F11847   4.293   0.413   7.357 -0.3400 -0.5519  0.2963
  114OSM    H4F11848   4.189   0.374   7.365  0.0420 -1.2672  2.3792
  114OSM    H4G11849   4.369   0.337   7.330  0.4668  1.2057 -2.8877
  114OSM    C5F11850   4.291   0.513   7.238  0.0202  0.5319  0.2619
  114OSM    H5F11851   4.392   0.555   7.221  0.4410 -0.7415 -0.4983
  114OSM    H5G11852   4.225   0.599   7.261 -1.4258 -0.2855 -0.6734
  114OSM    C6F11853   4.231   0.447   7.109  0.2693 -0.2201 -0.0089
  114OSM    H6F11854   4.132   0.403   7.132 -0.2555 -0.0220 -1.7360
  114OSM    H6G11855   4.300   0.362   7.090  0.8106 -0.0688  1.1965
  114OSM    C7F11856   4.236   0.532   6.979 -0.1329 -0.8982 -0.4016
  114OSM    H7F11857   4.216   0.465   6.892 -0.3318  1.8020 -2.5477
  114OSM    H7G11858   4.335   0.582   6.973 -0.6249  0.0857 -0.4543
  114OSM    C8F11859   4.125   0.637   6.974 -0.0025 -0.8223  0.0240
  114OSM    H8F11860   4.131   0.707   7.060 -1.7364  0.5580 -0.9045
  114OSM    H8G11861   4.023   0.595   6.973  0.0810 -1.0227 -0.1194
  114OSM    C9F11862   4.149   0.721   6.848 -0.0699 -0.4251  0.3312
  114OSM    H9F11863   4.225   0.798   6.867 -1.9696  1.2945  1.3991
  114OSM   C10F11864   4.086   0.719   6.729 -0.0375  0.0323  0.3506
  114OSM   H10F11865   4.117   0.786   6.648  1.7221  0.5393  1.3897
  114OSM   C11F11866   3.977   0.623   6.688 -0.2461  0.5213  0.2963
  114OSM   H11F11867   3.962   0.544   6.765 -1.5367 -0.1127 -0.5778
  114OSM   H11G11868   4.015   0.566   6.601  0.1398 -0.7263  1.2368
  114OSM   C12F11869   3.841   0.687   6.640  0.6103  0.2742 -0.4362
  114OSM   H12F11870   3.846   0.729   6.537 -1.0239 -1.2636 -1.1987
  114OSM   H12G11871   3.811   0.768   6.711 -0.3968 -0.4205 -0.0526
  114OSM   C13F11872   3.735   0.572   6.635  0.8881 -0.5285 -0.0368
  114OSM   H13F11873   3.702   0.542   6.737  2.7205  0.0724  0.7719
  114OSM   H13G11874   3.785   0.486   6.586  0.6308  0.2048 -1.6542
  114OSM   C14F11875   3.604   0.604   6.545 -0.4086 -0.0162  0.0973
  114OSM   H14F11876   3.564   0.532   6.471 -0.2674  1.6435 -1.6650
  114OSM   H14G11877   3.624   0.693   6.482 -0.9796 -1.2148 -1.8529
  114OSM   C15F11878   3.482   0.665   6.635 -0.6113 -0.9036  0.0323
  114OSM   H15F11879   3.417   0.710   6.558  1.3547  2.0336 -0.0663
  114OSM   H15G11880   3.520   0.744   6.703 -3.2828  1.0096 -0.5457
  114OSM   C16F11881   3.395   0.567   6.720  0.2602 -0.3465  0.0708
  114OSM   H16F11882   3.453   0.511   6.797  2.2179  2.1155  0.5360
  114OSM   H16G11883   3.329   0.502   6.659 -0.7675  2.1254 -1.6069
  114OSM   C17F11884   3.288   0.647   6.802  0.2073 -0.8713 -0.1030
  114OSM   H17F11885   3.221   0.708   6.739 -0.7490  1.1228  2.6511
  114OSM   H17G11886   3.349   0.714   6.867 -1.2412  0.5322 -0.1307
  114OSM   C18F11887   3.211   0.571   6.906 -0.1472  0.1516  0.0428
  114OSM   H18F11888   3.145   0.633   6.970  1.0004  1.1602  0.2751
  114OSM   H18G11889   3.273   0.523   6.985  0.9668 -0.2805 -1.0606
  114OSM   H18H11890   3.145   0.489   6.870 -1.5068  0.7868  1.0158
  115OSM      N11891   2.775   4.293   8.556  0.0019  0.3579  0.8114
  115OSM    C1511892   2.865   4.393   8.498 -0.8585  0.7894 -0.6689
  115OSM   H15A11893   2.947   4.404   8.567 -2.1059  0.3973  0.9348
  115OSM   H15B11894   2.811   4.487   8.496 -1.4993  0.4591  0.5167
  115OSM   H15C11895   2.917   4.363   8.408 -2.0044 -1.0506 -0.7679
  115OSM    C1411896   2.765   4.320   8.696  0.0660 -0.1704 -0.1731
  115OSM   H14A11897   2.863   4.343   8.736  0.3902 -2.0085  0.1856
  115OSM   H14B11898   2.712   4.255   8.764  3.2717  0.2695  3.0839
  115OSM   H14C11899   2.718   4.415   8.718 -0.7571 -0.4200 -0.8297
  115OSM    C1311900   2.639   4.304   8.497  0.5640  0.0380 -0.4115
  115OSM   H13A11901   2.595   4.402   8.497  0.9565  0.2285  0.6615
  115OSM   H13B11902   2.567   4.235   8.540  0.2617 -0.7774 -2.1290
  115OSM   H13C11903   2.646   4.269   8.395  3.0517 -0.7626 -0.0517
  115OSM    C1211904   2.842   4.154   8.543 -0.3345 -0.4833 -0.5690
  115OSM   H12A11905   2.782   4.079   8.592  0.3035 -1.7004 -1.6152
  115OSM   H12B11906   2.937   4.145   8.593 -1.1970 -3.9427  0.6927
  115OSM    C1111907   2.873   4.104   8.400  0.2716  0.4727 -0.4999
  115OSM   H11A11908   2.931   4.010   8.404 -1.0515 -0.3363  1.9426
  115OSM   H11B11909   2.949   4.176   8.361  2.1938 -1.3202 -0.1892
  115OSM      P11910   2.646   3.997   8.326 -0.6400 -0.2945  0.1083
  115OSM    O1311911   2.683   3.886   8.236 -0.1613  0.2146  0.2154
  115OSM    O1411912   2.618   3.965   8.464 -0.0745 -0.0857 -0.2234
  115OSM    O1111913   2.524   4.066   8.267  0.2363  0.0467  0.2006
  115OSM    O1211914   2.755   4.104   8.319 -0.1405 -0.0952  0.2245
  115OSM    C1S11915   2.528   4.151   8.148  0.4949 -0.3005  0.0279
  115OSM    H1S11916   2.621   4.142   8.088  0.3451  0.7064 -0.3739
  115OSM    H1T11917   2.508   4.257   8.175  0.5250 -0.2547 -0.1313
  115OSM     NF11918   2.423   4.192   7.924  0.4611  0.6800 -0.0910
  115OSM    HNF11919   2.370   4.276   7.914  1.2977  1.4147  1.4262
  115OSM    C2S11920   2.415   4.119   8.051  0.1741  0.4312 -0.6077
  115OSM    H2S11921   2.418   4.013   8.019  1.2121  0.3011 -0.1243
  115OSM    C3S11922   2.279   4.138   8.127  0.6767 -0.1091  0.2438
  115OSM    H3S11923   2.269   4.247   8.149  2.0246  0.6197 -2.3678
  115OSM     O311924   2.266   4.073   8.255 -0.3214 -0.6570 -0.3850
  115OSM    HO311925   2.353   4.041   8.282 -0.9487 -2.1665 -0.0605
  115OSM    C4S11926   2.159   4.105   8.038  0.2552 -0.7691 -0.0738
  115OSM    H4S11927   2.162   4.158   7.942  0.5099 -0.1159  0.2871
  115OSM    C5S11928   2.076   3.997   8.046 -0.5827  0.3132  0.6752
  115OSM    H5S11929   2.086   3.927   8.130 -0.8938 -0.1747  0.3206
  115OSM    C6S11930   1.973   3.952   7.941 -0.4829  0.2435 -0.6141
  115OSM    H6S11931   1.936   4.050   7.903  2.9554  1.3442 -1.5541
  115OSM    H6T11932   1.899   3.884   7.989 -0.6934  1.2529  0.5422
  115OSM    C7S11933   2.036   3.868   7.827 -0.0618 -0.2066 -0.0588
  115OSM    H7S11934   2.082   3.776   7.869  2.6095  1.5363  1.1598
  115OSM    H7T11935   2.126   3.914   7.780  0.7168 -0.1548  1.4050
  115OSM    C8S11936   1.934   3.842   7.716  0.4989  0.7197  0.1284
  115OSM    H8S11937   1.832   3.867   7.754 -0.7219 -2.0965 -1.0717
  115OSM    H8T11938   1.927   3.741   7.671 -0.3850  0.6730  0.3531
  115OSM    C9S11939   1.967   3.934   7.599  0.5355  0.1924  0.4196
  115OSM    H9S11940   2.064   3.898   7.559  0.6554  1.3583 -0.4012
  115OSM    H9T11941   1.986   4.038   7.632  1.0201  0.1326  0.3319
  115OSM   C10S11942   1.850   3.929   7.498  0.3915 -0.2099 -0.1686
  115OSM   H10S11943   1.755   3.940   7.555 -0.9182 -1.9789 -1.8721
  115OSM   H10T11944   1.846   3.825   7.459 -0.1334 -0.2546 -0.0056
  115OSM   C11S11945   1.855   4.031   7.383 -0.3138 -0.7671  0.3827
  115OSM   H11S11946   1.947   4.093   7.391 -1.1535  0.4345  0.9798
  115OSM   H11T11947   1.766   4.097   7.387 -2.4122 -3.4903  2.8238
  115OSM   C12S11948   1.862   3.957   7.246  0.2845 -0.5304 -0.1826
  115OSM   H12S11949   1.777   3.886   7.255  0.2055 -0.9124 -3.1117
  115OSM   H12T11950   1.959   3.905   7.241  0.8200  0.3843  0.3963
  115OSM   C13S11951   1.843   4.045   7.119 -0.5672  0.4222 -0.2452
  115OSM   H13S11952   1.928   4.116   7.123  0.2532 -0.4960 -0.9924
  115OSM   H13T11953   1.755   4.111   7.136 -0.7194  0.3777 -0.8595
  115OSM   C14S11954   1.844   3.976   6.984  0.4968  0.8205  0.1668
  115OSM   H14S11955   1.941   3.948   6.938 -1.3693 -1.6357 -2.6823
  115OSM   H14T11956   1.817   4.060   6.917  0.7754 -0.1864 -1.2502
  115OSM   C15S11957   1.747   3.859   6.979 -0.9536  0.3571  0.3090
  115OSM   H15S11958   1.647   3.874   7.025 -0.7899  1.8216  0.2233
  115OSM   H15T11959   1.787   3.764   7.021  0.9506  1.6954  1.7370
  115OSM   C16S11960   1.705   3.836   6.830 -0.3762  0.6886 -0.0614
  115OSM   H16S11961   1.798   3.794   6.786 -0.3667 -0.7371  1.2285
  115OSM   H16T11962   1.675   3.934   6.788 -0.8602  0.8430  0.6317
  115OSM   C17S11963   1.593   3.733   6.811  0.1931  0.5903 -0.1824
  115OSM   H17S11964   1.497   3.787   6.827  0.9594  2.1381 -0.5646
  115OSM   H17T11965   1.607   3.659   6.892 -0.2849 -0.0900 -0.7129
  115OSM   C18S11966   1.611   3.650   6.682  0.5158  0.3208  0.3871
  115OSM   H18S11967   1.714   3.610   6.687  0.3600 -0.9607 -3.2134
  115OSM   H18T11968   1.590   3.702   6.586 -2.0420 -0.5507  0.3813
  115OSM   H18U11969   1.539   3.567   6.694  0.3590  0.5873  1.3493
  115OSM    C1F11970   2.503   4.160   7.820  0.5239 -0.4841  1.5008
  115OSM     OF11971   2.588   4.066   7.826 -0.1972  0.2232 -0.8697
  115OSM    C2F11972   2.492   4.237   7.692  0.1386 -0.0174 -0.1978
  115OSM    H2F11973   2.584   4.296   7.672 -2.1008  4.0586  0.5738
  115OSM    H2G11974   2.408   4.309   7.701  0.4196  0.3809 -0.6940
  115OSM    C3F11975   2.447   4.145   7.580 -0.7919 -1.0330  0.3218
  115OSM    H3F11976   2.354   4.086   7.588 -0.6521 -1.3323 -0.2045
  115OSM    H3G11977   2.530   4.074   7.558 -0.6183 -1.3917  1.9810
  115OSM    C4F11978   2.435   4.225   7.449  0.1005  0.4118 -0.0436
  115OSM    H4F11979   2.523   4.287   7.424 -0.5152  1.8488  1.2063
  115OSM    H4G11980   2.340   4.282   7.461  0.2294  0.3656  1.3885
  115OSM    C5F11981   2.408   4.125   7.329 -0.5860 -0.1838  0.2739
  115OSM    H5F11982   2.332   4.054   7.368  0.1305 -0.1117  1.8985
  115OSM    H5G11983   2.493   4.062   7.296 -0.7866  0.2663 -1.1651
  115OSM    C6F11984   2.336   4.188   7.211 -0.5439 -0.0744  0.1759
  115OSM    H6F11985   2.412   4.242   7.151  0.8842 -1.1357  0.9586
  115OSM    H6G11986   2.251   4.248   7.249  0.1710  0.3129  1.2243
  115OSM    C7F11987   2.279   4.079   7.116  0.0550  0.2490  0.4140
  115OSM    H7F11988   2.191   4.033   7.167 -1.3062  2.1880 -0.0704
  115OSM    H7G11989   2.358   4.002   7.103 -0.5238  0.1039 -3.2460
  115OSM    C8F11990   2.231   4.125   6.975  0.3321  0.7364 -0.9058
  115OSM    H8F11991   2.313   4.190   6.937  0.2772  0.4725 -1.4804
  115OSM    H8G11992   2.135   4.180   6.990 -0.3726 -0.6744 -0.1108
  115OSM    C9F11993   2.226   4.009   6.876 -0.0109  0.0251 -0.1848
  115OSM    H9F11994   2.298   3.928   6.893  0.4336 -0.0063 -2.0510
  115OSM   C10F11995   2.144   4.011   6.768 -0.3290  0.1788  1.0904
  115OSM   H10F11996   2.164   3.931   6.695  2.4134  0.5213  1.3492
  115OSM   C11F11997   2.056   4.126   6.728 -0.1013 -0.5935  0.0780
  115OSM   H11F11998   2.100   4.173   6.638 -1.2065 -0.8708 -0.6253
  115OSM   H11G11999   2.033   4.207   6.801 -1.2196 -0.7341 -0.0944
  115OSM   C12F12000   1.918   4.084   6.658  0.1768 -0.6935  0.4187
  115OSM   H12F12001   1.831   4.141   6.698  1.0402 -0.8580  2.6872
  115OSM   H12G12002   1.894   3.978   6.678 -3.1103 -0.5134 -1.7151
  115OSM   C13F12003   1.927   4.091   6.503 -0.1971 -0.2800  0.3680
  115OSM   H13F12004   2.027   4.055   6.472  0.0382 -0.2362  1.0648
  115OSM   H13G12005   1.923   4.196   6.468  0.2943 -0.8516 -1.5540
  115OSM   C14F12006   1.811   4.023   6.427  0.2068  0.9996 -0.0305
  115OSM   H14F12007   1.709   4.053   6.459  0.0892  0.3476  0.2165
  115OSM   H14G12008   1.808   3.914   6.445 -1.2747  0.3939 -3.2650
  115OSM   C15F12009   1.811   4.051   6.277 -0.2228 -0.1227 -0.4554
  115OSM   H15F12010   1.913   4.026   6.243 -0.1173  1.1445 -1.1222
  115OSM   H15G12011   1.793   4.160   6.262  1.8143  0.5056  1.2181
  115OSM   C16F12012   1.707   3.962   6.200  0.0136 -0.2278 -0.2682
  115OSM   H16F12013   1.614   3.976   6.258  0.8733 -1.3111  1.4255
  115OSM   H16G12014   1.723   3.853   6.209  0.7519 -0.3261 -2.1354
  115OSM   C17F12015   1.691   4.003   6.057 -0.2235  0.0210 -0.9974
  115OSM   H17F12016   1.784   3.983   6.001 -0.0585 -1.2844 -0.2819
  115OSM   H17G12017   1.695   4.113   6.072  2.6679 -0.2899  1.4175
  115OSM   C18F12018   1.577   3.944   5.988 -0.1718  0.6020 -0.0390
  115OSM   H18F12019   1.552   4.006   5.899  0.1045  0.4120 -0.2498
  115OSM   H18G12020   1.482   3.953   6.045  1.0588  2.1945  1.9102
  115OSM   H18H12021   1.593   3.839   5.957  0.2852  0.9546 -1.0482
  116OSM      N12022   6.136   2.451   8.053 -0.2634 -0.7293  0.5244
  116OSM    C1512023   6.024   2.497   8.135 -0.3234  0.2383 -0.6030
  116OSM   H15A12024   6.059   2.574   8.200 -0.0489 -1.3634  1.2383
  116OSM   H15B12025   6.004   2.408   8.194  3.2651 -0.2931  0.0116
  116OSM   H15C12026   5.931   2.514   8.083 -1.8262 -1.9529  1.1811
  116OSM    C1412027   6.102   2.311   8.007  0.6155  0.6140  0.3347
  116OSM   H14A12028   6.179   2.284   7.936 -0.1291  2.7292 -1.3586
  116OSM   H14B12029   6.007   2.316   7.956  0.8443  0.8646 -0.0682
  116OSM   H14C12030   6.090   2.236   8.085  1.5445 -2.6627 -2.3931
  116OSM    C1312031   6.154   2.533   7.936  0.3281  0.1716 -0.1034
  116OSM   H13A12032   6.073   2.552   7.868  1.7902  2.9138 -1.2647
  116OSM   H13B12033   6.241   2.494   7.884  1.5095  1.6284  0.6902
  116OSM   H13C12034   6.176   2.636   7.959 -0.0811  0.2682 -0.1438
  116OSM    C1212035   6.265   2.456   8.135 -0.1826 -0.0120 -0.3217
  116OSM   H12A12036   6.247   2.387   8.217  0.1545  0.8467  0.4937
  116OSM   H12B12037   6.283   2.552   8.180  0.5667 -1.0958  1.8419
  116OSM    C1112038   6.407   2.422   8.072  0.1516  0.3864 -0.0721
  116OSM   H11A12039   6.488   2.453   8.141 -0.7815  0.7112  0.9072
  116OSM   H11B12040   6.428   2.486   7.984  0.4230 -0.5531 -0.7010
  116OSM      P12041   6.460   2.179   8.139 -0.0591  0.3445  0.4161
  116OSM    O1312042   6.434   2.229   8.273 -0.1336 -0.0089 -0.1053
  116OSM    O1412043   6.397   2.049   8.109 -0.0041 -0.0454  0.2692
  116OSM    O1112044   6.618   2.168   8.112  0.1558 -0.0102 -0.3704
  116OSM    O1212045   6.413   2.289   8.036 -0.6230  1.0564  0.1457
  116OSM    C1S12046   6.681   2.094   8.007 -0.6386  0.0750 -0.3610
  116OSM    H1S12047   6.650   1.987   8.001  0.7363 -0.5741  2.5017
  116OSM    H1T12048   6.789   2.083   8.031 -0.9275  0.3300  1.1585
  116OSM     NF12049   6.753   2.037   7.774  0.3980  0.3948 -0.3326
  116OSM    HNF12050   6.851   2.049   7.764  0.3144  1.9491  0.4359
  116OSM    C2S12051   6.689   2.137   7.854 -0.0042  0.2669  0.3540
  116OSM    H2S12052   6.583   2.146   7.824 -0.7272 -0.7947  2.4724
  116OSM    C3S12053   6.756   2.278   7.847  0.1148  1.2017  0.0569
  116OSM    H3S12054   6.849   2.260   7.904 -0.4271  0.6781  0.7946
  116OSM     O312055   6.685   2.379   7.922 -0.1590  0.1636 -0.3870
  116OSM    HO312056   6.616   2.329   7.966  1.8753  0.5502  3.8054
  116OSM    C4S12057   6.779   2.321   7.702 -1.1453  0.1403 -1.2537
  116OSM    H4S12058   6.885   2.323   7.672 -0.7391 -1.3725 -0.0547
  116OSM    C5S12059   6.693   2.353   7.606  0.5305  0.1672  0.4976
  116OSM    H5S12060   6.584   2.350   7.618  0.4890 -0.9336 -0.0460
  116OSM    C6S12061   6.744   2.392   7.470 -0.2038  1.0210 -0.0011
  116OSM    H6S12062   6.854   2.386   7.457 -0.2625  0.5204 -0.3145
  116OSM    H6T12063   6.710   2.494   7.442  0.3631  0.3549 -3.7757
  116OSM    C7S12064   6.685   2.297   7.373 -0.3506  0.2206  0.4264
  116OSM    H7S12065   6.580   2.328   7.358 -0.3741 -1.1372 -2.9900
  116OSM    H7T12066   6.679   2.188   7.394  1.1812  0.2626  1.2700
  116OSM    C8S12067   6.751   2.304   7.230  0.4103 -0.7403 -0.1194
  116OSM    H8S12068   6.859   2.328   7.244  0.8369 -1.2239 -2.1639
  116OSM    H8T12069   6.720   2.403   7.188  0.5344 -1.5332 -2.2172
  116OSM    C9S12070   6.703   2.209   7.126 -0.2313  0.0504 -0.1203
  116OSM    H9S12071   6.592   2.202   7.121 -0.1553 -1.1733 -0.4189
  116OSM    H9T12072   6.739   2.110   7.162 -0.6245  0.3351  1.1184
  116OSM   C10S12073   6.758   2.247   6.986 -0.1889  1.0608 -0.1473
  116OSM   H10S12074   6.868   2.256   6.994 -0.1212 -0.5140  1.5455
  116OSM   H10T12075   6.717   2.341   6.944 -0.5305  1.4586  1.0292
  116OSM   C11S12076   6.739   2.139   6.879 -0.3719  0.2807  0.4590
  116OSM   H11S12077   6.630   2.133   6.859 -0.3689 -1.4932  0.8120
  116OSM   H11T12078   6.770   2.039   6.915  2.3188  1.0592  0.5403
  116OSM   C12S12079   6.820   2.183   6.755 -0.5678 -0.2671 -1.1131
  116OSM   H12S12080   6.924   2.163   6.789 -0.4197  0.9175 -0.8178
  116OSM   H12T12081   6.810   2.289   6.725 -0.8746  0.9394  2.7675
  116OSM   C13S12082   6.782   2.103   6.627 -0.5142 -0.4279 -0.4913
  116OSM   H13S12083   6.673   2.098   6.607 -0.6470 -3.1692  0.5550
  116OSM   H13T12084   6.806   1.996   6.648  1.7412  0.4544  1.9622
  116OSM   C14S12085   6.853   2.149   6.496  0.8630 -0.8859  0.2551
  116OSM   H14S12086   6.963   2.161   6.505  0.8845 -1.0698  0.2421
  116OSM   H14T12087   6.813   2.248   6.468  0.6244 -1.5956 -2.1722
  116OSM   C15S12088   6.823   2.056   6.379  0.1120  0.3660 -0.1317
  116OSM   H15S12089   6.714   2.033   6.375  0.0196  0.8234 -0.2896
  116OSM   H15T12090   6.880   1.963   6.401 -0.7673  0.0449  0.9582
  116OSM   C16S12091   6.866   2.116   6.242  1.2907  0.5719  0.4148
  116OSM   H16S12092   6.875   2.033   6.168 -0.9279  0.0194  0.6968
  116OSM   H16T12093   6.964   2.168   6.247  1.4638  0.4196 -0.9324
  116OSM   C17S12094   6.760   2.218   6.197  0.2334 -0.8173 -0.3558
  116OSM   H17S12095   6.752   2.304   6.267  0.3582  0.5701 -1.9915
  116OSM   H17T12096   6.658   2.174   6.197 -0.6447  1.1234 -1.2894
  116OSM   C18S12097   6.788   2.277   6.061 -0.0704 -0.5208 -0.5578
  116OSM   H18S12098   6.784   2.193   5.988  1.0930 -2.0734  1.1041
  116OSM   H18T12099   6.888   2.326   6.067 -0.2448 -0.3291  0.9661
  116OSM   H18U12100   6.716   2.358   6.037 -0.3029  0.0799  1.9206
  116OSM    C1F12101   6.681   1.927   7.745  0.3569 -0.2948  0.4177
  116OSM     OF12102   6.558   1.929   7.762  0.1868 -0.0693 -0.2122
  116OSM    C2F12103   6.760   1.810   7.705  0.0196  0.3605 -0.3907
  116OSM    H2F12104   6.717   1.732   7.771 -0.3750  0.0565 -0.9908
  116OSM    H2G12105   6.866   1.828   7.734  0.1595 -0.4509 -0.3892
  116OSM    C3F12106   6.752   1.785   7.555  0.1315  0.2692 -0.0926
  116OSM    H3F12107   6.647   1.774   7.520  1.6199 -0.7231 -4.9293
  116OSM    H3G12108   6.804   1.691   7.530 -1.0592 -0.3992 -0.1492
  116OSM    C4F12109   6.807   1.902   7.473 -0.4190 -0.3696  0.3365
  116OSM    H4F12110   6.750   1.994   7.496 -2.0272 -1.0057 -0.8917
  116OSM    H4G12111   6.792   1.881   7.365  0.0287 -1.3122  0.4458
  116OSM    C5F12112   6.955   1.922   7.493 -0.3230  0.8094  0.2603
  116OSM    H5F12113   7.019   1.831   7.496  0.2758  1.1892 -0.6544
  116OSM    H5G12114   6.970   1.968   7.593 -0.3605  0.8038  0.2684
  116OSM    C6F12115   7.014   2.031   7.408 -0.0253  0.5664  0.4664
  116OSM    H6F12116   6.957   2.124   7.429 -1.2086  0.0281 -0.3070
  116OSM    H6G12117   7.004   2.020   7.298 -1.5809 -0.6058  0.7064
  116OSM    C7F12118   7.169   2.062   7.436 -0.5619  0.6171  0.2721
  116OSM    H7F12119   7.206   1.958   7.450  0.3615  0.6828 -1.4651
  116OSM    H7G12120   7.191   2.121   7.528  0.2193  0.4085  0.2255
  116OSM    C8F12121   7.238   2.135   7.322  0.0368 -0.0632 -0.0016
  116OSM    H8F12122   7.241   2.062   7.238  0.1058  0.2136 -0.2426
  116OSM    H8G12123   7.340   2.154   7.362 -0.9595  1.8970  1.7719
  116OSM    C9F12124   7.176   2.266   7.284  0.0061 -0.3102 -0.1807
  116OSM    H9F12125   7.121   2.323   7.360  1.3147  1.8955 -0.7789
  116OSM   C10F12126   7.180   2.327   7.164  0.4893 -0.3362  0.0295
  116OSM   H10F12127   7.113   2.413   7.149 -2.3712 -2.0456  2.0842
  116OSM   C11F12128   7.261   2.293   7.045 -0.9978  1.0257 -0.5983
  116OSM   H11F12129   7.313   2.196   7.060 -2.3894  0.6020  1.9888
  116OSM   H11G12130   7.335   2.376   7.045 -1.9820  1.9806 -2.5091
  116OSM   C12F12131   7.199   2.301   6.903 -0.1872 -0.2838 -0.1707
  116OSM   H12F12132   7.174   2.408   6.889 -1.4066 -0.5171  0.0864
  116OSM   H12G12133   7.104   2.243   6.892 -1.2227  1.4034 -0.4132
  116OSM   C13F12134   7.282   2.263   6.786 -0.4503 -0.2055 -0.5486
  116OSM   H13F12135   7.292   2.154   6.770 -1.7193 -0.3489 -0.4530
  116OSM   H13G12136   7.385   2.304   6.796 -0.5312 -0.4502  1.8711
  116OSM   C14F12137   7.224   2.335   6.661  0.3703 -0.1776 -0.8725
  116OSM   H14F12138   7.226   2.444   6.680 -0.7226 -0.3061  0.1153
  116OSM   H14G12139   7.115   2.316   6.657  0.0064  1.7521 -1.0681
  116OSM   C15F12140   7.272   2.295   6.522 -0.3293  0.4792  0.4013
  116OSM   H15F12141   7.225   2.204   6.479 -2.0034  1.5403 -0.1434
  116OSM   H15G12142   7.383   2.287   6.528 -0.0723  2.9561  0.1138
  116OSM   C16F12143   7.234   2.409   6.428  0.1731 -0.8767 -0.1938
  116OSM   H16F12144   7.268   2.503   6.475  0.4397 -2.2174  2.5194
  116OSM   H16G12145   7.124   2.396   6.421  0.2119 -0.9203 -0.7127
  116OSM   C17F12146   7.298   2.410   6.286 -0.1823 -0.2597  0.3185
  116OSM   H17F12147   7.236   2.480   6.226  1.0275 -0.2871 -1.0061
  116OSM   H17G12148   7.267   2.308   6.256 -1.2686  0.4539 -1.0798
  116OSM   C18F12149   7.450   2.438   6.276 -0.2904  0.2995 -0.4265
  116OSM   H18F12150   7.481   2.525   6.338 -0.1055 -0.5691  0.7507
  116OSM   H18G12151   7.468   2.466   6.171 -0.3754 -0.2258 -0.5856
  116OSM   H18H12152   7.513   2.348   6.295 -0.5962 -0.2040 -1.6825
  117OSM      N12153   3.230   3.670   8.350 -0.3983  0.2871 -1.1452
  117OSM    C1512154   3.143   3.774   8.401  0.7840  0.6573 -0.0292
  117OSM   H15A12155   3.048   3.776   8.350  0.6167 -0.5543  0.2110
  117OSM   H15B12156   3.187   3.869   8.375 -0.8092  1.9320  1.6909
  117OSM   H15C12157   3.123   3.766   8.506 -2.6233 -1.5622 -0.6765
  117OSM    C1412158   3.344   3.665   8.445 -0.9809  0.1198 -0.2861
  117OSM   H14A12159   3.415   3.591   8.412  3.2443  2.6739  2.1904
  117OSM   H14B12160   3.318   3.631   8.544 -4.0761  1.0636 -0.6600
  117OSM   H14C12161   3.379   3.765   8.465 -0.0721 -0.2187 -0.1284
  117OSM    C1312162   3.153   3.540   8.345  0.1120 -0.0958  0.2455
  117OSM   H13A12163   3.122   3.507   8.443  1.5950 -1.9471  0.1402
  117OSM   H13B12164   3.214   3.460   8.305 -0.7346 -0.4987 -0.2621
  117OSM   H13C12165   3.059   3.549   8.293  0.3402 -2.3055 -0.6738
  117OSM    C1212166   3.271   3.698   8.208 -0.0825 -0.1387 -0.3864
  117OSM   H12A12167   3.178   3.691   8.153  0.2257  0.1221 -0.9507
  117OSM   H12B12168   3.334   3.622   8.165 -1.1840 -0.7605 -0.9658
  117OSM    C1112169   3.336   3.844   8.179  0.1215  0.7223  0.0576
  117OSM   H11A12170   3.375   3.838   8.075 -1.8271 -3.4073 -0.6509
  117OSM   H11B12171   3.426   3.846   8.244  0.7093 -0.8544 -0.6483
  117OSM      P12172   3.216   4.065   8.088  0.0370  0.3477 -0.5407
  117OSM    O1312173   3.109   4.150   8.132  0.9608 -1.0405  0.3899
  117OSM    O1412174   3.341   4.129   8.035  0.4137  0.2480 -0.2574
  117OSM    O1112175   3.164   3.976   7.968  0.0524 -0.6372  0.0665
  117OSM    O1212176   3.254   3.958   8.203  0.0742 -0.4933  0.5470
  117OSM    C1S12177   3.054   4.040   7.893 -0.0368  0.2666 -0.0606
  117OSM    H1S12178   3.082   4.142   7.858 -0.1597  0.0390 -0.8509
  117OSM    H1T12179   2.966   4.047   7.960 -0.0465 -0.2282 -0.0202
  117OSM     NF12180   2.906   4.034   7.705  0.4495 -0.2339 -0.2787
  117OSM    HNF12181   2.810   4.038   7.732  0.3471 -0.9737 -0.5276
  117OSM    C2S12182   2.995   3.956   7.782  0.3270  0.3184 -0.0314
  117OSM    H2S12183   3.076   3.912   7.720 -1.0215 -0.0891 -1.5954
  117OSM    C3S12184   2.927   3.820   7.838  0.0951 -0.2142  0.3491
  117OSM    H3S12185   2.829   3.858   7.874 -0.9483 -1.2344 -1.2823
  117OSM     O312186   2.987   3.756   7.950 -0.3063  0.0341 -0.0232
  117OSM    HO312187   3.046   3.827   7.974  2.1505 -1.6241 -0.7215
  117OSM    C4S12188   2.891   3.728   7.722 -0.1535  0.4453  0.2530
  117OSM    H4S12189   2.974   3.662   7.691 -0.0455 -0.1807  1.7844
  117OSM    C5S12190   2.771   3.711   7.653 -0.0757  0.7482  0.4650
  117OSM    H5S12191   2.684   3.769   7.685  0.1034  0.4705  1.4853
  117OSM    C6S12192   2.760   3.616   7.535  0.3396  0.7946  1.0057
  117OSM    H6S12193   2.673   3.551   7.558  1.7135 -1.2542  0.7750
  117OSM    H6T12194   2.836   3.539   7.510  0.3065  1.3605 -1.0103
  117OSM    C7S12195   2.734   3.695   7.405 -0.1286  0.0703 -0.5282
  117OSM    H7S12196   2.831   3.741   7.376 -0.2602  0.2512 -0.6850
  117OSM    H7T12197   2.671   3.787   7.409  0.7386  0.6529  0.2813
  117OSM    C8S12198   2.682   3.604   7.286 -0.4030 -0.0976 -0.8641
  117OSM    H8S12199   2.583   3.560   7.313 -0.3903  0.2080 -0.3096
  117OSM    H8T12200   2.743   3.511   7.285  0.6528  0.3591  2.9066
  117OSM    C9S12201   2.678   3.681   7.163  0.1550 -0.3694  0.2308
  117OSM    H9S12202   2.772   3.731   7.131  0.6670 -2.3472 -1.5989
  117OSM    H9T12203   2.605   3.765   7.169 -1.5069 -1.5521 -1.7109
  117OSM   C10S12204   2.618   3.603   7.045 -0.1211 -0.2353 -1.0820
  117OSM   H10S12205   2.542   3.535   7.089  1.4065 -0.9023  0.6099
  117OSM   H10T12206   2.702   3.548   6.998  0.9924  2.0874 -1.9361
  117OSM   C11S12207   2.558   3.694   6.932 -0.2363 -0.4465 -0.3510
  117OSM   H11S12208   2.635   3.768   6.903  0.4442 -0.7618  0.6209
  117OSM   H11T12209   2.476   3.752   6.981  0.8019 -0.4428  1.4690
  117OSM   C12S12210   2.508   3.618   6.811 -0.1379 -0.1049 -0.4116
  117OSM   H12S12211   2.433   3.678   6.756 -0.0259  0.1585 -0.2802
  117OSM   H12T12212   2.452   3.533   6.855  0.7486  0.8978  3.0069
  117OSM   C13S12213   2.625   3.597   6.713 -0.4430  0.2472  0.1454
  117OSM   H13S12214   2.694   3.526   6.765 -0.7859 -1.3691 -1.4865
  117OSM   H13T12215   2.669   3.698   6.699  0.2120 -0.2051 -1.2790
  117OSM   C14S12216   2.596   3.546   6.572  0.3687  0.3162 -0.4447
  117OSM   H14S12217   2.496   3.591   6.556 -2.6181 -4.4682  2.2496
  117OSM   H14T12218   2.578   3.437   6.564  0.6330  0.3612 -1.9201
  117OSM   C15S12219   2.708   3.583   6.467 -0.3176  0.0786 -0.5278
  117OSM   H15S12220   2.785   3.506   6.494  2.1224  2.1235 -1.2516
  117OSM   H15T12221   2.740   3.686   6.492  1.8034 -1.0580  1.9959
  117OSM   C16S12222   2.671   3.576   6.317 -0.2244  0.5690 -0.3632
  117OSM   H16S12223   2.582   3.636   6.290 -2.0420 -1.2766  1.2458
  117OSM   H16T12224   2.644   3.473   6.287 -1.7004  0.3096  1.6791
  117OSM   C17S12225   2.790   3.626   6.232  0.4095  0.3996 -0.2174
  117OSM   H17S12226   2.774   3.596   6.126 -2.2452  1.3192 -0.1476
  117OSM   H17T12227   2.878   3.572   6.273 -1.3779 -2.6174 -0.0901
  117OSM   C18S12228   2.828   3.779   6.223  0.6488 -0.4391  0.1357
  117OSM   H18S12229   2.880   3.797   6.319 -0.2139  0.7500  0.4047
  117OSM   H18T12230   2.728   3.828   6.227  0.2089 -1.1338 -1.4059
  117OSM   H18U12231   2.900   3.806   6.143 -0.0241 -1.6894 -0.9414
  117OSM    C1F12232   2.964   4.109   7.614 -0.2784 -0.2184  0.6970
  117OSM     OF12233   3.086   4.107   7.595 -0.4036 -0.0553  0.3853
  117OSM    C2F12234   2.874   4.198   7.532  0.2109 -0.9530  1.2773
  117OSM    H2F12235   2.929   4.287   7.495 -1.3349 -0.0685  1.0364
  117OSM    H2G12236   2.790   4.235   7.594  0.0172  1.6243 -0.3955
  117OSM    C3F12237   2.821   4.122   7.406 -0.3839 -0.6855 -0.0874
  117OSM    H3F12238   2.736   4.185   7.371 -1.1408 -1.8608 -0.4398
  117OSM    H3G12239   2.773   4.023   7.424  1.2118 -1.7624 -1.5109
  117OSM    C4F12240   2.922   4.113   7.287  0.0074  0.2555 -0.1741
  117OSM    H4F12241   3.006   4.052   7.325  2.3063  2.8207 -0.8446
  117OSM    H4G12242   2.960   4.215   7.266  0.3067  0.0383 -0.7205
  117OSM    C5F12243   2.859   4.040   7.169  0.6058  0.7120  0.8519
  117OSM    H5F12244   2.796   3.953   7.199 -2.5754  1.7279 -2.2852
  117OSM    H5G12245   2.938   4.012   7.097  0.3699  0.2394  0.7703
  117OSM    C6F12246   2.768   4.137   7.095  0.7513 -0.0003 -0.0708
  117OSM    H6F12247   2.821   4.206   7.026  0.0610 -1.9396 -2.7306
  117OSM    H6G12248   2.718   4.200   7.172 -0.3628  1.3475 -1.8229
  117OSM    C7F12249   2.678   4.067   6.999  0.5227  0.2300 -0.3244
  117OSM    H7F12250   2.601   4.009   7.053  2.3190 -0.7462  1.3388
  117OSM    H7G12251   2.732   3.998   6.932 -1.1430  0.3042 -1.7989
  117OSM    C8F12252   2.588   4.151   6.905  0.4511 -0.5495 -1.2559
  117OSM    H8F12253   2.535   4.231   6.960 -0.1084 -1.0082 -1.1178
  117OSM    H8G12254   2.510   4.088   6.857 -1.0968 -0.2074  0.6715
  117OSM    C9F12255   2.679   4.210   6.802  0.0206 -0.1506 -0.0523
  117OSM    H9F12256   2.714   4.312   6.824  0.2378 -0.4285  0.9130
  117OSM   C10F12257   2.717   4.156   6.686 -0.6716  0.1119 -0.3131
  117OSM   H10F12258   2.797   4.198   6.624  0.2371 -0.3067  0.5410
  117OSM   C11F12259   2.664   4.020   6.640  0.3097  0.3906 -0.8591
  117OSM   H11F12260   2.642   3.940   6.715  0.0068 -0.3433 -1.7116
  117OSM   H11G12261   2.742   3.977   6.574 -0.0656 -1.6691 -0.0428
  117OSM   C12F12262   2.536   4.031   6.562 -0.7160  0.1883  0.9570
  117OSM   H12F12263   2.542   4.113   6.488 -1.5921  0.0786  0.7509
  117OSM   H12G12264   2.458   4.061   6.636 -3.1858  1.5494 -2.0156
  117OSM   C13F12265   2.494   3.906   6.488  0.4939 -0.6084  0.3928
  117OSM   H13F12266   2.463   3.830   6.563 -2.3791 -1.3615 -1.3632
  117OSM   H13G12267   2.558   3.854   6.413 -0.2446 -0.2897 -0.4747
  117OSM   C14F12268   2.368   3.945   6.403 -0.1910  0.1771  0.1888
  117OSM   H14F12269   2.393   4.020   6.324  1.0392  1.3991  1.6531
  117OSM   H14G12270   2.292   3.990   6.470 -0.1297 -1.1096  1.1561
  117OSM   C15F12271   2.296   3.822   6.349  0.7287 -0.0161 -0.1057
  117OSM   H15F12272   2.272   3.764   6.441  1.1195  1.5919  1.0463
  117OSM   H15G12273   2.369   3.758   6.295 -2.0155 -2.8401 -0.8149
  117OSM   C16F12274   2.177   3.850   6.262 -0.2210  0.1220  0.6103
  117OSM   H16F12275   2.108   3.904   6.331 -0.5800 -1.8595  1.9095
  117OSM   H16G12276   2.137   3.749   6.240  0.2586 -0.2632  1.4346
  117OSM   C17F12277   2.222   3.907   6.125  0.2722  0.1590 -0.0405
  117OSM   H17F12278   2.305   3.837   6.099  1.0615  0.9591  0.2544
  117OSM   H17G12279   2.274   4.004   6.143  0.3891 -0.0913  1.0240
  117OSM   C18F12280   2.112   3.920   6.018  0.3122  0.1731  0.3256
  117OSM   H18F12281   2.043   3.835   6.030  1.8934 -1.0245  1.4152
  117OSM   H18G12282   2.152   3.915   5.914  2.1572 -0.0509  1.0004
  117OSM   H18H12283   2.052   4.013   6.028  0.2630  0.1832 -0.0508
  118OSM      N12284   4.247   1.772   8.511  0.2837 -0.4480 -0.3873
  118OSM    C1512285   4.355   1.829   8.426 -0.2322 -0.5154 -0.6293
  118OSM   H15A12286   4.328   1.906   8.356 -1.8848 -1.1106 -0.6753
  118OSM   H15B12287   4.409   1.747   8.381 -0.7376 -1.0649 -0.2475
  118OSM   H15C12288   4.429   1.888   8.479 -0.5184  0.2918 -1.1115
  118OSM    C1412289   4.304   1.664   8.597  0.8949 -0.1516 -0.3989
  118OSM   H14A12290   4.398   1.698   8.637  0.3540  0.8971  0.0222
  118OSM   H14B12291   4.330   1.575   8.543 -1.7607 -1.3028  0.0221
  118OSM   H14C12292   4.242   1.637   8.681  0.3910  1.8909 -0.0595
  118OSM    C1312293   4.198   1.879   8.614  1.3864  0.5106  0.0847
  118OSM   H13A12294   4.130   1.839   8.688  1.0009 -0.3016 -0.6989
  118OSM   H13B12295   4.145   1.957   8.561  0.3890 -1.1394 -1.4401
  118OSM   H13C12296   4.276   1.915   8.679 -0.3014 -1.7689  3.7426
  118OSM    C1212297   4.127   1.717   8.438 -0.2710  0.7092  0.2759
  118OSM   H12A12298   4.052   1.684   8.509 -0.3990 -1.1986 -0.6703
  118OSM   H12B12299   4.151   1.628   8.381 -1.5286 -0.4938  1.5495
  118OSM    C1112300   4.047   1.806   8.342  0.2423 -1.0901  0.8798
  118OSM   H11A12301   4.068   1.792   8.234 -3.6222  1.4769 -0.4182
  118OSM   H11B12302   4.086   1.909   8.351  0.3648 -1.0152 -0.3129
  118OSM      P12303   3.821   1.681   8.309  0.1601 -0.1312  0.1056
  118OSM    O1312304   3.795   1.580   8.414 -0.1373  0.6815  0.3586
  118OSM    O1412305   3.701   1.740   8.247  0.5088 -0.0909  0.7058
  118OSM    O1112306   3.914   1.616   8.203 -0.0052 -0.0068 -0.1104
  118OSM    O1212307   3.910   1.796   8.376  0.1284  0.5174 -0.2444
  118OSM    C1S12308   3.855   1.547   8.089 -0.1486  0.3857  0.6984
  118OSM    H1S12309   3.750   1.575   8.066 -0.4329 -0.9772  0.2813
  118OSM    H1T12310   3.857   1.437   8.100  0.4449  0.2169 -0.9206
  118OSM     NF12311   3.863   1.511   7.843 -0.5307  0.4552 -0.4450
  118OSM    HNF12312   3.927   1.441   7.810  0.1926 -1.0420  3.6419
  118OSM    C2S12313   3.921   1.582   7.959 -0.3394  0.2050 -0.7448
  118OSM    H2S12314   3.890   1.689   7.952  2.3490  1.1164  0.1438
  118OSM    C3S12315   4.077   1.571   7.960  0.6255  0.6126 -0.1250
  118OSM    H3S12316   4.099   1.463   7.944 -0.3023  0.3419  0.3557
  118OSM     O312317   4.148   1.610   8.079 -0.3961  0.0050  1.0570
  118OSM    HO312318   4.081   1.651   8.134 -2.0171  0.6276 -1.2152
  118OSM    C4S12319   4.129   1.648   7.844  0.3350  0.3300  0.1974
  118OSM    H4S12320   4.081   1.745   7.826 -0.8735 -0.4428 -0.9544
  118OSM    C5S12321   4.216   1.607   7.749  0.1732  0.8293  0.6015
  118OSM    H5S12322   4.252   1.503   7.757 -1.3029  0.2115 -0.4326
  118OSM    C6S12323   4.255   1.684   7.623  0.5406  0.3445  0.6877
  118OSM    H6S12324   4.364   1.699   7.616  0.3737  1.1670 -0.6000
  118OSM    H6T12325   4.204   1.783   7.616  0.1218  0.1672  1.1702
  118OSM    C7S12326   4.216   1.607   7.500  0.1668  0.7587  1.0419
  118OSM    H7S12327   4.115   1.564   7.511 -0.0602  1.2487  0.8932
  118OSM    H7T12328   4.285   1.521   7.483  1.2115  1.4400  1.7084
  118OSM    C8S12329   4.220   1.694   7.376 -0.2297 -0.1119 -0.1042
  118OSM    H8S12330   4.324   1.721   7.350  0.0404 -1.9865 -1.1748
  118OSM    H8T12331   4.168   1.791   7.391  1.3194  0.7531 -0.1162
  118OSM    C9S12332   4.173   1.611   7.261 -0.0093  0.2412 -0.1788
  118OSM    H9S12333   4.069   1.574   7.277 -0.6843  0.8971 -2.5918
  118OSM    H9T12334   4.243   1.525   7.253  1.0561  0.7035  2.8487
  118OSM   C10S12335   4.175   1.689   7.137 -0.9566  0.4059  0.0621
  118OSM   H10S12336   4.270   1.747   7.140 -0.6536 -0.0102 -1.0770
  118OSM   H10T12337   4.089   1.756   7.115 -1.7266 -0.6118 -0.0920
  118OSM   C11S12338   4.181   1.592   7.020  0.2450 -0.5289  0.1192
  118OSM   H11S12339   4.093   1.524   7.016  0.7019 -1.0804 -1.0562
  118OSM   H11T12340   4.270   1.527   7.029 -0.1606 -1.3559 -1.4319
  118OSM   C12S12341   4.180   1.671   6.886 -0.9053 -0.6113 -0.4938
  118OSM   H12S12342   4.279   1.721   6.886 -0.8505 -0.7203 -0.5103
  118OSM   H12T12343   4.090   1.735   6.892 -0.8529 -0.6962  1.8711
  118OSM   C13S12344   4.166   1.577   6.760 -0.3043  0.2887 -0.0405
  118OSM   H13S12345   4.083   1.504   6.771 -0.9291  0.7913 -1.1658
  118OSM   H13T12346   4.262   1.523   6.745 -0.7095 -0.5667  0.4164
  118OSM   C14S12347   4.155   1.655   6.635 -0.1931  0.2100 -0.4629
  118OSM   H14S12348   4.255   1.697   6.613  0.2160 -0.1392  0.6583
  118OSM   H14T12349   4.091   1.745   6.651  0.5097  0.5740  0.3436
  118OSM   C15S12350   4.086   1.579   6.517 -0.0497  0.3067 -0.4312
  118OSM   H15S12351   4.070   1.657   6.439  0.8452  1.2888  0.3460
  118OSM   H15T12352   3.988   1.550   6.560  0.8143 -0.8373  0.8367
  118OSM   C16S12353   4.154   1.461   6.450  0.8235  0.3132  0.2453
  118OSM   H16S12354   4.171   1.384   6.528 -0.1735 -1.0033 -0.7815
  118OSM   H16T12355   4.251   1.498   6.411  0.3516 -0.0584 -1.3415
  118OSM   C17S12356   4.068   1.411   6.338 -0.1694 -0.0741  0.7381
  118OSM   H17S12357   4.128   1.329   6.294  0.7918 -0.0993  2.0234
  118OSM   H17T12358   4.044   1.492   6.267 -0.7282 -0.3519  0.6043
  118OSM   C18S12359   3.937   1.340   6.374 -0.2200  0.5187  0.6156
  118OSM   H18S12360   3.884   1.403   6.449 -0.9381  0.6750 -0.0135
  118OSM   H18T12361   3.957   1.242   6.422  1.8152  1.2088  1.2889
  118OSM   H18U12362   3.869   1.333   6.287  0.8855 -1.2204 -0.1681
  118OSM    C1F12363   3.739   1.510   7.797 -0.0263  0.0916 -0.0788
  118OSM     OF12364   3.639   1.565   7.851  0.1191 -0.1241  0.0313
  118OSM    C2F12365   3.713   1.424   7.676  0.5980 -0.0846 -0.1005
  118OSM    H2F12366   3.608   1.388   7.675  1.5711 -3.1117 -0.8712
  118OSM    H2G12367   3.782   1.338   7.676  0.0715 -0.5604 -2.2183
  118OSM    C3F12368   3.739   1.487   7.544 -0.0131 -0.3212  0.4102
  118OSM    H3F12369   3.845   1.522   7.542  0.0790 -0.5720 -1.8657
  118OSM    H3G12370   3.663   1.561   7.512  0.4800 -0.8563 -2.2470
  118OSM    C4F12371   3.740   1.384   7.429 -0.0611 -0.1509  0.2558
  118OSM    H4F12372   3.647   1.323   7.436  1.1645 -1.9238  2.2657
  118OSM    H4G12373   3.821   1.311   7.451 -0.6795 -1.0058 -0.2340
  118OSM    C5F12374   3.766   1.464   7.299  0.5198  0.2462  0.2168
  118OSM    H5F12375   3.868   1.505   7.317  1.2498 -0.8988 -1.0608
  118OSM    H5G12376   3.710   1.556   7.274 -2.2717 -1.2053  0.7967
  118OSM    C6F12377   3.747   1.380   7.174 -1.1052 -0.1816  0.2530
  118OSM    H6F12378   3.644   1.342   7.157 -1.1180 -0.5074  1.0236
  118OSM    H6G12379   3.811   1.290   7.190 -0.7989 -0.0480 -0.1943
  118OSM    C7F12380   3.797   1.449   7.050 -0.5719 -0.0288  0.0922
  118OSM    H7F12381   3.897   1.491   7.072 -0.3357 -1.9074  3.2859
  118OSM    H7G12382   3.735   1.541   7.049  0.1470  0.5560  2.3171
  118OSM    C8F12383   3.766   1.377   6.917 -0.1742 -0.5565  0.0095
  118OSM    H8F12384   3.793   1.449   6.837  0.0194 -1.4835 -0.7825
  118OSM    H8G12385   3.656   1.368   6.922 -0.1952 -0.0305  0.5515
  118OSM    C9F12386   3.837   1.247   6.896 -0.1097 -0.1267  0.1059
  118OSM    H9F12387   3.908   1.222   6.976 -0.2008 -0.5083  0.0720
  118OSM   C10F12388   3.821   1.154   6.797 -0.2960 -0.0743  0.7243
  118OSM   H10F12389   3.877   1.061   6.815 -0.5874 -0.2715  0.6230
  118OSM   C11F12390   3.711   1.157   6.689 -0.3041  0.1252 -0.3879
  118OSM   H11F12391   3.763   1.148   6.591  0.6009 -1.8432  0.2192
  118OSM   H11G12392   3.666   1.258   6.696  0.3069  0.4266 -0.7293
  118OSM   C12F12393   3.598   1.053   6.721  0.3746  0.1140  0.3445
  118OSM   H12F12394   3.648   0.956   6.741  0.3538  0.4615  2.3656
  118OSM   H12G12395   3.544   1.030   6.627  2.0433 -0.6760 -0.4581
  118OSM   C13F12396   3.501   1.102   6.821 -0.1774 -0.2281 -0.1934
  118OSM   H13F12397   3.417   1.154   6.771 -1.1228 -1.1595  0.3672
  118OSM   H13G12398   3.552   1.168   6.894 -1.2916  1.8623 -1.2195
  118OSM   C14F12399   3.436   0.986   6.895 -0.1575  0.1702  0.0248
  118OSM   H14F12400   3.394   0.903   6.834  1.0121 -1.4040  1.2753
  118OSM   H14G12401   3.354   1.032   6.954  1.6790  2.7171  0.7526
  118OSM   C15F12402   3.536   0.912   6.988  0.4690 -0.2220 -0.9217
  118OSM   H15F12403   3.625   0.876   6.930 -0.7993 -2.2790 -1.7241
  118OSM   H15G12404   3.483   0.824   7.031 -1.0073  1.1525  0.1363
  118OSM   C16F12405   3.601   1.005   7.100 -0.4322 -0.6725 -0.2885
  118OSM   H16F12406   3.513   1.045   7.157 -0.2953 -2.0007  0.9164
  118OSM   H16G12407   3.657   1.087   7.051 -1.4812  0.1622 -0.1417
  118OSM   C17F12408   3.695   0.930   7.194 -0.8246 -0.0585  0.7913
  118OSM   H17F12409   3.634   0.865   7.260 -0.1358 -0.8819  0.6319
  118OSM   H17G12410   3.755   1.002   7.254  0.0795 -0.6123  0.5572
  118OSM   C18F12411   3.800   0.828   7.138  0.0935 -0.1510 -0.1107
  118OSM   H18F12412   3.754   0.737   7.093  1.8901 -0.6997 -0.9602
  118OSM   H18G12413   3.865   0.787   7.218 -1.2012 -1.4778  0.3183
  118OSM   H18H12414   3.859   0.881   7.060  0.5880  0.9024  0.9576
  119OSM      N12415   6.591   1.664   8.152 -0.9240 -0.0784  0.2240
  119OSM    C1512416   6.743   1.684   8.133  0.6914  0.7686 -0.3871
  119OSM   H15A12417   6.768   1.737   8.043  0.4770  1.0354 -0.2907
  119OSM   H15B12418   6.792   1.589   8.116 -2.8375 -1.0296 -1.5586
  119OSM   H15C12419   6.786   1.739   8.216  2.1756  0.4497 -0.9139
  119OSM    C1412420   6.537   1.783   8.231  0.0985  0.2697  0.5558
  119OSM   H14A12421   6.598   1.800   8.318 -0.5523  2.9181  0.5784
  119OSM   H14B12422   6.435   1.774   8.265 -0.0917  1.3078  0.3041
  119OSM   H14C12423   6.529   1.863   8.159  0.1576  0.1168  0.3785
  119OSM    C1312424   6.527   1.653   8.019  0.0837 -0.5698  0.2360
  119OSM   H13A12425   6.569   1.571   7.962 -0.1324 -0.9178  0.5800
  119OSM   H13B12426   6.538   1.743   7.960 -1.9880 -0.4733 -0.0728
  119OSM   H13C12427   6.422   1.631   8.031  0.6866 -5.0618 -1.0004
  119OSM    C1212428   6.574   1.538   8.233 -0.1862  0.0187  0.2232
  119OSM   H12A12429   6.470   1.514   8.251 -0.5264  0.9010 -0.4786
  119OSM   H12B12430   6.621   1.556   8.328  0.0365 -1.6321  0.4553
  119OSM    C1112431   6.605   1.407   8.167 -0.4755  0.2812  0.8553
  119OSM   H11A12432   6.554   1.379   8.072  2.6317 -1.6588 -0.3925
  119OSM   H11B12433   6.561   1.330   8.234 -0.8596  1.0413  1.4988
  119OSM      P12434   6.849   1.304   8.227  0.2914  0.1056  0.2065
  119OSM    O1312435   6.985   1.361   8.226 -0.0774  0.5288  0.0675
  119OSM    O1412436   6.790   1.283   8.358  0.2772 -0.8525 -0.0039
  119OSM    O1112437   6.858   1.161   8.162  0.0868 -0.0554  0.2436
  119OSM    O1212438   6.747   1.384   8.142  0.4647 -0.3470  0.1334
  119OSM    C1S12439   6.780   1.095   8.062  0.2734  0.0160 -0.3055
  119OSM    H1S12440   6.712   1.166   8.009 -1.4817 -0.4762  1.1975
  119OSM    H1T12441   6.709   1.031   8.118  0.7957  1.2918  1.9109
  119OSM     NF12442   6.792   0.945   7.862  0.5927 -0.4281 -0.1121
  119OSM    HNF12443   6.802   0.846   7.852 -1.3090 -0.6870  0.1238
  119OSM    C2S12444   6.867   1.001   7.971  0.3532 -0.6763 -0.8233
  119OSM    H2S12445   6.949   1.065   7.932  1.1945 -0.7202  0.8005
  119OSM    C3S12446   6.955   0.899   8.054  0.1499  0.6311 -0.7326
  119OSM    H3S12447   6.900   0.809   8.088  2.2639 -1.1994 -1.8920
  119OSM     O312448   7.012   0.950   8.172  0.0033  0.3819 -0.1821
  119OSM    HO312449   6.979   1.040   8.177  0.1763  0.4073  1.0314
  119OSM    C4S12450   7.062   0.854   7.961  0.2171  0.1205  0.8014
  119OSM    H4S12451   7.124   0.934   7.919  0.2390 -0.0311  0.5350
  119OSM    C5S12452   7.083   0.731   7.929  0.2571 -0.3739  0.3145
  119OSM    H5S12453   7.033   0.652   7.987 -0.3767  1.1002  1.8618
  119OSM    C6S12454   7.190   0.690   7.835 -0.6981 -0.8013 -0.7035
  119OSM    H6S12455   7.234   0.592   7.861 -1.0494 -1.1502 -1.3987
  119OSM    H6T12456   7.269   0.762   7.866 -0.6403 -0.9071 -0.6065
  119OSM    C7S12457   7.133   0.701   7.691 -0.8373  0.0210 -0.5617
  119OSM    H7S12458   7.075   0.795   7.672  0.7496  1.3768  0.9818
  119OSM    H7T12459   7.055   0.622   7.682  0.3520 -0.9880 -2.7281
  119OSM    C8S12460   7.245   0.680   7.595 -0.3691 -0.0734  1.4849
  119OSM    H8S12461   7.318   0.608   7.639  0.7707  0.3217  0.3080
  119OSM    H8T12462   7.291   0.781   7.592 -0.6240  0.0353 -0.3001
  119OSM    C9S12463   7.212   0.654   7.451  0.4078 -0.3230 -0.1182
  119OSM    H9S12464   7.146   0.566   7.463  0.2536  0.0105  1.6570
  119OSM    H9T12465   7.297   0.607   7.396  0.5405 -0.1620 -0.0517
  119OSM   C10S12466   7.154   0.769   7.377 -0.4995 -0.3909 -0.0635
  119OSM   H10S12467   7.226   0.849   7.404 -1.3051  0.2928  0.1081
  119OSM   H10T12468   7.052   0.790   7.416 -0.8458  0.0084 -1.1512
  119OSM   C11S12469   7.135   0.743   7.230  0.5233 -0.0736  0.9835
  119OSM   H11S12470   7.230   0.694   7.197 -0.2283  0.4610 -2.2656
  119OSM   H11T12471   7.116   0.832   7.167 -0.1086 -0.6804  0.3038
  119OSM   C12S12472   7.018   0.653   7.194 -0.4144 -0.4589  0.1757
  119OSM   H12S12473   6.926   0.713   7.215  1.0248  1.3990  1.4888
  119OSM   H12T12474   7.020   0.564   7.260 -0.1366 -1.1881 -0.7880
  119OSM   C13S12475   7.038   0.597   7.056 -0.3801  0.2724 -0.2502
  119OSM   H13S12476   6.969   0.513   7.034 -2.0454  0.8527  2.2829
  119OSM   H13T12477   7.136   0.544   7.061 -0.5816 -0.0248  0.9317
  119OSM   C14S12478   7.021   0.696   6.937 -0.0875  0.2820 -0.0795
  119OSM   H14S12479   7.117   0.751   6.933  0.6276 -0.9694 -0.9018
  119OSM   H14T12480   6.932   0.749   6.977 -1.7001 -0.8729 -1.9532
  119OSM   C15S12481   7.019   0.647   6.790  0.8179 -0.2611  0.5091
  119OSM   H15S12482   6.937   0.572   6.785  0.3331  0.1004  2.2696
  119OSM   H15T12483   7.122   0.609   6.770  1.6258  1.0341  2.0011
  119OSM   C16S12484   6.984   0.753   6.675 -0.1455  0.3240 -0.0172
  119OSM   H16S12485   6.966   0.708   6.575  0.8897  1.6309 -0.8262
  119OSM   H16T12486   7.071   0.819   6.654 -0.7887  0.8948 -0.9813
  119OSM   C17S12487   6.853   0.843   6.693  0.0475  0.1222 -0.3132
  119OSM   H17S12488   6.855   0.880   6.797 -1.1369 -0.3590 -0.1091
  119OSM   H17T12489   6.775   0.764   6.685  1.1520 -0.9604 -0.6949
  119OSM   C18S12490   6.823   0.953   6.587  0.2572 -0.7018  0.8249
  119OSM   H18S12491   6.865   0.924   6.488 -0.9636  1.6576 -0.4477
  119OSM   H18T12492   6.880   1.043   6.617  0.8982 -1.2001  1.1459
  119OSM   H18U12493   6.719   0.992   6.581  0.3785 -0.2195  1.7427
  119OSM    C1F12494   6.723   1.012   7.772  0.3620  0.1617 -0.4136
  119OSM     OF12495   6.721   1.136   7.775  0.3683  0.1831  0.2227
  119OSM    C2F12496   6.653   0.937   7.660 -0.5512  0.2430 -1.1151
  119OSM    H2F12497   6.544   0.953   7.672 -0.1218  1.7900  1.4219
  119OSM    H2G12498   6.674   0.828   7.661  1.7015  0.6023 -1.8034
  119OSM    C3F12499   6.701   0.992   7.521 -0.2502 -0.5524 -0.0222
  119OSM    H3F12500   6.811   0.978   7.530 -0.4249 -2.0216  0.0535
  119OSM    H3G12501   6.683   1.101   7.511  0.9867 -0.1941  1.2493
  119OSM    C4F12502   6.648   0.914   7.394  0.4791 -0.1223 -0.0590
  119OSM    H4F12503   6.538   0.926   7.398  0.6621  2.2620 -0.6765
  119OSM    H4G12504   6.670   0.810   7.428 -0.8796 -0.3753  0.1092
  119OSM    C5F12505   6.717   0.950   7.260  0.4691 -0.1547 -0.3206
  119OSM    H5F12506   6.652   0.917   7.177  0.1538  2.2922 -1.1289
  119OSM    H5G12507   6.806   0.888   7.233  0.6814  0.7537 -1.8484
  119OSM    C6F12508   6.743   1.098   7.247  0.4748 -0.5023 -0.1758
  119OSM    H6F12509   6.825   1.138   7.310  2.7901 -4.2664 -0.5154
  119OSM    H6G12510   6.650   1.140   7.293  1.4116  0.2262  1.1182
  119OSM    C7F12511   6.746   1.154   7.102 -0.2793 -0.0439  0.0491
  119OSM    H7F12512   6.776   1.261   7.092 -0.5148 -0.1690 -2.5911
  119OSM    H7G12513   6.644   1.160   7.059 -0.2922  3.7678  0.2098
  119OSM    C8F12514   6.838   1.072   7.006  0.3593 -0.3998  0.3814
  119OSM    H8F12515   6.833   1.122   6.906 -0.7912 -0.1114  0.5653
  119OSM    H8G12516   6.793   0.971   6.998  0.6142 -0.4220 -1.0903
  119OSM    C9F12517   6.982   1.048   7.051 -0.1076  0.2336 -0.0945
  119OSM    H9F12518   6.987   1.002   7.151  3.3937 -1.4630 -0.9050
  119OSM   C10F12519   7.096   1.099   7.007  0.2394 -0.2375  0.4902
  119OSM   H10F12520   7.183   1.052   7.057  0.3191  1.9284  2.5356
  119OSM   C11F12521   7.109   1.171   6.876 -0.4234 -0.3921  0.4394
  119OSM   H11F12522   7.043   1.148   6.790  1.6789 -1.0966 -1.0502
  119OSM   H11G12523   7.203   1.133   6.831 -0.9295 -2.5644  1.1017
  119OSM   C12F12524   7.125   1.320   6.910 -0.6088 -0.2659 -0.0696
  119OSM   H12F12525   7.201   1.353   6.984 -0.2382  1.0393 -0.9955
  119OSM   H12G12526   7.031   1.364   6.949  0.3235  0.4904  1.4248
  119OSM   C13F12527   7.184   1.394   6.789  0.6308 -0.2273 -0.4196
  119OSM   H13F12528   7.253   1.331   6.728  0.7146  0.9776 -1.6277
  119OSM   H13G12529   7.220   1.493   6.825 -1.6507  0.4625  0.1526
  119OSM   C14F12530   7.066   1.422   6.691  0.3622  0.4953 -0.8907
  119OSM   H14F12531   6.995   1.489   6.742 -0.9160 -0.6295 -1.1415
  119OSM   H14G12532   6.999   1.335   6.675 -3.5767  2.6091  2.3288
  119OSM   C15F12533   7.118   1.478   6.561 -0.5129 -0.0044 -0.3585
  119OSM   H15F12534   7.201   1.548   6.585  1.0023 -1.8432  0.0344
  119OSM   H15G12535   7.039   1.543   6.518 -0.3954  0.2367 -0.2078
  119OSM   C16F12536   7.180   1.373   6.470  0.6088 -0.1449 -0.3258
  119OSM   H16F12537   7.107   1.289   6.472  1.6066 -1.0531  1.9578
  119OSM   H16G12538   7.278   1.331   6.502  0.5647  0.5162  0.7120
  119OSM   C17F12539   7.188   1.428   6.329 -0.0295 -0.0074  0.1113
  119OSM   H17F12540   7.268   1.505   6.339  1.5992 -1.6544  0.2593
  119OSM   H17G12541   7.087   1.466   6.303  0.3571  2.3649  1.7141
  119OSM   C18F12542   7.234   1.331   6.219  0.5444  0.2269  0.1510
  119OSM   H18F12543   7.144   1.273   6.190  0.7837 -0.2157  0.2808
  119OSM   H18G12544   7.314   1.258   6.246  0.4816  1.1822  3.3118
  119OSM   H18H12545   7.250   1.395   6.130  1.2579  0.3745  0.3778
  120OSM      N12546   0.793   6.412   8.514  0.1169  0.1350 -0.0829
  120OSM    C1512547   0.885   6.481   8.611  0.4157 -0.3937 -0.3549
  120OSM   H15A12548   0.886   6.431   8.707 -2.1324  0.4108  0.1643
  120OSM   H15B12549   0.850   6.582   8.626 -1.3463 -1.0015 -0.1844
  120OSM   H15C12550   0.987   6.494   8.579  0.1892 -0.5323 -1.1615
  120OSM    C1412551   0.656   6.411   8.575  0.7458  0.3857  0.1458
  120OSM   H14A12552   0.658   6.408   8.683  1.5806  2.5408  0.2270
  120OSM   H14B12553   0.624   6.321   8.524  1.2044  0.6708 -0.6713
  120OSM   H14C12554   0.596   6.496   8.550 -0.9305 -0.1057  2.2228
  120OSM    C1312555   0.783   6.505   8.395  0.5130 -0.3719  0.6101
  120OSM   H13A12556   0.709   6.489   8.318 -2.3906  1.4034  2.8306
  120OSM   H13B12557   0.880   6.532   8.355  0.7205 -1.6085  0.2430
  120OSM   H13C12558   0.744   6.598   8.432 -1.6031 -0.6320 -0.8285
  120OSM    C1212559   0.845   6.273   8.486  0.2989 -0.4964  0.3239
  120OSM   H12A12560   0.825   6.208   8.569  0.0980 -0.1947  0.5107
  120OSM   H12B12561   0.952   6.284   8.478  0.1731 -0.2352 -1.4380
  120OSM    C1112562   0.792   6.198   8.358 -0.3155  0.0234 -0.0343
  120OSM   H11A12563   0.861   6.115   8.331  0.2536  0.4899 -0.0304
  120OSM   H11B12564   0.779   6.262   8.268  1.4328  1.4622  0.6665
  120OSM      P12565   0.653   6.004   8.465  0.2838 -0.0295  0.2845
  120OSM    O1312566   0.764   5.993   8.557 -0.6452 -0.0730 -0.1176
  120OSM    O1412567   0.519   5.985   8.526 -0.5069 -0.1546  1.0598
  120OSM    O1112568   0.667   5.893   8.345 -0.1253  0.4067 -0.4564
  120OSM    O1212569   0.666   6.143   8.389 -0.2170 -0.0833 -0.0376
  120OSM    C1S12570   0.603   5.926   8.218 -0.7844 -0.4343 -0.0949
  120OSM    H1S12571   0.553   6.025   8.220  2.6582  1.4704 -0.9322
  120OSM    H1T12572   0.511   5.865   8.202 -1.2136  0.1741  0.0315
  120OSM     NF12573   0.631   5.946   7.970  0.2788 -0.4906 -0.2404
  120OSM    HNF12574   0.601   5.869   7.915 -1.8282 -1.1692  1.7118
  120OSM    C2S12575   0.695   5.907   8.099  0.6389  0.5361  0.9907
  120OSM    H2S12576   0.780   5.978   8.115  1.7728 -0.8271  1.1829
  120OSM    C3S12577   0.745   5.757   8.101 -0.6647  0.7507  0.1969
  120OSM    H3S12578   0.660   5.689   8.081  0.4625  0.1632 -3.2820
  120OSM     O312579   0.804   5.711   8.226 -0.1779 -0.2419 -0.1239
  120OSM    HO312580   0.790   5.783   8.288 -0.8173 -0.0204 -0.5124
  120OSM    C4S12581   0.836   5.731   7.989 -0.3793  0.0223 -0.1572
  120OSM    H4S12582   0.778   5.702   7.900  0.8174 -0.8344 -0.6874
  120OSM    C5S12583   0.973   5.717   7.990  0.1221 -0.2558  0.5119
  120OSM    H5S12584   1.030   5.735   8.083  0.2308  1.4105  0.1633
  120OSM    C6S12585   1.063   5.662   7.880  0.0381  0.0302 -0.7511
  120OSM    H6S12586   1.102   5.564   7.915 -1.7683 -0.9049 -1.1955
  120OSM    H6T12587   1.150   5.726   7.854 -0.2133  0.2663 -1.0202
  120OSM    C7S12588   0.996   5.626   7.750  0.9893  0.4109  0.0992
  120OSM    H7S12589   0.905   5.567   7.772 -0.6123  2.3748 -0.9402
  120OSM    H7T12590   1.075   5.562   7.706 -1.3276 -1.8786 -0.9848
  120OSM    C8S12591   0.966   5.750   7.657 -0.1621 -0.0402 -0.2904
  120OSM    H8S12592   1.054   5.817   7.657  0.5705 -0.9785 -0.8857
  120OSM    H8T12593   0.895   5.813   7.714  1.2756  1.0055  0.3901
  120OSM    C9S12594   0.922   5.707   7.513 -0.1507 -0.2975 -0.2674
  120OSM    H9S12595   0.832   5.643   7.526 -0.0140 -0.0266  2.7452
  120OSM    H9T12596   0.995   5.630   7.478  0.4663 -0.6648  1.6898
  120OSM   C10S12597   0.905   5.825   7.423  0.0723 -0.0917  0.3267
  120OSM   H10S12598   0.988   5.893   7.455  0.3725  0.1991 -1.0191
  120OSM   H10T12599   0.806   5.864   7.457 -0.9531 -2.2367 -0.0876
  120OSM   C11S12600   0.914   5.808   7.274  0.0918  0.5319  0.3078
  120OSM   H11S12601   0.857   5.729   7.221  1.1820  0.7036 -1.1954
  120OSM   H11T12602   1.022   5.797   7.253 -0.1335 -0.1050 -0.5463
  120OSM   C12S12603   0.869   5.933   7.195 -0.1965  0.0108 -0.1703
  120OSM   H12S12604   0.892   6.017   7.264  2.5342  0.9614 -2.0583
  120OSM   H12T12605   0.759   5.934   7.186 -0.1487  0.2130 -0.7758
  120OSM   C13S12606   0.937   5.959   7.056  0.5155  0.1177  0.1073
  120OSM   H13S12607   0.896   5.875   6.995 -0.9512 -0.1650  1.4047
  120OSM   H13T12608   1.048   5.957   7.067  0.4828  1.0795  0.6555
  120OSM   C14S12609   0.901   6.099   6.987  0.3531 -0.2496  0.1044
  120OSM   H14S12610   0.927   6.182   7.055 -1.8585  0.7756 -0.1966
  120OSM   H14T12611   0.790   6.102   6.984  0.0487 -2.3620  3.7103
  120OSM   C15S12612   0.970   6.125   6.860  0.4484  0.2952 -0.0007
  120OSM   H15S12613   0.947   6.058   6.775  0.3058  0.8260 -0.3815
  120OSM   H15T12614   1.080   6.129   6.868  0.3527  1.2477  1.2072
  120OSM   C16S12615   0.937   6.262   6.806 -0.0131  0.2981 -0.3207
  120OSM   H16S12616   0.973   6.353   6.858  1.2974  0.2987 -1.1760
  120OSM   H16T12617   0.826   6.268   6.793 -0.3142  0.2993  1.9291
  120OSM   C17S12618   0.980   6.282   6.662 -0.8380 -0.1563  0.3173
  120OSM   H17S12619   0.979   6.184   6.610 -2.5457  1.4282 -3.0278
  120OSM   H17T12620   1.085   6.317   6.645 -0.3964 -1.9847 -1.1167
  120OSM   C18S12621   0.891   6.373   6.579  0.3639 -0.9414 -0.3835
  120OSM   H18S12622   0.785   6.341   6.575  0.5562 -1.5383 -0.8803
  120OSM   H18T12623   0.926   6.378   6.474  0.3241 -3.1740 -0.5534
  120OSM   H18U12624   0.901   6.471   6.629 -0.5925 -1.1116  0.1765
  120OSM    C1F12625   0.576   6.059   7.937 -0.6454 -0.0140  0.3362
  120OSM     OF12626   0.586   6.157   8.011 -0.2080 -0.5732  0.3656
  120OSM    C2F12627   0.473   6.051   7.819 -0.2854  0.4881 -0.3448
  120OSM    H2F12628   0.398   6.129   7.841 -0.4148  0.3530 -0.3028
  120OSM    H2G12629   0.429   5.949   7.819  2.4018 -0.7815  0.4607
  120OSM    C3F12630   0.544   6.080   7.682 -0.0567 -0.9110 -0.9090
  120OSM    H3F12631   0.627   6.007   7.672  0.4080 -0.7587  1.3398
  120OSM    H3G12632   0.594   6.178   7.690 -0.1183 -0.9114 -0.5054
  120OSM    C4F12633   0.449   6.065   7.564  0.3013  0.6448 -0.7558
  120OSM    H4F12634   0.364   6.135   7.577  1.0051  1.7069 -1.7265
  120OSM    H4G12635   0.397   5.967   7.564 -1.3373  1.4674  0.2030
  120OSM    C5F12636   0.506   6.077   7.431 -0.1035 -0.5597  0.2335
  120OSM    H5F12637   0.538   5.976   7.399  0.3244 -0.4045  0.1713
  120OSM    H5G12638   0.596   6.142   7.430 -0.9700  0.8262  2.6707
  120OSM    C6F12639   0.418   6.124   7.308  0.1976 -0.0879  0.1129
  120OSM    H6F12640   0.361   6.219   7.318 -0.7754 -0.8043  2.0895
  120OSM    H6G12641   0.347   6.041   7.287 -0.2192 -0.0149  1.1373
  120OSM    C7F12642   0.504   6.159   7.191 -0.5283 -0.0752  0.0845
  120OSM    H7F12643   0.551   6.065   7.156  1.2180  0.9727 -0.5100
  120OSM    H7G12644   0.579   6.232   7.228 -2.4934  1.3633  1.4957
  120OSM    C8F12645   0.421   6.215   7.080 -0.2529 -0.2188  0.0385
  120OSM    H8F12646   0.370   6.312   7.099 -0.0702 -0.1813  0.3580
  120OSM    H8G12647   0.342   6.139   7.064 -0.1258 -0.2084 -0.6450
  120OSM    C9F12648   0.508   6.237   6.960 -0.5105  0.3564 -0.1932
  120OSM    H9F12649   0.571   6.328   6.961  0.3838 -0.1672 -2.6569
  120OSM   C10F12650   0.511   6.176   6.841 -0.2629  0.3114  0.0094
  120OSM   H10F12651   0.577   6.214   6.762  0.7651 -3.0329 -0.9159
  120OSM   C11F12652   0.423   6.059   6.798  0.3446 -0.0670  0.0848
  120OSM   H11F12653   0.366   6.102   6.713  2.2224  2.4522 -0.0180
  120OSM   H11G12654   0.352   6.033   6.878  1.6074 -1.6139  0.7742
  120OSM   C12F12655   0.496   5.933   6.754 -1.3687 -0.4458 -0.6077
  120OSM   H12F12656   0.437   5.838   6.751 -1.0200 -0.7204  0.9065
  120OSM   H12G12657   0.581   5.917   6.823 -1.4146  3.7415  0.6724
  120OSM   C13F12658   0.562   5.955   6.615 -0.7150 -0.3650 -0.3333
  120OSM   H13F12659   0.573   6.064   6.596 -0.1869  0.1587  2.5248
  120OSM   H13G12660   0.486   5.936   6.536 -0.6713 -0.4990 -0.3446
  120OSM   C14F12661   0.683   5.871   6.574  0.4284  0.0480  0.6305
  120OSM   H14F12662   0.645   5.770   6.546  0.9770 -0.0567  0.2361
  120OSM   H14G12663   0.751   5.863   6.662  2.0221  0.1794 -0.5411
  120OSM   C15F12664   0.772   5.939   6.473  0.0756  0.4853  0.7402
  120OSM   H15F12665   0.870   5.887   6.462 -0.0673  0.3628 -0.0602
  120OSM   H15G12666   0.800   6.045   6.494  3.5964  0.7994 -3.7289
  120OSM   C16F12667   0.699   5.951   6.336 -0.5508  0.0300 -0.5380
  120OSM   H16F12668   0.618   6.027   6.342  1.4139  2.1428  1.2733
  120OSM   H16G12669   0.664   5.849   6.309 -0.3022  0.0088 -0.7857
  120OSM   C17F12670   0.791   5.980   6.222 -0.1832 -0.2926  0.7481
  120OSM   H17F12671   0.867   5.900   6.210 -0.3360 -0.5814  1.6614
  120OSM   H17G12672   0.829   6.084   6.235 -0.9210  0.3323 -1.6891
  120OSM   C18F12673   0.724   5.978   6.079  0.2678  0.1461 -0.0395
  120OSM   H18F12674   0.669   5.885   6.056  2.4164 -1.0166 -0.8001
  120OSM   H18G12675   0.815   5.994   6.016  1.0352  0.4130  1.1112
  120OSM   H18H12676   0.667   6.072   6.062  0.0485 -0.1622 -1.0896
  121OSM      N12677   4.503   6.045   8.166  0.5985  0.0352 -0.3541
  121OSM    C1512678   4.473   5.898   8.145  0.2930  0.2155  0.0235
  121OSM   H15A12679   4.373   5.876   8.180  0.7591  0.0548  1.3247
  121OSM   H15B12680   4.547   5.845   8.203 -0.2363 -1.3548 -0.6762
  121OSM   H15C12681   4.483   5.871   8.041 -2.1563 -0.7229 -0.0489
  121OSM    C1412682   4.387   6.107   8.088  0.5573 -0.4847 -0.4580
  121OSM   H14A12683   4.379   6.068   7.988 -3.2305  0.9806 -0.8951
  121OSM   H14B12684   4.396   6.214   8.085 -3.0418  0.1477  2.9846
  121OSM   H14C12685   4.288   6.095   8.129  1.0740 -0.0467  0.9778
  121OSM    C1312686   4.507   6.088   8.306  0.3322 -0.3186 -0.7002
  121OSM   H13A12687   4.405   6.077   8.339 -0.6932 -0.0457 -3.5453
  121OSM   H13B12688   4.538   6.191   8.318  1.3883 -0.7350  0.3849
  121OSM   H13C12689   4.555   6.023   8.379 -1.7460  1.1493  2.1665
  121OSM    C1212690   4.636   6.078   8.111 -0.2394 -0.4649 -0.9039
  121OSM   H12A12691   4.716   6.041   8.175 -1.8390 -1.0790  0.8604
  121OSM   H12B12692   4.649   6.185   8.118 -0.2247 -0.5555  1.2519
  121OSM    C1112693   4.666   6.025   7.966 -0.6578 -0.2144 -0.7907
  121OSM   H11A12694   4.744   6.089   7.919 -1.9551  1.4338 -0.7823
  121OSM   H11B12695   4.578   6.022   7.900 -0.4158 -3.0100 -1.1071
  121OSM      P12696   4.861   5.858   8.004 -0.2009 -0.3033 -0.5615
  121OSM    O1312697   4.925   5.936   8.116  0.2044  0.5400 -0.3326
  121OSM    O1412698   4.885   5.714   8.013 -0.4045 -0.6664 -0.7588
  121OSM    O1112699   4.926   5.916   7.873  0.1156 -0.0291  0.4470
  121OSM    O1212700   4.709   5.895   7.981 -0.3139  0.7129  0.6738
  121OSM    C1S12701   4.877   5.881   7.744  0.0222 -0.2756 -0.3192
  121OSM    H1S12702   4.767   5.893   7.738 -0.2533 -2.1721  0.2189
  121OSM    H1T12703   4.907   5.779   7.711 -1.7433 -0.7946 -0.4250
  121OSM     NF12704   4.884   5.949   7.502 -0.0875 -0.2718 -0.1935
  121OSM    HNF12705   4.953   5.905   7.444  0.0984 -0.9637  0.5220
  121OSM    C2S12706   4.928   5.985   7.638 -0.0470 -0.2518 -0.1548
  121OSM    H2S12707   4.884   6.079   7.677  0.7848 -0.1107  0.4692
  121OSM    C3S12708   5.078   6.001   7.651  0.2392  0.1394 -0.4998
  121OSM    H3S12709   5.119   5.900   7.631 -0.5259  0.0210 -1.5879
  121OSM     O312710   5.130   6.047   7.776 -0.3873 -0.2918 -0.0954
  121OSM    HO312711   5.069   6.011   7.840 -0.7584 -1.2947 -0.9692
  121OSM    C4S12712   5.122   6.089   7.542 -0.5006 -0.6560  0.5783
  121OSM    H4S12713   5.185   6.039   7.466  0.6201  0.3703  0.7963
  121OSM    C5S12714   5.124   6.226   7.541 -0.4351  0.4656 -0.5964
  121OSM    H5S12715   5.083   6.275   7.630  1.8558 -0.0764  0.8367
  121OSM    C6S12716   5.177   6.317   7.432  0.6719 -0.4448 -0.6330
  121OSM    H6S12717   5.262   6.375   7.473 -0.1079  1.6628 -1.8263
  121OSM    H6T12718   5.105   6.397   7.403  1.5162  0.5987  0.0578
  121OSM    C7S12719   5.227   6.260   7.296 -0.0983  0.0584 -0.5113
  121OSM    H7S12720   5.306   6.184   7.317 -0.8202 -0.8499 -0.9867
  121OSM    H7T12721   5.273   6.345   7.241 -0.7397  0.5007 -0.3643
  121OSM    C8S12722   5.122   6.178   7.220  0.4737  0.0939 -0.1361
  121OSM    H8S12723   5.032   6.242   7.230  0.4921  0.6119 -2.6430
  121OSM    H8T12724   5.095   6.079   7.262  1.2394 -0.7946 -1.6392
  121OSM    C9S12725   5.142   6.164   7.073  0.1953  0.2954 -0.2767
  121OSM    H9S12726   5.221   6.091   7.047  0.3419 -0.0887  1.1751
  121OSM    H9T12727   5.168   6.261   7.025  0.9910  0.9122  1.3226
  121OSM   C10S12728   5.011   6.112   7.015 -0.0209 -0.2711  0.8732
  121OSM   H10S12729   4.936   6.183   7.056 -1.3702 -1.4982  0.5951
  121OSM   H10T12730   4.991   6.008   7.049  2.5872 -0.7498  1.1834
  121OSM   C11S12731   5.029   6.112   6.858  0.1646 -0.2444 -0.1927
  121OSM   H11S12732   5.131   6.105   6.815  1.1564  2.6157  1.4088
  121OSM   H11T12733   4.974   6.203   6.825 -1.0433  0.0136  2.3092
  121OSM   C12S12734   4.947   6.003   6.791 -0.6022 -0.3322  0.0624
  121OSM   H12S12735   4.849   6.006   6.843 -0.4201  0.0984  0.3928
  121OSM   H12T12736   4.984   5.900   6.810 -0.0727  0.0071  0.9224
  121OSM   C13S12737   4.919   6.022   6.648  0.4936 -0.2224  0.4921
  121OSM   H13S12738   5.013   6.024   6.589  0.2955  1.8366  0.1881
  121OSM   H13T12739   4.878   6.123   6.626  0.4188 -0.3058  0.2476
  121OSM   C14S12740   4.851   5.900   6.586  0.5878 -0.6647  0.1344
  121OSM   H14S12741   4.748   5.887   6.625 -1.2324  2.6814 -2.8936
  121OSM   H14T12742   4.910   5.808   6.605 -0.6402 -1.1317  1.8813
  121OSM   C15S12743   4.838   5.904   6.424 -0.5545 -0.1933  0.0088
  121OSM   H15S12744   4.939   5.912   6.378 -0.3907  0.9258  0.5125
  121OSM   H15T12745   4.792   6.004   6.410  1.1733  0.6970  0.3748
  121OSM   C16S12746   4.741   5.792   6.359 -0.0765 -0.0454 -0.6475
  121OSM   H16S12747   4.644   5.789   6.414  0.0662  0.1177 -0.3868
  121OSM   H16T12748   4.785   5.690   6.369 -0.1345 -0.2783 -2.5528
  121OSM   C17S12749   4.726   5.819   6.214 -0.8195  0.8645 -0.1480
  121OSM   H17S12750   4.814   5.816   6.146 -1.5394 -0.1752 -1.0861
  121OSM   H17T12751   4.681   5.920   6.199 -1.7009  0.5918  0.5627
  121OSM   C18S12752   4.623   5.719   6.152 -0.0417 -0.3472 -0.5403
  121OSM   H18S12753   4.647   5.712   6.043  0.7201  0.4924 -0.4381
  121OSM   H18T12754   4.519   5.751   6.175 -0.8593 -3.1065 -0.0857
  121OSM   H18U12755   4.642   5.619   6.194 -0.1929  0.1699  0.7900
  121OSM    C1F12756   4.767   5.996   7.451 -0.2454 -0.0925 -0.0101
  121OSM     OF12757   4.697   6.076   7.515  0.4663  0.3903  0.7273
  121OSM    C2F12758   4.736   5.945   7.316 -0.3643  0.4166 -0.4922
  121OSM    H2F12759   4.694   5.842   7.323  0.3305  0.1638  0.1702
  121OSM    H2G12760   4.833   5.933   7.264 -1.4530 -0.6963 -2.3688
  121OSM    C3F12761   4.644   6.043   7.249  0.6280  0.0675  0.1786
  121OSM    H3F12762   4.699   6.139   7.245  0.0465  0.4683  1.3084
  121OSM    H3G12763   4.545   6.056   7.298  0.3175 -3.6980  0.8943
  121OSM    C4F12764   4.610   5.992   7.112  0.3761  0.0124 -1.0404
  121OSM    H4F12765   4.566   5.890   7.108 -1.5322  0.7425  0.0488
  121OSM    H4G12766   4.704   6.004   7.054  1.3872 -2.2218  0.0150
  121OSM    C5F12767   4.505   6.084   7.049 -0.2307 -1.1390  0.0425
  121OSM    H5F12768   4.554   6.184   7.051  1.5412 -1.9786  2.0915
  121OSM    H5G12769   4.409   6.086   7.105 -1.0097 -1.0455 -1.2511
  121OSM    C6F12770   4.462   6.051   6.914  0.1431  0.0843  0.1757
  121OSM    H6F12771   4.454   5.940   6.908  2.4905 -0.3022  2.4041
  121OSM    H6G12772   4.552   6.074   6.852  0.8021 -0.7096  0.8246
  121OSM    C7F12773   4.335   6.124   6.872  0.8769  0.5799 -0.1842
  121OSM    H7F12774   4.331   6.224   6.919  0.3206  0.3462  0.2751
  121OSM    H7G12775   4.252   6.056   6.898 -0.1101  0.2285 -3.6857
  121OSM    C8F12776   4.341   6.151   6.721  0.3211 -0.0556  0.2166
  121OSM    H8F12777   4.374   6.069   6.653 -3.1155  0.4066 -2.2993
  121OSM    H8G12778   4.419   6.229   6.715 -0.1856  0.4918  0.6378
  121OSM    C9F12779   4.208   6.200   6.679  0.5593 -0.3058  0.4195
  121OSM    H9F12780   4.137   6.230   6.757  2.1722 -0.9875  2.2192
  121OSM   C10F12781   4.154   6.179   6.554 -0.2393  0.4207 -0.0158
  121OSM   H10F12782   4.075   6.243   6.514  1.1967  1.5784 -1.1164
  121OSM   C11F12783   4.210   6.108   6.439  0.2291 -0.4680  0.2902
  121OSM   H11F12784   4.319   6.089   6.454  0.1799 -1.3940 -0.3691
  121OSM   H11G12785   4.223   6.171   6.348  1.3782  0.4102  1.0411
  121OSM   C12F12786   4.128   5.980   6.408  0.5793 -0.2327  0.2330
  121OSM   H12F12787   4.140   5.922   6.502  0.7078  3.4609  2.6875
  121OSM   H12G12788   4.180   5.917   6.333 -1.2183 -2.1122  0.4892
  121OSM   C13F12789   3.984   6.009   6.366  0.0233  0.2137  0.3768
  121OSM   H13F12790   3.979   6.083   6.283  2.2546  1.1088  0.9461
  121OSM   H13G12791   3.926   6.046   6.453  0.2406 -1.6568  1.3540
  121OSM   C14F12792   3.911   5.881   6.326  0.2957  0.2790 -0.3466
  121OSM   H14F12793   3.902   5.811   6.412  1.4725  0.5358 -0.0010
  121OSM   H14G12794   3.988   5.830   6.265 -2.3022 -3.3794 -0.9283
  121OSM   C15F12795   3.774   5.893   6.268 -0.4849 -0.0200 -0.4121
  121OSM   H15F12796   3.776   5.977   6.196 -0.6654 -0.1987 -0.6223
  121OSM   H15G12797   3.715   5.923   6.357 -0.3284  1.8078 -0.8878
  121OSM   C16F12798   3.710   5.765   6.217 -0.3881  0.3425 -0.5626
  121OSM   H16F12799   3.714   5.686   6.295 -0.5401 -0.0024 -0.9060
  121OSM   H16G12800   3.768   5.741   6.126  2.3163 -0.4009  1.2311
  121OSM   C17F12801   3.560   5.781   6.172  0.1637  0.4105  0.1211
  121OSM   H17F12802   3.505   5.769   6.268  2.3151 -0.2488  1.3436
  121OSM   H17G12803   3.534   5.700   6.101 -1.9281  1.3564 -0.2685
  121OSM   C18F12804   3.523   5.916   6.119 -0.4142  0.1319  0.1596
  121OSM   H18F12805   3.523   5.976   6.212 -0.4714  0.0741  0.1963
  121OSM   H18G12806   3.422   5.915   6.074 -0.1441 -0.5236 -0.4690
  121OSM   H18H12807   3.610   5.943   6.054  0.1548  0.5259  1.0623
  122OSM      N12808   3.871   3.579   8.365 -0.0798  0.2509  0.4955
  122OSM    C1512809   3.869   3.608   8.511  0.2206  0.1954  0.2915
  122OSM   H15A12810   3.911   3.526   8.567 -0.8910 -0.6510 -0.0900
  122OSM   H15B12811   3.770   3.622   8.553  0.8657  2.5292  1.2110
  122OSM   H15C12812   3.917   3.702   8.538 -2.9095  1.9700  0.1709
  122OSM    C1412813   3.992   3.653   8.308  0.4946 -0.3030 -0.3833
  122OSM   H14A12814   3.978   3.759   8.327 -2.6716 -0.5821 -0.6551
  122OSM   H14B12815   4.011   3.641   8.202 -1.8567 -1.1245 -0.7633
  122OSM   H14C12816   4.079   3.624   8.365 -0.1375 -1.4330  0.0402
  122OSM    C1312817   3.891   3.432   8.354  0.7777 -0.0555  0.0768
  122OSM   H13A12818   3.809   3.374   8.393  1.2311  0.1192  1.3228
  122OSM   H13B12819   3.977   3.409   8.414  1.5185 -0.5305 -1.1184
  122OSM   H13C12820   3.909   3.389   8.256  0.4485  0.1250 -0.0647
  122OSM    C1212821   3.752   3.637   8.296  0.3419 -0.4255  0.4008
  122OSM   H12A12822   3.762   3.745   8.298 -0.1994 -0.3116 -1.2329
  122OSM   H12B12823   3.662   3.604   8.345  0.0681 -0.0430  0.1636
  122OSM    C1112824   3.738   3.603   8.149 -0.5542  0.5406  0.3955
  122OSM   H11A12825   3.835   3.637   8.106  0.1767  2.0479  3.0220
  122OSM   H11B12826   3.671   3.679   8.102 -1.7186 -0.9017 -0.3633
  122OSM      P12827   3.562   3.411   8.160  0.0184 -0.2478  0.1529
  122OSM    O1312828   3.543   3.272   8.117  0.0744  0.1253  0.4048
  122OSM    O1412829   3.546   3.445   8.303 -0.1675  0.1678 -0.0293
  122OSM    O1112830   3.464   3.503   8.076  0.0499 -0.1271 -0.5260
  122OSM    O1212831   3.709   3.463   8.124 -0.0023 -0.0344  0.4869
  122OSM    C1S12832   3.485   3.532   7.939  0.2437  0.6396  0.4335
  122OSM    H1S12833   3.590   3.517   7.905 -0.0193  0.3974 -0.2844
  122OSM    H1T12834   3.450   3.634   7.914 -1.2162  0.4836  1.7098
  122OSM     NF12835   3.431   3.448   7.696 -0.1672  0.4010  0.4150
  122OSM    HNF12836   3.364   3.453   7.622  2.4873 -0.7315 -2.2853
  122OSM    C2S12837   3.394   3.436   7.840  0.1663 -1.1302 -0.5165
  122OSM    H2S12838   3.416   3.331   7.868 -1.5336 -1.5343 -0.5721
  122OSM    C3S12839   3.251   3.463   7.872  0.1736  0.2996  0.0348
  122OSM    H3S12840   3.232   3.571   7.857  0.8203  0.3722 -0.3351
  122OSM     O312841   3.219   3.437   8.008  0.2948 -0.3563 -0.1107
  122OSM    HO312842   3.307   3.425   8.043  0.9489 -0.7079 -1.7692
  122OSM    C4S12843   3.169   3.381   7.781  0.2033  0.2964 -0.2097
  122OSM    H4S12844   3.127   3.434   7.694 -2.9654 -0.5685  0.6575
  122OSM    C5S12845   3.137   3.244   7.786 -0.3071 -0.2525 -0.9422
  122OSM    H5S12846   3.183   3.188   7.869 -0.2705  0.3440 -0.5554
  122OSM    C6S12847   3.051   3.169   7.693 -0.3954 -0.6011  0.5941
  122OSM    H6S12848   2.949   3.166   7.735  0.0399 -0.8430  1.6810
  122OSM    H6T12849   3.083   3.062   7.688 -1.3434 -0.8433 -1.2237
  122OSM    C7S12850   3.025   3.236   7.560  0.3002  0.4268 -0.0009
  122OSM    H7S12851   3.123   3.277   7.529  0.6879  2.6691  3.5217
  122OSM    H7T12852   2.958   3.324   7.572  0.9785  0.9157  0.2505
  122OSM    C8S12853   2.976   3.147   7.445 -0.1136  0.1505  0.1078
  122OSM    H8S12854   2.891   3.082   7.473 -0.6504  0.8042  0.0359
  122OSM    H8T12855   3.058   3.082   7.408 -0.5641 -1.3484  1.6332
  122OSM    C9S12856   2.936   3.240   7.329 -0.0591 -0.5036  0.1011
  122OSM    H9S12857   3.028   3.297   7.307 -0.1521  0.6730  2.5405
  122OSM    H9T12858   2.855   3.306   7.366  0.9627  1.0060 -0.2992
  122OSM   C10S12859   2.894   3.165   7.201 -1.1328  0.2742 -0.4799
  122OSM   H10S12860   2.811   3.096   7.227 -1.1076  0.0310 -1.0394
  122OSM   H10T12861   2.977   3.093   7.181 -0.9761  0.5549 -0.8598
  122OSM   C11S12862   2.868   3.269   7.091  0.1402  0.1927 -0.1574
  122OSM   H11S12863   2.943   3.351   7.085  1.3783 -0.9761 -1.4901
  122OSM   H11T12864   2.770   3.317   7.112  0.1361 -0.3021  1.0772
  122OSM   C12S12865   2.869   3.208   6.948 -0.3338  0.9145  0.2304
  122OSM   H12S12866   2.949   3.131   6.941 -0.4655  0.7138  0.8613
  122OSM   H12T12867   2.901   3.281   6.870 -2.3963 -0.3018 -1.8688
  122OSM   C13S12868   2.739   3.164   6.889 -0.0712  0.1060  0.6990
  122OSM   H13S12869   2.681   3.257   6.869  3.5790  2.2535 -1.0664
  122OSM   H13T12870   2.690   3.107   6.970  1.1712  1.3903  2.4317
  122OSM   C14S12871   2.740   3.081   6.760  0.5943  0.1879  0.4925
  122OSM   H14S12872   2.641   3.031   6.754 -0.2861  1.9130 -0.2706
  122OSM   H14T12873   2.827   3.012   6.759  1.7973  1.6253 -1.2438
  122OSM   C15S12874   2.748   3.171   6.642  0.4950  0.6755  0.0189
  122OSM   H15S12875   2.842   3.231   6.642  1.6378 -1.0408  0.8059
  122OSM   H15T12876   2.662   3.241   6.645 -1.1828 -1.2621 -0.6762
  122OSM   C16S12877   2.742   3.094   6.508 -0.9235 -0.0317 -0.0304
  122OSM   H16S12878   2.645   3.041   6.497  0.3149 -1.9509 -3.2324
  122OSM   H16T12879   2.834   3.034   6.516 -0.8137  0.2829  1.2951
  122OSM   C17S12880   2.758   3.179   6.380  0.0340 -0.1729  0.7586
  122OSM   H17S12881   2.853   3.237   6.389  0.5574 -1.0545  0.9828
  122OSM   H17T12882   2.673   3.247   6.401  0.8515  0.6130  1.6406
  122OSM   C18S12883   2.741   3.124   6.244 -0.1071 -0.5365 -0.3388
  122OSM   H18S12884   2.647   3.068   6.222  1.1028 -2.0950 -1.7943
  122OSM   H18T12885   2.823   3.054   6.217  1.2428  1.2228 -1.0265
  122OSM   H18U12886   2.762   3.209   6.175  1.4224 -1.0618 -0.5509
  122OSM    C1F12887   3.550   3.422   7.651 -0.5778  0.5814  0.9636
  122OSM     OF12888   3.634   3.378   7.728 -0.0331 -0.7406 -0.0374
  122OSM    C2F12889   3.583   3.439   7.507  1.0055  0.0452  0.0961
  122OSM    H2F12890   3.589   3.546   7.479  0.6902 -0.1379 -0.6955
  122OSM    H2G12891   3.511   3.396   7.434  2.0586 -1.8474  0.0829
  122OSM    C3F12892   3.726   3.377   7.472 -0.0513  0.0093 -0.4569
  122OSM    H3F12893   3.723   3.266   7.478 -2.4714  0.0538  0.5287
  122OSM    H3G12894   3.795   3.423   7.546 -2.4287  3.1025  0.0878
  122OSM    C4F12895   3.776   3.407   7.333  0.4432 -0.2030  0.2546
  122OSM    H4F12896   3.791   3.517   7.326 -0.8434 -0.0491 -0.4395
  122OSM    H4G12897   3.696   3.377   7.261 -0.5418 -0.9544  1.6173
  122OSM    C5F12898   3.911   3.340   7.299 -0.0217  0.0246  0.1756
  122OSM    H5F12899   3.920   3.236   7.338 -1.2298  1.0430  3.4615
  122OSM    H5G12900   3.993   3.402   7.341 -0.5445  1.1511 -0.4372
  122OSM    C6F12901   3.930   3.346   7.146  0.2904  0.8163 -0.7101
  122OSM    H6F12902   4.039   3.337   7.126  0.4115  0.7582 -0.0496
  122OSM    H6G12903   3.906   3.449   7.110 -1.8008  0.5321 -0.2380
  122OSM    C7F12904   3.860   3.235   7.070 -0.1821  0.5503  0.2030
  122OSM    H7F12905   3.756   3.261   7.042 -0.2962 -0.6269 -0.5491
  122OSM    H7G12906   3.849   3.144   7.132 -0.9622 -0.0197 -0.7382
  122OSM    C8F12907   3.932   3.200   6.943 -0.0446  0.6210 -0.3525
  122OSM    H8F12908   3.892   3.101   6.913  0.6301  0.1856  0.1714
  122OSM    H8G12909   4.039   3.191   6.971  0.1842  0.7094 -1.1651
  122OSM    C9F12910   3.906   3.297   6.831 -0.1012  0.0278  0.7530
  122OSM    H9F12911   3.896   3.402   6.861 -0.8114  0.7667 -1.8099
  122OSM   C10F12912   3.877   3.273   6.698 -0.0090 -0.3507 -0.1128
  122OSM   H10F12913   3.855   3.360   6.635  2.2157  1.3375  1.3076
  122OSM   C11F12914   3.861   3.143   6.632  0.2542  0.3035  1.0709
  122OSM   H11F12915   3.869   3.045   6.686  4.5118 -0.2749 -0.2862
  122OSM   H11G12916   3.914   3.127   6.536  0.4178 -1.5731  1.4301
  122OSM   C12F12917   3.716   3.108   6.599  0.3634 -0.3379  0.2136
  122OSM   H12F12918   3.654   3.118   6.691 -0.2674  1.7842 -0.3742
  122OSM   H12G12919   3.698   3.002   6.572 -2.1429 -0.1591  0.8609
  122OSM   C13F12920   3.647   3.199   6.493 -0.6743 -0.5300 -0.4530
  122OSM   H13F12921   3.656   3.298   6.542 -0.4128 -1.3461  1.2315
  122OSM   H13G12922   3.541   3.165   6.489 -2.0808  3.1657  1.0891
  122OSM   C14F12923   3.717   3.203   6.354 -0.3293 -0.0619  0.2472
  122OSM   H14F12924   3.820   3.239   6.377 -0.5915  0.4131  0.7079
  122OSM   H14G12925   3.665   3.282   6.295  1.2832 -0.0370 -1.2389
  122OSM   C15F12926   3.711   3.071   6.271 -0.3543  0.3318 -0.2954
  122OSM   H15F12927   3.606   3.056   6.239 -0.6704  1.0998  0.3614
  122OSM   H15G12928   3.737   2.991   6.344 -1.7269  0.8432  0.7952
  122OSM   C16F12929   3.809   3.077   6.151  0.9788 -0.6578 -0.8291
  122OSM   H16F12930   3.910   3.095   6.193  0.4595  1.3555 -0.3389
  122OSM   H16G12931   3.767   3.169   6.105 -1.1592 -0.1401  1.9059
  122OSM   C17F12932   3.814   2.946   6.073 -0.0971  0.0931 -0.6101
  122OSM   H17F12933   3.829   2.858   6.139 -3.1524 -1.6683 -2.0467
  122OSM   H17G12934   3.901   2.960   6.005  2.8671  0.9427  3.0652
  122OSM   C18F12935   3.677   2.923   5.993  0.5857  0.5802  0.3593
  122OSM   H18F12936   3.689   2.829   5.935  2.6247  0.7969  0.3619
  122OSM   H18G12937   3.648   3.006   5.926  0.4996  0.1461 -0.1479
  122OSM   H18H12938   3.594   2.915   6.066  0.6664 -2.2988  0.2398
  123OSM      N12939   2.626   2.283   3.840  0.1782  0.6017 -0.1456
  123OSM    C1512940   2.706   2.218   3.728  0.7649  0.1310 -0.2882
  123OSM   H15A12941   2.717   2.113   3.753 -2.4599 -0.0873  0.6882
  123OSM   H15B12942   2.804   2.262   3.712  1.1488 -0.9600 -1.1156
  123OSM   H15C12943   2.654   2.220   3.634 -1.9208 -1.4032  1.0660
  123OSM    C1412944   2.571   2.403   3.779  0.5856 -0.3859 -0.0128
  123OSM   H14A12945   2.653   2.448   3.724  0.5454  0.2605  0.4555
  123OSM   H14B12946   2.534   2.469   3.856 -1.2204 -1.5984  0.2201
  123OSM   H14C12947   2.501   2.395   3.697  1.1335 -1.9596 -0.3622
  123OSM    C1312948   2.513   2.189   3.877 -0.2336 -0.5297 -0.2185
  123OSM   H13A12949   2.458   2.227   3.961  1.0686 -0.5337  0.6769
  123OSM   H13B12950   2.559   2.095   3.906  0.6491  0.5840  2.2942
  123OSM   H13C12951   2.453   2.178   3.788 -1.0240 -1.8201  0.4381
  123OSM    C1212952   2.704   2.314   3.966 -0.0750 -0.1282  0.1299
  123OSM   H12A12953   2.646   2.372   4.036 -2.1979 -1.4284 -0.4592
  123OSM   H12B12954   2.778   2.387   3.937 -1.3232  1.1559  0.1116
  123OSM    C1112955   2.771   2.198   4.041  0.1467 -0.7337 -0.4494
  123OSM   H11A12956   2.706   2.108   4.040  1.3276 -1.6335  0.5499
  123OSM   H11B12957   2.789   2.232   4.146 -0.9604 -1.1703 -0.1099
  123OSM      P12958   2.957   2.016   3.992  0.3921  0.1839 -0.3906
  123OSM    O1312959   2.882   1.923   3.898  0.0907 -0.3997 -0.0206
  123OSM    O1412960   3.102   2.023   3.965 -0.2656 -0.3066  0.4394
  123OSM    O1112961   2.943   1.970   4.149  0.0559 -0.3942 -0.2668
  123OSM    O1212962   2.898   2.165   3.976  0.6218 -0.1158 -0.5993
  123OSM    C1S12963   3.049   1.874   4.191  0.6484 -0.1062  0.2781
  123OSM    H1S12964   3.145   1.929   4.196 -0.2546  1.5660  0.1725
  123OSM    H1T12965   3.068   1.796   4.115  0.7886  1.3741 -1.2725
  123OSM     NF12966   3.121   1.708   4.357  0.7276 -0.0619 -0.5624
  123OSM    HNF12967   3.098   1.614   4.332 -1.0409 -0.7144  2.9642
  123OSM    C2S12968   3.008   1.803   4.321 -0.4556 -0.0291  0.4682
  123OSM    H2S12969   3.006   1.882   4.398 -3.2062  0.4971 -0.0209
  123OSM    C3S12970   2.864   1.733   4.302 -0.1704 -0.1970 -0.6798
  123OSM    H3S12971   2.878   1.653   4.226 -0.5056 -1.1947  0.2845
  123OSM     O312972   2.762   1.815   4.245 -0.2472  0.1293  0.4052
  123OSM    HO312973   2.820   1.877   4.201 -0.0892  0.5158  1.1450
  123OSM    C4S12974   2.825   1.657   4.427  0.5471 -0.0831  0.3631
  123OSM    H4S12975   2.852   1.551   4.424  2.7947  0.4657 -1.6159
  123OSM    C5S12976   2.751   1.704   4.528  0.4980 -0.1657  0.9761
  123OSM    H5S12977   2.709   1.805   4.513  0.0951 -0.3955  0.5510
  123OSM    C6S12978   2.690   1.630   4.634 -0.1143 -0.1660 -0.0285
  123OSM    H6S12979   2.750   1.537   4.649 -0.3456 -0.2467  0.4319
  123OSM    H6T12980   2.587   1.607   4.599  0.4636 -0.5751 -1.5023
  123OSM    C7S12981   2.707   1.707   4.766  0.2657 -0.4569  0.3642
  123OSM    H7S12982   2.727   1.816   4.758 -0.2705 -0.0689  3.2888
  123OSM    H7T12983   2.810   1.681   4.796  1.8375  3.6840 -0.7670
  123OSM    C8S12984   2.603   1.680   4.879 -0.3498 -0.2249  0.1230
  123OSM    H8S12985   2.578   1.572   4.875  1.1524 -0.5895 -0.1029
  123OSM    H8T12986   2.512   1.742   4.862 -0.0755  0.0439 -0.3948
  123OSM    C9S12987   2.669   1.701   5.011 -1.2174 -0.3563  0.7040
  123OSM    H9S12988   2.712   1.801   5.033 -0.8071 -0.8051  2.0603
  123OSM    H9T12989   2.753   1.630   5.028 -0.9872 -0.0393  0.9019
  123OSM   C10S12990   2.582   1.673   5.131  0.2811  0.2824 -0.5018
  123OSM   H10S12991   2.549   1.567   5.126  1.2950 -0.0197 -1.0321
  123OSM   H10T12992   2.484   1.723   5.113 -0.8724 -1.5003  0.4480
  123OSM   C11S12993   2.648   1.708   5.267  0.3384 -0.1128 -0.7964
  123OSM   H11S12994   2.658   1.818   5.254  1.5244 -0.0679  0.2420
  123OSM   H11T12995   2.743   1.649   5.264 -0.5497 -1.5923 -0.7406
  123OSM   C12S12996   2.565   1.681   5.390  0.3201 -0.3413  1.0108
  123OSM   H12S12997   2.516   1.582   5.376 -0.7237 -0.2248  3.3224
  123OSM   H12T12998   2.488   1.761   5.383  1.2326  0.4219 -0.9099
  123OSM   C13S12999   2.649   1.686   5.512 -0.3585 -0.1779  0.0217
  123OSM   H13S13000   2.696   1.787   5.501  1.1719 -0.7791  0.7782
  123OSM   H13T13001   2.731   1.614   5.493 -1.5060 -1.4409 -0.2796
  123OSM   C14S13002   2.571   1.681   5.638  0.2685 -0.0544  0.3569
  123OSM   H14S13003   2.527   1.580   5.652  0.5597 -0.2305  0.0041
  123OSM   H14T13004   2.488   1.753   5.655  0.5262  0.0236  1.3707
  123OSM   C15S13005   2.681   1.698   5.741  0.0746 -1.2847 -0.8578
  123OSM   H15S13006   2.709   1.805   5.729 -2.1980 -0.5067  0.1894
  123OSM   H15T13007   2.762   1.623   5.735  1.2844 -0.0115 -0.8190
  123OSM   C16S13008   2.618   1.677   5.878 -0.1354  0.0350 -0.4637
  123OSM   H16S13009   2.568   1.578   5.879  0.2724 -0.1752  0.2788
  123OSM   H16T13010   2.563   1.767   5.912 -0.0768 -0.3333  0.6351
  123OSM   C17S13011   2.728   1.659   5.985 -0.3269 -0.5033 -0.4274
  123OSM   H17S13012   2.818   1.722   5.966 -1.5269  1.5586  0.3162
  123OSM   H17T13013   2.761   1.554   5.973 -0.1878 -0.2033 -3.6673
  123OSM   C18S13014   2.676   1.684   6.123 -0.6112  0.8277  0.0299
  123OSM   H18S13015   2.586   1.623   6.147 -0.8087  1.4550  0.9510
  123OSM   H18T13016   2.665   1.791   6.152 -1.0944  0.5943  0.7404
  123OSM   H18U13017   2.751   1.638   6.191  2.4169  0.0821 -3.4737
  123OSM    C1F13018   3.245   1.746   4.390  0.6914  0.2583 -0.2953
  123OSM     OF13019   3.271   1.868   4.401 -0.1346 -0.1628 -0.0626
  123OSM    C2F13020   3.346   1.642   4.399 -0.9067  0.1846  0.0886
  123OSM    H2F13021   3.419   1.672   4.321  0.2446 -0.7835  0.7611
  123OSM    H2G13022   3.313   1.539   4.373 -2.2837  0.9302 -1.2773
  123OSM    C3F13023   3.433   1.646   4.528  0.2669  0.0633 -0.3110
  123OSM    H3F13024   3.467   1.750   4.546 -0.5888  0.3156 -0.1139
  123OSM    H3G13025   3.522   1.580   4.516 -1.0413 -2.3356  2.1485
  123OSM    C4F13026   3.348   1.599   4.653 -0.0661 -0.5096  0.2134
  123OSM    H4F13027   3.346   1.489   4.641  1.7845 -0.4561 -0.9919
  123OSM    H4G13028   3.251   1.654   4.656  0.7392  0.9808  0.2515
  123OSM    C5F13029   3.418   1.613   4.797  0.2634 -0.0038  0.1085
  123OSM    H5F13030   3.413   1.719   4.831  2.3608  0.9602 -2.2316
  123OSM    H5G13031   3.527   1.614   4.775  0.4380  2.6268  0.7719
  123OSM    C6F13032   3.359   1.524   4.910 -0.8636 -0.1956  0.2558
  123OSM    H6F13033   3.433   1.442   4.918 -1.6203 -0.8061  1.4446
  123OSM    H6G13034   3.260   1.484   4.879 -1.1548  0.1577  0.7093
  123OSM    C7F13035   3.362   1.607   5.045 -0.2701 -0.1122 -0.8140
  123OSM    H7F13036   3.300   1.698   5.031 -0.0052  0.1561 -0.3050
  123OSM    H7G13037   3.466   1.640   5.068 -0.7211  0.3058  0.7752
  123OSM    C8F13038   3.321   1.535   5.176 -0.0393  0.0185 -0.4200
  123OSM    H8F13039   3.351   1.602   5.259 -0.5565  1.7642 -1.5799
  123OSM    H8G13040   3.396   1.453   5.173  1.3976  1.3170 -2.1250
  123OSM    C9F13041   3.186   1.471   5.191  0.1364 -0.3978  0.6368
  123OSM    H9F13042   3.140   1.460   5.092  0.0394 -1.9946  0.8331
  123OSM   C10F13043   3.127   1.433   5.302 -0.7617  0.1498  0.9460
  123OSM   H10F13044   3.026   1.389   5.295 -1.0488  1.0176 -1.3517
  123OSM   C11F13045   3.185   1.438   5.443 -0.2705 -0.1653 -0.0470
  123OSM   H11F13046   3.255   1.523   5.452  0.1051 -0.4105 -0.5967
  123OSM   H11G13047   3.235   1.346   5.479  1.1589  1.6406  2.8997
  123OSM   C12F13048   3.081   1.456   5.555  0.3784 -0.4825 -0.2133
  123OSM   H12F13049   3.026   1.365   5.586 -0.6252  0.0647 -0.3424
  123OSM   H12G13050   3.013   1.544   5.551 -0.2118 -0.9575 -0.8351
  123OSM   C13F13051   3.168   1.483   5.674  0.1125  0.0895 -0.0678
  123OSM   H13F13052   3.241   1.564   5.655  0.0723  0.0218 -0.5158
  123OSM   H13G13053   3.228   1.391   5.689  0.9630  0.8249  1.2268
  123OSM   C14F13054   3.092   1.517   5.805 -0.5303  0.7507  0.0306
  123OSM   H14F13055   3.037   1.422   5.822  0.9056 -0.1992 -0.4869
  123OSM   H14G13056   3.027   1.607   5.796  0.4536  1.3114 -1.9921
  123OSM   C15F13057   3.197   1.535   5.914  0.1786 -0.4647 -0.2261
  123OSM   H15F13058   3.265   1.621   5.895 -0.5288  0.3271  0.7261
  123OSM   H15G13059   3.261   1.444   5.909  1.5962  0.3886  1.2813
  123OSM   C16F13060   3.137   1.550   6.062 -0.3148 -0.0470  0.5256
  123OSM   H16F13061   3.080   1.458   6.089 -1.2035 -0.1675 -1.5449
  123OSM   H16G13062   3.059   1.628   6.065 -1.9774 -1.5287 -1.5140
  123OSM   C17F13063   3.241   1.594   6.167 -0.0229  0.0427 -0.6411
  123OSM   H17F13064   3.343   1.604   6.124 -0.5724 -0.5028 -2.1359
  123OSM   H17G13065   3.238   1.518   6.248 -2.4067 -1.2876 -1.8609
  123OSM   C18F13066   3.198   1.729   6.236  0.0372 -0.0579  0.2816
  123OSM   H18F13067   3.173   1.800   6.155 -0.0953 -2.1767 -1.6402
  123OSM   H18G13068   3.276   1.770   6.304 -0.7438 -0.7193  1.6029
  123OSM   H18H13069   3.096   1.717   6.278 -0.1022 -1.2952 -0.3705
  124OSM      N13070   1.706   2.217   3.579 -0.3361 -0.0128  0.4515
  124OSM    C1513071   1.622   2.093   3.589 -0.3066  0.0652  0.1770
  124OSM   H15A13072   1.686   2.006   3.587  1.9325  1.6351 -0.4613
  124OSM   H15B13073   1.565   2.095   3.497  2.6982  4.2952 -1.9397
  124OSM   H15C13074   1.558   2.089   3.676  0.0176 -0.2874  0.4026
  124OSM    C1413075   1.789   2.192   3.455  0.0139 -0.9187 -0.1870
  124OSM   H14A13076   1.721   2.170   3.373 -1.9037  0.6111  0.9101
  124OSM   H14B13077   1.848   2.102   3.467  1.3047 -0.1175 -0.4272
  124OSM   H14C13078   1.839   2.282   3.423 -2.5153  0.7491  0.2479
  124OSM    C1313079   1.616   2.340   3.549 -0.6777 -0.3203 -0.0757
  124OSM   H13A13080   1.558   2.365   3.636 -0.8649  2.8050 -0.9911
  124OSM   H13B13081   1.555   2.327   3.461 -2.4929  0.1517  1.0604
  124OSM   H13C13082   1.671   2.432   3.540 -1.3207 -0.1130 -2.4446
  124OSM    C1213083   1.808   2.239   3.696 -0.0900  0.0828  0.3237
  124OSM   H12A13084   1.883   2.314   3.676 -0.7303  0.8235  0.6747
  124OSM   H12B13085   1.878   2.157   3.704  0.4694  0.6161  1.0959
  124OSM    C1113086   1.754   2.262   3.837  0.7734 -0.1156 -0.3990
  124OSM   H11A13087   1.825   2.232   3.917 -3.0828 -1.6352  2.7984
  124OSM   H11B13088   1.666   2.196   3.852  1.5287 -1.1595 -0.4869
  124OSM      P13089   1.820   2.504   3.881 -0.0218 -0.1993  0.2683
  124OSM    O1313090   1.954   2.469   3.833 -0.4666 -0.0720  1.1040
  124OSM    O1413091   1.775   2.639   3.838 -0.1097  0.2024  0.0035
  124OSM    O1113092   1.816   2.504   4.039 -0.6581 -0.2332 -0.1760
  124OSM    O1213093   1.707   2.394   3.845 -0.6227 -0.1784 -0.2630
  124OSM    C1S13094   1.918   2.564   4.103 -0.2614  0.6068 -0.1260
  124OSM    H1S13095   1.929   2.671   4.075  1.1062  0.5725  0.2372
  124OSM    H1T13096   2.015   2.516   4.080 -0.3793  0.8301 -1.1442
  124OSM     NF13097   1.991   2.664   4.325 -0.4947 -0.8087 -0.3025
  124OSM    HNF13098   2.046   2.640   4.404 -0.4929 -3.2311 -0.9737
  124OSM    C2S13099   1.912   2.563   4.260  0.1773  0.4289 -0.1176
  124OSM    H2S13100   1.808   2.584   4.292  0.3890  0.7891  0.3639
  124OSM    C3S13101   1.946   2.415   4.302  0.7722  0.6804 -0.1078
  124OSM    H3S13102   2.050   2.399   4.265  0.1739 -0.1812 -1.4569
  124OSM     O313103   1.874   2.310   4.238  0.7204 -0.3648 -0.6421
  124OSM    HO313104   1.822   2.355   4.171  0.4375 -2.0325 -1.5935
  124OSM    C4S13105   1.944   2.396   4.452 -0.2550  0.5747  0.1261
  124OSM    H4S13106   2.033   2.428   4.509 -0.9074  0.0488  1.4809
  124OSM    C5S13107   1.835   2.357   4.517  0.4911 -0.0281 -0.2632
  124OSM    H5S13108   1.745   2.335   4.458 -0.6990  0.3530  1.3202
  124OSM    C6S13109   1.821   2.360   4.668 -0.5254 -0.5587 -0.0243
  124OSM    H6S13110   1.794   2.261   4.709  0.8061 -0.9264 -0.0048
  124OSM    H6T13111   1.734   2.427   4.685  0.1895  1.0269 -2.1717
  124OSM    C7S13112   1.937   2.411   4.744  0.7410  0.2944  0.0870
  124OSM    H7S13113   1.951   2.519   4.722 -2.2231  0.6523 -0.4308
  124OSM    H7T13114   2.024   2.357   4.701  0.5929 -0.0581  0.2179
  124OSM    C8S13115   1.923   2.386   4.890 -0.3571 -0.4539 -0.1186
  124OSM    H8S13116   1.896   2.280   4.906 -2.5373  0.1116  0.2663
  124OSM    H8T13117   1.837   2.445   4.929 -1.5619 -3.0070  1.3039
  124OSM    C9S13118   2.050   2.425   4.973  0.8771  0.0111 -0.7964
  124OSM    H9S13119   2.065   2.535   4.962  0.8804  0.1189  0.1632
  124OSM    H9T13120   2.131   2.362   4.929  0.1338  0.2815 -2.6432
  124OSM   C10S13121   2.026   2.388   5.116 -0.6022 -0.4716  0.0781
  124OSM   H10S13122   2.032   2.278   5.129 -2.4177 -0.5677  0.3005
  124OSM   H10T13123   1.923   2.422   5.140 -0.2465  0.5443  0.2600
  124OSM   C11S13124   2.116   2.449   5.223 -0.8313 -0.2042  0.0774
  124OSM   H11S13125   2.115   2.560   5.213 -0.5414 -0.2125 -0.0546
  124OSM   H11T13126   2.222   2.417   5.212 -0.2028  2.1525 -1.3852
  124OSM   C12S13127   2.093   2.414   5.368  0.1374 -0.0583 -0.5225
  124OSM   H12S13128   2.077   2.306   5.390  0.4546 -0.2681 -1.3096
  124OSM   H12T13129   2.001   2.466   5.403  0.1448 -0.8124  0.6790
  124OSM   C13S13130   2.220   2.462   5.446  0.5238  0.0342 -0.6039
  124OSM   H13S13131   2.248   2.563   5.412  2.0668 -0.2381 -0.2362
  124OSM   H13T13132   2.303   2.402   5.404 -0.7007 -0.9701 -1.6747
  124OSM   C14S13133   2.218   2.441   5.598 -0.2012 -0.5698 -0.0523
  124OSM   H14S13134   2.308   2.499   5.628 -0.3469 -0.6733  0.5793
  124OSM   H14T13135   2.249   2.336   5.620 -0.3454 -0.5904  0.0497
  124OSM   C15S13136   2.093   2.496   5.677 -0.8808 -0.3066 -0.1331
  124OSM   H15S13137   2.115   2.494   5.785 -1.4759  0.1401  0.0025
  124OSM   H15T13138   2.014   2.426   5.643  2.1963 -2.8024 -2.7432
  124OSM   C16S13139   2.041   2.638   5.649  0.5543 -0.5623 -0.5110
  124OSM   H16S13140   2.018   2.629   5.541 -0.1677 -0.4459 -0.3684
  124OSM   H16T13141   2.125   2.703   5.682 -0.4857  0.1675  0.8088
  124OSM   C17S13142   1.911   2.665   5.733  0.2911  0.5420 -0.1003
  124OSM   H17S13143   1.887   2.772   5.715  2.1749  0.9009 -0.6967
  124OSM   H17T13144   1.931   2.642   5.840 -1.8680  0.9632  0.4338
  124OSM   C18S13145   1.787   2.582   5.691  0.1653  0.2352 -0.4693
  124OSM   H18S13146   1.741   2.623   5.599  0.3076 -0.8271 -1.0272
  124OSM   H18T13147   1.714   2.595   5.774  1.1176 -0.4749  0.5037
  124OSM   H18U13148   1.794   2.472   5.675  1.3019  0.3644 -0.9381
  124OSM    C1F13149   1.960   2.793   4.310 -0.0970  0.2185  0.5232
  124OSM     OF13150   1.864   2.837   4.236 -0.0650  0.3436 -0.4646
  124OSM    C2F13151   2.029   2.891   4.399  0.8981 -0.3015 -0.3514
  124OSM    H2F13152   2.130   2.906   4.356  1.8871 -2.3942  1.0735
  124OSM    H2G13153   2.033   2.847   4.501  1.5918  0.4208 -0.0558
  124OSM    C3F13154   1.973   3.039   4.406  0.0418 -0.4260  0.6483
  124OSM    H3F13155   1.864   3.042   4.426 -0.1233  3.2914 -0.1850
  124OSM    H3G13156   1.997   3.088   4.309  0.0865 -1.7865 -0.0666
  124OSM    C4F13157   2.037   3.127   4.511 -0.4020 -0.1097 -0.3886
  124OSM    H4F13158   2.013   3.081   4.608  0.1952 -1.5412 -0.8972
  124OSM    H4G13159   2.000   3.232   4.506  1.6183  0.6701 -0.1938
  124OSM    C5F13160   2.191   3.141   4.495 -1.0091 -0.3596  0.1033
  124OSM    H5F13161   2.221   3.192   4.401  1.2732 -0.2126  0.8439
  124OSM    H5G13162   2.246   3.044   4.492  0.0337  0.1754  1.1062
  124OSM    C6F13163   2.256   3.235   4.600  0.5040 -0.6289 -0.1487
  124OSM    H6F13164   2.200   3.331   4.600  1.4857 -0.0403  0.2679
  124OSM    H6G13165   2.364   3.256   4.583  1.1546 -1.2482  2.7315
  124OSM    C7F13166   2.253   3.180   4.746  0.4054 -0.1962  0.2529
  124OSM    H7F13167   2.297   3.078   4.748  0.7860 -0.1027 -1.6515
  124OSM    H7G13168   2.148   3.169   4.782  0.7862  0.2894  1.6053
  124OSM    C8F13169   2.350   3.263   4.838  0.0885 -0.6488 -0.6788
  124OSM    H8F13170   2.295   3.356   4.865  1.4571 -0.4145  1.4539
  124OSM    H8G13171   2.438   3.296   4.778  1.0350 -0.5324  0.7378
  124OSM    C9F13172   2.403   3.195   4.960 -0.0445 -0.7353 -0.9638
  124OSM    H9F13173   2.505   3.155   4.963 -0.1650 -1.2518 -2.7420
  124OSM   C10F13174   2.334   3.172   5.073  0.6961 -0.3998  0.2761
  124OSM   H10F13175   2.385   3.115   5.152  2.2738  0.0868 -0.3522
  124OSM   C11F13176   2.185   3.186   5.094 -0.2374  0.7061  0.7477
  124OSM   H11F13177   2.143   3.087   5.121 -2.5919  0.6917 -2.3855
  124OSM   H11G13178   2.138   3.222   5.000  1.3709 -0.1902 -0.4576
  124OSM   C12F13179   2.147   3.287   5.205  0.1606 -0.2443 -0.0982
  124OSM   H12F13180   2.189   3.384   5.170 -0.2231 -0.2541 -0.5947
  124OSM   H12G13181   2.180   3.255   5.306 -2.6667  1.4290  1.4859
  124OSM   C13F13182   1.997   3.312   5.230  0.0526  0.7098 -0.6588
  124OSM   H13F13183   1.980   3.257   5.325  1.3828  1.9179  0.3176
  124OSM   H13G13184   1.930   3.279   5.149 -0.0129  1.8628 -1.1015
  124OSM   C14F13185   1.975   3.463   5.262 -1.0257 -0.3920 -0.2377
  124OSM   H14F13186   1.870   3.484   5.233 -0.8499 -1.0090 -1.3792
  124OSM   H14G13187   2.042   3.534   5.210 -2.9018  1.5482 -0.1333
  124OSM   C15F13188   1.990   3.504   5.412 -0.0613 -0.2284 -0.0116
  124OSM   H15F13189   2.096   3.493   5.444  0.4006  0.3186 -1.2694
  124OSM   H15G13190   1.928   3.435   5.473  2.5535 -1.7229  1.1326
  124OSM   C16F13191   1.951   3.650   5.441  1.0007  0.0367  0.0036
  124OSM   H16F13192   1.852   3.663   5.394  2.0634  2.6174 -1.7553
  124OSM   H16G13193   2.018   3.718   5.384  0.2072 -0.5947 -1.7614
  124OSM   C17F13194   1.975   3.678   5.591  0.2434 -0.1577 -0.0005
  124OSM   H17F13195   2.085   3.675   5.602  0.3293  1.6589 -0.0614
  124OSM   H17G13196   1.915   3.607   5.651 -1.1773 -0.3447 -1.5695
  124OSM   C18F13197   1.940   3.821   5.641 -0.2990  0.3941  0.1048
  124OSM   H18F13198   1.990   3.890   5.570  2.5608  0.7703  2.3110
  124OSM   H18G13199   1.984   3.836   5.742 -2.4192 -0.7995  1.2881
  124OSM   H18H13200   1.829   3.833   5.648 -0.1875  0.8225  1.2558
  125OSM      N13201   5.462   0.597   3.311 -0.9871  0.4945  0.6393
  125OSM    C1513202   5.553   0.500   3.231  0.2839 -0.7756  0.0979
  125OSM   H15A13203   5.649   0.485   3.276  0.4649 -2.4685 -0.7715
  125OSM   H15B13204   5.575   0.538   3.132 -0.1441 -0.3320  0.1679
  125OSM   H15C13205   5.507   0.404   3.214  1.0182 -1.2781  0.8547
  125OSM    C1413206   5.514   0.734   3.276  0.1434 -0.4692 -0.2545
  125OSM   H14A13207   5.473   0.774   3.185  0.1595 -0.1352 -0.1162
  125OSM   H14B13208   5.622   0.730   3.270  0.4938  1.8807  2.4270
  125OSM   H14C13209   5.479   0.807   3.347 -1.3854  0.4756 -1.9248
  125OSM    C1313210   5.325   0.573   3.282 -0.3789 -0.3606  0.0667
  125OSM   H13A13211   5.282   0.497   3.345 -0.2743 -0.0179  0.5554
  125OSM   H13B13212   5.312   0.558   3.176 -0.8125 -0.3015  0.1089
  125OSM   H13C13213   5.274   0.666   3.302 -3.0696 -1.4944 -1.0837
  125OSM    C1213214   5.481   0.575   3.457 -0.2766  0.0152  0.0493
  125OSM   H12A13215   5.579   0.611   3.483  0.4699 -2.1388  0.4347
  125OSM   H12B13216   5.465   0.469   3.473 -1.4694  0.1470 -0.1410
  125OSM    C1113217   5.384   0.655   3.553 -0.7097  0.0522  0.0320
  125OSM   H11A13218   5.398   0.629   3.660 -1.3290 -1.2330 -0.1775
  125OSM   H11B13219   5.283   0.619   3.523  0.6882 -1.3277 -3.6917
  125OSM      P13220   5.483   0.890   3.600  0.2506  0.4170  0.1332
  125OSM    O1313221   5.620   0.833   3.620  0.6161  0.4445  0.2657
  125OSM    O1413222   5.470   1.033   3.553 -0.4695 -0.5578 -0.1940
  125OSM    O1113223   5.403   0.881   3.727 -0.6162  0.6149  0.0038
  125OSM    O1213224   5.405   0.786   3.521  0.3568  0.3848  0.2954
  125OSM    C1S13225   5.473   0.917   3.850 -0.3123 -0.5443  0.4657
  125OSM    H1S13226   5.517   1.019   3.847  0.9178 -1.0139  1.6961
  125OSM    H1T13227   5.558   0.851   3.879 -0.8394 -0.2150  2.9807
  125OSM     NF13228   5.440   0.986   4.084 -0.0118  0.2640 -0.4771
  125OSM    HNF13229   5.497   0.930   4.144  0.2007 -0.1309 -1.0428
  125OSM    C2S13230   5.376   0.909   3.971 -0.1860 -0.5766  0.5586
  125OSM    H2S13231   5.278   0.958   3.958  1.1318  1.5723 -2.3464
  125OSM    C3S13232   5.351   0.757   4.004 -0.1832  0.1622  1.0757
  125OSM    H3S13233   5.453   0.716   4.019 -0.8515 -2.2390 -0.2911
  125OSM     O313234   5.291   0.674   3.908 -0.4920  0.3535 -0.4698
  125OSM    HO313235   5.300   0.720   3.824  1.6839  0.2555 -0.3378
  125OSM    C4S13236   5.272   0.752   4.130  0.1208  0.8773 -0.4255
  125OSM    H4S13237   5.181   0.814   4.139 -1.0700 -0.7876 -0.5612
  125OSM    C5S13238   5.287   0.657   4.225  0.7289  0.1224  0.2983
  125OSM    H5S13239   5.362   0.577   4.217  0.1667 -0.3588 -0.2590
  125OSM    C6S13240   5.193   0.649   4.348  0.8787 -0.2233 -0.7036
  125OSM    H6S13241   5.092   0.686   4.321 -0.3843 -1.5559  1.8573
  125OSM    H6T13242   5.230   0.720   4.425 -4.1406  1.2333  0.7526
  125OSM    C7S13243   5.179   0.510   4.401  0.1943 -0.1055 -0.1125
  125OSM    H7S13244   5.277   0.461   4.421 -0.2116 -0.6722  0.5350
  125OSM    H7T13245   5.139   0.444   4.322 -0.8025 -0.8563  0.9897
  125OSM    C8S13246   5.096   0.507   4.527 -0.0933 -0.0854  0.2571
  125OSM    H8S13247   5.056   0.404   4.531 -0.0339 -0.3991 -3.5725
  125OSM    H8T13248   5.017   0.584   4.527 -0.0493 -0.0295  1.3739
  125OSM    C9S13249   5.177   0.542   4.657 -0.1164 -0.1555  0.0799
  125OSM    H9S13250   5.170   0.651   4.675  1.2711 -0.1481  0.7040
  125OSM    H9T13251   5.283   0.519   4.635 -0.0751  0.4818 -0.4284
  125OSM   C10S13252   5.142   0.463   4.786  0.2222 -0.5538 -0.1935
  125OSM   H10S13253   5.092   0.365   4.771 -1.0685 -0.3410  2.2166
  125OSM   H10T13254   5.066   0.515   4.848 -0.8522  0.1850 -2.0438
  125OSM   C11S13255   5.267   0.436   4.862 -0.9482  0.3567 -0.6034
  125OSM   H11S13256   5.330   0.527   4.848  0.4453 -0.4461  0.2630
  125OSM   H11T13257   5.326   0.363   4.803  0.0390  1.2863 -0.8015
  125OSM   C12S13258   5.243   0.388   5.010 -0.1205 -0.1556  0.4412
  125OSM   H12S13259   5.205   0.284   5.000  0.6886 -0.4503  0.3599
  125OSM   H12T13260   5.163   0.449   5.058 -1.4574 -1.7064  0.2640
  125OSM   C13S13261   5.379   0.389   5.083 -0.1062 -0.0617  0.7753
  125OSM   H13S13262   5.401   0.494   5.112  2.2246  0.0646 -1.1952
  125OSM   H13T13263   5.458   0.342   5.021  0.9650  0.8593  1.4029
  125OSM   C14S13264   5.370   0.302   5.208 -0.3909  0.5273 -0.3936
  125OSM   H14S13265   5.342   0.196   5.191  0.0609  0.3472 -0.0608
  125OSM   H14T13266   5.284   0.350   5.260 -2.0325 -1.8347 -0.7796
  125OSM   C15S13267   5.507   0.309   5.278 -0.2227 -0.5317  0.6944
  125OSM   H15S13268   5.589   0.304   5.204 -1.5366 -2.2887 -0.7324
  125OSM   H15T13269   5.513   0.221   5.345 -1.0560 -1.2185 -0.1020
  125OSM   C16S13270   5.515   0.430   5.372 -0.3491  0.3371 -0.3681
  125OSM   H16S13271   5.422   0.451   5.428 -0.3526  1.6400 -0.8164
  125OSM   H16T13272   5.543   0.520   5.312  1.9691 -0.9851 -1.4232
  125OSM   C17S13273   5.628   0.408   5.476 -0.1252  0.4390  0.7002
  125OSM   H17S13274   5.665   0.509   5.500 -3.1623  1.2491  2.5815
  125OSM   H17T13275   5.709   0.347   5.432 -0.7502 -0.5189  0.8445
  125OSM   C18S13276   5.575   0.339   5.599 -0.0813 -0.1868 -0.2723
  125OSM   H18S13277   5.543   0.237   5.569  1.0959 -0.9620  0.9679
  125OSM   H18T13278   5.485   0.387   5.643  0.8271 -0.1732  1.7130
  125OSM   H18U13279   5.657   0.327   5.674  0.3719  1.0589 -0.5490
  125OSM    C1F13280   5.446   1.114   4.090 -0.2919  0.0183 -1.0202
  125OSM     OF13281   5.388   1.185   4.010  0.2067  0.5610 -0.9219
  125OSM    C2F13282   5.526   1.181   4.200  0.9690 -0.3088 -0.0272
  125OSM    H2F13283   5.625   1.207   4.156  1.7339 -0.3621  1.5988
  125OSM    H2G13284   5.535   1.112   4.287  2.1870  0.3759  0.4151
  125OSM    C3F13285   5.455   1.312   4.240  0.7143  0.1347  0.5295
  125OSM    H3F13286   5.352   1.301   4.280 -0.6499  0.6615 -2.5462
  125OSM    H3G13287   5.451   1.378   4.150  0.7649  0.1362  0.5284
  125OSM    C4F13288   5.533   1.378   4.352  0.2766  0.2401 -0.9132
  125OSM    H4F13289   5.474   1.471   4.362  1.6510  1.0184  0.3560
  125OSM    H4G13290   5.632   1.408   4.311  1.1157 -1.0675  0.0675
  125OSM    C5F13291   5.533   1.308   4.492 -0.6994  0.1604 -0.5119
  125OSM    H5F13292   5.602   1.222   4.487 -1.2582 -0.2223 -1.9157
  125OSM    H5G13293   5.438   1.270   4.536 -1.3389  1.4087 -0.7620
  125OSM    C6F13294   5.597   1.396   4.599 -0.0861 -0.0032  0.1661
  125OSM    H6F13295   5.533   1.485   4.618 -2.5796 -1.7176  0.2290
  125OSM    H6G13296   5.701   1.416   4.564  0.6606  0.4083  2.4423
  125OSM    C7F13297   5.612   1.329   4.734 -0.1455  0.4876  0.2717
  125OSM    H7F13298   5.647   1.226   4.712 -0.1723  0.3028  1.0553
  125OSM    H7G13299   5.509   1.317   4.773  0.2035 -1.7820  0.6091
  125OSM    C8F13300   5.702   1.407   4.829  0.0044 -0.1424  0.2825
  125OSM    H8F13301   5.641   1.486   4.878  0.0164  1.1182 -1.6332
  125OSM    H8G13302   5.782   1.465   4.778 -0.5823  1.6849  1.3499
  125OSM    C9F13303   5.769   1.313   4.915 -0.3191 -0.6629  0.2743
  125OSM    H9F13304   5.814   1.228   4.861 -0.2144  0.1929 -1.0320
  125OSM   C10F13305   5.807   1.339   5.040 -0.1086  0.7650 -0.9181
  125OSM   H10F13306   5.841   1.254   5.101 -0.7854  1.2829  0.2009
  125OSM   C11F13307   5.765   1.466   5.118  0.1613 -0.1476 -0.3038
  125OSM   H11F13308   5.659   1.456   5.150 -0.1980 -0.8128 -1.6350
  125OSM   H11G13309   5.768   1.546   5.042  0.9806 -0.1285 -0.2596
  125OSM   C12F13310   5.859   1.499   5.233  0.3434  0.6026  0.5643
  125OSM   H12F13311   5.857   1.605   5.266  3.6874  0.5869  1.1034
  125OSM   H12G13312   5.965   1.472   5.212 -0.5435 -2.7726 -0.1344
  125OSM   C13F13313   5.846   1.415   5.365  1.0199  0.0862  0.1020
  125OSM   H13F13314   5.846   1.305   5.358 -0.4291 -0.2992  3.6340
  125OSM   H13G13315   5.751   1.437   5.419  2.4416  1.1892  2.3322
  125OSM   C14F13316   5.959   1.432   5.464 -0.2286 -0.0215  0.1049
  125OSM   H14F13317   5.965   1.543   5.471 -2.2450  0.2394 -1.3819
  125OSM   H14G13318   6.058   1.407   5.420  0.2536  0.4824  0.8876
  125OSM   C15F13319   5.941   1.373   5.599  0.9963  0.1277 -0.1687
  125OSM   H15F13320   6.033   1.385   5.660  0.8801  0.3124 -0.0281
  125OSM   H15G13321   5.904   1.269   5.592  0.0697  0.4632 -0.4673
  125OSM   C16F13322   5.835   1.441   5.685  0.0135  0.5576 -0.3670
  125OSM   H16F13323   5.739   1.436   5.630  0.0014 -0.0425 -0.2922
  125OSM   H16G13324   5.858   1.550   5.684  1.6120  0.2577  0.2803
  125OSM   C17F13325   5.826   1.376   5.823  0.1676  0.4586 -0.7157
  125OSM   H17F13326   5.819   1.266   5.803 -0.4821  0.5663 -1.1049
  125OSM   H17G13327   5.735   1.408   5.877  1.8170  0.6735  2.1081
  125OSM   C18F13328   5.946   1.399   5.914 -0.1430 -0.3410  0.3644
  125OSM   H18F13329   5.939   1.348   6.013  0.5336 -0.3559  0.4065
  125OSM   H18G13330   5.951   1.508   5.934 -2.2452  0.0152 -0.7664
  125OSM   H18H13331   6.039   1.364   5.864 -1.6442 -1.5818 -1.7397
  126OSM      N13332   3.191   1.863   3.575  0.0914  0.0916 -0.1146
  126OSM    C1513333   3.166   1.765   3.468 -0.2182  0.2593 -0.1056
  126OSM   H15A13334   3.246   1.774   3.396 -0.4298  2.3537 -0.1404
  126OSM   H15B13335   3.069   1.778   3.421 -1.0424 -4.3149 -0.1606
  126OSM   H15C13336   3.179   1.664   3.504  2.1203  0.3848 -0.4465
  126OSM    C1413337   3.333   1.841   3.618 -0.1529 -0.1453 -0.1754
  126OSM   H14A13338   3.345   1.737   3.644  1.5609  0.1482  0.3230
  126OSM   H14B13339   3.351   1.894   3.710 -0.7450  0.0944 -0.1946
  126OSM   H14C13340   3.410   1.862   3.545  1.3288  1.0703  1.6392
  126OSM    C1313341   3.180   1.998   3.533  0.2605  0.0167  0.7311
  126OSM   H13A13342   3.240   2.021   3.447 -1.2204 -1.1582 -0.6822
  126OSM   H13B13343   3.208   2.059   3.618  0.0173 -0.5684  1.2432
  126OSM   H13C13344   3.080   2.017   3.496  1.0101 -1.0055 -1.9737
  126OSM    C1213345   3.087   1.846   3.690 -0.1282  0.4480 -0.1031
  126OSM   H12A13346   2.989   1.861   3.648 -0.0609 -0.2005 -0.5023
  126OSM   H12B13347   3.117   1.918   3.764  3.0572 -2.2003  1.4282
  126OSM    C1113348   3.091   1.708   3.765  0.7394  0.0473 -0.3501
  126OSM   H11A13349   3.027   1.717   3.855  0.6126 -1.9209 -0.1984
  126OSM   H11B13350   3.193   1.691   3.806  0.2869 -1.1358  0.3254
  126OSM      P13351   2.884   1.547   3.690 -0.2530  0.1767 -0.4733
  126OSM    O1313352   2.794   1.644   3.630 -0.1339 -0.3154  0.5103
  126OSM    O1413353   2.880   1.410   3.638 -0.6037 -0.0045  0.2063
  126OSM    O1113354   2.858   1.553   3.848  0.2137  0.0142  0.4978
  126OSM    O1213355   3.033   1.600   3.682 -0.3201  0.1771 -0.6573
  126OSM    C1S13356   2.900   1.458   3.940  0.3372  0.1057  0.7920
  126OSM    H1S13357   3.002   1.489   3.972  1.5142 -2.2686 -0.3515
  126OSM    H1T13358   2.913   1.358   3.893  0.7805  0.5099  0.0262
  126OSM     NF13359   2.877   1.342   4.162  0.0120 -0.7541 -0.2967
  126OSM    HNF13360   2.854   1.245   4.164 -0.3615 -0.6654 -0.2963
  126OSM    C2S13361   2.809   1.435   4.063  0.3622 -0.2954 -0.6608
  126OSM    H2S13362   2.794   1.534   4.111  1.8554 -0.6530  0.6410
  126OSM    C3S13363   2.665   1.389   4.022 -0.3044  1.1413 -0.0356
  126OSM    H3S13364   2.668   1.280   3.999  0.9523  1.4659 -1.6222
  126OSM     O313365   2.604   1.460   3.914 -0.1124  0.4556 -0.4248
  126OSM    HO313366   2.671   1.525   3.891  0.9876 -0.5459 -0.1474
  126OSM    C4S13367   2.580   1.409   4.145  0.0694  0.4473  0.4081
  126OSM    H4S13368   2.564   1.313   4.198 -1.8426 -0.3850 -1.5111
  126OSM    C5S13369   2.520   1.520   4.186 -0.1085 -0.3591  0.3447
  126OSM    H5S13370   2.533   1.612   4.128 -0.1403  0.2763  1.3136
  126OSM    C6S13371   2.441   1.543   4.311 -0.3640 -0.1598  0.0459
  126OSM    H6S13372   2.498   1.614   4.374 -0.9828  0.5201 -0.1464
  126OSM    H6T13373   2.425   1.451   4.372  0.6247  0.0616  0.6599
  126OSM    C7S13374   2.303   1.610   4.286 -0.0666 -0.0317  0.9051
  126OSM    H7S13375   2.247   1.557   4.207  1.6309  0.7333 -0.8773
  126OSM    H7T13376   2.323   1.714   4.253 -0.9945 -0.2270 -0.3297
  126OSM    C8S13377   2.215   1.628   4.409 -0.7104 -1.0221  0.6288
  126OSM    H8S13378   2.123   1.684   4.386 -0.1775 -0.5012 -0.3221
  126OSM    H8T13379   2.273   1.671   4.493 -1.0345  0.1509  0.2670
  126OSM    C9S13380   2.164   1.500   4.476  0.2681 -0.1814  0.5383
  126OSM    H9S13381   2.251   1.434   4.495  0.2094 -0.8631 -1.3403
  126OSM    H9T13382   2.114   1.450   4.390  2.9655  1.0027 -1.9120
  126OSM   C10S13383   2.075   1.519   4.597 -0.2230  0.0567  0.4177
  126OSM   H10S13384   2.036   1.420   4.628  0.3653 -0.3086  0.0084
  126OSM   H10T13385   1.995   1.593   4.572  0.5977  0.3632 -1.4713
  126OSM   C11S13386   2.140   1.564   4.733  0.3382  0.2840  0.6279
  126OSM   H11S13387   2.058   1.606   4.795 -0.0932 -0.3227  0.4791
  126OSM   H11T13388   2.211   1.646   4.707 -1.4767  1.0263 -2.5166
  126OSM   C12S13389   2.208   1.451   4.806 -0.3662  0.0652 -0.5030
  126OSM   H12S13390   2.269   1.392   4.734  0.1082 -0.8005  0.5748
  126OSM   H12T13391   2.144   1.368   4.844 -1.0121  1.0331  0.5862
  126OSM   C13S13392   2.302   1.517   4.913  0.5819 -0.5554  0.5534
  126OSM   H13S13393   2.331   1.614   4.866  1.2973 -0.1154  1.8737
  126OSM   H13T13394   2.399   1.468   4.934  2.0354  1.1298 -1.6542
  126OSM   C14S13395   2.224   1.542   5.040  0.2826 -0.0059 -0.1736
  126OSM   H14S13396   2.123   1.584   5.021 -0.5354 -0.8474  1.9630
  126OSM   H14T13397   2.268   1.623   5.102  0.3364  0.3472 -0.6716
  126OSM   C15S13398   2.202   1.423   5.135 -0.5511 -0.6772 -0.2584
  126OSM   H15S13399   2.299   1.369   5.138  1.3271  2.4832  0.9605
  126OSM   H15T13400   2.124   1.356   5.093 -1.5468 -1.1704  2.1828
  126OSM   C16S13401   2.172   1.467   5.275 -0.4701  0.0638 -0.3014
  126OSM   H16S13402   2.076   1.523   5.270  1.2373  3.1805 -0.8156
  126OSM   H16T13403   2.252   1.539   5.305  0.7838 -1.0628 -0.8299
  126OSM   C17S13404   2.174   1.352   5.365 -0.0497  0.0699 -0.2036
  126OSM   H17S13405   2.277   1.334   5.403 -0.6756  1.8335  2.7319
  126OSM   H17T13406   2.145   1.262   5.308  1.1402  0.4268 -1.4283
  126OSM   C18S13407   2.073   1.380   5.473  0.3176 -0.2264 -0.4822
  126OSM   H18S13408   2.101   1.474   5.525 -0.9751 -0.2051  0.2322
  126OSM   H18T13409   2.067   1.300   5.550  3.5354 -1.3041 -1.2095
  126OSM   H18U13410   1.971   1.391   5.429  0.9519  1.0430 -1.7095
  126OSM    C1F13411   2.986   1.370   4.225  0.6394 -0.7842 -0.3989
  126OSM     OF13412   3.047   1.479   4.223  0.3304  0.0369  0.0311
  126OSM    C2F13413   3.019   1.255   4.318 -0.0475 -0.2578 -0.0936
  126OSM    H2F13414   3.085   1.181   4.268 -0.2464 -1.9810  2.0537
  126OSM    H2G13415   2.923   1.201   4.331  0.2767 -0.8882 -0.2866
  126OSM    C3F13416   3.080   1.301   4.450  0.1056 -0.3505 -0.0188
  126OSM    H3F13417   3.003   1.365   4.497  1.1769 -0.8682  2.5713
  126OSM    H3G13418   3.165   1.368   4.424 -0.8062  0.7293 -0.2372
  126OSM    C4F13419   3.122   1.190   4.553 -0.6644  0.3259 -0.7375
  126OSM    H4F13420   3.201   1.119   4.520  1.0400  0.0313  3.4159
  126OSM    H4G13421   3.034   1.127   4.579 -1.0725  1.6066  1.1770
  126OSM    C5F13422   3.181   1.246   4.687  1.1570 -0.0940  0.3414
  126OSM    H5F13423   3.114   1.332   4.710  1.0966 -0.6666  2.5033
  126OSM    H5G13424   3.287   1.279   4.678  1.6049 -0.9661  2.0692
  126OSM    C6F13425   3.178   1.131   4.790 -0.7012  0.7081  0.3101
  126OSM    H6F13426   3.246   1.050   4.755  1.3283  1.6711  1.8815
  126OSM    H6G13427   3.072   1.098   4.786 -1.5283  2.9681  1.5402
  126OSM    C7F13428   3.217   1.174   4.930 -0.2400  0.3355 -1.2513
  126OSM    H7F13429   3.124   1.215   4.974 -0.3401 -1.8740  0.7822
  126OSM    H7G13430   3.298   1.250   4.930  0.0253  0.0897  0.7265
  126OSM    C8F13431   3.274   1.061   5.018 -0.0821  0.6470  0.7412
  126OSM    H8F13432   3.310   1.092   5.119 -0.0886 -0.9553  1.2614
  126OSM    H8G13433   3.362   1.017   4.967 -0.2434 -1.1731  1.9212
  126OSM    C9F13434   3.171   0.952   5.027  0.5630 -0.0982 -0.4284
  126OSM    H9F13435   3.108   0.922   4.942  0.4214 -0.4110 -0.2155
  126OSM   C10F13436   3.158   0.872   5.136 -0.4039 -0.7992  0.5338
  126OSM   H10F13437   3.088   0.787   5.130 -0.0082 -1.0300 -1.7486
  126OSM   C11F13438   3.222   0.885   5.267  0.0498  0.3391 -0.6868
  126OSM   H11F13439   3.321   0.932   5.251  0.9454 -1.1199  0.3746
  126OSM   H11G13440   3.247   0.782   5.297  1.1763  0.8287  0.1005
  126OSM   C12F13441   3.150   0.967   5.376 -0.9359 -0.5892 -0.6511
  126OSM   H12F13442   3.050   0.923   5.397 -0.8412 -0.1254  0.8188
  126OSM   H12G13443   3.125   1.070   5.342  2.7199  1.1383  1.2271
  126OSM   C13F13444   3.246   0.977   5.505  0.6965 -0.3335  1.0096
  126OSM   H13F13445   3.336   1.029   5.467 -0.2070 -0.8555 -2.0978
  126OSM   H13G13446   3.266   0.875   5.545  0.9480 -1.1386 -1.0287
  126OSM   C14F13447   3.182   1.045   5.625 -0.0553  0.0442  0.2920
  126OSM   H14F13448   3.084   1.008   5.664  0.6219  1.5758  3.7877
  126OSM   H14G13449   3.174   1.153   5.599  2.2718  0.3469  0.6827
  126OSM   C15F13450   3.287   1.055   5.730  0.0032  0.3139  0.3457
  126OSM   H15F13451   3.376   1.117   5.708  0.2859 -0.8643 -2.1420
  126OSM   H15G13452   3.337   0.956   5.741 -0.2941  0.2768  1.5892
  126OSM   C16F13453   3.232   1.112   5.860 -0.3038  0.1831 -0.1527
  126OSM   H16F13454   3.142   1.056   5.891  1.1288 -2.0861  0.1481
  126OSM   H16G13455   3.203   1.218   5.846  0.9295  0.6919  0.9173
  126OSM   C17F13456   3.323   1.113   5.979 -0.2569  0.2500 -0.4473
  126OSM   H17F13457   3.402   1.187   5.955  2.0507 -1.6972  0.6766
  126OSM   H17G13458   3.375   1.015   5.992 -0.0831  0.2569 -1.0682
  126OSM   C18F13459   3.257   1.156   6.110 -0.5347  0.2290 -0.0105
  126OSM   H18F13460   3.198   1.074   6.154 -0.5902 -1.1332 -2.4256
  126OSM   H18G13461   3.194   1.245   6.088 -0.8946  0.8151  2.9723
  126OSM   H18H13462   3.339   1.178   6.182  0.6144  0.4097 -1.3180
  127OSM      N13463   0.824   3.680   3.860  0.0603  0.1260  0.5549
  127OSM    C1513464   0.759   3.730   3.980 -0.8749 -0.6492 -0.1231
  127OSM   H15A13465   0.675   3.797   3.961 -1.2069 -0.8098  0.7386
  127OSM   H15B13466   0.842   3.782   4.024  0.6156 -0.3367 -3.0690
  127OSM   H15C13467   0.721   3.655   4.047 -0.7376 -1.0660 -0.5095
  127OSM    C1413468   0.866   3.795   3.780  0.1693 -0.6558  0.1012
  127OSM   H14A13469   0.941   3.847   3.837 -0.1789  0.9532 -0.8434
  127OSM   H14B13470   0.780   3.859   3.769  0.6859 -0.1463 -1.1725
  127OSM   H14C13471   0.910   3.766   3.686 -0.0280  1.9186 -0.8740
  127OSM    C1313472   0.950   3.607   3.900  0.2557 -0.5913  0.1255
  127OSM   H13A13473   0.932   3.508   3.938  0.4073 -0.7765 -0.2763
  127OSM   H13B13474   0.995   3.670   3.975  1.3274 -0.8628 -0.2713
  127OSM   H13C13475   1.028   3.602   3.825  0.1818  0.4624 -0.0400
  127OSM    C1213476   0.728   3.595   3.781 -0.6823  0.0094 -0.1154
  127OSM   H12A13477   0.776   3.546   3.698 -1.1040  0.2302 -0.4903
  127OSM   H12B13478   0.648   3.652   3.737 -2.0456 -1.5228  0.2584
  127OSM    C1113479   0.656   3.476   3.846 -0.0079  0.6160 -0.4603
  127OSM   H11A13480   0.579   3.425   3.783 -0.2013  0.5798 -0.2006
  127OSM   H11B13481   0.603   3.517   3.935 -0.0853  1.2223 -0.7840
  127OSM      P13482   0.812   3.290   3.776 -0.2017  0.5114  0.1070
  127OSM    O1313483   0.749   3.311   3.636  0.3144 -0.2121 -0.3393
  127OSM    O1413484   0.959   3.305   3.797 -0.6127 -0.4204 -0.2142
  127OSM    O1113485   0.783   3.137   3.807 -0.1278 -0.1037  0.7190
  127OSM    O1213486   0.741   3.367   3.894  0.5273 -0.3873 -0.3229
  127OSM    C1S13487   0.806   3.073   3.926  0.0200  0.4280  0.1292
  127OSM    H1S13488   0.902   3.104   3.973 -0.5743  0.5888  1.2994
  127OSM    H1T13489   0.817   2.965   3.902 -0.4195  0.4152 -0.0165
  127OSM     NF13490   0.753   3.035   4.165 -0.2588  0.7144 -0.5364
  127OSM    HNF13491   0.719   2.946   4.196  0.3312  0.5417 -0.3716
  127OSM    C2S13492   0.694   3.082   4.037  0.3077 -0.0305 -0.5198
  127OSM    H2S13493   0.666   3.189   4.040 -0.4435 -0.1708 -1.7908
  127OSM    C3S13494   0.561   3.011   3.991 -0.3512 -0.5760  0.2751
  127OSM    H3S13495   0.577   2.903   3.972  0.9631 -0.2172 -0.8363
  127OSM     O313496   0.517   3.072   3.864  0.1586  0.2359  0.1111
  127OSM    HO313497   0.596   3.122   3.841 -0.0266  0.6284  0.3204
  127OSM    C4S13498   0.451   3.021   4.094  0.0856 -0.4564  0.0169
  127OSM    H4S13499   0.386   3.110   4.090  1.1925  0.3215 -1.1430
  127OSM    C5S13500   0.438   2.933   4.198  0.0943 -0.5105 -0.1760
  127OSM    H5S13501   0.510   2.851   4.207 -0.1363 -0.4929  2.5715
  127OSM    C6S13502   0.320   2.940   4.294  0.8855  0.2295 -0.2493
  127OSM    H6S13503   0.251   2.853   4.291  0.1952  0.5925  2.4987
  127OSM    H6T13504   0.252   3.019   4.255 -2.1500 -0.8477  2.4351
  127OSM    C7S13505   0.358   2.955   4.440 -0.3792  0.2109 -0.4486
  127OSM    H7S13506   0.272   2.967   4.509  0.4479  0.7482  0.5180
  127OSM    H7T13507   0.401   3.057   4.445 -0.0580  0.0480  0.3538
  127OSM    C8S13508   0.463   2.856   4.494 -0.7686  0.6631  0.0187
  127OSM    H8S13509   0.541   2.849   4.415  0.3200  2.1087  0.9019
  127OSM    H8T13510   0.416   2.757   4.506  0.4493  0.0234 -0.3470
  127OSM    C9S13511   0.532   2.895   4.627  0.4601 -0.8535  0.2607
  127OSM    H9S13512   0.529   3.006   4.637 -1.2599 -0.3645 -3.6889
  127OSM    H9T13513   0.638   2.864   4.618  1.0891  1.3989 -0.8021
  127OSM   C10S13514   0.461   2.841   4.760  0.2628  0.5336  0.0019
  127OSM   H10S13515   0.450   2.731   4.750 -1.2848  0.4814  1.7717
  127OSM   H10T13516   0.358   2.879   4.747 -0.3419 -1.4062 -1.2072
  127OSM   C11S13517   0.533   2.880   4.892  0.2753 -0.2240 -0.2880
  127OSM   H11S13518   0.531   2.990   4.900  3.1736 -0.0109 -1.2342
  127OSM   H11T13519   0.638   2.844   4.881 -0.3032 -2.0391 -0.3246
  127OSM   C12S13520   0.456   2.821   5.010 -0.3133  0.5064  0.7088
  127OSM   H12S13521   0.411   2.724   4.979 -0.5684  1.1538 -1.0412
  127OSM   H12T13522   0.375   2.895   5.028  1.1590  2.2707  0.3822
  127OSM   C13S13523   0.533   2.810   5.144 -0.1551 -0.2207  0.2051
  127OSM   H13S13524   0.561   2.915   5.167  0.8272 -0.3779 -0.1994
  127OSM   H13T13525   0.624   2.750   5.126 -0.7139 -1.0846  0.2255
  127OSM   C14S13526   0.464   2.728   5.247  0.4745  0.3342  0.0888
  127OSM   H14S13527   0.420   2.642   5.192  0.5375 -0.2891  0.9817
  127OSM   H14T13528   0.378   2.782   5.293  0.0091 -0.4693  0.1809
  127OSM   C15S13529   0.564   2.697   5.360  0.1440 -0.8264  0.3812
  127OSM   H15S13530   0.656   2.658   5.311 -1.0843 -2.0059 -1.0933
  127OSM   H15T13531   0.529   2.611   5.422 -1.4034 -2.3602 -2.3933
  127OSM   C16S13532   0.598   2.812   5.453 -0.0502 -0.5429 -0.9544
  127OSM   H16S13533   0.500   2.844   5.494  0.5535 -0.1188  0.1989
  127OSM   H16T13534   0.653   2.891   5.397  2.5440 -2.1814 -0.8585
  127OSM   C17S13535   0.674   2.768   5.569  0.0206 -0.3055  0.2186
  127OSM   H17S13536   0.764   2.712   5.534  0.7967  1.0325 -0.0019
  127OSM   H17T13537   0.613   2.689   5.618 -0.2150 -0.7311 -0.7380
  127OSM   C18S13538   0.720   2.870   5.677  0.0416  0.2793  0.3439
  127OSM   H18S13539   0.802   2.940   5.651 -0.7188  0.4481 -1.7584
  127OSM   H18T13540   0.779   2.810   5.750  1.9401  0.8653 -0.6467
  127OSM   H18U13541   0.642   2.918   5.740  0.3166 -0.2606  1.1106
  127OSM    C1F13542   0.853   3.101   4.229  0.5603  0.3960  0.1146
  127OSM     OF13543   0.880   3.222   4.200 -0.2546  0.2718 -0.7630
  127OSM    C2F13544   0.908   3.024   4.345  0.5970 -0.1049  0.1598
  127OSM    H2F13545   0.998   2.972   4.305 -1.8249 -1.6563 -3.9191
  127OSM    H2G13546   0.837   2.941   4.364 -1.0561  1.2531  0.1359
  127OSM    C3F13547   0.937   3.112   4.467 -0.1362  0.6810  0.5078
  127OSM    H3F13548   0.858   3.185   4.494 -0.5929  0.5935 -0.5366
  127OSM    H3G13549   1.025   3.171   4.431 -0.1172 -0.6780 -1.8637
  127OSM    C4F13550   0.959   3.024   4.590 -0.1407  0.4304  0.3787
  127OSM    H4F13551   0.866   2.967   4.615 -0.9838  1.8036  0.4438
  127OSM    H4G13552   0.970   3.092   4.676 -1.1061  2.1015 -0.7618
  127OSM    C5F13553   1.082   2.943   4.588 -0.2721  0.4241  0.3503
  127OSM    H5F13554   1.173   3.002   4.566  0.6284 -1.9413 -2.9546
  127OSM    H5G13555   1.087   2.875   4.500 -1.2739  1.9553 -0.9404
  127OSM    C6F13556   1.107   2.833   4.699 -0.1428  0.2148  0.1263
  127OSM    H6F13557   1.193   2.772   4.665  2.1956  3.1300  0.3588
  127OSM    H6G13558   1.011   2.778   4.705  1.2880 -2.3064  3.0931
  127OSM    C7F13559   1.127   2.887   4.838 -0.3155 -0.5186 -0.0140
  127OSM    H7F13560   1.043   2.953   4.871 -1.3524 -1.2008 -1.2009
  127OSM    H7G13561   1.209   2.961   4.825 -1.8672  1.0186 -1.5878
  127OSM    C8F13562   1.148   2.781   4.945 -0.8025  0.6813  0.0156
  127OSM    H8F13563   1.224   2.706   4.917 -1.3659  0.0263  0.2287
  127OSM    H8G13564   1.049   2.735   4.962 -0.3736 -0.0307  0.6372
  127OSM    C9F13565   1.194   2.855   5.067 -0.7089 -0.3999 -0.0131
  127OSM    H9F13566   1.275   2.927   5.045 -0.2904 -0.9181 -0.1732
  127OSM   C10F13567   1.139   2.854   5.188  0.8445 -0.8457  0.3613
  127OSM   H10F13568   1.168   2.924   5.267  0.0123 -0.3703  0.2604
  127OSM   C11F13569   1.026   2.762   5.232 -0.7508  0.1436  0.3756
  127OSM   H11F13570   0.994   2.697   5.148 -1.0863  0.6252  0.1263
  127OSM   H11G13571   0.939   2.828   5.249  1.2221  3.3570 -1.0589
  127OSM   C12F13572   1.062   2.656   5.348 -0.6985 -0.8247 -1.3741
  127OSM   H12F13573   1.137   2.580   5.316 -0.9505 -1.3467 -0.7400
  127OSM   H12G13574   0.971   2.602   5.380 -0.8180  0.2889  0.3307
  127OSM   C13F13575   1.102   2.730   5.477 -0.0516  0.0623  0.1846
  127OSM   H13F13576   1.021   2.801   5.507  0.3477  0.3929  0.4954
  127OSM   H13G13577   1.194   2.793   5.479  0.5584 -0.6925 -1.8301
  127OSM   C14F13578   1.122   2.637   5.600 -0.2268 -0.5010 -0.0365
  127OSM   H14F13579   1.226   2.599   5.598  0.7796  2.1019 -1.0390
  127OSM   H14G13580   1.056   2.548   5.599 -0.0596 -0.6262 -0.4084
  127OSM   C15F13581   1.099   2.713   5.731 -0.5646  0.1817 -0.2690
  127OSM   H15F13582   0.989   2.724   5.724 -0.6863 -1.4991 -1.7648
  127OSM   H15G13583   1.153   2.810   5.721  1.3685 -0.8256 -0.1198
  127OSM   C16F13584   1.132   2.622   5.859 -0.2126  0.4254  0.8657
  127OSM   H16F13585   1.241   2.601   5.864 -0.2880 -0.4811 -0.6643
  127OSM   H16G13586   1.077   2.526   5.854  1.0713 -0.3125  0.5539
  127OSM   C17F13587   1.081   2.691   5.986 -0.0932  0.4211  0.4571
  127OSM   H17F13588   1.069   2.797   5.955  3.6739  0.9730  0.3917
  127OSM   H17G13589   1.158   2.684   6.065  0.3982 -0.9797 -0.1265
  127OSM   C18F13590   0.952   2.635   6.037 -0.3811 -0.1731 -0.1482
  127OSM   H18F13591   0.964   2.535   6.083 -0.3378  0.4448  1.2328
  127OSM   H18G13592   0.879   2.631   5.954  0.1808 -0.4407 -0.6354
  127OSM   H18H13593   0.909   2.701   6.115  1.9907  0.5121  0.6727
  128OSM      N13594   2.060   2.873   3.768 -0.0282 -0.3986 -0.0637
  128OSM    C1513595   1.934   2.886   3.848  0.3233 -0.6358  0.2277
  128OSM   H15A13596   1.842   2.849   3.804  0.9355  0.5987 -2.2514
  128OSM   H15B13597   1.925   2.990   3.876  0.9462 -0.0553 -1.5935
  128OSM   H15C13598   1.955   2.835   3.940 -2.8818  0.2710  1.6035
  128OSM    C1413599   2.076   2.737   3.715  0.7752 -0.0720 -0.5540
  128OSM   H14A13600   2.017   2.726   3.626  1.9674  1.5919 -1.5940
  128OSM   H14B13601   2.057   2.658   3.787  0.6751 -2.1991 -2.7671
  128OSM   H14C13602   2.173   2.713   3.674 -0.0524  1.3046 -3.4969
  128OSM    C1313603   2.062   2.971   3.659 -0.1169 -0.8135 -0.3441
  128OSM   H13A13604   2.057   3.073   3.693  1.6176 -0.2521 -1.6381
  128OSM   H13B13605   1.990   2.952   3.581 -1.0256  0.5267  0.1402
  128OSM   H13C13606   2.156   2.966   3.605  1.7610  2.9178  2.1482
  128OSM    C1213607   2.172   2.911   3.867  0.6814  0.1936 -0.5487
  128OSM   H12A13608   2.157   3.017   3.881  0.5725 -0.0418  1.3226
  128OSM   H12B13609   2.271   2.897   3.825  0.6364  0.9847 -0.9272
  128OSM    C1113610   2.169   2.847   4.011  0.4021  0.1479  0.3566
  128OSM   H11A13611   2.078   2.879   4.066 -0.8667 -1.0354 -0.9675
  128OSM   H11B13612   2.236   2.910   4.074 -0.9965  2.0964  0.0088
  128OSM      P13613   2.336   2.647   3.990 -0.2239  0.5747 -0.2853
  128OSM    O1313614   2.329   2.531   3.892  0.1006 -0.8146 -0.1795
  128OSM    O1413615   2.417   2.762   3.959 -0.1411 -0.2191 -0.3573
  128OSM    O1113616   2.381   2.582   4.127 -0.8849  0.0363 -0.1745
  128OSM    O1213617   2.190   2.701   4.017  0.3210  0.1603  0.1635
  128OSM    C1S13618   2.383   2.663   4.244 -0.5175  0.2367 -1.5529
  128OSM    H1S13619   2.280   2.694   4.270  0.0890  0.0649  1.3958
  128OSM    H1T13620   2.435   2.761   4.250 -1.3380  0.5847  2.3726
  128OSM     NF13621   2.432   2.661   4.486 -0.5152 -0.0417  0.1512
  128OSM    HNF13622   2.511   2.706   4.526  0.0176  1.9895 -2.8868
  128OSM    C2S13623   2.453   2.584   4.361 -0.3748 -0.2387 -0.0483
  128OSM    H2S13624   2.396   2.490   4.372  0.3855 -0.6267  0.7533
  128OSM    C3S13625   2.605   2.559   4.326  0.1570 -0.1327 -0.7767
  128OSM    H3S13626   2.659   2.653   4.304 -1.4812  0.7918 -1.0257
  128OSM     O313627   2.619   2.458   4.220 -0.8713  0.1254 -0.0208
  128OSM    HO313628   2.527   2.435   4.208 -1.2686  0.7475  1.5199
  128OSM    C4S13629   2.657   2.505   4.459  0.5811  0.2895  0.1786
  128OSM    H4S13630   2.644   2.398   4.480  1.2881  0.0475 -0.5459
  128OSM    C5S13631   2.736   2.575   4.539 -0.1283  0.1618 -0.2984
  128OSM    H5S13632   2.750   2.681   4.514 -2.9526  0.7513  0.2687
  128OSM    C6S13633   2.800   2.526   4.663 -0.2261 -0.3956 -0.6710
  128OSM    H6S13634   2.901   2.571   4.666  0.2689 -1.5070  0.5163
  128OSM    H6T13635   2.823   2.417   4.664  0.8072 -0.2104  1.6572
  128OSM    C7S13636   2.723   2.568   4.792  0.1771 -0.0816  0.6503
  128OSM    H7S13637   2.634   2.503   4.802 -1.6090  2.1370 -0.2047
  128OSM    H7T13638   2.677   2.668   4.790  0.2212 -0.0739 -0.3539
  128OSM    C8S13639   2.803   2.562   4.920  0.2706 -0.2768  0.5130
  128OSM    H8S13640   2.858   2.466   4.918 -0.5221 -0.7642  1.1909
  128OSM    H8T13641   2.728   2.563   5.002 -0.2116  0.1581  0.0759
  128OSM    C9S13642   2.900   2.678   4.960 -0.7183  0.1211  0.4347
  128OSM    H9S13643   2.853   2.779   4.959 -0.9609  0.0916 -2.5753
  128OSM    H9T13644   2.967   2.680   4.871 -1.6183 -1.7755 -0.3552
  128OSM   C10S13645   2.971   2.638   5.086  0.2589  0.2822  0.1068
  128OSM   H10S13646   3.053   2.711   5.101  2.6256 -2.4262  1.2626
  128OSM   H10T13647   3.022   2.541   5.072 -0.4700 -0.2771  1.2200
  128OSM   C11S13648   2.885   2.655   5.211  0.3759  0.1022 -0.5998
  128OSM   H11S13649   2.793   2.594   5.204 -1.3446  2.3192  1.3518
  128OSM   H11T13650   2.842   2.756   5.222  0.3237 -0.1200  1.5410
  128OSM   C12S13651   2.944   2.624   5.351 -1.2340  0.6247 -0.5741
  128OSM   H12S13652   3.044   2.671   5.361 -0.4850 -0.5812 -1.9031
  128OSM   H12T13653   2.951   2.514   5.368  2.9434  0.6572 -1.1865
  128OSM   C13S13654   2.852   2.668   5.463  0.1754 -0.4615  0.2962
  128OSM   H13S13655   2.768   2.598   5.447 -1.7027  1.3839  1.4434
  128OSM   H13T13656   2.834   2.777   5.449  1.4087 -0.4854 -1.9036
  128OSM   C14S13657   2.910   2.655   5.604  0.0380 -0.0599 -0.5097
  128OSM   H14S13658   3.000   2.719   5.613  0.4382 -0.5200 -1.1933
  128OSM   H14T13659   2.946   2.550   5.610  2.2721  0.7328  1.7111
  128OSM   C15S13660   2.814   2.691   5.717 -0.0190 -0.6252 -0.5891
  128OSM   H15S13661   2.867   2.685   5.815 -0.9984 -0.9301 -0.0526
  128OSM   H15T13662   2.733   2.615   5.727  0.0863 -0.5861  0.8381
  128OSM   C16S13663   2.769   2.833   5.729  0.4409 -0.4588 -0.0989
  128OSM   H16S13664   2.691   2.864   5.656  0.6251  0.5600  0.1333
  128OSM   H16T13665   2.857   2.900   5.720  1.0953 -1.2982 -0.1258
  128OSM   C17S13666   2.714   2.859   5.867 -0.2138  0.7544 -0.1511
  128OSM   H17S13667   2.780   2.820   5.947 -0.1400  0.3069 -0.4289
  128OSM   H17T13668   2.615   2.808   5.867  0.4034 -0.5218  1.1906
  128OSM   C18S13669   2.699   3.004   5.905 -0.2999  0.6491  0.0401
  128OSM   H18S13670   2.792   3.045   5.950 -1.2777  0.3049  2.5519
  128OSM   H18T13671   2.615   3.018   5.976 -0.2352  0.5801  0.1306
  128OSM   H18U13672   2.663   3.064   5.819 -0.0255  0.1937 -0.3973
  128OSM    C1F13673   2.316   2.673   4.546  0.0064 -0.1103  0.2175
  128OSM     OF13674   2.208   2.634   4.506 -0.1150 -0.1121  0.6998
  128OSM    C2F13675   2.325   2.742   4.681 -0.2683  0.0581 -0.3856
  128OSM    H2F13676   2.358   2.846   4.661  1.5956  0.0402  2.0999
  128OSM    H2G13677   2.418   2.713   4.736  0.5638  0.9618 -1.2670
  128OSM    C3F13678   2.210   2.737   4.779 -0.2312  0.2000  1.3474
  128OSM    H3F13679   2.190   2.628   4.790  1.9885 -0.2519  1.3876
  128OSM    H3G13680   2.121   2.779   4.729  0.1404 -1.2503 -0.6676
  128OSM    C4F13681   2.236   2.793   4.919 -0.1948  0.5629 -0.5884
  128OSM    H4F13682   2.149   2.762   4.981  0.6473 -2.9839 -0.9118
  128OSM    H4G13683   2.245   2.903   4.918  1.8072  0.4506 -0.1372
  128OSM    C5F13684   2.359   2.724   4.985 -0.4990 -0.3988  0.0452
  128OSM    H5F13685   2.453   2.759   4.938  1.0158 -1.0261  2.4607
  128OSM    H5G13686   2.364   2.614   4.967  0.7029 -0.1013 -1.7166
  128OSM    C6F13687   2.361   2.760   5.136  0.2168  0.5452 -0.5015
  128OSM    H6F13688   2.269   2.725   5.188  0.3557 -1.0560 -1.2638
  128OSM    H6G13689   2.363   2.871   5.144 -2.0183  0.5747  0.3469
  128OSM    C7F13690   2.485   2.707   5.213 -0.4940  0.1199  0.1241
  128OSM    H7F13691   2.578   2.706   5.152  0.0449  1.1866  0.8901
  128OSM    H7G13692   2.464   2.603   5.247 -1.1987 -0.0468 -0.7897
  128OSM    C8F13693   2.512   2.798   5.335 -0.8875 -0.3982  0.0933
  128OSM    H8F13694   2.523   2.902   5.296 -1.9715 -1.0878 -2.2286
  128OSM    H8G13695   2.613   2.765   5.370 -0.1079  0.1650 -1.5294
  128OSM    C9F13696   2.416   2.798   5.453 -1.0193  0.0793  0.7094
  128OSM    H9F13697   2.418   2.697   5.497 -1.2275  0.2035  1.0004
  128OSM   C10F13698   2.328   2.889   5.497  0.3533 -0.6128  0.1183
  128OSM   H10F13699   2.272   2.887   5.591  1.7657  0.6804  1.0290
  128OSM   C11F13700   2.311   3.029   5.431  0.3573  0.2728  0.2210
  128OSM   H11F13701   2.210   3.047   5.388 -0.7834 -0.8086  2.2918
  128OSM   H11G13702   2.384   3.042   5.348 -0.0939  3.1835  0.1560
  128OSM   C12F13703   2.346   3.145   5.524 -0.3736 -0.0750  0.2467
  128OSM   H12F13704   2.371   3.236   5.466  2.5641  0.3555  1.9908
  128OSM   H12G13705   2.433   3.119   5.588 -0.9504  0.7087  1.3879
  128OSM   C13F13706   2.231   3.187   5.617 -0.4307  0.8367 -0.5160
  128OSM   H13F13707   2.177   3.102   5.662 -0.4358  0.3474 -1.4109
  128OSM   H13G13708   2.144   3.230   5.560 -1.0637  2.4632  1.5501
  128OSM   C14F13709   2.281   3.295   5.716 -0.0373  0.6706 -0.0078
  128OSM   H14F13710   2.284   3.397   5.672 -0.4687  1.5979  1.9971
  128OSM   H14G13711   2.382   3.263   5.750 -1.2353 -1.4381  1.8006
  128OSM   C15F13712   2.183   3.298   5.831  0.6411  0.6622 -0.0856
  128OSM   H15F13713   2.191   3.201   5.885  0.4810  0.2998 -0.7070
  128OSM   H15G13714   2.087   3.320   5.781 -0.3932 -1.3780  0.8575
  128OSM   C16F13715   2.224   3.413   5.927  0.1096  0.5488  0.3220
  128OSM   H16F13716   2.141   3.447   5.992  0.7611  4.2420 -0.5631
  128OSM   H16G13717   2.247   3.504   5.868 -0.3041  0.3903 -0.0812
  128OSM   C17F13718   2.360   3.385   6.002 -0.5118 -0.4794  0.1005
  128OSM   H17F13719   2.431   3.359   5.921  0.2055 -1.0207  0.8752
  128OSM   H17G13720   2.351   3.295   6.067  0.3648 -1.1300 -0.6559
  128OSM   C18F13721   2.425   3.502   6.083 -0.9824 -0.0267  0.3336
  128OSM   H18F13722   2.436   3.595   6.024  0.1223  2.2851  3.8815
  128OSM   H18G13723   2.526   3.470   6.115 -0.9286 -1.1950 -0.8918
  128OSM   H18H13724   2.359   3.523   6.170 -2.4846  2.4621 -1.2902
  129OSM      N13725   4.171   2.417   3.632 -1.1732 -0.2680  0.2270
  129OSM    C1513726   4.215   2.519   3.537 -0.0324 -0.3907 -0.2467
  129OSM   H15A13727   4.323   2.513   3.535 -0.0686 -1.8351  0.4533
  129OSM   H15B13728   4.175   2.614   3.568 -0.1073 -1.0808  1.9473
  129OSM   H15C13729   4.188   2.509   3.433  3.5418 -0.3934 -1.3301
  129OSM    C1413730   4.038   2.452   3.684 -0.2789 -0.5899 -0.3599
  129OSM   H14A13731   3.998   2.367   3.737 -0.0143 -2.0290 -2.3932
  129OSM   H14B13732   3.969   2.476   3.604 -2.3470 -1.4699  1.0614
  129OSM   H14C13733   4.039   2.532   3.758 -1.7059 -1.1911  0.3675
  129OSM    C1313734   4.157   2.291   3.562  0.3245 -0.5393 -0.2420
  129OSM   H13A13735   4.094   2.301   3.475  0.6632 -0.5520 -0.4934
  129OSM   H13B13736   4.117   2.217   3.630  0.8239 -1.3637 -0.8359
  129OSM   H13C13737   4.249   2.253   3.519 -1.6782 -5.3250 -0.9341
  129OSM    C1213738   4.279   2.403   3.747  0.2848  0.1932 -0.2522
  129OSM   H12A13739   4.262   2.318   3.812  0.4556  0.2524 -0.1280
  129OSM   H12B13740   4.259   2.479   3.822  1.3942  1.9580 -1.6734
  129OSM    C1113741   4.430   2.392   3.706 -0.5368 -0.2113 -0.0459
  129OSM   H11A13742   4.424   2.321   3.621  2.2214 -0.5162 -0.0521
  129OSM   H11B13743   4.493   2.353   3.788 -2.0682  0.5818  1.5887
  129OSM      P13744   4.501   2.620   3.785  0.0955  0.1692  0.0658
  129OSM    O1313745   4.607   2.717   3.752 -0.0860  0.4558 -0.7535
  129OSM    O1413746   4.368   2.680   3.823 -0.4721 -0.0625 -0.2286
  129OSM    O1113747   4.549   2.545   3.910  0.5919 -0.4918  0.1400
  129OSM    O1213748   4.475   2.518   3.666 -0.1828 -0.4067 -0.3083
  129OSM    C1S13749   4.579   2.618   4.030  0.2585 -1.0863 -0.0819
  129OSM    H1S13750   4.501   2.696   4.045 -0.8847 -2.2489  0.1878
  129OSM    H1T13751   4.680   2.664   4.021 -0.0724 -0.5152 -1.0034
  129OSM     NF13752   4.544   2.605   4.276  0.3151 -0.2811 -0.0433
  129OSM    HNF13753   4.625   2.638   4.325  1.1703 -2.2991 -0.0056
  129OSM    C2S13754   4.573   2.526   4.155  0.2871 -0.4051 -0.2791
  129OSM    H2S13755   4.488   2.457   4.139 -0.3325  0.0551  0.8763
  129OSM    C3S13756   4.703   2.433   4.160 -0.4078 -0.0231 -0.3501
  129OSM    H3S13757   4.788   2.505   4.156 -0.6765  0.3376  0.3663
  129OSM     O313758   4.707   2.359   4.038 -0.3729 -0.1851 -0.6224
  129OSM    HO313759   4.638   2.395   3.982 -0.6935 -1.8616 -1.3651
  129OSM    C4S13760   4.725   2.351   4.286  0.0794  0.1189 -0.0263
  129OSM    H4S13761   4.633   2.295   4.311 -0.6547  0.6029 -1.5304
  129OSM    C5S13762   4.837   2.331   4.360 -0.2816  0.1358 -0.3888
  129OSM    H5S13763   4.922   2.393   4.329 -0.0653  2.1850  3.5895
  129OSM    C6S13764   4.840   2.241   4.482 -0.3603  0.0312  0.2979
  129OSM    H6S13765   4.899   2.289   4.562  0.4465 -0.2522 -0.1177
  129OSM    H6T13766   4.876   2.141   4.453  0.1888  0.0138  1.0400
  129OSM    C7S13767   4.702   2.217   4.550 -0.3001 -0.3685  0.1157
  129OSM    H7S13768   4.638   2.140   4.499 -0.2415 -0.9698  0.9255
  129OSM    H7T13769   4.636   2.305   4.561 -0.4973 -0.6345  1.1657
  129OSM    C8S13770   4.715   2.167   4.689 -0.2067  0.6312 -0.0874
  129OSM    H8S13771   4.802   2.220   4.732  0.1763  0.1782 -0.3031
  129OSM    H8T13772   4.739   2.058   4.689 -2.3646  0.0532  2.0272
  129OSM    C9S13773   4.590   2.194   4.776  0.2203 -0.1657 -0.5233
  129OSM    H9S13774   4.515   2.113   4.762  0.7210 -1.2456  2.3991
  129OSM    H9T13775   4.535   2.283   4.738 -1.5991  0.0046  2.2574
  129OSM   C10S13776   4.622   2.196   4.925 -0.1892  1.0028 -0.3131
  129OSM   H10S13777   4.529   2.217   4.982  0.0169 -0.0983  0.4661
  129OSM   H10T13778   4.691   2.279   4.950 -1.3860  2.1067 -0.5903
  129OSM   C11S13779   4.693   2.066   4.972  0.4817  0.0389  0.1357
  129OSM   H11S13780   4.798   2.066   4.936  0.0710 -0.4939 -1.0993
  129OSM   H11T13781   4.651   1.973   4.929  0.0535 -0.3258  1.2956
  129OSM   C12S13782   4.690   2.058   5.125  0.4508 -0.0007 -0.5686
  129OSM   H12S13783   4.588   2.022   5.150 -0.3155  0.7377 -2.3971
  129OSM   H12T13784   4.705   2.153   5.180 -0.0080 -0.2844  0.0642
  129OSM   C13S13785   4.790   1.952   5.187 -0.0179  0.6991 -0.6732
  129OSM   H13S13786   4.892   1.987   5.159  1.0265 -1.3511  0.3146
  129OSM   H13T13787   4.762   1.853   5.144 -3.0311  0.2517  1.9504
  129OSM   C14S13788   4.787   1.947   5.336  0.3227 -0.6770 -0.9467
  129OSM   H14S13789   4.686   1.920   5.374 -0.1944 -0.3759 -2.0746
  129OSM   H14T13790   4.797   2.048   5.382 -1.3422 -1.4943  1.4347
  129OSM   C15S13791   4.885   1.850   5.402 -0.3766  0.2475  0.2207
  129OSM   H15S13792   4.988   1.880   5.376  1.6791 -4.9344  1.1876
  129OSM   H15T13793   4.880   1.746   5.364  0.0061  0.1388  0.4612
  129OSM   C16S13794   4.877   1.848   5.558  0.5574 -0.1912  0.4501
  129OSM   H16S13795   4.775   1.819   5.591  0.3563  0.7878  0.6986
  129OSM   H16T13796   4.887   1.953   5.590  0.7820 -0.3768  0.9968
  129OSM   C17S13797   4.977   1.775   5.646 -0.0954 -0.5335  0.5609
  129OSM   H17S13798   5.080   1.806   5.617 -0.3396 -1.3557 -1.2982
  129OSM   H17T13799   4.974   1.665   5.638  1.9806 -0.5612 -0.9105
  129OSM   C18S13800   4.965   1.818   5.795 -0.2701  0.3039  0.8277
  129OSM   H18S13801   4.864   1.802   5.838 -1.7697  1.0550 -2.1491
  129OSM   H18T13802   4.996   1.924   5.803 -0.9518  0.5502  0.3041
  129OSM   H18U13803   5.051   1.773   5.850 -0.7670 -0.5358  0.9345
  129OSM    C1F13804   4.434   2.671   4.302 -0.1772  0.0441  0.0746
  129OSM     OF13805   4.338   2.655   4.228 -0.0940  0.1773 -0.2881
  129OSM    C2F13806   4.457   2.774   4.412 -0.0480 -0.1295  0.5551
  129OSM    H2F13807   4.402   2.867   4.385  1.7003  1.0484  0.9314
  129OSM    H2G13808   4.567   2.787   4.410 -0.3529  3.8306 -2.3611
  129OSM    C3F13809   4.408   2.720   4.545  0.0127  0.6610  0.4859
  129OSM    H3F13810   4.471   2.634   4.577 -1.4761 -0.6528  0.0290
  129OSM    H3G13811   4.307   2.674   4.532 -0.1764  1.1426  0.2185
  129OSM    C4F13812   4.399   2.832   4.646 -0.4235  0.1321 -0.2540
  129OSM    H4F13813   4.343   2.908   4.588 -1.3887 -1.0798 -0.9430
  129OSM    H4G13814   4.503   2.864   4.672 -0.6683 -1.1354  2.6299
  129OSM    C5F13815   4.326   2.786   4.774 -0.6688  0.0178 -0.3348
  129OSM    H5F13816   4.220   2.756   4.757 -0.8738  0.0150  0.8715
  129OSM    H5G13817   4.323   2.873   4.843 -1.2765 -0.7771  0.6760
  129OSM    C6F13818   4.394   2.668   4.849  0.3475  0.5750 -0.0221
  129OSM    H6F13819   4.494   2.698   4.888  1.1766 -1.5348 -0.4064
  129OSM    H6G13820   4.410   2.579   4.784  2.9305 -0.9464  2.4630
  129OSM    C7F13821   4.309   2.627   4.974  0.2358  1.3093 -0.0483
  129OSM    H7F13822   4.203   2.602   4.955 -1.8399  3.5961  6.1533
  129OSM    H7G13823   4.301   2.712   5.044 -0.3110  0.0476  1.4844
  129OSM    C8F13824   4.380   2.509   5.039  0.2526  0.1709  0.1447
  129OSM    H8F13825   4.413   2.436   4.962  2.3304  1.9437 -0.7643
  129OSM    H8G13826   4.305   2.456   5.100 -1.6364  4.7123  2.2404
  129OSM    C9F13827   4.504   2.540   5.118 -0.5964 -0.3138  0.0939
  129OSM    H9F13828   4.560   2.626   5.079 -0.6036  0.1932  1.1759
  129OSM   C10F13829   4.560   2.467   5.221  0.4181  0.0614 -0.1687
  129OSM   H10F13830   4.660   2.493   5.260  0.5869 -2.0622  0.9946
  129OSM   C11F13831   4.497   2.336   5.276 -0.0982 -0.0465  0.3825
  129OSM   H11F13832   4.576   2.263   5.304  1.7897  1.9443  0.5650
  129OSM   H11G13833   4.436   2.290   5.195  0.2933  0.7104 -0.3614
  129OSM   C12F13834   4.414   2.351   5.401  0.2300  0.0975 -0.7042
  129OSM   H12F13835   4.364   2.253   5.408 -0.3833  0.3802 -1.0769
  129OSM   H12G13836   4.344   2.437   5.397  0.9604  0.7228 -0.5007
  129OSM   C13F13837   4.491   2.366   5.530 -0.2516  0.1129 -0.8267
  129OSM   H13F13838   4.420   2.405   5.606  0.5214  0.6929 -0.3826
  129OSM   H13G13839   4.565   2.446   5.508 -0.1674  0.4603  0.6402
  129OSM   C14F13840   4.570   2.252   5.598 -0.2918  0.1133 -1.2557
  129OSM   H14F13841   4.646   2.287   5.670  1.3812 -0.0498 -2.8761
  129OSM   H14G13842   4.631   2.208   5.517 -2.3312 -2.3292 -1.6094
  129OSM   C15F13843   4.475   2.146   5.657 -0.7235 -0.6281 -0.2026
  129OSM   H15F13844   4.388   2.137   5.589  0.0850 -0.9884 -1.2062
  129OSM   H15G13845   4.437   2.174   5.758  2.1625 -1.7494  1.3141
  129OSM   C16F13846   4.533   2.007   5.650  0.8479 -0.3088  0.1572
  129OSM   H16F13847   4.631   2.011   5.701 -0.4232 -0.8166  2.7856
  129OSM   H16G13848   4.552   1.973   5.546 -1.7740 -0.4160 -0.3531
  129OSM   C17F13849   4.448   1.896   5.719  0.3118  0.3189 -0.0578
  129OSM   H17F13850   4.343   1.895   5.685  0.1792 -2.8863  0.1370
  129OSM   H17G13851   4.441   1.916   5.828  0.5702  0.4083 -0.0569
  129OSM   C18F13852   4.489   1.745   5.722 -0.6031 -0.0108  0.4961
  129OSM   H18F13853   4.483   1.702   5.620  0.0729  0.5667  0.2034
  129OSM   H18G13854   4.426   1.689   5.795 -1.2697 -0.9701 -0.7916
  129OSM   H18H13855   4.591   1.717   5.758 -0.7056  0.5705  1.2698
  130OSM      N13856   1.136   5.084   3.694  0.2933  0.0761 -0.0921
  130OSM    C1513857   1.042   5.128   3.583 -0.3003  0.7686  0.0146
  130OSM   H15A13858   0.960   5.181   3.629 -2.3935 -1.1932 -1.2745
  130OSM   H15B13859   0.999   5.040   3.537  0.9310 -1.0226  2.0992
  130OSM   H15C13860   1.089   5.188   3.506 -0.5942  1.9428  0.7139
  130OSM    C1413861   1.060   5.000   3.796 -0.6686  0.4331  0.5958
  130OSM   H14A13862   0.988   5.067   3.840 -0.6189  0.5770  0.4567
  130OSM   H14B13863   1.130   4.956   3.865 -0.6386 -0.3980  0.0622
  130OSM   H14C13864   1.011   4.918   3.745  0.7745  0.0723 -0.2444
  130OSM    C1313865   1.243   4.995   3.642  0.7149 -0.0800  0.4655
  130OSM   H13A13866   1.303   4.956   3.723  0.7801 -1.1031 -0.0610
  130OSM   H13B13867   1.313   5.039   3.572  0.9040  0.7336  1.1460
  130OSM   H13C13868   1.203   4.913   3.585  0.2637  0.7982 -0.5228
  130OSM    C1213869   1.192   5.215   3.760  0.4492  0.0403  0.4658
  130OSM   H12A13870   1.105   5.275   3.784  1.5023  1.4002  1.0491
  130OSM   H12B13871   1.245   5.269   3.683 -0.4432  2.0834  1.2039
  130OSM    C1113872   1.286   5.198   3.879 -0.3970 -0.6250  0.0781
  130OSM   H11A13873   1.235   5.137   3.957 -0.2918 -1.0378 -0.1725
  130OSM   H11B13874   1.316   5.299   3.915  1.7858 -0.9809 -0.6195
  130OSM      P13875   1.530   5.209   3.761 -0.1371  0.0696  0.2379
  130OSM    O1313876   1.621   5.106   3.702  0.0529  0.4780  0.8182
  130OSM    O1413877   1.468   5.308   3.669 -0.5456  0.2072  0.3424
  130OSM    O1113878   1.611   5.291   3.869  0.8685  0.1772 -0.0448
  130OSM    O1213879   1.413   5.133   3.844  0.1120 -0.0518  0.0111
  130OSM    C1S13880   1.641   5.223   3.990  0.5854  0.0989  0.0543
  130OSM    H1S13881   1.582   5.131   4.011 -1.6036  0.9551 -1.9602
  130OSM    H1T13882   1.644   5.298   4.072  2.2782  1.1740 -0.9229
  130OSM     NF13883   1.806   5.089   4.098  0.0122  0.1296  0.4388
  130OSM    HNF13884   1.876   5.123   4.160  1.3965  2.0613 -2.0127
  130OSM    C2S13885   1.784   5.179   3.982  0.2656  0.3884 -0.7385
  130OSM    H2S13886   1.794   5.125   3.886 -0.0473 -0.2507 -0.4189
  130OSM    C3S13887   1.882   5.299   3.971  0.7311  0.3524 -0.0837
  130OSM    H3S13888   1.853   5.370   4.051  0.4055  2.3186 -1.8496
  130OSM     O313889   1.864   5.373   3.849  0.1378  0.4091  0.2710
  130OSM    HO313890   1.778   5.342   3.819  1.0663 -1.0743 -1.0401
  130OSM    C4S13891   2.029   5.280   3.989 -0.5887  0.3641  0.5314
  130OSM    H4S13892   2.076   5.189   3.950  0.6606  0.8833  0.7725
  130OSM    C5S13893   2.110   5.359   4.060 -0.4991  0.4076  0.5498
  130OSM    H5S13894   2.072   5.455   4.098 -1.4437 -0.1223  0.9812
  130OSM    C6S13895   2.252   5.343   4.097  0.1825 -0.2001 -0.6484
  130OSM    H6S13896   2.306   5.436   4.070  0.2511 -0.0111  0.1157
  130OSM    H6T13897   2.296   5.260   4.038  2.3898 -0.2792  1.0266
  130OSM    C7S13898   2.267   5.313   4.248 -0.1058  0.1943 -0.0093
  130OSM    H7S13899   2.217   5.216   4.269 -0.6354  0.1210 -1.4979
  130OSM    H7T13900   2.229   5.397   4.310  2.1793 -0.1355  2.0010
  130OSM    C8S13901   2.412   5.279   4.281 -0.2757  0.1390 -0.6919
  130OSM    H8S13902   2.473   5.368   4.255  0.8017 -0.2938  0.2467
  130OSM    H8T13903   2.432   5.204   4.201  3.8570 -1.2943  1.3533
  130OSM    C9S13904   2.427   5.223   4.424  0.1402 -0.2981  0.3986
  130OSM    H9S13905   2.526   5.176   4.440 -0.7116 -1.9309  1.1281
  130OSM    H9T13906   2.351   5.151   4.459 -0.5314  0.1002 -0.2055
  130OSM   C10S13907   2.425   5.333   4.535 -0.3574 -0.1906 -0.2651
  130OSM   H10S13908   2.324   5.372   4.557 -0.6633 -1.6136  1.0365
  130OSM   H10T13909   2.490   5.414   4.496  1.7464 -1.1011  1.1393
  130OSM   C11S13910   2.463   5.295   4.669  0.0831 -0.7920 -1.0349
  130OSM   H11S13911   2.574   5.293   4.666  0.1975  1.7863 -0.7244
  130OSM   H11T13912   2.424   5.193   4.691 -0.3797 -0.3440  0.2966
  130OSM   C12S13913   2.422   5.395   4.777 -0.3096 -0.0651  0.4323
  130OSM   H12S13914   2.314   5.420   4.777 -0.3921 -0.2848 -1.4669
  130OSM   H12T13915   2.464   5.496   4.756 -0.9434  0.1844  0.3442
  130OSM   C13S13916   2.474   5.367   4.918  0.1643 -0.3088  0.8325
  130OSM   H13S13917   2.450   5.457   4.979 -0.0402  0.6537 -0.6197
  130OSM   H13T13918   2.584   5.354   4.915  0.2600  0.2933  1.3295
  130OSM   C14S13919   2.389   5.256   4.989 -0.4758  1.0875  0.1991
  130OSM   H14S13920   2.408   5.160   4.937 -3.3452  0.9923 -0.8541
  130OSM   H14T13921   2.280   5.275   4.982 -0.4218  1.5238  0.5041
  130OSM   C15S13922   2.417   5.244   5.138  0.1393  0.1063  0.0720
  130OSM   H15S13923   2.402   5.347   5.176  0.0935  0.5914 -1.2058
  130OSM   H15T13924   2.524   5.217   5.154  0.2860  0.0806 -0.8684
  130OSM   C16S13925   2.324   5.154   5.215 -0.0442  0.2384 -0.4157
  130OSM   H16S13926   2.217   5.181   5.205 -0.2736 -0.2778  0.6088
  130OSM   H16T13927   2.357   5.159   5.321  0.0667 -1.9836 -0.2964
  130OSM   C17S13928   2.332   5.009   5.173 -0.5070 -0.4465  0.6805
  130OSM   H17S13929   2.311   4.995   5.065  0.7508 -4.2324  0.7858
  130OSM   H17T13930   2.249   4.956   5.225 -1.3557 -0.8564 -1.0358
  130OSM   C18S13931   2.468   4.946   5.201  0.7570  0.2974 -0.5843
  130OSM   H18S13932   2.459   4.836   5.203 -1.1196  0.3553 -2.3284
  130OSM   H18T13933   2.497   4.973   5.305  1.4557  0.2883 -0.7762
  130OSM   H18U13934   2.547   4.975   5.130  0.0735  2.4092 -0.5614
  130OSM    C1F13935   1.739   4.974   4.119 -0.1185  0.4307 -1.2529
  130OSM     OF13936   1.675   4.916   4.025 -0.6651 -0.2253 -0.1713
  130OSM    C2F13937   1.746   4.919   4.265 -0.0416 -0.4481  0.5190
  130OSM    H2F13938   1.741   5.010   4.328 -1.1687  2.0687 -2.8764
  130OSM    H2G13939   1.840   4.863   4.282  0.2618  0.0883  0.6259
  130OSM    C3F13940   1.618   4.840   4.300  0.4751 -0.3523 -0.4670
  130OSM    H3F13941   1.582   4.760   4.233 -1.1247  0.5203 -0.7125
  130OSM    H3G13942   1.537   4.915   4.291 -1.4292 -2.4209 -1.3893
  130OSM    C4F13943   1.637   4.788   4.448  0.1861  0.0572 -0.0360
  130OSM    H4F13944   1.670   4.876   4.508  3.1994 -0.3575 -0.9254
  130OSM    H4G13945   1.728   4.725   4.454  0.4954  0.3489 -1.3591
  130OSM    C5F13946   1.525   4.730   4.527  0.6236 -0.1388  0.2797
  130OSM    H5F13947   1.540   4.621   4.510 -0.5213 -0.4406  1.0987
  130OSM    H5G13948   1.420   4.757   4.505  0.4083  0.5271  1.9835
  130OSM    C6F13949   1.527   4.764   4.675  0.2266 -0.7984  0.4841
  130OSM    H6F13950   1.498   4.870   4.690 -0.0334 -0.6075 -1.2276
  130OSM    H6G13951   1.632   4.755   4.710  0.1366 -2.5193  0.3905
  130OSM    C7F13952   1.451   4.665   4.760 -0.3775 -0.2214  0.6279
  130OSM    H7F13953   1.523   4.583   4.779  2.4318  2.3928  2.1455
  130OSM    H7G13954   1.361   4.630   4.705  0.3625 -0.9726 -0.1297
  130OSM    C8F13955   1.401   4.723   4.895  0.3407 -0.3778  0.2090
  130OSM    H8F13956   1.340   4.645   4.944  0.3417 -0.2382  0.4365
  130OSM    H8G13957   1.321   4.795   4.868 -0.2761 -1.1453 -0.0424
  130OSM    C9F13958   1.511   4.775   4.989  1.0429 -0.2880  0.1952
  130OSM    H9F13959   1.567   4.845   4.925  0.4314 -0.3335 -0.4004
  130OSM   C10F13960   1.554   4.728   5.108  0.8175  0.0067  0.0980
  130OSM   H10F13961   1.640   4.776   5.157  0.6444  1.7206 -1.1843
  130OSM   C11F13962   1.499   4.599   5.167 -0.2527  0.0777 -0.5585
  130OSM   H11F13963   1.579   4.522   5.167 -1.9737 -1.8944 -3.0334
  130OSM   H11G13964   1.420   4.548   5.107 -0.7387 -0.8570  0.8116
  130OSM   C12F13965   1.441   4.618   5.313 -0.3394  0.0423  0.8925
  130OSM   H12F13966   1.414   4.512   5.336  2.3729 -0.6027  1.4909
  130OSM   H12G13967   1.352   4.681   5.296 -1.4579 -1.4152  1.1640
  130OSM   C13F13968   1.544   4.663   5.415 -0.3458  0.0663  0.3805
  130OSM   H13F13969   1.643   4.652   5.365 -1.5511 -3.3853 -1.5576
  130OSM   H13G13970   1.561   4.599   5.503  1.3447  0.0415  0.0686
  130OSM   C14F13971   1.514   4.808   5.461 -0.2621 -1.2666 -0.0929
  130OSM   H14F13972   1.420   4.798   5.520  1.1540 -0.2367  2.5047
  130OSM   H14G13973   1.504   4.875   5.374  0.8928  1.4456  1.7457
  130OSM   C15F13974   1.621   4.873   5.553 -0.5736  0.5511 -0.8293
  130OSM   H15F13975   1.589   4.979   5.542  0.2157  0.6270 -2.7943
  130OSM   H15G13976   1.724   4.857   5.515  0.1940  1.2663  0.8456
  130OSM   C16F13977   1.605   4.851   5.700 -0.0239  0.5105 -0.0638
  130OSM   H16F13978   1.501   4.823   5.728  0.5135 -1.0142  0.5476
  130OSM   H16G13979   1.630   4.948   5.748  0.9495  1.2153 -1.9058
  130OSM   C17F13980   1.704   4.734   5.751 -0.3297 -0.3887 -0.1400
  130OSM   H17F13981   1.708   4.643   5.688 -1.6944 -1.0807  0.7383
  130OSM   H17G13982   1.686   4.712   5.858 -1.9609  1.1716 -0.0574
  130OSM   C18F13983   1.850   4.795   5.750 -0.2651  0.3363  0.4086
  130OSM   H18F13984   1.895   4.817   5.651  0.0753  1.6980  0.8533
  130OSM   H18G13985   1.919   4.731   5.809 -0.3711  1.1027  1.3713
  130OSM   H18H13986   1.854   4.892   5.803  1.7805 -0.0807  1.1081
  131OSM      N13987   6.500   3.705   3.087 -0.6497  0.2176  0.1347
  131OSM    C1513988   6.421   3.794   2.990 -0.1106  0.3209  0.4953
  131OSM   H15A13989   6.472   3.839   2.906 -1.3913  0.5451 -0.1829
  131OSM   H15B13990   6.381   3.878   3.045  1.6277  2.0441 -0.7536
  131OSM   H15C13991   6.340   3.735   2.950  0.7493 -0.4145 -0.1976
  131OSM    C1413992   6.558   3.588   3.007  0.4107  0.5427  0.3885
  131OSM   H14A13993   6.590   3.512   3.076  0.6663  1.3662  1.1963
  131OSM   H14B13994   6.648   3.614   2.953  0.1598 -1.1424 -0.9194
  131OSM   H14C13995   6.489   3.540   2.939  1.8693 -2.4389  0.8630
  131OSM    C1313996   6.614   3.784   3.143  0.2041 -0.2193 -0.6914
  131OSM   H13A13997   6.692   3.800   3.070  0.4280 -1.5907 -0.7839
  131OSM   H13B13998   6.658   3.720   3.218  1.2841 -0.2964 -1.3555
  131OSM   H13C13999   6.579   3.879   3.179  0.5228 -0.1914 -0.4530
  131OSM    C1214000   6.405   3.656   3.197  0.3822 -0.2143 -0.4737
  131OSM   H12A14001   6.320   3.606   3.151  0.8779 -0.7604 -0.8101
  131OSM   H12B14002   6.362   3.745   3.241 -1.8775 -1.1455 -0.6366
  131OSM    C1114003   6.455   3.564   3.309 -0.3622 -0.5255  0.1624
  131OSM   H11A14004   6.491   3.464   3.278  2.3195  0.1549  0.8325
  131OSM   H11B14005   6.367   3.537   3.371 -3.0612 -0.5101 -3.3434
  131OSM      P14006   6.524   3.722   3.489 -0.2339 -0.0277  0.0549
  131OSM    O1314007   6.645   3.794   3.540  0.1750 -0.2785 -0.3284
  131OSM    O1414008   6.410   3.797   3.442 -0.6201 -0.5676  0.0227
  131OSM    O1114009   6.469   3.632   3.607  0.0173  0.0839 -0.1366
  131OSM    O1214010   6.570   3.620   3.378 -0.3515 -0.1420  0.0503
  131OSM    C1S14011   6.561   3.536   3.666 -0.1955  0.5556  0.2506
  131OSM    H1S14012   6.667   3.558   3.641 -0.6087  0.8385 -1.3289
  131OSM    H1T14013   6.541   3.433   3.629  0.6562  0.8061 -0.9729
  131OSM     NF14014   6.650   3.450   3.894 -0.0166  0.5638  0.4717
  131OSM    HNF14015   6.632   3.352   3.894  1.1107  0.3381  0.3781
  131OSM    C2S14016   6.549   3.531   3.823  0.1271  0.3881  0.4918
  131OSM    H2S14017   6.556   3.635   3.861 -0.6315  0.7842 -0.4039
  131OSM    C3S14018   6.408   3.496   3.868  0.0782  0.4969 -1.4062
  131OSM    H3S14019   6.382   3.390   3.843  3.5134 -1.1278  1.1965
  131OSM     O314020   6.310   3.571   3.803  0.4154  0.3249 -0.1454
  131OSM    HO314021   6.355   3.616   3.731  0.2025 -0.8687 -1.0480
  131OSM    C4S14022   6.385   3.503   4.020  0.5203  0.2510 -0.4031
  131OSM    H4S14023   6.386   3.401   4.060 -0.1504 -0.0165 -1.0356
  131OSM    C5S14024   6.347   3.610   4.090  1.0969 -0.1374 -1.0308
  131OSM    H5S14025   6.324   3.701   4.032 -0.6296  0.0837 -0.0767
  131OSM    C6S14026   6.319   3.605   4.239  0.0506  0.5400 -0.1710
  131OSM    H6S14027   6.208   3.608   4.244  0.0888  0.0804  1.5343
  131OSM    H6T14028   6.346   3.700   4.290 -0.3490 -1.1881  3.6104
  131OSM    C7S14029   6.379   3.495   4.321  0.0784  0.3112  0.0033
  131OSM    H7S14030   6.488   3.489   4.303  0.2987 -0.7852  1.5016
  131OSM    H7T14031   6.349   3.401   4.269  0.3408  1.7149 -2.8870
  131OSM    C8S14032   6.346   3.494   4.475 -0.5682  0.6659  0.2309
  131OSM    H8S14033   6.235   3.499   4.479 -0.8951 -2.3575 -1.8724
  131OSM    H8T14034   6.399   3.586   4.507  2.6707 -0.9808  0.0356
  131OSM    C9S14035   6.391   3.372   4.547 -0.6821 -0.1424  0.0231
  131OSM    H9S14036   6.489   3.346   4.501  0.1031  1.8972  0.4484
  131OSM    H9T14037   6.329   3.284   4.520  0.7266 -2.1522  2.8143
  131OSM   C10S14038   6.404   3.396   4.691 -0.3560 -0.3125  0.3264
  131OSM   H10S14039   6.308   3.435   4.733 -0.2199 -0.9608  1.2739
  131OSM   H10T14040   6.471   3.483   4.708  2.8827 -2.8177  1.3192
  131OSM   C11S14041   6.446   3.270   4.765 -1.2761  0.3095 -0.7500
  131OSM   H11S14042   6.550   3.239   4.738  0.2323  1.8612  2.6216
  131OSM   H11T14043   6.368   3.195   4.743 -0.5536 -0.4274 -0.8654
  131OSM   C12S14044   6.446   3.305   4.922 -0.8440 -0.3459 -0.1895
  131OSM   H12S14045   6.471   3.212   4.978  1.6185  0.3043 -0.0808
  131OSM   H12T14046   6.339   3.334   4.935 -1.3996 -1.8679 -1.1178
  131OSM   C13S14047   6.533   3.425   4.987 -0.3662 -0.2329 -0.9557
  131OSM   H13S14048   6.544   3.508   4.914  0.9391  0.0907 -0.4149
  131OSM   H13T14049   6.637   3.388   4.997 -0.4494 -0.0219  0.9019
  131OSM   C14S14050   6.500   3.480   5.119 -0.1512 -0.8953 -0.2960
  131OSM   H14S14051   6.575   3.557   5.146 -2.7745  2.1676 -0.9798
  131OSM   H14T14052   6.486   3.407   5.202 -2.2193  0.2223  0.4219
  131OSM   C15S14053   6.357   3.553   5.125 -0.3379  0.3089 -0.4328
  131OSM   H15S14054   6.277   3.477   5.113 -1.6408  1.5956 -0.1386
  131OSM   H15T14055   6.352   3.632   5.047  2.5988  1.5989  0.5307
  131OSM   C16S14056   6.335   3.616   5.262  0.0945  0.6000 -0.6477
  131OSM   H16S14057   6.425   3.680   5.274  0.1114  0.3080  0.9739
  131OSM   H16T14058   6.340   3.533   5.335  0.3905 -0.1764 -1.5220
  131OSM   C17S14059   6.196   3.685   5.264 -0.1209 -0.0796  0.2888
  131OSM   H17S14060   6.166   3.714   5.367 -2.8003  1.7022 -0.8789
  131OSM   H17T14061   6.126   3.611   5.222 -0.1214 -0.1105  0.3447
  131OSM   C18S14062   6.189   3.812   5.178  0.0045  0.2592 -0.3890
  131OSM   H18S14063   6.191   3.785   5.071 -0.3072  3.3682 -1.2634
  131OSM   H18T14064   6.274   3.880   5.200  0.1000 -0.0264  0.1532
  131OSM   H18U14065   6.094   3.865   5.197  0.7162  1.9738 -1.3456
  131OSM    C1F14066   6.767   3.502   3.924 -0.0097  0.8310  0.3223
  131OSM     OF14067   6.793   3.615   3.884  0.2978 -0.2839 -0.9664
  131OSM    C2F14068   6.857   3.418   4.014  0.0647  0.2257 -0.6514
  131OSM    H2F14069   6.892   3.331   3.955 -2.6703 -2.1814  0.9817
  131OSM    H2G14070   6.800   3.366   4.094  0.3001  0.5933 -0.2359
  131OSM    C3F14071   6.969   3.495   4.080 -0.1001 -0.6582  0.5822
  131OSM    H3F14072   6.925   3.584   4.131 -1.5456  0.2331 -2.0029
  131OSM    H3G14073   7.025   3.540   3.995 -0.1478  0.8469  1.3073
  131OSM    C4F14074   7.058   3.415   4.168 -0.2949  0.5209  0.5055
  131OSM    H4F14075   7.110   3.332   4.115  0.2848 -0.0124  1.8663
  131OSM    H4G14076   6.995   3.372   4.248 -0.1801 -0.4131  0.1155
  131OSM    C5F14077   7.161   3.494   4.247 -0.3489 -0.0468  0.6782
  131OSM    H5F14078   7.116   3.569   4.315 -0.3264  1.5465 -1.0082
  131OSM    H5G14079   7.209   3.558   4.170 -0.1330 -1.5917 -0.5303
  131OSM    C6F14080   7.254   3.403   4.326  0.0911  0.2388 -0.1442
  131OSM    H6F14081   7.321   3.342   4.262 -0.3213 -1.7315  1.2158
  131OSM    H6G14082   7.189   3.336   4.386  2.3579 -2.7501 -0.8002
  131OSM    C7F14083   7.350   3.488   4.411  0.8004  0.4442 -0.2643
  131OSM    H7F14084   7.284   3.547   4.479  0.5353  1.0719 -1.0505
  131OSM    H7G14085   7.403   3.566   4.352  0.6586  0.3543 -0.5141
  131OSM    C8F14086   7.456   3.416   4.509  0.7202 -0.3587  0.1186
  131OSM    H8F14087   7.522   3.358   4.441 -1.1193 -1.8780 -0.4450
  131OSM    H8G14088   7.406   3.345   4.578 -1.7168  0.1096 -1.0468
  131OSM    C9F14089   7.539   3.519   4.586 -0.4792  0.7707 -0.1223
  131OSM    H9F14090   7.564   3.619   4.548  3.6812  0.0837  0.2731
  131OSM   C10F14091   7.559   3.503   4.716  0.6531  0.0565 -0.4049
  131OSM   H10F14092   7.619   3.580   4.765  2.2037  0.1960 -2.3862
  131OSM   C11F14093   7.525   3.386   4.805 -0.5159 -0.8035 -0.4952
  131OSM   H11F14094   7.584   3.392   4.898  0.6221 -3.5428 -0.9218
  131OSM   H11G14095   7.554   3.291   4.754 -2.4724 -1.3656 -0.6621
  131OSM   C12F14096   7.377   3.385   4.846 -1.0883  0.1520 -0.1078
  131OSM   H12F14097   7.355   3.286   4.893 -1.4033 -0.9849 -2.5327
  131OSM   H12G14098   7.312   3.386   4.756 -0.6892  0.6450 -0.3969
  131OSM   C13F14099   7.325   3.495   4.942 -0.2100  1.0783  0.3132
  131OSM   H13F14100   7.387   3.582   4.914  1.0719 -0.0700 -0.5420
  131OSM   H13G14101   7.355   3.459   5.043 -1.1585 -0.9884 -0.0897
  131OSM   C14F14102   7.175   3.526   4.942 -0.9666 -0.4281  0.2419
  131OSM   H14F14103   7.109   3.455   4.995 -0.6245  1.1633  2.9717
  131OSM   H14G14104   7.148   3.515   4.835 -0.9476  1.5744 -0.0180
  131OSM   C15F14105   7.159   3.668   4.994  0.3756 -0.3321 -0.1378
  131OSM   H15F14106   7.197   3.741   4.919  1.9916  0.8496  1.7230
  131OSM   H15G14107   7.218   3.691   5.086 -0.2263  0.0237  0.1610
  131OSM   C16F14108   7.017   3.706   5.030 -0.4496  0.1987 -0.2891
  131OSM   H16F14109   6.951   3.683   4.944 -0.3442  1.0802 -0.6129
  131OSM   H16G14110   7.018   3.816   5.044  1.8363 -0.0038  2.0634
  131OSM   C17F14111   6.962   3.632   5.155  0.7849 -0.2771 -0.3571
  131OSM   H17F14112   6.950   3.526   5.124 -2.1119 -0.5384  1.2984
  131OSM   H17G14113   6.858   3.667   5.176  1.0677 -0.3502  1.2935
  131OSM   C18F14114   7.028   3.638   5.290  0.8385  0.2617 -0.9178
  131OSM   H18F14115   7.011   3.544   5.346 -2.1332 -0.7274 -3.1988
  131OSM   H18G14116   7.008   3.727   5.354 -1.2838 -0.5096 -0.4515
  131OSM   H18H14117   7.139   3.632   5.282  1.2720  0.6635  2.9037
  132OSM      N14118   6.529   2.212   3.612  0.6118  0.5511  0.1860
  132OSM    C1514119   6.433   2.206   3.722 -0.3897 -0.3925  0.2101
  132OSM   H15A14120   6.461   2.276   3.799 -0.9477  0.8129 -0.6532
  132OSM   H15B14121   6.432   2.105   3.761  0.9876 -1.2941 -1.8576
  132OSM   H15C14122   6.337   2.246   3.692  0.0635  2.4168  2.1141
  132OSM    C1414123   6.645   2.130   3.658 -0.1980 -0.1124 -0.1410
  132OSM   H14A14124   6.679   2.171   3.752 -4.3171  0.8825  1.1026
  132OSM   H14B14125   6.729   2.132   3.590  1.3865 -0.9938  1.6996
  132OSM   H14C14126   6.615   2.029   3.682 -2.0774 -0.1377 -2.2795
  132OSM    C1314127   6.462   2.134   3.498  0.4497 -0.0016  0.2283
  132OSM   H13A14128   6.363   2.169   3.474  1.3594  1.9184 -0.9330
  132OSM   H13B14129   6.450   2.030   3.527 -0.3051  0.6837  2.6160
  132OSM   H13C14130   6.523   2.128   3.409 -1.5965 -1.2717 -1.1757
  132OSM    C1214131   6.564   2.352   3.575  0.1695 -0.2453 -0.0490
  132OSM   H12A14132   6.470   2.405   3.564  0.5276  0.2965 -0.5860
  132OSM   H12B14133   6.605   2.358   3.475 -0.9625  1.3854 -0.4664
  132OSM    C1114134   6.635   2.444   3.676 -0.5991 -0.2328  0.5473
  132OSM   H11A14135   6.659   2.542   3.631 -0.4229  0.4582  2.0741
  132OSM   H11B14136   6.733   2.403   3.708 -0.5093  1.6548  2.9663
  132OSM      P14137   6.443   2.566   3.788 -0.0891 -0.0183  0.0088
  132OSM    O1314138   6.485   2.690   3.857  0.3806 -0.3366  0.0226
  132OSM    O1414139   6.390   2.587   3.648  0.1466  0.2492 -0.0578
  132OSM    O1114140   6.321   2.508   3.861  0.0232  0.6526 -0.0787
  132OSM    O1214141   6.557   2.459   3.792 -0.0613  0.1141 -0.4481
  132OSM    C1S14142   6.338   2.420   3.981  0.6508 -0.0342  0.2886
  132OSM    H1S14143   6.434   2.365   3.995 -0.5618 -2.4506 -0.2433
  132OSM    H1T14144   6.257   2.344   3.983  2.1842 -1.7170  0.6451
  132OSM     NF14145   6.382   2.450   4.220 -0.0897  0.3076  0.1215
  132OSM    HNF14146   6.317   2.417   4.288  0.6923  0.2657  0.8651
  132OSM    C2S14147   6.321   2.517   4.103 -0.3771  0.0697  0.0403
  132OSM    H2S14148   6.387   2.604   4.083  0.3189 -0.8062 -1.6578
  132OSM    C3S14149   6.168   2.565   4.118  0.2077 -0.6177  0.2296
  132OSM    H3S14150   6.108   2.477   4.151  1.4705 -2.5116 -2.2057
  132OSM     O314151   6.104   2.592   3.997  0.8213 -0.2809  0.0624
  132OSM    HO314152   6.170   2.565   3.933 -1.8491 -0.5043 -2.8536
  132OSM    C4S14153   6.160   2.667   4.223 -0.5015  0.0720  0.4482
  132OSM    H4S14154   6.166   2.626   4.325  1.1170 -0.2976  0.2364
  132OSM    C5S14155   6.133   2.799   4.205 -0.6063  0.4121 -0.3720
  132OSM    H5S14156   6.130   2.839   4.103  0.1841  1.3552 -0.0487
  132OSM    C6S14157   6.105   2.901   4.312  0.0810  0.3866 -0.4245
  132OSM    H6S14158   6.010   2.952   4.283  0.1734  0.1488 -1.1866
  132OSM    H6T14159   6.189   2.972   4.323  0.3268 -0.0770  0.8301
  132OSM    C7S14160   6.092   2.852   4.458  0.1458 -0.4087 -0.3436
  132OSM    H7S14161   6.166   2.777   4.493 -2.1768 -2.1222  1.1962
  132OSM    H7T14162   5.999   2.792   4.468  0.7600 -1.4186 -0.5423
  132OSM    C8S14163   6.081   2.969   4.555  0.0770  0.1904  0.1195
  132OSM    H8S14164   5.975   3.003   4.560  0.1074  0.1290  2.4160
  132OSM    H8T14165   6.146   3.051   4.520 -0.3721 -0.1425 -1.5991
  132OSM    C9S14166   6.135   2.932   4.690 -0.0857 -0.6914 -0.5975
  132OSM    H9S14167   6.246   2.931   4.684 -0.0555 -2.2545 -0.2880
  132OSM    H9T14168   6.093   2.831   4.711 -0.6888 -0.6055 -1.3658
  132OSM   C10S14169   6.099   3.024   4.804  0.6891  0.1675 -1.1340
  132OSM   H10S14170   5.996   3.012   4.845  1.4802  1.6585  1.5557
  132OSM   H10T14171   6.092   3.132   4.780 -0.5949  0.4773  0.4739
  132OSM   C11S14172   6.183   3.009   4.935 -0.1309 -0.3226  0.6874
  132OSM   H11S14173   6.289   3.023   4.905  0.0630 -2.8385 -0.0252
  132OSM   H11T14174   6.164   2.905   4.968 -2.3193 -0.1979  0.0018
  132OSM   C12S14175   6.141   3.100   5.045  0.1535  0.1428  0.0359
  132OSM   H12S14176   6.032   3.107   5.068  0.6283  0.6715  2.3908
  132OSM   H12T14177   6.156   3.204   5.008 -0.5948  0.1683 -0.2237
  132OSM   C13S14178   6.219   3.080   5.175 -0.5323 -0.1005  0.1494
  132OSM   H13S14179   6.323   3.048   5.153 -0.7049  0.6070 -1.9561
  132OSM   H13T14180   6.174   2.989   5.219 -0.1658 -1.8096 -2.7317
  132OSM   C14S14181   6.223   3.202   5.269  0.4820  0.4980 -0.2277
  132OSM   H14S14182   6.128   3.259   5.265  0.4902  0.5052 -0.3216
  132OSM   H14T14183   6.307   3.263   5.229  0.8403  1.6946  2.1542
  132OSM   C15S14184   6.251   3.154   5.414  1.1314 -0.1270 -0.7007
  132OSM   H15S14185   6.155   3.115   5.454  0.0627  0.5521 -2.4823
  132OSM   H15T14186   6.256   3.250   5.469  1.3187 -0.9124  0.6937
  132OSM   C16S14187   6.365   3.055   5.431  0.3687  0.1797  0.3656
  132OSM   H16S14188   6.451   3.100   5.377 -0.3505  0.9913 -0.1263
  132OSM   H16T14189   6.344   2.956   5.386 -2.0486 -0.1648  2.0171
  132OSM   C17S14190   6.408   3.024   5.573 -0.9676 -0.6213 -0.2272
  132OSM   H17S14191   6.492   2.952   5.562 -0.5078  0.0324 -1.1693
  132OSM   H17T14192   6.321   2.974   5.620  0.1570 -1.6679  0.8298
  132OSM   C18S14193   6.451   3.134   5.674  0.0607 -0.3892 -0.2227
  132OSM   H18S14194   6.540   3.190   5.640 -0.1716 -0.4120 -0.8890
  132OSM   H18T14195   6.468   3.090   5.775  0.5915  3.1958  1.3712
  132OSM   H18U14196   6.367   3.206   5.682  0.1616 -0.2770 -0.1811
  132OSM    C1F14197   6.513   2.421   4.236  1.0834 -0.2203 -0.2106
  132OSM     OF14198   6.601   2.465   4.161  0.1874  0.1790  0.1976
  132OSM    C2F14199   6.548   2.342   4.353  0.2259 -1.0389 -0.0979
  132OSM    H2F14200   6.559   2.237   4.318 -0.2820 -1.3805  0.7475
  132OSM    H2G14201   6.471   2.345   4.433 -0.8397  1.8062 -1.0791
  132OSM    C3F14202   6.685   2.387   4.423  0.4173 -0.3955  0.2721
  132OSM    H3F14203   6.686   2.498   4.414 -0.0571 -0.4692 -1.0143
  132OSM    H3G14204   6.768   2.337   4.367 -0.2325 -1.6568  0.4036
  132OSM    C4F14205   6.700   2.362   4.572  0.2773  1.1419  0.7072
  132OSM    H4F14206   6.624   2.408   4.638  0.5980  2.7887  0.0018
  132OSM    H4G14207   6.793   2.412   4.608 -0.5367  2.8708  0.5226
  132OSM    C5F14208   6.716   2.215   4.606  0.7859  0.6835  0.7177
  132OSM    H5F14209   6.777   2.156   4.534 -1.3189 -0.6080 -0.0969
  132OSM    H5G14210   6.618   2.167   4.586 -0.0405  2.8488 -0.7732
  132OSM    C6F14211   6.764   2.198   4.747  0.2246 -0.2123 -0.5893
  132OSM    H6F14212   6.831   2.281   4.779  1.0749 -0.4280 -1.7361
  132OSM    H6G14213   6.833   2.112   4.753 -1.5410 -1.5780  1.7650
  132OSM    C7F14214   6.658   2.186   4.850 -0.2271 -0.1695 -0.1065
  132OSM    H7F14215   6.586   2.108   4.818 -0.1331 -1.1293  1.8236
  132OSM    H7G14216   6.590   2.273   4.854 -0.7577 -0.5306 -0.9466
  132OSM    C8F14217   6.712   2.171   4.989  0.4053 -0.0103 -0.2782
  132OSM    H8F14218   6.778   2.256   5.019  1.3421 -0.8828  0.1641
  132OSM    H8G14219   6.760   2.072   5.002 -0.4459 -0.4182 -0.1559
  132OSM    C9F14220   6.596   2.181   5.086  0.0834  0.3973 -0.3666
  132OSM    H9F14221   6.501   2.142   5.047 -0.0067 -0.1494  0.3753
  132OSM   C10F14222   6.597   2.226   5.210 -0.5178 -0.3758 -0.4607
  132OSM   H10F14223   6.502   2.228   5.266 -0.2450 -1.7860  0.0937
  132OSM   C11F14224   6.718   2.278   5.285 -0.6642 -0.2587 -0.4544
  132OSM   H11F14225   6.722   2.388   5.266  1.6516 -0.6612 -2.9972
  132OSM   H11G14226   6.817   2.242   5.249 -0.1139  0.5271  0.1976
  132OSM   C12F14227   6.705   2.244   5.434 -0.1073  0.0818 -0.6149
  132OSM   H12F14228   6.609   2.282   5.476  1.7119  2.5625  1.6431
  132OSM   H12G14229   6.785   2.284   5.500 -1.0684  0.7449  0.1821
  132OSM   C13F14230   6.710   2.094   5.454 -0.0051 -0.1970 -0.5843
  132OSM   H13F14231   6.790   2.042   5.396  1.1443  0.5512  0.2698
  132OSM   H13G14232   6.623   2.053   5.399  0.3911 -0.4175 -1.0663
  132OSM   C14F14233   6.707   2.041   5.595 -0.1289  0.0231 -0.2559
  132OSM   H14F14234   6.615   2.085   5.639 -3.0263 -3.2114 -2.6096
  132OSM   H14G14235   6.796   2.070   5.655 -0.9308 -1.1779  1.6214
  132OSM   C15F14236   6.701   1.881   5.609  0.1781  0.1012  0.0674
  132OSM   H15F14237   6.803   1.836   5.605  0.7741  1.4110 -0.1641
  132OSM   H15G14238   6.642   1.842   5.523 -0.0452  0.9000 -0.1489
  132OSM   C16F14239   6.623   1.844   5.737  0.3326  0.0376 -0.4816
  132OSM   H16F14240   6.529   1.902   5.735  0.3656  0.0968 -0.3259
  132OSM   H16G14241   6.680   1.884   5.824  0.6076  0.9912 -1.0813
  132OSM   C17F14242   6.585   1.697   5.745  0.0728 -0.0604 -0.1164
  132OSM   H17F14243   6.522   1.673   5.657  0.3493 -3.9903  0.5540
  132OSM   H17G14244   6.517   1.676   5.831 -1.9469  1.6625 -1.2047
  132OSM   C18F14245   6.706   1.592   5.758 -0.2120 -0.4632 -0.1584
  132OSM   H18F14246   6.666   1.488   5.748 -1.1091 -0.3352  1.6389
  132OSM   H18G14247   6.747   1.605   5.861 -1.0396  1.0448  0.0113
  132OSM   H18H14248   6.780   1.606   5.678  2.2968  3.2233  2.4842
  133OSM      N14249   4.118   5.020   3.090 -0.5086  0.2226 -0.5863
  133OSM    C1514250   3.976   4.977   3.095 -0.3147  0.0013  0.4653
  133OSM   H15A14251   3.914   4.989   3.007 -0.4977  3.0644  0.9195
  133OSM   H15B14252   3.930   5.033   3.174 -0.0694 -1.8275  1.9636
  133OSM   H15C14253   3.970   4.872   3.120  0.0537 -0.7530 -2.2156
  133OSM    C1414254   4.175   5.032   3.228  0.6814  0.0111 -0.3207
  133OSM   H14A14255   4.282   5.044   3.226  0.8699 -1.4971 -0.8509
  133OSM   H14B14256   4.153   4.948   3.292 -0.0319 -0.1942 -0.8203
  133OSM   H14C14257   4.134   5.120   3.275 -1.8683 -0.5998 -1.2164
  133OSM    C1314258   4.182   4.910   3.005 -0.0123  0.1167 -0.3492
  133OSM   H13A14259   4.166   4.817   3.057 -0.5209  0.1184 -0.4947
  133OSM   H13B14260   4.287   4.935   3.007 -0.0740  0.3670 -0.1591
  133OSM   H13C14261   4.136   4.906   2.907  1.2108  0.7285 -0.9690
  133OSM    C1214262   4.147   5.155   3.027 -0.1368  0.2026  0.2524
  133OSM   H12A14263   4.107   5.233   3.091  1.6952  1.6240 -0.2239
  133OSM   H12B14264   4.087   5.165   2.938 -0.6487  1.1794  0.6799
  133OSM    C1114265   4.295   5.190   2.992 -0.0080 -0.0493 -0.3013
  133OSM   H11A14266   4.295   5.301   2.985 -0.1909 -0.0384 -0.1392
  133OSM   H11B14267   4.324   5.156   2.890  0.5339 -1.0545  0.1808
  133OSM      P14268   4.517   5.060   3.074 -0.5163  0.0326  0.3543
  133OSM    O1314269   4.489   4.924   3.024  1.0527 -0.3735  0.8530
  133OSM    O1414270   4.619   5.130   2.991 -0.2182 -0.1921 -0.0891
  133OSM    O1114271   4.569   5.053   3.215 -0.4069 -0.0270 -0.0383
  133OSM    O1214272   4.392   5.151   3.097 -0.2779  0.4687 -0.0594
  133OSM    C1S14273   4.614   5.160   3.290 -0.0538 -0.8611 -0.2828
  133OSM    H1S14274   4.559   5.255   3.274 -3.7008 -2.3934  1.9920
  133OSM    H1T14275   4.720   5.183   3.264  0.2604 -2.9279 -1.0034
  133OSM     NF14276   4.608   5.265   3.521  0.2557 -0.1417  0.6757
  133OSM    HNF14277   4.698   5.281   3.561  0.5092 -1.0101  0.4888
  133OSM    C2S14278   4.596   5.141   3.442  0.9948  0.4161 -0.0901
  133OSM    H2S14279   4.491   5.114   3.462  1.1676  0.4450  0.9163
  133OSM    C3S14280   4.676   5.020   3.495 -0.1352  0.5448 -0.8935
  133OSM    H3S14281   4.779   5.062   3.493  0.7900 -1.5436  0.2164
  133OSM     O314282   4.679   4.904   3.416 -0.1744  0.2071 -0.2268
  133OSM    HO314283   4.626   4.929   3.340  0.3486  2.0870 -0.0397
  133OSM    C4S14284   4.623   4.984   3.633 -0.6011  0.4443  0.1719
  133OSM    H4S14285   4.515   4.964   3.631 -0.2795 -1.4005 -0.8976
  133OSM    C5S14286   4.692   4.977   3.748  0.5354  0.8371  0.1924
  133OSM    H5S14287   4.800   4.999   3.743  0.5299  0.5669 -1.8349
  133OSM    C6S14288   4.640   4.951   3.883 -0.1018 -0.6122  0.5338
  133OSM    H6S14289   4.708   4.884   3.939 -0.9772 -2.5255 -0.5910
  133OSM    H6T14290   4.546   4.895   3.868 -0.4084 -0.2410  1.0267
  133OSM    C7S14291   4.603   5.071   3.969  0.2541 -0.0564 -0.0451
  133OSM    H7S14292   4.525   5.132   3.919 -0.7225 -1.0134  0.2585
  133OSM    H7T14293   4.693   5.135   3.977  0.0234  0.0289  3.0590
  133OSM    C8S14294   4.545   5.018   4.098  0.0479 -1.1920 -0.0681
  133OSM    H8S14295   4.491   4.921   4.093 -0.0688 -1.2533  1.6451
  133OSM    H8T14296   4.468   5.095   4.122  1.9812  0.8810 -0.1756
  133OSM    C9S14297   4.652   5.020   4.208 -0.0936 -0.4989  0.3108
  133OSM    H9S14298   4.697   5.120   4.192  0.2334 -1.1284 -3.6819
  133OSM    H9T14299   4.743   4.957   4.197  1.6332  1.8057  0.6632
  133OSM   C10S14300   4.585   5.007   4.349  0.6577  0.6823 -0.2650
  133OSM   H10S14301   4.551   4.901   4.353  0.7149  0.6843  0.4115
  133OSM   H10T14302   4.491   5.064   4.363 -1.1293 -2.4747  1.8862
  133OSM   C11S14303   4.681   5.060   4.453  0.3583 -0.1444  0.2032
  133OSM   H11S14304   4.704   5.169   4.456  1.4475 -0.3314 -0.4188
  133OSM   H11T14305   4.776   5.009   4.426 -0.1408  0.2294 -2.5701
  133OSM   C12S14306   4.651   5.013   4.597 -0.9673 -0.0585 -0.5446
  133OSM   H12S14307   4.631   4.905   4.609 -1.1427  0.1007  0.7349
  133OSM   H12T14308   4.552   5.054   4.625 -0.5503 -1.1804  3.0952
  133OSM   C13S14309   4.772   5.053   4.682 -0.2777 -0.0440  0.1411
  133OSM   H13S14310   4.784   5.164   4.691  2.1401 -0.4112  3.4459
  133OSM   H13T14311   4.870   5.015   4.647  1.2016  0.4736  3.2970
  133OSM   C14S14312   4.767   5.013   4.828 -0.5261  0.8371 -0.3373
  133OSM   H14S14313   4.813   4.913   4.839 -1.5341  0.3750 -0.2131
  133OSM   H14T14314   4.661   4.991   4.851 -0.1636  0.1665  0.7796
  133OSM   C15S14315   4.843   5.116   4.914  0.0032  0.2325 -1.1101
  133OSM   H15S14316   4.790   5.213   4.922  0.9901  0.7072  0.0438
  133OSM   H15T14317   4.940   5.127   4.861 -1.5515  1.9013 -3.8220
  133OSM   C16S14318   4.883   5.077   5.057  0.1104 -0.0923 -0.4783
  133OSM   H16S14319   4.942   4.984   5.062  0.2099  0.0339  1.0369
  133OSM   H16T14320   4.786   5.074   5.110  0.6029  1.7922  0.6139
  133OSM   C17S14321   4.974   5.183   5.107  0.1797 -0.4295 -0.0333
  133OSM   H17S14322   4.917   5.278   5.096 -1.7996 -1.7460 -2.1611
  133OSM   H17T14323   5.067   5.193   5.048 -1.5547 -2.3067 -3.3786
  133OSM   C18S14324   5.014   5.147   5.253 -0.2572 -0.3000  0.0065
  133OSM   H18S14325   4.924   5.115   5.311  0.2947 -2.6158 -0.3281
  133OSM   H18T14326   5.065   5.239   5.286  0.6803 -0.5982 -0.5952
  133OSM   H18U14327   5.089   5.065   5.249  2.1672  1.7018  1.6722
  133OSM    C1F14328   4.524   5.364   3.515  0.0424  0.3415 -0.0991
  133OSM     OF14329   4.415   5.359   3.457 -0.0562  0.2738  0.4992
  133OSM    C2F14330   4.567   5.497   3.576  0.0289  0.4101 -0.1315
  133OSM    H2F14331   4.583   5.582   3.507 -1.4634 -1.5476 -3.0840
  133OSM    H2G14332   4.666   5.483   3.624 -0.5509 -0.3389  0.8866
  133OSM    C3F14333   4.465   5.550   3.678  0.2979 -0.1096  0.0865
  133OSM    H3F14334   4.359   5.529   3.652  0.6768 -3.1267  0.6118
  133OSM    H3G14335   4.478   5.660   3.688  2.7346 -0.1219 -1.8977
  133OSM    C4F14336   4.483   5.493   3.813 -0.1580  0.1204 -0.2285
  133OSM    H4F14337   4.593   5.492   3.831  0.0389 -0.0434 -1.3642
  133OSM    H4G14338   4.460   5.385   3.825  2.7921 -0.5990 -0.3324
  133OSM    C5F14339   4.400   5.567   3.927  0.0381  0.2004  0.0334
  133OSM    H5F14340   4.297   5.579   3.887 -0.6692 -1.2458  1.3120
  133OSM    H5G14341   4.443   5.668   3.942  0.2321  0.0158  0.7654
  133OSM    C6F14342   4.402   5.499   4.059  0.1482  0.8202  0.3950
  133OSM    H6F14343   4.336   5.410   4.057  1.8937 -0.5723 -2.5448
  133OSM    H6G14344   4.357   5.574   4.128  1.2066 -0.3359  2.4529
  133OSM    C7F14345   4.539   5.459   4.107 -0.2737  0.4009  0.1186
  133OSM    H7F14346   4.617   5.538   4.096  1.9096 -1.7719 -0.7960
  133OSM    H7G14347   4.578   5.383   4.037  0.1645 -0.2491  1.0588
  133OSM    C8F14348   4.548   5.402   4.245 -0.2413  0.0250  0.3213
  133OSM    H8F14349   4.654   5.382   4.273 -0.6976 -1.5534  1.0017
  133OSM    H8G14350   4.492   5.307   4.249  1.4033 -1.0915 -1.3496
  133OSM    C9F14351   4.486   5.493   4.343 -0.4262 -0.5677  0.1624
  133OSM    H9F14352   4.513   5.598   4.325  2.8654 -1.2079  0.6757
  133OSM   C10F14353   4.408   5.459   4.443 -0.2467  0.7687 -0.5526
  133OSM   H10F14354   4.355   5.533   4.505  1.7100  0.1727  2.0165
  133OSM   C11F14355   4.362   5.315   4.468  0.5745  0.4086  0.0767
  133OSM   H11F14356   4.439   5.235   4.465 -0.2711 -0.3883 -0.5876
  133OSM   H11G14357   4.288   5.289   4.390 -0.5391 -3.3170  2.1420
  133OSM   C12F14358   4.297   5.296   4.608  0.1386 -0.7560  0.2009
  133OSM   H12F14359   4.271   5.188   4.617  3.1994 -1.5338  0.9271
  133OSM   H12G14360   4.213   5.365   4.628 -0.2431 -0.1328 -2.9519
  133OSM   C13F14361   4.402   5.308   4.717  0.1538  0.1758 -0.0857
  133OSM   H13F14362   4.410   5.416   4.742  1.2283  0.2909 -0.8419
  133OSM   H13G14363   4.500   5.270   4.682 -0.0888 -1.4917  0.9411
  133OSM   C14F14364   4.369   5.233   4.856 -0.0042 -0.3521 -0.1555
  133OSM   H14F14365   4.372   5.122   4.849 -0.1694 -0.7143  3.7179
  133OSM   H14G14366   4.265   5.262   4.882  0.4482  1.0998  0.1566
  133OSM   C15F14367   4.454   5.276   4.975 -0.0524 -0.4267  0.8181
  133OSM   H15F14368   4.487   5.382   4.968  0.3736 -0.6010  0.0673
  133OSM   H15G14369   4.550   5.227   4.949 -0.1746  1.0540 -3.1018
  133OSM   C16F14370   4.417   5.255   5.121  0.8829  0.3311 -0.0797
  133OSM   H16F14371   4.383   5.152   5.144  0.0060  0.7062  0.3419
  133OSM   H16G14372   4.330   5.320   5.142 -1.0391 -2.4289  1.1336
  133OSM   C17F14373   4.534   5.290   5.215  0.9455  0.3275  0.0962
  133OSM   H17F14374   4.565   5.391   5.182 -0.3155  0.3365 -1.1611
  133OSM   H17G14375   4.613   5.215   5.194  1.6115  1.3315 -1.1166
  133OSM   C18F14376   4.492   5.274   5.357 -0.0809  0.0893  0.3081
  133OSM   H18F14377   4.392   5.322   5.371 -0.5205 -0.7042 -0.0239
  133OSM   H18G14378   4.572   5.306   5.427 -2.1354 -0.1624  2.9256
  133OSM   H18H14379   4.466   5.169   5.382  3.6621 -0.4058  2.7661
  134OSM      N14380   3.785   6.622   3.861  0.2271  0.1039 -0.4059
  134OSM    C1514381   3.840   6.699   3.747 -0.1100 -0.2396  0.0580
  134OSM   H15A14382   3.762   6.722   3.675  0.5144  0.6396 -0.3627
  134OSM   H15B14383   3.924   6.654   3.697  0.5669  2.5140 -1.5501
  134OSM   H15C14384   3.869   6.787   3.803  1.6374 -1.3339  0.9400
  134OSM    C1414385   3.703   6.507   3.813 -0.4942  0.2149 -0.2798
  134OSM   H14A14386   3.766   6.434   3.765  0.9246  1.2078  0.0026
  134OSM   H14B14387   3.619   6.532   3.749 -1.3750  0.5398  0.9565
  134OSM   H14C14388   3.672   6.452   3.900  0.1248  1.3731  0.6895
  134OSM    C1314389   3.888   6.560   3.954  0.0350 -0.1583 -0.3583
  134OSM   H13A14390   3.826   6.544   4.042 -0.3962  1.7405 -0.2766
  134OSM   H13B14391   3.973   6.619   3.983  0.0274  0.0663 -0.7923
  134OSM   H13C14392   3.911   6.464   3.910 -2.6027 -1.1968  0.2756
  134OSM    C1214393   3.701   6.715   3.943  0.0684  0.0776 -0.3932
  134OSM   H12A14394   3.645   6.655   4.014  1.4613  1.3276  1.8621
  134OSM   H12B14395   3.626   6.760   3.879 -0.1368  0.7653  0.3262
  134OSM    C1114396   3.765   6.828   4.025  0.4721  0.0705 -0.4031
  134OSM   H11A14397   3.829   6.785   4.106  0.7924  0.8758 -0.2228
  134OSM   H11B14398   3.685   6.885   4.077  0.5100  0.1014 -0.3781
  134OSM      P14399   3.860   7.067   3.963 -0.6680  0.3960  0.2136
  134OSM    O1314400   3.916   7.138   3.844  0.2298 -0.2558 -0.1980
  134OSM    O1414401   3.730   7.118   4.016 -0.6897  0.0581 -0.4362
  134OSM    O1114402   3.968   7.067   4.077  0.2428 -0.7755 -0.4771
  134OSM    O1214403   3.840   6.910   3.939 -0.2904  0.1437 -0.2523
  134OSM    C1S14404   4.082   6.990   4.062 -0.1458  0.6407  0.2711
  134OSM    H1S14405   4.150   7.023   3.981  2.0365  1.4369  2.3095
  134OSM    H1T14406   4.067   6.883   4.034  2.6235  0.1271  0.4399
  134OSM     NF14407   4.301   6.931   4.167  0.6721  0.1768 -0.1802
  134OSM    HNF14408   4.308   6.832   4.175 -1.9448 -0.0805 -0.4298
  134OSM    C2S14409   4.165   6.988   4.198 -0.2763  0.1750  0.4569
  134OSM    H2S14410   4.173   7.096   4.224  1.1417  0.7629 -2.1243
  134OSM    C3S14411   4.095   6.911   4.312 -0.0186  0.3234  0.8733
  134OSM    H3S14412   4.121   6.804   4.297 -1.2760 -0.1585  1.9088
  134OSM     O314413   3.953   6.920   4.313  0.0360  0.0399  0.2590
  134OSM    HO314414   3.928   6.954   4.227 -0.9361 -2.2666 -0.4519
  134OSM    C4S14415   4.153   6.938   4.450  0.3114 -0.3137 -0.3038
  134OSM    H4S14416   4.255   6.904   4.473 -0.0458  0.5413  3.1042
  134OSM    C5S14417   4.098   7.002   4.556 -0.1442 -1.2555  0.1514
  134OSM    H5S14418   4.002   7.055   4.558  1.1617  1.3237 -0.1958
  134OSM    C6S14419   4.175   7.028   4.681 -0.3797  0.3044 -0.8265
  134OSM    H6S14420   4.200   7.135   4.699 -0.9643  0.3344 -0.1358
  134OSM    H6T14421   4.270   6.971   4.681 -0.8301 -0.5033  0.7233
  134OSM    C7S14422   4.114   6.960   4.803  0.1560  0.2225 -0.2537
  134OSM    H7S14423   4.111   6.850   4.788  1.2520  0.3053 -1.2268
  134OSM    H7T14424   4.011   6.995   4.825 -0.2035 -1.3878  0.8743
  134OSM    C8S14425   4.206   6.980   4.928  0.2971 -0.2900  0.3222
  134OSM    H8S14426   4.217   7.089   4.949  0.0153  0.0563 -1.2161
  134OSM    H8T14427   4.312   6.948   4.922  1.1592  2.3908 -4.7876
  134OSM    C9S14428   4.147   6.913   5.045 -0.5221 -0.4975 -0.5372
  134OSM    H9S14429   4.145   6.804   5.021  2.3461 -0.6967 -0.2217
  134OSM    H9T14430   4.048   6.958   5.065 -0.6086 -0.9934  0.1825
  134OSM   C10S14431   4.230   6.924   5.177  0.5427  0.7122  0.2819
  134OSM   H10S14432   4.219   7.029   5.213 -1.0701  0.3615  0.8744
  134OSM   H10T14433   4.339   6.904   5.162  0.7586  0.6397  1.7624
  134OSM   C11S14434   4.186   6.818   5.280  0.0257 -0.0109 -0.0234
  134OSM   H11S14435   4.240   6.827   5.376 -1.4050 -0.5200  0.8467
  134OSM   H11T14436   4.197   6.717   5.235 -0.9245 -0.0836 -0.1113
  134OSM   C12S14437   4.028   6.836   5.307 -0.4887  0.1692 -0.2976
  134OSM   H12S14438   3.964   6.813   5.219  0.1120 -0.5875 -0.5498
  134OSM   H12T14439   4.018   6.945   5.320 -1.3508 -0.0393  0.9957
  134OSM   C13S14440   3.972   6.755   5.425 -0.0921 -0.0301 -0.0070
  134OSM   H13S14441   4.023   6.803   5.511 -0.7129 -1.8728  1.4611
  134OSM   H13T14442   4.014   6.652   5.432 -0.1833 -0.1336 -0.8770
  134OSM   C14S14443   3.823   6.750   5.431  0.9335  0.1238 -0.1950
  134OSM   H14S14444   3.788   6.719   5.330 -0.0616 -0.2435  0.2581
  134OSM   H14T14445   3.781   6.852   5.445 -0.2693 -0.2780 -0.8025
  134OSM   C15S14446   3.768   6.654   5.544 -0.1364  0.4447  0.3713
  134OSM   H15S14447   3.811   6.555   5.517  0.8138  1.1654 -0.8883
  134OSM   H15T14448   3.658   6.665   5.532 -0.1802 -1.0321 -0.9125
  134OSM   C16S14449   3.808   6.703   5.678 -0.5870 -0.9368 -0.2263
  134OSM   H16S14450   3.743   6.793   5.690  3.2662  1.9553  1.2150
  134OSM   H16T14451   3.910   6.747   5.684 -1.1368  0.3019  0.6168
  134OSM   C17S14452   3.801   6.603   5.801 -0.0619 -0.0620  0.5179
  134OSM   H17S14453   3.848   6.646   5.891  0.7465 -1.5441  0.8462
  134OSM   H17T14454   3.869   6.519   5.775 -2.2374 -1.2495 -1.8372
  134OSM   C18S14455   3.663   6.551   5.822 -0.4259 -0.3544 -0.2729
  134OSM   H18S14456   3.612   6.508   5.734  0.6744  0.1965 -1.2205
  134OSM   H18T14457   3.599   6.637   5.851 -0.4611 -0.0879 -1.1287
  134OSM   H18U14458   3.658   6.472   5.900 -0.1433  1.2689  1.4648
  134OSM    C1F14459   4.407   6.994   4.105 -0.8187 -0.1338 -0.3672
  134OSM     OF14460   4.399   7.108   4.069 -0.1422 -0.0232 -0.2761
  134OSM    C2F14461   4.540   6.918   4.098  0.4269 -0.0287 -0.0114
  134OSM    H2F14462   4.612   6.992   4.139  0.3937  0.7847 -1.3741
  134OSM    H2G14463   4.556   6.891   3.992 -1.9139 -0.5661 -0.2904
  134OSM    C3F14464   4.539   6.788   4.179  0.2519  0.0125  0.2380
  134OSM    H3F14465   4.637   6.738   4.160 -0.1554 -1.0786  0.9008
  134OSM    H3G14466   4.470   6.714   4.132  2.2075  0.0899 -3.0935
  134OSM    C4F14467   4.536   6.805   4.328  0.4281 -0.5278 -0.1977
  134OSM    H4F14468   4.436   6.840   4.363  0.4643 -1.6939  1.1418
  134OSM    H4G14469   4.618   6.874   4.355  0.5310  0.2878 -2.3451
  134OSM    C5F14470   4.569   6.680   4.407  0.5090  0.3297 -0.1518
  134OSM    H5F14471   4.679   6.673   4.394  0.6365 -0.2663  1.1049
  134OSM    H5G14472   4.511   6.596   4.364 -0.4214  0.0352  1.5878
  134OSM    C6F14473   4.544   6.695   4.558 -0.6225  0.5659 -0.0030
  134OSM    H6F14474   4.440   6.732   4.575 -0.1746  3.0112 -2.0157
  134OSM    H6G14475   4.615   6.777   4.583 -0.2370  0.9523 -2.1936
  134OSM    C7F14476   4.571   6.564   4.639  0.1399  0.1060  0.7571
  134OSM    H7F14477   4.676   6.535   4.616 -0.5951  0.0788 -3.4077
  134OSM    H7G14478   4.497   6.482   4.622  2.2764 -1.8379  0.3387
  134OSM    C8F14479   4.565   6.592   4.789  0.1156  0.0303  0.2817
  134OSM    H8F14480   4.459   6.591   4.824 -0.2648 -0.2501 -0.8387
  134OSM    H8G14481   4.600   6.695   4.808 -0.4572  0.3859 -0.5840
  134OSM    C9F14482   4.643   6.491   4.870  0.2669  0.0763  0.1783
  134OSM    H9F14483   4.700   6.413   4.817  3.1053  1.2698  1.2958
  134OSM   C10F14484   4.681   6.500   5.002  0.1217  0.0477  0.2845
  134OSM   H10F14485   4.720   6.409   5.049  0.1322  0.0490  0.2781
  134OSM   C11F14486   4.630   6.606   5.095 -0.4029 -0.3822 -0.0551
  134OSM   H11F14487   4.562   6.669   5.034  0.0673 -0.5755 -0.7821
  134OSM   H11G14488   4.711   6.665   5.141 -2.1993  0.6150  2.0238
  134OSM   C12F14489   4.550   6.549   5.214  1.3893 -0.3581 -0.3053
  134OSM   H12F14490   4.494   6.460   5.179  0.0481  1.4540 -3.1391
  134OSM   H12G14491   4.481   6.628   5.251  1.6306 -1.0790  1.8511
  134OSM   C13F14492   4.639   6.510   5.341  0.0384 -0.2118  0.1346
  134OSM   H13F14493   4.682   6.601   5.388 -1.1531 -0.5636  2.0086
  134OSM   H13G14494   4.730   6.452   5.315  0.4673  0.5472 -0.0768
  134OSM   C14F14495   4.562   6.442   5.447  0.0453  0.0731 -0.3213
  134OSM   H14F14496   4.630   6.389   5.517  1.0809  1.0860 -0.5352
  134OSM   H14G14497   4.497   6.366   5.400 -0.5377  0.2747  0.1481
  134OSM   C15F14498   4.468   6.530   5.527 -0.8215  0.0013  0.0453
  134OSM   H15F14499   4.386   6.578   5.469  0.6028  0.0891 -1.9767
  134OSM   H15G14500   4.524   6.618   5.563 -1.6769 -0.0980  1.7142
  134OSM   C16F14501   4.402   6.452   5.642  0.2268 -0.2225  0.6918
  134OSM   H16F14502   4.481   6.412   5.708 -1.0814 -1.6150  1.4677
  134OSM   H16G14503   4.347   6.369   5.593 -1.0745  0.3578  1.1263
  134OSM   C17F14504   4.305   6.532   5.724 -0.5372  0.4018 -0.7076
  134OSM   H17F14505   4.228   6.584   5.662 -0.8266 -1.0356 -1.5923
  134OSM   H17G14506   4.368   6.612   5.768 -0.8814 -0.2586  1.0561
  134OSM   C18F14507   4.251   6.440   5.828  0.3911 -0.0300  0.4251
  134OSM   H18F14508   4.205   6.500   5.910 -0.6714  1.1303 -0.9604
  134OSM   H18G14509   4.325   6.367   5.867 -1.0301 -0.6860  2.0115
  134OSM   H18H14510   4.175   6.373   5.784  1.8340 -1.4916  0.0849
  135OSM      N14511   1.106   2.805   3.594 -0.2051  0.2502  0.1008
  135OSM    C1514512   1.221   2.771   3.681  0.4782  0.1305  0.3649
  135OSM   H15A14513   1.231   2.832   3.769  1.9230 -0.1233  0.3934
  135OSM   H15B14514   1.315   2.774   3.628 -0.3972 -0.5153 -1.3112
  135OSM   H15C14515   1.210   2.669   3.717  0.6133  0.3375  1.0034
  135OSM    C1414516   1.142   2.927   3.517  0.5957  0.1887  0.2506
  135OSM   H14A14517   1.181   2.997   3.589 -1.3621 -0.4419  2.0258
  135OSM   H14B14518   1.060   2.984   3.475  2.9703  4.3486  0.6574
  135OSM   H14C14519   1.206   2.903   3.433  0.1803  0.6184 -0.2011
  135OSM    C1314520   1.086   2.696   3.500  0.4805  0.4008 -0.0571
  135OSM   H13A14521   1.011   2.711   3.424  0.3156  1.6704  0.3362
  135OSM   H13B14522   1.061   2.609   3.559 -3.6996  1.9792  0.8449
  135OSM   H13C14523   1.180   2.677   3.449  0.3611 -2.1178  0.5013
  135OSM    C1214524   0.971   2.825   3.671 -0.3005 -0.7819 -0.0930
  135OSM   H12A14525   0.894   2.866   3.607  0.3253  1.9100  0.7242
  135OSM   H12B14526   0.994   2.908   3.737  3.6974 -1.3477 -0.5227
  135OSM    C1114527   0.922   2.718   3.769 -0.2193  0.4187 -0.2215
  135OSM   H11A14528   0.829   2.761   3.810 -0.6815 -0.9623  0.2372
  135OSM   H11B14529   1.003   2.696   3.842  0.3790 -1.7230 -1.4212
  135OSM      P14530   0.752   2.558   3.652  0.1281  0.0299 -0.2019
  135OSM    O1314531   0.708   2.665   3.560  0.2606 -0.2210  0.5493
  135OSM    O1414532   0.740   2.414   3.616 -0.0695  0.0661  0.5803
  135OSM    O1114533   0.662   2.586   3.779 -0.5382  0.0994  0.0597
  135OSM    O1214534   0.895   2.595   3.703 -0.8808 -0.1281 -0.5847
  135OSM    C1S14535   0.680   2.564   3.915  0.5357 -1.2590 -0.3076
  135OSM    H1S14536   0.766   2.626   3.949  0.6766 -0.1264 -2.5805
  135OSM    H1T14537   0.719   2.463   3.942  0.9500 -0.9577  0.2498
  135OSM     NF14538   0.599   2.549   4.148 -0.5859 -0.6417  0.4806
  135OSM    HNF14539   0.579   2.462   4.192 -2.3225 -0.1769  0.6878
  135OSM    C2S14540   0.553   2.585   4.011  0.3229  0.0273 -0.3266
  135OSM    H2S14541   0.528   2.692   4.023  1.2557  0.2885 -0.5637
  135OSM    C3S14542   0.422   2.505   3.969 -0.3277 -0.6892 -0.2786
  135OSM    H3S14543   0.439   2.399   3.998  2.5798 -0.5927 -1.3121
  135OSM     O314544   0.394   2.507   3.832 -0.3137  0.4811  0.2721
  135OSM    HO314545   0.478   2.528   3.792 -0.6262  1.7821  0.2619
  135OSM    C4S14546   0.302   2.551   4.046 -0.2360  0.4307 -0.5822
  135OSM    H4S14547   0.286   2.658   4.062 -0.1596  0.1664  1.5392
  135OSM    C5S14548   0.238   2.469   4.135  0.4254  0.1491  0.1603
  135OSM    H5S14549   0.270   2.364   4.147  0.2318 -0.0209 -0.7160
  135OSM    C6S14550   0.133   2.509   4.230 -0.5179 -0.5124 -0.3165
  135OSM    H6S14551   0.038   2.455   4.209 -0.1587 -0.3695 -2.4995
  135OSM    H6T14552   0.132   2.620   4.229  1.6178 -0.4571 -1.6821
  135OSM    C7S14553   0.174   2.474   4.376 -0.6722  0.5829  0.8438
  135OSM    H7S14554   0.163   2.365   4.394  0.3972 -0.0283 -1.7744
  135OSM    H7T14555   0.095   2.527   4.435 -0.1829  0.3752  1.6989
  135OSM    C8S14556   0.316   2.533   4.405  0.0365  0.0904  0.1069
  135OSM    H8S14557   0.315   2.639   4.372 -1.3776  0.8865  2.4755
  135OSM    H8T14558   0.396   2.483   4.345  0.7735  2.4946 -1.0255
  135OSM    C9S14559   0.364   2.515   4.549 -0.1381  0.0369  0.4299
  135OSM    H9S14560   0.311   2.589   4.612 -0.9822 -0.2564  0.0730
  135OSM    H9T14561   0.473   2.539   4.550  0.1143 -0.8211  3.6765
  135OSM   C10S14562   0.346   2.377   4.621  0.0462  0.0085 -0.1543
  135OSM   H10S14563   0.402   2.294   4.572  0.2772  0.6483 -1.0012
  135OSM   H10T14564   0.238   2.355   4.608  0.2645  0.3432 -3.3401
  135OSM   C11S14565   0.392   2.368   4.764  0.1795 -0.5054 -0.6691
  135OSM   H11S14566   0.333   2.450   4.810 -0.2572  0.7181 -3.2056
  135OSM   H11T14567   0.500   2.389   4.777 -0.5575  1.9518  2.7014
  135OSM   C12S14568   0.344   2.238   4.843  0.0687 -0.1028 -0.3203
  135OSM   H12S14569   0.433   2.175   4.864 -0.9045 -1.2322  0.5487
  135OSM   H12T14570   0.266   2.177   4.793 -1.6260  1.1496  0.6447
  135OSM   C13S14571   0.283   2.289   4.971  0.0831 -0.0537  0.3515
  135OSM   H13S14572   0.237   2.200   5.019 -1.3054 -1.2891 -2.9118
  135OSM   H13T14573   0.200   2.362   4.959 -0.3127 -0.3890  0.9978
  135OSM   C14S14574   0.379   2.356   5.063 -0.0007 -0.3601 -0.0578
  135OSM   H14S14575   0.398   2.459   5.027  1.1126 -0.3818  0.4498
  135OSM   H14T14576   0.479   2.308   5.057  0.3587  0.2933  0.6415
  135OSM   C15S14577   0.332   2.359   5.206  0.7127  0.0987 -0.4673
  135OSM   H15S14578   0.233   2.409   5.210 -0.1968 -1.6150 -0.6049
  135OSM   H15T14579   0.386   2.442   5.256 -1.2584  1.7295 -0.8758
  135OSM   C16S14580   0.341   2.224   5.281  0.0142 -0.4603  0.2298
  135OSM   H16S14581   0.442   2.182   5.259 -0.6716 -1.9897 -0.1660
  135OSM   H16T14582   0.262   2.159   5.237  1.0861 -0.8504 -1.1720
  135OSM   C17S14583   0.308   2.250   5.429  0.2656  0.0823  0.6353
  135OSM   H17S14584   0.215   2.310   5.432  1.1846  1.6156  0.0923
  135OSM   H17T14585   0.386   2.315   5.476  1.8789  0.3324 -2.1607
  135OSM   C18S14586   0.295   2.123   5.512  0.5703  0.4437  0.0509
  135OSM   H18S14587   0.382   2.105   5.577 -0.2669  0.6801  1.2644
  135OSM   H18T14588   0.293   2.028   5.453  1.0593 -0.7326  1.8469
  135OSM   H18U14589   0.210   2.140   5.582  0.7966 -0.8895  0.6768
  135OSM    C1F14590   0.683   2.620   4.223 -0.1109 -1.0298 -0.7947
  135OSM     OF14591   0.723   2.735   4.189  0.3959  0.8439 -0.1192
  135OSM    C2F14592   0.720   2.569   4.361 -0.4192  0.2036 -0.4238
  135OSM    H2F14593   0.678   2.466   4.371  0.2002  0.1748  3.0923
  135OSM    H2G14594   0.652   2.628   4.426 -2.5915 -1.7838 -0.7502
  135OSM    C3F14595   0.867   2.578   4.401  0.2961 -0.2685 -0.1666
  135OSM    H3F14596   0.884   2.685   4.424 -0.9458 -0.2589  0.8064
  135OSM    H3G14597   0.942   2.534   4.332 -0.8180 -1.3008 -0.7667
  135OSM    C4F14598   0.899   2.519   4.544 -0.7141  0.0064 -0.6016
  135OSM    H4F14599   1.002   2.550   4.569 -0.2766 -1.2082 -0.8216
  135OSM    H4G14600   0.903   2.408   4.532  0.7354  0.0669 -0.7643
  135OSM    C5F14601   0.796   2.557   4.653 -0.4073  0.2215  0.4033
  135OSM    H5F14602   0.689   2.549   4.625 -0.4494  1.4289  0.1774
  135OSM    H5G14603   0.825   2.664   4.665  2.5638 -0.4108 -0.1871
  135OSM    C6F14604   0.830   2.501   4.792 -0.3270  0.4976 -0.9234
  135OSM    H6F14605   0.940   2.500   4.810 -0.1033 -0.8905 -2.1832
  135OSM    H6G14606   0.790   2.397   4.796 -0.9803  0.7815  1.4293
  135OSM    C7F14607   0.750   2.580   4.902  0.4366 -0.7817 -0.3038
  135OSM    H7F14608   0.654   2.602   4.850  0.8530 -1.9586 -1.6505
  135OSM    H7G14609   0.809   2.661   4.950 -2.0565  1.0028 -0.0041
  135OSM    C8F14610   0.725   2.488   5.025 -0.0993  0.4174  1.0313
  135OSM    H8F14611   0.678   2.396   4.983  3.1064 -1.6723  1.6547
  135OSM    H8G14612   0.650   2.541   5.087 -1.7053  1.6543 -1.7589
  135OSM    C9F14613   0.856   2.448   5.090 -0.1365  0.1024  0.1554
  135OSM    H9F14614   0.950   2.485   5.045  0.2400  0.7764  1.4432
  135OSM   C10F14615   0.866   2.387   5.206  0.3194  0.5407 -0.1982
  135OSM   H10F14616   0.966   2.353   5.239  0.7321 -1.4334 -3.1385
  135OSM   C11F14617   0.747   2.347   5.290  0.3133 -0.2432  0.1865
  135OSM   H11F14618   0.663   2.315   5.226  0.5293  1.9357 -1.2914
  135OSM   H11G14619   0.703   2.433   5.345  3.3769  2.0391 -0.6197
  135OSM   C12F14620   0.784   2.235   5.390  0.1452 -1.1583 -0.1798
  135OSM   H12F14621   0.833   2.161   5.323  2.1956  1.7143 -2.0730
  135OSM   H12G14622   0.682   2.196   5.412 -0.4381  1.0683  1.4928
  135OSM   C13F14623   0.858   2.263   5.523 -0.5148  0.6157 -0.4333
  135OSM   H13F14624   0.956   2.311   5.500 -0.6921  0.2408 -2.0631
  135OSM   H13G14625   0.871   2.160   5.564  0.2860  1.6576  2.0973
  135OSM   C14F14626   0.785   2.344   5.631 -0.2446 -0.0482  0.2169
  135OSM   H14F14627   0.798   2.453   5.615  5.5745 -0.5029 -0.0462
  135OSM   H14G14628   0.839   2.305   5.720  0.7828 -1.2667 -0.9139
  135OSM   C15F14629   0.633   2.319   5.657  0.6038 -0.4628  0.7221
  135OSM   H15F14630   0.611   2.214   5.685 -1.4874  0.0678  1.2712
  135OSM   H15G14631   0.587   2.347   5.559 -0.1799 -3.1664  0.2435
  135OSM   C16F14632   0.573   2.417   5.764 -0.8440  0.1464  0.6927
  135OSM   H16F14633   0.612   2.519   5.743  0.7871 -0.6431 -0.3233
  135OSM   H16G14634   0.620   2.398   5.863  2.2035  0.0198 -0.6574
  135OSM   C17F14635   0.424   2.416   5.765 -0.3478  0.0584  0.2228
  135OSM   H17F14636   0.372   2.389   5.671 -1.6688 -2.1738  1.5263
  135OSM   H17G14637   0.385   2.515   5.798 -0.7183 -0.0418  0.0912
  135OSM   C18F14638   0.361   2.314   5.864  0.4587 -0.0720  0.9185
  135OSM   H18F14639   0.432   2.260   5.930 -0.9038 -3.6323 -0.2670
  135OSM   H18G14640   0.310   2.226   5.818 -1.1452 -0.8067  3.8252
  135OSM   H18H14641   0.288   2.368   5.928  0.9963 -0.3758  1.7989
  136OSM      N14642   3.317   1.326   3.598 -0.6933  0.2876 -0.0578
  136OSM    C1514643   3.315   1.444   3.680 -0.0903 -0.6543  0.1241
  136OSM   H15A14644   3.280   1.411   3.777 -0.6860  1.5793  0.7159
  136OSM   H15B14645   3.235   1.509   3.648 -0.3597 -0.6151  0.8452
  136OSM   H15C14646   3.409   1.496   3.682 -0.3290 -0.0807 -1.5945
  136OSM    C1414647   3.356   1.353   3.462 -0.0757 -0.2810  0.2381
  136OSM   H14A14648   3.283   1.410   3.406  1.8921  0.6616 -1.4947
  136OSM   H14B14649   3.385   1.263   3.410  3.1639  0.4343  0.6116
  136OSM   H14C14650   3.443   1.416   3.464  0.4540 -0.9761 -0.3093
  136OSM    C1314651   3.432   1.245   3.658 -0.7276  0.2020 -0.2297
  136OSM   H13A14652   3.406   1.214   3.758  1.0876  2.4820  1.0571
  136OSM   H13B14653   3.523   1.303   3.664 -0.6612  0.3355 -2.0263
  136OSM   H13C14654   3.455   1.165   3.589 -0.5404  1.8204 -2.1726
  136OSM    C1214655   3.194   1.240   3.600  0.0904 -0.2519  0.1776
  136OSM   H12A14656   3.208   1.151   3.540 -0.8714 -0.6290  0.4882
  136OSM   H12B14657   3.116   1.299   3.553 -2.9597 -1.3854  3.3717
  136OSM    C1114658   3.132   1.210   3.733 -0.5915  0.7123 -0.2294
  136OSM   H11A14659   3.040   1.148   3.727 -1.0345  1.4506 -1.2333
  136OSM   H11B14660   3.121   1.299   3.797  0.8086 -0.3679  1.6421
  136OSM      P14661   3.221   0.985   3.852  0.3289 -0.1799  0.2235
  136OSM    O1314662   3.084   0.925   3.823  0.0579 -0.1174  0.3639
  136OSM    O1414663   3.328   0.913   3.773 -0.3052 -0.2792  0.0574
  136OSM    O1114664   3.255   0.989   4.009  0.2069  0.5396 -0.2962
  136OSM    O1214665   3.226   1.133   3.804 -0.5520 -0.4803 -0.1239
  136OSM    C1S14666   3.369   1.069   4.038 -0.5999 -0.0320 -1.0173
  136OSM    H1S14667   3.345   1.177   4.025  0.9462  0.2763 -1.4836
  136OSM    H1T14668   3.462   1.047   3.982  1.4794  1.8772  1.4106
  136OSM     NF14669   3.500   1.137   4.243  0.1956 -0.1812  0.5649
  136OSM    HNF14670   3.594   1.108   4.257  0.8005  0.0300 -2.3402
  136OSM    C2S14671   3.400   1.043   4.189  0.2283 -0.2002 -0.2315
  136OSM    H2S14672   3.309   1.074   4.245  1.9180 -0.2038  2.7067
  136OSM    C3S14673   3.432   0.893   4.219 -0.2654  0.0143  0.1955
  136OSM    H3S14674   3.528   0.867   4.169 -0.8275 -0.0437 -0.8865
  136OSM     O314675   3.327   0.807   4.166  0.0705 -0.0234 -0.1090
  136OSM    HO314676   3.274   0.867   4.113 -1.5546  1.4499  2.9077
  136OSM    C4S14677   3.456   0.875   4.369  0.1137  0.0576 -0.1306
  136OSM    H4S14678   3.373   0.906   4.435  0.5714  0.1517  0.4054
  136OSM    C5S14679   3.564   0.830   4.425 -0.3739 -0.7262 -0.0532
  136OSM    H5S14680   3.639   0.813   4.347 -0.9809  2.1923 -1.4037
  136OSM    C6S14681   3.600   0.794   4.565 -0.3390  0.0815  0.7414
  136OSM    H6S14682   3.656   0.884   4.599  1.5134 -0.7845  0.1311
  136OSM    H6T14683   3.661   0.701   4.572  0.4870  0.4736 -0.6825
  136OSM    C7S14684   3.474   0.779   4.649 -0.1580 -0.0261  0.1324
  136OSM    H7S14685   3.394   0.711   4.611 -1.3643  1.0498  0.6589
  136OSM    H7T14686   3.437   0.882   4.666  0.2573  0.2785 -0.7460
  136OSM    C8S14687   3.495   0.723   4.794  0.1987 -0.1322  0.4001
  136OSM    H8S14688   3.534   0.620   4.781  0.9631  0.5357 -4.0878
  136OSM    H8T14689   3.397   0.721   4.846  0.5419  0.5154  1.0966
  136OSM    C9S14690   3.596   0.806   4.878 -0.3626  0.3795  0.1783
  136OSM    H9S14691   3.552   0.907   4.890 -0.7415  0.5403 -2.0991
  136OSM    H9T14692   3.688   0.819   4.817  0.3953  2.0290  1.5983
  136OSM   C10S14693   3.619   0.722   5.003 -0.5003  0.1532  0.1237
  136OSM   H10S14694   3.690   0.640   4.979 -1.6678 -0.9422  0.3171
  136OSM   H10T14695   3.520   0.675   5.021 -0.7581 -1.1457 -3.8493
  136OSM   C11S14696   3.648   0.807   5.124 -0.0146  0.2977  0.2961
  136OSM   H11S14697   3.568   0.882   5.142  0.2605  0.9400 -1.0460
  136OSM   H11T14698   3.744   0.862   5.119 -0.7601  1.7914  1.7666
  136OSM   C12S14699   3.653   0.724   5.254 -0.5097 -0.0828  0.0549
  136OSM   H12S14700   3.730   0.644   5.251 -0.1504  0.2871 -0.8963
  136OSM   H12T14701   3.549   0.688   5.273 -0.5661  1.0880  2.2844
  136OSM   C13S14702   3.696   0.825   5.359  0.0814  0.3457  0.1615
  136OSM   H13S14703   3.628   0.913   5.355  0.9690  1.0146 -0.8248
  136OSM   H13T14704   3.798   0.863   5.337  0.3214  0.4637  1.4218
  136OSM   C14S14705   3.696   0.760   5.503 -0.3657 -0.2082 -0.7307
  136OSM   H14S14706   3.795   0.717   5.527 -0.5184  0.5325  1.4499
  136OSM   H14T14707   3.621   0.678   5.499 -1.0703  0.3607  0.3371
  136OSM   C15S14708   3.656   0.843   5.625 -0.6446  0.1023 -0.3657
  136OSM   H15S14709   3.673   0.778   5.713  1.0666  0.2620 -0.5428
  136OSM   H15T14710   3.557   0.892   5.623 -1.2368 -1.0609 -2.6296
  136OSM   C16S14711   3.761   0.961   5.637  0.3440  0.0921 -0.5404
  136OSM   H16S14712   3.704   1.046   5.594 -0.6561 -0.2402  0.0915
  136OSM   H16T14713   3.853   0.936   5.580  0.0717 -1.3944 -0.3701
  136OSM   C17S14714   3.800   0.994   5.772 -0.3633  0.1552  0.4585
  136OSM   H17S14715   3.853   1.092   5.766  0.7512 -0.2709  2.4924
  136OSM   H17T14716   3.873   0.921   5.814 -1.1712 -0.2546  1.1805
  136OSM   C18S14717   3.691   1.002   5.874 -0.0675  0.0597  0.5482
  136OSM   H18S14718   3.670   0.902   5.919  1.8925 -0.6117  0.0825
  136OSM   H18T14719   3.602   1.051   5.830  0.6142  0.3643 -0.5084
  136OSM   H18U14720   3.721   1.066   5.960  1.7189 -1.9250  1.5134
  136OSM    C1F14721   3.470   1.271   4.256 -0.4422 -0.5090  0.4806
  136OSM     OF14722   3.362   1.326   4.242  0.9324 -1.0456  0.2976
  136OSM    C2F14723   3.587   1.347   4.301 -0.0976  0.0135 -0.2905
  136OSM    H2F14724   3.556   1.453   4.315 -2.7230 -0.6591 -0.4027
  136OSM    H2G14725   3.664   1.349   4.221  0.4198 -0.3029  0.1902
  136OSM    C3F14726   3.665   1.313   4.429 -0.4557  0.4626  0.0106
  136OSM    H3F14727   3.738   1.395   4.447  0.0198  0.6841 -2.5132
  136OSM    H3G14728   3.728   1.225   4.401  1.3372  0.4874  3.3844
  136OSM    C4F14729   3.593   1.272   4.558 -0.1950 -0.3416  0.1380
  136OSM    H4F14730   3.529   1.182   4.545 -1.5801  0.2477  2.2670
  136OSM    H4G14731   3.529   1.356   4.592  0.8119  0.8723 -0.8477
  136OSM    C5F14732   3.692   1.236   4.665  0.2084 -0.2863 -0.1681
  136OSM    H5F14733   3.771   1.315   4.671 -0.2605  0.2256 -0.6526
  136OSM    H5G14734   3.745   1.143   4.635 -0.0736 -0.5080  0.0199
  136OSM    C6F14735   3.630   1.218   4.800 -0.0855 -0.0625 -0.2928
  136OSM    H6F14736   3.551   1.141   4.791  1.2090 -1.7365  1.6871
  136OSM    H6G14737   3.585   1.317   4.824  1.1513  0.9762 -1.9519
  136OSM    C7F14738   3.735   1.188   4.914  0.0407 -0.5240  0.0571
  136OSM    H7F14739   3.819   1.261   4.912  0.3503 -0.8815 -1.6409
  136OSM    H7G14740   3.783   1.089   4.898  0.6690  0.0387 -1.7053
  136OSM    C8F14741   3.678   1.195   5.052  1.1637  1.3608  0.1454
  136OSM    H8F14742   3.607   1.110   5.058  2.2424  0.5688  2.5055
  136OSM    H8G14743   3.620   1.290   5.057 -1.9984 -0.4577  0.5385
  136OSM    C9F14744   3.763   1.171   5.178  0.3323  0.1176 -0.0321
  136OSM    H9F14745   3.872   1.178   5.161  0.2407  1.2058 -0.2579
  136OSM   C10F14746   3.711   1.155   5.303  0.0513 -0.2323 -1.1236
  136OSM   H10F14747   3.775   1.132   5.390  1.8219  0.8006 -2.0889
  136OSM   C11F14748   3.568   1.178   5.342 -0.3100 -0.2197  0.2772
  136OSM   H11F14749   3.540   1.103   5.419 -2.9456  0.8555  0.4697
  136OSM   H11G14750   3.504   1.162   5.253  2.5370 -3.7020 -1.4288
  136OSM   C12F14751   3.524   1.320   5.377  0.1651 -0.1659  0.4411
  136OSM   H12F14752   3.415   1.320   5.399  0.0058  1.9368 -0.1565
  136OSM   H12G14753   3.543   1.379   5.285  0.6166 -0.2935  0.4525
  136OSM   C13F14754   3.600   1.401   5.483  0.4951  0.0423  0.1231
  136OSM   H13F14755   3.551   1.500   5.472 -0.6667 -0.1452  2.9547
  136OSM   H13G14756   3.707   1.403   5.453  0.9524  0.6129  1.7166
  136OSM   C14F14757   3.581   1.357   5.629  0.6628  0.7158 -0.2727
  136OSM   H14F14758   3.614   1.252   5.644 -1.2058  0.2225  0.5903
  136OSM   H14G14759   3.472   1.356   5.648  0.6926  1.8804  0.0254
  136OSM   C15F14760   3.654   1.447   5.729 -0.3009  0.6240 -0.5934
  136OSM   H15F14761   3.621   1.550   5.706 -1.6059  0.9126  2.1909
  136OSM   H15G14762   3.764   1.434   5.712  0.3959  3.6086  1.0433
  136OSM   C16F14763   3.627   1.417   5.879 -0.2931 -0.5020 -0.6251
  136OSM   H16F14764   3.603   1.312   5.905  0.6555 -0.5497  0.1029
  136OSM   H16G14765   3.536   1.477   5.901 -0.3852 -0.7025 -0.4604
  136OSM   C17F14766   3.740   1.463   5.978 -0.5668  0.8029  0.1208
  136OSM   H17F14767   3.698   1.454   6.080 -0.7995  1.1136  0.0535
  136OSM   H17G14768   3.765   1.569   5.955  1.6085  0.4848  0.8245
  136OSM   C18F14769   3.872   1.384   5.961 -0.1666 -0.5375  0.8695
  136OSM   H18F14770   3.925   1.395   5.863 -3.3987 -1.8420 -1.1861
  136OSM   H18G14771   3.853   1.274   5.965  0.9898 -0.9358 -1.9228
  136OSM   H18H14772   3.945   1.411   6.040 -0.1944  0.5187  0.5509
  137OSM      N14773   4.996   4.850   3.204 -0.0014 -0.5720  0.2551
  137OSM    C1514774   4.917   4.956   3.134  0.0469 -0.0016 -0.3466
  137OSM   H15A14775   4.818   4.975   3.173 -1.3100 -0.3447 -3.3784
  137OSM   H15B14776   4.897   4.934   3.031  0.7990 -2.6759  0.0071
  137OSM   H15C14777   4.978   5.046   3.126  1.5947 -0.9134  0.5533
  137OSM    C1414778   4.947   4.711   3.166  0.0249 -0.2636  0.0469
  137OSM   H14A14779   5.012   4.641   3.217  0.3565 -0.3935 -0.5461
  137OSM   H14B14780   4.925   4.703   3.060 -1.7556  0.2618  0.3311
  137OSM   H14C14781   4.847   4.691   3.203 -0.4551 -0.1945 -1.1656
  137OSM    C1314782   5.138   4.858   3.153  0.5826 -0.4132 -0.1933
  137OSM   H13A14783   5.134   4.850   3.045 -1.7809 -0.8095 -0.1269
  137OSM   H13B14784   5.205   4.784   3.195  1.9377  1.1713  0.5690
  137OSM   H13C14785   5.179   4.954   3.178 -2.6610  1.5379 -1.7322
  137OSM    C1214786   4.989   4.869   3.352  0.3930  0.5288 -0.0368
  137OSM   H12A14787   4.885   4.871   3.381  1.1506  0.9827  3.0085
  137OSM   H12B14788   5.019   4.969   3.379 -1.6331  1.1592  0.0289
  137OSM    C1114789   5.048   4.768   3.448  0.2355  0.2642  0.8086
  137OSM   H11A14790   5.008   4.667   3.428  0.4057  0.1245  1.1624
  137OSM   H11B14791   5.021   4.792   3.553 -0.6528  1.1604  0.3901
  137OSM      P14792   5.297   4.857   3.517 -0.1531  0.4547 -0.1821
  137OSM    O1314793   5.428   4.789   3.491  0.5021  0.0461 -0.2309
  137OSM    O1414794   5.288   5.002   3.489  0.0903  0.5933  0.3264
  137OSM    O1114795   5.258   4.830   3.659  0.3966  0.5598  0.3832
  137OSM    O1214796   5.187   4.771   3.440 -0.9350  0.3215  0.2882
  137OSM    C1S14797   5.236   4.692   3.698  0.9686 -0.1255  0.2936
  137OSM    H1S14798   5.325   4.624   3.698  1.0756 -0.0005 -0.6637
  137OSM    H1T14799   5.152   4.644   3.644  1.1797  0.0291 -0.1820
  137OSM     NF14800   5.198   4.540   3.905 -0.5466  0.3460  0.1860
  137OSM    HNF14801   5.119   4.481   3.885 -0.6434  0.5805 -0.1384
  137OSM    C2S14802   5.191   4.679   3.852  0.1317 -0.0609  0.0652
  137OSM    H2S14803   5.266   4.745   3.899  0.1226 -0.6816  0.9777
  137OSM    C3S14804   5.047   4.739   3.856  0.2242 -0.5563  0.0790
  137OSM    H3S14805   4.966   4.687   3.800 -0.1629 -0.8892  0.9323
  137OSM     O314806   5.037   4.872   3.807  0.4580 -0.2912  0.5839
  137OSM    HO314807   5.105   4.875   3.739  0.4443 -0.0651  0.5798
  137OSM    C4S14808   5.002   4.734   4.005  0.6136  0.2445  0.0028
  137OSM    H4S14809   5.085   4.751   4.074  1.7793 -0.8326 -1.0795
  137OSM    C5S14810   4.891   4.694   4.066 -0.0120 -0.1471 -0.6105
  137OSM    H5S14811   4.800   4.660   4.015 -0.5652  0.6685 -0.1898
  137OSM    C6S14812   4.868   4.686   4.213 -0.1614 -0.4835 -0.4364
  137OSM    H6S14813   4.851   4.577   4.229  0.4966 -0.4788  0.3709
  137OSM    H6T14814   4.772   4.735   4.238  0.7935  0.7898  0.8876
  137OSM    C7S14815   4.974   4.736   4.317 -0.4124 -0.9793  0.0410
  137OSM    H7S14816   4.971   4.847   4.315 -1.1970 -1.0123 -1.9451
  137OSM    H7T14817   5.077   4.697   4.303  0.1430 -0.0646  1.3032
  137OSM    C8S14818   4.939   4.693   4.456  0.3475  0.1859 -0.1122
  137OSM    H8S14819   4.932   4.582   4.465 -0.1304  0.3991  3.0438
  137OSM    H8T14820   4.838   4.732   4.476 -0.1676 -0.1913 -1.8251
  137OSM    C9S14821   5.038   4.753   4.567  0.6426 -0.2349 -0.1814
  137OSM    H9S14822   5.042   4.863   4.554 -1.1502  0.2836  2.7276
  137OSM    H9T14823   5.137   4.710   4.540 -0.1675 -2.0279 -0.4700
  137OSM   C10S14824   4.993   4.728   4.708  0.9127  0.2009 -0.2865
  137OSM   H10S14825   4.993   4.617   4.719 -0.4145  0.3693  2.2684
  137OSM   H10T14826   4.895   4.772   4.734  0.8795 -1.1739  2.3208
  137OSM   C11S14827   5.099   4.775   4.818 -0.4681  0.5780  0.0066
  137OSM   H11S14828   5.118   4.881   4.792 -0.0474  0.6856  0.7472
  137OSM   H11T14829   5.193   4.721   4.791 -1.0073 -1.0526  1.1872
  137OSM   C12S14830   5.059   4.729   4.955 -0.2006 -0.4721 -0.5128
  137OSM   H12S14831   5.066   4.620   4.972 -1.4690 -0.2933  1.5679
  137OSM   H12T14832   4.951   4.751   4.971  0.1909  1.5239 -0.3366
  137OSM   C13S14833   5.142   4.805   5.058 -0.3668 -0.1512  0.2069
  137OSM   H13S14834   5.088   4.804   5.156 -0.6642 -2.1863  0.0628
  137OSM   H13T14835   5.153   4.914   5.037  1.0961  0.1107  2.0254
  137OSM   C14S14836   5.287   4.756   5.073 -0.0651 -0.0736 -0.0912
  137OSM   H14S14837   5.331   4.744   4.972 -0.9905 -0.1663 -0.4978
  137OSM   H14T14838   5.273   4.661   5.129 -0.9249 -0.5741 -1.1019
  137OSM   C15S14839   5.377   4.847   5.158  0.1292  0.5214 -0.2697
  137OSM   H15S14840   5.319   4.890   5.243 -2.4422  1.4462 -2.3571
  137OSM   H15T14841   5.402   4.934   5.093 -1.0351  0.5661 -0.6854
  137OSM   C16S14842   5.506   4.776   5.215  0.4877  0.3574 -0.4011
  137OSM   H16S14843   5.572   4.740   5.133 -0.2710  0.9033 -1.2853
  137OSM   H16T14844   5.470   4.690   5.276  0.9667  0.5819  0.2036
  137OSM   C17S14845   5.602   4.864   5.305  0.2658 -0.0512 -0.4517
  137OSM   H17S14846   5.544   4.899   5.393 -0.7927  0.0304 -1.1712
  137OSM   H17T14847   5.623   4.951   5.239 -0.6705  0.0161 -0.6633
  137OSM   C18S14848   5.744   4.805   5.349  0.5375 -0.1576 -0.4344
  137OSM   H18S14849   5.787   4.875   5.423 -1.2476  1.0808 -0.4877
  137OSM   H18T14850   5.815   4.804   5.263  1.9674  1.4849  0.6498
  137OSM   H18U14851   5.724   4.705   5.391 -1.6930  1.3243  2.4204
  137OSM    C1F14852   5.308   4.476   3.943 -0.0926 -0.8271  0.0137
  137OSM     OF14853   5.418   4.520   3.915 -0.5056  0.5605  0.2573
  137OSM    C2F14854   5.279   4.350   4.016  0.3285 -0.3634  0.3651
  137OSM    H2F14855   5.366   4.282   4.020 -0.3201 -1.3136 -0.8759
  137OSM    H2G14856   5.196   4.296   3.964  0.5691 -0.0246 -0.3947
  137OSM    C3F14857   5.224   4.367   4.160 -0.4509  0.4320 -0.1431
  137OSM    H3F14858   5.196   4.273   4.213  2.8012 -2.0622 -2.4120
  137OSM    H3G14859   5.124   4.416   4.154 -0.7095 -0.1224 -0.5503
  137OSM    C4F14860   5.304   4.456   4.257 -0.4773 -0.1896 -0.5090
  137OSM    H4F14861   5.313   4.556   4.208 -0.0808  0.8177  1.4893
  137OSM    H4G14862   5.408   4.417   4.252  0.0741  1.1740 -0.3120
  137OSM    C5F14863   5.251   4.450   4.398 -0.0628  0.1246  0.4717
  137OSM    H5F14864   5.226   4.348   4.433 -1.4724  0.4260  0.4026
  137OSM    H5G14865   5.153   4.500   4.410 -0.6898 -1.6206  3.8970
  137OSM    C6F14866   5.354   4.493   4.503  0.2357 -0.2380  0.0936
  137OSM    H6F14867   5.287   4.522   4.587  0.4678  1.7336 -0.3577
  137OSM    H6G14868   5.403   4.585   4.464 -1.2319  0.1142 -1.0245
  137OSM    C7F14869   5.457   4.388   4.541  0.4322 -0.5397 -0.7606
  137OSM    H7F14870   5.505   4.349   4.449  0.2092 -0.9454 -0.7059
  137OSM    H7G14871   5.423   4.297   4.595  0.8014  0.7954  1.9434
  137OSM    C8F14872   5.570   4.440   4.632  0.0950 -0.4698 -0.9192
  137OSM    H8F14873   5.624   4.515   4.570 -0.2612  1.7100  1.2640
  137OSM    H8G14874   5.648   4.363   4.653  0.6686 -0.5747 -3.1655
  137OSM    C9F14875   5.526   4.528   4.742 -0.1824 -0.6926  0.2573
  137OSM    H9F14876   5.522   4.634   4.716  0.7557 -0.1328  2.2381
  137OSM   C10F14877   5.485   4.492   4.868  0.1421 -0.1366  0.9061
  137OSM   H10F14878   5.451   4.570   4.939 -1.2238  0.1108  0.0133
  137OSM   C11F14879   5.490   4.351   4.930  0.1660 -0.0233  0.8328
  137OSM   H11F14880   5.534   4.273   4.863 -0.5263  0.0435  0.2919
  137OSM   H11G14881   5.386   4.317   4.945  0.5645 -1.0132  1.4837
  137OSM   C12F14882   5.569   4.343   5.052  0.3731  0.2877 -0.1138
  137OSM   H12F14883   5.535   4.248   5.098 -0.0209  1.1101  1.3729
  137OSM   H12G14884   5.551   4.427   5.123  0.2979  1.1586 -1.1386
  137OSM   C13F14885   5.725   4.333   5.028 -0.3560 -0.2132  0.0680
  137OSM   H13F14886   5.760   4.424   4.975 -0.1274 -1.3824 -1.8821
  137OSM   H13G14887   5.746   4.246   4.961 -0.9939 -1.3728  1.3204
  137OSM   C14F14888   5.813   4.341   5.155 -0.2861  0.9727  0.0937
  137OSM   H14F14889   5.780   4.420   5.226 -1.6774 -2.1434  3.1593
  137OSM   H14G14890   5.918   4.354   5.121 -0.4144  0.7538 -0.4039
  137OSM   C15F14891   5.817   4.193   5.222  0.3039 -0.9513 -0.8140
  137OSM   H15F14892   5.865   4.121   5.152  3.2426  0.6024 -0.5539
  137OSM   H15G14893   5.713   4.155   5.226  0.0065 -0.3396 -2.1234
  137OSM   C16F14894   5.887   4.203   5.360  0.0704 -0.2258 -0.0230
  137OSM   H16F14895   5.846   4.296   5.403 -1.7415 -0.3962 -1.3114
  137OSM   H16G14896   5.993   4.207   5.327  0.0518 -2.4042 -0.5502
  137OSM   C17F14897   5.848   4.077   5.446  0.4262  0.3574  0.2420
  137OSM   H17F14898   5.884   3.995   5.381 -1.3495  0.5546 -1.0720
  137OSM   H17G14899   5.738   4.074   5.462  0.2773  1.1554 -0.5774
  137OSM   C18F14900   5.917   4.087   5.578 -0.0465 -0.2613 -0.8936
  137OSM   H18F14901   6.026   4.107   5.569  0.0163  1.7077  2.5944
  137OSM   H18G14902   5.907   3.988   5.628 -1.1611  0.5539  0.5861
  137OSM   H18H14903   5.891   4.171   5.646 -1.1264 -0.0918 -1.4882
  138OSM      N14904   0.167   0.592   3.467  0.5851 -0.7814 -0.0916
  138OSM    C1514905   0.169   0.462   3.406 -0.5186  0.5809 -0.1843
  138OSM   H15A14906   0.219   0.392   3.471  1.5508  2.5303  0.4399
  138OSM   H15B14907   0.213   0.461   3.307  0.4106 -2.2922  0.1645
  138OSM   H15C14908   0.072   0.415   3.399  1.0599 -2.9519 -0.6919
  138OSM    C1414909   0.304   0.629   3.510  0.2936  0.0553 -0.1781
  138OSM   H14A14910   0.340   0.550   3.574 -1.7449 -2.2961 -1.7828
  138OSM   H14B14911   0.293   0.726   3.556 -1.1983  0.4705 -1.3534
  138OSM   H14C14912   0.378   0.644   3.432  1.2846 -0.9560  0.5265
  138OSM    C1314913   0.118   0.691   3.370  0.3549  0.0272 -0.6628
  138OSM   H13A14914   0.133   0.794   3.397 -3.2589  0.5226  0.0228
  138OSM   H13B14915   0.013   0.673   3.348  0.8803 -1.9498 -1.8198
  138OSM   H13C14916   0.158   0.660   3.275 -0.3428  1.6596 -1.5239
  138OSM    C1214917   0.068   0.585   3.583  0.0043 -0.3755 -0.2576
  138OSM   H12A14918  -0.031   0.571   3.544 -0.0060  0.2074 -0.4591
  138OSM   H12B14919   0.069   0.677   3.640  2.2431 -0.7722  0.4408
  138OSM    C1114920   0.082   0.477   3.697 -0.0696  0.4471 -0.4406
  138OSM   H11A14921  -0.006   0.497   3.763 -0.5600  1.1836 -1.3032
  138OSM   H11B14922   0.174   0.493   3.757 -0.5951 -0.4112  0.6233
  138OSM      P14923  -0.022   0.234   3.658  0.0242 -0.0991  0.2687
  138OSM    O1314924  -0.146   0.245   3.574  0.2419  0.5527 -0.0369
  138OSM    O1414925   0.052   0.104   3.648  0.1327  0.4036 -0.7142
  138OSM    O1114926  -0.065   0.248   3.806  0.2536 -0.2158 -0.0262
  138OSM    O1214927   0.092   0.342   3.642 -0.0220 -0.1997  0.4982
  138OSM    C1S14928   0.035   0.245   3.910  0.8699 -0.4851 -0.1326
  138OSM    H1S14929   0.129   0.293   3.874  1.6019  1.2553  3.5524
  138OSM    H1T14930   0.048   0.139   3.940 -0.2506 -0.2940  1.0958
  138OSM     NF14931   0.102   0.328   4.141  0.0966 -0.1922  0.4948
  138OSM    HNF14932   0.094   0.253   4.206 -1.8807  1.3154  2.1199
  138OSM    C2S14933  -0.004   0.322   4.039 -0.6215 -0.4863  0.4284
  138OSM    H2S14934  -0.028   0.428   4.018  2.0921  0.2221  0.5061
  138OSM    C3S14935  -0.141   0.267   4.093 -0.3787 -0.4044 -0.3899
  138OSM    H3S14936  -0.127   0.156   4.096 -0.9428 -0.4603  0.2453
  138OSM     O314937  -0.243   0.281   3.993  0.0139 -0.7174 -0.1437
  138OSM    HO314938  -0.195   0.273   3.910  2.1950 -0.6403  1.0430
  138OSM    C4S14939  -0.174   0.319   4.228 -0.0637 -0.1381 -0.0169
  138OSM    H4S14940  -0.148   0.260   4.317  2.6508 -2.4519 -2.1341
  138OSM    C5S14941  -0.234   0.438   4.252  0.6677  0.1582  0.6066
  138OSM    H5S14942  -0.256   0.499   4.163 -0.1554 -2.7002 -1.2826
  138OSM    C6S14943  -0.280   0.482   4.388  0.7574 -0.8333  0.2641
  138OSM    H6S14944  -0.390   0.473   4.390  0.5002  1.2387 -1.4317
  138OSM    H6T14945  -0.253   0.588   4.403 -0.6277 -0.2855 -0.8928
  138OSM    C7S14946  -0.227   0.415   4.518 -0.1204  0.8316  0.2011
  138OSM    H7S14947  -0.116   0.419   4.527  0.3874 -3.4720 -1.6042
  138OSM    H7T14948  -0.248   0.306   4.516  1.3318  0.5194  0.5318
  138OSM    C8S14949  -0.285   0.478   4.649 -0.1679  0.9959  0.6847
  138OSM    H8S14950  -0.394   0.453   4.650  0.1290 -0.6456 -1.3814
  138OSM    H8T14951  -0.289   0.588   4.655 -2.7041  1.0090  0.0843
  138OSM    C9S14952  -0.239   0.422   4.789  0.0555 -0.1266  0.0984
  138OSM    H9S14953  -0.245   0.311   4.798  0.9295 -0.0837  1.5273
  138OSM    H9T14954  -0.307   0.466   4.865  0.5025 -2.3405  1.9065
  138OSM   C10S14955  -0.094   0.469   4.823  0.5419  0.1154 -0.4535
  138OSM   H10S14956  -0.082   0.579   4.812  1.5727 -0.0229 -0.8186
  138OSM   H10T14957  -0.036   0.441   4.733  0.2753  2.3038 -1.3640
  138OSM   C11S14958  -0.039   0.419   4.956  0.0760  0.8250  0.0790
  138OSM   H11S14959   0.071   0.428   4.953  0.3936 -2.2027  0.0300
  138OSM   H11T14960  -0.065   0.311   4.962 -2.4252  1.4196  1.6864
  138OSM   C12S14961  -0.093   0.490   5.080 -0.5215  0.4198  0.5839
  138OSM   H12S14962  -0.195   0.452   5.098 -1.3210  2.9002  1.6256
  138OSM   H12T14963  -0.100   0.599   5.063 -0.9972  0.2628 -0.2841
  138OSM   C13S14964   0.008   0.457   5.197 -0.0562  0.2168 -0.8868
  138OSM   H13S14965   0.022   0.557   5.243 -0.4762 -0.4294  0.7092
  138OSM   H13T14966   0.106   0.430   5.152 -0.5178 -1.1910 -1.0940
  138OSM   C14S14967  -0.046   0.355   5.293  0.3502 -0.4553 -0.0932
  138OSM   H14S14968  -0.061   0.261   5.235  1.7196  0.4858 -2.0738
  138OSM   H14T14969  -0.145   0.391   5.329  1.3758  0.8561  1.5180
  138OSM   C15S14970   0.032   0.340   5.420  0.6834  0.2464  0.3435
  138OSM   H15S14971  -0.018   0.379   5.511 -1.7163  1.6994 -1.4710
  138OSM   H15T14972   0.118   0.411   5.419 -2.0602  3.8775 -0.9671
  138OSM   C16S14973   0.076   0.194   5.439 -0.2242  0.0393  0.4294
  138OSM   H16S14974   0.134   0.157   5.352 -2.2033 -1.4591 -0.3324
  138OSM   H16T14975  -0.019   0.143   5.464  0.0482 -0.4084  0.5557
  138OSM   C17S14976   0.167   0.173   5.559  0.5649 -0.1111 -1.0940
  138OSM   H17S14977   0.115   0.186   5.656  3.4149  2.3702  0.2391
  138OSM   H17T14978   0.249   0.247   5.552  1.8564 -1.4832 -0.8081
  138OSM   C18S14979   0.220   0.029   5.558  0.5682  1.0914  0.5140
  138OSM   H18S14980   0.293   0.000   5.479 -0.6532  0.0781 -0.2837
  138OSM   H18T14981   0.143  -0.050   5.545  0.6680  0.4250  3.4247
  138OSM   H18U14982   0.278  -0.001   5.648  1.6896  0.4466 -0.3915
  138OSM    C1F14983   0.217   0.398   4.128 -1.0798 -0.0364 -0.5892
  138OSM     OF14984   0.236   0.491   4.044  0.2442 -0.2365 -0.4151
  138OSM    C2F14985   0.325   0.362   4.224  0.0345 -0.2904  0.2832
  138OSM    H2F14986   0.427   0.398   4.203  1.0796 -2.7148  0.7953
  138OSM    H2G14987   0.335   0.251   4.226 -0.3130 -0.3366 -0.3053
  138OSM    C3F14988   0.282   0.414   4.362  0.5914  0.6602  0.2349
  138OSM    H3F14989   0.189   0.365   4.397  0.8893  2.3515  3.8699
  138OSM    H3G14990   0.272   0.524   4.348 -2.5232  0.3903 -0.3945
  138OSM    C4F14991   0.395   0.399   4.474  0.4801 -0.4478 -0.1643
  138OSM    H4F14992   0.486   0.444   4.429  2.9770 -4.1376  0.7893
  138OSM    H4G14993   0.412   0.292   4.494  0.3072 -0.8561 -1.9737
  138OSM    C5F14994   0.347   0.462   4.598  0.0865  0.1105  0.4615
  138OSM    H5F14995   0.254   0.408   4.628 -0.1813  0.2709 -0.0533
  138OSM    H5G14996   0.336   0.572   4.587 -0.3285  0.0212 -0.0792
  138OSM    C6F14997   0.448   0.445   4.708 -0.2030  0.1194 -0.3416
  138OSM    H6F14998   0.542   0.497   4.681  1.0584 -1.4422  0.8365
  138OSM    H6G14999   0.478   0.339   4.716 -1.8378 -0.2635  1.2125
  138OSM    C7F15000   0.400   0.485   4.843 -0.3065  0.2970 -0.0690
  138OSM    H7F15001   0.309   0.425   4.863 -0.4097  0.7524  0.8541
  138OSM    H7G15002   0.373   0.593   4.843 -0.3263  0.3093 -1.4168
  138OSM    C8F15003   0.498   0.452   4.956 -0.1286 -0.5191  0.4393
  138OSM    H8F15004   0.589   0.510   4.931 -1.1487  0.4349 -1.2515
  138OSM    H8G15005   0.527   0.346   4.940 -2.5504 -0.9111 -2.1138
  138OSM    C9F15006   0.441   0.478   5.094  0.2721 -0.6306  0.0501
  138OSM    H9F15007   0.425   0.582   5.124 -1.6911 -0.8405 -0.1279
  138OSM   C10F15008   0.404   0.382   5.179  0.3429  1.0127 -0.6864
  138OSM   H10F15009   0.370   0.396   5.282 -0.2745  0.2397 -0.7749
  138OSM   C11F15010   0.411   0.233   5.159  0.2595  0.2809 -0.3664
  138OSM   H11F15011   0.427   0.205   5.053 -2.1159  0.2738 -0.7727
  138OSM   H11G15012   0.319   0.177   5.187  1.0335 -0.5230  0.6500
  138OSM   C12F15013   0.536   0.176   5.228  0.0963 -0.2383 -0.3432
  138OSM   H12F15014   0.631   0.201   5.176 -0.4808  1.8165 -0.5045
  138OSM   H12G15015   0.526   0.065   5.218 -0.4916 -0.2838  0.6974
  138OSM   C13F15016   0.554   0.216   5.377  0.1486  0.4356  0.5369
  138OSM   H13F15017   0.454   0.189   5.418 -0.0755  0.2719 -0.0979
  138OSM   H13G15018   0.567   0.324   5.397 -1.4127  1.0453 -1.4636
  138OSM   C14F15019   0.662   0.134   5.448 -0.2793  0.3545 -0.7112
  138OSM   H14F15020   0.756   0.186   5.421  1.4709 -1.7216  1.0115
  138OSM   H14G15021   0.664   0.029   5.411 -0.6719  0.0532  0.0885
  138OSM   C15F15022   0.646   0.150   5.603 -0.0132  0.4216  0.4758
  138OSM   H15F15023   0.601   0.249   5.623 -0.6786  0.3383 -0.5233
  138OSM   H15G15024   0.745   0.145   5.654 -0.3140 -1.9693  0.9753
  138OSM   C16F15025   0.573   0.029   5.673  0.2056  0.1039  0.0673
  138OSM   H16F15026   0.645  -0.054   5.685  1.2947  0.6594 -2.2754
  138OSM   H16G15027   0.479  -0.006   5.624 -1.1787 -0.0525  2.6453
  138OSM   C17F15028   0.529   0.073   5.808  0.1463 -0.3308  0.2269
  138OSM   H17F15029   0.448   0.150   5.803  0.9600  0.4503 -2.2543
  138OSM   H17G15030   0.608   0.123   5.868 -2.0870  2.1987  1.2959
  138OSM   C18F15031   0.476  -0.046   5.884 -0.3027 -0.4967  0.9059
  138OSM   H18F15032   0.546  -0.132   5.874 -2.5393 -2.2218 -1.2980
  138OSM   H18G15033   0.382  -0.080   5.834  0.5466 -0.0784 -1.0996
  138OSM   H18H15034   0.458  -0.036   5.993  0.3602 -1.1466  1.0819
  139OSM      N15035   1.216   4.580   4.114 -0.7936 -0.0885  0.4296
  139OSM    C1515036   1.174   4.653   4.235  0.2294  0.8318 -0.8522
  139OSM   H15A15037   1.248   4.722   4.273 -1.2106  0.7767  2.3923
  139OSM   H15B15038   1.150   4.582   4.312  0.6502  0.5572 -0.9715
  139OSM   H15C15039   1.084   4.710   4.215 -1.2773 -1.6976 -1.8498
  139OSM    C1415040   1.207   4.688   4.007  0.1548 -0.0175 -0.0402
  139OSM   H14A15041   1.107   4.726   3.997  0.2867 -0.0240 -1.6000
  139OSM   H14B15042   1.250   4.664   3.911  1.4522  0.9560  0.2646
  139OSM   H14C15043   1.269   4.771   4.040 -1.2562  1.1705 -0.2725
  139OSM    C1315044   1.347   4.525   4.128  0.3627 -0.2561  0.0847
  139OSM   H13A15045   1.419   4.601   4.154 -0.5410 -0.1751  2.7536
  139OSM   H13B15046   1.393   4.481   4.041 -0.2213  0.1970 -0.4633
  139OSM   H13C15047   1.357   4.450   4.206  0.9295  0.4700  0.7254
  139OSM    C1215048   1.125   4.468   4.081 -0.4634  0.0583  0.0042
  139OSM   H12A15049   1.023   4.505   4.079 -0.4269  0.1539 -0.1376
  139OSM   H12B15050   1.140   4.399   4.162  2.2874  0.0445 -0.4234
  139OSM    C1115051   1.158   4.390   3.951 -0.0229 -0.4241 -1.0330
  139OSM   H11A15052   1.146   4.457   3.863 -1.3637 -0.9525 -1.2783
  139OSM   H11B15053   1.071   4.322   3.944 -0.4944  0.0052  0.2728
  139OSM      P15054   1.328   4.177   3.930  0.2530 -0.3386 -0.4345
  139OSM    O1315055   1.305   4.140   3.789 -0.2640 -0.0581 -0.1216
  139OSM    O1415056   1.462   4.164   3.988 -0.0002 -0.3471  0.0617
  139OSM    O1115057   1.222   4.093   4.012  0.3438 -0.0310 -0.5169
  139OSM    O1215058   1.281   4.328   3.949  0.2974 -0.1229 -0.8722
  139OSM    C1S15059   1.214   4.081   4.156 -0.0441 -0.0512  0.1825
  139OSM    H1S15060   1.269   4.167   4.199  0.0640 -0.1731  0.2902
  139OSM    H1T15061   1.261   3.990   4.200 -1.7933 -0.9417  0.2914
  139OSM     NF15062   1.065   4.085   4.355 -0.3545 -0.5535  0.2514
  139OSM    HNF15063   1.027   4.003   4.398  2.5150 -2.1425  0.0598
  139OSM    C2S15064   1.068   4.084   4.209 -0.4430  0.4584 -0.2088
  139OSM    H2S15065   1.030   4.182   4.173 -1.6678 -1.0699 -3.3594
  139OSM    C3S15066   0.979   3.982   4.133  0.6311  0.1034 -0.6545
  139OSM    H3S15067   1.034   3.887   4.152 -0.3057  0.0427  2.0383
  139OSM     O315068   0.965   4.008   3.993  0.3105 -0.2796  0.7923
  139OSM    HO315069   1.040   4.062   3.968 -0.5278  0.3737 -0.4271
  139OSM    C4S15070   0.847   3.972   4.205 -0.3091 -0.5442  0.1518
  139OSM    H4S15071   0.844   3.887   4.274 -1.4602 -0.3722  0.3257
  139OSM    C5S15072   0.747   4.046   4.182 -0.7805  0.0049 -0.3191
  139OSM    H5S15073   0.755   4.122   4.102 -3.1397  0.3111 -0.3332
  139OSM    C6S15074   0.610   4.036   4.240  0.5427  0.4771  0.6527
  139OSM    H6S15075   0.541   4.015   4.155  1.1827 -0.1470  0.2733
  139OSM    H6T15076   0.583   4.128   4.296 -0.7741 -0.3490  1.4415
  139OSM    C7S15077   0.593   3.918   4.342 -0.1357 -0.8314 -0.6086
  139OSM    H7S15078   0.670   3.943   4.418 -1.1560  1.2928 -0.1796
  139OSM    H7T15079   0.604   3.817   4.297  1.8286 -0.1911 -1.6877
  139OSM    C8S15080   0.458   3.924   4.402 -0.1087 -0.3121  0.4586
  139OSM    H8S15081   0.386   3.864   4.342 -0.5254 -0.7640  1.3943
  139OSM    H8T15082   0.422   4.027   4.421 -0.3393 -0.6341  1.8694
  139OSM    C9S15083   0.462   3.863   4.547 -0.2124 -0.5269 -0.2738
  139OSM    H9S15084   0.529   3.924   4.610  0.8019 -1.4207 -0.4522
  139OSM    H9T15085   0.525   3.772   4.534  2.5873  1.2344  0.0779
  139OSM   C10S15086   0.321   3.834   4.611 -0.2154 -0.0338  0.2975
  139OSM   H10S15087   0.341   3.799   4.714 -1.3429  2.3275  1.3958
  139OSM   H10T15088   0.272   3.754   4.551 -2.1061 -0.7557  2.6400
  139OSM   C11S15089   0.231   3.956   4.632  0.0143  0.2674 -0.4077
  139OSM   H11S15090   0.136   3.926   4.681  0.2709  1.9284  1.2106
  139OSM   H11T15091   0.206   3.994   4.531  1.7753 -1.0747 -1.4142
  139OSM   C12S15092   0.300   4.063   4.722 -0.0351 -0.0564  0.0188
  139OSM   H12S15093   0.227   4.138   4.759  0.6061  0.2540  0.6910
  139OSM   H12T15094   0.367   4.126   4.659 -1.7354 -1.6483 -3.7335
  139OSM   C13S15095   0.364   4.011   4.854  0.1707 -0.0435  0.2244
  139OSM   H13S15096   0.447   3.939   4.835  2.2436  1.5646  2.5247
  139OSM   H13T15097   0.287   3.960   4.915 -0.1736 -1.2782 -1.1570
  139OSM   C14S15098   0.413   4.125   4.923 -0.4600 -0.6075 -0.6187
  139OSM   H14S15099   0.329   4.197   4.941 -1.2932 -1.1823 -1.9983
  139OSM   H14T15100   0.483   4.179   4.856  0.7451 -0.5079  0.6922
  139OSM   C15S15101   0.493   4.095   5.048  0.1154  0.1773 -0.3993
  139OSM   H15S15102   0.555   4.180   5.086 -2.7079  1.5947  1.4389
  139OSM   H15T15103   0.563   4.012   5.023 -0.2262 -0.1244 -0.3588
  139OSM   C16S15104   0.409   4.060   5.167 -0.0417  0.4408 -0.3661
  139OSM   H16S15105   0.346   3.973   5.136  2.2060 -0.4184 -2.9772
  139OSM   H16T15106   0.336   4.142   5.185 -0.0845  0.4930 -0.7693
  139OSM   C17S15107   0.479   4.019   5.295  0.0851  0.0222  0.6802
  139OSM   H17S15108   0.553   4.093   5.331 -0.0027  0.3046  0.2914
  139OSM   H17T15109   0.536   3.926   5.273 -0.1305 -0.5021  2.2066
  139OSM   C18S15110   0.386   3.988   5.408  0.0017  0.1633  0.4576
  139OSM   H18S15111   0.326   3.899   5.379  0.2971 -0.4304  1.6403
  139OSM   H18T15112   0.319   4.075   5.421 -0.9387 -0.4767  0.0455
  139OSM   H18U15113   0.440   3.965   5.502  2.4879  0.2838 -0.8350
  139OSM    C1F15114   1.126   4.185   4.423 -0.4449  0.0727 -0.1299
  139OSM     OF15115   1.141   4.298   4.371 -0.0065 -0.2727 -0.2848
  139OSM    C2F15116   1.153   4.160   4.565  0.6271  0.2450 -0.0425
  139OSM    H2F15117   1.235   4.086   4.573 -0.0891 -0.4676  0.8586
  139OSM    H2G15118   1.064   4.107   4.605  1.1817 -0.5386  0.1682
  139OSM    C3F15119   1.198   4.285   4.645  0.2837  0.1463  0.0462
  139OSM    H3F15120   1.122   4.366   4.649  0.4110  0.2198  3.5831
  139OSM    H3G15121   1.291   4.326   4.600 -0.3977 -0.5192 -2.0777
  139OSM    C4F15122   1.225   4.231   4.785 -0.4431 -0.0702  0.0886
  139OSM    H4F15123   1.318   4.169   4.784  0.8264  1.7234 -2.2002
  139OSM    H4G15124   1.133   4.184   4.825  1.4465 -3.7308  0.6301
  139OSM    C5F15125   1.260   4.336   4.890  0.5796 -0.1386 -0.0711
  139OSM    H5F15126   1.175   4.403   4.916 -0.7561 -1.1936 -1.6132
  139OSM    H5G15127   1.342   4.402   4.852  0.3791  0.1738  0.0330
  139OSM    C6F15128   1.322   4.269   5.018 -0.1651  0.0129  0.2590
  139OSM    H6F15129   1.247   4.201   5.063 -0.1909  0.1789  0.4721
  139OSM    H6G15130   1.349   4.348   5.091  1.0926 -0.6931  0.5902
  139OSM    C7F15131   1.459   4.200   4.994 -0.2107 -0.1750  0.5622
  139OSM    H7F15132   1.518   4.269   4.931  1.2354  0.5600  2.6097
  139OSM    H7G15133   1.446   4.105   4.938  0.4640  0.0696 -0.0207
  139OSM    C8F15134   1.536   4.166   5.121  0.1090  0.4182  0.0343
  139OSM    H8F15135   1.540   4.258   5.183 -0.5025  1.7824 -1.8776
  139OSM    H8G15136   1.638   4.129   5.096 -0.7687 -1.3498 -1.1383
  139OSM    C9F15137   1.458   4.057   5.199  0.6425  0.4443 -0.1624
  139OSM    H9F15138   1.420   3.972   5.141  1.1134  0.2495 -0.1889
  139OSM   C10F15139   1.413   4.073   5.326 -0.6293  0.1077  0.5853
  139OSM   H10F15140   1.361   3.990   5.376 -1.2329  0.4653  0.5617
  139OSM   C11F15141   1.438   4.183   5.425  0.4044 -0.2171  0.0949
  139OSM   H11F15142   1.373   4.169   5.514 -1.0407  0.2388 -0.8556
  139OSM   H11G15143   1.413   4.283   5.384  0.6206  0.3327  1.2584
  139OSM   C12F15144   1.584   4.192   5.467 -0.0510 -0.0115  0.4329
  139OSM   H12F15145   1.646   4.214   5.378 -1.2949 -0.0504 -0.4818
  139OSM   H12G15146   1.616   4.097   5.516  2.7013  0.0075 -1.1293
  139OSM   C13F15147   1.610   4.289   5.573 -1.2037 -0.1943 -0.7002
  139OSM   H13F15148   1.569   4.389   5.547 -2.8150 -0.5400  0.3431
  139OSM   H13G15149   1.720   4.301   5.585 -0.8935 -2.0741 -1.2372
  139OSM   C14F15150   1.552   4.259   5.715 -0.1906  0.5678  0.1986
  139OSM   H14F15151   1.590   4.157   5.738  0.7957  0.7241 -0.6537
  139OSM   H14G15152   1.441   4.264   5.716 -0.1762  1.8163 -0.9792
  139OSM   C15F15153   1.616   4.348   5.822  0.1622 -0.3627 -1.0704
  139OSM   H15F15154   1.573   4.320   5.920  0.3868  0.5143 -0.7117
  139OSM   H15G15155   1.583   4.454   5.813  0.5143 -0.1565 -0.0437
  139OSM   C16F15156   1.768   4.336   5.825 -0.4431  0.2680  0.3052
  139OSM   H16F15157   1.825   4.377   5.738 -1.7519 -2.1916 -1.8503
  139OSM   H16G15158   1.807   4.232   5.827  0.6827  0.5309 -2.3817
  139OSM   C17F15159   1.830   4.379   5.956  0.0100 -1.1573  0.0596
  139OSM   H17F15160   1.797   4.313   6.039  3.0248 -0.9560  1.5461
  139OSM   H17G15161   1.795   4.482   5.980 -0.9998 -2.0328  2.6965
  139OSM   C18F15162   1.985   4.374   5.958 -0.3164  0.4855 -0.6597
  139OSM   H18F15163   2.028   4.454   6.022 -2.7130  1.3645 -0.0258
  139OSM   H18G15164   2.021   4.401   5.856 -0.2048  1.8733 -0.2850
  139OSM   H18H15165   2.016   4.273   5.992 -0.8285  0.8678  1.0236
  140OSM      N15166   0.049   1.350   3.540 -0.1749  0.2641 -0.3668
  140OSM    C1515167  -0.079   1.279   3.537 -0.0986 -0.7336 -0.4209
  140OSM   H15A15168  -0.134   1.310   3.450 -0.7840 -2.5172 -0.6616
  140OSM   H15B15169  -0.137   1.313   3.622  1.1926 -0.3126  0.3228
  140OSM   H15C15170  -0.077   1.171   3.540  0.2656 -0.8306 -2.5466
  140OSM    C1415171   0.134   1.301   3.434  0.6885  0.3194 -0.0017
  140OSM   H14A15172   0.236   1.329   3.454  0.8461  0.5813 -1.0753
  140OSM   H14B15173   0.112   1.336   3.334  2.0040  1.7794  0.1860
  140OSM   H14C15174   0.120   1.194   3.433 -3.2736  0.6633  0.8271
  140OSM    C1315175   0.023   1.503   3.522 -0.2967 -0.0488  0.1174
  140OSM   H13A15176   0.119   1.551   3.510 -0.1556  0.1920  1.8689
  140OSM   H13B15177  -0.017   1.544   3.613  0.7666  2.3800 -0.4243
  140OSM   H13C15178  -0.028   1.524   3.430  3.2323 -1.2372 -2.3384
  140OSM    C1215179   0.110   1.335   3.677  1.0649 -0.4872 -0.8233
  140OSM   H12A15180   0.044   1.379   3.749 -0.7992 -2.8948 -0.9206
  140OSM   H12B15181   0.205   1.386   3.675  0.0232  1.5153 -1.2103
  140OSM    C1115182   0.133   1.188   3.734  0.3009  0.1484 -0.2155
  140OSM   H11A15183   0.038   1.132   3.727 -0.5051  1.3632  0.5251
  140OSM   H11B15184   0.164   1.183   3.840  1.1876 -0.0053 -0.4734
  140OSM      P15185   0.209   0.976   3.607 -0.4939 -0.3127  0.1735
  140OSM    O1315186   0.091   0.990   3.521 -0.4294  0.2417  0.5408
  140OSM    O1415187   0.335   0.923   3.549  0.5473  0.0859  0.2331
  140OSM    O1115188   0.167   0.894   3.736 -0.0337  0.2514 -0.3978
  140OSM    O1215189   0.239   1.122   3.669 -0.1913  0.8466  0.6525
  140OSM    C1S15190   0.264   0.830   3.820  0.2341 -0.2956 -0.0220
  140OSM    H1S15191   0.367   0.870   3.807  0.2526  0.4353  2.0189
  140OSM    H1T15192   0.269   0.722   3.793 -2.0007 -0.5480  0.4290
  140OSM     NF15193   0.348   0.774   4.045 -0.4319 -0.2488  0.0472
  140OSM    HNF15194   0.327   0.677   4.059  0.5055 -0.3883  0.6020
  140OSM    C2S15195   0.249   0.846   3.973  0.2327 -0.7826 -0.4419
  140OSM    H2S15196   0.263   0.955   3.991 -0.4385 -0.3748 -2.1695
  140OSM    C3S15197   0.098   0.812   4.010  1.2860  0.3219 -0.3905
  140OSM    H3S15198   0.067   0.711   3.976 -0.9022  0.4180  1.1408
  140OSM     O315199  -0.002   0.897   3.957  0.1469  0.0492 -0.1360
  140OSM    HO315200   0.045   0.934   3.881  0.0895  0.2322 -0.0825
  140OSM    C4S15201   0.089   0.819   4.163 -0.1886  0.3155 -0.4339
  140OSM    H4S15202   0.133   0.913   4.200 -1.4300  1.0294 -0.7173
  140OSM    C5S15203   0.031   0.731   4.246  0.5874  0.3813 -0.2914
  140OSM    H5S15204  -0.020   0.654   4.187 -1.0209 -0.2206  1.7620
  140OSM    C6S15205   0.003   0.738   4.392  0.4590 -0.2778  0.2929
  140OSM    H6S15206  -0.030   0.636   4.421 -1.6217  0.2710  0.0353
  140OSM    H6T15207  -0.087   0.803   4.403  0.5824 -0.0758  0.1063
  140OSM    C7S15208   0.110   0.784   4.499 -0.0321  0.1904 -0.2059
  140OSM    H7S15209   0.141   0.884   4.463  1.2745 -1.0544 -2.7710
  140OSM    H7T15210   0.198   0.719   4.481  0.2168  0.1602  1.0444
  140OSM    C8S15211   0.059   0.785   4.646 -0.2703 -0.0829 -0.2668
  140OSM    H8S15212   0.046   0.679   4.675  2.0073 -0.6854 -1.1968
  140OSM    H8T15213  -0.037   0.840   4.655 -0.2571 -0.0896 -0.0762
  140OSM    C9S15214   0.156   0.840   4.748  0.3341 -0.2649 -0.4535
  140OSM    H9S15215   0.174   0.950   4.741  0.4681 -0.2466  0.1330
  140OSM    H9T15216   0.252   0.789   4.726  0.1907 -1.5227  1.5845
  140OSM   C10S15217   0.114   0.803   4.890  0.3431 -0.4276  0.4208
  140OSM   H10S15218   0.091   0.695   4.904 -0.4403 -0.6174 -1.9082
  140OSM   H10T15219   0.011   0.839   4.912  0.1980 -1.0296  0.7487
  140OSM   C11S15220   0.212   0.857   4.993 -0.1663  0.3798  0.0633
  140OSM   H11S15221   0.251   0.956   4.960  0.5163  0.8619  2.1991
  140OSM   H11T15222   0.304   0.795   4.996 -1.6364 -1.9725 -1.1206
  140OSM   C12S15223   0.151   0.853   5.134 -0.0322 -0.0468 -0.5349
  140OSM   H12S15224   0.111   0.750   5.136  0.6941 -0.3340  1.1625
  140OSM   H12T15225   0.072   0.931   5.130  0.9046  0.9569 -0.3458
  140OSM   C13S15226   0.265   0.878   5.241  0.3967  0.2994  0.0898
  140OSM   H13S15227   0.283   0.988   5.237 -0.1687  0.3713 -0.4394
  140OSM   H13T15228   0.361   0.832   5.208  0.2043  0.8466 -1.2506
  140OSM   C14S15229   0.230   0.834   5.385 -0.2401 -0.2034  0.0866
  140OSM   H14S15230   0.252   0.725   5.383 -0.1592 -0.1863 -1.2834
  140OSM   H14T15231   0.130   0.854   5.429 -0.0037 -4.7562  3.4079
  140OSM   C15S15232   0.330   0.902   5.484 -0.2372  1.2576  0.2853
  140OSM   H15S15233   0.331   1.013   5.490  1.2488  1.2846  0.0051
  140OSM   H15T15234   0.435   0.879   5.455 -0.8641 -0.4672 -0.7862
  140OSM   C16S15235   0.301   0.854   5.626 -0.1995 -0.3186 -0.3452
  140OSM   H16S15236   0.320   0.746   5.639  2.4175 -0.3144 -3.0565
  140OSM   H16T15237   0.197   0.882   5.651 -0.7139 -1.6443 -0.9224
  140OSM   C17S15238   0.385   0.938   5.722  0.4040 -0.0927  0.4555
  140OSM   H17S15239   0.360   1.047   5.722 -1.1732 -0.4277 -0.2133
  140OSM   H17T15240   0.495   0.944   5.704  0.4616 -0.0640  0.8003
  140OSM   C18S15241   0.366   0.909   5.864  0.2571  0.2997 -0.1235
  140OSM   H18S15242   0.453   0.945   5.922  0.4132  1.2722 -0.9421
  140OSM   H18T15243   0.356   0.799   5.881 -1.2618  0.0784 -2.0960
  140OSM   H18U15244   0.281   0.959   5.914 -0.0273  1.2914 -1.5545
  140OSM    C1F15245   0.480   0.809   4.057 -0.3224 -0.1967 -0.5165
  140OSM     OF15246   0.519   0.916   4.013 -0.4739 -0.4247  0.2656
  140OSM    C2F15247   0.566   0.712   4.127 -0.9644  0.5798  0.7342
  140OSM    H2F15248   0.656   0.693   4.065 -1.0932 -0.5948  0.8840
  140OSM    H2G15249   0.518   0.612   4.128 -0.7022  0.4295 -0.3099
  140OSM    C3F15250   0.623   0.766   4.256  0.1879 -0.3791  0.1515
  140OSM    H3F15251   0.681   0.856   4.227  1.3785 -1.4021 -0.7429
  140OSM    H3G15252   0.698   0.690   4.283  1.8220  1.0241 -0.2771
  140OSM    C4F15253   0.521   0.785   4.364 -0.1421 -0.6975  0.9210
  140OSM    H4F15254   0.499   0.680   4.393 -0.4644 -1.3281 -1.4100
  140OSM    H4G15255   0.427   0.838   4.338 -1.1633 -1.1933  3.2902
  140OSM    C5F15256   0.588   0.850   4.490 -0.7454  0.3336 -0.0599
  140OSM    H5F15257   0.627   0.951   4.465 -0.7424  0.3263 -0.0848
  140OSM    H5G15258   0.679   0.791   4.512 -1.6871 -0.9938  0.4250
  140OSM    C6F15259   0.494   0.840   4.613 -0.4956 -0.0097  0.5385
  140OSM    H6F15260   0.466   0.734   4.632 -2.5464  0.5620  1.0610
  140OSM    H6G15261   0.395   0.888   4.596 -0.0113  1.1650  0.9255
  140OSM    C7F15262   0.553   0.922   4.735 -0.4072 -0.1660 -0.5535
  140OSM    H7F15263   0.468   0.963   4.793  0.5144  0.1002  0.6443
  140OSM    H7G15264   0.612   1.007   4.695 -1.3687  0.4261 -0.7423
  140OSM    C8F15265   0.640   0.828   4.832  0.3713  0.2010  0.4654
  140OSM    H8F15266   0.713   0.764   4.778  1.2340  0.2687  1.5158
  140OSM    H8G15267   0.566   0.756   4.872  0.1289  0.3133  0.2274
  140OSM    C9F15268   0.698   0.912   4.944  0.2447 -0.2514 -0.5889
  140OSM    H9F15269   0.727   1.013   4.910 -0.0334  0.0286 -0.0104
  140OSM   C10F15270   0.751   0.872   5.065 -0.5938  0.1988  0.2092
  140OSM   H10F15271   0.776   0.942   5.146 -0.8853  0.2974  0.2146
  140OSM   C11F15272   0.749   0.725   5.106 -0.3254  0.1902 -0.3023
  140OSM   H11F15273   0.853   0.686   5.101  0.8124  3.0531 -0.8096
  140OSM   H11G15274   0.688   0.666   5.035 -0.9686 -0.2620  0.5914
  140OSM   C12F15275   0.675   0.691   5.245 -0.9822  0.1137  0.4990
  140OSM   H12F15276   0.664   0.580   5.245  1.1810 -0.1831 -1.6760
  140OSM   H12G15277   0.579   0.744   5.262 -1.4823 -0.4277 -0.5499
  140OSM   C13F15278   0.763   0.711   5.370 -0.2073 -0.3708  0.1113
  140OSM   H13F15279   0.802   0.814   5.387  2.7858 -1.4614  0.4374
  140OSM   H13G15280   0.854   0.652   5.350 -1.9559 -3.2014 -0.0302
  140OSM   C14F15281   0.684   0.664   5.494  0.6157 -0.3779  0.0185
  140OSM   H14F15282   0.669   0.556   5.472  1.2181 -0.7123  1.1661
  140OSM   H14G15283   0.580   0.700   5.499 -0.6929 -3.2211 -2.6961
  140OSM   C15F15284   0.773   0.671   5.621 -0.3341  0.0497 -0.5457
  140OSM   H15F15285   0.766   0.769   5.672 -0.3946  1.2089 -2.6665
  140OSM   H15G15286   0.881   0.662   5.594 -0.6833 -0.7466 -1.7369
  140OSM   C16F15287   0.736   0.566   5.728  0.1262  0.2721 -0.9009
  140OSM   H16F15288   0.801   0.579   5.818  2.2311 -0.7842 -2.1971
  140OSM   H16G15289   0.749   0.466   5.681  1.4080  0.8466 -1.8126
  140OSM   C17F15290   0.591   0.576   5.787  0.0334  0.6705 -0.2314
  140OSM   H17F15291   0.516   0.555   5.707  0.3718 -0.4437 -0.2821
  140OSM   H17G15292   0.568   0.677   5.826  1.1044  1.1007 -0.6709
  140OSM   C18F15293   0.567   0.470   5.892 -0.0431 -0.3609 -0.3706
  140OSM   H18F15294   0.591   0.367   5.859 -0.0752 -0.1756 -0.9940
  140OSM   H18G15295   0.459   0.472   5.920  0.0951 -2.2980  0.4078
  140OSM   H18H15296   0.621   0.503   5.983  0.3091  0.0151 -0.7084
  141OSM      N15297   2.852   6.112   3.350 -0.7314  0.4236  0.4714
  141OSM    C1515298   2.970   6.197   3.392 -0.6417 -0.9005  0.0511
  141OSM   H15A15299   3.031   6.246   3.316 -4.2217  0.9736 -1.9048
  141OSM   H15B15300   3.025   6.130   3.456 -0.6332 -4.0066 -2.9345
  141OSM   H15C15301   2.930   6.277   3.453  0.2669  0.0949 -0.6149
  141OSM    C1415302   2.747   6.198   3.284  0.1695  0.2273 -0.2215
  141OSM   H14A15303   2.791   6.252   3.202 -1.1200 -1.4667 -2.1167
  141OSM   H14B15304   2.713   6.276   3.351  1.2450  0.3726  0.1693
  141OSM   H14C15305   2.661   6.141   3.254 -0.4750  0.5250  0.9950
  141OSM    C1315306   2.897   6.022   3.242  0.4753 -0.5915 -0.4127
  141OSM   H13A15307   2.989   5.968   3.257  0.7801 -0.0089 -0.1724
  141OSM   H13B15308   2.909   6.074   3.148 -1.7788 -2.0684 -1.6266
  141OSM   H13C15309   2.816   5.952   3.229 -0.3120 -0.0241  1.1966
  141OSM    C1215310   2.801   6.031   3.472  0.0259 -0.5506 -0.2280
  141OSM   H12A15311   2.773   6.097   3.551  1.3306 -0.2007 -0.0271
  141OSM   H12B15312   2.888   5.977   3.508  0.8568  1.0124  0.2100
  141OSM    C1115313   2.686   5.924   3.445 -0.2026  0.1203  0.1641
  141OSM   H11A15314   2.705   5.862   3.355 -0.2635  1.4172 -0.7708
  141OSM   H11B15315   2.589   5.974   3.430 -0.8158 -0.8167  0.8895
  141OSM      P15316   2.774   5.722   3.579  0.1396 -0.3400  0.0279
  141OSM    O1315317   2.720   5.623   3.483  0.4820 -0.1676 -0.4671
  141OSM    O1415318   2.918   5.752   3.570 -0.5142 -0.0471  0.1340
  141OSM    O1115319   2.751   5.690   3.735  0.6369 -0.2071  0.1718
  141OSM    O1215320   2.686   5.849   3.565 -0.2660  0.2323 -0.4897
  141OSM    C1S15321   2.646   5.733   3.817  0.4910  0.0030  0.6437
  141OSM    H1S15322   2.561   5.661   3.804  0.0435  0.7977 -1.1240
  141OSM    H1T15323   2.602   5.833   3.801 -1.2119 -0.5326  1.6397
  141OSM     NF15324   2.582   5.790   4.053  0.5174 -0.0781  0.4678
  141OSM    HNF15325   2.609   5.876   4.095 -0.1766  0.1556  0.4392
  141OSM    C2S15326   2.691   5.729   3.969  0.1020 -0.4139 -0.4410
  141OSM    H2S15327   2.691   5.626   4.012  0.1583 -1.1747 -2.1725
  141OSM    C3S15328   2.837   5.787   3.981 -0.3785 -0.4208 -1.0486
  141OSM    H3S15329   2.846   5.889   3.937  1.3913  0.1283  0.4362
  141OSM     O315330   2.947   5.708   3.931  0.7845  0.1345  0.6006
  141OSM    HO315331   2.904   5.668   3.855 -1.1511  0.1396  1.6200
  141OSM    C4S15332   2.862   5.817   4.130  0.4535 -0.9152  0.8754
  141OSM    H4S15333   2.838   5.920   4.159  0.7638 -0.6411  0.1736
  141OSM    C5S15334   2.923   5.742   4.214 -0.5330 -0.3033  0.1259
  141OSM    H5S15335   2.949   5.642   4.176 -2.6712 -1.9287  2.5713
  141OSM    C6S15336   2.946   5.783   4.358 -0.2015 -1.4835  0.0807
  141OSM    H6S15337   2.888   5.876   4.379  2.0544  0.6500 -2.3755
  141OSM    H6T15338   3.052   5.813   4.371 -0.6637  1.0499 -1.3850
  141OSM    C7S15339   2.893   5.675   4.454 -0.8348  0.2784  0.4034
  141OSM    H7S15340   2.951   5.581   4.441 -0.3185  0.1211  3.2150
  141OSM    H7T15341   2.795   5.635   4.420 -0.5660 -0.9119  0.9547
  141OSM    C8S15342   2.907   5.717   4.594 -0.7750 -0.3876  0.1409
  141OSM    H8S15343   2.866   5.820   4.592  0.3709  0.1257 -3.3983
  141OSM    H8T15344   3.015   5.724   4.617 -0.8132 -0.2998  0.2984
  141OSM    C9S15345   2.853   5.623   4.696  0.0501  0.0993 -0.6747
  141OSM    H9S15346   2.903   5.524   4.687 -1.2258 -0.5601 -0.6191
  141OSM    H9T15347   2.747   5.610   4.665  0.2843 -0.1186 -1.4243
  141OSM   C10S15348   2.837   5.680   4.840  0.4260 -0.4059  0.1555
  141OSM   H10S15349   2.786   5.778   4.836  0.3476 -0.2995  2.6095
  141OSM   H10T15350   2.941   5.699   4.875  0.9470 -0.0321 -1.5116
  141OSM   C11S15351   2.765   5.596   4.944 -0.5060  0.0355 -0.0433
  141OSM   H11S15352   2.824   5.506   4.971 -1.5318 -0.1859  1.5600
  141OSM   H11T15353   2.674   5.545   4.903  1.8336 -2.6761 -2.2860
  141OSM   C12S15354   2.720   5.680   5.059  0.0506  0.1949 -0.6073
  141OSM   H12S15355   2.660   5.767   5.024  0.9818  0.1572 -2.4132
  141OSM   H12T15356   2.814   5.715   5.105  0.9885  0.1201 -2.3727
  141OSM   C13S15357   2.631   5.601   5.163  0.0480 -0.1198  0.0747
  141OSM   H13S15358   2.610   5.502   5.117 -0.4757  0.3216 -0.6677
  141OSM   H13T15359   2.539   5.663   5.174  0.3140  0.2762  0.1162
  141OSM   C14S15360   2.716   5.583   5.283  0.3566 -0.1808 -0.4443
  141OSM   H14S15361   2.748   5.680   5.325  1.9157 -1.0984  0.5882
  141OSM   H14T15362   2.812   5.535   5.253 -0.0497 -2.5138  1.6584
  141OSM   C15S15363   2.641   5.506   5.390 -0.5363 -0.0110  0.8541
  141OSM   H15S15364   2.608   5.404   5.360  1.8024 -0.7849  0.7533
  141OSM   H15T15365   2.549   5.559   5.423 -1.1609  0.8718 -1.9859
  141OSM   C16S15366   2.714   5.477   5.524 -0.3487  0.0972 -0.3077
  141OSM   H16S15367   2.802   5.413   5.502 -1.3568 -0.6823 -2.2794
  141OSM   H16T15368   2.657   5.412   5.594  0.7299  0.2518  0.7499
  141OSM   C17S15369   2.748   5.597   5.606 -0.8646 -0.0374  1.1150
  141OSM   H17S15370   2.665   5.670   5.617 -1.6987 -0.7188 -0.3711
  141OSM   H17T15371   2.832   5.647   5.552  1.3134 -1.3727  3.0642
  141OSM   C18S15372   2.799   5.553   5.740 -0.2290 -0.2981 -0.3442
  141OSM   H18S15373   2.726   5.487   5.790  1.1837 -1.8853 -0.3096
  141OSM   H18T15374   2.815   5.647   5.798 -1.7805  0.6027 -1.3048
  141OSM   H18U15375   2.899   5.506   5.733  0.2642  0.9672 -3.0873
  141OSM    C1F15376   2.457   5.744   4.066  0.5871  0.6488  0.4356
  141OSM     OF15377   2.416   5.638   4.021  0.7679  0.0502 -0.8811
  141OSM    C2F15378   2.370   5.851   4.117  0.3871 -0.5176  0.1335
  141OSM    H2F15379   2.329   5.902   4.027  3.3945 -1.1132 -1.7010
  141OSM    H2G15380   2.417   5.932   4.177  0.1932  1.5590 -2.3334
  141OSM    C3F15381   2.247   5.786   4.193  0.3439  0.4691 -0.2114
  141OSM    H3F15382   2.184   5.729   4.121  1.0435 -2.2130  1.1873
  141OSM    H3G15383   2.187   5.870   4.234 -0.9069 -0.9217  0.9161
  141OSM    C4F15384   2.283   5.701   4.312 -0.0932  0.8532 -0.7030
  141OSM    H4F15385   2.363   5.625   4.299 -0.3758  0.1329  1.3315
  141OSM    H4G15386   2.198   5.640   4.351 -0.0358  1.2069 -0.0053
  141OSM    C5F15387   2.335   5.799   4.419 -0.0785  0.6170 -0.1535
  141OSM    H5F15388   2.250   5.860   4.456  1.8637  1.6192  3.0397
  141OSM    H5G15389   2.422   5.857   4.381 -0.3156 -0.0261 -1.7704
  141OSM    C6F15390   2.390   5.733   4.552  0.4827  0.6543 -0.7751
  141OSM    H6F15391   2.485   5.680   4.531 -0.4366 -0.1348 -3.2285
  141OSM    H6G15392   2.315   5.662   4.593 -1.1354  2.1009 -1.1351
  141OSM    C7F15393   2.422   5.837   4.655  0.2316  0.2901 -0.0421
  141OSM    H7F15394   2.416   5.784   4.752 -1.3006  0.2178 -0.1442
  141OSM    H7G15395   2.345   5.917   4.655  0.2124  0.2720  0.3885
  141OSM    C8F15396   2.565   5.886   4.635  0.1379 -0.2722  0.4832
  141OSM    H8F15397   2.582   5.896   4.526 -0.7957  2.7589  0.5266
  141OSM    H8G15398   2.628   5.807   4.681  0.7190 -1.2757 -1.8933
  141OSM    C9F15399   2.598   6.022   4.697 -0.5155 -0.0961 -0.1502
  141OSM    H9F15400   2.615   6.093   4.615  1.7193 -2.1619 -1.5951
  141OSM   C10F15401   2.574   6.064   4.819  0.3844 -0.2085  0.0318
  141OSM   H10F15402   2.610   6.163   4.848 -0.9153  0.3877 -0.3046
  141OSM   C11F15403   2.531   5.988   4.937  0.5989  0.8950  0.2476
  141OSM   H11F15404   2.555   5.882   4.913  3.5492  1.2601  1.1386
  141OSM   H11G15405   2.423   6.005   4.956 -0.1803 -2.5914 -0.2350
  141OSM   C12F15406   2.592   6.022   5.072 -0.3932 -0.0258 -0.0080
  141OSM   H12F15407   2.592   6.131   5.091  0.5284  0.1191 -0.8029
  141OSM   H12G15408   2.696   5.984   5.061  0.6539  2.0844  1.8625
  141OSM   C13F15409   2.514   5.952   5.186  0.0660  0.1154  0.0331
  141OSM   H13F15410   2.489   5.845   5.171 -0.5928  0.5726 -2.8108
  141OSM   H13G15411   2.417   6.006   5.188 -0.6318 -1.0508  2.9928
  141OSM   C14F15412   2.589   5.969   5.319  0.0473  1.0226 -0.4839
  141OSM   H14F15413   2.617   6.075   5.336 -2.8114  1.5669  1.5740
  141OSM   H14G15414   2.677   5.903   5.302 -1.7180 -1.4202 -0.7959
  141OSM   C15F15415   2.514   5.914   5.436 -0.1629 -0.0940 -0.3539
  141OSM   H15F15416   2.508   5.807   5.406  2.6920  0.1332 -2.1244
  141OSM   H15G15417   2.412   5.956   5.442 -0.3715 -0.7482  1.1858
  141OSM   C16F15418   2.579   5.960   5.575  0.1166 -0.2364  0.4097
  141OSM   H16F15419   2.605   6.067   5.568  0.0788 -0.2759 -0.4689
  141OSM   H16G15420   2.666   5.900   5.610  0.2918 -0.0690  0.2644
  141OSM   C17F15421   2.490   5.935   5.696  1.0225  0.6528 -0.1724
  141OSM   H17F15422   2.478   5.826   5.715 -1.1536  0.8522 -0.1691
  141OSM   H17G15423   2.384   5.959   5.674  0.4773 -0.5453  1.0125
  141OSM   C18F15424   2.546   5.997   5.823 -0.4941  0.2466  0.3782
  141OSM   H18F15425   2.482   5.993   5.914 -0.7144 -0.9252  0.1945
  141OSM   H18G15426   2.563   6.104   5.799 -0.4561  0.5464  1.6554
  141OSM   H18H15427   2.644   5.946   5.837 -0.2335  0.8670  0.8521
  142OSM      N15428   2.815   0.355   3.569  0.6354  0.5573 -0.1765
  142OSM    C1515429   2.768   0.483   3.507  0.0366  0.1624 -0.0385
  142OSM   H15A15430   2.772   0.476   3.399  0.9265  1.7010 -0.1383
  142OSM   H15B15431   2.820   0.566   3.553 -0.6899 -0.1109  1.3254
  142OSM   H15C15432   2.663   0.490   3.532  0.1305 -2.3171  1.2796
  142OSM    C1415433   2.736   0.237   3.517 -0.3709  0.0377  0.3074
  142OSM   H14A15434   2.633   0.249   3.550 -0.4919  0.0328 -0.0666
  142OSM   H14B15435   2.775   0.145   3.556 -0.8265 -0.1010  0.4434
  142OSM   H14C15436   2.726   0.222   3.411  0.0590 -1.1805  0.4265
  142OSM    C1315437   2.959   0.328   3.536 -0.7384 -0.1913 -0.2803
  142OSM   H13A15438   2.996   0.235   3.575  0.5196 -0.0398 -1.0560
  142OSM   H13B15439   3.023   0.406   3.574 -2.8261  1.4649  0.0637
  142OSM   H13C15440   2.972   0.324   3.429  2.7216  1.3184 -0.0400
  142OSM    C1215441   2.796   0.367   3.721 -0.4924 -0.9244  0.1634
  142OSM   H12A15442   2.718   0.440   3.738 -0.7045 -1.3306  0.9945
  142OSM   H12B15443   2.888   0.418   3.747 -0.2222 -1.8867  1.1928
  142OSM    C1115444   2.773   0.243   3.808 -0.3187 -0.4863 -0.2328
  142OSM   H11A15445   2.680   0.196   3.769 -0.2257 -0.7730 -0.1077
  142OSM   H11B15446   2.748   0.260   3.915 -1.0076 -0.8301 -0.3332
  142OSM      P15447   2.888   0.006   3.766 -0.1333  0.0455 -0.4109
  142OSM    O1315448   2.825  -0.021   3.640 -0.1434  0.2816  0.3444
  142OSM    O1415449   3.030  -0.036   3.782 -0.1349 -0.2484  0.0520
  142OSM    O1115450   2.802  -0.062   3.876  0.0709 -0.0445  0.2607
  142OSM    O1215451   2.889   0.162   3.798 -0.6991 -0.2804  0.4856
  142OSM    C1S15452   2.790  -0.019   4.014  0.3048 -0.3533  0.2862
  142OSM    H1S15453   2.715   0.063   4.013  0.1069 -0.4729 -2.1965
  142OSM    H1T15454   2.884   0.027   4.052 -0.0179  1.1179 -0.6030
  142OSM     NF15455   2.760  -0.078   4.251 -0.1056 -0.0321  0.0250
  142OSM    HNF15456   2.856  -0.075   4.276 -0.1657 -1.7586  0.6601
  142OSM    C2S15457   2.754  -0.131   4.114  0.2115  0.7087 -0.0428
  142OSM    H2S15458   2.653  -0.167   4.085  1.7190 -2.1915 -2.2521
  142OSM    C3S15459   2.844  -0.255   4.095 -0.3789 -0.7386  0.7171
  142OSM    H3S15460   2.950  -0.222   4.105 -0.3681 -0.8101  0.8299
  142OSM     O315461   2.824  -0.322   3.968  0.1661  0.4966  0.0355
  142OSM    HO315462   2.786  -0.263   3.903  0.1994  0.2253 -0.2311
  142OSM    C4S15463   2.807  -0.355   4.200 -0.9965  0.2046  0.7317
  142OSM    H4S15464   2.699  -0.375   4.199 -1.1675  1.0564  1.1726
  142OSM    C5S15465   2.889  -0.415   4.285  0.1341 -0.1648  0.3486
  142OSM    H5S15466   2.995  -0.408   4.256 -0.2234 -3.0382 -2.3065
  142OSM    C6S15467   2.848  -0.509   4.400  0.0800 -0.1127 -0.2273
  142OSM    H6S15468   2.894  -0.607   4.377 -1.6606 -0.9146 -0.4865
  142OSM    H6T15469   2.740  -0.531   4.411  0.7038 -2.2379  3.6420
  142OSM    C7S15470   2.875  -0.437   4.534 -0.1167 -0.2530  0.2177
  142OSM    H7S15471   2.814  -0.345   4.539  0.9134  0.4288  0.6213
  142OSM    H7T15472   2.985  -0.420   4.527  0.1271 -2.1422 -1.3153
  142OSM    C8S15473   2.840  -0.531   4.652 -0.4875 -0.8400 -0.0335
  142OSM    H8S15474   2.873  -0.636   4.635 -1.1303 -1.1531  0.6264
  142OSM    H8T15475   2.729  -0.531   4.657 -0.4426  0.6664  1.9860
  142OSM    C9S15476   2.920  -0.476   4.774 -0.5860  0.5741 -0.5870
  142OSM    H9S15477   2.910  -0.367   4.788 -1.2777  0.5213 -0.6410
  142OSM    H9T15478   3.028  -0.501   4.760 -0.3411  0.4536  1.2906
  142OSM   C10S15479   2.859  -0.532   4.902 -0.3084 -0.0653  0.7246
  142OSM   H10S15480   2.849  -0.642   4.915  0.1332 -0.0914  0.8477
  142OSM   H10T15481   2.758  -0.486   4.897 -0.5533 -0.6992 -0.2986
  142OSM   C11S15482   2.940  -0.489   5.030 -0.0179 -0.0462  0.0848
  142OSM   H11S15483   2.979  -0.385   5.033  0.2546 -0.1279 -0.4171
  142OSM   H11T15484   3.032  -0.550   5.047  1.6796  1.9450 -1.5107
  142OSM   C12S15485   2.854  -0.505   5.154 -0.3212  0.3329 -0.0847
  142OSM   H12S15486   2.817  -0.609   5.166 -0.9158  0.6628  1.0652
  142OSM   H12T15487   2.763  -0.443   5.142  0.4275  1.3178 -0.8233
  142OSM   C13S15488   2.931  -0.466   5.283  0.4217  0.4962 -0.4459
  142OSM   H13S15489   2.973  -0.363   5.292 -1.2214  1.3655 -2.1527
  142OSM   H13T15490   3.010  -0.544   5.294  0.7493  1.0684  1.8705
  142OSM   C14S15491   2.841  -0.489   5.408  0.1771 -0.5127  0.3173
  142OSM   H14S15492   2.855  -0.596   5.437  2.1825  0.0071  1.4485
  142OSM   H14T15493   2.736  -0.467   5.380 -0.1999 -0.0221  1.9651
  142OSM   C15S15494   2.883  -0.393   5.526  0.7056  0.0305 -0.3130
  142OSM   H15S15495   2.910  -0.290   5.495  1.9336 -0.0611  0.4130
  142OSM   H15T15496   2.968  -0.435   5.583 -0.4432 -2.1268 -0.0600
  142OSM   C16S15497   2.763  -0.370   5.618  0.3896 -0.7112  0.7004
  142OSM   H16S15498   2.726  -0.466   5.659  1.3184 -1.7337 -0.7562
  142OSM   H16T15499   2.678  -0.335   5.556  0.0483 -0.5964  1.2245
  142OSM   C17S15500   2.781  -0.275   5.725 -0.7225 -0.3983  0.1078
  142OSM   H17S15501   2.806  -0.170   5.697 -0.9860  0.0801  1.5735
  142OSM   H17T15502   2.868  -0.315   5.780 -0.0103  1.6196  0.5343
  142OSM   C18S15503   2.674  -0.262   5.825 -0.4361 -0.2912 -0.0884
  142OSM   H18S15504   2.689  -0.180   5.899 -1.3791 -0.3802  0.2093
  142OSM   H18T15505   2.653  -0.356   5.880  1.0390 -0.4768  0.1941
  142OSM   H18U15506   2.584  -0.234   5.767  2.2393  4.8790 -2.4746
  142OSM    C1F15507   2.667  -0.007   4.310 -1.0014 -0.1893  0.0758
  142OSM     OF15508   2.562   0.026   4.254  0.0283 -0.0217  0.0275
  142OSM    C2F15509   2.708   0.040   4.445  0.0129 -0.2808 -0.1167
  142OSM    H2F15510   2.817   0.060   4.449  0.1650 -1.2319  0.6602
  142OSM    H2G15511   2.689  -0.045   4.514  1.0250 -0.9674 -0.6558
  142OSM    C3F15512   2.622   0.153   4.497 -0.3878 -0.8246 -0.0506
  142OSM    H3F15513   2.518   0.116   4.506 -0.9570  0.7973  0.3852
  142OSM    H3G15514   2.619   0.239   4.427  1.0550 -0.7352 -0.0286
  142OSM    C4F15515   2.681   0.211   4.625  1.2027 -0.1175 -0.5264
  142OSM    H4F15516   2.785   0.249   4.625  1.0572  0.3159  0.7246
  142OSM    H4G15517   2.680   0.130   4.701 -0.4471  0.2918 -0.0668
  142OSM    C5F15518   2.590   0.326   4.674 -0.2444 -0.3255 -0.2835
  142OSM    H5F15519   2.490   0.279   4.681 -0.3231 -0.2693 -0.9792
  142OSM    H5G15520   2.585   0.414   4.607  0.9131  0.5912  0.7739
  142OSM    C6F15521   2.636   0.374   4.814  0.2936  0.2950 -0.7342
  142OSM    H6F15522   2.743   0.403   4.808  0.9209 -1.2244  1.6211
  142OSM    H6G15523   2.630   0.299   4.896  0.2796  0.0391 -0.9657
  142OSM    C7F15524   2.556   0.499   4.864 -0.2488 -0.5443 -0.2392
  142OSM    H7F15525   2.446   0.484   4.856 -0.5077  0.6904  0.7458
  142OSM    H7G15526   2.590   0.583   4.800  1.6194 -0.7918  0.3813
  142OSM    C8F15527   2.582   0.511   5.015 -0.1581 -0.6873 -0.0919
  142OSM    H8F15528   2.691   0.515   5.033 -0.1865  1.0070 -0.1578
  142OSM    H8G15529   2.545   0.417   5.062 -0.3508 -0.7916 -0.4530
  142OSM    C9F15530   2.506   0.633   5.056  0.2087 -0.1107  0.4979
  142OSM    H9F15531   2.529   0.732   5.012 -2.9773 -0.5881 -2.6709
  142OSM   C10F15532   2.431   0.633   5.167 -0.3383 -0.3044  0.0193
  142OSM   H10F15533   2.377   0.725   5.190  0.9780  0.7439 -0.9255
  142OSM   C11F15534   2.379   0.511   5.242 -0.3708 -0.2642  0.7522
  142OSM   H11F15535   2.410   0.415   5.196 -0.0172 -0.5905  1.6523
  142OSM   H11G15536   2.268   0.514   5.238 -0.4506 -1.8024 -4.1932
  142OSM   C12F15537   2.424   0.536   5.385 -0.3922  0.3764  0.2666
  142OSM   H12F15538   2.412   0.640   5.422  1.1851 -0.4222  3.3342
  142OSM   H12G15539   2.535   0.534   5.389 -0.3795  2.0181  1.6510
  142OSM   C13F15540   2.381   0.428   5.481 -0.5556 -0.2432  0.0744
  142OSM   H13F15541   2.456   0.349   5.461 -0.5010  0.1961 -1.6421
  142OSM   H13G15542   2.280   0.388   5.459 -0.4630 -0.2174 -0.4023
  142OSM   C14F15543   2.389   0.465   5.628  0.3650  0.2869 -0.1179
  142OSM   H14F15544   2.333   0.561   5.636 -1.7437 -0.9305  0.6282
  142OSM   H14G15545   2.494   0.474   5.662 -0.2984  0.5405  1.9826
  142OSM   C15F15546   2.315   0.377   5.732  0.6846 -0.2235  0.4724
  142OSM   H15F15547   2.378   0.285   5.734 -2.2464 -2.4840 -1.6541
  142OSM   H15G15548   2.215   0.350   5.692  1.1955  0.7758 -1.6504
  142OSM   C16F15549   2.298   0.443   5.865  0.0545 -0.5877 -0.3788
  142OSM   H16F15550   2.227   0.528   5.859  0.8931  0.1742  0.0688
  142OSM   H16G15551   2.391   0.495   5.899 -1.2807  1.2824  0.5870
  142OSM   C17F15552   2.263   0.351   5.981  0.3920 -0.8447  0.2892
  142OSM   H17F15553   2.302   0.396   6.075  2.8064 -0.1886 -0.9278
  142OSM   H17G15554   2.309   0.250   5.967 -1.5996 -1.6768 -0.5874
  142OSM   C18F15555   2.118   0.314   5.999  0.4287  0.9788 -0.1489
  142OSM   H18F15556   2.081   0.273   5.903  0.1023 -0.4397  0.5570
  142OSM   H18G15557   2.057   0.403   6.024  0.4155  1.4597 -1.7971
  142OSM   H18H15558   2.104   0.238   6.079 -0.1037  1.7471  0.4987
  143OSM      N15559   0.614   5.658   3.536 -0.3657  0.1266 -0.2413
  143OSM    C1515560   0.596   5.622   3.391 -0.7817  0.2582  0.3565
  143OSM   H15A15561   0.674   5.552   3.362  0.2677  1.2336  0.7242
  143OSM   H15B15562   0.599   5.711   3.330  1.9738 -0.8549 -1.3251
  143OSM   H15C15563   0.507   5.564   3.372 -0.0729 -0.0735 -2.5354
  143OSM    C1415564   0.752   5.720   3.559  0.6564  0.3248  0.1845
  143OSM   H14A15565   0.836   5.669   3.514 -1.2185 -1.9560 -0.9134
  143OSM   H14B15566   0.776   5.726   3.665  2.4764 -0.3054 -0.1554
  143OSM   H14C15567   0.760   5.821   3.523  0.0308 -0.3525 -1.9667
  143OSM    C1315568   0.513   5.757   3.576 -0.1451 -0.2261  0.1810
  143OSM   H13A15569   0.516   5.780   3.682  0.5029  3.2249 -0.4621
  143OSM   H13B15570   0.413   5.718   3.567 -0.7559  1.1991  0.4145
  143OSM   H13C15571   0.520   5.845   3.514 -3.2253 -0.4043 -0.5842
  143OSM    C1215572   0.588   5.526   3.611 -0.6432 -0.1034  0.2468
  143OSM   H12A15573   0.663   5.453   3.583 -1.1419 -0.3271 -0.5436
  143OSM   H12B15574   0.492   5.489   3.578 -0.1806 -0.5924 -0.5822
  143OSM    C1115575   0.598   5.538   3.764  0.0244  0.5330  0.4792
  143OSM   H11A15576   0.553   5.441   3.794 -1.2189  0.7312 -0.6351
  143OSM   H11B15577   0.530   5.620   3.795 -1.3403  0.3162 -1.7550
  143OSM      P15578   0.835   5.445   3.781 -0.3137 -0.2328  0.1844
  143OSM    O1315579   0.793   5.329   3.866 -0.0611 -0.1547  0.3228
  143OSM    O1415580   0.853   5.420   3.635  0.0254 -0.2002 -0.3831
  143OSM    O1115581   0.967   5.505   3.837 -0.3299 -0.7699  0.6144
  143OSM    O1215582   0.731   5.564   3.808 -1.1725 -0.2042 -0.4360
  143OSM    C1S15583   0.964   5.556   3.974  0.5960 -0.0655  0.0440
  143OSM    H1S15584   0.894   5.505   4.043  3.4117  0.0632  3.2675
  143OSM    H1T15585   0.933   5.662   3.966 -0.1604 -0.2830  0.0527
  143OSM     NF15586   1.104   5.580   4.173 -0.4683 -0.1494 -0.0486
  143OSM    HNF15587   1.147   5.663   4.209 -3.3319  1.2901  0.3202
  143OSM    C2S15588   1.107   5.556   4.032  0.0146 -0.0148  0.2969
  143OSM    H2S15589   1.152   5.455   4.024 -1.4287 -0.6125 -1.0533
  143OSM    C3S15590   1.194   5.655   3.945 -0.9447 -0.4305 -0.4296
  143OSM    H3S15591   1.151   5.758   3.952  0.2127 -0.0355  1.6675
  143OSM     O315592   1.188   5.639   3.802 -0.2502  0.7856 -0.0766
  143OSM    HO315593   1.122   5.571   3.791  0.3296  0.4521 -1.6851
  143OSM    C4S15594   1.335   5.667   4.007  0.4924  0.2034  0.4319
  143OSM    H4S15595   1.350   5.749   4.079  0.0796  1.7903 -1.2235
  143OSM    C5S15596   1.444   5.588   3.969 -0.3363  0.0979 -0.7618
  143OSM    H5S15597   1.418   5.509   3.897  0.0010  0.0440 -0.8271
  143OSM    C6S15598   1.585   5.591   4.012  0.4551  0.4449  0.2961
  143OSM    H6S15599   1.649   5.597   3.922 -0.0328 -1.5907 -0.2492
  143OSM    H6T15600   1.604   5.486   4.045 -1.0329 -0.3375 -1.1912
  143OSM    C7S15601   1.628   5.691   4.124  0.6148  0.6215  0.2438
  143OSM    H7S15602   1.550   5.695   4.203  0.5656  0.3781  0.2071
  143OSM    H7T15603   1.635   5.792   4.078  0.2023  0.4107 -0.2946
  143OSM    C8S15604   1.742   5.641   4.204 -0.3962  0.4631  0.2490
  143OSM    H8S15605   1.830   5.633   4.137 -0.4339  0.6328  0.1786
  143OSM    H8T15606   1.722   5.537   4.238 -0.1476 -0.1610 -1.3999
  143OSM    C9S15607   1.785   5.729   4.315 -0.6115  0.0930 -0.2268
  143OSM    H9S15608   1.705   5.722   4.392  2.3832  1.8637  3.3455
  143OSM    H9T15609   1.780   5.835   4.282 -1.6425 -0.1348 -0.8578
  143OSM   C10S15610   1.918   5.701   4.383 -0.0738  0.1720  0.0392
  143OSM   H10S15611   1.999   5.735   4.315 -0.4485 -1.7273 -1.4413
  143OSM   H10T15612   1.925   5.591   4.400  3.7668  0.2846  0.1658
  143OSM   C11S15613   1.911   5.762   4.525 -0.0202 -0.4740 -0.4003
  143OSM   H11S15614   1.808   5.780   4.563 -0.4520 -1.9642 -0.8181
  143OSM   H11T15615   1.968   5.856   4.511 -0.1156 -0.5589 -1.4317
  143OSM   C12S15616   2.002   5.685   4.621 -0.8173  0.1950  0.0003
  143OSM   H12S15617   2.099   5.682   4.567  0.1295 -2.8917  1.6295
  143OSM   H12T15618   1.951   5.586   4.626  0.0933 -0.7264 -4.4587
  143OSM   C13S15619   2.019   5.755   4.757  0.6130  0.5303 -0.1567
  143OSM   H13S15620   1.925   5.779   4.810  1.0954  0.9373  0.5233
  143OSM   H13T15621   2.077   5.848   4.740  3.2380 -0.8993  0.3852
  143OSM   C14S15622   2.114   5.680   4.862  0.4556  0.5706  0.2715
  143OSM   H14S15623   2.218   5.667   4.826  1.2148  0.1050  2.4505
  143OSM   H14T15624   2.077   5.576   4.872 -0.6817  1.0137  0.8140
  143OSM   C15S15625   2.116   5.749   4.997 -1.3656  0.1704  0.5654
  143OSM   H15S15626   2.020   5.742   5.053 -0.4448 -1.8279  1.9934
  143OSM   H15T15627   2.121   5.860   4.985 -0.3894  0.3614  2.4585
  143OSM   C16S15628   2.232   5.709   5.085 -0.5558  0.8879 -0.0478
  143OSM   H16S15629   2.239   5.773   5.176 -0.7304 -0.5326  1.0087
  143OSM   H16T15630   2.326   5.701   5.027 -0.2241 -1.1701  0.6820
  143OSM   C17S15631   2.232   5.562   5.130  0.5114  0.2015  0.1175
  143OSM   H17S15632   2.307   5.533   5.207 -0.2988  1.6683  1.5250
  143OSM   H17T15633   2.235   5.495   5.041 -0.2760  2.7308 -1.9293
  143OSM   C18S15634   2.098   5.532   5.197  0.2014 -0.2451 -0.1000
  143OSM   H18S15635   2.105   5.429   5.237 -0.4049  0.1117  0.9476
  143OSM   H18T15636   2.020   5.541   5.118  0.4796  0.8621 -0.2657
  143OSM   H18U15637   2.079   5.603   5.280 -0.9117 -0.3468 -0.2488
  143OSM    C1F15638   1.048   5.502   4.266 -0.3206 -0.6281  0.2692
  143OSM     OF15639   0.983   5.405   4.237 -0.5336  0.1773 -0.5653
  143OSM    C2F15640   1.058   5.551   4.407 -0.3770  0.1301  0.7125
  143OSM    H2F15641   0.972   5.600   4.457  0.3758  0.0522  2.1210
  143OSM    H2G15642   1.139   5.627   4.415  0.4678 -0.6512 -0.0826
  143OSM    C3F15643   1.080   5.430   4.500  0.0648  0.2846  0.4585
  143OSM    H3F15644   1.166   5.368   4.466  0.7608  1.6462 -0.3636
  143OSM    H3G15645   0.988   5.371   4.484  2.0038 -2.3852 -1.6622
  143OSM    C4F15646   1.094   5.474   4.646  0.0161 -0.0058  0.4052
  143OSM    H4F15647   0.996   5.490   4.694 -1.2060 -0.1921 -1.8604
  143OSM    H4G15648   1.156   5.566   4.656  1.9716 -1.2493  0.4147
  143OSM    C5F15649   1.178   5.366   4.722  0.6482 -0.2438  0.4356
  143OSM    H5F15650   1.279   5.367   4.677  1.0206 -1.0518  1.2376
  143OSM    H5G15651   1.131   5.265   4.719 -1.9200  0.8936 -1.3704
  143OSM    C6F15652   1.198   5.399   4.870  0.6477  0.4631  0.1095
  143OSM    H6F15653   1.108   5.367   4.927 -0.8090  2.0113 -1.2213
  143OSM    H6G15654   1.216   5.507   4.886 -0.7407  0.3932  2.5183
  143OSM    C7F15655   1.310   5.307   4.934  0.7102  0.3331 -0.1704
  143OSM    H7F15656   1.407   5.333   4.887  0.9072  4.3356  2.0111
  143OSM    H7G15657   1.279   5.204   4.905 -0.5241  0.0901  1.8116
  143OSM    C8F15658   1.308   5.301   5.091 -0.4158 -0.1005 -0.0208
  143OSM    H8F15659   1.388   5.229   5.117 -0.4721 -0.6746 -1.3519
  143OSM    H8G15660   1.211   5.253   5.115 -0.6722  1.0731  1.5033
  143OSM    C9F15661   1.321   5.446   5.131  0.5932  1.0635 -0.1027
  143OSM    H9F15662   1.371   5.511   5.057  0.1038 -1.5945 -2.9713
  143OSM   C10F15663   1.265   5.493   5.242 -0.0422  0.0916  0.2029
  143OSM   H10F15664   1.270   5.601   5.259 -2.4971  0.4259 -0.8048
  143OSM   C11F15665   1.192   5.415   5.344  0.1840  0.4638 -1.1538
  143OSM   H11F15666   1.174   5.310   5.312 -0.2493  0.3412 -0.5143
  143OSM   H11G15667   1.094   5.468   5.351 -0.5730 -1.0910  0.9832
  143OSM   C12F15668   1.273   5.419   5.472 -0.4185 -0.1138 -0.0624
  143OSM   H12F15669   1.376   5.383   5.452 -0.5274  0.0374 -0.9350
  143OSM   H12G15670   1.236   5.353   5.553  2.4734 -1.3513  0.4036
  143OSM   C13F15671   1.284   5.556   5.533  0.8597  0.4745  0.0168
  143OSM   H13F15672   1.187   5.609   5.523 -0.1023 -1.4076 -0.9383
  143OSM   H13G15673   1.354   5.621   5.476  2.4576  1.3023  2.7014
  143OSM   C14F15674   1.330   5.556   5.677 -0.1579  0.6121  0.2679
  143OSM   H14F15675   1.424   5.498   5.681 -1.9388 -2.5170  0.2070
  143OSM   H14G15676   1.255   5.499   5.737 -0.3381  0.4954 -0.0665
  143OSM   C15F15677   1.329   5.702   5.721  0.1715 -0.6902 -0.7141
  143OSM   H15F15678   1.233   5.750   5.746 -0.0631 -0.9237 -1.1589
  143OSM   H15G15679   1.361   5.759   5.631 -2.3815 -2.3485 -2.7909
  143OSM   C16F15680   1.415   5.722   5.851  0.0754  0.4839  0.0790
  143OSM   H16F15681   1.482   5.633   5.861 -2.5791 -1.4704  1.8656
  143OSM   H16G15682   1.355   5.712   5.943  0.7574 -1.6131  0.3630
  143OSM   C17F15683   1.499   5.848   5.857 -1.1256  0.4594 -0.4498
  143OSM   H17F15684   1.436   5.939   5.863 -0.7507  0.6503  1.4037
  143OSM   H17G15685   1.549   5.841   5.758  3.2413  3.3720  1.2211
  143OSM   C18F15686   1.598   5.838   5.980  0.1921  0.2684  0.1170
  143OSM   H18F15687   1.633   5.939   6.011 -1.5382  1.0445 -0.3523
  143OSM   H18G15688   1.684   5.769   5.961  1.1197  0.3792  3.3513
  143OSM   H18H15689   1.537   5.807   6.067 -1.1995  1.6992 -0.3183
  144OSM      N15690   1.800   6.010   3.593  0.1278  0.7283 -0.4890
  144OSM    C1515691   1.932   6.056   3.534  0.4017 -0.1315  0.1210
  144OSM   H15A15692   1.934   6.047   3.426  3.4209 -1.8457  0.2140
  144OSM   H15B15693   2.015   6.007   3.582 -0.5743 -2.0214 -0.0161
  144OSM   H15C15694   1.951   6.158   3.563  0.9583 -0.1938 -0.0146
  144OSM    C1415695   1.689   6.096   3.537 -0.0782  0.0091 -0.4061
  144OSM   H14A15696   1.699   6.105   3.430 -1.0449 -1.1630 -0.6067
  144OSM   H14B15697   1.698   6.200   3.566  0.3539  0.5667 -2.3850
  144OSM   H14C15698   1.592   6.055   3.561 -0.2424  0.5570 -0.0955
  144OSM    C1315699   1.769   5.866   3.563 -0.0695  0.2215  0.7557
  144OSM   H13A15700   1.850   5.803   3.596  1.1822  0.5750 -1.4479
  144OSM   H13B15701   1.745   5.850   3.459  0.0201  0.7487  0.6506
  144OSM   H13C15702   1.682   5.843   3.624 -0.2282  2.1307  1.3037
  144OSM    C1215703   1.803   6.033   3.744  0.2829 -0.2343 -1.0547
  144OSM   H12A15704   1.798   6.140   3.759 -0.5025 -0.1719 -1.6767
  144OSM   H12B15705   1.898   5.995   3.777 -0.5535 -0.6453  0.9946
  144OSM    C1115706   1.702   5.965   3.838  0.5787 -0.5094 -0.3617
  144OSM   H11A15707   1.712   5.997   3.944  0.8445 -0.6728 -0.3356
  144OSM   H11B15708   1.718   5.856   3.823 -1.0283 -0.4222 -3.6441
  144OSM      P15709   1.451   6.068   3.870  0.4056  0.3703 -0.3909
  144OSM    O1315710   1.482   6.212   3.888 -0.0211  0.5879 -0.5160
  144OSM    O1415711   1.329   6.035   3.790 -0.5087  0.6487 -0.4364
  144OSM    O1115712   1.449   6.001   4.011 -0.2735 -0.9413 -0.4074
  144OSM    O1215713   1.563   5.985   3.803 -0.7629 -0.2156  0.1326
  144OSM    C1S15714   1.342   6.023   4.104 -0.0617 -0.8080  0.2095
  144OSM    H1S15715   1.248   5.970   4.079  0.7456 -0.3726 -4.6541
  144OSM    H1T15716   1.307   6.129   4.109  1.5033 -0.2348 -0.4066
  144OSM     NF15717   1.270   6.008   4.334 -0.3944 -0.5258 -0.2023
  144OSM    HNF15718   1.249   6.096   4.376 -0.0797 -0.2522 -0.6155
  144OSM    C2S15719   1.385   5.989   4.247  0.0661 -0.0616  0.3301
  144OSM    H2S15720   1.407   5.880   4.251  0.7320 -0.0824 -2.2272
  144OSM    C3S15721   1.519   6.051   4.290 -0.3639 -0.3827 -0.2120
  144OSM    H3S15722   1.517   6.162   4.283 -0.2282 -0.4636 -1.9153
  144OSM     O315723   1.633   6.031   4.206  0.0459 -0.1661  0.1832
  144OSM    HO315724   1.600   5.986   4.128 -1.5339 -0.4353  0.9543
  144OSM    C4S15725   1.552   6.003   4.434  0.3773  0.2050  0.5241
  144OSM    H4S15726   1.540   5.895   4.454  1.4259  0.2751  1.6728
  144OSM    C5S15727   1.589   6.085   4.530 -0.4091  0.2316  0.1402
  144OSM    H5S15728   1.600   6.193   4.510  2.6003  0.1975  1.1496
  144OSM    C6S15729   1.605   6.039   4.670 -0.4538 -0.4988 -0.9172
  144OSM    H6S15730   1.661   5.945   4.688 -1.2234 -0.7145  0.5797
  144OSM    H6T15731   1.507   6.022   4.721  0.6057 -2.1063  0.7168
  144OSM    C7S15732   1.684   6.150   4.741 -0.0415 -0.2630 -0.2004
  144OSM    H7S15733   1.780   6.161   4.687 -0.8467  1.2795 -1.4493
  144OSM    H7T15734   1.700   6.108   4.842 -2.3904 -1.2822 -0.1874
  144OSM    C8S15735   1.617   6.282   4.762  0.0036 -0.2091 -0.9405
  144OSM    H8S15736   1.592   6.325   4.662  0.7334 -0.1585 -1.1147
  144OSM    H8T15737   1.692   6.352   4.806  1.9283 -1.1066 -2.6012
  144OSM    C9S15738   1.496   6.273   4.862  0.3357  0.0612  1.1946
  144OSM    H9S15739   1.413   6.222   4.807  1.7578  0.5596 -1.6222
  144OSM    H9T15740   1.451   6.370   4.889  1.8606  0.8108  1.1398
  144OSM   C10S15741   1.510   6.195   4.993  0.9603  0.2711 -0.6425
  144OSM   H10S15742   1.576   6.247   5.065  0.8633 -0.4680 -0.0127
  144OSM   H10T15743   1.554   6.093   4.996 -1.9695 -1.2643 -3.5013
  144OSM   C11S15744   1.380   6.180   5.069 -0.5852  0.6240 -0.5629
  144OSM   H11S15745   1.295   6.136   5.011 -1.2379  1.6214 -0.3865
  144OSM   H11T15746   1.351   6.286   5.082  2.7192  1.7968 -1.6609
  144OSM   C12S15747   1.394   6.104   5.204 -0.4975 -0.4249  0.0538
  144OSM   H12S15748   1.447   6.008   5.185  1.1634  0.3132  0.7650
  144OSM   H12T15749   1.292   6.078   5.239  0.2710 -0.4935  2.4317
  144OSM   C13S15750   1.469   6.186   5.314  0.4073 -0.5790  0.1428
  144OSM   H13S15751   1.447   6.295   5.307 -1.4272 -1.0202 -2.0563
  144OSM   H13T15752   1.574   6.175   5.279 -0.3208 -0.4052 -2.2959
  144OSM   C14S15753   1.444   6.144   5.461 -0.0345 -0.4333 -0.2265
  144OSM   H14S15754   1.418   6.036   5.469 -1.3834 -0.2552 -1.8351
  144OSM   H14T15755   1.354   6.194   5.501 -0.3953 -1.1156 -0.1607
  144OSM   C15S15756   1.572   6.182   5.552  0.0791 -0.0336 -0.1023
  144OSM   H15S15757   1.660   6.127   5.512  0.2870 -0.0709  0.3883
  144OSM   H15T15758   1.544   6.136   5.649 -2.8385 -1.1996 -1.3990
  144OSM   C16S15759   1.596   6.328   5.564 -0.1180  0.3036 -0.5350
  144OSM   H16S15760   1.503   6.366   5.611 -0.0614 -0.6999  0.4263
  144OSM   H16T15761   1.604   6.374   5.463 -0.1185 -2.5313 -1.9353
  144OSM   C17S15762   1.709   6.366   5.655  0.2174  0.7038  0.2230
  144OSM   H17S15763   1.701   6.308   5.749 -0.1181  0.4972  0.0700
  144OSM   H17T15764   1.702   6.474   5.678 -0.8099  0.1098  3.0878
  144OSM   C18S15765   1.845   6.346   5.591  0.1407  0.5726  0.1053
  144OSM   H18S15766   1.916   6.419   5.635  0.9135  0.2687 -0.6101
  144OSM   H18T15767   1.850   6.360   5.481 -1.7459  0.8609  0.0181
  144OSM   H18U15768   1.875   6.240   5.605 -3.1867 -0.2315  2.4137
  144OSM    C1F15769   1.153   5.943   4.314 -0.2990 -0.2498 -0.1673
  144OSM     OF15770   1.168   5.830   4.266  0.3555  0.0570  0.2025
  144OSM    C2F15771   1.015   6.001   4.325 -0.0719 -0.1083  0.3371
  144OSM    H2F15772   0.974   5.983   4.224 -0.2461  0.7647  0.2463
  144OSM    H2G15773   1.032   6.109   4.347  2.0071 -0.2030 -0.5339
  144OSM    C3F15774   0.934   5.938   4.436  0.3281  0.2753  0.2679
  144OSM    H3F15775   0.923   5.828   4.429  0.0567  0.3287 -0.2269
  144OSM    H3G15776   0.832   5.978   4.414  0.4600  0.6396  0.3112
  144OSM    C4F15777   0.970   5.986   4.576 -0.8090  0.0679 -0.0212
  144OSM    H4F15778   0.877   5.996   4.636 -0.4340  0.1479  0.5507
  144OSM    H4G15779   1.012   6.088   4.561 -2.5545  0.5783 -1.8020
  144OSM    C5F15780   1.066   5.896   4.652 -0.4031  1.0781 -0.0766
  144OSM    H5F15781   1.172   5.918   4.627  0.2573  0.2739  1.8463
  144OSM    H5G15782   1.049   5.793   4.612  1.4331  0.8324 -0.3487
  144OSM    C6F15783   1.057   5.915   4.806 -0.7775  0.0831  0.1548
  144OSM    H6F15784   0.966   5.866   4.846  0.2127 -1.3399  0.7864
  144OSM    H6G15785   1.049   6.024   4.829 -0.5778  0.7707 -2.6710
  144OSM    C7F15786   1.176   5.852   4.889 -0.3721 -0.1713  0.6550
  144OSM    H7F15787   1.273   5.884   4.846 -0.8807  1.1474  0.4510
  144OSM    H7G15788   1.180   5.745   4.857 -0.2343 -0.4293  1.4895
  144OSM    C8F15789   1.172   5.868   5.046 -0.1654  1.0688  0.0744
  144OSM    H8F15790   1.147   5.975   5.063 -1.7060  0.4672  1.9311
  144OSM    H8G15791   1.274   5.854   5.089 -0.5646 -0.3713  0.5817
  144OSM    C9F15792   1.076   5.775   5.125  0.9608  0.0351  0.3460
  144OSM    H9F15793   1.060   5.673   5.087 -1.7452  0.3084  0.5414
  144OSM   C10F15794   1.000   5.814   5.225  0.1382 -0.2927 -0.0287
  144OSM   H10F15795   0.937   5.733   5.265  1.7985 -0.4392  2.4975
  144OSM   C11F15796   0.994   5.958   5.282 -0.3816 -0.0981  0.1526
  144OSM   H11F15797   0.900   6.008   5.251 -0.3129  0.4736  0.8574
  144OSM   H11G15798   1.080   6.025   5.264 -1.4079  1.2287  0.0545
  144OSM   C12F15799   0.991   5.938   5.435  0.4829  0.5198  0.0215
  144OSM   H12F15800   1.085   5.882   5.457  0.3362 -0.6697 -2.1773
  144OSM   H12G15801   0.905   5.878   5.471 -0.3905  2.0002  0.5369
  144OSM   C13F15802   1.002   6.079   5.513  0.7091  0.3031  0.1741
  144OSM   H13F15803   0.912   6.140   5.493  0.5620 -0.1240 -0.4850
  144OSM   H13G15804   1.087   6.144   5.481 -2.0239  2.4232 -3.5476
  144OSM   C14F15805   1.009   6.055   5.666 -0.1172  0.0488 -0.4180
  144OSM   H14F15806   1.081   5.971   5.674  2.0464  1.7852 -0.7655
  144OSM   H14G15807   0.912   6.039   5.719 -0.2575  1.3981 -0.2460
  144OSM   C15F15808   1.066   6.174   5.734 -0.1653 -0.1676  0.1990
  144OSM   H15F15809   1.005   6.267   5.724  3.8685  2.6227 -0.6559
  144OSM   H15G15810   1.161   6.197   5.682  0.4074 -0.8716  0.9306
  144OSM   C16F15811   1.093   6.142   5.881  0.2324 -0.3686  0.3915
  144OSM   H16F15812   1.161   6.057   5.902  2.3953  1.8561  3.2515
  144OSM   H16G15813   1.000   6.124   5.940  0.9546 -0.3965  1.5377
  144OSM   C17F15814   1.161   6.256   5.962 -0.0811  0.4008 -0.2879
  144OSM   H17F15815   1.132   6.358   5.929 -1.3636  0.6185  1.4246
  144OSM   H17G15816   1.266   6.269   5.929 -0.7388  1.1063 -2.2672
  144OSM   C18F15817   1.151   6.247   6.110  0.6709  0.2933  0.2504
  144OSM   H18F15818   1.214   6.162   6.143  0.5644 -0.3498 -1.1467
  144OSM   H18G15819   1.047   6.233   6.145  0.4785  2.1754  0.5649
  144OSM   H18H15820   1.176   6.348   6.151  0.6608  1.2380 -1.8992
  145SAPE     N15821   5.810   1.367   8.101  0.0296 -0.0434 -0.5834
  145SAPE   HN115822   5.713   1.358   8.138 -0.1719  3.8571  0.2446
  145SAPE   HN215823   5.819   1.471   8.099  0.1308 -0.0126  0.8413
  145SAPE   HN315824   5.814   1.334   8.002 -0.6018  1.0138 -0.9870
  145SAPE   C1215825   5.910   1.297   8.193  0.6262 -0.0655 -0.2476
  145SAPE  H12A15826   5.881   1.190   8.188  1.0437 -0.2035  0.2377
  145SAPE  H12B15827   5.885   1.329   8.296 -1.0980 -3.1246  0.4003
  145SAPE   C1115828   6.049   1.335   8.149 -0.9612 -0.1785  0.2498
  145SAPE  H11A15829   6.070   1.318   8.041 -2.2181 -0.4730  0.0394
  145SAPE  H11B15830   6.117   1.268   8.207  0.4667  0.3607 -0.7433
  145SAPE     P15831   6.225   1.522   8.188  0.2147 -0.1570  0.0004
  145SAPE   O1315832   6.221   1.662   8.238 -0.5230 -0.3221 -0.4432
  145SAPE   O1415833   6.315   1.427   8.256 -0.0778 -0.7327 -0.3907
  145SAPE   O1215834   6.080   1.464   8.200  0.3855 -0.3955  1.0184
  145SAPE   O1115835   6.252   1.516   8.032  0.0710 -0.9157 -0.3134
  145SAPE    C115836   6.160   1.593   7.942 -0.5214 -0.3873  0.0208
  145SAPE    HA15837   6.053   1.580   7.971 -0.6961 -0.1881 -0.5440
  145SAPE    HB15838   6.177   1.702   7.952 -0.2660 -0.4593  0.4050
  145SAPE    C215839   6.167   1.546   7.806 -0.5027  0.5323  0.6286
  145SAPE    HS15840   6.160   1.435   7.805  0.8643  0.4260 -0.0856
  145SAPE   O2115841   6.292   1.591   7.749 -0.6657 -0.1513  0.4615
  145SAPE   C2115842   6.350   1.506   7.666 -0.9876  0.6979  0.1115
  145SAPE   O2215843   6.304   1.399   7.635  0.5464 -0.5408 -0.2317
  145SAPE   C2215844   6.499   1.556   7.622 -0.1268 -0.2959  0.0720
  145SAPE   H2R15845   6.489   1.628   7.538  0.5431 -1.7192 -1.2893
  145SAPE   H2S15846   6.541   1.612   7.708 -1.9489  1.2472  0.0168
  145SAPE    C315847   6.050   1.590   7.711 -0.3108  0.2573 -0.8492
  145SAPE    HX15848   6.053   1.701   7.716  0.8491  0.1794  2.3878
  145SAPE    HY15849   5.954   1.562   7.760 -1.0820 -0.1664 -2.5362
  145SAPE   O3115850   6.052   1.540   7.582 -0.2559  0.6153 -0.5172
  145SAPE   C3115851   6.001   1.424   7.553  0.0152 -0.3341  0.2389
  145SAPE   O3215852   5.928   1.365   7.633 -0.3612  0.1591 -0.0045
  145SAPE   C3215853   6.029   1.384   7.407  0.4138  0.2934 -0.7537
  145SAPE   H2X15854   6.114   1.444   7.369  1.8457 -1.4772 -0.4679
  145SAPE   H2Y15855   5.939   1.411   7.347 -0.5556 -0.3515  0.3612
  145SAPE   C2315856   6.592   1.445   7.579 -0.9563  0.1448  0.7595
  145SAPE   H3R15857   6.598   1.354   7.643 -1.0562 -0.4733 -0.0904
  145SAPE   H3S15858   6.688   1.501   7.585 -0.9604  0.0892  1.4402
  145SAPE   C2415859   6.564   1.392   7.436  0.2984  0.0055  0.0463
  145SAPE   H4R15860   6.475   1.325   7.443 -0.8805  1.3803 -1.1590
  145SAPE   H4S15861   6.650   1.329   7.405 -0.7276 -1.6701  0.4724
  145SAPE   C2515862   6.537   1.493   7.330  0.4801 -0.1808 -0.0524
  145SAPE   H5R15863   6.438   1.541   7.330  0.1365 -0.7462 -2.5629
  145SAPE   C2615864   6.621   1.547   7.241 -0.3601 -0.4024  0.2506
  145SAPE   H6R15865   6.575   1.619   7.171  1.0889  1.3203  0.9827
  145SAPE   C2715866   6.760   1.504   7.200 -0.3829  0.7155  0.6751
  145SAPE   H7R15867   6.771   1.505   7.090  3.0144  0.3494  0.8975
  145SAPE   H7S15868   6.766   1.402   7.245  0.4839  1.2285  1.7676
  145SAPE   C2815869   6.884   1.579   7.256  0.3055 -0.0974 -0.4903
  145SAPE   H8R15870   6.950   1.541   7.335  2.3426  3.6012 -0.2273
  145SAPE   C2915871   6.936   1.692   7.202  0.1060  0.2330 -0.5376
  145SAPE   H9R15872   7.015   1.741   7.262 -0.7522 -0.8744  1.6002
  145SAPE  C21015873   6.892   1.772   7.081  0.1662  0.3462 -0.2903
  145SAPE  H10R15874   6.928   1.876   7.091 -1.8134  1.2928 -2.2363
  145SAPE  H10S15875   6.784   1.795   7.091  0.1617  0.4066 -0.4882
  145SAPE  C21115876   6.918   1.728   6.937  0.4435  0.1532  0.0907
  145SAPE  H11R15877   6.842   1.653   6.911  0.6212 -0.1061  0.3114
  145SAPE  C21215878   7.004   1.782   6.845  0.4783  0.0504  0.3766
  145SAPE  H12R15879   7.014   1.734   6.746 -3.2747 -0.0957 -0.0927
  145SAPE  C21315880   7.099   1.894   6.874 -0.2209  0.0505 -0.1559
  145SAPE  H13R15881   7.067   1.980   6.936 -1.8778 -0.3994 -0.3360
  145SAPE  H13S15882   7.104   1.950   6.778 -0.4425 -1.0264 -0.8155
  145SAPE  C21415883   7.230   1.856   6.929 -0.3851 -0.4435  0.6059
  145SAPE  H14R15884   7.235   1.856   7.039  0.4030 -2.5602  0.6137
  145SAPE  C21515885   7.343   1.817   6.859  0.2444 -0.0342 -0.4847
  145SAPE  H15R15886   7.432   1.788   6.916  0.7142 -1.4086 -1.8461
  145SAPE  C21615887   7.362   1.802   6.709 -0.2506 -0.4271 -0.2407
  145SAPE  H16R15888   7.262   1.822   6.664 -0.3272  0.5787  0.3506
  145SAPE  H16S15889   7.383   1.701   6.668 -1.3182 -1.1378  0.9130
  145SAPE  C21715890   7.447   1.907   6.642 -0.0468 -0.1722  0.2864
  145SAPE  H17R15891   7.551   1.896   6.681  0.4536  0.5866 -0.7708
  145SAPE  H17S15892   7.402   2.003   6.676 -1.2813 -0.3904 -0.7044
  145SAPE  C21815893   7.445   1.892   6.494  0.2537  0.3081  1.4945
  145SAPE  H18R15894   7.345   1.897   6.447  1.8089  0.8142 -2.1342
  145SAPE  H18S15895   7.488   1.800   6.447 -0.2621  1.8112 -2.2377
  145SAPE  C21915896   7.536   1.990   6.425  0.0948 -0.0172 -0.8875
  145SAPE  H19R15897   7.636   1.969   6.467 -0.7289  0.3076  1.3339
  145SAPE  H19S15898   7.491   2.087   6.456  2.1188  0.1061  2.0300
  145SAPE  C22015899   7.554   1.994   6.273  0.5854  0.6220 -0.3070
  145SAPE  H20R15900   7.458   1.973   6.221  1.6179 -0.6720 -1.7867
  145SAPE  H20S15901   7.626   1.921   6.230  0.7498  1.6346 -1.8391
  145SAPE  H20T15902   7.596   2.092   6.241  1.7012  0.4084  0.4134
  145SAPE   C3315903   6.060   1.238   7.391 -0.3705  0.2957 -0.2321
  145SAPE   H3X15904   5.968   1.177   7.403  0.4660 -0.5017  3.2986
  145SAPE   H3Y15905   6.124   1.207   7.476 -2.2856  0.6989  1.4431
  145SAPE   C3415906   6.120   1.211   7.259  0.1242 -0.2178  0.0699
  145SAPE   H4X15907   6.055   1.253   7.179 -1.2932 -1.4680  0.5239
  145SAPE   H4Y15908   6.120   1.100   7.254 -1.6063 -0.2229 -0.6449
  145SAPE   C3515909   6.259   1.262   7.239 -0.2622 -0.0236  0.2394
  145SAPE   H5X15910   6.326   1.180   7.273 -2.1202 -1.2853  1.0240
  145SAPE   H5Y15911   6.273   1.352   7.303 -2.0107 -0.1143  0.7950
  145SAPE   C3615912   6.303   1.286   7.099  0.0986 -0.3277 -0.2658
  145SAPE   H6X15913   6.397   1.345   7.104 -0.3531  0.3212  1.2111
  145SAPE   H6Y15914   6.229   1.360   7.061  1.5377  0.7271 -1.1348
  145SAPE   C3715915   6.321   1.166   7.006 -0.5863  0.2254  0.7825
  145SAPE   H7X15916   6.224   1.112   7.005 -0.1170 -0.6342  0.6045
  145SAPE   H7Y15917   6.401   1.098   7.041 -1.4704 -0.1475  2.1503
  145SAPE   C3815918   6.342   1.198   6.857 -0.9153  0.1135 -0.3560
  145SAPE   H8X15919   6.268   1.273   6.821 -0.8392  0.1323 -0.4744
  145SAPE   H8Y15920   6.326   1.100   6.808 -0.1062  0.1032 -0.6143
  145SAPE   C3915921   6.482   1.255   6.828  0.2664 -0.7749  0.1712
  145SAPE   H9X15922   6.563   1.185   6.860  0.2113 -0.1701  1.7434
  145SAPE   H9Y15923   6.512   1.351   6.875  3.0253 -0.0373 -2.7576
  145SAPE  C31015924   6.483   1.272   6.672 -0.0235  0.4642  0.1867
  145SAPE  H10X15925   6.410   1.350   6.640 -0.7210 -0.4808 -0.5823
  145SAPE  H10Y15926   6.460   1.178   6.618 -1.5429  1.2853 -0.6847
  145SAPE  C31115927   6.616   1.317   6.621 -0.2039  0.9657  0.4899
  145SAPE  H11X15928   6.691   1.246   6.661 -0.0451  0.0030 -1.4126
  145SAPE  H11Y15929   6.648   1.415   6.663 -0.1725  1.0545  0.2614
  145SAPE  C31215930   6.626   1.314   6.471 -0.9512  0.4538  0.0391
  145SAPE  H12X15931   6.548   1.383   6.432  0.2681  0.2568 -3.0288
  145SAPE  H12Y15932   6.599   1.215   6.428  2.2046 -0.3352 -0.3381
  145SAPE  C31315933   6.762   1.339   6.408  0.5426 -0.3344 -0.3153
  145SAPE  H13X15934   6.833   1.264   6.448  0.5262 -1.3051 -1.9887
  145SAPE  H13Y15935   6.795   1.442   6.434 -0.7968  0.1595 -0.4896
  145SAPE  C31415936   6.773   1.319   6.256 -0.2090 -0.0127 -0.3239
  145SAPE  H14X15937   6.877   1.353   6.239  0.6400 -1.8026  1.0108
  145SAPE  H14Y15938   6.698   1.389   6.214 -1.3917  0.0161  1.6942
  145SAPE  C31515939   6.752   1.178   6.207  0.6393  0.0818 -0.2774
  145SAPE  H15X15940   6.646   1.159   6.181  0.7763 -1.7722  0.3929
  145SAPE  H15Y15941   6.791   1.098   6.273  1.5330  0.9458  0.2681
  145SAPE  C31615942   6.840   1.157   6.080 -0.4206 -0.5432 -0.3568
  145SAPE  H16X15943   6.810   1.057   6.042  1.4314 -0.9133 -0.9293
  145SAPE  H16Y15944   6.944   1.149   6.119 -0.5164 -0.9879 -0.1883
  145SAPE  C31715945   6.829   1.251   5.960 -0.8176  0.6644 -0.7881
  145SAPE  H17X15946   6.859   1.348   6.004  2.0957 -1.4210  2.3319
  145SAPE  H17Y15947   6.725   1.266   5.925 -0.5399  1.7002 -1.2006
  145SAPE  C31815948   6.928   1.219   5.840 -0.1410 -0.3632 -0.0117
  145SAPE  H18X15949   6.928   1.297   5.761 -0.9047 -0.7681 -0.4156
  145SAPE  H18Y15950   6.894   1.122   5.798  0.9577 -0.5829 -0.4494
  145SAPE  H18Z15951   7.030   1.203   5.883 -0.2642  0.6201  0.6975
  146SAPE     N15952   3.603   5.073   8.105 -0.3882 -0.1817 -1.0630
  146SAPE   HN115953   3.587   5.143   8.180 -0.6823 -1.2790 -0.0613
  146SAPE   HN215954   3.512   5.028   8.082 -0.2137 -0.3586 -1.4200
  146SAPE   HN315955   3.664   4.997   8.142 -2.5901 -1.1049  0.8748
  146SAPE   C1215956   3.646   5.151   7.985 -0.1964  0.0954  0.1655
  146SAPE  H12A15957   3.673   5.069   7.915 -1.5672 -0.0728 -0.2097
  146SAPE  H12B15958   3.733   5.213   8.012  0.9171 -1.1671 -0.3952
  146SAPE   C1115959   3.531   5.243   7.931  0.0016 -0.7093 -0.0595
  146SAPE  H11A15960   3.458   5.179   7.876 -1.2474  0.6895 -0.0768
  146SAPE  H11B15961   3.585   5.309   7.860  1.7888 -1.8185  0.2141
  146SAPE     P15962   3.519   5.433   8.117  0.2183  0.2464 -0.5675
  146SAPE   O1315963   3.410   5.465   8.217  0.1857 -0.3416  0.0214
  146SAPE   O1415964   3.649   5.400   8.170 -0.2006 -0.2895  0.2669
  146SAPE   O1215965   3.465   5.308   8.040 -0.2790  0.1435 -0.5045
  146SAPE   O1115966   3.531   5.543   8.011 -0.6247 -0.1395  0.4520
  146SAPE    C115967   3.403   5.609   7.968  0.4283  0.1511 -0.2374
  146SAPE    HA15968   3.335   5.537   7.917 -1.5974  1.0881  1.0303
  146SAPE    HB15969   3.346   5.653   8.053 -0.4088  1.5087 -1.4569
  146SAPE    C215970   3.444   5.709   7.862 -0.4661  0.0156  0.2722
  146SAPE    HS15971   3.509   5.782   7.916  2.7808 -0.8287 -2.1927
  146SAPE   O2115972   3.327   5.757   7.796 -0.2149 -0.2124 -0.0943
  146SAPE   C2115973   3.333   5.887   7.767  0.5553  0.3502  0.6608
  146SAPE   O2215974   3.429   5.961   7.794  0.4272 -0.2547  0.3275
  146SAPE   C2215975   3.199   5.937   7.704  0.4497 -0.2807 -0.4084
  146SAPE   H2R15976   3.137   5.946   7.796  1.6527  3.9102  0.2140
  146SAPE   H2S15977   3.234   6.036   7.669  1.5694 -0.3027  0.5824
  146SAPE    C315978   3.547   5.653   7.759  0.2100 -0.3137  1.1273
  146SAPE    HX15979   3.514   5.572   7.690  1.7398  1.7458 -2.2822
  146SAPE    HY15980   3.636   5.609   7.807  1.3583  0.3417 -0.3191
  146SAPE   O3115981   3.581   5.761   7.669 -0.0155  0.1824  0.5439
  146SAPE   C3115982   3.675   5.848   7.718  0.8225  0.0695  0.1563
  146SAPE   O3215983   3.723   5.839   7.828 -0.3178  0.2380  0.2094
  146SAPE   C3215984   3.709   5.952   7.614  0.6207  0.5238  0.0876
  146SAPE   H2X15985   3.819   5.962   7.603  0.5495  3.4904  1.3208
  146SAPE   H2Y15986   3.673   6.051   7.647  0.2230 -0.4966  3.0175
  146SAPE   C2315987   3.131   5.830   7.611  0.4803  0.4179  0.0133
  146SAPE   H3R15988   3.021   5.849   7.611  0.5581  1.0106  1.6663
  146SAPE   H3S15989   3.147   5.727   7.646  0.5686  0.9848  1.7095
  146SAPE   C2415990   3.165   5.843   7.465  0.6259 -0.1927  0.0264
  146SAPE   H4R15991   3.175   5.947   7.426 -0.3512  0.3303  1.0960
  146SAPE   H4S15992   3.086   5.801   7.399  2.5461 -1.1543 -1.7636
  146SAPE   C2515993   3.287   5.769   7.440 -0.5812 -0.2855 -0.4642
  146SAPE   H5R15994   3.355   5.779   7.525 -1.4932  0.3002  0.2129
  146SAPE   C2615995   3.332   5.710   7.333 -0.1522 -0.0040  1.0315
  146SAPE   H6R15996   3.422   5.648   7.342  0.8075  1.1716 -0.0951
  146SAPE   C2715997   3.248   5.675   7.210 -0.9810 -0.2510  0.2856
  146SAPE   H7R15998   3.152   5.729   7.206  0.1561  1.9316  0.9372
  146SAPE   H7S15999   3.220   5.568   7.214  1.3872 -0.9072  1.2303
  146SAPE   C2816000   3.321   5.709   7.082  0.1022  0.0509  0.1195
  146SAPE   H8R16001   3.397   5.788   7.087 -1.0963  1.1930  1.4134
  146SAPE   C2916002   3.299   5.655   6.962  0.6071  1.2895 -0.4689
  146SAPE   H9R16003   3.358   5.682   6.873  1.7145 -0.9890 -0.4863
  146SAPE  C21016004   3.208   5.537   6.929 -0.3160  0.2358 -0.1447
  146SAPE  H10R16005   3.155   5.488   7.014 -0.3891  0.4941 -0.0412
  146SAPE  H10S16006   3.281   5.463   6.889 -0.6685 -0.7088  0.8908
  146SAPE  C21116007   3.095   5.546   6.831 -0.0402 -0.0790  0.2600
  146SAPE  H11R16008   2.997   5.525   6.877  0.6157  0.1102  1.8103
  146SAPE  C21216009   3.112   5.545   6.697  0.0912  0.2353  0.3529
  146SAPE  H12R16010   3.030   5.566   6.627  1.4534 -0.9041 -1.6771
  146SAPE  C21316011   3.243   5.563   6.619 -0.7749 -0.4050 -0.1918
  146SAPE  H13R16012   3.327   5.537   6.688  0.4279  2.5528 -0.4251
  146SAPE  H13S16013   3.263   5.670   6.600  1.1062 -0.3644  1.6595
  146SAPE  C21416014   3.249   5.477   6.493 -0.4232 -0.8753 -0.0156
  146SAPE  H14R16015   3.297   5.380   6.510 -1.0356 -1.5878 -2.0003
  146SAPE  C21516016   3.214   5.516   6.371 -0.4082  0.3083 -0.6612
  146SAPE  H15R16017   3.244   5.452   6.287  0.7881  1.7395 -1.3664
  146SAPE  C21616018   3.142   5.640   6.327  0.6191 -0.2201 -0.6840
  146SAPE  H16R16019   3.213   5.722   6.351  2.5454 -1.8333 -0.6130
  146SAPE  H16S16020   3.043   5.646   6.377  0.6972 -0.2414 -0.5263
  146SAPE  C21716021   3.111   5.649   6.175 -0.6437  0.6586 -0.5641
  146SAPE  H17R16022   3.049   5.741   6.162  1.1725  2.1321  0.7042
  146SAPE  H17S16023   3.057   5.563   6.130 -2.9315  1.6025  0.2044
  146SAPE  C21816024   3.226   5.684   6.073 -0.3065 -0.0230 -0.6735
  146SAPE  H18R16025   3.304   5.608   6.096  0.7395  1.6755  1.8270
  146SAPE  H18S16026   3.264   5.784   6.103  0.8533 -0.7252  0.2929
  146SAPE  C21916027   3.175   5.690   5.927  0.1073  0.7946 -0.2251
  146SAPE  H19R16028   3.103   5.773   5.915  0.6435  1.1785 -0.8307
  146SAPE  H19S16029   3.125   5.595   5.900 -0.0229  1.1641 -1.3362
  146SAPE  C22016030   3.293   5.706   5.829  0.4395  0.4283  0.2360
  146SAPE  H20R16031   3.363   5.621   5.840 -0.6863 -0.3955  1.3014
  146SAPE  H20S16032   3.338   5.806   5.849  1.4995 -0.2391  1.2949
  146SAPE  H20T16033   3.272   5.715   5.720 -1.2882  0.5970  0.5435
  146SAPE   C3316034   3.652   5.937   7.465 -0.0407  0.0014 -0.3639
  146SAPE   H3X16035   3.546   5.970   7.458 -1.0430 -2.6157  0.9810
  146SAPE   H3Y16036   3.651   5.833   7.426 -1.1421 -0.0042 -0.3418
  146SAPE   C3416037   3.740   6.008   7.367  0.1695 -0.9350 -0.2497
  146SAPE   H4X16038   3.841   5.962   7.364  0.2539 -0.7437 -0.3854
  146SAPE   H4Y16039   3.747   6.115   7.395  1.1350 -1.3614  1.2435
  146SAPE   C3516040   3.685   6.002   7.227  0.6117  0.2339  0.4657
  146SAPE   H5X16041   3.597   6.067   7.208 -0.2560 -1.6391 -2.7102
  146SAPE   H5Y16042   3.638   5.903   7.207  0.5819  0.3074  0.1551
  146SAPE   C3616043   3.778   6.031   7.104  0.2528 -0.1862  0.2270
  146SAPE   H6X16044   3.864   5.962   7.118  1.7718  1.9294  2.4122
  146SAPE   H6Y16045   3.823   6.131   7.126  1.4436 -0.0465 -2.4547
  146SAPE   C3716046   3.706   6.032   6.975 -0.1009  0.1703 -0.5548
  146SAPE   H7X16047   3.745   6.119   6.916  2.6167 -1.6675 -1.7049
  146SAPE   H7Y16048   3.597   6.042   6.994 -0.2221 -2.4660  0.4367
  146SAPE   C3816049   3.723   5.907   6.897  0.3223 -0.0004  0.5403
  146SAPE   H8X16050   3.673   5.827   6.956 -0.6427  0.0189 -0.2292
  146SAPE   H8Y16051   3.828   5.872   6.908  0.5638  0.4781 -0.1655
  146SAPE   C3916052   3.676   5.916   6.749  0.3619 -0.1379  0.4494
  146SAPE   H9X16053   3.667   5.813   6.710  1.4359 -0.2206  0.3917
  146SAPE   H9Y16054   3.760   5.964   6.694 -0.3541  1.1201  0.3999
  146SAPE  C31016055   3.549   5.998   6.725 -0.1845 -0.2680 -0.4331
  146SAPE  H10X16056   3.566   6.105   6.747 -0.3191  0.1803 -2.3431
  146SAPE  H10Y16057   3.481   5.953   6.800  0.4865  1.7330  1.4779
  146SAPE  C31116058   3.498   5.986   6.585  0.2599 -0.6481 -0.1663
  146SAPE  H11X16059   3.482   5.878   6.569  0.6060 -0.9784  1.5251
  146SAPE  H11Y16060   3.577   6.024   6.517  0.5094 -0.3174  0.3014
  146SAPE  C31216061   3.369   6.067   6.559  0.4295 -0.4619  0.0813
  146SAPE  H12X16062   3.376   6.169   6.602 -1.1057 -0.7074  0.9564
  146SAPE  H12Y16063   3.298   6.017   6.627  1.8835 -0.0816  1.9641
  146SAPE  C31316064   3.316   6.052   6.413 -0.0258  1.0521 -0.4255
  146SAPE  H13X16065   3.327   5.946   6.384 -0.2838  0.6885  0.7594
  146SAPE  H13Y16066   3.395   6.101   6.351 -0.6197  1.5611 -0.8000
  146SAPE  C31416067   3.189   6.131   6.388  0.1189 -1.0010 -0.4102
  146SAPE  H14X16068   3.208   6.240   6.386  1.2418 -1.1271  1.3331
  146SAPE  H14Y16069   3.114   6.099   6.464  0.2924 -1.9638 -0.6359
  146SAPE  C31516070   3.137   6.100   6.253  0.5013 -0.3545  0.0249
  146SAPE  H15X16071   3.116   5.991   6.246 -1.2125 -0.2643  2.4072
  146SAPE  H15Y16072   3.216   6.125   6.179  0.9788 -0.8601  0.3568
  146SAPE  C31616073   3.021   6.192   6.218  0.0126  0.3144 -0.1905
  146SAPE  H16X16074   3.037   6.296   6.254 -1.1214  1.2679 -2.2653
  146SAPE  H16Y16075   2.937   6.164   6.284  1.0057  0.2969  1.0992
  146SAPE  C31716076   2.961   6.184   6.074 -0.7006 -0.4996 -0.0690
  146SAPE  H17X16077   2.923   6.082   6.050  1.6744 -1.1544 -1.3558
  146SAPE  H17Y16078   3.053   6.200   6.015  0.4841  1.0281  2.0974
  146SAPE  C31816079   2.850   6.293   6.061 -0.1525 -0.5083  0.1813
  146SAPE  H18X16080   2.898   6.388   6.091 -1.5350  0.0622  0.6864
  146SAPE  H18Y16081   2.776   6.259   6.137  0.4454 -0.1390  0.9504
  146SAPE  H18Z16082   2.806   6.298   5.959  0.7545  1.5970 -0.1386
  147SAPE     N16083   6.741   4.281   8.031 -0.0569  0.0257 -0.0042
  147SAPE   HN116084   6.676   4.315   8.105 -1.8001 -0.8026 -1.1056
  147SAPE   HN216085   6.824   4.237   8.076 -0.0760 -0.0516 -0.0447
  147SAPE   HN316086   6.774   4.351   7.961 -3.2405  0.9821 -0.7388
  147SAPE   C1216087   6.667   4.160   7.966  0.6860 -0.6514  0.3148
  147SAPE  H12A16088   6.604   4.199   7.883 -1.0779 -4.1285 -0.1847
  147SAPE  H12B16089   6.596   4.118   8.040  1.2073 -0.9910  0.6293
  147SAPE   C1116090   6.757   4.049   7.916 -0.0267  0.1131  0.3024
  147SAPE  H11A16091   6.807   4.090   7.825  0.6999 -0.5484  0.3947
  147SAPE  H11B16092   6.696   3.960   7.889  0.8534 -0.6888  0.9134
  147SAPE     P16093   6.997   4.048   8.017 -0.0586 -0.2542 -0.2349
  147SAPE   O1316094   7.009   4.183   8.076  0.3369  0.0189 -0.0174
  147SAPE   O1416095   7.085   3.947   8.079  0.5423 -0.2252 -0.4020
  147SAPE   O1216096   6.842   4.005   8.015 -0.4388  0.2260 -0.0964
  147SAPE   O1116097   7.028   4.058   7.862  0.6100  0.3016 -0.0343
  147SAPE    C116098   7.041   3.934   7.785 -0.5385 -0.5550 -0.7771
  147SAPE    HA16099   7.127   3.871   7.817 -0.7384 -1.6872 -2.3315
  147SAPE    HB16100   6.950   3.874   7.809  1.5559 -3.1297  1.3043
  147SAPE    C216101   7.065   3.959   7.633 -0.3754  0.0003  0.2527
  147SAPE    HS16102   7.066   3.859   7.584  2.1274 -0.0661  0.3534
  147SAPE   O2116103   7.193   4.025   7.611 -0.7193 -0.2178  0.2595
  147SAPE   C2116104   7.261   3.991   7.503  0.0048  0.2117 -0.3503
  147SAPE   O2216105   7.233   3.908   7.418 -0.2207  0.2662  0.0545
  147SAPE   C2216106   7.393   4.080   7.504  0.2256 -0.3295 -0.0779
  147SAPE   H2R16107   7.408   4.140   7.596  2.9390 -0.8141 -0.1260
  147SAPE   H2S16108   7.485   4.018   7.494  0.0474 -0.8408  1.1636
  147SAPE    C316109   6.951   4.043   7.573 -0.4257  0.0893 -0.4657
  147SAPE    HX16110   6.942   4.137   7.631  0.4026  0.4877 -0.9494
  147SAPE    HY16111   6.854   3.990   7.584  0.2179 -1.0353  0.0228
  147SAPE   O3116112   6.975   4.061   7.436  0.3534  0.0457 -0.4119
  147SAPE   C3116113   6.954   4.180   7.379 -0.4762 -0.5760 -0.3260
  147SAPE   O3216114   6.929   4.282   7.441  0.5855  0.2904 -0.4487
  147SAPE   C3216115   6.970   4.174   7.229  0.0325 -0.9584  0.0890
  147SAPE   H2X16116   6.894   4.102   7.191 -1.1190 -0.0651  0.6611
  147SAPE   H2Y16117   7.072   4.134   7.210 -0.6122 -1.6074 -2.3383
  147SAPE   C2316118   7.399   4.174   7.387 -0.8036 -0.4411 -0.4405
  147SAPE   H3R16119   7.369   4.278   7.411 -1.8690 -1.2482  2.1094
  147SAPE   H3S16120   7.337   4.137   7.303 -0.7683 -0.5487 -0.4205
  147SAPE   C2416121   7.542   4.188   7.325 -0.4959 -0.2249 -0.7892
  147SAPE   H4R16122   7.569   4.090   7.280 -1.2438  0.0704 -1.9216
  147SAPE   H4S16123   7.600   4.219   7.415 -1.7700  1.6671 -0.5491
  147SAPE   C2516124   7.554   4.300   7.227 -0.0381  0.1901  0.1108
  147SAPE   H5R16125   7.559   4.401   7.272 -2.0409  0.2401  0.2995
  147SAPE   C2616126   7.559   4.295   7.095  0.4420  0.3434 -0.0670
  147SAPE   H6R16127   7.587   4.386   7.038  1.4230 -0.1822 -0.4429
  147SAPE   C2716128   7.555   4.171   7.003 -0.6809  0.4789 -0.6159
  147SAPE   H7R16129   7.580   4.078   7.058 -2.8445  0.3975  0.3353
  147SAPE   H7S16130   7.632   4.184   6.923  2.1896 -0.6131  1.7688
  147SAPE   C2816131   7.413   4.168   6.945 -0.3166 -0.2491  0.1528
  147SAPE   H8R16132   7.332   4.199   7.013 -1.1518  1.4170 -1.5354
  147SAPE   C2916133   7.385   4.149   6.816  0.0468  0.2014  0.2407
  147SAPE   H9R16134   7.279   4.145   6.787 -0.2190 -0.3918  1.2473
  147SAPE  C21016135   7.481   4.103   6.710 -0.2153  0.1941  0.6888
  147SAPE  H10R16136   7.427   4.027   6.650 -0.2200  2.3211 -2.1845
  147SAPE  H10S16137   7.578   4.070   6.753  0.4508 -1.6334 -1.9761
  147SAPE  C21116138   7.518   4.207   6.607 -0.1796  0.0345  0.1821
  147SAPE  H11R16139   7.568   4.296   6.649 -0.2411 -0.2882  0.9574
  147SAPE  C21216140   7.510   4.209   6.471 -0.6329  0.6071  0.7514
  147SAPE  H12R16141   7.540   4.302   6.422 -2.9621  2.2904  2.2782
  147SAPE  C21316142   7.446   4.100   6.390  0.9344 -0.3027  0.8721
  147SAPE  H13R16143   7.440   4.005   6.448 -2.3477  1.0525  3.0540
  147SAPE  H13S16144   7.514   4.078   6.305  1.4126  2.5009  0.4416
  147SAPE  C21416145   7.306   4.148   6.336 -0.2368  0.1467  1.0525
  147SAPE  H14R16146   7.233   4.147   6.418 -0.5098 -0.7097  0.8030
  147SAPE  C21516147   7.260   4.199   6.217 -0.0334 -0.5292 -0.6118
  147SAPE  H15R16148   7.157   4.235   6.200  0.7963  1.2542 -2.2803
  147SAPE  C21616149   7.348   4.198   6.093 -0.7015 -0.0488 -0.5979
  147SAPE  H16R16150   7.304   4.126   6.021 -0.1668 -1.8027  0.7438
  147SAPE  H16S16151   7.453   4.170   6.117 -0.5551  0.0814 -1.0792
  147SAPE  C21716152   7.353   4.338   6.024  0.8664  0.0913  0.1440
  147SAPE  H17R16153   7.369   4.416   6.101 -0.5343  0.6185 -0.0638
  147SAPE  H17S16154   7.269   4.361   5.955  1.5480  2.5097  0.0292
  147SAPE  C21816155   7.459   4.338   5.924  0.1634 -0.4214 -0.7746
  147SAPE  H18R16156   7.554   4.337   5.981  0.7246 -0.9433 -1.6803
  147SAPE  H18S16157   7.469   4.439   5.879 -1.3040 -0.2061 -0.6660
  147SAPE  C21916158   7.462   4.220   5.826 -0.1170 -0.4219 -0.0659
  147SAPE  H19R16159   7.461   4.128   5.888  1.6510 -1.3491 -1.3446
  147SAPE  H19S16160   7.564   4.237   5.786  0.2705  2.0204  1.7651
  147SAPE  C22016161   7.354   4.224   5.716  0.1611  0.0192  0.1468
  147SAPE  H20R16162   7.393   4.221   5.612 -2.4868 -0.7312 -0.9055
  147SAPE  H20S16163   7.290   4.314   5.731  1.5636  1.1401 -0.4073
  147SAPE  H20T16164   7.292   4.132   5.717  0.8269 -0.4464 -0.3919
  147SAPE   C3316165   6.949   4.321   7.165  1.0604 -0.9432 -0.2335
  147SAPE   H3X16166   7.033   4.380   7.207  0.3851  0.3634 -0.6614
  147SAPE   H3Y16167   6.856   4.368   7.205  1.5932 -1.6215  1.9271
  147SAPE   C3416168   6.970   4.319   7.015  0.1670 -0.5488 -0.0964
  147SAPE   H4X16169   7.056   4.254   6.986  0.1023 -1.0382  0.7828
  147SAPE   H4Y16170   6.992   4.422   6.978  0.5226 -1.1871 -1.7674
  147SAPE   C3516171   6.845   4.261   6.941 -0.0509  0.2961 -0.3455
  147SAPE   H5X16172   6.763   4.330   6.969 -0.9075 -0.0048 -1.9808
  147SAPE   H5Y16173   6.809   4.166   6.986  0.9181  0.4795  0.8793
  147SAPE   C3616174   6.868   4.251   6.789  0.1973  0.0322  0.1166
  147SAPE   H6X16175   6.964   4.197   6.775 -0.4493 -1.3106  0.6064
  147SAPE   H6Y16176   6.870   4.353   6.746  0.7091  0.8786  2.0875
  147SAPE   C3716177   6.759   4.175   6.713  0.1836  0.1471 -0.9673
  147SAPE   H7X16178   6.661   4.203   6.758  0.0400 -1.1142 -0.4545
  147SAPE   H7Y16179   6.768   4.070   6.749  1.3434 -0.1579 -2.0968
  147SAPE   C3816180   6.755   4.184   6.565 -0.0790  0.9801  0.3657
  147SAPE   H8X16181   6.846   4.138   6.521  1.1855 -0.6064  4.1907
  147SAPE   H8Y16182   6.749   4.289   6.531 -1.2489 -0.1928 -3.7093
  147SAPE   C3916183   6.632   4.113   6.503 -0.4801  0.0542  0.2763
  147SAPE   H9X16184   6.542   4.158   6.549 -0.2057  3.0936 -1.8443
  147SAPE   H9Y16185   6.659   4.008   6.526  0.4301 -0.3571 -2.2661
  147SAPE  C31016186   6.632   4.136   6.347 -0.6400  0.0464 -0.3676
  147SAPE  H10X16187   6.729   4.109   6.299 -0.6777  1.0517 -1.0468
  147SAPE  H10Y16188   6.616   4.244   6.323  0.3046  0.4393  0.6414
  147SAPE  C31116189   6.529   4.057   6.271 -0.1610 -0.2777  0.4211
  147SAPE  H11X16190   6.428   4.093   6.301 -0.3715  1.5405 -2.1083
  147SAPE  H11Y16191   6.542   3.950   6.296  0.8435  0.3774  2.9485
  147SAPE  C31216192   6.534   4.092   6.116  0.6901  0.0855 -0.2740
  147SAPE  H12X16193   6.462   4.022   6.069 -1.8161  1.7787  0.8459
  147SAPE  H12Y16194   6.641   4.075   6.091  0.9413 -0.5715  1.1615
  147SAPE  C31316195   6.493   4.242   6.079 -0.4237 -0.2437  0.3918
  147SAPE  H13X16196   6.540   4.319   6.144 -0.3295 -0.9194  1.1385
  147SAPE  H13Y16197   6.390   4.251   6.119 -0.0633  0.7810  1.1446
  147SAPE  C31416198   6.504   4.260   5.932  0.7252  0.7270  0.6557
  147SAPE  H14X16199   6.605   4.258   5.885  0.4492 -1.8304  0.0052
  147SAPE  H14Y16200   6.465   4.363   5.916  2.1485  1.0737 -0.8583
  147SAPE  C31516201   6.425   4.163   5.840  0.5913 -0.3356 -0.2263
  147SAPE  H15X16202   6.322   4.154   5.879  0.9307 -0.4051  0.6794
  147SAPE  H15Y16203   6.474   4.064   5.835  2.1445  0.3144  1.2584
  147SAPE  C31616204   6.421   4.217   5.702  0.3028  0.4449  0.2789
  147SAPE  H16X16205   6.523   4.228   5.659  0.0777 -1.5663 -0.8932
  147SAPE  H16Y16206   6.363   4.311   5.710  0.1261  0.5633 -1.8155
  147SAPE  C31716207   6.338   4.128   5.618 -0.0638  0.2837  0.2814
  147SAPE  H17X16208   6.325   4.188   5.525  1.9513  0.2697 -0.0654
  147SAPE  H17Y16209   6.235   4.116   5.656 -0.9931  0.7546 -1.8893
  147SAPE  C31816210   6.408   3.997   5.589 -0.3572 -0.7106  0.6440
  147SAPE  H18X16211   6.506   4.020   5.542  0.1634 -1.9907  1.0584
  147SAPE  H18Y16212   6.341   3.934   5.525 -0.5288  0.5817 -0.4994
  147SAPE  H18Z16213   6.438   3.947   5.684  2.7541  2.0052  1.2384
  148SAPE     N16214   5.139   4.844   8.355 -0.0251 -0.0765 -0.0075
  148SAPE   HN116215   5.061   4.889   8.408  0.7902 -0.8975  1.9573
  148SAPE   HN216216   5.112   4.744   8.338  0.2473  0.0872 -1.5775
  148SAPE   HN316217   5.224   4.846   8.415 -1.1834 -2.1430  1.8863
  148SAPE   C1216218   5.142   4.908   8.219  0.0505  0.5029  0.5959
  148SAPE  H12A16219   5.229   4.878   8.156 -0.2228  2.7603 -0.9813
  148SAPE  H12B16220   5.146   5.019   8.229 -0.7378  0.5520  0.3843
  148SAPE   C1116221   5.013   4.877   8.140 -0.4068 -0.0483  0.3607
  148SAPE  H11A16222   5.023   4.921   8.039 -0.6763  0.0871  0.3907
  148SAPE  H11B16223   4.922   4.931   8.174 -0.2861 -0.5838  1.5906
  148SAPE     P16224   4.865   4.663   8.164  0.2573 -0.0437  0.5924
  148SAPE   O1316225   4.867   4.524   8.104 -0.2252 -0.3048  0.2979
  148SAPE   O1416226   4.857   4.658   8.315 -0.5265  0.2327  0.8146
  148SAPE   O1216227   4.999   4.738   8.127 -0.7734  0.1962  0.3396
  148SAPE   O1116228   4.745   4.759   8.103 -0.2400  0.5583 -0.0492
  148SAPE    C116229   4.678   4.722   7.979 -0.0004 -0.9133 -0.2621
  148SAPE    HA16230   4.682   4.615   7.951  0.4600 -0.7279 -0.9415
  148SAPE    HB16231   4.571   4.740   8.004 -0.3951 -2.1909 -0.9369
  148SAPE    C216232   4.725   4.811   7.870  0.1698  0.2462 -0.3184
  148SAPE    HS16233   4.658   4.794   7.783  0.6804  2.6716 -1.2690
  148SAPE   O2116234   4.865   4.787   7.839 -0.3552  0.5336  0.3934
  148SAPE   C2116235   4.895   4.667   7.798 -0.6774 -0.4504 -0.1100
  148SAPE   O2216236   4.819   4.584   7.754  0.1670  0.3336  0.0861
  148SAPE   C2216237   5.045   4.656   7.795  0.2103 -0.0231 -0.4780
  148SAPE   H2R16238   5.075   4.707   7.701  1.9814 -1.3032 -0.6487
  148SAPE   H2S16239   5.087   4.704   7.886  2.1050 -2.1264 -0.1637
  148SAPE    C316240   4.716   4.957   7.883 -0.0393 -0.4608 -0.4367
  148SAPE    HX16241   4.788   4.982   7.964 -0.2125  0.4545 -0.5614
  148SAPE    HY16242   4.615   4.988   7.916 -0.1608 -1.3860  0.1175
  148SAPE   O3116243   4.760   5.015   7.761  0.3037 -0.3289 -0.8161
  148SAPE   C3116244   4.667   5.036   7.670 -0.3141  0.6327 -0.1320
  148SAPE   O3216245   4.549   5.014   7.677  0.5051 -0.1039 -0.9193
  148SAPE   C3216246   4.743   5.083   7.537 -0.3342  0.5167 -0.3977
  148SAPE   H2X16247   4.854   5.080   7.549 -0.0390 -1.0538 -2.7589
  148SAPE   H2Y16248   4.707   5.186   7.516 -0.7382  0.1647 -1.5221
  148SAPE   C2316249   5.105   4.513   7.790 -0.1109  0.4351 -0.5548
  148SAPE   H3R16250   5.035   4.454   7.852 -0.2742  0.7559 -0.4278
  148SAPE   H3S16251   5.207   4.526   7.832  0.6024  0.9136 -2.3376
  148SAPE   C2416252   5.127   4.458   7.650  0.2078  0.3889 -0.7694
  148SAPE   H4R16253   5.026   4.450   7.604 -1.3111  2.1682  1.9845
  148SAPE   H4S16254   5.160   4.357   7.680  0.9300  0.6125 -0.8025
  148SAPE   C2516255   5.230   4.540   7.578  0.4015  0.6959 -0.5462
  148SAPE   H5R16256   5.324   4.548   7.634 -1.2677 -0.6023  2.7379
  148SAPE   C2616257   5.223   4.600   7.452  0.1511  0.3803  0.5581
  148SAPE   H6R16258   5.307   4.652   7.404  0.2567 -1.7352 -1.7701
  148SAPE   C2716259   5.100   4.602   7.364  0.1344 -0.0840 -0.5803
  148SAPE   H7R16260   5.019   4.557   7.426  1.3702 -0.0890  1.1232
  148SAPE   H7S16261   5.114   4.529   7.282 -0.2506  0.1876 -0.8923
  148SAPE   C2816262   5.061   4.738   7.317 -0.4944 -0.3537 -0.5344
  148SAPE   H8R16263   5.063   4.818   7.393 -0.5129  0.8158 -1.7191
  148SAPE   C2916264   5.028   4.778   7.197 -0.1024 -0.0812  0.4965
  148SAPE   H9R16265   4.991   4.881   7.199 -1.5380 -0.5052 -1.2229
  148SAPE  C21016266   5.012   4.705   7.064 -0.7509  0.0893 -0.0626
  148SAPE  H10R16267   4.913   4.656   7.058 -0.4885 -0.2714 -2.3031
  148SAPE  H10S16268   5.083   4.620   7.068  0.7139  1.2450 -0.3668
  148SAPE  C21116269   5.042   4.799   6.944 -0.0108 -0.8297  0.7005
  148SAPE  H11R16270   4.994   4.897   6.957 -0.9828 -1.4230  1.8471
  148SAPE  C21216271   5.097   4.765   6.824  0.5004 -0.6005 -0.1879
  148SAPE  H12R16272   5.116   4.843   6.749  0.2648 -1.3720 -1.0775
  148SAPE  C21316273   5.156   4.631   6.798  0.4359 -0.1684 -0.2599
  148SAPE  H13R16274   5.217   4.597   6.884  0.7643 -2.0769 -1.1922
  148SAPE  H13S16275   5.235   4.639   6.720  2.4481  0.4201  1.7377
  148SAPE  C21416276   5.049   4.531   6.760 -0.5958  0.2516 -0.0439
  148SAPE  H14R16277   5.010   4.475   6.846  0.6982 -0.6629 -0.0294
  148SAPE  C21516278   4.996   4.511   6.636  0.2941  0.0735 -0.1584
  148SAPE  H15R16279   4.921   4.431   6.637 -0.6571  0.9520 -0.1754
  148SAPE  C21616280   5.034   4.580   6.507  0.3209 -0.1263  0.0714
  148SAPE  H16R16281   5.122   4.647   6.503  1.2035 -1.3228 -2.0420
  148SAPE  H16S16282   4.943   4.638   6.479  1.2402 -0.0652 -3.1816
  148SAPE  C21716283   5.067   4.489   6.386  0.1033 -0.2209  0.3124
  148SAPE  H17R16284   4.976   4.434   6.353  1.8027 -2.7472 -0.4696
  148SAPE  H17S16285   5.145   4.419   6.425 -0.2148 -1.0074 -0.4199
  148SAPE  C21816286   5.129   4.556   6.259 -0.3759 -0.2132  0.0604
  148SAPE  H18R16287   5.185   4.648   6.287 -0.0296  0.1598 -1.7869
  148SAPE  H18S16288   5.043   4.596   6.202 -1.3944  0.5830  2.0352
  148SAPE  C21916289   5.230   4.483   6.169  1.1782  0.0727  0.4103
  148SAPE  H19R16290   5.183   4.397   6.118 -0.0153  0.7045  0.4081
  148SAPE  H19S16291   5.317   4.450   6.231  0.8673 -3.1023 -0.6760
  148SAPE  C22016292   5.265   4.582   6.061  0.4814  0.2440 -0.5289
  148SAPE  H20R16293   5.341   4.535   5.995  1.3654 -1.6919  1.6991
  148SAPE  H20S16294   5.302   4.676   6.108  0.9787  0.4952 -1.4108
  148SAPE  H20T16295   5.171   4.593   6.003 -0.8277 -2.3074  0.9293
  148SAPE   C3316296   4.695   5.009   7.410 -0.1605  0.4445 -0.2087
  148SAPE   H3X16297   4.584   5.016   7.409 -0.2228 -0.3127  0.6612
  148SAPE   H3Y16298   4.732   4.905   7.424 -2.2356 -0.1554  1.3389
  148SAPE   C3416299   4.758   5.083   7.287  0.1844 -0.0643 -0.0252
  148SAPE   H4X16300   4.866   5.082   7.313 -0.1401 -1.0876  1.4360
  148SAPE   H4Y16301   4.713   5.184   7.279 -1.5864 -0.9547 -3.8980
  148SAPE   C3516302   4.736   5.006   7.164  0.0174 -0.5540  0.0035
  148SAPE   H5X16303   4.631   4.973   7.155 -0.1510  0.1032 -0.5343
  148SAPE   H5Y16304   4.774   4.902   7.176  1.8768  0.2543  1.5198
  148SAPE   C3616305   4.790   5.084   7.041 -0.1973 -0.0270 -0.2595
  148SAPE   H6X16306   4.901   5.088   7.054 -0.1428 -0.3265 -0.6205
  148SAPE   H6Y16307   4.753   5.189   7.043  0.0172  0.0720  2.6349
  148SAPE   C3716308   4.756   5.018   6.907  0.6022 -0.6762 -0.0985
  148SAPE   H7X16309   4.646   5.011   6.893  0.8675 -1.0442 -2.3916
  148SAPE   H7Y16310   4.796   4.914   6.902  1.8998 -0.1601 -1.3773
  148SAPE   C3816311   4.824   5.092   6.785  0.5534 -0.1166  0.5580
  148SAPE   H8X16312   4.935   5.089   6.796  0.7038  1.0240 -0.4079
  148SAPE   H8Y16313   4.810   5.202   6.783  0.2231 -0.1106  2.2779
  148SAPE   C3916314   4.793   5.023   6.649  0.3190  0.4601 -0.4441
  148SAPE   H9X16315   4.685   5.044   6.633 -0.0196  1.5258  2.6245
  148SAPE   H9Y16316   4.813   4.916   6.671  1.4752  0.6470 -0.5067
  148SAPE  C31016317   4.866   5.066   6.520 -0.3481  0.6493 -0.2362
  148SAPE  H10X16318   4.976   5.067   6.535 -0.3631 -2.6436  0.9740
  148SAPE  H10Y16319   4.834   5.171   6.499  0.9579  1.0871 -0.1172
  148SAPE  C31116320   4.832   4.967   6.409 -0.1056  0.3882 -0.8211
  148SAPE  H11X16321   4.722   4.955   6.424 -0.0474  1.0871  0.2681
  148SAPE  H11Y16322   4.880   4.873   6.444  2.0905  1.7224 -0.0773
  148SAPE  C31216323   4.876   5.012   6.276  0.6486  0.2295 -0.4435
  148SAPE  H12X16324   4.978   5.055   6.284  1.2623 -1.0209 -1.2770
  148SAPE  H12Y16325   4.810   5.093   6.240  1.7352  0.3658 -2.2659
  148SAPE  C31316326   4.879   4.891   6.185 -0.0949 -0.0887 -0.6044
  148SAPE  H13X16327   4.795   4.821   6.206 -0.8483  1.1485  0.6732
  148SAPE  H13Y16328   4.974   4.839   6.213  2.2377  1.9143 -4.0533
  148SAPE  C31416329   4.909   4.916   6.041 -0.3217  0.1323 -0.0985
  148SAPE  H14X16330   4.999   4.981   6.033  0.6895 -1.3885 -1.6418
  148SAPE  H14Y16331   4.821   4.961   5.990  1.2254  2.2252 -1.0824
  148SAPE  C31516332   4.934   4.786   5.952 -0.2717 -0.4075 -0.2118
  148SAPE  H15X16333   4.858   4.706   5.963  0.8815 -1.7320 -1.3431
  148SAPE  H15Y16334   5.019   4.739   6.005 -0.0714  0.6329  0.4232
  148SAPE  C31616335   4.940   4.822   5.808 -0.5051  0.6572 -0.5617
  148SAPE  H16X16336   4.992   4.747   5.744  0.4948  0.7313  0.1304
  148SAPE  H16Y16337   5.002   4.913   5.792  1.3754 -0.3499  0.6575
  148SAPE  C31716338   4.802   4.827   5.750  0.2973 -0.0321 -0.2359
  148SAPE  H17X16339   4.747   4.911   5.798 -0.7127 -0.4026 -0.7191
  148SAPE  H17Y16340   4.744   4.733   5.759  0.9435 -0.5504 -1.3364
  148SAPE  C31816341   4.793   4.874   5.602  0.5345 -0.7487 -0.3064
  148SAPE  H18X16342   4.868   4.828   5.535  0.0252  2.1094 -3.0735
  148SAPE  H18Y16343   4.815   4.983   5.597  2.7750 -1.1331 -0.0129
  148SAPE  H18Z16344   4.691   4.862   5.558  1.7572  1.1973 -4.1299
  149SAPE     N16345   4.575   2.485   8.137  0.4264  0.1391  0.7648
  149SAPE   HN116346   4.674   2.508   8.162  0.1582  1.0550  0.9988
  149SAPE   HN216347   4.526   2.576   8.133  1.1483  0.5543 -4.1066
  149SAPE   HN316348   4.532   2.426   8.211 -2.0981  0.7155 -0.1526
  149SAPE   C1216349   4.571   2.430   8.002  0.2481 -0.1097 -1.0003
  149SAPE  H12A16350   4.670   2.448   7.955  0.6471 -2.3396 -1.1094
  149SAPE  H12B16351   4.507   2.504   7.948  0.0850  0.9646  0.5863
  149SAPE   C1116352   4.516   2.284   8.008  0.0577 -0.1803 -0.6595
  149SAPE  H11A16353   4.581   2.207   8.054  1.0597  0.1936 -1.3880
  149SAPE  H11B16354   4.506   2.252   7.902 -1.0237 -1.5165 -0.1755
  149SAPE     P16355   4.357   2.225   8.205  0.2084  0.3329  0.1115
  149SAPE   O1316356   4.459   2.278   8.297  0.4727  0.4694  0.2519
  149SAPE   O1416357   4.215   2.235   8.245 -0.1141 -0.2281 -0.1200
  149SAPE   O1216358   4.381   2.282   8.058 -0.1357  0.2642  0.1369
  149SAPE   O1116359   4.390   2.075   8.169  0.4678  0.4694 -0.7597
  149SAPE    C116360   4.280   1.983   8.126 -0.6594 -0.6318 -0.8410
  149SAPE    HA16361   4.292   1.877   8.159  1.2869  0.1184  1.1575
  149SAPE    HB16362   4.186   2.016   8.174  0.4499  3.1161 -0.9309
  149SAPE    C216363   4.257   1.992   7.971  0.3253  0.1695 -0.1231
  149SAPE    HS16364   4.215   1.891   7.947 -1.3253  0.9195 -0.5543
  149SAPE   O2116365   4.373   2.019   7.895  0.4376  0.0323  0.0604
  149SAPE   C2116366   4.467   1.924   7.887  1.1619 -0.3836 -0.7706
  149SAPE   O2216367   4.447   1.809   7.924  0.0614 -0.0808 -0.2007
  149SAPE   C2216368   4.590   1.973   7.810 -0.4390  0.0794  0.4872
  149SAPE   H2R16369   4.654   2.048   7.862  0.6334 -0.1169 -0.5115
  149SAPE   H2S16370   4.664   1.893   7.790  1.4963  1.5358  1.4363
  149SAPE    C316371   4.141   2.090   7.948  0.0136  0.2953  0.0097
  149SAPE    HX16372   4.191   2.189   7.954  0.0399  0.3702 -1.1706
  149SAPE    HY16373   4.070   2.095   8.033  0.6011  1.7448  0.4374
  149SAPE   O3116374   4.083   2.093   7.812  0.4870 -0.4918  0.2720
  149SAPE   C3116375   3.982   2.006   7.811  0.6990 -0.3923  0.2223
  149SAPE   O3216376   3.949   1.943   7.911  0.3107  0.2847 -0.3208
  149SAPE   C3216377   3.901   2.013   7.676  0.5403  1.0371  0.8901
  149SAPE   H2X16378   3.968   2.053   7.597 -1.5776  3.2286  0.0696
  149SAPE   H2Y16379   3.823   2.093   7.675  0.5771  1.1156  2.3884
  149SAPE   C2316380   4.553   2.039   7.680  0.1039 -0.1908  0.4664
  149SAPE   H3R16381   4.645   2.084   7.638 -0.4402  0.5711  0.0538
  149SAPE   H3S16382   4.472   2.115   7.676 -0.0569 -0.3852 -3.1473
  149SAPE   C2416383   4.512   1.939   7.566  0.3623 -0.1729 -0.7851
  149SAPE   H4R16384   4.501   1.997   7.472 -1.5156  2.2445  0.7784
  149SAPE   H4S16385   4.409   1.913   7.600 -0.8096  2.2450 -2.1867
  149SAPE   C2516386   4.596   1.823   7.534  0.4561  0.8155  0.2354
  149SAPE   H5R16387   4.608   1.768   7.629 -0.8242  0.7195  0.3518
  149SAPE   C2616388   4.663   1.781   7.424  0.1540 -0.3465 -0.6288
  149SAPE   H6R16389   4.727   1.692   7.430 -0.0066 -0.4116  4.1812
  149SAPE   C2716390   4.667   1.847   7.286 -0.4630  0.3928  0.1181
  149SAPE   H7R16391   4.768   1.823   7.248  1.8708  2.2269  4.4474
  149SAPE   H7S16392   4.665   1.958   7.284  0.1461  0.4084 -1.1833
  149SAPE   C2816393   4.556   1.799   7.186  0.3947  0.0526 -0.5651
  149SAPE   H8R16394   4.508   1.886   7.139  0.7866  1.3124  1.2278
  149SAPE   C2916395   4.530   1.669   7.150  0.3239  0.2592 -0.1540
  149SAPE   H9R16396   4.444   1.652   7.084  1.0387  1.3167 -1.4090
  149SAPE  C21016397   4.603   1.540   7.178 -0.0884  0.2440 -0.1632
  149SAPE  H10R16398   4.604   1.513   7.286  1.7055  2.3999  0.4404
  149SAPE  H10S16399   4.713   1.547   7.163 -0.0508  2.3692  0.6584
  149SAPE  C21116400   4.547   1.433   7.089  0.6348  0.1610 -0.6016
  149SAPE  H11R16401   4.488   1.355   7.138 -2.1138  2.1620 -0.5038
  149SAPE  C21216402   4.572   1.404   6.960 -0.2929 -0.4919  0.6120
  149SAPE  H12R16403   4.512   1.327   6.910 -0.1520  1.0493 -2.0709
  149SAPE  C21316404   4.661   1.478   6.863 -0.2809  0.4838 -0.1845
  149SAPE  H13R16405   4.702   1.406   6.790  1.6810  1.0152  0.3393
  149SAPE  H13S16406   4.759   1.515   6.901  1.4861 -3.8793  0.1241
  149SAPE  C21416407   4.594   1.595   6.795  0.3895  0.5361 -0.2453
  149SAPE  H14R16408   4.569   1.679   6.861  0.3799  1.3443 -1.2506
  149SAPE  C21516409   4.561   1.611   6.662  0.2704 -0.2234  0.3030
  149SAPE  H15R16410   4.514   1.707   6.638  0.1013 -0.3249  0.2249
  149SAPE  C21616411   4.585   1.518   6.547  1.7412  0.4331 -0.1975
  149SAPE  H16R16412   4.483   1.503   6.505  1.3901  0.1649  0.7249
  149SAPE  H16S16413   4.619   1.420   6.587 -0.7804  0.4281  2.2717
  149SAPE  C21716414   4.693   1.570   6.447  0.2920 -0.4022  0.4628
  149SAPE  H17R16415   4.792   1.559   6.496  0.4159 -2.7674 -0.1833
  149SAPE  H17S16416   4.672   1.672   6.407  1.1346 -0.7665 -0.9883
  149SAPE  C21816417   4.719   1.490   6.321  0.7080  0.1344 -0.1013
  149SAPE  H18R16418   4.719   1.381   6.345  2.0454 -0.3949 -2.2565
  149SAPE  H18S16419   4.816   1.511   6.272  1.2523  0.5696  1.1112
  149SAPE  C21916420   4.611   1.515   6.216 -0.3208 -0.2114  0.4564
  149SAPE  H19R16421   4.508   1.535   6.252 -0.2029 -0.2667  0.8374
  149SAPE  H19S16422   4.607   1.423   6.154 -1.1087  0.3863 -0.3945
  149SAPE  C22016423   4.648   1.630   6.120  0.1525 -0.5263 -0.0963
  149SAPE  H20R16424   4.643   1.717   6.190  1.0361 -0.2865 -0.3143
  149SAPE  H20S16425   4.579   1.644   6.034 -2.9834  0.5916  2.3617
  149SAPE  H20T16426   4.751   1.620   6.080  0.1017  0.1251 -0.4095
  149SAPE   C3316427   3.836   1.874   7.643 -0.2527  0.4202  0.6940
  149SAPE   H3X16428   3.779   1.834   7.729  0.0651  0.7957  1.0847
  149SAPE   H3Y16429   3.926   1.812   7.627  1.2150  2.5001  0.4008
  149SAPE   C3416430   3.752   1.871   7.513  0.0802  0.2826 -0.7986
  149SAPE   H4X16431   3.677   1.953   7.509  0.3048  0.4494 -1.9855
  149SAPE   H4Y16432   3.698   1.774   7.522 -2.2872  1.7350  3.3497
  149SAPE   C3516433   3.821   1.879   7.379  0.4148  0.2056 -0.2286
  149SAPE   H5X16434   3.907   1.808   7.377  1.3206  1.2148  0.8051
  149SAPE   H5Y16435   3.866   1.981   7.372  0.3988  0.1587 -1.2771
  149SAPE   C3616436   3.722   1.877   7.260 -0.2245 -0.7833 -0.0038
  149SAPE   H6X16437   3.649   1.959   7.277  1.5090  0.4059  2.4953
  149SAPE   H6Y16438   3.664   1.783   7.268  0.5523 -1.3419 -0.7225
  149SAPE   C3716439   3.798   1.887   7.127  0.0659 -0.7841 -0.2865
  149SAPE   H7X16440   3.878   1.810   7.126  0.2814 -0.5562 -0.8170
  149SAPE   H7Y16441   3.844   1.987   7.117 -0.9562 -0.2817 -0.1068
  149SAPE   C3816442   3.714   1.872   6.996  0.0911 -0.2154 -0.6720
  149SAPE   H8X16443   3.636   1.951   7.002  2.2465  1.9148  3.3844
  149SAPE   H8Y16444   3.680   1.768   7.013  0.3902  0.0647  2.1232
  149SAPE   C3916445   3.791   1.897   6.868 -0.4110 -0.6558  0.1704
  149SAPE   H9X16446   3.846   1.806   6.837  0.1117 -1.0035  1.9603
  149SAPE   H9Y16447   3.871   1.968   6.902  0.5724 -1.3035 -0.7366
  149SAPE  C31016448   3.705   1.963   6.755 -0.7567  0.6202  0.6310
  149SAPE  H10X16449   3.709   2.072   6.773 -1.0067  0.8298 -0.5562
  149SAPE  H10Y16450   3.600   1.926   6.759  0.0676 -2.6891 -2.6719
  149SAPE  C31116451   3.750   1.935   6.613 -0.1013 -0.3117 -0.3530
  149SAPE  H11X16452   3.854   1.973   6.623  1.0962 -3.3941 -0.1692
  149SAPE  H11Y16453   3.688   1.995   6.543  0.1554  0.5466  0.1400
  149SAPE  C31216454   3.751   1.795   6.560  0.0421  0.7796 -0.6061
  149SAPE  H12X16455   3.832   1.734   6.606 -2.7422 -1.5224  1.6244
  149SAPE  H12Y16456   3.751   1.802   6.449 -2.3838 -2.4465 -0.9439
  149SAPE  C31316457   3.615   1.726   6.590  0.0364  0.2699 -0.3724
  149SAPE  H13X16458   3.525   1.780   6.551  0.6528  0.4213 -1.6377
  149SAPE  H13Y16459   3.591   1.707   6.697  0.1075  0.8566 -0.2516
  149SAPE  C31416460   3.617   1.588   6.516  0.0484 -0.1551 -0.6682
  149SAPE  H14X16461   3.718   1.543   6.526 -0.0844 -0.2421  0.3604
  149SAPE  H14Y16462   3.611   1.614   6.408  0.8853  0.5763 -0.5535
  149SAPE  C31516463   3.509   1.484   6.565  0.6661 -0.3139 -0.3262
  149SAPE  H15X16464   3.534   1.456   6.669  2.0977 -1.9350 -1.0487
  149SAPE  H15Y16465   3.515   1.390   6.505  0.0542 -0.3928 -0.2737
  149SAPE  C31616466   3.367   1.530   6.537  0.0719 -0.1179 -0.1829
  149SAPE  H16X16467   3.372   1.539   6.426  1.7302 -1.3811 -0.2456
  149SAPE  H16Y16468   3.349   1.626   6.589 -1.2954 -0.2475 -0.3840
  149SAPE  C31716469   3.271   1.430   6.582  0.7669 -0.4067  0.0432
  149SAPE  H17X16470   3.273   1.413   6.692 -0.6770  0.7628  0.2813
  149SAPE  H17Y16471   3.289   1.330   6.536 -2.2505  0.0599 -2.4886
  149SAPE  C31816472   3.118   1.459   6.566 -0.5505  0.0722 -0.4829
  149SAPE  H18X16473   3.052   1.382   6.610  1.0630 -0.8283  0.4519
  149SAPE  H18Y16474   3.094   1.470   6.458 -0.9403 -0.5301 -0.4560
  149SAPE  H18Z16475   3.094   1.556   6.615 -0.4312 -0.1493  0.0185
  150SAPE     N16476   3.502   2.007   8.214  0.3645 -0.4053  0.2500
  150SAPE   HN116477   3.499   2.110   8.212  1.4608 -0.3578 -1.6189
  150SAPE   HN216478   3.601   1.980   8.196  0.6266  0.5726  0.1862
  150SAPE   HN316479   3.437   1.981   8.137  1.7270 -0.3344 -0.9780
  150SAPE   C1216480   3.448   1.946   8.342  0.3551  0.3187  0.0896
  150SAPE  H12A16481   3.491   2.000   8.428  3.3179  0.0377 -1.0957
  150SAPE  H12B16482   3.471   1.837   8.343  1.1043  0.4751  1.1868
  150SAPE   C1116483   3.295   1.960   8.340  0.1079  0.2860 -0.0030
  150SAPE  H11A16484   3.274   2.067   8.320 -1.1364 -0.3246 -2.3642
  150SAPE  H11B16485   3.257   1.932   8.441 -3.6068  2.8497 -0.4756
  150SAPE     P16486   3.171   1.750   8.248 -0.2322 -0.1646  0.2375
  150SAPE   O1316487   3.270   1.651   8.278 -0.3803  0.3707  0.4713
  150SAPE   O1416488   3.071   1.769   8.353 -0.3221 -0.0545  0.2546
  150SAPE   O1216489   3.245   1.893   8.227  0.6336  0.8680 -0.4042
  150SAPE   O1116490   3.103   1.716   8.112  0.2616  0.4345  0.0681
  150SAPE    C116491   3.172   1.679   7.999  0.2738 -1.4100  0.0007
  150SAPE    HA16492   3.219   1.578   8.010 -1.5156 -2.1326  1.6201
  150SAPE    HB16493   3.092   1.662   7.924  0.0202  0.7717 -0.2861
  150SAPE    C216494   3.267   1.782   7.928 -0.0371 -0.4007 -0.4084
  150SAPE    HS16495   3.343   1.806   8.005  0.7938 -0.0702 -1.2983
  150SAPE   O2116496   3.194   1.898   7.887  0.4720 -0.0673 -0.5876
  150SAPE   C2116497   3.266   2.013   7.900 -0.3941 -0.3026  0.3068
  150SAPE   O2216498   3.381   2.016   7.949  0.0387 -0.5909 -0.4497
  150SAPE   C2216499   3.163   2.124   7.865 -0.6891  0.3460 -0.1804
  150SAPE   H2R16500   3.123   2.097   7.766 -0.2062  0.9338 -0.5457
  150SAPE   H2S16501   3.084   2.114   7.942  2.1326 -2.4516  2.6514
  150SAPE    C316502   3.343   1.722   7.806  0.7380  0.2655  0.0165
  150SAPE    HX16503   3.398   1.633   7.841 -0.4380 -0.7756 -0.6950
  150SAPE    HY16504   3.415   1.797   7.767 -1.1893  2.4664  0.4212
  150SAPE   O3116505   3.252   1.696   7.692  0.5747  0.5124  0.4002
  150SAPE   C3116506   3.200   1.576   7.672 -0.4214 -0.1086  0.1876
  150SAPE   O3216507   3.187   1.484   7.754 -0.3078 -0.1176  0.5819
  150SAPE   C3216508   3.135   1.574   7.532  0.0664  0.6433 -0.2598
  150SAPE   H2X16509   3.070   1.664   7.526 -0.5887  0.3180  1.4896
  150SAPE   H2Y16510   3.059   1.493   7.521  0.7413  0.0592 -0.7120
  150SAPE   C2316511   3.224   2.274   7.869  0.0849 -1.3671 -0.5927
  150SAPE   H3R16512   3.286   2.290   7.960 -1.0731  2.4660 -0.3215
  150SAPE   H3S16513   3.134   2.337   7.883 -0.7302 -1.7766 -3.3810
  150SAPE   C2416514   3.284   2.325   7.733 -0.4825 -0.0901 -0.1052
  150SAPE   H4R16515   3.330   2.423   7.759  1.1053 -0.2915 -1.9693
  150SAPE   H4S16516   3.193   2.335   7.670 -1.3158 -2.0748  0.7145
  150SAPE   C2516517   3.389   2.237   7.674 -0.0815  0.2471  0.6696
  150SAPE   H5R16518   3.475   2.204   7.734  2.0491  0.0081 -2.3332
  150SAPE   C2616519   3.394   2.197   7.542  0.4100 -0.3999 -0.4670
  150SAPE   H6R16520   3.475   2.129   7.514 -0.5481 -0.9577 -2.0064
  150SAPE   C2716521   3.285   2.222   7.439  0.8600 -0.7021  0.0626
  150SAPE   H7R16522   3.288   2.332   7.423 -3.0315 -0.3961  0.6027
  150SAPE   H7S16523   3.184   2.206   7.483  0.3085  2.2851  0.1381
  150SAPE   C2816524   3.303   2.155   7.303  0.3258 -0.2779  0.1194
  150SAPE   H8R16525   3.267   2.051   7.304  3.0510 -1.3717  2.8575
  150SAPE   C2916526   3.359   2.203   7.192 -0.0894 -0.2041  0.0521
  150SAPE   H9R16527   3.343   2.137   7.105 -0.5331 -1.9668  1.4146
  150SAPE  C21016528   3.416   2.338   7.165  0.4572 -0.0351  0.7485
  150SAPE  H10R16529   3.406   2.412   7.247 -3.6473  2.3585 -1.5614
  150SAPE  H10S16530   3.348   2.395   7.098  0.1995 -1.3697 -0.1739
  150SAPE  C21116531   3.545   2.323   7.093  0.5247  0.4282  0.9642
  150SAPE  H11R16532   3.629   2.283   7.152  0.9253  0.5745  0.4973
  150SAPE  C21216533   3.575   2.360   6.968 -0.0386 -0.3279  0.7120
  150SAPE  H12R16534   3.678   2.342   6.935 -0.0077 -2.2042  1.6900
  150SAPE  C21316535   3.473   2.413   6.869  0.2205  0.0114 -0.4421
  150SAPE  H13R16536   3.368   2.402   6.904  0.9837  1.8824  2.7602
  150SAPE  H13S16537   3.493   2.366   6.770  0.4705 -1.8468  0.4478
  150SAPE  C21416538   3.494   2.561   6.854 -0.8718 -0.0976 -0.6076
  150SAPE  H14R16539   3.518   2.612   6.949  0.1691 -0.8790 -0.4253
  150SAPE  C21516540   3.483   2.634   6.741  0.7986  0.2580 -0.6284
  150SAPE  H15R16541   3.525   2.736   6.747  0.9211  0.1029  2.6918
  150SAPE  C21616542   3.449   2.569   6.615  0.0533 -0.3486  0.7502
  150SAPE  H16R16543   3.352   2.514   6.617 -0.4871  0.3927 -1.4524
  150SAPE  H16S16544   3.521   2.489   6.587 -1.9607 -1.5579 -1.3674
  150SAPE  C21716545   3.458   2.650   6.486  0.4511 -0.3619  0.1479
  150SAPE  H17R16546   3.425   2.586   6.402 -1.1274  1.5669 -0.7901
  150SAPE  H17S16547   3.558   2.697   6.475 -0.3671  2.1632  2.2815
  150SAPE  C21816548   3.355   2.763   6.477  0.4670 -0.0367 -0.9582
  150SAPE  H18R16549   3.349   2.836   6.561 -3.7528  0.3760 -1.3698
  150SAPE  H18S16550   3.256   2.713   6.487 -0.0861  1.3548  1.3526
  150SAPE  C21916551   3.360   2.842   6.347 -0.5342 -0.1244 -0.2211
  150SAPE  H19R16552   3.458   2.893   6.350  0.7054 -2.4099  0.6321
  150SAPE  H19S16553   3.277   2.916   6.357 -1.1444 -0.8676  0.3934
  150SAPE  C22016554   3.350   2.762   6.219  0.3420 -0.6205 -0.2796
  150SAPE  H20R16555   3.257   2.702   6.214  0.3399 -0.7407  0.8799
  150SAPE  H20S16556   3.435   2.692   6.208  0.2414 -0.3530 -3.9516
  150SAPE  H20T16557   3.356   2.819   6.124 -0.9688 -1.5321 -0.9444
  150SAPE   C3316558   3.229   1.568   7.407  0.1241 -0.2493 -0.5751
  150SAPE   H3X16559   3.292   1.659   7.404 -2.1366  1.4235 -3.4170
  150SAPE   H3Y16560   3.162   1.572   7.318 -1.5531 -0.0181  0.6346
  150SAPE   C3416561   3.319   1.451   7.411  0.3375  0.2038  0.4903
  150SAPE   H4X16562   3.264   1.355   7.413  0.0008  0.1155 -3.5079
  150SAPE   H4Y16563   3.392   1.454   7.495  0.5358  0.8910  0.3072
  150SAPE   C3516564   3.389   1.450   7.269 -0.1229  0.3639  0.0412
  150SAPE   H5X16565   3.480   1.388   7.281 -0.9075 -0.9017 -0.3932
  150SAPE   H5Y16566   3.416   1.555   7.242 -0.1607  0.2415 -0.4914
  150SAPE   C3616567   3.299   1.373   7.170 -0.1435 -0.8852  0.1546
  150SAPE   H6X16568   3.196   1.416   7.177 -0.7252 -2.3933  1.6311
  150SAPE   H6Y16569   3.283   1.266   7.197  1.2034 -1.6641 -1.8827
  150SAPE   C3716570   3.360   1.372   7.023  0.2742  0.1757 -0.4452
  150SAPE   H7X16571   3.291   1.310   6.961 -0.0780 -0.0746  0.1811
  150SAPE   H7Y16572   3.457   1.319   7.030 -1.5487 -3.5826 -0.9720
  150SAPE   C3816573   3.394   1.511   6.965  0.7773 -0.1329 -0.8351
  150SAPE   H8X16574   3.433   1.502   6.861  1.1464 -1.1261 -0.6160
  150SAPE   H8Y16575   3.473   1.554   7.030  0.2604 -1.0413  0.4138
  150SAPE   C3916576   3.283   1.623   6.958 -0.0515  0.4257 -0.3428
  150SAPE   H9X16577   3.257   1.637   7.065 -2.0749 -0.9342 -0.6097
  150SAPE   H9Y16578   3.193   1.587   6.904  0.0214 -2.0991  1.0718
  150SAPE  C31016579   3.340   1.751   6.893 -0.2030  0.1185 -0.4051
  150SAPE  H10X16580   3.370   1.738   6.787  0.8899  0.7209 -0.1836
  150SAPE  H10Y16581   3.437   1.782   6.938 -0.5280  1.3146 -0.4885
  150SAPE  C31116582   3.238   1.861   6.913  0.1580  0.2675  0.0377
  150SAPE  H11X16583   3.221   1.863   7.022 -1.4266 -1.1125 -0.1561
  150SAPE  H11Y16584   3.145   1.830   6.861 -1.6377  1.6378  2.2668
  150SAPE  C31216585   3.275   2.006   6.851 -0.2643 -0.1500 -0.3034
  150SAPE  H12X16586   3.361   2.047   6.908  0.6106 -0.8280 -1.0921
  150SAPE  H12Y16587   3.189   2.072   6.874  0.4593  1.9874 -3.2347
  150SAPE  C31316588   3.318   2.002   6.705 -0.0519  0.1534 -0.0747
  150SAPE  H13X16589   3.248   1.928   6.658  0.9228 -1.2109  0.5504
  150SAPE  H13Y16590   3.416   1.952   6.688  0.3257  0.8733 -0.0457
  150SAPE  C31416591   3.296   2.133   6.634 -0.2259 -0.7505  0.8053
  150SAPE  H14X16592   3.362   2.211   6.679 -0.6647  0.1357 -0.0499
  150SAPE  H14Y16593   3.191   2.167   6.637 -0.3565 -1.1926  1.5631
  150SAPE  C31516594   3.338   2.124   6.488 -0.4681  1.2117  0.0761
  150SAPE  H15X16595   3.267   2.065   6.426  1.0530 -0.9630  0.2603
  150SAPE  H15Y16596   3.431   2.063   6.480 -0.6792  1.0123 -0.9385
  150SAPE  C31616597   3.354   2.261   6.428  0.4096 -0.4113  0.3548
  150SAPE  H16X16598   3.426   2.313   6.495  1.2533 -2.9664  1.5514
  150SAPE  H16Y16599   3.257   2.316   6.435  0.9705  0.5680  0.6701
  150SAPE  C31716600   3.399   2.271   6.282  0.1017 -0.2637  0.0871
  150SAPE  H17X16601   3.486   2.207   6.257  1.3395  1.3680  0.0613
  150SAPE  H17Y16602   3.439   2.373   6.262  0.9023 -0.4759  0.5406
  150SAPE  C31816603   3.289   2.243   6.181  0.6594 -0.2576  0.1064
  150SAPE  H18X16604   3.210   2.184   6.233  0.0685  1.0345  0.7166
  150SAPE  H18Y16605   3.336   2.198   6.091 -1.1451  0.8660 -1.4907
  150SAPE  H18Z16606   3.251   2.342   6.148  2.6537 -0.3454 -2.8115
  151SAPE     N16607   4.031   0.626   7.973  0.5737 -0.0425  0.5225
  151SAPE   HN116608   4.044   0.620   7.870 -0.5845  1.2266  0.2725
  151SAPE   HN216609   4.049   0.531   8.011 -0.0452  0.1688  1.3786
  151SAPE   HN316610   3.934   0.651   8.002  0.2812  1.1146 -1.2815
  151SAPE   C1216611   4.137   0.715   8.026 -0.1826  0.0813 -0.0872
  151SAPE  H12A16612   4.235   0.669   8.003 -1.1950 -1.5030 -1.4764
  151SAPE  H12B16613   4.128   0.721   8.137  2.1646 -0.0603  0.1459
  151SAPE   C1116614   4.122   0.849   7.949  0.7284 -0.5066 -0.0654
  151SAPE  H11A16615   4.108   0.829   7.841  0.0410  0.2417 -0.1222
  151SAPE  H11B16616   4.213   0.909   7.973 -0.7017  0.8016  2.5214
  151SAPE     P16617   3.931   1.039   7.936  0.0500  0.1040 -0.9260
  151SAPE   O1316618   3.796   1.039   7.992  0.4795  0.6061 -0.0623
  151SAPE   O1416619   4.017   1.159   7.948 -0.5974  0.2134  0.4749
  151SAPE   O1216620   4.009   0.912   8.001 -0.2068 -0.2929 -0.0082
  151SAPE   O1116621   3.921   0.998   7.782 -0.2198 -0.3623 -0.3659
  151SAPE    C116622   3.836   0.905   7.728  0.6814 -0.0687 -0.3674
  151SAPE    HA16623   3.880   0.803   7.734 -1.3320 -0.9584  0.0361
  151SAPE    HB16624   3.734   0.906   7.773  0.9967  0.2710  0.3593
  151SAPE    C216625   3.807   0.938   7.576  0.4107 -0.9356 -0.3618
  151SAPE    HS16626   3.779   0.846   7.522  1.1001 -1.7792  0.6787
  151SAPE   O2116627   3.926   0.997   7.516 -0.0259 -0.7824 -0.3050
  151SAPE   C2116628   4.031   0.918   7.525 -0.2984  0.3057  0.6863
  151SAPE   O2216629   4.035   0.794   7.545  0.0276 -0.0783 -0.2102
  151SAPE   C2216630   4.162   0.983   7.486  0.0631  0.2612 -0.9528
  151SAPE   H2R16631   4.229   0.987   7.574  0.8570 -1.2425 -1.4448
  151SAPE   H2S16632   4.219   0.906   7.429 -0.6203 -0.6130 -0.4707
  151SAPE    C316633   3.691   1.034   7.570  0.5704  0.0983 -0.0589
  151SAPE    HX16634   3.681   1.053   7.461  0.1868 -4.4921 -1.0349
  151SAPE    HY16635   3.709   1.127   7.627  1.6199 -1.5013  2.3900
  151SAPE   O3116636   3.568   0.975   7.621 -0.0571  0.7128  0.0576
  151SAPE   C3116637   3.465   1.063   7.610 -0.1952  0.0224 -0.8408
  151SAPE   O3216638   3.471   1.182   7.578  0.3055  0.0757 -0.2072
  151SAPE   C3216639   3.333   0.994   7.657 -0.0855  0.8571  0.3578
  151SAPE   H2X16640   3.327   0.991   7.768  0.0695 -0.6126  0.3411
  151SAPE   H2Y16641   3.332   0.891   7.614 -1.6063  0.7056  0.7160
  151SAPE   C2316642   4.146   1.115   7.411  0.4163 -0.3117  0.9334
  151SAPE   H3R16643   4.250   1.147   7.389  0.8488 -2.5583 -0.7063
  151SAPE   H3S16644   4.089   1.175   7.485  1.3897 -1.2158  2.4813
  151SAPE   C2416645   4.083   1.108   7.270 -0.4801 -1.3351 -0.5401
  151SAPE   H4R16646   4.087   1.209   7.225 -2.7467 -1.6264 -1.5641
  151SAPE   H4S16647   3.974   1.086   7.280 -1.1453  1.3030 -1.1904
  151SAPE   C2516648   4.130   1.010   7.172 -0.1834  0.3435  0.4193
  151SAPE   H5R16649   4.091   0.909   7.188 -2.3714  0.3535 -3.5584
  151SAPE   C2616650   4.202   1.031   7.056  0.2991  0.2425  0.1030
  151SAPE   H6R16651   4.221   0.948   6.986 -1.1720  0.3388 -0.4457
  151SAPE   C2716652   4.256   1.164   7.015 -0.2871  0.2914 -0.0866
  151SAPE   H7R16653   4.364   1.159   6.993  0.6747  2.6558  3.2354
  151SAPE   H7S16654   4.252   1.237   7.099 -0.1596  2.1968 -1.6567
  151SAPE   C2816655   4.208   1.229   6.878 -0.1185 -0.2964  0.0548
  151SAPE   H8R16656   4.168   1.331   6.883  1.0752  0.4432 -3.0227
  151SAPE   C2916657   4.218   1.177   6.755  0.3224 -0.0526  0.7828
  151SAPE   H9R16658   4.167   1.236   6.677  1.8089  1.3198  0.8044
  151SAPE  C21016659   4.277   1.049   6.705 -0.4496 -0.2944  0.0610
  151SAPE  H10R16660   4.206   1.007   6.631  0.1957 -0.2661 -0.5967
  151SAPE  H10S16661   4.267   0.966   6.778 -0.9719 -1.6932 -1.5340
  151SAPE  C21116662   4.420   1.061   6.665 -0.9759 -0.2257 -0.0013
  151SAPE  H11R16663   4.481   1.049   6.755 -0.3901 -0.0149 -0.3638
  151SAPE  C21216664   4.466   1.075   6.539  0.3815  0.0368 -0.1522
  151SAPE  H12R16665   4.575   1.075   6.523  0.6301 -2.0305  1.1733
  151SAPE  C21316666   4.371   1.094   6.422 -0.3533 -0.0899  0.1479
  151SAPE  H13R16667   4.315   1.189   6.438 -3.9551 -1.9454 -0.3834
  151SAPE  H13S16668   4.284   1.025   6.425 -1.5312  1.0894 -2.6846
  151SAPE  C21416669   4.436   1.087   6.287  0.0059 -0.8894 -0.1125
  151SAPE  H14R16670   4.507   1.171   6.279  0.0313 -0.8982  0.0168
  151SAPE  C21516671   4.431   0.996   6.184 -0.1212  0.3009  0.1862
  151SAPE  H15R16672   4.482   1.024   6.091 -1.1034 -0.5431 -0.6239
  151SAPE  C21616673   4.349   0.873   6.171  0.3521  0.4392  0.5960
  151SAPE  H16R16674   4.248   0.892   6.129 -1.3937 -0.4511  3.9686
  151SAPE  H16S16675   4.315   0.837   6.271 -2.2192 -1.4108 -0.8339
  151SAPE  C21716676   4.417   0.755   6.101 -0.2013  0.8539 -0.0143
  151SAPE  H17R16677   4.499   0.779   6.030  1.8519 -1.8365  1.2940
  151SAPE  H17S16678   4.341   0.690   6.050  0.5322  0.3069 -0.4332
  151SAPE  C21816679   4.474   0.666   6.210  0.1405  0.6578 -0.2463
  151SAPE  H18R16680   4.389   0.612   6.258  0.5265 -0.3284 -0.6464
  151SAPE  H18S16681   4.522   0.732   6.285 -0.1989 -0.8108  1.3423
  151SAPE  C21916682   4.579   0.569   6.152  0.7110  0.4568 -0.2669
  151SAPE  H19R16683   4.634   0.511   6.229 -0.4535  1.1437  1.1333
  151SAPE  H19S16684   4.652   0.639   6.106 -0.1439  1.4324 -0.1681
  151SAPE  C22016685   4.531   0.480   6.041  0.1826  0.0009  0.9241
  151SAPE  H20R16686   4.425   0.501   6.017  0.6227  2.7320  1.1357
  151SAPE  H20S16687   4.526   0.374   6.074  0.8472  0.6122  3.1469
  151SAPE  H20T16688   4.596   0.497   5.953 -0.6484  1.7351  0.6022
  151SAPE   C3316689   3.204   1.055   7.599 -0.5191 -0.5246 -0.6846
  151SAPE   H3X16690   3.186   1.159   7.632 -1.2019 -0.8133 -0.1179
  151SAPE   H3Y16691   3.116   0.999   7.637  0.0553 -1.0127 -0.0452
  151SAPE   C3416692   3.195   1.051   7.451  0.3128  0.1325  0.1392
  151SAPE   H4X16693   3.267   1.118   7.399 -0.7203  0.5016 -0.8396
  151SAPE   H4Y16694   3.094   1.086   7.422  1.2635  1.3578 -1.9017
  151SAPE   C3516695   3.228   0.920   7.373 -0.1358 -0.0327  0.4098
  151SAPE   H5X16696   3.174   0.829   7.407 -0.3947  0.1598  0.5178
  151SAPE   H5Y16697   3.332   0.897   7.405 -0.3749  0.2974  1.4498
  151SAPE   C3616698   3.221   0.922   7.217 -0.4610 -0.1857 -0.3551
  151SAPE   H6X16699   3.288   0.842   7.179  1.6946  1.2810  0.1510
  151SAPE   H6Y16700   3.271   1.013   7.178 -1.5846  0.6707  0.1302
  151SAPE   C3716701   3.081   0.900   7.170 -0.0591  0.0912 -0.3232
  151SAPE   H7X16702   3.030   0.976   7.233  0.5662 -0.1934  0.5403
  151SAPE   H7Y16703   3.043   0.800   7.197 -1.7208  0.2198 -1.9694
  151SAPE   C3816704   3.059   0.914   7.022  0.2405 -0.4035 -0.1985
  151SAPE   H8X16705   2.958   0.873   7.003 -2.0465  4.1546  0.6579
  151SAPE   H8Y16706   3.135   0.864   6.957  1.7513  1.5648 -0.0489
  151SAPE   C3916707   3.056   1.064   6.981  0.8130  0.5610  0.1892
  151SAPE   H9X16708   3.154   1.113   6.967 -0.5021  2.9202 -1.4849
  151SAPE   H9Y16709   3.007   1.123   7.062  0.2218 -0.1718  0.3812
  151SAPE  C31016710   2.980   1.082   6.844  0.6793 -0.1180  0.7436
  151SAPE  H10X16711   2.960   1.191   6.840 -0.6425 -0.3927 -2.5486
  151SAPE  H10Y16712   2.881   1.032   6.840  0.9619 -0.5999 -0.5038
  151SAPE  C31116713   3.060   1.044   6.725 -0.2391 -1.0597 -0.0362
  151SAPE  H11X16714   3.075   0.934   6.725 -1.7554 -1.2862  0.5879
  151SAPE  H11Y16715   3.163   1.087   6.732 -1.7248  3.1884 -1.0058
  151SAPE  C31216716   2.998   1.079   6.591 -0.4023 -0.3513 -0.6731
  151SAPE  H12X16717   3.049   1.159   6.533 -1.0138  0.3317 -0.2795
  151SAPE  H12Y16718   2.895   1.110   6.618 -0.0506  0.6545 -0.4349
  151SAPE  C31316719   2.998   0.962   6.496 -0.1013  0.2208 -0.9499
  151SAPE  H13X16720   2.918   0.984   6.422 -0.8526 -0.8146 -0.4711
  151SAPE  H13Y16721   2.975   0.862   6.538  1.8711  0.1644  0.1065
  151SAPE  C31416722   3.134   0.948   6.435  0.6463 -0.3217 -0.1430
  151SAPE  H14X16723   3.219   0.958   6.505 -0.1184  1.5949  0.5527
  151SAPE  H14Y16724   3.144   1.041   6.375 -0.4167  0.4097  0.7873
  151SAPE  C31516725   3.151   0.830   6.337  0.5460  0.2642 -0.3370
  151SAPE  H15X16726   3.066   0.835   6.265  0.3010  0.2479 -0.0487
  151SAPE  H15Y16727   3.132   0.741   6.401 -2.8801  1.2962  0.2527
  151SAPE  C31616728   3.291   0.815   6.271 -0.3277 -0.8882 -0.4837
  151SAPE  H16X16729   3.378   0.831   6.339 -0.2597  0.0599 -0.7733
  151SAPE  H16Y16730   3.305   0.901   6.202 -0.3260 -0.3544  0.1702
  151SAPE  C31716731   3.316   0.688   6.197  0.2660  0.1170  1.5847
  151SAPE  H17X16732   3.296   0.604   6.266 -1.8336  0.5083  1.5067
  151SAPE  H17Y16733   3.423   0.676   6.168  0.8371  1.8258  2.7912
  151SAPE  C31816734   3.222   0.684   6.079 -0.7477  0.4522  0.6065
  151SAPE  H18X16735   3.119   0.662   6.113 -0.8032 -0.6888 -0.2553
  151SAPE  H18Y16736   3.255   0.594   6.023 -1.9206  0.9202 -0.9016
  151SAPE  H18Z16737   3.227   0.778   6.021 -0.3091  1.0354  1.5559
  152SAPE     N16738   4.597   1.582   7.975 -0.1604  0.7231  0.0395
  152SAPE   HN116739   4.690   1.615   8.006  0.2674 -0.1472 -0.3099
  152SAPE   HN216740   4.607   1.536   7.882 -0.3802  1.5331 -0.3970
  152SAPE   HN316741   4.544   1.671   7.963  0.7111  1.2355 -0.1207
  152SAPE   C1216742   4.544   1.491   8.081  0.5563  0.3632 -0.1634
  152SAPE  H12A16743   4.446   1.456   8.044  0.4183  0.2653  0.2936
  152SAPE  H12B16744   4.531   1.557   8.170  2.3746 -0.2131  0.5933
  152SAPE   C1116745   4.637   1.372   8.113  0.1624 -0.0468  0.1665
  152SAPE  H11A16746   4.649   1.313   8.020  0.5468  1.4776 -0.7863
  152SAPE  H11B16747   4.598   1.305   8.193 -2.1233  0.3461 -0.5298
  152SAPE     P16748   4.899   1.328   8.133 -0.0372 -0.1567 -0.1655
  152SAPE   O1316749   5.011   1.413   8.103  0.4566 -0.1174 -0.2132
  152SAPE   O1416750   4.924   1.234   8.250 -0.0953 -0.2029 -0.0373
  152SAPE   O1216751   4.769   1.418   8.157 -0.3245 -0.0091 -0.9513
  152SAPE   O1116752   4.864   1.255   8.002 -0.5114  0.4364  0.2822
  152SAPE    C116753   4.949   1.160   7.942  0.1119 -0.0163  0.2123
  152SAPE    HA16754   5.053   1.197   7.932  0.0150 -0.1468 -1.5459
  152SAPE    HB16755   4.953   1.069   8.007 -1.3512  1.2102  2.1161
  152SAPE    C216756   4.888   1.119   7.809 -0.2485  0.7909 -0.0630
  152SAPE    HS16757   4.941   1.027   7.776  0.0012  0.5683  0.9365
  152SAPE   O2116758   4.893   1.221   7.708  0.3715 -0.5932  0.3992
  152SAPE   C2116759   5.014   1.257   7.668 -0.4672  0.7338 -0.1705
  152SAPE   O2216760   5.122   1.201   7.698  0.4939  0.2808 -0.3264
  152SAPE   C2216761   5.003   1.372   7.569  0.8503  0.0499  0.4948
  152SAPE   H2R16762   4.988   1.467   7.625  0.9540  1.3899 -1.6111
  152SAPE   H2S16763   5.099   1.375   7.512 -0.6054  0.7658 -2.0850
  152SAPE    C316764   4.740   1.069   7.827 -0.1625 -0.3177  0.1868
  152SAPE    HX16765   4.670   1.145   7.868 -1.2138 -0.6597 -0.9158
  152SAPE    HY16766   4.747   0.995   7.910  6.1849 -0.8746 -0.3890
  152SAPE   O3116767   4.697   1.011   7.707  0.2524  0.1328  0.0843
  152SAPE   C3116768   4.609   1.073   7.626 -0.5589  0.5204 -0.6389
  152SAPE   O3216769   4.569   1.182   7.637 -0.3270  0.6799  0.8416
  152SAPE   C3216770   4.581   0.987   7.499 -0.6081  0.7369  0.3329
  152SAPE   H2X16771   4.505   0.908   7.514 -1.8338  1.8076 -0.0772
  152SAPE   H2Y16772   4.678   0.939   7.474 -0.0814  1.2217  1.3837
  152SAPE   C2316773   4.893   1.356   7.459  0.0413  0.1688 -0.2302
  152SAPE   H3R16774   4.885   1.457   7.414  0.7101  0.6618  0.7114
  152SAPE   H3S16775   4.795   1.348   7.510 -0.9955  3.2705 -1.4943
  152SAPE   C2416776   4.891   1.244   7.359  0.3767 -0.5208  0.2180
  152SAPE   H4R16777   4.797   1.261   7.303 -1.0958 -2.9819  1.7609
  152SAPE   H4S16778   4.900   1.145   7.409  1.7353 -0.8984 -0.7121
  152SAPE   C2516779   5.009   1.248   7.272  0.1238  0.7762 -0.5016
  152SAPE   H5R16780   5.107   1.261   7.319 -0.1518  0.2319  0.2632
  152SAPE   C2616781   5.007   1.254   7.136  0.1791 -0.6018  0.8074
  152SAPE   H6R16782   5.101   1.254   7.080  0.4858 -1.9464  1.2938
  152SAPE   C2716783   4.889   1.269   7.044  0.9748  0.2406 -0.1925
  152SAPE   H7R16784   4.917   1.321   6.950  2.1097  4.1225  2.0498
  152SAPE   H7S16785   4.832   1.353   7.090  0.3129 -0.2093 -0.1848
  152SAPE   C2816786   4.799   1.152   7.017 -0.0748 -1.0233 -0.1754
  152SAPE   H8R16787   4.775   1.113   7.117 -1.1027  2.5958  1.1481
  152SAPE   C2916788   4.766   1.090   6.899  0.4577 -0.9330  0.3070
  152SAPE   H9R16789   4.717   0.992   6.911  1.4222 -1.2961  1.3297
  152SAPE  C21016790   4.791   1.127   6.752  0.1011 -0.1073  0.0167
  152SAPE  H10R16791   4.829   1.231   6.750 -0.2179  0.0046 -0.4384
  152SAPE  H10S16792   4.688   1.133   6.711 -0.6023  1.5654  1.8731
  152SAPE  C21116793   4.869   1.036   6.670  0.2664 -0.1848  0.3638
  152SAPE  H11R16794   4.937   0.973   6.729  1.9692  0.5390 -0.7625
  152SAPE  C21216795   4.883   1.039   6.542 -0.0046  0.6114 -0.5391
  152SAPE  H12R16796   4.936   0.951   6.502  0.1896 -0.0268  1.0675
  152SAPE  C21316797   4.826   1.138   6.439  0.0464 -0.1012 -0.2607
  152SAPE  H13R16798   4.897   1.224   6.443 -1.5118  1.2114  2.1030
  152SAPE  H13S16799   4.732   1.190   6.467  0.4104  0.9743 -0.9592
  152SAPE  C21416800   4.800   1.082   6.304 -0.4777 -0.5930  0.5509
  152SAPE  H14R16801   4.711   1.018   6.304 -0.0698 -1.1892 -0.4584
  152SAPE  C21516802   4.892   1.076   6.204  0.2603  0.4683  0.0950
  152SAPE  H15R16803   4.858   1.035   6.107  1.1809  0.2239 -0.1268
  152SAPE  C21616804   5.031   1.147   6.206  0.0690  0.2528  0.1192
  152SAPE  H16R16805   5.110   1.101   6.143 -0.0769  0.9638 -0.6021
  152SAPE  H16S16806   5.071   1.163   6.308  0.8790  1.9976 -0.4358
  152SAPE  C21716807   4.994   1.287   6.143 -0.2919  0.0624  0.2489
  152SAPE  H17R16808   5.085   1.350   6.153  0.1160 -0.5845  0.6894
  152SAPE  H17S16809   4.908   1.334   6.196  1.4227  1.8074  1.6247
  152SAPE  C21816810   4.951   1.280   5.998  0.2742  0.0390  0.4026
  152SAPE  H18R16811   4.862   1.215   5.985 -0.3209  0.5876  1.6067
  152SAPE  H18S16812   5.038   1.253   5.934  0.2163  0.0101  0.3350
  152SAPE  C21916813   4.926   1.411   5.930 -0.3059 -0.4549 -0.3961
  152SAPE  H19R16814   5.018   1.473   5.937 -0.7474  0.0748  1.2608
  152SAPE  H19S16815   4.846   1.460   5.990 -1.1714 -2.2417 -0.0076
  152SAPE  C22016816   4.879   1.418   5.786  0.2254  0.0438 -0.2946
  152SAPE  H20R16817   4.784   1.361   5.773 -0.3013  1.3018 -2.5329
  152SAPE  H20S16818   4.953   1.382   5.711  0.1977  0.2256 -0.4079
  152SAPE  H20T16819   4.860   1.525   5.762  0.1106 -0.2063 -1.3721
  152SAPE   C3316820   4.541   1.084   7.387  0.4953 -0.2630  0.6195
  152SAPE   H3X16821   4.605   1.175   7.380  1.0580 -0.6587  0.5708
  152SAPE   H3Y16822   4.440   1.129   7.388  0.7176  0.3885 -1.2384
  152SAPE   C3416823   4.553   1.012   7.246  0.4138 -0.0042 -0.3309
  152SAPE   H4X16824   4.661   0.991   7.234  0.5185 -0.4486  1.1868
  152SAPE   H4Y16825   4.520   1.081   7.165  2.3764  3.0780  1.2811
  152SAPE   C3516826   4.476   0.878   7.242 -0.2241 -1.1522  0.0396
  152SAPE   H5X16827   4.374   0.918   7.260  0.5392  0.5990  0.6617
  152SAPE   H5Y16828   4.496   0.827   7.339  0.3451 -0.5072  0.2696
  152SAPE   C3616829   4.491   0.798   7.114 -0.1722 -0.4047 -0.5759
  152SAPE   H6X16830   4.473   0.869   7.031  1.4225  0.0358 -0.5813
  152SAPE   H6Y16831   4.413   0.719   7.108 -0.2730 -0.3636  0.1348
  152SAPE   C3716832   4.623   0.743   7.077 -0.5196  0.2183 -0.1675
  152SAPE   H7X16833   4.641   0.653   7.140  1.5808  0.4701 -0.3555
  152SAPE   H7Y16834   4.702   0.816   7.103 -1.2449  0.2921  2.1123
  152SAPE   C3816835   4.640   0.692   6.932 -0.1727  1.0960  0.3211
  152SAPE   H8X16836   4.626   0.767   6.852  2.0158 -1.3490 -2.6155
  152SAPE   H8Y16837   4.574   0.603   6.921  2.5031 -0.9585 -0.2224
  152SAPE   C3916838   4.781   0.640   6.910 -0.0494 -0.1773 -0.7215
  152SAPE   H9X16839   4.810   0.574   6.994 -2.3318  0.8275  0.9486
  152SAPE   H9Y16840   4.848   0.729   6.921 -0.8431  0.2151  1.2134
  152SAPE  C31016841   4.805   0.573   6.771 -0.8592 -0.2082 -0.2614
  152SAPE  H10X16842   4.713   0.589   6.711  0.0222 -1.3470 -1.9878
  152SAPE  H10Y16843   4.820   0.463   6.779 -0.6996 -0.1209  0.6930
  152SAPE  C31116844   4.929   0.637   6.705 -0.2737 -0.2245 -0.4578
  152SAPE  H11X16845   5.023   0.619   6.762  0.2120 -3.7145 -2.0769
  152SAPE  H11Y16846   4.918   0.747   6.715  0.4531 -0.1894  0.0787
  152SAPE  C31216847   4.950   0.601   6.554 -0.1502 -0.4097  0.3996
  152SAPE  H12X16848   4.860   0.626   6.494  0.6739 -2.4928 -1.8812
  152SAPE  H12Y16849   4.975   0.495   6.534 -0.1859 -0.5156  0.9057
  152SAPE  C31316850   5.067   0.685   6.488  0.1694 -0.2772 -0.1973
  152SAPE  H13X16851   5.158   0.631   6.523  2.2048  1.5310 -2.3758
  152SAPE  H13Y16852   5.068   0.787   6.533  1.4534 -0.1545 -0.4478
  152SAPE  C31416853   5.052   0.694   6.333 -0.0198  0.6491  0.2081
  152SAPE  H14X16854   5.150   0.728   6.295  0.0999 -0.8756 -0.9435
  152SAPE  H14Y16855   4.971   0.767   6.313 -1.7231 -1.4804 -1.1961
  152SAPE  C31516856   5.025   0.574   6.247  0.2239  0.6462  0.1154
  152SAPE  H15X16857   4.922   0.536   6.265  0.2580 -0.6618 -2.0932
  152SAPE  H15Y16858   5.097   0.494   6.273 -1.8757 -1.1387  0.7403
  152SAPE  C31616859   5.014   0.609   6.095  0.0275  0.7277  0.2609
  152SAPE  H16X16860   5.114   0.637   6.057  0.3510 -0.5087  0.1538
  152SAPE  H16Y16861   4.941   0.690   6.073 -0.2150  0.3272 -0.4487
  152SAPE  C31716862   4.955   0.488   6.015  0.8297  0.1324 -0.1667
  152SAPE  H17X16863   4.964   0.512   5.907  5.2177 -2.2192 -0.5443
  152SAPE  H17Y16864   4.846   0.474   6.035  0.0897 -0.7618 -3.9071
  152SAPE  C31816865   5.027   0.353   6.045 -0.3374 -0.4186 -0.2583
  152SAPE  H18X16866   5.134   0.351   6.016 -0.6713  2.1765 -1.9914
  152SAPE  H18Y16867   4.981   0.286   5.969  0.0929  0.4504 -1.3199
  152SAPE  H18Z16868   5.023   0.318   6.150  1.4849 -0.3458 -0.1357
  153SAPE     N16869   3.718   0.964   8.435  0.4389  0.0278 -0.0429
  153SAPE   HN116870   3.750   1.033   8.506  1.9741  0.3207 -0.9830
  153SAPE   HN216871   3.677   1.010   8.352  0.5603  0.1514 -0.0339
  153SAPE   HN316872   3.640   0.905   8.471 -1.0580  2.4490  0.9928
  153SAPE   C1216873   3.839   0.887   8.386 -0.4611 -0.4130  0.1430
  153SAPE  H12A16874   3.874   0.834   8.477 -1.8634 -1.0364  0.3483
  153SAPE  H12B16875   3.918   0.957   8.352 -0.8480  0.5626  1.1786
  153SAPE   C1116876   3.813   0.780   8.278  0.5557 -0.2415 -0.5713
  153SAPE  H11A16877   3.915   0.752   8.244  1.1337  0.6453  0.3556
  153SAPE  H11B16878   3.764   0.827   8.190  2.3594  0.6385 -1.1513
  153SAPE     P16879   3.738   0.545   8.217  0.2776 -0.4077  0.3130
  153SAPE   O1316880   3.832   0.436   8.253  0.0978  0.3461 -0.1243
  153SAPE   O1416881   3.598   0.505   8.222 -0.1749 -0.0330 -0.4056
  153SAPE   O1216882   3.751   0.666   8.333 -0.2501 -0.0586 -0.3275
  153SAPE   O1116883   3.783   0.599   8.074 -0.2101 -0.7674  0.4943
  153SAPE    C116884   3.677   0.651   7.998 -0.0425  0.0212  0.0242
  153SAPE    HA16885   3.590   0.688   8.057  1.8682  0.7090  2.5866
  153SAPE    HB16886   3.710   0.741   7.942 -0.2402  0.8689  1.2417
  153SAPE    C216887   3.628   0.537   7.902  1.2469  0.5525 -0.4499
  153SAPE    HS16888   3.585   0.454   7.961  1.9696 -1.4324 -2.5682
  153SAPE   O2116889   3.741   0.498   7.828  0.5393  0.1839 -0.4609
  153SAPE   C2116890   3.744   0.367   7.797 -0.1193 -0.6723  0.0115
  153SAPE   O2216891   3.650   0.290   7.794 -0.1873 -0.4399 -0.2618
  153SAPE   C2216892   3.883   0.337   7.747 -0.5668 -0.0492  0.5142
  153SAPE   H2R16893   3.958   0.408   7.788  1.7371 -1.0510 -1.6563
  153SAPE   H2S16894   3.912   0.237   7.786  0.6535  0.4375  0.9101
  153SAPE    C316895   3.520   0.589   7.811  0.4011 -0.1782 -0.1037
  153SAPE    HX16896   3.471   0.516   7.742  0.7142 -2.1638  1.6819
  153SAPE    HY16897   3.553   0.663   7.735  1.8823 -1.2518 -0.5496
  153SAPE   O3116898   3.421   0.664   7.893 -0.0831 -0.4231  0.0201
  153SAPE   C3116899   3.336   0.584   7.958  0.2803 -0.8216  0.8073
  153SAPE   O3216900   3.341   0.463   7.952  0.3703 -0.4555  0.0192
  153SAPE   C3216901   3.231   0.670   8.024  0.0557  0.6603  0.0341
  153SAPE   H2X16902   3.222   0.771   7.977  0.9145  0.2321 -1.0957
  153SAPE   H2Y16903   3.244   0.677   8.134 -4.5164  0.4990  0.8019
  153SAPE   C2316904   3.895   0.335   7.593 -0.3832  0.3875  0.4278
  153SAPE   H3R16905   3.834   0.256   7.546 -0.7360 -1.0659  3.1642
  153SAPE   H3S16906   4.004   0.322   7.572 -0.7795  0.4942 -2.0478
  153SAPE   C2416907   3.845   0.468   7.536  0.0443  0.4211  0.2029
  153SAPE   H4R16908   3.874   0.547   7.609  2.6506 -1.6657  1.6216
  153SAPE   H4S16909   3.735   0.471   7.522 -0.3210 -1.9406  2.0468
  153SAPE   C2516910   3.914   0.510   7.406  0.3512 -0.6021  1.0693
  153SAPE   H5R16911   3.991   0.589   7.413  1.9798 -1.9048 -0.9063
  153SAPE   C2616912   3.897   0.463   7.282 -0.3775 -0.5382 -0.1060
  153SAPE   H6R16913   3.960   0.503   7.201  0.2991 -1.6739 -0.1724
  153SAPE   C2716914   3.785   0.370   7.247  0.0839 -0.6091  0.3604
  153SAPE   H7R16915   3.705   0.355   7.324  1.2197  2.1038  2.2050
  153SAPE   H7S16916   3.818   0.264   7.240  1.0356 -0.2012 -1.9680
  153SAPE   C2816917   3.709   0.422   7.128 -0.3205  0.0346  0.4815
  153SAPE   H8R16918   3.652   0.514   7.151 -1.0416  0.4457 -2.5364
  153SAPE   C2916919   3.720   0.375   7.001  0.5090 -0.2844  0.3134
  153SAPE   H9R16920   3.667   0.431   6.922  0.7663 -0.4420  0.0265
  153SAPE  C21016921   3.797   0.254   6.947  0.1606 -0.8924 -0.0892
  153SAPE  H10R16922   3.727   0.189   6.890  0.8292 -2.2889  0.6387
  153SAPE  H10S16923   3.831   0.199   7.037  1.9744 -0.2207 -0.3186
  153SAPE  C21116924   3.922   0.300   6.862 -0.2605  0.2501 -0.1190
  153SAPE  H11R16925   3.981   0.379   6.912 -0.1860  0.7046 -0.9022
  153SAPE  C21216926   3.972   0.244   6.751  0.3371 -0.1339  1.0887
  153SAPE  H12R16927   4.063   0.287   6.706  0.5060 -0.9363  0.6515
  153SAPE  C21316928   3.927   0.117   6.683  0.5416 -0.0004  0.0054
  153SAPE  H13R16929   3.848   0.137   6.606 -0.0294  0.8590  0.7916
  153SAPE  H13S16930   3.869   0.051   6.750 -0.7484 -1.2343 -2.1816
  153SAPE  C21416931   4.038   0.040   6.613 -0.2193  0.5377 -0.5041
  153SAPE  H14R16932   4.138   0.047   6.658  0.4537 -1.1980 -1.6528
  153SAPE  C21516933   4.028  -0.031   6.495 -0.1734 -0.1881 -0.7526
  153SAPE  H15R16934   4.119  -0.087   6.473 -1.2283 -1.1637 -2.9158
  153SAPE  C21616935   3.903  -0.064   6.415  0.6478  0.1313 -0.4220
  153SAPE  H16R16936   3.812  -0.037   6.473  0.8486  3.1972 -1.3313
  153SAPE  H16S16937   3.913  -0.171   6.386 -2.5263 -0.3816  0.0331
  153SAPE  C21716938   3.880   0.017   6.287 -0.6645  0.2280  0.7812
  153SAPE  H17R16939   3.869   0.124   6.316 -1.2269  0.6290 -0.7969
  153SAPE  H17S16940   3.783  -0.013   6.241  0.8945 -0.2422 -2.5406
  153SAPE  C21816941   3.989  -0.002   6.186 -0.1797  1.0459  0.1321
  153SAPE  H18R16942   3.995  -0.113   6.176 -2.3732  1.0367 -2.2336
  153SAPE  H18S16943   4.089   0.024   6.228 -0.1406 -2.4597  2.6349
  153SAPE  C21916944   3.979   0.059   6.046 -0.7559 -0.3701 -0.3194
  153SAPE  H19R16945   3.959   0.164   6.074  0.5858 -0.3710  0.7230
  153SAPE  H19S16946   3.880   0.028   6.006 -0.3354 -0.2664 -1.4701
  153SAPE  C22016947   4.084   0.021   5.947 -0.9451 -0.9557  0.2123
  153SAPE  H20R16948   4.066   0.054   5.843  2.9068 -1.1544 -0.6594
  153SAPE  H20S16949   4.100  -0.088   5.943 -0.6601 -0.8953 -0.3491
  153SAPE  H20T16950   4.186   0.060   5.970 -1.3511  0.7157 -0.6798
  153SAPE   C3316951   3.086   0.609   8.008 -0.3349 -0.2640  0.1519
  153SAPE   H3X16952   3.012   0.688   8.035 -0.8341 -0.7464  0.2217
  153SAPE   H3Y16953   3.056   0.533   8.084 -1.8270 -0.0772 -0.2119
  153SAPE   C3416954   3.062   0.571   7.865  0.9023 -0.5954 -0.3947
  153SAPE   H4X16955   3.152   0.566   7.800  0.7620 -0.3164 -0.6141
  153SAPE   H4Y16956   2.997   0.654   7.829  1.3292  0.9854  2.2289
  153SAPE   C3516957   2.995   0.436   7.853  0.3137 -0.2215  0.5646
  153SAPE   H5X16958   3.059   0.356   7.895  0.0803 -1.7101 -1.7140
  153SAPE   H5Y16959   3.002   0.415   7.744  0.3106  2.5483 -0.0667
  153SAPE   C3616960   2.849   0.436   7.913 -0.1622 -0.0741  0.2530
  153SAPE   H6X16961   2.796   0.524   7.871 -1.3925 -1.2537 -0.7649
  153SAPE   H6Y16962   2.866   0.429   8.023  1.6180  0.8836  0.0688
  153SAPE   C3716963   2.778   0.306   7.873  0.0256  0.6967  0.1345
  153SAPE   H7X16964   2.687   0.290   7.935 -0.2983 -1.2219 -0.7661
  153SAPE   H7Y16965   2.844   0.222   7.903 -1.8694 -0.5649  1.0233
  153SAPE   C3816966   2.739   0.309   7.727  0.1484  0.3702 -0.2287
  153SAPE   H8X16967   2.825   0.351   7.671  1.8012 -0.4795  1.5555
  153SAPE   H8Y16968   2.656   0.383   7.722 -0.7994 -0.6841 -0.5677
  153SAPE   C3916969   2.682   0.182   7.659  0.4593 -0.3515  0.0500
  153SAPE   H9X16970   2.601   0.151   7.729  0.0907  2.0096  0.7551
  153SAPE   H9Y16971   2.768   0.112   7.649  1.9803  1.4421  0.2226
  153SAPE  C31016972   2.621   0.210   7.521  0.0600 -0.0114  0.2750
  153SAPE  H10X16973   2.536   0.280   7.536  0.0138 -0.2324  1.0606
  153SAPE  H10Y16974   2.585   0.115   7.474 -1.1485  0.8056 -0.5019
  153SAPE  C31116975   2.729   0.267   7.425 -0.9456 -0.8305  0.1483
  153SAPE  H11X16976   2.810   0.191   7.429 -0.1269 -0.0229 -0.6627
  153SAPE  H11Y16977   2.777   0.361   7.461  1.2311 -2.2098  0.9972
  153SAPE  C31216978   2.681   0.275   7.280  0.0079  0.0511  0.1928
  153SAPE  H12X16979   2.592   0.340   7.274 -0.4507 -0.4434  1.3903
  153SAPE  H12Y16980   2.643   0.179   7.238 -0.7677  0.7501 -0.7366
  153SAPE  C31316981   2.786   0.324   7.173 -0.0559  0.5327 -0.3660
  153SAPE  H13X16982   2.879   0.264   7.164  1.7787  3.2711 -0.6836
  153SAPE  H13Y16983   2.836   0.420   7.196 -0.1444  0.6854 -0.8064
  153SAPE  C31416984   2.727   0.326   7.034  0.3927 -0.1522  0.5170
  153SAPE  H14X16985   2.635   0.387   7.047  1.2892  0.8580  2.6857
  153SAPE  H14Y16986   2.696   0.220   7.018 -1.3235  0.4477 -0.3290
  153SAPE  C31516987   2.809   0.375   6.921  0.3472  1.0648  0.0919
  153SAPE  H15X16988   2.884   0.304   6.881 -2.0254 -0.7707 -1.4032
  153SAPE  H15Y16989   2.855   0.472   6.949  2.7115 -0.3475  1.4298
  153SAPE  C31616990   2.722   0.402   6.792 -0.2108  0.4938 -0.2293
  153SAPE  H16X16991   2.641   0.475   6.811 -1.2854 -0.4727 -0.9702
  153SAPE  H16Y16992   2.674   0.306   6.764  4.0903 -1.9779  0.0280
  153SAPE  C31716993   2.807   0.459   6.683  0.2715  0.0052 -0.3471
  153SAPE  H17X16994   2.884   0.381   6.665 -1.7324 -1.5499 -3.0127
  153SAPE  H17Y16995   2.859   0.555   6.706  1.4205 -0.4747 -0.8746
  153SAPE  C31816996   2.730   0.471   6.547 -0.4488 -0.4783 -0.3765
  153SAPE  H18X16997   2.804   0.455   6.465  0.7865 -0.9161  0.7953
  153SAPE  H18Y16998   2.685   0.571   6.527  0.2148 -0.3313 -1.2040
  153SAPE  H18Z16999   2.648   0.396   6.554 -0.5025 -0.2843  1.3311
  154SAPE     N17000   1.007   2.585   8.396 -0.2709  0.2028 -0.7185
  154SAPE   HN117001   0.939   2.663   8.403 -0.9884 -0.5331  4.0360
  154SAPE   HN217002   0.953   2.501   8.424 -1.4936  1.0370 -0.5265
  154SAPE   HN317003   1.064   2.609   8.480 -2.4705  0.6859  0.7068
  154SAPE   C1217004   1.066   2.575   8.254  0.2922 -0.3078  0.0571
  154SAPE  H12A17005   1.108   2.674   8.229 -1.6711  0.0890 -1.9690
  154SAPE  H12B17006   0.986   2.546   8.183  0.4947  1.3573 -0.8981
  154SAPE   C1117007   1.186   2.478   8.244  0.1352  0.0820  0.3594
  154SAPE  H11A17008   1.219   2.514   8.145 -1.7518 -0.0750 -0.3584
  154SAPE  H11B17009   1.143   2.376   8.240  0.3225 -0.0779  1.7064
  154SAPE     P17010   1.334   2.381   8.444 -0.0959 -0.1372  0.0108
  154SAPE   O1317011   1.475   2.404   8.484 -0.1091  0.1351 -0.5154
  154SAPE   O1417012   1.237   2.386   8.554  0.0621  0.0214  0.7271
  154SAPE   O1217013   1.290   2.493   8.344 -0.2171 -0.1390 -0.1216
  154SAPE   O1117014   1.318   2.252   8.361 -0.6871 -0.0195 -0.0092
  154SAPE    C117015   1.416   2.174   8.299 -0.1960 -0.1921 -1.0516
  154SAPE    HA17016   1.510   2.175   8.359 -0.7042  1.4995 -0.2070
  154SAPE    HB17017   1.382   2.068   8.296  2.3535 -1.2059  1.4158
  154SAPE    C217018   1.427   2.211   8.159  0.0316 -0.3825 -0.0903
  154SAPE    HS17019   1.412   2.321   8.162  0.2508 -0.3272 -0.7573
  154SAPE   O2117020   1.324   2.154   8.070 -0.0683  0.8930  0.2362
  154SAPE   C2117021   1.299   2.225   7.963  0.3836 -0.1774  0.3365
  154SAPE   O2217022   1.328   2.345   7.947 -0.5490  0.2933 -0.0967
  154SAPE   C2217023   1.226   2.141   7.859  0.2129  0.2108  0.3819
  154SAPE   H2R17024   1.286   2.051   7.836  0.0658  0.4560 -1.0612
  154SAPE   H2S17025   1.125   2.119   7.898  0.2141  2.0758  1.5482
  154SAPE    C317026   1.568   2.178   8.103  0.3664 -1.2464 -1.0656
  154SAPE    HX17027   1.568   2.069   8.085  0.2615 -1.5057  0.3559
  154SAPE    HY17028   1.639   2.204   8.185  0.3539  0.2389 -1.4845
  154SAPE   O3117029   1.597   2.257   7.984  0.0968  0.5813  0.2660
  154SAPE   C3117030   1.675   2.357   7.991  0.1893 -0.5041 -0.6176
  154SAPE   O3217031   1.723   2.405   8.093  0.8432 -0.1164 -0.2833
  154SAPE   C3217032   1.684   2.425   7.851 -0.3789  0.1362  0.6273
  154SAPE   H2X17033   1.601   2.498   7.842 -1.0680 -0.4515  1.8820
  154SAPE   H2Y17034   1.667   2.340   7.782  0.4797 -2.7554  3.7069
  154SAPE   C2317035   1.192   2.222   7.731 -0.1401 -0.7081 -0.5454
  154SAPE   H3R17036   1.284   2.265   7.685 -0.5044  1.0114  0.2633
  154SAPE   H3S17037   1.135   2.315   7.751  0.1789 -0.8007  0.8374
  154SAPE   C2417038   1.095   2.153   7.625  0.1982 -0.1754 -0.8333
  154SAPE   H4R17039   1.054   2.233   7.560 -0.5135  0.5906  0.5143
  154SAPE   H4S17040   1.004   2.130   7.683  1.7942  0.8990  2.3659
  154SAPE   C2517041   1.166   2.037   7.551 -0.0352 -0.1050  0.7419
  154SAPE   H5R17042   1.244   1.983   7.607  0.2104 -0.8739 -0.2999
  154SAPE   C2617043   1.136   1.992   7.425 -0.1170 -0.0534 -0.9268
  154SAPE   H6R17044   1.188   1.902   7.390  0.6878  0.3617 -0.8005
  154SAPE   C2717045   1.047   2.053   7.324  0.0933  0.0295  0.5090
  154SAPE   H7R17046   1.083   2.147   7.275  1.6967 -0.9033 -0.1733
  154SAPE   H7S17047   0.952   2.074   7.379 -1.0502  0.7363 -1.6109
  154SAPE   C2817048   0.998   1.952   7.226  0.7439  0.1148  0.1972
  154SAPE   H8R17049   0.902   1.906   7.252  1.0727 -1.8872 -1.8508
  154SAPE   C2917050   1.045   1.908   7.108 -0.7104 -0.3138 -0.8310
  154SAPE   H9R17051   0.983   1.836   7.052 -3.5391 -0.3033  2.0140
  154SAPE  C21017052   1.167   1.960   7.041 -0.1506 -0.1295 -0.2323
  154SAPE  H10R17053   1.224   1.878   6.991  0.5848 -0.4059  1.0102
  154SAPE  H10S17054   1.242   2.006   7.109 -0.5414  1.5499 -0.8954
  154SAPE  C21117055   1.132   2.063   6.938 -0.0817 -0.3951  1.6884
  154SAPE  H11R17056   1.124   2.164   6.981  2.2491 -0.4923  2.5333
  154SAPE  C21217057   1.112   2.041   6.800 -0.5069 -0.0382 -0.1827
  154SAPE  H12R17058   1.073   2.122   6.736 -1.3974  1.1098  1.6892
  154SAPE  C21317059   1.112   1.904   6.735 -0.4195 -0.5146  0.4829
  154SAPE  H13R17060   1.015   1.899   6.681 -0.0325  1.4871 -0.4980
  154SAPE  H13S17061   1.118   1.826   6.814 -0.1252  1.6297  2.6510
  154SAPE  C21417062   1.227   1.891   6.638  0.0125  1.0416 -0.2947
  154SAPE  H14R17063   1.324   1.933   6.668  1.2026 -1.8027  0.1734
  154SAPE  C21517064   1.219   1.837   6.511 -0.0106 -0.1548 -0.8562
  154SAPE  H15R17065   1.310   1.836   6.449  0.5616 -2.6481 -0.1105
  154SAPE  C21617066   1.095   1.779   6.456  0.0267  1.0919  0.1488
  154SAPE  H16R17067   1.005   1.843   6.469 -0.6226 -0.2277  2.9492
  154SAPE  H16S17068   1.080   1.686   6.515  2.5463  0.9147  0.6368
  154SAPE  C21717069   1.107   1.740   6.308 -0.0953 -0.4156  0.3624
  154SAPE  H17R17070   1.141   1.833   6.258  0.6168 -1.1175 -0.5067
  154SAPE  H17S17071   1.009   1.711   6.265 -0.6947  0.4800  1.1068
  154SAPE  C21817072   1.216   1.634   6.266  0.5009 -0.4514 -0.1126
  154SAPE  H18R17073   1.182   1.534   6.301  1.2684 -0.5528  0.3651
  154SAPE  H18S17074   1.312   1.652   6.318  0.1061 -1.6111  1.0806
  154SAPE  C21917075   1.232   1.627   6.113  0.6970  0.0387  0.5259
  154SAPE  H19R17076   1.317   1.560   6.087  0.9880  0.5043  0.2734
  154SAPE  H19S17077   1.255   1.734   6.098  1.6229  0.4201  3.9270
  154SAPE  C22017078   1.102   1.590   6.036 -0.1520 -0.3848 -0.2379
  154SAPE  H20R17079   1.119   1.575   5.927 -0.6214  0.7967 -0.4854
  154SAPE  H20S17080   1.035   1.677   6.048  1.2470  0.6807  0.1254
  154SAPE  H20T17081   1.064   1.496   6.082 -0.9821 -1.0802 -2.2095
  154SAPE   C3317082   1.815   2.506   7.826 -0.0200  0.4765 -0.9485
  154SAPE   H3X17083   1.849   2.570   7.910  2.4243  0.1986 -1.6531
  154SAPE   H3Y17084   1.793   2.574   7.740  0.3197 -1.7836 -2.9160
  154SAPE   C3417085   1.930   2.417   7.788 -0.7163  0.4247  0.0453
  154SAPE   H4X17086   1.944   2.326   7.850  1.1913 -1.3291 -2.7042
  154SAPE   H4Y17087   2.027   2.468   7.807 -0.0924 -1.1160  1.2684
  154SAPE   C3517088   1.920   2.359   7.639 -0.7505  0.2086  0.6181
  154SAPE   H5X17089   1.899   2.448   7.577 -2.6457  1.3372  2.7173
  154SAPE   H5Y17090   1.836   2.288   7.627  0.5631 -1.3065 -0.0315
  154SAPE   C3617091   2.062   2.292   7.612  0.0565  0.6884  0.0321
  154SAPE   H6X17092   2.144   2.367   7.605  0.9873 -0.3274 -0.1881
  154SAPE   H6Y17093   2.043   2.239   7.516  0.9041  2.0567 -0.9299
  154SAPE   C3717094   2.105   2.179   7.714  0.1928 -0.0231  0.8709
  154SAPE   H7X17095   2.030   2.098   7.717  1.5021 -1.3313 -0.2285
  154SAPE   H7Y17096   2.111   2.213   7.820  1.1838  0.6169  0.6270
  154SAPE   C3817097   2.241   2.107   7.696 -0.1712  0.4578 -0.7657
  154SAPE   H8X17098   2.242   2.001   7.730  3.5262  0.8452  0.7936
  154SAPE   H8Y17099   2.318   2.153   7.761 -0.8768 -0.9794  1.1820
  154SAPE   C3917100   2.298   2.104   7.557 -0.1974 -0.0960 -0.1824
  154SAPE   H9X17101   2.291   2.209   7.520  0.2939  0.6008  1.5854
  154SAPE   H9Y17102   2.229   2.051   7.488  0.1543 -1.0762  0.2144
  154SAPE  C31017103   2.442   2.042   7.532  0.1346 -0.4308  0.0830
  154SAPE  H10X17104   2.468   1.952   7.590  3.2764 -0.2090 -0.8037
  154SAPE  H10Y17105   2.510   2.120   7.574 -1.1750  1.2983 -0.8387
  154SAPE  C31117106   2.460   2.031   7.379 -0.0078  0.2065  0.3475
  154SAPE  H11X17107   2.387   1.956   7.342 -0.4745  0.2692  1.1226
  154SAPE  H11Y17108   2.560   1.987   7.357  0.0293  0.6244 -0.3769
  154SAPE  C31217109   2.465   2.170   7.308 -0.4922 -0.3725 -0.0352
  154SAPE  H12X17110   2.517   2.242   7.375  1.6758 -1.5023 -0.3994
  154SAPE  H12Y17111   2.356   2.190   7.295 -0.7300 -1.0922  0.7545
  154SAPE  C31317112   2.536   2.171   7.177  0.2914 -0.4227 -0.3709
  154SAPE  H13X17113   2.477   2.105   7.110 -1.7468  0.6705  0.2623
  154SAPE  H13Y17114   2.640   2.133   7.193  0.2520 -0.7002 -0.7676
  154SAPE  C31417115   2.532   2.299   7.105  0.2154 -0.3880 -0.0546
  154SAPE  H14X17116   2.587   2.375   7.165  0.0601 -0.5020  0.2362
  154SAPE  H14Y17117   2.428   2.337   7.107  0.7645  1.4360 -2.2600
  154SAPE  C31517118   2.598   2.292   6.969 -0.5828  0.0278 -0.7237
  154SAPE  H15X17119   2.707   2.271   6.969 -0.6678 -0.4768 -1.5064
  154SAPE  H15Y17120   2.587   2.394   6.927 -0.0488  0.3771 -0.0194
  154SAPE  C31617121   2.536   2.185   6.866 -0.3904 -0.0583  0.1219
  154SAPE  H16X17122   2.428   2.206   6.851 -0.5963  2.5784  3.9999
  154SAPE  H16Y17123   2.542   2.089   6.922  0.5784  0.2876  0.6252
  154SAPE  C31717124   2.610   2.174   6.732 -0.2991  0.1687 -0.3957
  154SAPE  H17X17125   2.581   2.077   6.687 -1.1142 -0.5892  1.6457
  154SAPE  H17Y17126   2.720   2.176   6.746 -0.4652  1.8339  1.0135
  154SAPE  C31817127   2.591   2.287   6.631 -0.0727  0.0055  0.1828
  154SAPE  H18X17128   2.483   2.306   6.615  0.1890  0.9568 -0.5196
  154SAPE  H18Y17129   2.628   2.251   6.533 -1.9629 -0.2618 -0.4706
  154SAPE  H18Z17130   2.644   2.379   6.663 -0.3918  0.7349 -1.3149
  155SAPE     N17131   1.702   2.447   8.369 -0.0121 -0.2865 -0.0997
  155SAPE   HN117132   1.714   2.423   8.268 -0.1230 -0.4704 -0.0702
  155SAPE   HN217133   1.612   2.413   8.408  0.2121 -2.8189 -1.5539
  155SAPE   HN317134   1.707   2.550   8.365 -0.8010 -0.2575 -0.3960
  155SAPE   C1217135   1.807   2.370   8.451 -0.6364 -0.9900  1.0504
  155SAPE  H12A17136   1.801   2.417   8.551  0.8079  2.9429 -0.5215
  155SAPE  H12B17137   1.904   2.404   8.408 -1.4750  1.4760  0.9581
  155SAPE   C1117138   1.781   2.221   8.480  0.0087  0.2351  0.0925
  155SAPE  H11A17139   1.711   2.203   8.565  0.9406  1.0968  1.0712
  155SAPE  H11B17140   1.875   2.198   8.534 -0.8909 -0.3695  1.4753
  155SAPE     P17141   1.753   1.979   8.369  0.0904 -0.7413  0.4399
  155SAPE   O1317142   1.821   1.934   8.489  0.0300 -0.7438  0.3330
  155SAPE   O1417143   1.616   1.928   8.359  0.2733  0.4543  0.5205
  155SAPE   O1217144   1.756   2.139   8.367 -0.3045  0.4622  0.8069
  155SAPE   O1117145   1.844   1.942   8.245  0.1922 -0.1414  0.3666
  155SAPE    C117146   1.969   2.008   8.222 -0.3955 -0.2850  0.1173
  155SAPE    HA17147   1.956   2.115   8.197 -4.9997 -1.0332 -1.7717
  155SAPE    HB17148   2.035   2.008   8.311 -0.2217  0.9698 -0.0028
  155SAPE    C217149   2.038   1.939   8.109 -0.4585  0.4930  1.0189
  155SAPE    HS17150   2.109   2.015   8.071  0.1581 -0.8426 -0.6164
  155SAPE   O2117151   1.954   1.896   8.003 -0.2406 -0.1257 -0.4065
  155SAPE   C2117152   1.891   1.988   7.941 -0.2006 -0.4569  0.5832
  155SAPE   O2217153   1.892   2.108   7.953 -0.0627  0.0937 -0.3186
  155SAPE   C2217154   1.818   1.920   7.824  0.1295 -0.2495  0.1542
  155SAPE   H2R17155   1.894   1.884   7.751  0.8080 -1.3440  1.3464
  155SAPE   H2S17156   1.764   1.832   7.866 -1.5862  0.8565  0.3636
  155SAPE    C317157   2.108   1.815   8.167 -0.2790  0.0882  0.2002
  155SAPE    HX17158   2.030   1.755   8.218  0.0625 -1.1240 -0.6596
  155SAPE    HY17159   2.175   1.851   8.248  0.3480 -0.7927  0.0963
  155SAPE   O3117160   2.177   1.723   8.076 -0.0139 -0.2187  0.4505
  155SAPE   C3117161   2.301   1.764   8.049 -0.5645  0.9538 -0.4235
  155SAPE   O3217162   2.359   1.857   8.096 -0.2448 -0.1645 -0.0635
  155SAPE   C3217163   2.373   1.661   7.954 -0.6732  0.7349  0.5231
  155SAPE   H2X17164   2.296   1.628   7.881 -0.6141  2.3589 -0.3175
  155SAPE   H2Y17165   2.395   1.570   8.015 -0.4090 -0.6919 -1.5603
  155SAPE   C2317166   1.720   2.021   7.762 -0.3043 -0.0168  0.0880
  155SAPE   H3R17167   1.774   2.099   7.704 -0.9703 -0.2662 -0.9021
  155SAPE   H3S17168   1.670   2.079   7.843 -0.4038 -0.2086  0.1648
  155SAPE   C2417169   1.613   1.953   7.681  0.3769 -0.6970  0.7427
  155SAPE   H4R17170   1.559   1.878   7.743  2.2886 -2.1766  0.7416
  155SAPE   H4S17171   1.672   1.889   7.612 -0.5219  0.0252 -0.7473
  155SAPE   C2517172   1.519   2.042   7.609 -0.2303 -0.4511  0.0055
  155SAPE   H5R17173   1.472   2.117   7.674  1.6108 -0.3291  1.2601
  155SAPE   C2617174   1.508   2.062   7.482 -0.0693 -0.7119  0.3639
  155SAPE   H6R17175   1.440   2.139   7.444  0.1171  0.9975  3.2167
  155SAPE   C2717176   1.597   1.996   7.379  0.7196 -0.2717 -0.3408
  155SAPE   H7R17177   1.603   1.891   7.416 -1.6581  0.1694  1.5823
  155SAPE   H7S17178   1.691   2.054   7.368  0.0292  1.1509  0.9204
  155SAPE   C2817179   1.514   1.995   7.241 -0.0157 -0.1180  0.6782
  155SAPE   H8R17180   1.408   1.965   7.244 -0.3636  1.1010  1.6239
  155SAPE   C2917181   1.571   2.041   7.122  0.5300 -0.2837  0.4926
  155SAPE   H9R17182   1.514   2.060   7.030 -0.2024  1.0403  1.1818
  155SAPE  C21017183   1.721   2.065   7.100  0.2118  0.4710 -0.1383
  155SAPE  H10R17184   1.753   2.136   7.179  0.6010 -0.1565  0.2737
  155SAPE  H10S17185   1.735   2.111   6.999 -3.2193  1.1171 -0.4144
  155SAPE  C21117186   1.812   1.944   7.115  0.6669  0.4772 -0.3607
  155SAPE  H11R17187   1.754   1.850   7.119  0.8610  0.2806 -1.5841
  155SAPE  C21217188   1.947   1.952   7.126  0.3110 -0.7568  0.1805
  155SAPE  H12R17189   1.997   1.855   7.140 -2.3635 -2.9657 -3.6781
  155SAPE  C21317190   2.031   2.082   7.121  0.3004 -0.6300 -0.0753
  155SAPE  H13R17191   2.013   2.137   7.026 -1.3644 -0.4346  0.3244
  155SAPE  H13S17192   2.137   2.049   7.124 -0.2310 -2.4699 -0.3124
  155SAPE  C21417193   2.005   2.184   7.229 -0.6483  0.3900 -0.1289
  155SAPE  H14R17194   1.935   2.143   7.302 -1.6823 -1.2336 -1.9133
  155SAPE  C21517195   2.055   2.307   7.235  0.2338 -0.1484 -0.1678
  155SAPE  H15R17196   2.020   2.365   7.322 -1.0091 -1.3503  0.1724
  155SAPE  C21617197   2.174   2.360   7.160  0.2807  0.0422 -0.3634
  155SAPE  H16R17198   2.220   2.279   7.100  2.4975 -0.3082  1.6600
  155SAPE  H16S17199   2.249   2.399   7.233 -0.9745 -1.2010  1.6852
  155SAPE  C21717200   2.140   2.478   7.071  0.7575  0.0390 -0.3847
  155SAPE  H17R17201   2.233   2.534   7.048  1.3961 -1.3838 -1.3677
  155SAPE  H17S17202   2.073   2.549   7.125  0.0500  0.3926 -1.6879
  155SAPE  C21817203   2.063   2.442   6.942  0.5931 -0.2798 -0.4093
  155SAPE  H18R17204   2.020   2.542   6.916 -1.8939 -0.3921  2.6641
  155SAPE  H18S17205   1.986   2.364   6.960  1.0044 -0.1340  2.3672
  155SAPE  C21917206   2.162   2.401   6.833  0.1600  0.5493  0.4741
  155SAPE  H19R17207   2.231   2.332   6.886  0.6369  1.3536  0.9256
  155SAPE  H19S17208   2.216   2.490   6.796  2.9672 -0.0680  2.6946
  155SAPE  C22017209   2.088   2.321   6.717  0.0457  0.7776  0.5136
  155SAPE  H20R17210   2.165   2.268   6.655 -0.2482  1.9003 -0.8526
  155SAPE  H20S17211   2.014   2.377   6.657 -0.5904 -0.6205 -0.0645
  155SAPE  H20T17212   2.021   2.244   6.760  0.7740  0.6543  1.4603
  155SAPE   C3317213   2.492   1.722   7.876  0.7029  0.0186 -0.0125
  155SAPE   H3X17214   2.558   1.772   7.950 -2.9621  3.9050  1.1030
  155SAPE   H3Y17215   2.458   1.802   7.807 -0.1704  0.9486  1.4446
  155SAPE   C3417216   2.566   1.612   7.806 -0.2631 -0.1117 -0.0636
  155SAPE   H4X17217   2.496   1.544   7.751 -2.1435  2.5690 -1.2170
  155SAPE   H4Y17218   2.618   1.553   7.884  1.1746 -0.9822 -1.6108
  155SAPE   C3517219   2.667   1.671   7.711 -0.4357  0.3289  0.4132
  155SAPE   H5X17220   2.772   1.645   7.734 -0.5332 -0.0281  0.4693
  155SAPE   H5Y17221   2.679   1.781   7.716 -0.9323  0.5560 -2.1381
  155SAPE   C3617222   2.631   1.642   7.570  0.4755 -0.0729  0.6142
  155SAPE   H6X17223   2.565   1.723   7.532  2.3009  1.5195  0.6977
  155SAPE   H6Y17224   2.580   1.544   7.555 -0.9307  1.0677 -3.2095
  155SAPE   C3717225   2.761   1.643   7.479  0.0451 -0.4588  0.2299
  155SAPE   H7X17226   2.840   1.570   7.505  0.3835 -0.7654 -1.5360
  155SAPE   H7Y17227   2.809   1.743   7.483  1.0266 -0.6987 -2.6733
  155SAPE   C3817228   2.718   1.623   7.334 -0.0341  0.4433  0.2993
  155SAPE   H8X17229   2.670   1.714   7.292 -1.1923 -0.0596  0.4919
  155SAPE   H8Y17230   2.650   1.534   7.334  1.7892 -1.0385  2.2165
  155SAPE   C3917231   2.826   1.578   7.236  0.1264  0.3930 -0.2308
  155SAPE   H9X17232   2.873   1.483   7.268 -1.7921 -0.6350 -0.3333
  155SAPE   H9Y17233   2.913   1.645   7.255  0.1014  0.0989  0.9902
  155SAPE  C31017234   2.782   1.576   7.086 -0.2755 -0.1757  0.9744
  155SAPE  H10X17235   2.772   1.684   7.062  1.4471 -0.3875 -1.0635
  155SAPE  H10Y17236   2.684   1.529   7.067  0.5016 -1.6823  0.5512
  155SAPE  C31117237   2.902   1.515   7.004  0.4717 -0.6772  0.2799
  155SAPE  H11X17238   2.912   1.407   7.029 -0.6601 -0.5612  1.3231
  155SAPE  H11Y17239   2.999   1.564   7.029  0.6263 -1.7005  1.8552
  155SAPE  C31217240   2.873   1.526   6.846 -0.0936  0.5071 -0.8501
  155SAPE  H12X17241   2.784   1.467   6.815  1.8397 -1.2462 -3.5527
  155SAPE  H12Y17242   2.958   1.480   6.791  0.5274  0.0854  0.4359
  155SAPE  C31317243   2.849   1.661   6.784 -0.6383 -0.0835  0.1276
  155SAPE  H13X17244   2.940   1.722   6.803  0.7980 -2.0534 -0.1437
  155SAPE  H13Y17245   2.757   1.700   6.832 -1.0193 -1.3883  0.5033
  155SAPE  C31417246   2.812   1.672   6.632 -1.0023 -1.0591 -0.5804
  155SAPE  H14X17247   2.716   1.615   6.626 -2.0736  0.4411  1.3125
  155SAPE  H14Y17248   2.886   1.613   6.573 -0.9842 -1.6883  0.0584
  155SAPE  C31517249   2.792   1.816   6.577  1.0883  0.6277  0.3548
  155SAPE  H15X17250   2.717   1.858   6.648  1.3224  2.1665 -0.2633
  155SAPE  H15Y17251   2.745   1.805   6.477 -0.7988  2.0391  1.0360
  155SAPE  C31617252   2.916   1.909   6.584 -0.4613 -0.0096  0.4308
  155SAPE  H16X17253   3.011   1.858   6.556 -0.4838  1.0157 -1.6292
  155SAPE  H16Y17254   2.934   1.936   6.691 -1.4029  1.1939  0.2999
  155SAPE  C31717255   2.901   2.040   6.508  0.1648 -0.1956 -0.3378
  155SAPE  H17X17256   2.999   2.085   6.479  0.0009  0.7493  0.5353
  155SAPE  H17Y17257   2.858   2.122   6.569  0.1266 -1.5511  1.5490
  155SAPE  C31817258   2.812   2.034   6.378  0.4188  0.1785 -0.0137
  155SAPE  H18X17259   2.861   1.986   6.290 -2.3847  2.5636 -3.1768
  155SAPE  H18Y17260   2.790   2.135   6.335 -2.0361 -1.0146 -1.8182
  155SAPE  H18Z17261   2.712   1.988   6.391  0.0766  0.6533 -0.8157
  156SAPE     N17262   5.887   1.684   8.601  0.8977  0.7175  0.4345
  156SAPE   HN117263   5.793   1.647   8.576  1.3531  1.0431 -2.0359
  156SAPE   HN217264   5.954   1.608   8.574  0.4574  1.5036 -3.3571
  156SAPE   HN317265   5.880   1.694   8.705 -1.5192 -1.3579  0.5674
  156SAPE   C1217266   5.922   1.808   8.539 -0.4202  0.2612  0.1078
  156SAPE  H12A17267   6.022   1.825   8.584 -0.9541 -0.6718  1.7274
  156SAPE  H12B17268   5.852   1.888   8.569 -0.2110  1.3712 -2.1864
  156SAPE   C1117269   5.906   1.784   8.389  0.5340 -0.1532 -0.5069
  156SAPE  H11A17270   5.957   1.694   8.351  2.0523 -0.2339  1.5661
  156SAPE  H11B17271   5.957   1.872   8.342 -0.0502  0.9244  0.8055
  156SAPE     P17272   5.690   1.657   8.287 -0.4294  0.0297 -0.0179
  156SAPE   O1317273   5.715   1.531   8.359  0.1904 -0.6344  0.3339
  156SAPE   O1417274   5.552   1.690   8.265 -0.6326  0.7493  0.6550
  156SAPE   O1217275   5.764   1.776   8.359  0.0237 -0.2539 -0.0661
  156SAPE   O1117276   5.768   1.642   8.142  0.0419  0.3957 -0.0744
  156SAPE    C117277   5.757   1.761   8.061  0.6398  0.0678  0.7986
  156SAPE    HA17278   5.737   1.859   8.111  2.6545  1.7849 -1.5341
  156SAPE    HB17279   5.849   1.768   7.999 -0.8260  0.4337 -1.4632
  156SAPE    C217280   5.643   1.741   7.943  0.0168  0.1944 -0.3157
  156SAPE    HS17281   5.546   1.718   7.992  0.8072 -1.3808  0.5872
  156SAPE   O2117282   5.670   1.633   7.859 -0.2273 -0.0351  0.3244
  156SAPE   C2117283   5.562   1.584   7.791 -0.2299  0.4306 -0.1243
  156SAPE   O2217284   5.447   1.598   7.826 -0.2725 -0.2154  0.0504
  156SAPE   C2217285   5.605   1.530   7.655 -0.8832  0.1656  0.2941
  156SAPE   H2R17286   5.716   1.533   7.647 -0.8972 -1.3275 -0.7056
  156SAPE   H2S17287   5.591   1.421   7.641 -0.4058  0.3991 -2.5029
  156SAPE    C317288   5.627   1.874   7.860 -0.6024  0.1686 -0.1787
  156SAPE    HX17289   5.587   1.945   7.935  0.1895  1.6435 -1.0960
  156SAPE    HY17290   5.557   1.855   7.776  0.3832 -0.9480 -0.7691
  156SAPE   O3117291   5.754   1.921   7.812 -0.3764 -0.3744  0.6081
  156SAPE   C3117292   5.759   2.024   7.736  0.1349  0.0035 -0.5904
  156SAPE   O3217293   5.663   2.084   7.688  0.7451  0.3733  0.0792
  156SAPE   C3217294   5.905   2.061   7.718 -1.0316  0.5346  0.0234
  156SAPE   H2X17295   5.955   1.975   7.668  0.1643  1.3375 -0.2177
  156SAPE   H2Y17296   5.948   2.067   7.820  2.1431  1.4191 -1.2323
  156SAPE   C2317297   5.546   1.600   7.527 -0.8775  0.3448 -0.2855
  156SAPE   H3R17298   5.452   1.656   7.544 -1.1955 -0.5389  1.0305
  156SAPE   H3S17299   5.521   1.520   7.454 -0.6137 -0.3979  0.4240
  156SAPE   C2417300   5.651   1.696   7.467 -0.3624  0.2882 -0.7746
  156SAPE   H4R17301   5.752   1.658   7.438  0.9178  1.8955  1.2232
  156SAPE   H4S17302   5.670   1.775   7.544 -1.8371  0.6141 -0.7206
  156SAPE   C2517303   5.588   1.766   7.351  0.1264 -0.2277 -0.4344
  156SAPE   H5R17304   5.487   1.804   7.374  1.2047  2.0930  0.7994
  156SAPE   C2617305   5.645   1.781   7.230 -0.1712  0.5121  0.8885
  156SAPE   H6R17306   5.591   1.857   7.172  1.8860  0.6934 -0.9306
  156SAPE   C2717307   5.794   1.759   7.185  0.5057  0.2312  0.5906
  156SAPE   H7R17308   5.861   1.785   7.270 -0.4207 -1.3213  1.8536
  156SAPE   H7S17309   5.814   1.824   7.097  1.0331 -1.0394 -0.2469
  156SAPE   C2817310   5.827   1.616   7.137 -0.3064  0.0968  0.4310
  156SAPE   H8R17311   5.872   1.555   7.216  0.6503  0.1378 -0.0603
  156SAPE   C2917312   5.816   1.561   7.011 -0.1781  0.1119  0.2827
  156SAPE   H9R17313   5.832   1.453   7.005  0.4965  0.1928  0.4804
  156SAPE  C21017314   5.776   1.634   6.882  0.1970 -0.2206 -0.0686
  156SAPE  H10R17315   5.703   1.714   6.906  0.1025 -0.5940  0.9413
  156SAPE  H10S17316   5.717   1.565   6.819 -1.4055  1.3826 -0.3909
  156SAPE  C21117317   5.891   1.692   6.802 -0.3644  0.8035 -0.3939
  156SAPE  H11R17318   5.970   1.753   6.848 -0.4216 -0.1773  1.0683
  156SAPE  C21217319   5.888   1.720   6.666  0.3947  0.4670  0.7432
  156SAPE  H12R17320   5.981   1.761   6.626 -0.0579 -0.3607 -1.2749
  156SAPE  C21317321   5.775   1.702   6.563 -0.4314  0.4759  0.3526
  156SAPE  H13R17322   5.770   1.790   6.495  1.5527  0.4516  0.1185
  156SAPE  H13S17323   5.674   1.698   6.610 -0.6358  1.6984  0.0437
  156SAPE  C21417324   5.778   1.579   6.474 -0.0641 -0.9533 -0.5166
  156SAPE  H14R17325   5.689   1.518   6.494 -0.2782 -0.0232  1.5401
  156SAPE  C21517326   5.869   1.560   6.372 -0.2190 -0.5713  0.5565
  156SAPE  H15R17327   5.867   1.461   6.323  0.7821 -0.3902  0.1232
  156SAPE  C21617328   5.982   1.647   6.332 -0.2460  0.1960 -0.0734
  156SAPE  H16R17329   6.078   1.601   6.364 -0.3647 -0.2291 -0.3307
  156SAPE  H16S17330   5.967   1.748   6.377  0.4098  0.9412 -1.4487
  156SAPE  C21717331   6.004   1.672   6.178 -0.6101  0.1957 -0.2906
  156SAPE  H17R17332   5.905   1.702   6.136 -0.3486  2.3818  0.4913
  156SAPE  H17S17333   6.035   1.577   6.131  1.5353  1.2478 -1.1583
  156SAPE  C21817334   6.109   1.776   6.140 -0.3454 -0.2438  0.9200
  156SAPE  H18R17335   6.209   1.731   6.162 -1.1936 -1.3727  2.6701
  156SAPE  H18S17336   6.093   1.868   6.199 -1.2256  1.2452 -1.5082
  156SAPE  C21917337   6.119   1.809   5.988  0.1129  0.3009 -0.2028
  156SAPE  H19R17338   6.132   1.723   5.918  0.1568 -0.8150  1.1417
  156SAPE  H19S17339   6.217   1.860   5.980  0.0979  0.2543 -0.7106
  156SAPE  C22017340   6.000   1.893   5.941  0.1405 -0.5583 -0.7010
  156SAPE  H20R17341   6.023   1.955   5.851  1.9620  1.3481  0.9352
  156SAPE  H20S17342   5.955   1.949   6.025  0.2831 -2.9918  1.0903
  156SAPE  H20T17343   5.923   1.825   5.901  0.9122 -0.6799 -2.0506
  156SAPE   C3317344   5.946   2.188   7.640  0.5147 -0.9018  1.2138
  156SAPE   H3X17345   6.057   2.194   7.645  0.5205 -1.1497  1.4566
  156SAPE   H3Y17346   5.894   2.277   7.682  0.4728  0.2606 -1.1818
  156SAPE   C3417347   5.923   2.187   7.493 -0.3387 -0.4533 -0.4786
  156SAPE   H4X17348   5.812   2.182   7.483 -0.2490  0.4375 -2.4163
  156SAPE   H4Y17349   5.964   2.100   7.438 -0.9875 -0.7910 -0.4359
  156SAPE   C3517350   5.972   2.317   7.427 -0.1002  0.0829  0.0617
  156SAPE   H5X17351   6.079   2.345   7.444 -0.7763  2.9439  0.2210
  156SAPE   H5Y17352   5.909   2.405   7.454 -0.9834  0.0754 -1.8059
  156SAPE   C3617353   5.946   2.316   7.268 -0.4200  0.3605 -0.5940
  156SAPE   H6X17354   5.982   2.412   7.225 -0.8969  1.5175  1.4677
  156SAPE   H6Y17355   5.836   2.307   7.251 -0.0218  0.7603 -4.1970
  156SAPE   C3717356   5.999   2.200   7.184 -0.2440  0.3968 -0.0406
  156SAPE   H7X17357   5.967   2.101   7.225 -0.1588  0.6102  0.5535
  156SAPE   H7Y17358   6.110   2.198   7.180 -0.1792 -0.4289  1.2908
  156SAPE   C3817359   5.944   2.217   7.044  0.4290  0.8197 -0.4273
  156SAPE   H8X17360   6.004   2.294   6.990 -0.7918  1.3235 -1.1150
  156SAPE   H8Y17361   5.836   2.243   7.037  0.2002 -0.3166 -1.4170
  156SAPE   C3917362   5.959   2.093   6.957 -0.3780 -0.2375 -0.8796
  156SAPE   H9X17363   5.890   2.023   7.008  2.5839 -1.4455  1.7676
  156SAPE   H9Y17364   6.065   2.060   6.963 -0.0411  0.4194 -2.4808
  156SAPE  C31017365   5.930   2.101   6.807  0.1243 -0.0881 -0.1365
  156SAPE  H10X17366   5.830   2.148   6.795  0.3401  0.4655  0.1856
  156SAPE  H10Y17367   5.930   1.996   6.772 -4.4921  0.0171 -1.1618
  156SAPE  C31117368   6.036   2.191   6.739  0.3326  0.2236  0.3960
  156SAPE  H11X17369   6.139   2.174   6.777  0.6511  0.7934 -0.1885
  156SAPE  H11Y17370   6.012   2.296   6.768 -0.7707  0.4949 -1.3370
  156SAPE  C31217371   6.027   2.198   6.584 -0.7520  1.0584 -0.4863
  156SAPE  H12X17372   6.043   2.098   6.539  2.0945  1.1987  0.0415
  156SAPE  H12Y17373   6.102   2.269   6.544 -0.4698  1.2693  0.3902
  156SAPE  C31317374   5.886   2.241   6.539 -0.3602  0.0206 -0.4411
  156SAPE  H13X17375   5.812   2.158   6.538 -1.7179  1.1596  0.6608
  156SAPE  H13Y17376   5.907   2.252   6.431  1.0816 -0.4274 -0.2331
  156SAPE  C31417377   5.830   2.361   6.617  0.0214 -0.0779 -0.0454
  156SAPE  H14X17378   5.908   2.440   6.626  0.5489 -0.3984 -1.5300
  156SAPE  H14Y17379   5.783   2.348   6.717 -0.6330  0.7380 -0.2358
  156SAPE  C31517380   5.728   2.440   6.532 -0.5555  0.1287 -0.2946
  156SAPE  H15X17381   5.710   2.533   6.590  0.0798  0.7944 -1.1430
  156SAPE  H15Y17382   5.631   2.386   6.528 -0.7727  0.5303 -4.4507
  156SAPE  C31617383   5.768   2.477   6.388  0.0762 -0.4423  0.1122
  156SAPE  H16X17384   5.785   2.394   6.316  1.8343 -0.0127 -0.0181
  156SAPE  H16Y17385   5.852   2.548   6.405 -2.0087  2.0599  0.5619
  156SAPE  C31717386   5.671   2.565   6.311  0.2229  0.0433  0.4189
  156SAPE  H17X17387   5.638   2.647   6.378  1.8944  0.2234  1.0679
  156SAPE  H17Y17388   5.583   2.498   6.302  0.7361 -0.5814  0.0018
  156SAPE  C31817389   5.735   2.612   6.177 -0.0339  0.0543 -0.1679
  156SAPE  H18X17390   5.822   2.678   6.190  2.0141 -2.1101 -1.8419
  156SAPE  H18Y17391   5.653   2.668   6.126 -0.1326  2.0339  2.0247
  156SAPE  H18Z17392   5.772   2.523   6.121  1.7926  2.1787 -2.5185
  157SAPE     N17393   3.525   6.457   8.419  0.1518 -0.3958 -0.1672
  157SAPE   HN117394   3.438   6.481   8.367  0.2646  0.0081 -0.1728
  157SAPE   HN217395   3.560   6.541   8.471  0.4909  0.6636 -1.9839
  157SAPE   HN317396   3.592   6.433   8.343  0.2816  1.6270 -0.7721
  157SAPE   C1217397   3.500   6.339   8.506 -0.5334 -0.8392  0.1976
  157SAPE  H12A17398   3.434   6.365   8.592  0.1339 -0.7532  0.6990
  157SAPE  H12B17399   3.596   6.302   8.549 -0.1327  1.1900  1.1622
  157SAPE   C1117400   3.424   6.239   8.419 -0.4743 -0.1053  0.9475
  157SAPE  H11A17401   3.414   6.148   8.482 -3.4571 -0.8104 -0.3282
  157SAPE  H11B17402   3.483   6.214   8.328 -1.9201  1.7380 -0.5892
  157SAPE     P17403   3.183   6.204   8.331  0.0766  0.3451  0.4714
  157SAPE   O1317404   3.184   6.092   8.429 -0.4879 -0.0086 -0.5240
  157SAPE   O1417405   3.059   6.272   8.301 -0.0160 -0.4473 -0.1423
  157SAPE   O1217406   3.301   6.296   8.371 -0.1653  0.6848 -0.0099
  157SAPE   O1117407   3.233   6.131   8.201  0.2171 -0.3831  0.2535
  157SAPE    C117408   3.304   6.197   8.090  1.1153 -0.3227 -0.0558
  157SAPE    HA17409   3.399   6.238   8.129 -0.1192 -0.9041  4.0124
  157SAPE    HB17410   3.338   6.118   8.020  0.9303  0.1391 -0.6714
  157SAPE    C217411   3.208   6.296   8.003 -0.1163 -0.0750 -0.8741
  157SAPE    HS17412   3.173   6.372   8.076 -1.2900 -1.4971  0.1113
  157SAPE   O2117413   3.102   6.218   7.955 -0.4859  0.1310  0.7649
  157SAPE   C2117414   2.990   6.275   7.958  0.8445 -0.1287 -0.5587
  157SAPE   O2217415   2.972   6.394   7.987  0.4386  0.2204 -0.3930
  157SAPE   C2217416   2.875   6.170   7.926  0.1892  0.0496  0.2918
  157SAPE   H2R17417   2.916   6.067   7.927  0.7042  0.2022 -1.8151
  157SAPE   H2S17418   2.804   6.176   8.011  0.4565 -2.4815  0.7739
  157SAPE    C317419   3.291   6.378   7.888 -0.7039 -0.0250  0.0148
  157SAPE    HX17420   3.342   6.304   7.823 -3.5727  0.1232 -2.6776
  157SAPE    HY17421   3.370   6.430   7.946 -1.2301  1.4957 -0.5822
  157SAPE   O3117422   3.201   6.458   7.800  0.1383 -0.6474 -0.3335
  157SAPE   C3117423   3.165   6.573   7.870 -0.7969 -0.1948 -0.3595
  157SAPE   O3217424   3.213   6.603   7.976  0.1903  0.2581 -0.3823
  157SAPE   C3217425   3.052   6.652   7.809 -0.1380  0.2445  0.8219
  157SAPE   H2X17426   2.975   6.654   7.888  2.7742  0.8243  3.8664
  157SAPE   H2Y17427   3.015   6.611   7.713  0.4318  0.0447  0.6815
  157SAPE   C2317428   2.806   6.193   7.792  0.3805  0.1175  0.9219
  157SAPE   H3R17429   2.793   6.301   7.769  1.1549  0.2032  0.8570
  157SAPE   H3S17430   2.703   6.152   7.793  0.3753  0.1062  0.2114
  157SAPE   C2417431   2.878   6.125   7.677  0.2326 -0.2000 -0.2217
  157SAPE   H4R17432   2.797   6.081   7.614 -0.8386  1.4164 -0.0301
  157SAPE   H4S17433   2.930   6.038   7.721 -1.4705 -1.3560 -0.3921
  157SAPE   C2517434   2.981   6.205   7.601 -0.0275 -0.3219  0.0446
  157SAPE   H5R17435   3.070   6.215   7.664  0.2561 -0.7744 -0.2757
  157SAPE   C2617436   2.968   6.248   7.479  0.6388 -0.5330 -0.6896
  157SAPE   H6R17437   3.054   6.305   7.440 -0.9480  2.4257 -0.1459
  157SAPE   C2717438   2.846   6.222   7.395 -0.0385  0.1939 -0.9957
  157SAPE   H7R17439   2.746   6.261   7.426 -0.3320 -0.2858 -1.3250
  157SAPE   H7S17440   2.843   6.111   7.387  2.1020  0.0303 -0.1607
  157SAPE   C2817441   2.868   6.277   7.256 -0.4409 -0.4027 -0.3307
  157SAPE   H8R17442   2.831   6.378   7.236 -0.2367 -0.0140  1.1918
  157SAPE   C2917443   2.947   6.208   7.163  0.9330  0.6886 -0.4059
  157SAPE   H9R17444   2.943   6.248   7.060 -0.0396  1.1174 -0.2123
  157SAPE  C21017445   3.016   6.073   7.174  0.0667  0.0991  0.0912
  157SAPE  H10R17446   2.939   5.994   7.162 -0.9089  0.9362  0.6600
  157SAPE  H10S17447   3.050   6.067   7.279  0.4435  2.0166  0.1120
  157SAPE  C21117448   3.122   6.046   7.073  0.0951  0.4937 -0.6090
  157SAPE  H11R17449   3.224   6.041   7.113  0.5276  3.1310 -1.1962
  157SAPE  C21217450   3.102   6.009   6.947 -0.6588 -0.4191  0.0249
  157SAPE  H12R17451   3.195   5.987   6.892 -1.3006 -0.7132 -0.9527
  157SAPE  C21317452   2.968   5.988   6.873  0.3259 -0.8142  0.2352
  157SAPE  H13R17453   2.935   6.083   6.826  1.8347  0.0052  0.7439
  157SAPE  H13S17454   2.892   5.953   6.945  0.9245 -1.3449  0.6271
  157SAPE  C21417455   2.993   5.887   6.762  0.3107  0.3946 -0.4314
  157SAPE  H14R17456   3.090   5.835   6.764  1.3494  2.2222 -1.0362
  157SAPE  C21517457   2.894   5.856   6.673 -0.6265  0.2068  1.1865
  157SAPE  H15R17458   2.914   5.784   6.593 -1.4840  0.3014  0.8799
  157SAPE  C21617459   2.766   5.918   6.661  0.2658 -0.2658  0.1408
  157SAPE  H16R17460   2.765   6.023   6.698  1.5416  0.2102 -1.1133
  157SAPE  H16S17461   2.703   5.859   6.730 -0.8529 -1.4187 -1.7934
  157SAPE  C21717462   2.700   5.920   6.531 -0.0180  0.3836 -0.4759
  157SAPE  H17R17463   2.591   5.924   6.551  0.0914  1.2933  0.0070
  157SAPE  H17S17464   2.706   5.820   6.483 -4.7455 -0.8192  0.9163
  157SAPE  C21817465   2.738   6.026   6.428  0.1734  0.3592  0.4833
  157SAPE  H18R17466   2.841   6.067   6.427  0.0189  0.8158 -1.8956
  157SAPE  H18S17467   2.680   6.119   6.451 -2.1292 -1.3555  2.0737
  157SAPE  C21917468   2.701   5.988   6.285 -0.6070 -0.3314  0.3330
  157SAPE  H19R17469   2.718   6.078   6.223 -2.7224 -1.3380 -1.8948
  157SAPE  H19S17470   2.592   5.976   6.267 -0.3260  1.2871 -3.2723
  157SAPE  C22017471   2.785   5.874   6.230  0.0106 -0.0445  0.5411
  157SAPE  H20R17472   2.771   5.781   6.289  2.1477 -0.2930  0.7527
  157SAPE  H20S17473   2.895   5.889   6.228  0.3759 -2.4337 -1.3392
  157SAPE  H20T17474   2.749   5.859   6.126  1.3898  1.3625 -0.1707
  157SAPE   C3317475   3.092   6.801   7.805 -0.4211 -0.5701  0.4411
  157SAPE   H3X17476   3.127   6.832   7.906  1.2767  0.1016 -0.3283
  157SAPE   H3Y17477   3.007   6.865   7.774 -0.9327 -0.1891  2.4944
  157SAPE   C3417478   3.207   6.811   7.695  0.0054 -0.2821 -0.0871
  157SAPE   H4X17479   3.302   6.758   7.719  0.5573  0.2563 -1.0121
  157SAPE   H4Y17480   3.247   6.911   7.670  0.7145 -1.0296 -2.1650
  157SAPE   C3517481   3.162   6.759   7.556  1.0210  0.0208 -0.6628
  157SAPE   H5X17482   3.138   6.651   7.552 -0.8335  0.4281 -2.3208
  157SAPE   H5Y17483   3.245   6.776   7.483  0.1487  1.0773 -1.4429
  157SAPE   C3617484   3.037   6.833   7.515  0.5190  0.2269  0.1041
  157SAPE   H6X17485   3.038   6.938   7.551 -1.5632  0.1128  0.6594
  157SAPE   H6Y17486   2.943   6.789   7.555 -0.5661  1.7059 -0.7160
  157SAPE   C3717487   3.024   6.822   7.356 -0.2892  0.4455  0.3359
  157SAPE   H7X17488   3.115   6.865   7.309  0.6030 -0.6740  0.9877
  157SAPE   H7Y17489   2.940   6.889   7.327 -0.3809  0.1158 -0.1682
  157SAPE   C3817490   3.008   6.677   7.300 -0.2790 -0.1994  1.2062
  157SAPE   H8X17491   2.901   6.660   7.322 -0.0731 -3.0555  0.3912
  157SAPE   H8Y17492   3.063   6.597   7.354  1.8752 -0.9371 -1.8393
  157SAPE   C3917493   3.029   6.658   7.153  0.0368  0.1626  0.0824
  157SAPE   H9X17494   2.983   6.557   7.143 -0.2853  0.2724  0.4087
  157SAPE   H9Y17495   3.134   6.648   7.120  0.9135  0.9263  2.3987
  157SAPE  C31017496   2.948   6.743   7.059  0.3471 -0.1660  0.5733
  157SAPE  H10X17497   2.982   6.849   7.062 -0.3707  0.0672  0.7843
  157SAPE  H10Y17498   2.843   6.736   7.096  0.0069  1.4963  0.0291
  157SAPE  C31117499   2.938   6.709   6.906 -0.0727  0.2075 -0.0948
  157SAPE  H11X17500   2.865   6.626   6.896  1.0600 -0.8221 -0.0306
  157SAPE  H11Y17501   3.035   6.673   6.864 -0.1611 -1.2331  0.8885
  157SAPE  C31217502   2.885   6.826   6.823 -0.2534 -0.2559  0.2244
  157SAPE  H12X17503   2.957   6.907   6.846  0.2038 -0.9683  1.3015
  157SAPE  H12Y17504   2.779   6.855   6.843 -0.7671 -0.4453 -1.8820
  157SAPE  C31317505   2.893   6.783   6.673 -0.8307  0.1052 -0.0514
  157SAPE  H13X17506   2.825   6.699   6.646 -0.9154  0.8413 -2.2660
  157SAPE  H13Y17507   2.999   6.753   6.657 -0.7652  0.2086  0.1853
  157SAPE  C31417508   2.863   6.898   6.588  0.3558 -0.4627  0.1673
  157SAPE  H14X17509   2.948   6.968   6.602 -0.6587  0.8218  0.1519
  157SAPE  H14Y17510   2.767   6.943   6.624 -0.0573  0.0956 -1.5200
  157SAPE  C31517511   2.878   6.876   6.436 -0.2554  0.7050  0.5326
  157SAPE  H15X17512   2.971   6.820   6.412 -1.3426 -1.3014  0.7317
  157SAPE  H15Y17513   2.884   6.978   6.392  1.4742  0.5072  0.2460
  157SAPE  C31617514   2.754   6.814   6.374  0.0918  0.3132 -0.0793
  157SAPE  H16X17515   2.754   6.704   6.390 -0.6727  0.3171 -0.0331
  157SAPE  H16Y17516   2.766   6.827   6.264 -1.0130  0.8388 -0.1443
  157SAPE  C31717517   2.627   6.881   6.422  0.1635  0.0260 -0.1558
  157SAPE  H17X17518   2.654   6.989   6.421  2.1232 -0.4172 -2.1776
  157SAPE  H17Y17519   2.596   6.855   6.526  0.9747 -0.8480 -0.1220
  157SAPE  C31817520   2.503   6.851   6.331 -0.0745  0.7134  0.1021
  157SAPE  H18X17521   2.519   6.846   6.221  2.6354  2.9910  0.2711
  157SAPE  H18Y17522   2.424   6.927   6.351 -0.3035  0.5452 -0.1533
  157SAPE  H18Z17523   2.464   6.750   6.356 -0.3647  0.8555  0.2268
  158SAPE     N17524   5.042   5.512   7.991 -0.5067  0.8677 -0.8916
  158SAPE   HN117525   4.998   5.420   7.973 -0.6925  0.9562 -0.8949
  158SAPE   HN217526   5.114   5.511   8.066 -1.5640  0.8614  0.1369
  158SAPE   HN317527   4.959   5.570   8.015 -0.8782  0.1808 -0.4776
  158SAPE   C1217528   5.106   5.554   7.857  0.6343  0.6142 -0.5256
  158SAPE  H12A17529   5.028   5.581   7.782 -1.4249 -1.3928  0.7697
  158SAPE  H12B17530   5.174   5.473   7.823 -1.1799 -0.6751 -1.2188
  158SAPE   C1117531   5.194   5.679   7.880 -0.4617 -0.2401  0.2119
  158SAPE  H11A17532   5.139   5.766   7.922 -0.6018  0.8191 -1.9967
  158SAPE  H11B17533   5.235   5.723   7.786 -0.0142 -0.7620  0.1598
  158SAPE     P17534   5.455   5.668   7.950  0.3727  0.1724 -0.0313
  158SAPE   O1317535   5.523   5.634   8.079  0.0618 -0.8347  0.1417
  158SAPE   O1417536   5.494   5.593   7.830  0.1478 -0.0597 -0.0859
  158SAPE   O1217537   5.297   5.654   7.970  0.1008  0.4751 -0.7969
  158SAPE   O1117538   5.444   5.822   7.928 -0.5236 -0.1167  0.0300
  158SAPE    C117539   5.558   5.902   7.881 -0.0376 -0.1622  0.0926
  158SAPE    HA17540   5.526   6.007   7.894  1.4074  0.2659  0.3675
  158SAPE    HB17541   5.648   5.897   7.946  0.0032 -1.8690 -0.0563
  158SAPE    C217542   5.603   5.873   7.737  0.2306  0.4492 -0.2882
  158SAPE    HS17543   5.638   5.769   7.718 -0.0526  0.0248  1.3313
  158SAPE   O2117544   5.712   5.963   7.695  0.1619 -0.1584  0.0797
  158SAPE   C2117545   5.837   5.948   7.746 -0.4680  0.0356 -0.7457
  158SAPE   O2217546   5.865   5.870   7.835  0.4635  0.4612  0.1314
  158SAPE   C2217547   5.947   6.029   7.671 -0.3791 -0.0565 -0.4675
  158SAPE   H2R17548   5.957   6.134   7.705 -1.8539  0.1277 -0.5178
  158SAPE   H2S17549   6.037   5.968   7.693 -0.7997 -0.5726 -0.1573
  158SAPE    C317550   5.475   5.895   7.635 -1.0740 -0.5126  0.0016
  158SAPE    HX17551   5.422   5.984   7.677  0.7630  0.7700 -0.2938
  158SAPE    HY17552   5.419   5.799   7.641  0.2337 -1.3663 -1.0311
  158SAPE   O3117553   5.510   5.930   7.502 -0.3025 -0.2507 -0.0848
  158SAPE   C3117554   5.544   5.833   7.425  0.4562 -0.3847 -0.1497
  158SAPE   O3217555   5.530   5.713   7.451 -0.0639  0.5034 -0.0380
  158SAPE   C3217556   5.581   5.901   7.293 -0.2857  0.0868  0.1786
  158SAPE   H2X17557   5.687   5.874   7.278 -0.7381 -1.0633 -1.1172
  158SAPE   H2Y17558   5.562   6.010   7.292 -0.4297  0.0638  0.2508
  158SAPE   C2317559   5.907   6.044   7.526  0.1076  0.3529  0.0818
  158SAPE   H3R17560   5.823   6.115   7.507 -1.0719 -0.9396  0.2876
  158SAPE   H3S17561   5.868   5.948   7.487 -2.8446  1.9837 -1.3500
  158SAPE   C2417562   6.031   6.084   7.443 -0.1211  0.0870  0.0924
  158SAPE   H4R17563   6.035   6.011   7.359 -0.4221 -0.0237  0.1695
  158SAPE   H4S17564   6.116   6.059   7.509 -0.2860 -0.2022  0.1989
  158SAPE   C2517565   6.012   6.227   7.410 -0.0503 -0.1149  0.1471
  158SAPE   H5R17566   5.998   6.291   7.498  0.6293 -1.5180  1.3369
  158SAPE   C2617567   6.000   6.293   7.295 -0.1807  0.3746 -0.3700
  158SAPE   H6R17568   5.981   6.401   7.290  1.0928  0.6164 -0.3742
  158SAPE   C2717569   6.036   6.235   7.165 -0.3586 -0.1698 -0.6213
  158SAPE   H7R17570   5.935   6.214   7.126 -0.1964  1.0255 -1.7830
  158SAPE   H7S17571   6.079   6.134   7.180  1.3595  0.6730  0.4486
  158SAPE   C2817572   6.111   6.322   7.069 -0.4933  0.0602  0.4056
  158SAPE   H8R17573   6.155   6.415   7.110 -1.0680  0.5663 -0.1029
  158SAPE   C2917574   6.118   6.305   6.937  0.1119 -0.9314 -0.5234
  158SAPE   H9R17575   6.196   6.370   6.893 -1.5641  2.7789  1.5478
  158SAPE  C21017576   6.069   6.194   6.852 -0.2249 -0.0284  0.0754
  158SAPE  H10R17577   6.079   6.099   6.908  2.8886  0.4084  0.4529
  158SAPE  H10S17578   6.134   6.182   6.762 -1.4923 -1.6816 -0.6747
  158SAPE  C21117579   5.921   6.214   6.810  0.7997  0.3198 -0.0661
  158SAPE  H11R17580   5.841   6.212   6.885  1.7799  0.4133  1.0128
  158SAPE  C21217581   5.884   6.256   6.685 -0.0921  0.2968  1.0876
  158SAPE  H12R17582   5.777   6.273   6.663 -0.1412  0.1532  1.2155
  158SAPE  C21317583   5.983   6.289   6.570  0.4701  1.0218  0.7902
  158SAPE  H13R17584   6.082   6.307   6.618  0.0510 -0.2435  2.1917
  158SAPE  H13S17585   5.955   6.381   6.514  0.0639  0.1562 -0.4446
  158SAPE  C21417586   5.995   6.170   6.480 -0.6739 -0.0098 -0.3675
  158SAPE  H14R17587   5.993   6.068   6.523  1.5243 -0.2564 -0.7312
  158SAPE  C21517588   6.033   6.176   6.354 -0.0844 -0.6396 -1.3888
  158SAPE  H15R17589   6.057   6.077   6.314 -0.2799 -0.8487 -0.9900
  158SAPE  C21617590   6.050   6.302   6.274 -1.0144  0.4297  0.5595
  158SAPE  H16R17591   6.155   6.337   6.271 -1.2661  1.1337 -1.0242
  158SAPE  H16S17592   6.002   6.394   6.315  0.9114  0.9567  1.8070
  158SAPE  C21717593   6.001   6.294   6.126  0.3535  0.2267 -0.2183
  158SAPE  H17R17594   5.895   6.265   6.143  0.9828 -2.4091 -0.3796
  158SAPE  H17S17595   6.050   6.208   6.076  0.4951  0.2836 -0.1796
  158SAPE  C21817596   6.017   6.431   6.047 -0.2573  0.7595 -0.9867
  158SAPE  H18R17597   6.121   6.467   6.060 -0.3673  0.6569  0.2275
  158SAPE  H18S17598   5.954   6.505   6.101 -1.2422 -0.9230  0.2684
  158SAPE  C21917599   6.001   6.424   5.889  0.0664 -0.0179 -0.4791
  158SAPE  H19R17600   5.893   6.408   5.870 -0.1149 -1.4990  1.4851
  158SAPE  H19S17601   6.053   6.330   5.859 -0.0116 -1.4633  3.3412
  158SAPE  C22017602   6.047   6.551   5.826 -0.2065  0.7338 -0.2589
  158SAPE  H20R17603   6.030   6.543   5.717 -2.5007 -0.2336  0.1007
  158SAPE  H20S17604   6.153   6.569   5.855 -0.5744  0.4821  1.3390
  158SAPE  H20T17605   5.990   6.640   5.862 -0.4772  0.5621 -0.2557
  158SAPE   C3317606   5.511   5.843   7.169 -0.5845  0.2341 -0.1753
  158SAPE   H3X17607   5.547   5.739   7.154 -3.5786 -0.7350 -1.2984
  158SAPE   H3Y17608   5.535   5.912   7.086  1.1350  1.3188  1.1406
  158SAPE   C3417609   5.357   5.840   7.187  0.4446 -0.2024  0.9041
  158SAPE   H4X17610   5.335   5.949   7.186 -0.8824 -0.4388 -0.8130
  158SAPE   H4Y17611   5.321   5.793   7.281  0.0153 -2.5099 -0.3330
  158SAPE   C3517612   5.270   5.801   7.060  0.6079 -0.2868 -0.0887
  158SAPE   H5X17613   5.313   5.836   6.964  1.0052  1.1199  0.5587
  158SAPE   H5Y17614   5.172   5.851   7.076  0.1963 -0.1010 -2.7598
  158SAPE   C3617615   5.236   5.652   7.086  0.0851 -0.2790  1.1736
  158SAPE   H6X17616   5.204   5.631   7.190  2.8238  0.5670  2.2850
  158SAPE   H6Y17617   5.331   5.600   7.060  0.6308  2.0693 -2.2152
  158SAPE   C3717618   5.121   5.611   6.995  0.1749  0.0088 -0.3474
  158SAPE   H7X17619   5.024   5.662   7.009  0.7500  0.5440  2.1806
  158SAPE   H7Y17620   5.093   5.506   7.017  1.2808 -0.4359 -0.9430
  158SAPE   C3817621   5.158   5.600   6.847 -0.6579 -0.1959  0.3892
  158SAPE   H8X17622   5.242   5.529   6.834 -0.6862  0.1623 -2.0601
  158SAPE   H8Y17623   5.197   5.697   6.811 -0.2319 -0.0536  1.1972
  158SAPE   C3917624   5.046   5.554   6.761 -0.1528 -0.0920  1.2842
  158SAPE   H9X17625   4.958   5.620   6.780 -0.8104 -0.5593  0.0007
  158SAPE   H9Y17626   5.019   5.450   6.789 -0.5705 -0.4744 -0.3868
  158SAPE  C31017627   5.084   5.536   6.612  0.0701  0.4779 -0.3252
  158SAPE  H10X17628   5.174   5.471   6.608  0.0717  0.5063 -0.7941
  158SAPE  H10Y17629   5.112   5.641   6.590  0.7241  1.0950  2.9316
  158SAPE  C31117630   4.979   5.482   6.528 -0.3161 -0.1169  0.4782
  158SAPE  H11X17631   4.881   5.531   6.547  0.5526  1.2253  1.6802
  158SAPE  H11Y17632   4.980   5.372   6.544  2.3213  0.1160  2.6754
  158SAPE  C31217633   5.019   5.501   6.380 -0.0071  0.0415 -0.1308
  158SAPE  H12X17634   5.118   5.452   6.382 -0.3211 -0.6378 -0.5848
  158SAPE  H12Y17635   5.038   5.607   6.353 -2.3068  0.5448 -0.0521
  158SAPE  C31317636   4.930   5.436   6.273 -0.1289  0.1458  0.6537
  158SAPE  H13X17637   4.825   5.471   6.282 -1.1012 -1.4834 -2.8292
  158SAPE  H13Y17638   4.940   5.326   6.280 -3.4354 -0.2058  1.0428
  158SAPE  C31417639   4.985   5.475   6.133 -0.3224 -0.8701  0.0696
  158SAPE  H14X17640   5.081   5.423   6.116  0.5608  0.0259  1.9475
  158SAPE  H14Y17641   5.012   5.583   6.137 -0.9867 -0.7165  0.7570
  158SAPE  C31517642   4.892   5.447   6.017 -0.2045  0.0219 -0.0261
  158SAPE  H15X17643   4.931   5.504   5.930 -2.1526  1.3543 -0.1056
  158SAPE  H15Y17644   4.796   5.500   6.040  1.2421  3.2399 -0.8306
  158SAPE  C31617645   4.872   5.300   5.983  0.0935 -0.7887 -0.0746
  158SAPE  H16X17646   4.767   5.270   6.006  0.1978 -2.2837 -1.3873
  158SAPE  H16Y17647   4.940   5.236   6.043 -0.8513 -0.4734  1.3882
  158SAPE  C31717648   4.892   5.275   5.837 -0.0187 -0.0812 -0.4271
  158SAPE  H17X17649   4.888   5.167   5.810  0.6694 -0.4543  0.8799
  158SAPE  H17Y17650   4.997   5.304   5.819 -0.0303  0.6285  0.5531
  158SAPE  C31817651   4.801   5.357   5.747 -0.0510  0.0788 -0.2276
  158SAPE  H18X17652   4.835   5.463   5.751  1.0137 -0.2129  4.4582
  158SAPE  H18Y17653   4.693   5.345   5.768 -0.7427  0.2670 -3.1803
  158SAPE  H18Z17654   4.826   5.329   5.642  0.0784 -2.0164  0.3203
  159SAPE     N17655   2.514   5.269   3.717  0.3632  0.2689  0.0790
  159SAPE   HN117656   2.588   5.298   3.650  0.1664  2.1146  0.6040
  159SAPE   HN217657   2.541   5.323   3.801  2.5250  0.4603 -0.6709
  159SAPE   HN317658   2.508   5.165   3.728  1.0889  0.2356  0.1670
  159SAPE   C1217659   2.385   5.312   3.644 -0.3583  0.2738 -0.3469
  159SAPE  H12A17660   2.383   5.283   3.536 -1.2717  0.1467 -0.3060
  159SAPE  H12B17661   2.396   5.423   3.648  3.1223  0.0306 -0.5766
  159SAPE   C1117662   2.256   5.249   3.712 -0.6634 -0.0811 -0.2216
  159SAPE  H11A17663   2.175   5.322   3.691 -1.0966 -0.4977 -0.0185
  159SAPE  H11B17664   2.262   5.252   3.823 -0.4450  0.7175 -0.2503
  159SAPE     P17665   2.284   4.994   3.716 -0.0599  0.2754 -0.1040
  159SAPE   O1317666   2.233   4.873   3.650 -0.0630  0.3897 -0.2411
  159SAPE   O1417667   2.431   5.014   3.727  0.0317 -0.6278  0.0452
  159SAPE   O1217668   2.216   5.128   3.646  0.6709  0.4193 -0.0258
  159SAPE   O1117669   2.227   5.006   3.854  0.1201 -0.0811 -0.6665
  159SAPE    C117670   2.298   4.965   3.975  0.1445 -0.3174  0.3672
  159SAPE    HA17671   2.367   4.882   3.951  2.9228  1.7305  0.6835
  159SAPE    HB17672   2.368   5.047   4.001  1.2448 -0.0101 -3.0886
  159SAPE    C217673   2.218   4.919   4.102  0.1747  0.2509  0.5306
  159SAPE    HS17674   2.181   5.012   4.150  2.7425  1.4700  0.3069
  159SAPE   O2117675   2.314   4.859   4.189 -0.4443 -0.2312  0.1742
  159SAPE   C2117676   2.303   4.872   4.322  0.1201  0.2899  0.1749
  159SAPE   O2217677   2.216   4.934   4.378 -0.9294  0.1109 -0.6340
  159SAPE   C2217678   2.422   4.801   4.381 -0.4367  0.4598 -0.3863
  159SAPE   H2R17679   2.397   4.693   4.391  0.5677  0.1957 -0.6211
  159SAPE   H2S17680   2.504   4.826   4.311 -1.0221 -0.1141 -1.2999
  159SAPE    C317681   2.101   4.827   4.071  0.0784 -0.1277 -0.5386
  159SAPE    HX17682   2.137   4.766   3.986 -0.5699 -0.4659 -0.5750
  159SAPE    HY17683   2.014   4.889   4.039 -0.1223  1.2989  2.4023
  159SAPE   O3117684   2.046   4.742   4.179 -0.0004  0.3328  0.0922
  159SAPE   C3117685   2.121   4.633   4.196 -0.0726  0.0334 -0.2210
  159SAPE   O3217686   2.221   4.603   4.138  0.6264  0.0448  0.1718
  159SAPE   C3217687   2.064   4.551   4.308  0.3075  0.3197 -0.3796
  159SAPE   H2X17688   2.122   4.457   4.316  2.9958  1.9557  1.0515
  159SAPE   H2Y17689   1.955   4.539   4.289  0.6154 -0.9818 -1.4183
  159SAPE   C2317690   2.464   4.856   4.521  0.9919 -0.7461 -0.0685
  159SAPE   H3R17691   2.447   4.965   4.530  1.9592 -0.6498  0.8863
  159SAPE   H3S17692   2.569   4.837   4.552  1.4062  0.4016 -0.7118
  159SAPE   C2417693   2.370   4.795   4.623  0.8288 -0.3098 -0.5043
  159SAPE   H4R17694   2.374   4.684   4.618 -1.1348 -0.3727 -1.6656
  159SAPE   H4S17695   2.266   4.826   4.599  1.6623  2.0733 -1.2996
  159SAPE   C2517696   2.395   4.848   4.757  0.1215 -0.1093 -0.0389
  159SAPE   H5R17697   2.437   4.949   4.748  1.0277 -0.3859  0.9183
  159SAPE   C2617698   2.397   4.777   4.867  0.7010 -0.6014 -0.8123
  159SAPE   H6R17699   2.430   4.827   4.960 -0.9346 -0.4486 -0.2941
  159SAPE   C2717700   2.360   4.630   4.880 -0.5956 -0.4144  0.5328
  159SAPE   H7R17701   2.395   4.587   4.784  1.8906  1.4793  0.4875
  159SAPE   H7S17702   2.251   4.617   4.893 -0.7803 -1.9766 -1.9379
  159SAPE   C2817703   2.418   4.541   4.986 -0.5901  0.0884 -0.1713
  159SAPE   H8R17704   2.341   4.466   5.010  0.0610 -0.5875 -0.1782
  159SAPE   C2917705   2.530   4.537   5.057  0.3676 -0.1430 -0.1340
  159SAPE   H9R17706   2.540   4.455   5.130 -1.5745  0.7485  1.2470
  159SAPE  C21017707   2.641   4.643   5.033 -0.3528 -0.3441  0.3275
  159SAPE  H10R17708   2.620   4.733   5.095  0.3630 -0.1871  0.3550
  159SAPE  H10S17709   2.651   4.683   4.930  0.2046 -3.1948 -0.8010
  159SAPE  C21117710   2.781   4.589   5.070  0.3375 -0.0599 -0.7348
  159SAPE  H11R17711   2.836   4.542   4.987 -1.8446 -2.4204 -1.0012
  159SAPE  C21217712   2.838   4.595   5.191  0.3470 -0.2960 -0.0131
  159SAPE  H12R17713   2.940   4.556   5.204  0.2446 -1.4461 -2.0584
  159SAPE  C21317714   2.767   4.648   5.318  0.6107 -0.9701  0.0005
  159SAPE  H13R17715   2.667   4.689   5.292  0.6671 -0.9962 -0.2688
  159SAPE  H13S17716   2.818   4.733   5.367 -0.7854  0.0298 -0.2231
  159SAPE  C21417717   2.746   4.537   5.420 -0.2948  0.5311  0.1902
  159SAPE  H14R17718   2.639   4.512   5.432 -0.1243 -0.4388 -0.2751
  159SAPE  C21517719   2.833   4.476   5.500  1.5654 -0.3838 -0.2414
  159SAPE  H15R17720   2.802   4.405   5.579  2.5051 -0.4554  0.0673
  159SAPE  C21617721   2.974   4.530   5.490 -0.2201  0.8959  0.4236
  159SAPE  H16R17722   2.978   4.637   5.461 -3.2683  1.2666  0.9917
  159SAPE  H16S17723   3.036   4.459   5.431  2.6869  1.7530  2.2490
  159SAPE  C21717724   3.031   4.526   5.633 -0.0424 -0.1098  0.1728
  159SAPE  H17R17725   2.957   4.562   5.707  1.5110  0.4766  1.5144
  159SAPE  H17S17726   3.114   4.600   5.635  0.5114 -0.7170  0.4844
  159SAPE  C21817727   3.080   4.386   5.678  0.3470 -0.8143  0.5449
  159SAPE  H18R17728   3.155   4.353   5.603 -0.5802  0.6072 -1.0858
  159SAPE  H18S17729   3.002   4.307   5.675 -0.3458 -0.1572  0.9530
  159SAPE  C21917730   3.136   4.403   5.822  0.3061  0.7457  0.0989
  159SAPE  H19R17731   3.060   4.429   5.898 -0.5835 -0.1681 -0.4542
  159SAPE  H19S17732   3.204   4.490   5.820 -1.0142  1.8405  1.0646
  159SAPE  C22017733   3.224   4.275   5.857 -0.4245  0.5357 -0.1946
  159SAPE  H20R17734   3.304   4.296   5.931  0.8007  0.1912 -1.3768
  159SAPE  H20S17735   3.283   4.244   5.768 -0.7705  0.8306 -0.5279
  159SAPE  H20T17736   3.159   4.190   5.886 -0.6972 -0.1824 -2.6375
  159SAPE   C3317737   2.076   4.625   4.444 -0.2496  0.5892 -0.2810
  159SAPE   H3X17738   2.052   4.734   4.441 -0.2705  0.5703 -2.1556
  159SAPE   H3Y17739   2.180   4.624   4.483 -0.4259  2.2393  0.2986
  159SAPE   C3417740   1.989   4.559   4.546 -0.3568 -0.2198 -0.2023
  159SAPE   H4X17741   2.006   4.451   4.530  2.3236 -0.0137  0.6787
  159SAPE   H4Y17742   1.889   4.581   4.504  0.8553  0.7076 -2.8285
  159SAPE   C3517743   2.006   4.617   4.691  0.1917  0.0882  0.2661
  159SAPE   H5X17744   1.983   4.726   4.690  1.1790  0.3097 -1.3446
  159SAPE   H5Y17745   2.113   4.604   4.719 -0.5207 -1.3484  2.6962
  159SAPE   C3617746   1.913   4.541   4.779  0.3252  0.1298 -0.0552
  159SAPE   H6X17747   1.944   4.436   4.762  2.4285  0.6730  0.2104
  159SAPE   H6Y17748   1.804   4.544   4.756  0.4537 -2.3089 -1.3425
  159SAPE   C3717749   1.927   4.596   4.920  0.2542  0.8749  0.5268
  159SAPE   H7X17750   1.859   4.684   4.920 -1.3666 -0.2142 -2.8716
  159SAPE   H7Y17751   2.033   4.626   4.929  0.6670 -0.6401  1.0933
  159SAPE   C3817752   1.882   4.507   5.023  0.2661 -0.1713  0.7591
  159SAPE   H8X17753   1.925   4.406   5.002  1.0040  0.4753 -1.1250
  159SAPE   H8Y17754   1.773   4.500   5.008  0.4112 -1.2384  0.1002
  159SAPE   C3917755   1.919   4.554   5.163  0.0367 -0.0311  0.8367
  159SAPE   H9X17756   1.881   4.657   5.181  1.4636  0.5835  0.4374
  159SAPE   H9Y17757   2.028   4.568   5.178  0.0783 -1.5506  2.3252
  159SAPE  C31017758   1.888   4.457   5.277  0.6698 -0.2302 -0.6764
  159SAPE  H10X17759   1.950   4.365   5.268 -0.6877 -1.0457 -2.2124
  159SAPE  H10Y17760   1.780   4.436   5.287  0.9370 -1.3017  0.1772
  159SAPE  C31117761   1.916   4.520   5.416  0.1080 -0.5014  0.1732
  159SAPE  H11X17762   1.876   4.446   5.489  1.3945 -1.0860  0.3102
  159SAPE  H11Y17763   1.861   4.616   5.428 -0.0126 -0.6864  1.1736
  159SAPE  C31217764   2.061   4.547   5.437 -0.1993  0.4727 -0.2597
  159SAPE  H12X17765   2.094   4.642   5.390  1.8319 -0.2939 -0.4958
  159SAPE  H12Y17766   2.106   4.455   5.392 -1.2706  0.5989 -1.6329
  159SAPE  C31317767   2.103   4.541   5.585 -0.0067 -0.2808 -0.2314
  159SAPE  H13X17768   2.093   4.443   5.636  1.1113  0.6650  1.9088
  159SAPE  H13Y17769   2.052   4.619   5.646  1.2819 -0.5238  1.2004
  159SAPE  C31417770   2.255   4.584   5.592  0.0763  0.9556 -0.5069
  159SAPE  H14X17771   2.270   4.692   5.573  0.1097  0.8750 -0.9538
  159SAPE  H14Y17772   2.310   4.520   5.520 -1.3674 -0.4948 -0.3918
  159SAPE  C31517773   2.318   4.555   5.727  0.0421  0.3512  0.1815
  159SAPE  H15X17774   2.304   4.449   5.755  1.1270  0.5064  1.4213
  159SAPE  H15Y17775   2.263   4.617   5.801  0.8728  0.1033  1.0298
  159SAPE  C31617776   2.468   4.602   5.731  0.2814 -0.4117 -0.7357
  159SAPE  H16X17777   2.473   4.713   5.723 -1.5947 -0.2884 -0.7115
  159SAPE  H16Y17778   2.523   4.551   5.649 -0.8623 -2.8405 -0.1056
  159SAPE  C31717779   2.521   4.569   5.869 -0.3657  0.2205  0.0782
  159SAPE  H17X17780   2.515   4.461   5.894 -1.0368  0.0306 -0.8536
  159SAPE  H17Y17781   2.464   4.627   5.946 -1.5744 -0.5637 -0.2021
  159SAPE  C31817782   2.675   4.598   5.875 -0.9432  0.0006 -0.1229
  159SAPE  H18X17783   2.710   4.689   5.822 -0.3033 -0.5355 -0.6379
  159SAPE  H18Y17784   2.740   4.524   5.823 -0.0784  2.8071 -3.3453
  159SAPE  H18Z17785   2.701   4.613   5.982  1.6734 -2.6718 -0.2251
  160SAPE     N17786   4.822   3.979   3.470  0.1608  0.2458 -0.0162
  160SAPE   HN117787   4.797   3.886   3.432  2.3054 -0.7841  0.8923
  160SAPE   HN217788   4.740   4.036   3.441 -0.7003 -1.3481 -0.8454
  160SAPE   HN317789   4.906   4.012   3.419  0.2808  1.6912  1.0234
  160SAPE   C1217790   4.832   3.974   3.620  0.1710  0.0914 -1.1118
  160SAPE  H12A17791   4.873   4.071   3.658  2.5248 -1.0721 -0.4841
  160SAPE  H12B17792   4.904   3.894   3.644 -1.8751 -1.3096  0.7251
  160SAPE   C1117793   4.696   3.945   3.689  0.0553 -0.1043 -1.0953
  160SAPE  H11A17794   4.710   3.929   3.798  0.3265  4.0749 -0.3395
  160SAPE  H11B17795   4.644   3.851   3.662 -0.6940  0.4449 -1.6243
  160SAPE     P17796   4.605   4.182   3.745 -0.1742  0.1981  0.1473
  160SAPE   O1317797   4.724   4.260   3.710 -0.0557  0.7578  0.4451
  160SAPE   O1417798   4.480   4.243   3.715 -0.6336  0.3377  0.3476
  160SAPE   O1217799   4.599   4.045   3.676 -0.2379 -0.2516  0.1235
  160SAPE   O1117800   4.613   4.144   3.897 -0.2624  0.3920 -0.1445
  160SAPE    C117801   4.493   4.086   3.959  0.3319  0.0028 -1.0891
  160SAPE    HA17802   4.438   4.017   3.892  1.4012 -2.0852  0.0699
  160SAPE    HB17803   4.527   4.022   4.043 -0.2028  1.4074  0.2435
  160SAPE    C217804   4.399   4.192   4.030  0.0766 -0.3102  0.6548
  160SAPE    HS17805   4.356   4.256   3.950 -0.6610 -2.6155 -0.8854
  160SAPE   O2117806   4.493   4.265   4.119  0.5416 -0.4638 -0.3370
  160SAPE   C2117807   4.442   4.382   4.159  0.1687  0.1210 -0.8342
  160SAPE   O2217808   4.344   4.440   4.115  0.1679  0.0136 -0.8973
  160SAPE   C2217809   4.520   4.428   4.281 -0.0740  0.3850 -0.1330
  160SAPE   H2R17810   4.550   4.340   4.341 -0.4517  1.1921  1.2751
  160SAPE   H2S17811   4.614   4.470   4.238  1.1594 -1.9720  0.1276
  160SAPE    C317812   4.285   4.135   4.112  0.3629  0.0389  0.3534
  160SAPE    HX17813   4.220   4.091   4.033  1.3276  1.0173 -1.0473
  160SAPE    HY17814   4.230   4.217   4.163 -0.5001  0.5604 -1.3219
  160SAPE   O3117815   4.327   4.035   4.203  0.5205  0.1953  0.9494
  160SAPE   C3117816   4.361   4.059   4.323 -0.1821  0.2837  0.1303
  160SAPE   O3217817   4.359   4.174   4.366 -0.1878  0.0567  0.4269
  160SAPE   C3217818   4.392   3.919   4.397 -0.1399  0.1595 -1.4045
  160SAPE   H2X17819   4.468   3.867   4.334 -0.0622 -2.0723  0.4020
  160SAPE   H2Y17820   4.301   3.857   4.387 -0.8726  1.0064 -0.2754
  160SAPE   C2317821   4.447   4.539   4.366 -0.0030 -0.5734  0.4906
  160SAPE   H3R17822   4.345   4.503   4.393 -0.6609  0.6534 -0.2661
  160SAPE   H3S17823   4.428   4.631   4.307 -0.0491  0.0495  1.4531
  160SAPE   C2417824   4.525   4.573   4.493 -0.6541  0.3772 -0.1097
  160SAPE   H4R17825   4.457   4.644   4.546 -0.1529  0.2575  0.7077
  160SAPE   H4S17826   4.623   4.622   4.476 -1.7926  3.0026  0.4652
  160SAPE   C2517827   4.532   4.447   4.582 -0.3245 -0.9335  0.4689
  160SAPE   H5R17828   4.467   4.368   4.543 -0.8069  0.6670 -2.2619
  160SAPE   C2617829   4.581   4.450   4.705  0.2878  0.5198 -0.2678
  160SAPE   H6R17830   4.573   4.354   4.759 -1.0736 -0.9021 -2.8439
  160SAPE   C2717831   4.661   4.562   4.765  1.0298 -0.2755  0.3623
  160SAPE   H7R17832   4.708   4.611   4.676  1.2442 -0.2971  0.4624
  160SAPE   H7S17833   4.751   4.533   4.823  0.7312 -0.8872  0.5188
  160SAPE   C2817834   4.588   4.661   4.852 -0.3135 -0.4483 -0.7689
  160SAPE   H8R17835   4.517   4.727   4.801  0.4985  2.2143  1.2921
  160SAPE   C2917836   4.585   4.676   4.990 -0.7542  0.6852  0.2162
  160SAPE   H9R17837   4.513   4.751   5.026 -1.2332  0.6455 -0.6382
  160SAPE  C21017838   4.655   4.589   5.093  0.2470  0.2864  0.3092
  160SAPE  H10R17839   4.691   4.659   5.172 -2.2516 -0.6486  2.3944
  160SAPE  H10S17840   4.734   4.525   5.049  1.0471 -0.2732  2.4355
  160SAPE  C21117841   4.562   4.498   5.170  0.1607 -0.4017 -0.3018
  160SAPE  H11R17842   4.470   4.485   5.111 -1.3740 -0.2056  1.9685
  160SAPE  C21217843   4.571   4.453   5.294  0.0899  1.1015  0.8045
  160SAPE  H12R17844   4.501   4.374   5.326  0.4415  1.0661  1.5173
  160SAPE  C21317845   4.684   4.478   5.391 -0.4630  1.2293 -0.5732
  160SAPE  H13R17846   4.730   4.574   5.362  0.7793  0.8558  0.1134
  160SAPE  H13S17847   4.765   4.403   5.379 -1.6193  0.2282 -3.0100
  160SAPE  C21417848   4.641   4.489   5.533  0.0304  0.4202 -0.2310
  160SAPE  H14R17849   4.586   4.582   5.551  0.8071  0.6815  0.8940
  160SAPE  C21517850   4.648   4.398   5.633  0.0335 -0.4463  0.3609
  160SAPE  H15R17851   4.611   4.427   5.732  1.5551 -0.6742  1.0256
  160SAPE  C21617852   4.730   4.272   5.627  0.5330 -0.8690  0.5024
  160SAPE  H16R17853   4.802   4.285   5.543  1.9021  2.2579  1.9795
  160SAPE  H16S17854   4.654   4.195   5.602 -0.8239  0.0255  1.7354
  160SAPE  C21717855   4.809   4.238   5.747  0.4096 -0.6592 -0.9239
  160SAPE  H17R17856   4.858   4.142   5.719  1.9206  0.1272 -1.0659
  160SAPE  H17S17857   4.740   4.220   5.832  1.6285 -0.5312  0.1106
  160SAPE  C21817858   4.901   4.352   5.789 -0.0155 -0.1540 -0.3864
  160SAPE  H18R17859   4.836   4.438   5.814 -2.0364 -1.4624 -0.9180
  160SAPE  H18S17860   4.973   4.377   5.708  0.1364 -1.3686 -0.6471
  160SAPE  C21917861   5.003   4.312   5.898 -0.0341 -0.6254 -0.0745
  160SAPE  H19R17862   5.067   4.398   5.926 -0.2954 -0.4499 -0.0188
  160SAPE  H19S17863   5.071   4.228   5.870  0.2240 -0.0718 -1.1715
  160SAPE  C22017864   4.940   4.268   6.030 -0.0821 -0.8537 -0.4482
  160SAPE  H20R17865   5.023   4.217   6.084  1.0279  0.2013 -1.1033
  160SAPE  H20S17866   4.861   4.193   6.009  0.2729 -1.1749 -0.6616
  160SAPE  H20T17867   4.892   4.346   6.092 -1.4265 -3.2719  1.7356
  160SAPE   C3317868   4.433   3.946   4.551  0.0624 -0.0778 -0.4502
  160SAPE   H3X17869   4.354   4.001   4.607  0.3561 -1.8715  1.9115
  160SAPE   H3Y17870   4.530   4.001   4.546 -0.7318  1.3767 -0.5894
  160SAPE   C3417871   4.449   3.811   4.629  0.3311  0.8772 -0.6438
  160SAPE   H4X17872   4.482   3.723   4.571  0.0554 -0.6500  1.4056
  160SAPE   H4Y17873   4.352   3.772   4.665  0.7441  2.3451  2.4445
  160SAPE   C3517874   4.555   3.814   4.747  0.0232 -0.6515 -0.4834
  160SAPE   H5X17875   4.523   3.896   4.815  0.2700 -2.6072  2.1329
  160SAPE   H5Y17876   4.652   3.836   4.698  0.1433 -1.6462 -0.7121
  160SAPE   C3617877   4.550   3.691   4.831 -0.1569  0.0341  0.0664
  160SAPE   H6X17878   4.627   3.622   4.791 -0.1534 -0.3196  0.6720
  160SAPE   H6Y17879   4.459   3.630   4.819 -0.1690  0.0823 -0.0872
  160SAPE   C3717880   4.588   3.705   4.977  0.7617 -0.0200 -0.3222
  160SAPE   H7X17881   4.509   3.773   5.016 -0.2400 -0.9876 -0.6206
  160SAPE   H7Y17882   4.678   3.769   4.990  1.2034 -0.5652 -0.6647
  160SAPE   C3817883   4.592   3.573   5.066  0.3252 -0.1230 -0.7966
  160SAPE   H8X17884   4.691   3.524   5.062  0.5000  0.1507 -0.0348
  160SAPE   H8Y17885   4.518   3.499   5.030 -0.1279 -1.0569  1.8334
  160SAPE   C3917886   4.554   3.599   5.219  0.1051 -0.0790  0.5256
  160SAPE   H9X17887   4.454   3.649   5.222  0.8534  1.4385  0.8663
  160SAPE   H9Y17888   4.631   3.667   5.260  1.0694  0.6707 -2.3055
  160SAPE  C31017889   4.546   3.469   5.300 -0.6195 -0.2706 -0.4794
  160SAPE  H10X17890   4.634   3.403   5.285 -0.3280 -0.1306  0.4902
  160SAPE  H10Y17891   4.457   3.407   5.276 -0.7611 -0.7588  1.1454
  160SAPE  C31117892   4.551   3.488   5.457  0.2566 -0.0116  0.2156
  160SAPE  H11X17893   4.467   3.554   5.486  2.0817  1.6649  1.9486
  160SAPE  H11Y17894   4.641   3.541   5.495 -0.7284  0.3261  2.2121
  160SAPE  C31217895   4.542   3.357   5.538  0.1276  0.3217  1.0759
  160SAPE  H12X17896   4.465   3.294   5.489  0.0463  2.2201 -1.4659
  160SAPE  H12Y17897   4.496   3.378   5.637 -1.7778 -0.3202  0.3720
  160SAPE  C31317898   4.679   3.286   5.566  0.1875  0.3126  0.5471
  160SAPE  H13X17899   4.740   3.366   5.614 -1.7462  2.5434 -0.4808
  160SAPE  H13Y17900   4.730   3.255   5.473  1.8619 -1.0449  1.8592
  160SAPE  C31417901   4.670   3.176   5.671 -0.1678 -0.8454 -0.0118
  160SAPE  H14X17902   4.600   3.208   5.751 -1.4607 -0.6078 -1.1973
  160SAPE  H14Y17903   4.769   3.148   5.714 -0.4459 -3.5768 -0.9295
  160SAPE  C31517904   4.616   3.049   5.615 -0.0286  0.7992 -0.5498
  160SAPE  H15X17905   4.510   3.072   5.591  0.1601  1.5959 -0.6293
  160SAPE  H15Y17906   4.629   2.973   5.695  2.7056  0.9242 -0.7892
  160SAPE  C31617907   4.699   2.994   5.497 -0.0295 -0.1259  0.5147
  160SAPE  H16X17908   4.799   2.973   5.540  0.4158  0.9477  0.0706
  160SAPE  H16Y17909   4.706   3.071   5.416 -1.2996 -0.3983  0.1224
  160SAPE  C31717910   4.648   2.867   5.436 -0.3725 -0.9829  0.3592
  160SAPE  H17X17911   4.726   2.845   5.360  0.4136  3.0445 -0.1897
  160SAPE  H17Y17912   4.553   2.883   5.381  1.1864 -0.2120 -2.3091
  160SAPE  C31817913   4.648   2.758   5.543  0.1639  0.8509 -0.7335
  160SAPE  H18X17914   4.567   2.766   5.619  1.4245  0.1021  0.7426
  160SAPE  H18Y17915   4.746   2.750   5.595  1.3806 -0.3737 -3.0221
  160SAPE  H18Z17916   4.637   2.658   5.494  1.2347  0.8708 -1.0224
  161SAPE     N17917   3.636   4.638   3.983  0.8763  0.6607 -0.2587
  161SAPE   HN117918   3.708   4.592   4.043 -1.0091 -1.5053  0.4941
  161SAPE   HN217919   3.546   4.628   4.035  0.4650 -0.4244 -1.1408
  161SAPE   HN317920   3.627   4.583   3.895 -0.3024  2.8359 -1.5823
  161SAPE   C1217921   3.660   4.780   3.946 -0.8313 -0.1129  0.4700
  161SAPE  H12A17922   3.757   4.775   3.893 -1.2794 -1.3586 -0.2770
  161SAPE  H12B17923   3.663   4.841   4.039  0.4895  0.1306  0.2874
  161SAPE   C1117924   3.545   4.831   3.862  1.6566  0.0739  0.7199
  161SAPE  H11A17925   3.562   4.806   3.755 -0.2850  1.7991 -0.0743
  161SAPE  H11B17926   3.541   4.942   3.857  2.7054  0.0813 -2.6336
  161SAPE     P17927   3.313   4.693   3.823  0.3260 -0.1354  0.1479
  161SAPE   O1317928   3.313   4.739   3.683 -0.7009  0.3426  0.6909
  161SAPE   O1417929   3.322   4.545   3.861 -0.2304  0.2801  0.1847
  161SAPE   O1217930   3.421   4.774   3.908 -0.3712 -0.0861 -0.7379
  161SAPE   O1117931   3.187   4.747   3.881 -0.5042  0.4021 -0.3240
  161SAPE    C117932   3.158   4.879   3.910  0.5132  0.4976  0.0625
  161SAPE    HA17933   3.243   4.946   3.886 -0.4666  1.7595 -0.0072
  161SAPE    HB17934   3.078   4.915   3.841 -0.9052  0.1910  1.4905
  161SAPE    C217935   3.121   4.899   4.056 -0.6916 -0.1636 -0.1128
  161SAPE    HS17936   3.050   4.985   4.059 -1.1788 -0.5364 -0.6403
  161SAPE   O2117937   3.234   4.922   4.138 -0.4548  0.2357  0.4755
  161SAPE   C2117938   3.313   5.028   4.118 -0.0848  0.4818 -0.2797
  161SAPE   O2217939   3.286   5.116   4.039  0.0712 -0.4920 -0.2064
  161SAPE   C2217940   3.443   5.019   4.197  0.0126  0.9165 -0.0535
  161SAPE   H2R17941   3.513   4.976   4.123  1.6788  0.7607  1.5549
  161SAPE   H2S17942   3.459   5.122   4.237  0.7268  1.1072 -0.8115
  161SAPE    C317943   3.039   4.781   4.117 -0.0021 -0.0231  0.5374
  161SAPE    HX17944   3.100   4.688   4.113  1.5449  0.8921  2.1028
  161SAPE    HY17945   2.948   4.765   4.055 -0.1888  2.8049 -0.0578
  161SAPE   O3117946   2.995   4.811   4.254 -0.5166 -0.1669  0.2235
  161SAPE   C3117947   3.083   4.760   4.343 -0.0566 -0.3375 -0.4308
  161SAPE   O3217948   3.170   4.680   4.318 -0.7454 -0.1574 -0.0443
  161SAPE   C3217949   3.056   4.825   4.480  1.3111 -0.4926  0.0549
  161SAPE   H2X17950   2.947   4.819   4.501  1.8489 -0.5605  3.4326
  161SAPE   H2Y17951   3.075   4.934   4.478 -0.1430 -0.1273  2.5100
  161SAPE   C2317952   3.434   4.926   4.320 -0.0322 -0.4171  0.0010
  161SAPE   H3R17953   3.429   4.818   4.293  4.7919 -0.9338  0.2863
  161SAPE   H3S17954   3.342   4.957   4.373 -0.8211 -0.4664 -1.3036
  161SAPE   C2417955   3.556   4.942   4.414 -0.0274 -0.3901  0.1711
  161SAPE   H4R17956   3.651   4.920   4.360 -0.5718 -0.0973 -0.9348
  161SAPE   H4S17957   3.529   4.872   4.496  0.1506  0.8897  1.3484
  161SAPE   C2517958   3.585   5.074   4.482 -0.1975  0.6732 -0.1108
  161SAPE   H5R17959   3.607   5.160   4.417  0.2766  1.9851  1.6801
  161SAPE   C2617960   3.584   5.101   4.616  0.4226  0.5413 -0.4369
  161SAPE   H6R17961   3.602   5.207   4.640 -0.2436  0.8251 -1.1277
  161SAPE   C2717962   3.557   5.014   4.740  0.1650  0.2403  0.0806
  161SAPE   H7R17963   3.592   4.911   4.712 -1.0866  0.1331 -1.2138
  161SAPE   H7S17964   3.448   5.009   4.760  0.4378 -2.0644  1.3407
  161SAPE   C2817965   3.624   5.069   4.864 -0.0713  0.6001  0.6422
  161SAPE   H8R17966   3.651   5.176   4.856  0.9273  0.3896  0.9580
  161SAPE   C2917967   3.644   4.996   4.977  0.6279  0.5279 -0.1050
  161SAPE   H9R17968   3.698   5.045   5.060 -1.9091  1.8539  0.8919
  161SAPE  C21017969   3.597   4.857   4.997 -0.1354  0.4490 -0.6832
  161SAPE  H10R17970   3.651   4.800   4.919 -0.6396  1.1467 -1.5692
  161SAPE  H10S17971   3.489   4.839   4.978 -0.6707  2.9343 -0.3916
  161SAPE  C21117972   3.649   4.813   5.131  0.2422 -0.0109 -0.1390
  161SAPE  H11R17973   3.607   4.852   5.225  0.2456  0.0607 -0.1674
  161SAPE  C21217974   3.746   4.719   5.154 -0.4105 -0.0162  0.4694
  161SAPE  H12R17975   3.777   4.702   5.258  1.0756  0.8171  0.2050
  161SAPE  C21317976   3.826   4.638   5.053 -0.6375  0.4690  0.0489
  161SAPE  H13R17977   3.923   4.622   5.105 -0.2954  0.0874 -0.6857
  161SAPE  H13S17978   3.853   4.699   4.964 -2.2205  0.4872 -0.4597
  161SAPE  C21417979   3.740   4.517   5.003  0.2320 -0.8910 -0.1685
  161SAPE  H14R17980   3.675   4.544   4.919  1.8051 -0.2222 -1.2266
  161SAPE  C21517981   3.729   4.392   5.057  0.0187 -0.3061  0.0637
  161SAPE  H15R17982   3.659   4.317   5.016  0.9723 -0.3511 -1.5244
  161SAPE  C21617983   3.816   4.347   5.179  0.2442 -0.3394  0.9009
  161SAPE  H16R17984   3.868   4.433   5.226  0.3208 -1.0310  2.1205
  161SAPE  H16S17985   3.887   4.268   5.147 -1.7456 -0.7826 -3.0332
  161SAPE  C21717986   3.727   4.288   5.287 -0.2723  0.6055 -0.2220
  161SAPE  H17R17987   3.789   4.225   5.355  0.1323  0.5765 -0.6152
  161SAPE  H17S17988   3.646   4.225   5.245 -2.0462  0.6914  2.7963
  161SAPE  C21817989   3.660   4.401   5.377  0.0985  0.2718 -0.5853
  161SAPE  H18R17990   3.599   4.469   5.314  0.0780  1.9347  1.1262
  161SAPE  H18S17991   3.740   4.459   5.428  0.5291 -0.8024 -0.0038
  161SAPE  C21917992   3.577   4.352   5.491  0.4638  1.1792  0.6774
  161SAPE  H19R17993   3.497   4.287   5.448  0.9759  1.7812 -1.3195
  161SAPE  H19S17994   3.515   4.440   5.520 -2.7130 -0.2290 -1.2070
  161SAPE  C22017995   3.648   4.283   5.607 -0.1785 -0.3531 -0.2329
  161SAPE  H20R17996   3.569   4.272   5.684 -1.7475 -0.0088 -1.7269
  161SAPE  H20S17997   3.727   4.347   5.653  0.0741 -1.1272  0.4386
  161SAPE  H20T17998   3.699   4.193   5.567 -0.2117  0.8059 -3.0833
  161SAPE   C3317999   3.146   4.773   4.593  0.4947 -0.1171 -0.0574
  161SAPE   H3X18000   3.252   4.790   4.563  0.6211 -2.9209 -1.5691
  161SAPE   H3Y18001   3.135   4.663   4.604  0.8489 -0.1183  0.2934
  161SAPE   C3418002   3.112   4.844   4.725  0.0687  0.4293  0.4856
  161SAPE   H4X18003   3.002   4.850   4.736  0.2687  2.3276  2.2500
  161SAPE   H4Y18004   3.148   4.949   4.736  0.8785  0.3163 -0.8374
  161SAPE   C3518005   3.166   4.763   4.850  0.2929 -0.3621 -0.3903
  161SAPE   H5X18006   3.275   4.764   4.832  0.5670  0.1679  1.1255
  161SAPE   H5Y18007   3.130   4.657   4.848  0.9352 -0.5756 -1.4339
  161SAPE   C3618008   3.138   4.818   4.991 -1.1183  0.9740  0.6086
  161SAPE   H6X18009   3.031   4.840   5.013 -1.2329  2.2608 -1.0304
  161SAPE   H6Y18010   3.197   4.912   4.986  1.7923 -0.7809 -1.0457
  161SAPE   C3718011   3.208   4.739   5.095  0.6989  0.7253  0.2759
  161SAPE   H7X18012   3.315   4.720   5.075  1.0897 -0.9557  3.3422
  161SAPE   H7Y18013   3.157   4.640   5.106 -3.6476  2.5716 -1.0868
  161SAPE   C3818014   3.204   4.810   5.231  0.0575 -1.1360  0.4211
  161SAPE   H8X18015   3.102   4.806   5.275 -0.3673 -2.1202 -0.6253
  161SAPE   H8Y18016   3.220   4.917   5.203 -1.7926 -1.1036 -0.6852
  161SAPE   C3918017   3.299   4.764   5.338  0.6044 -0.4271  0.1663
  161SAPE   H9X18018   3.400   4.742   5.296  0.5515 -0.4508  0.0513
  161SAPE   H9Y18019   3.252   4.668   5.369 -0.5941 -0.0170 -0.3528
  161SAPE  C31018020   3.310   4.860   5.456 -0.2475 -0.3417 -0.3568
  161SAPE  H10X18021   3.206   4.894   5.476 -0.2293  0.5204 -1.6406
  161SAPE  H10Y18022   3.346   4.960   5.425 -0.8794  0.5378  1.6261
  161SAPE  C31118023   3.380   4.800   5.577  0.1570 -0.3987  0.6398
  161SAPE  H11X18024   3.328   4.717   5.630 -1.0150 -1.4626 -1.9946
  161SAPE  H11Y18025   3.391   4.882   5.651 -0.7506  0.4658 -0.1540
  161SAPE  C31218026   3.523   4.767   5.546  0.4956  0.5204  1.1358
  161SAPE  H12X18027   3.574   4.858   5.506  2.8578 -0.3211  2.0280
  161SAPE  H12Y18028   3.534   4.680   5.479  1.1848  1.4189  0.0363
  161SAPE  C31318029   3.592   4.737   5.680  0.5330 -0.0873 -0.4146
  161SAPE  H13X18030   3.539   4.652   5.728  0.5508  0.6393  0.9251
  161SAPE  H13Y18031   3.590   4.826   5.747 -0.6900 -0.4738  0.0948
  161SAPE  C31418032   3.729   4.682   5.658 -0.5874 -0.1939 -0.3115
  161SAPE  H14X18033   3.785   4.745   5.585 -5.3470  1.5015 -2.9782
  161SAPE  H14Y18034   3.743   4.582   5.610 -1.5360 -0.1873 -0.6266
  161SAPE  C31518035   3.798   4.679   5.794  0.4780  0.3070  0.2081
  161SAPE  H15X18036   3.723   4.636   5.864  1.0713 -0.6428  0.2831
  161SAPE  H15Y18037   3.810   4.783   5.828 -1.6127  0.6667 -0.0522
  161SAPE  C31618038   3.928   4.607   5.818 -0.3759  0.1578  0.6550
  161SAPE  H16X18039   4.009   4.637   5.747 -0.1739 -2.0027 -0.1148
  161SAPE  H16Y18040   3.920   4.496   5.806  0.7081  0.1308  0.0006
  161SAPE  C31718041   3.978   4.625   5.967 -0.0829  0.5015  0.1582
  161SAPE  H17X18042   3.908   4.565   6.029  1.2152 -1.5759 -0.2976
  161SAPE  H17Y18043   3.975   4.729   6.005 -0.7468 -0.0883  1.7899
  161SAPE  C31818044   4.118   4.572   5.994  0.2634  0.0575  0.9460
  161SAPE  H18X18045   4.196   4.635   5.946 -1.9706  0.1002 -3.1454
  161SAPE  H18Y18046   4.127   4.471   5.949  0.7864 -0.2178  1.6523
  161SAPE  H18Z18047   4.138   4.572   6.103 -0.3275  3.5685  1.1777
  162SAPE     N18048   0.972   1.250   3.798 -0.3765 -0.0823  0.0666
  162SAPE   HN118049   0.935   1.344   3.773 -1.6982 -0.6888 -0.3045
  162SAPE   HN218050   1.075   1.253   3.813 -0.3881  0.5722  0.0668
  162SAPE   HN318051   0.955   1.192   3.714  0.4060 -0.2896  0.0447
  162SAPE   C1218052   0.917   1.210   3.919  0.2199  0.3640 -0.4054
  162SAPE  H12A18053   0.823   1.267   3.932  0.2686  0.5519 -0.8484
  162SAPE  H12B18054   0.986   1.244   3.999  1.0188 -1.8493 -0.0692
  162SAPE   C1118055   0.900   1.056   3.924  0.8332  0.1215 -0.0614
  162SAPE  H11A18056   0.872   1.017   3.824  0.1500  1.3885 -0.3840
  162SAPE  H11B18057   0.825   1.016   3.995  1.4120 -1.6158 -0.3760
  162SAPE     P18058   1.121   0.934   3.868 -0.0432  0.1689 -0.5092
  162SAPE   O1318059   1.075   0.804   3.815  0.0866  0.3937 -0.2018
  162SAPE   O1418060   1.157   1.034   3.767 -0.0263  0.1885  0.3806
  162SAPE   O1218061   1.019   0.997   3.969  0.2353 -0.7247  0.1647
  162SAPE   O1118062   1.246   0.912   3.965  0.2482 -0.0184  0.2783
  162SAPE    C118063   1.311   1.016   4.040  0.4036 -0.7656 -0.3588
  162SAPE    HA18064   1.410   1.043   3.998  0.8415 -3.1380 -0.9740
  162SAPE    HB18065   1.266   1.117   4.027  2.8754  0.1864 -2.1132
  162SAPE    C218066   1.317   1.003   4.196 -0.6413  0.3617  0.1192
  162SAPE    HS18067   1.381   0.915   4.218  0.3130  0.9694 -0.1146
  162SAPE   O2118068   1.194   0.994   4.251  0.7711 -0.4104 -0.1987
  162SAPE   C2118069   1.132   0.875   4.255 -0.6505 -1.3907 -0.0461
  162SAPE   O2218070   1.180   0.767   4.241  0.2335 -0.0811  0.2730
  162SAPE   C2218071   0.987   0.901   4.307  0.0283 -0.3299  0.0284
  162SAPE   H2R18072   0.951   0.969   4.227 -0.0256 -1.1762 -0.6822
  162SAPE   H2S18073   0.935   0.804   4.305 -0.5176 -0.0329 -0.5997
  162SAPE    C318074   1.403   1.108   4.261 -0.1406  0.1650 -0.6547
  162SAPE    HX18075   1.352   1.202   4.229 -4.2201 -0.6694  2.4357
  162SAPE    HY18076   1.507   1.115   4.224  0.6747 -1.2114  1.2278
  162SAPE   O3118077   1.395   1.102   4.401 -0.0570 -0.2906 -0.7027
  162SAPE   C3118078   1.495   1.033   4.455  0.6417 -0.0324 -0.2070
  162SAPE   O3218079   1.597   1.001   4.404 -0.3445  1.5751 -0.1295
  162SAPE   C3218080   1.464   1.010   4.605  0.1246  0.4973 -0.3057
  162SAPE   H2X18081   1.392   0.925   4.609 -0.2470  0.7188 -1.6044
  162SAPE   H2Y18082   1.410   1.096   4.649 -0.0409 -0.3165  1.1399
  162SAPE   C2318083   0.976   0.956   4.454 -0.4349  0.0014  0.7049
  162SAPE   H3R18084   0.880   1.005   4.478  0.2131  0.7006  1.9849
  162SAPE   H3S18085   1.049   1.040   4.461  0.5020 -0.7970  0.8520
  162SAPE   C2418086   1.003   0.853   4.560 -0.7081 -0.2583 -0.6582
  162SAPE   H4R18087   1.096   0.794   4.545 -1.7097 -1.5563 -2.1558
  162SAPE   H4S18088   0.928   0.778   4.525 -0.3027 -0.2394 -1.6194
  162SAPE   C2518089   0.986   0.893   4.702 -0.3089  0.5209 -0.3130
  162SAPE   H5R18090   0.895   0.953   4.717  0.8270  2.9692 -2.5515
  162SAPE   C2618091   1.065   0.856   4.806 -0.4217 -0.2491  0.0636
  162SAPE   H6R18092   1.026   0.885   4.905  0.2390  1.0703 -0.0381
  162SAPE   C2718093   1.179   0.757   4.812  0.8143  0.1434 -0.8920
  162SAPE   H7R18094   1.271   0.819   4.820 -0.3422  1.7794  0.3762
  162SAPE   H7S18095   1.192   0.701   4.717 -0.0757  2.5965 -2.5486
  162SAPE   C2818096   1.175   0.676   4.939  0.1581  0.3883  0.3248
  162SAPE   H8R18097   1.153   0.570   4.921 -0.2402  1.0100 -3.5366
  162SAPE   C2918098   1.197   0.716   5.065  0.0099  0.4533 -0.1526
  162SAPE   H9R18099   1.155   0.647   5.139  0.8098 -0.1785 -0.2672
  162SAPE  C21018100   1.234   0.850   5.126 -0.5396  0.2478 -0.3493
  162SAPE  H10R18101   1.141   0.903   5.154 -1.1149 -0.5164 -0.7824
  162SAPE  H10S18102   1.276   0.918   5.048 -1.7172  0.4842 -0.7873
  162SAPE  C21118103   1.329   0.814   5.242 -0.6154  0.0172  0.4867
  162SAPE  H11R18104   1.435   0.817   5.214 -1.0209  2.2753 -1.0248
  162SAPE  C21218105   1.297   0.790   5.370  0.0618  0.5424 -0.5040
  162SAPE  H12R18106   1.366   0.765   5.452 -0.1873 -0.5556 -0.6209
  162SAPE  C21318107   1.160   0.789   5.429 -0.1655 -0.1171  0.6905
  162SAPE  H13R18108   1.141   0.690   5.477  0.5752 -1.5647 -1.8172
  162SAPE  H13S18109   1.077   0.783   5.357  1.1085 -3.2868 -0.7170
  162SAPE  C21418110   1.120   0.901   5.526  0.8537 -0.1043  1.4512
  162SAPE  H14R18111   1.065   0.979   5.471  1.6448 -1.2713 -1.1686
  162SAPE  C21518112   1.127   0.901   5.656  0.6571 -0.3005  0.6286
  162SAPE  H15R18113   1.078   0.987   5.704 -0.8692  1.0866 -3.0166
  162SAPE  C21618114   1.194   0.809   5.754 -0.4203  0.4498 -0.6376
  162SAPE  H16R18115   1.265   0.870   5.814 -1.2616 -0.0191  0.8843
  162SAPE  H16S18116   1.249   0.724   5.710 -3.6296 -1.5596 -1.0996
  162SAPE  C21718117   1.085   0.752   5.848 -0.1171 -0.2907  0.0377
  162SAPE  H17R18118   1.132   0.681   5.919 -0.5240 -1.0978 -0.4947
  162SAPE  H17S18119   1.017   0.685   5.792  1.0709 -2.7329  1.3421
  162SAPE  C21818120   0.997   0.855   5.919 -0.1131  0.1630 -0.6190
  162SAPE  H18R18121   0.934   0.914   5.849 -2.8297 -0.1969  1.3358
  162SAPE  H18S18122   1.064   0.933   5.960 -0.0467 -0.2843  0.1382
  162SAPE  C21918123   0.895   0.803   6.024 -0.4371 -0.0032  0.4442
  162SAPE  H19R18124   0.932   0.756   6.118  1.3869  3.7324  1.8087
  162SAPE  H19S18125   0.831   0.730   5.971 -1.8220  2.2842 -1.2492
  162SAPE  C22018126   0.797   0.912   6.083  0.2849  0.0329 -0.2496
  162SAPE  H20R18127   0.761   0.983   6.006 -2.6414  1.5633  2.3147
  162SAPE  H20S18128   0.830   0.961   6.177 -0.8998  0.6036 -0.1128
  162SAPE  H20T18129   0.705   0.855   6.110  1.4840 -1.4203  0.9434
  162SAPE   C3318130   1.593   0.990   4.685  0.4981 -0.3647  0.0110
  162SAPE   H3X18131   1.668   1.068   4.658  0.7800 -1.3048 -2.0512
  162SAPE   H3Y18132   1.646   0.893   4.681 -0.9443 -1.2502  1.3230
  162SAPE   C3418133   1.580   1.002   4.838  0.6172 -0.7547  0.0523
  162SAPE   H4X18134   1.520   0.912   4.861  0.9369 -1.0682 -0.3308
  162SAPE   H4Y18135   1.538   1.101   4.867  3.9048  1.3331 -1.6334
  162SAPE   C3518136   1.715   0.989   4.919  0.1182  0.0267  0.2473
  162SAPE   H5X18137   1.766   1.087   4.906  2.5874 -1.0548  1.2863
  162SAPE   H5Y18138   1.773   0.915   4.860 -0.4596  0.6609 -1.1854
  162SAPE   C3618139   1.700   0.952   5.065 -0.1030  0.2997 -0.5076
  162SAPE   H6X18140   1.795   0.934   5.119 -0.5487  4.6023  2.1487
  162SAPE   H6Y18141   1.636   0.861   5.075  1.3608 -0.6409  0.7587
  162SAPE   C3718142   1.631   1.063   5.143 -0.1590  0.5681 -0.6592
  162SAPE   H7X18143   1.530   1.081   5.102  0.3506 -2.1566 -3.4821
  162SAPE   H7Y18144   1.690   1.156   5.128  1.5698 -0.6772 -2.0255
  162SAPE   C3818145   1.630   1.053   5.296 -0.5804 -0.2301 -0.2414
  162SAPE   H8X18146   1.576   0.959   5.319 -3.3060  1.1788 -0.5609
  162SAPE   H8Y18147   1.575   1.142   5.333 -1.4394 -0.0588 -1.8769
  162SAPE   C3918148   1.772   1.059   5.361  0.2776 -0.6461 -0.4007
  162SAPE   H9X18149   1.816   1.156   5.330 -0.6111  0.7130  2.3113
  162SAPE   H9Y18150   1.839   0.983   5.314  0.9030 -0.9928  1.0080
  162SAPE  C31018151   1.770   1.045   5.510  0.4376 -0.2588  0.7954
  162SAPE  H10X18152   1.725   0.945   5.532 -1.5098  0.6359  1.0941
  162SAPE  H10Y18153   1.708   1.128   5.550 -1.0501 -0.0617 -1.7147
  162SAPE  C31118154   1.902   1.041   5.585  0.1437 -0.0519  0.5306
  162SAPE  H11X18155   1.958   1.125   5.538 -1.8126 -0.1521 -2.1787
  162SAPE  H11Y18156   1.974   0.967   5.546  1.0829  1.7552 -1.3585
  162SAPE  C31218157   1.897   1.054   5.738  0.7036  0.5775 -0.6286
  162SAPE  H12X18158   1.840   0.971   5.785  0.7478 -0.6597 -2.6558
  162SAPE  H12Y18159   1.845   1.148   5.766 -1.4474 -0.9150  0.7147
  162SAPE  C31318160   2.037   1.058   5.798 -0.1549  0.0210  0.5076
  162SAPE  H13X18161   2.102   1.117   5.730 -0.0057  1.1332  1.5874
  162SAPE  H13Y18162   2.082   0.956   5.803  1.0596  0.4950 -0.2353
  162SAPE  C31418163   2.044   1.113   5.937 -0.1121  0.7397  0.1547
  162SAPE  H14X18164   1.954   1.085   5.996 -1.6439  2.7896 -1.0973
  162SAPE  H14Y18165   2.043   1.224   5.932  4.0503  0.9919  1.2606
  162SAPE  C31518166   2.167   1.079   6.025 -0.1293  0.2307 -0.5681
  162SAPE  H15X18167   2.189   0.971   6.032 -0.1935  0.1909 -0.9807
  162SAPE  H15Y18168   2.139   1.109   6.128  3.0687  0.5920  0.3130
  162SAPE  C31618169   2.298   1.151   6.005  0.1057 -0.6458  0.2306
  162SAPE  H16X18170   2.347   1.104   5.917  2.1619 -2.0351  2.0249
  162SAPE  H16Y18171   2.366   1.138   6.092 -1.3344  0.1772  1.5394
  162SAPE  C31718172   2.286   1.307   5.982  0.4155  0.0995 -0.0190
  162SAPE  H17X18173   2.220   1.327   5.895  1.4928  2.7541 -0.3380
  162SAPE  H17Y18174   2.387   1.347   5.959  1.0510 -1.4056  0.0129
  162SAPE  C31818175   2.223   1.380   6.104  0.1241 -0.0642 -0.0145
  162SAPE  H18X18176   2.211   1.488   6.085 -0.3151  0.0497  0.8580
  162SAPE  H18Y18177   2.299   1.375   6.185  0.0635 -0.1621  0.0368
  162SAPE  H18Z18178   2.127   1.338   6.141  0.8455  0.9567  3.4561
  163SAPE     N18179   0.542   4.937   3.966 -1.0076 -0.2859  0.4517
  163SAPE   HN118180   0.641   4.904   3.968 -1.1411 -0.7261  0.0692
  163SAPE   HN218181   0.500   4.869   3.899 -0.0018 -0.4412 -0.0466
  163SAPE   HN318182   0.542   5.038   3.942 -0.0989 -0.9961 -3.0924
  163SAPE   C1218183   0.484   4.907   4.101  0.2300  0.4352  0.5119
  163SAPE  H12A18184   0.455   5.007   4.138 -1.4723  0.7905 -1.6050
  163SAPE  H12B18185   0.565   4.866   4.165  1.6683  2.5102  0.1199
  163SAPE   C1118186   0.366   4.806   4.082  0.0867 -0.3857 -0.5266
  163SAPE  H11A18187   0.282   4.849   4.023  0.0984  0.7817  0.2741
  163SAPE  H11B18188   0.310   4.796   4.178  0.7597  0.7616  0.0040
  163SAPE     P18189   0.386   4.627   3.903 -0.0973  0.2601 -0.0754
  163SAPE   O1318190   0.429   4.741   3.814 -0.1812 -0.2252  0.0185
  163SAPE   O1418191   0.448   4.495   3.887 -0.0837  0.5596 -0.5372
  163SAPE   O1218192   0.423   4.673   4.044  0.2337  0.4143  0.2480
  163SAPE   O1118193   0.233   4.617   3.920  0.5559  0.4917 -0.1013
  163SAPE    C118194   0.169   4.536   4.025 -0.2006 -0.0978  0.7375
  163SAPE    HA18195   0.147   4.438   3.977 -0.3345  0.9010 -1.3848
  163SAPE    HB18196   0.237   4.514   4.110 -0.4045 -0.7075  0.7498
  163SAPE    C218197   0.035   4.597   4.079 -0.0318 -0.3287 -0.4166
  163SAPE    HS18198  -0.035   4.578   3.995  1.1278 -3.5830 -0.7688
  163SAPE   O2118199   0.051   4.736   4.116 -0.1030  0.5896  0.2355
  163SAPE   C2118200  -0.054   4.803   4.135  0.2965 -0.2805  0.0470
  163SAPE   O2218201  -0.170   4.765   4.123 -0.1317  0.2982  0.3319
  163SAPE   C2218202  -0.019   4.940   4.196  0.0658  0.1464  0.1387
  163SAPE   H2R18203   0.020   5.003   4.114  1.0824 -0.6181  0.0144
  163SAPE   H2S18204  -0.113   4.986   4.235 -0.4076  1.4485 -2.3153
  163SAPE    C318205  -0.026   4.520   4.200 -0.4759 -0.4791  0.1257
  163SAPE    HX18206  -0.013   4.413   4.173  0.9143 -0.5569  1.0278
  163SAPE    HY18207  -0.136   4.535   4.204 -0.2617  1.3267 -0.0151
  163SAPE   O3118208   0.026   4.558   4.325  0.3743 -0.3551 -0.1701
  163SAPE   C3118209   0.116   4.472   4.371 -0.1305  0.5897  0.1060
  163SAPE   O3218210   0.166   4.385   4.302 -0.3435 -0.2001  0.1562
  163SAPE   C3218211   0.153   4.499   4.511  0.0131 -0.0655 -0.3343
  163SAPE   H2X18212   0.102   4.429   4.581 -2.2554  1.5945 -0.2248
  163SAPE   H2Y18213   0.125   4.605   4.524 -1.8398 -0.4364 -1.0608
  163SAPE   C2318214   0.083   4.926   4.314 -0.2921  1.3600 -0.4276
  163SAPE   H3R18215   0.152   5.014   4.310 -0.3756  1.6211  2.3128
  163SAPE   H3S18216   0.152   4.839   4.305 -0.3884  0.9079  2.2857
  163SAPE   C2418217   0.026   4.932   4.456 -0.6540  0.4055  0.4340
  163SAPE   H4R18218  -0.034   4.843   4.485 -1.1726  1.0683  1.4142
  163SAPE   H4S18219  -0.058   5.004   4.449 -1.0000 -0.1322 -1.9851
  163SAPE   C2518220   0.126   4.962   4.559  0.1236  0.2798  0.3207
  163SAPE   H5R18221   0.227   4.961   4.515 -0.6314  1.3406 -1.5777
  163SAPE   C2618222   0.126   4.987   4.689  0.6054  0.0162 -0.1885
  163SAPE   H6R18223   0.221   5.004   4.742 -0.0380  0.2442  0.9298
  163SAPE   C2718224   0.004   5.009   4.773 -0.5525  0.0601 -0.3549
  163SAPE   H7R18225  -0.067   5.065   4.707  2.4146  2.6369 -1.6324
  163SAPE   H7S18226   0.041   5.070   4.858 -0.5891 -1.5522  0.8521
  163SAPE   C2818227  -0.064   4.879   4.818 -0.0550 -0.1340 -0.2628
  163SAPE   H8R18228  -0.102   4.820   4.732 -0.8797 -1.6346  1.0797
  163SAPE   C2918229  -0.083   4.832   4.938  0.3724 -0.7345 -0.4742
  163SAPE   H9R18230  -0.140   4.739   4.954 -0.9717  0.2461  0.7317
  163SAPE  C21018231  -0.040   4.893   5.072 -0.3154  0.4655 -0.1418
  163SAPE  H10R18232  -0.112   4.863   5.151  3.6203 -1.5825  3.0027
  163SAPE  H10S18233  -0.047   5.003   5.062 -0.9209  0.3679 -0.9774
  163SAPE  C21118234   0.094   4.846   5.113 -0.1246 -0.5744 -0.1221
  163SAPE  H11R18235   0.166   4.856   5.030 -0.9752 -0.1771 -0.8250
  163SAPE  C21218236   0.133   4.833   5.239 -0.7893  0.2979  1.0579
  163SAPE  H12R18237   0.234   4.796   5.263 -0.8175 -3.1139 -2.9165
  163SAPE  C21318238   0.038   4.845   5.356 -0.1741  0.5111  1.3849
  163SAPE  H13R18239  -0.055   4.787   5.339  0.4873 -0.4539  0.9896
  163SAPE  H13S18240   0.010   4.953   5.351 -1.9734  0.0304 -1.4853
  163SAPE  C21418241   0.104   4.796   5.481 -0.0801 -0.5810  0.3749
  163SAPE  H14R18242   0.120   4.687   5.483 -0.7345 -0.6752  0.9721
  163SAPE  C21518243   0.162   4.870   5.584  0.0261 -0.2957  0.0664
  163SAPE  H15R18244   0.211   4.816   5.667  1.7038 -1.1068 -1.3944
  163SAPE  C21618245   0.152   5.011   5.606 -0.0807 -0.3639  0.5500
  163SAPE  H16R18246   0.068   5.055   5.548 -0.5719  1.2769  2.3697
  163SAPE  H16S18247   0.251   5.057   5.584  0.5517 -1.5476  0.8156
  163SAPE  C21718248   0.096   5.066   5.740 -0.7921  0.9775  0.7759
  163SAPE  H17R18249   0.168   5.049   5.823 -1.3719 -1.5476  0.8565
  163SAPE  H17S18250   0.005   5.005   5.760 -1.1180  1.2973  0.2910
  163SAPE  C21818251   0.040   5.202   5.735  0.2517  0.2341 -0.3474
  163SAPE  H18R18252  -0.023   5.230   5.822  1.2429  1.8602 -0.0981
  163SAPE  H18S18253  -0.016   5.226   5.642 -0.0594 -1.1846 -0.5361
  163SAPE  C21918254   0.165   5.299   5.730  0.0681  0.6079 -0.1410
  163SAPE  H19R18255   0.233   5.270   5.647  1.2643 -1.6593  1.4843
  163SAPE  H19S18256   0.233   5.292   5.818 -1.1793  0.8944  0.8741
  163SAPE  C22018257   0.121   5.441   5.706  0.4825 -0.7734  0.0729
  163SAPE  H20R18258   0.203   5.508   5.673  0.8882 -1.3994 -0.2055
  163SAPE  H20S18259   0.077   5.467   5.805  1.5844  1.4548  0.0320
  163SAPE  H20T18260   0.050   5.437   5.621 -0.7047 -0.2950  1.0195
  163SAPE   C3318261   0.303   4.463   4.539 -0.1931  0.8054  0.1400
  163SAPE   H3X18262   0.367   4.508   4.460  1.5008  0.1971  1.0955
  163SAPE   H3Y18263   0.319   4.353   4.538 -0.9930  0.6824  0.5454
  163SAPE   C3418264   0.356   4.518   4.663  0.1563  0.1140 -0.2624
  163SAPE   H4X18265   0.446   4.456   4.683 -0.4201 -1.6578 -2.7003
  163SAPE   H4Y18266   0.295   4.485   4.749  2.0633  0.5167  1.3235
  163SAPE   C3518267   0.388   4.668   4.665 -0.1297  0.4715  0.4550
  163SAPE   H5X18268   0.312   4.731   4.717  0.8315  0.4584  1.9492
  163SAPE   H5Y18269   0.376   4.704   4.561 -1.8146 -0.2824  0.3522
  163SAPE   C3618270   0.527   4.700   4.720  0.8313 -0.6454  0.3528
  163SAPE   H6X18271   0.545   4.810   4.730 -0.6656 -0.3296 -0.1686
  163SAPE   H6Y18272   0.589   4.666   4.635  1.9520  1.2082  0.3682
  163SAPE   C3718273   0.564   4.639   4.856  0.8223  0.1861 -0.2487
  163SAPE   H7X18274   0.544   4.530   4.853 -0.3095  0.3696  0.2214
  163SAPE   H7Y18275   0.490   4.683   4.926  1.2953  2.5011 -1.1007
  163SAPE   C3818276   0.705   4.673   4.899 -0.2428  0.0432 -0.4377
  163SAPE   H8X18277   0.730   4.781   4.910  2.9414 -0.8524  3.5448
  163SAPE   H8Y18278   0.768   4.618   4.825  0.3774 -0.5663  0.5137
  163SAPE   C3918279   0.727   4.620   5.041 -0.3444  0.1481  0.2093
  163SAPE   H9X18280   0.717   4.510   5.038 -0.5886  0.1785 -0.0408
  163SAPE   H9Y18281   0.656   4.668   5.112 -0.2238 -0.0208  0.4454
  163SAPE  C31018282   0.864   4.653   5.088  0.0680 -0.1442  0.2141
  163SAPE  H10X18283   0.934   4.607   5.017 -0.7440 -2.3533  0.7688
  163SAPE  H10Y18284   0.877   4.599   5.184  3.8225 -1.8250 -1.0678
  163SAPE  C31118285   0.887   4.802   5.123  0.2650  0.1352  0.4641
  163SAPE  H11X18286   0.800   4.839   5.181  0.5666  1.6336  0.0035
  163SAPE  H11Y18287   0.905   4.858   5.028 -1.7909 -2.9245 -1.9339
  163SAPE  C31218288   1.013   4.821   5.214 -0.9316 -0.7708  0.0186
  163SAPE  H12X18289   1.080   4.748   5.165 -1.5186 -1.8902  0.8428
  163SAPE  H12Y18290   0.990   4.790   5.319 -0.8144  0.0014  0.2785
  163SAPE  C31318291   1.064   4.965   5.239 -0.1934 -0.1858 -0.2562
  163SAPE  H13X18292   1.080   5.010   5.139 -0.1650 -0.7793 -0.5264
  163SAPE  H13Y18293   1.168   4.956   5.278 -0.0816  0.6264 -0.3635
  163SAPE  C31418294   0.972   5.051   5.336 -0.0573 -0.8611 -0.3187
  163SAPE  H14X18295   0.873   5.066   5.286 -0.3848  0.8160  0.7272
  163SAPE  H14Y18296   1.025   5.149   5.328  3.2298 -2.4321  0.6198
  163SAPE  C31518297   0.965   4.999   5.482  0.0982 -0.9006  0.5503
  163SAPE  H15X18298   0.892   4.916   5.479 -1.3247  0.3423 -1.8566
  163SAPE  H15Y18299   0.904   5.067   5.545 -2.0262 -1.0615 -1.2235
  163SAPE  C31618300   1.098   4.965   5.552 -0.0300  0.9091 -0.0935
  163SAPE  H16X18301   1.152   4.893   5.486  0.2239  0.7548  0.2834
  163SAPE  H16Y18302   1.081   4.915   5.650  2.9366 -1.2359 -0.5174
  163SAPE  C31718303   1.185   5.089   5.570  0.0595  0.2251 -0.2110
  163SAPE  H17X18304   1.130   5.163   5.633  0.3727  1.3337 -1.2213
  163SAPE  H17Y18305   1.221   5.142   5.480  0.6532  1.2943  0.6373
  163SAPE  C31818306   1.308   5.053   5.654  0.2910  0.3122  0.0387
  163SAPE  H18X18307   1.284   5.001   5.749  2.8640 -0.0692  0.5679
  163SAPE  H18Y18308   1.364   5.138   5.697  0.0010 -0.8965  3.0545
  163SAPE  H18Z18309   1.372   4.989   5.589  0.4731  0.0759  0.4440
  164SAPE     N18310   6.667   5.350   3.544 -0.3298 -0.4197  0.2382
  164SAPE   HN118311   6.738   5.288   3.500  1.2739 -0.3768  2.6048
  164SAPE   HN218312   6.601   5.287   3.594  0.7584 -2.4482 -0.7543
  164SAPE   HN318313   6.621   5.396   3.463 -1.0291 -1.7199 -0.1356
  164SAPE   C1218314   6.738   5.464   3.613  0.1831  0.5974 -0.3733
  164SAPE  H12A18315   6.659   5.538   3.635  0.2486  0.6257 -0.2320
  164SAPE  H12B18316   6.815   5.495   3.538  2.0236 -0.1334  1.1301
  164SAPE   C1118317   6.814   5.418   3.737  0.7255 -0.2772  0.4826
  164SAPE  H11A18318   6.745   5.368   3.809 -1.2104  1.9179  0.2918
  164SAPE  H11B18319   6.852   5.514   3.778 -2.1189  1.2339 -0.1765
  164SAPE     P18320   7.067   5.376   3.705  0.0781 -0.1530 -0.2306
  164SAPE   O1318321   7.143   5.279   3.623 -0.1440 -0.1262  0.0001
  164SAPE   O1418322   7.074   5.513   3.662  0.0780 -0.9145 -0.0609
  164SAPE   O1218323   6.920   5.327   3.715  0.5264  0.4532  0.2172
  164SAPE   O1118324   7.125   5.372   3.852 -0.5260 -0.9701  0.2729
  164SAPE    C118325   7.097   5.481   3.944  0.2953  0.1232  0.5775
  164SAPE    HA18326   7.184   5.549   3.956  0.5612 -0.1829  0.3540
  164SAPE    HB18327   7.007   5.540   3.914 -1.2599 -2.8103 -0.9518
  164SAPE    C218328   7.053   5.424   4.088 -0.0619 -0.1893  0.5060
  164SAPE    HS18329   7.054   5.512   4.155  0.0405  0.0592  0.1776
  164SAPE   O2118330   7.144   5.317   4.131 -0.3082  0.0748  0.0360
  164SAPE   C2118331   7.163   5.323   4.262 -0.8342  0.2878  0.0148
  164SAPE   O2218332   7.128   5.417   4.327 -0.1418  0.0262  0.1741
  164SAPE   C2218333   7.252   5.207   4.310  0.8386 -0.4287 -0.3373
  164SAPE   H2R18334   7.197   5.120   4.268  0.4944 -0.5037  0.2508
  164SAPE   H2S18335   7.353   5.214   4.264  0.3666  2.6784 -1.1167
  164SAPE    C318336   6.904   5.355   4.073 -0.0443 -0.2478 -0.1800
  164SAPE    HX18337   6.921   5.276   3.997 -0.9341  0.0865 -0.7513
  164SAPE    HY18338   6.825   5.421   4.029  0.1428  0.6435  0.7746
  164SAPE   O3118339   6.868   5.289   4.201  0.0073  0.2922 -0.5847
  164SAPE   C3118340   6.809   5.374   4.283  0.2307 -0.3937  0.5661
  164SAPE   O3218341   6.774   5.489   4.253  0.0998 -0.3173 -0.0110
  164SAPE   C3218342   6.782   5.307   4.421 -0.0237 -0.1323 -0.0719
  164SAPE   H2X18343   6.881   5.270   4.454  1.0601  2.7670  0.1815
  164SAPE   H2Y18344   6.706   5.226   4.416  1.2023 -1.5801  2.4063
  164SAPE   C2318345   7.246   5.194   4.467  0.0843 -0.5206  0.3785
  164SAPE   H3R18346   7.140   5.189   4.499 -0.5475  0.2902 -1.4870
  164SAPE   H3S18347   7.274   5.295   4.502 -2.1008 -0.9151  3.7390
  164SAPE   C2418348   7.327   5.084   4.534  0.9283 -0.3478  0.5065
  164SAPE   H4R18349   7.291   4.984   4.504 -1.0933  0.0349  1.4887
  164SAPE   H4S18350   7.322   5.087   4.645 -2.4429 -0.4436  0.4430
  164SAPE   C2518351   7.463   5.099   4.479 -0.3546 -0.1622  0.1646
  164SAPE   H5R18352   7.473   5.062   4.376  1.2368  3.4655 -1.1556
  164SAPE   C2618353   7.572   5.159   4.542  0.0364 -0.5373  0.1515
  164SAPE   H6R18354   7.666   5.165   4.486 -0.7531 -0.9888 -1.2851
  164SAPE   C2718355   7.573   5.217   4.684 -0.3969  0.1785 -0.0292
  164SAPE   H7R18356   7.471   5.250   4.711 -1.1313 -1.8749 -0.1576
  164SAPE   H7S18357   7.639   5.306   4.678 -0.6326  0.4070  0.6765
  164SAPE   C2818358   7.638   5.121   4.780  0.3922 -0.3532  0.2617
  164SAPE   H8R18359   7.627   5.014   4.754 -0.8891 -0.0773 -0.3948
  164SAPE   C2918360   7.663   5.163   4.906  0.4671  0.5235 -0.8340
  164SAPE   H9R18361   7.684   5.083   4.978  0.1145  1.9957  0.9711
  164SAPE  C21018362   7.646   5.307   4.956 -0.4373 -0.2105  0.4427
  164SAPE  H10R18363   7.541   5.345   4.952  0.4658  2.5631  1.0957
  164SAPE  H10S18364   7.711   5.370   4.892 -1.8065  1.0038  0.1920
  164SAPE  C21118365   7.693   5.326   5.097 -0.9696  0.0437  0.1918
  164SAPE  H11R18366   7.800   5.300   5.105 -0.7539  1.0182  0.5928
  164SAPE  C21218367   7.640   5.393   5.199  0.7589 -0.6772  0.7340
  164SAPE  H12R18368   7.702   5.413   5.288  0.7694  1.6408  0.2686
  164SAPE  C21318369   7.503   5.459   5.196  1.6461  0.1234  0.4405
  164SAPE  H13R18370   7.425   5.403   5.251  0.1198 -0.4801 -2.1404
  164SAPE  H13S18371   7.461   5.455   5.093  1.3055  0.6214  0.5560
  164SAPE  C21418372   7.505   5.591   5.262  0.0115 -0.1919 -0.3288
  164SAPE  H14R18373   7.504   5.668   5.183  2.7935 -1.2139 -1.4837
  164SAPE  C21518374   7.518   5.618   5.394 -0.3962  0.3176  0.4195
  164SAPE  H15R18375   7.509   5.721   5.430  1.3225  0.5865  0.1315
  164SAPE  C21618376   7.522   5.513   5.498  0.5315 -0.2288 -0.1803
  164SAPE  H16R18377   7.517   5.410   5.459 -0.9121 -2.1098  4.2611
  164SAPE  H16S18378   7.435   5.526   5.566 -0.0537  1.6436 -1.2157
  164SAPE  C21718379   7.650   5.520   5.578 -0.5772 -0.2544  0.1830
  164SAPE  H17R18380   7.733   5.566   5.521  0.6362  1.3106  2.9803
  164SAPE  H17S18381   7.683   5.419   5.607  0.6536  0.1155  0.1086
  164SAPE  C21818382   7.651   5.617   5.706  0.2214 -0.0348 -0.6379
  164SAPE  H18R18383   7.591   5.554   5.775  0.2976  1.5406  0.9180
  164SAPE  H18S18384   7.587   5.703   5.677 -1.9449 -1.7694 -1.2952
  164SAPE  C21918385   7.785   5.651   5.763  0.4686 -0.6970 -0.4187
  164SAPE  H19R18386   7.838   5.720   5.694  0.9908 -0.5955  0.0750
  164SAPE  H19S18387   7.843   5.557   5.778  0.1690 -1.0545 -1.4361
  164SAPE  C22018388   7.766   5.724   5.896 -0.1181 -0.5567  0.4302
  164SAPE  H20R18389   7.869   5.748   5.930  0.0224 -1.1271  0.4189
  164SAPE  H20S18390   7.716   5.660   5.971  1.3961  0.5166  2.4443
  164SAPE  H20T18391   7.710   5.818   5.880 -0.2725 -0.8818 -1.1346
  164SAPE   C3318392   6.742   5.410   4.531 -0.2283  0.5199 -1.1572
  164SAPE   H3X18393   6.677   5.356   4.603  0.0630 -1.7996 -2.5266
  164SAPE   H3Y18394   6.673   5.487   4.492  0.0860  1.1681 -0.4557
  164SAPE   C3418395   6.872   5.480   4.590  0.2309  0.0340 -0.3508
  164SAPE   H4X18396   6.827   5.550   4.664 -0.3308 -0.7729  0.0811
  164SAPE   H4Y18397   6.924   5.550   4.521 -0.5256  0.4740 -0.4843
  164SAPE   C3518398   6.976   5.391   4.649 -0.0991 -0.2757  0.8728
  164SAPE   H5X18399   7.048   5.367   4.568 -2.2725 -2.3684 -0.5949
  164SAPE   H5Y18400   6.933   5.301   4.699 -0.7730  1.0282  2.7244
  164SAPE   C3618401   7.057   5.460   4.767  0.2095 -0.3713 -0.0007
  164SAPE   H6X18402   6.988   5.483   4.851  0.5867 -2.4720  0.9663
  164SAPE   H6Y18403   7.083   5.562   4.732 -1.5592  0.2449  0.3918
  164SAPE   C3718404   7.179   5.377   4.808  0.0367  0.4698  0.4887
  164SAPE   H7X18405   7.261   5.440   4.849  0.7416  0.1182 -0.3416
  164SAPE   H7Y18406   7.212   5.320   4.719 -3.4434 -1.9555  0.5508
  164SAPE   C3818407   7.148   5.275   4.916  0.2954  0.4259  0.2516
  164SAPE   H8X18408   7.078   5.194   4.887  0.7081 -0.7866  2.3760
  164SAPE   H8Y18409   7.093   5.321   5.002  0.5960  0.0524  0.6509
  164SAPE   C3918410   7.279   5.198   4.951  0.0376  0.0821  0.7175
  164SAPE   H9X18411   7.344   5.279   4.992 -0.0744 -0.0716  1.2005
  164SAPE   H9Y18412   7.323   5.132   4.872  0.1227 -0.0657  0.8883
  164SAPE  C31018413   7.255   5.110   5.066 -0.6719  0.0061 -0.7141
  164SAPE  H10X18414   7.166   5.044   5.060 -0.7848 -0.1219  1.6323
  164SAPE  H10Y18415   7.246   5.182   5.150 -2.0550 -1.1726  0.1926
  164SAPE  C31118416   7.379   5.025   5.117 -0.4957  0.7356  0.2411
  164SAPE  H11X18417   7.465   5.095   5.116 -0.0096  0.1439 -0.3852
  164SAPE  H11Y18418   7.404   4.944   5.045 -0.8418  1.3319 -0.5673
  164SAPE  C31218419   7.361   4.953   5.258 -0.0513  0.0216  0.7588
  164SAPE  H12X18420   7.458   4.905   5.281  0.3874  0.0076 -0.9688
  164SAPE  H12Y18421   7.288   4.871   5.244 -0.1685  0.3989 -1.0252
  164SAPE  C31318422   7.318   5.047   5.364 -1.1337  0.1776 -0.2297
  164SAPE  H13X18423   7.207   5.049   5.359 -1.1170  1.8939 -0.3994
  164SAPE  H13Y18424   7.356   5.148   5.337  0.8270 -0.2492  0.7640
  164SAPE  C31418425   7.374   5.006   5.501  0.6229 -0.0238 -0.3175
  164SAPE  H14X18426   7.481   4.983   5.485  1.4035  1.5053  2.1609
  164SAPE  H14Y18427   7.318   4.917   5.535 -0.3437  0.9738  0.8014
  164SAPE  C31518428   7.373   5.112   5.612 -0.1735  0.4451  0.1818
  164SAPE  H15X18429   7.268   5.136   5.639 -0.6979  0.4664 -1.7192
  164SAPE  H15Y18430   7.429   5.199   5.571 -1.6503  0.9608 -0.8471
  164SAPE  C31618431   7.453   5.062   5.737 -1.3049 -0.0757 -0.1478
  164SAPE  H16X18432   7.555   5.027   5.710  0.1126  5.4440 -3.3418
  164SAPE  H16Y18433   7.396   4.973   5.772  0.6035 -1.1324  0.4845
  164SAPE  C31718434   7.459   5.161   5.856  0.3006 -0.3967  0.6155
  164SAPE  H17X18435   7.498   5.109   5.946 -3.1900 -0.3693  2.2784
  164SAPE  H17Y18436   7.359   5.198   5.886  0.1651  1.3025 -1.6665
  164SAPE  C31818437   7.549   5.276   5.826  0.1818 -0.1425  0.7601
  164SAPE  H18X18438   7.654   5.251   5.801  0.5208  2.0206 -0.2216
  164SAPE  H18Y18439   7.563   5.345   5.912  0.4043  1.1173 -0.2460
  164SAPE  H18Z18440   7.509   5.338   5.743 -0.9227  2.2320  2.9133
  165SAPE     N18441   3.089   3.113   3.659 -0.3752 -0.3724  0.0972
  165SAPE   HN118442   3.157   3.038   3.636  0.9633  1.0062 -0.6098
  165SAPE   HN218443   3.010   3.088   3.723 -0.9197  2.9154  0.8873
  165SAPE   HN318444   3.044   3.146   3.571 -2.7962  0.7323  1.6503
  165SAPE   C1218445   3.168   3.231   3.716  0.2360 -0.2831 -0.1062
  165SAPE  H12A18446   3.234   3.252   3.629 -1.3427  1.4228 -0.9544
  165SAPE  H12B18447   3.212   3.197   3.813 -0.0735  2.7729  1.2498
  165SAPE   C1118448   3.083   3.356   3.736  0.0996 -0.8529 -0.1551
  165SAPE  H11A18449   3.032   3.392   3.644 -1.1799  3.2331  1.8976
  165SAPE  H11B18450   3.144   3.437   3.781 -1.4765 -0.2127  0.9149
  165SAPE     P18451   2.837   3.386   3.819 -0.1474 -0.4274 -0.0262
  165SAPE   O1318452   2.814   3.414   3.679  0.1015 -0.0485 -0.2225
  165SAPE   O1418453   2.752   3.289   3.885 -0.4501  0.5054  0.0797
  165SAPE   O1218454   2.984   3.338   3.838 -0.1425  0.8019 -0.0427
  165SAPE   O1118455   2.839   3.508   3.917  0.4742 -0.5831 -0.7046
  165SAPE    C118456   2.794   3.638   3.884  0.1454 -0.3686 -0.3682
  165SAPE    HA18457   2.858   3.696   3.814 -0.4351 -0.0799 -0.6678
  165SAPE    HB18458   2.701   3.636   3.823 -0.6832 -1.5458  0.8766
  165SAPE    C218459   2.779   3.726   4.009  1.1579 -0.0462  0.7068
  165SAPE    HS18460   2.867   3.738   4.076  0.8747 -2.8007  1.7169
  165SAPE   O2118461   2.675   3.666   4.091 -0.5697 -0.6298  0.0506
  165SAPE   C2118462   2.721   3.576   4.180  0.2287  0.4514  0.0710
  165SAPE   O2218463   2.844   3.551   4.195  0.1751  0.2446  0.1604
  165SAPE   C2218464   2.605   3.507   4.254 -0.2532 -0.4635  0.4461
  165SAPE   H2R18465   2.515   3.512   4.189  0.2368 -1.7417 -0.3728
  165SAPE   H2S18466   2.643   3.403   4.260 -2.4920 -1.3320  0.2733
  165SAPE    C318467   2.725   3.870   3.981  0.4229  0.0931  0.8870
  165SAPE    HX18468   2.623   3.872   3.938 -0.3242  1.4166  2.5821
  165SAPE    HY18469   2.788   3.914   3.901  0.0961  0.7653  0.9882
  165SAPE   O3118470   2.709   3.942   4.105 -0.2213 -0.1633 -0.2198
  165SAPE   C3118471   2.825   3.996   4.152 -0.6057 -0.5091 -0.3427
  165SAPE   O3218472   2.924   4.015   4.087  0.1605  0.0898  0.3719
  165SAPE   C3218473   2.810   4.027   4.303  0.3567 -0.3022 -0.5724
  165SAPE   H2X18474   2.714   4.081   4.314 -1.1219 -2.7954 -0.3883
  165SAPE   H2Y18475   2.889   4.104   4.312 -0.0894  0.1478 -0.4215
  165SAPE   C2318476   2.580   3.569   4.384  0.7285 -0.2778  0.2898
  165SAPE   H3R18477   2.523   3.664   4.372 -0.3163 -0.9561 -0.2067
  165SAPE   H3S18478   2.673   3.587   4.441  1.6874  1.0405 -1.6074
  165SAPE   C2418479   2.491   3.481   4.461 -0.7911  0.2975  0.0355
  165SAPE   H4R18480   2.540   3.383   4.477  0.6089  0.8086 -0.9655
  165SAPE   H4S18481   2.409   3.439   4.399  1.3597  0.5479 -3.1504
  165SAPE   C2518482   2.437   3.542   4.594 -0.2673  0.6038  0.5781
  165SAPE   H5R18483   2.484   3.509   4.688 -0.0174 -0.1056  0.2169
  165SAPE   C2618484   2.342   3.631   4.604  0.3903  0.2531  0.1357
  165SAPE   H6R18485   2.310   3.666   4.703 -0.1268 -2.0084  0.8377
  165SAPE   C2718486   2.257   3.676   4.494 -0.3120 -0.5843 -0.4371
  165SAPE   H7R18487   2.277   3.630   4.395 -1.9245 -0.9064 -0.6447
  165SAPE   H7S18488   2.278   3.784   4.476 -1.2888 -0.5241 -1.3235
  165SAPE   C2818489   2.114   3.657   4.522 -0.2027  0.5622 -0.0679
  165SAPE   H8R18490   2.082   3.558   4.558 -0.3678  1.2618  1.8151
  165SAPE   C2918491   2.022   3.756   4.529 -0.0958 -0.2479 -0.2896
  165SAPE   H9R18492   1.916   3.738   4.552 -0.7240  2.2604 -0.8718
  165SAPE  C21018493   2.047   3.898   4.490  0.0175 -0.5029  0.2900
  165SAPE  H10R18494   2.135   3.904   4.422  0.3814 -0.8589  0.7194
  165SAPE  H10S18495   2.086   3.945   4.583  3.3134  1.6756 -1.9693
  165SAPE  C21118496   1.927   3.964   4.424  1.1113  0.6016  0.2302
  165SAPE  H11R18497   1.918   3.950   4.316 -0.3725 -1.0019  0.5143
  165SAPE  C21218498   1.847   4.064   4.471 -0.6750 -0.6763 -0.3152
  165SAPE  H12R18499   1.775   4.103   4.398  1.9503  0.4285 -2.4649
  165SAPE  C21318500   1.847   4.117   4.612  0.2559  0.5302 -0.9121
  165SAPE  H13R18501   1.855   4.228   4.607 -0.3636  0.6915  0.9502
  165SAPE  H13S18502   1.938   4.086   4.667 -1.1962 -0.6545  0.9522
  165SAPE  C21418503   1.727   4.083   4.700  0.1212 -0.3717  0.0504
  165SAPE  H14R18504   1.646   4.156   4.688  1.1659  0.7451 -0.4466
  165SAPE  C21518505   1.712   3.980   4.786 -0.2191 -0.4599  0.6829
  165SAPE  H15R18506   1.612   3.967   4.830 -0.1379 -0.6776  0.8076
  165SAPE  C21618507   1.812   3.881   4.825 -0.8926  0.1021  0.4788
  165SAPE  H16R18508   1.872   3.848   4.737 -2.0196 -1.4063  0.2494
  165SAPE  H16S18509   1.773   3.779   4.845  0.1436 -0.1562  1.2556
  165SAPE  C21718510   1.916   3.916   4.934  0.3314 -0.4323  0.0329
  165SAPE  H17R18511   1.863   3.967   5.018 -0.3527  3.5870 -2.5686
  165SAPE  H17S18512   1.997   3.976   4.888  0.0510 -0.5598 -0.6459
  165SAPE  C21818513   1.985   3.784   4.992 -0.6064 -0.2081  0.2704
  165SAPE  H18R18514   1.913   3.704   5.018  1.4660 -2.4069 -0.3957
  165SAPE  H18S18515   2.026   3.814   5.091 -1.2833  1.2488  0.1286
  165SAPE  C21918516   2.088   3.732   4.895 -0.1527 -0.3717  0.5362
  165SAPE  H19R18517   2.175   3.800   4.883  1.2014 -1.5314  2.9243
  165SAPE  H19S18518   2.046   3.718   4.794  0.1807  0.1733  0.3167
  165SAPE  C22018519   2.158   3.608   4.940 -0.6381 -0.0178  0.2287
  165SAPE  H20R18520   2.082   3.527   4.945 -0.7092  0.0428  0.1330
  165SAPE  H20S18521   2.203   3.611   5.041 -0.5250 -0.3512  0.1891
  165SAPE  H20T18522   2.235   3.573   4.868 -1.0569 -0.1120 -0.1776
  165SAPE   C3318523   2.831   3.909   4.395  0.0219 -0.0779 -0.9533
  165SAPE   H3X18524   2.920   3.855   4.356  0.8088 -0.6930  1.5083
  165SAPE   H3Y18525   2.759   3.824   4.389  0.7528 -0.6948 -1.1455
  165SAPE   C3418526   2.859   3.962   4.539  0.1745 -0.9379 -0.3152
  165SAPE   H4X18527   2.779   4.030   4.573 -0.0855 -1.9469  1.1823
  165SAPE   H4Y18528   2.947   4.030   4.541 -0.0455 -0.5724 -1.9149
  165SAPE   C3518529   2.890   3.848   4.638  0.1534  0.1626 -0.4698
  165SAPE   H5X18530   2.979   3.789   4.609  0.6665  0.7836 -0.2028
  165SAPE   H5Y18531   2.803   3.780   4.642  1.2786 -1.2691  0.3291
  165SAPE   C3618532   2.930   3.900   4.783 -0.4220  0.2402  0.1027
  165SAPE   H6X18533   2.845   3.957   4.826  0.9119  1.2172  1.5229
  165SAPE   H6Y18534   3.023   3.959   4.780  0.4774 -0.9953  1.8197
  165SAPE   C3718535   2.959   3.778   4.871  0.2302 -0.8322 -0.7763
  165SAPE   H7X18536   3.047   3.722   4.832  0.3302 -0.7692 -0.6415
  165SAPE   H7Y18537   2.870   3.712   4.877 -0.4658  0.2265  2.6349
  165SAPE   C3818538   3.008   3.803   5.019  0.1244 -0.0327 -1.5971
  165SAPE   H8X18539   2.917   3.832   5.075  1.1561 -0.0268  0.1724
  165SAPE   H8Y18540   3.086   3.881   5.034  1.5352 -1.3667 -1.7300
  165SAPE   C3918541   3.069   3.674   5.084  0.4417 -0.7017  0.5160
  165SAPE   H9X18542   3.157   3.639   5.026 -0.5282 -0.6176 -1.0659
  165SAPE   H9Y18543   2.992   3.596   5.065 -0.1407 -0.0218  0.0140
  165SAPE  C31018544   3.108   3.697   5.231  0.0822  0.5707 -0.8668
  165SAPE  H10X18545   3.020   3.728   5.291 -0.2758  1.4240 -1.8085
  165SAPE  H10Y18546   3.185   3.776   5.225  0.6034  0.2166  0.5974
  165SAPE  C31118547   3.155   3.572   5.309 -0.3243 -0.6461  0.5287
  165SAPE  H11X18548   3.225   3.509   5.249  0.8883  0.2028  1.0196
  165SAPE  H11Y18549   3.057   3.519   5.315 -1.3783  0.7081 -2.4203
  165SAPE  C31218550   3.217   3.612   5.449 -0.6615  0.1008 -0.0889
  165SAPE  H12X18551   3.138   3.631   5.525 -1.8729 -2.5950 -0.5716
  165SAPE  H12Y18552   3.277   3.706   5.449 -1.8278  0.9392  2.3299
  165SAPE  C31318553   3.312   3.500   5.506 -0.0294 -0.2245 -0.0098
  165SAPE  H13X18554   3.394   3.482   5.434 -0.1160  0.9067 -0.4043
  165SAPE  H13Y18555   3.254   3.405   5.512  0.4782 -0.5383 -0.0147
  165SAPE  C31418556   3.370   3.532   5.640 -0.4057 -0.0964 -0.1724
  165SAPE  H14X18557   3.292   3.579   5.703 -0.3007  0.3162 -0.3476
  165SAPE  H14Y18558   3.448   3.608   5.619  1.2036 -0.8817  2.5743
  165SAPE  C31518559   3.419   3.414   5.728 -0.2164  0.1771  0.3691
  165SAPE  H15X18560   3.471   3.335   5.670 -2.2721 -0.6117 -0.5285
  165SAPE  H15Y18561   3.322   3.376   5.768  0.8417 -1.1030  1.8580
  165SAPE  C31618562   3.503   3.457   5.841 -0.0156  0.0649  0.6903
  165SAPE  H16X18563   3.450   3.512   5.921  1.1700  2.2123  0.0908
  165SAPE  H16Y18564   3.579   3.526   5.798 -0.6209  0.3135 -0.0054
  165SAPE  C31718565   3.572   3.337   5.908 -0.0370 -0.1038 -0.5375
  165SAPE  H17X18566   3.647   3.381   5.976 -0.5873  0.8692 -0.5374
  165SAPE  H17Y18567   3.619   3.277   5.827 -0.9511 -0.2695 -0.9624
  165SAPE  C31818568   3.469   3.250   5.981 -0.8428 -0.0791 -0.6153
  165SAPE  H18X18569   3.407   3.310   6.051 -0.8300  0.4324 -1.0375
  165SAPE  H18Y18570   3.526   3.186   6.052 -2.0654 -1.6183 -0.9779
  165SAPE  H18Z18571   3.404   3.187   5.917  0.9267 -1.0786 -1.5386
  166SAPE     N18572   5.581   5.551   3.825  0.1440  0.6299 -0.5119
  166SAPE   HN118573   5.481   5.577   3.840  0.3483  0.5751  1.2004
  166SAPE   HN218574   5.614   5.481   3.895  1.2272  1.2425 -0.3736
  166SAPE   HN318575   5.637   5.635   3.852  0.2113  0.4432 -0.0541
  166SAPE   C1218576   5.613   5.508   3.686  0.0515  0.2400 -0.8669
  166SAPE  H12A18577   5.580   5.589   3.618 -0.2344  0.1066 -0.8877
  166SAPE  H12B18578   5.558   5.412   3.678  1.2496 -0.5402 -0.1207
  166SAPE   C1118579   5.766   5.463   3.692  0.1340  0.7550 -0.0830
  166SAPE  H11A18580   5.785   5.414   3.594 -0.9836 -1.0519  0.5469
  166SAPE  H11B18581   5.773   5.371   3.754  0.7040  0.6341 -0.3218
  166SAPE     P18582   5.990   5.594   3.648 -0.2117 -0.0735 -0.4972
  166SAPE   O1318583   5.988   5.528   3.517  0.0410  0.0692 -0.4231
  166SAPE   O1418584   6.008   5.742   3.662 -0.1145  0.3588  0.3597
  166SAPE   O1218585   5.853   5.566   3.732  0.0838 -0.8336 -0.0279
  166SAPE   O1118586   6.098   5.522   3.738  0.0498  0.4328 -0.1362
  166SAPE    C118587   6.067   5.466   3.872 -0.1045 -0.3669 -0.2218
  166SAPE    HA18588   5.974   5.407   3.856 -0.2287  0.0623 -1.2095
  166SAPE    HB18589   6.144   5.391   3.898  0.9919  0.4782 -0.9365
  166SAPE    C218590   6.046   5.564   3.987 -0.2346  0.2360  0.0816
  166SAPE    HS18591   5.971   5.638   3.951 -1.3422 -0.8049  0.1875
  166SAPE   O2118592   6.176   5.615   4.030 -0.2272  0.1398 -0.6000
  166SAPE   C2118593   6.166   5.746   4.065  0.0328  0.2357  0.6514
  166SAPE   O2218594   6.062   5.812   4.054 -0.0941 -0.4638  0.2757
  166SAPE   C2218595   6.306   5.803   4.094 -0.4087  0.0480 -0.2741
  166SAPE   H2R18596   6.359   5.718   4.143 -0.0552 -0.3097 -1.2609
  166SAPE   H2S18597   6.358   5.837   4.003  0.9255  2.9208  1.4137
  166SAPE    C318598   5.978   5.491   4.106  0.1602  0.2547 -0.2567
  166SAPE    HX18599   6.034   5.405   4.148  1.1976  0.5384 -1.0153
  166SAPE    HY18600   5.882   5.452   4.067  0.8839  0.0095 -1.8687
  166SAPE   O3118601   5.954   5.591   4.204 -0.3309  0.3131 -0.0650
  166SAPE   C3118602   5.848   5.666   4.195  0.3324  0.3179  0.6211
  166SAPE   O3218603   5.754   5.636   4.119 -0.4968  0.0303  0.2986
  166SAPE   C3218604   5.847   5.766   4.315 -0.4710  0.3959  0.0143
  166SAPE   H2X18605   5.934   5.835   4.306 -0.0167  0.1888  2.2625
  166SAPE   H2Y18606   5.865   5.703   4.405 -2.7165 -0.8893 -0.3659
  166SAPE   C2318607   6.294   5.915   4.200 -0.0664  0.2120  0.1270
  166SAPE   H3R18608   6.218   5.895   4.278  0.5986 -0.6045  0.5858
  166SAPE   H3S18609   6.280   6.013   4.151  0.6802 -0.4398 -1.4872
  166SAPE   C2418610   6.423   5.919   4.283 -0.5504  0.0026 -0.0601
  166SAPE   H4R18611   6.513   5.904   4.220  0.1380  1.9040  0.4026
  166SAPE   H4S18612   6.420   5.829   4.347 -1.9449  1.5530  2.2079
  166SAPE   C2518613   6.445   6.044   4.367  0.3297 -1.1195  0.7198
  166SAPE   H5R18614   6.441   6.139   4.313 -0.7641 -1.0284  0.9356
  166SAPE   C2618615   6.484   6.056   4.494  0.2472  0.4874 -0.2548
  166SAPE   H6R18616   6.495   6.155   4.542 -1.1383  0.1098  0.8901
  166SAPE   C2718617   6.506   5.938   4.583  0.6378  0.1799  0.0467
  166SAPE   H7R18618   6.440   5.851   4.563  1.5412 -0.3860 -0.4952
  166SAPE   H7S18619   6.480   5.968   4.687 -1.2335 -0.3579 -0.2292
  166SAPE   C2818620   6.638   5.869   4.574 -0.1280  0.5897  0.8117
  166SAPE   H8R18621   6.685   5.877   4.474  2.8571 -0.4160  2.0153
  166SAPE   C2918622   6.716   5.797   4.662  0.3652 -0.1951  0.0072
  166SAPE   H9R18623   6.810   5.751   4.625  0.8919  0.7548  0.1279
  166SAPE  C21018624   6.685   5.778   4.805 -0.1932  0.1243  0.0162
  166SAPE  H10R18625   6.670   5.883   4.837  0.2711  0.1254  0.2373
  166SAPE  H10S18626   6.778   5.745   4.855 -1.3840 -1.3058  1.3665
  166SAPE  C21118627   6.564   5.703   4.851  0.8696 -1.3308 -0.4252
  166SAPE  H11R18628   6.474   5.718   4.790  0.0424  0.3436  1.0982
  166SAPE  C21218629   6.565   5.623   4.962 -0.0613  0.3911  0.2096
  166SAPE  H12R18630   6.472   5.575   4.996  0.8086 -0.9059  0.8418
  166SAPE  C21318631   6.679   5.595   5.049  0.7488 -0.5979  0.1574
  166SAPE  H13R18632   6.645   5.573   5.153 -2.1259 -0.0989 -0.5903
  166SAPE  H13S18633   6.745   5.685   5.054 -0.6081  0.9514 -4.3456
  166SAPE  C21418634   6.752   5.469   4.996 -0.1217 -0.1724 -0.4314
  166SAPE  H14R18635   6.782   5.477   4.891  2.2287  0.9200  0.2508
  166SAPE  C21518636   6.789   5.363   5.063 -0.3680  0.0941  0.2629
  166SAPE  H15R18637   6.853   5.289   5.012  0.8454  0.8509  0.6559
  166SAPE  C21618638   6.778   5.329   5.207  0.1981  0.1881 -0.2885
  166SAPE  H16R18639   6.733   5.229   5.226  1.0460 -0.0143  0.7191
  166SAPE  H16S18640   6.722   5.404   5.266 -1.7254 -1.8502  0.6299
  166SAPE  C21718641   6.914   5.320   5.269 -0.2708 -0.2773 -0.0780
  166SAPE  H17R18642   6.991   5.276   5.203 -2.1008  1.0723 -3.3644
  166SAPE  H17S18643   6.900   5.257   5.360 -3.6670 -0.0225 -0.2899
  166SAPE  C21818644   6.954   5.461   5.313  0.6780  0.7216  0.3755
  166SAPE  H18R18645   6.885   5.500   5.391  1.3080 -1.9165  2.3995
  166SAPE  H18S18646   6.945   5.526   5.223  0.8076  3.1661  2.0234
  166SAPE  C21918647   7.089   5.463   5.382 -0.8287 -0.8228 -0.3536
  166SAPE  H19R18648   7.158   5.419   5.306 -0.2547 -0.6508  0.0666
  166SAPE  H19S18649   7.102   5.406   5.477  2.7881 -0.1386 -0.3286
  166SAPE  C22018650   7.140   5.604   5.414 -0.2624  0.3761  0.1376
  166SAPE  H20R18651   7.158   5.657   5.318  1.0078 -2.1907 -1.1340
  166SAPE  H20S18652   7.241   5.600   5.461 -0.4041 -0.4431  0.3783
  166SAPE  H20T18653   7.075   5.659   5.485  0.5655 -0.8836  1.9474
  166SAPE   C3318654   5.716   5.855   4.315 -0.3976 -0.0874 -0.1158
  166SAPE   H3X18655   5.641   5.824   4.240  0.7578 -2.1361 -0.4981
  166SAPE   H3Y18656   5.741   5.958   4.281  1.0817  0.4524  2.3721
  166SAPE   C3418657   5.663   5.869   4.459 -0.2218  0.5089  0.5594
  166SAPE   H4X18658   5.619   5.770   4.485  2.3611 -0.1078  2.9746
  166SAPE   H4Y18659   5.578   5.939   4.441 -1.5363 -1.6643 -2.9822
  166SAPE   C3518660   5.757   5.905   4.567 -0.2628 -0.3116 -0.0058
  166SAPE   H5X18661   5.809   5.998   4.535 -0.6358  0.1262  0.6507
  166SAPE   H5Y18662   5.832   5.823   4.576 -0.8238 -0.7308  0.9076
  166SAPE   C3618663   5.681   5.918   4.698 -0.1477 -0.2267 -0.3563
  166SAPE   H6X18664   5.645   5.823   4.741  0.2187  1.1252  3.2472
  166SAPE   H6Y18665   5.584   5.969   4.681  1.3726  2.5215 -1.4357
  166SAPE   C3718666   5.765   5.988   4.803 -0.2522 -0.0516 -0.1354
  166SAPE   H7X18667   5.789   6.089   4.762  1.2272 -0.2862  0.0719
  166SAPE   H7Y18668   5.860   5.929   4.804  0.6215  1.2660 -0.8867
  166SAPE   C3818669   5.706   5.984   4.944 -0.1509  1.0376  0.0679
  166SAPE   H8X18670   5.601   6.017   4.929  0.4180  2.1528 -2.0271
  166SAPE   H8Y18671   5.757   6.049   5.018  0.0448  0.3820  0.5133
  166SAPE   C3918672   5.703   5.840   5.000  0.3875  0.1647 -0.9294
  166SAPE   H9X18673   5.809   5.807   4.993  0.8368  0.7249  2.0877
  166SAPE   H9Y18674   5.645   5.772   4.934  0.2577  1.6296 -2.3844
  166SAPE  C31018675   5.661   5.858   5.149  0.4091  0.0261  0.0503
  166SAPE  H10X18676   5.565   5.912   5.134 -0.2605 -1.6501 -2.3460
  166SAPE  H10Y18677   5.740   5.926   5.187  0.6839 -0.1090 -0.2625
  166SAPE  C31118678   5.644   5.735   5.236  0.1973 -0.2866 -0.1963
  166SAPE  H11X18679   5.739   5.678   5.226  0.7426  0.7494 -1.2569
  166SAPE  H11Y18680   5.556   5.673   5.209  0.5930 -0.8744 -0.1384
  166SAPE  C31218681   5.632   5.764   5.383  0.0653  0.0930  0.0634
  166SAPE  H12X18682   5.566   5.853   5.384  1.2278  1.1294 -2.6836
  166SAPE  H12Y18683   5.732   5.787   5.426  0.3861  1.2004 -1.1855
  166SAPE  C31318684   5.577   5.644   5.454  0.4172  0.2993 -0.0693
  166SAPE  H13X18685   5.660   5.570   5.455 -0.7977 -1.1583 -1.7028
  166SAPE  H13Y18686   5.502   5.590   5.392  2.1269 -1.4881 -0.6896
  166SAPE  C31418687   5.520   5.684   5.589  0.2944  0.0693 -0.1311
  166SAPE  H14X18688   5.463   5.777   5.566  1.1465  0.7529  0.4718
  166SAPE  H14Y18689   5.607   5.710   5.653 -1.0153  1.6248  1.0995
  166SAPE  C31518690   5.442   5.572   5.653 -0.5395  0.1121  0.5078
  166SAPE  H15X18691   5.512   5.485   5.652 -1.7870 -0.9278 -1.6640
  166SAPE  H15Y18692   5.361   5.539   5.585  1.5397 -0.7222 -1.6992
  166SAPE  C31618693   5.389   5.602   5.797 -0.5130 -0.0524 -0.2807
  166SAPE  H16X18694   5.318   5.521   5.821  1.2644 -1.2105  1.3156
  166SAPE  H16Y18695   5.328   5.693   5.816  1.1461  1.0528 -0.0870
  166SAPE  C31718696   5.497   5.588   5.908  0.3050  0.5574 -0.0514
  166SAPE  H17X18697   5.552   5.684   5.911  0.5969  0.4011 -0.2536
  166SAPE  H17Y18698   5.562   5.498   5.896  0.1350  0.1253  1.9560
  166SAPE  C31818699   5.429   5.577   6.044  1.1869 -0.2568  0.0895
  166SAPE  H18X18700   5.355   5.494   6.039  0.6180  0.1827  0.9567
  166SAPE  H18Y18701   5.375   5.670   6.072 -0.2244 -1.8156  3.0963
  166SAPE  H18Z18702   5.494   5.550   6.130 -0.9252 -1.5820  1.3780
  167SAPE     N18703   5.013   5.991   3.228  0.0004  0.0426 -0.2033
  167SAPE   HN118704   4.954   6.077   3.220 -0.7264 -0.5059 -0.9349
  167SAPE   HN218705   5.052   5.984   3.324  0.5583 -1.8883 -0.5272
  167SAPE   HN318706   5.099   6.012   3.173 -0.9799  3.3059 -0.7102
  167SAPE   C1218707   4.956   5.862   3.181 -0.0495 -0.4447 -0.4447
  167SAPE  H12A18708   5.032   5.808   3.121  0.5774  0.4606 -0.4784
  167SAPE  H12B18709   4.876   5.890   3.108  0.8524  1.3371 -0.7919
  167SAPE   C1118710   4.891   5.777   3.296  0.6304  0.0255  0.7538
  167SAPE  H11A18711   4.958   5.745   3.379 -0.0059  0.6861  1.5378
  167SAPE  H11B18712   4.858   5.678   3.259  0.8592  0.5433 -0.9074
  167SAPE     P18713   4.636   5.838   3.315 -0.0276 -0.0402 -0.3064
  167SAPE   O1318714   4.590   5.955   3.237  0.4424  0.0872  0.3248
  167SAPE   O1418715   4.628   5.697   3.260 -0.2128  0.1271  0.3008
  167SAPE   O1218716   4.790   5.854   3.363  0.3762  0.2765 -0.5878
  167SAPE   O1118717   4.566   5.834   3.459 -0.3923  0.2649 -0.7256
  167SAPE    C118718   4.580   5.938   3.553 -0.2309  0.4129 -1.4440
  167SAPE    HA18719   4.592   6.038   3.505  1.3516  0.8974 -0.1242
  167SAPE    HB18720   4.484   5.949   3.607 -0.1766 -1.1299 -0.9936
  167SAPE    C218721   4.695   5.905   3.654 -0.6314  0.1802  0.3745
  167SAPE    HS18722   4.719   5.800   3.627 -1.6553 -0.1910  0.8820
  167SAPE   O2118723   4.640   5.899   3.784  0.1798  0.2363 -0.3052
  167SAPE   C2118724   4.712   5.834   3.881  0.1165  0.3545  0.8937
  167SAPE   O2218725   4.804   5.759   3.866 -0.1604  0.0797  0.4112
  167SAPE   C2218726   4.664   5.871   4.018 -0.2074 -0.2303 -0.5910
  167SAPE   H2R18727   4.584   5.948   4.012 -1.8424 -1.7023  1.0671
  167SAPE   H2S18728   4.620   5.782   4.068 -0.0022  0.4771  0.8852
  167SAPE    C318729   4.824   5.992   3.648 -0.2207  0.3966  0.3203
  167SAPE    HX18730   4.872   5.998   3.548  0.2855  2.4580  0.6381
  167SAPE    HY18731   4.890   5.923   3.706  0.4453 -1.4260 -2.4019
  167SAPE   O3118732   4.805   6.124   3.704 -0.1221  0.1060 -0.1484
  167SAPE   C3118733   4.900   6.204   3.681 -0.2404  0.4512 -0.6185
  167SAPE   O3218734   4.997   6.184   3.604  0.1180 -0.0913 -0.2171
  167SAPE   C3218735   4.890   6.320   3.772  0.4993  0.4333 -0.9836
  167SAPE   H2X18736   4.787   6.347   3.803  1.3905 -0.4960  3.4240
  167SAPE   H2Y18737   4.933   6.406   3.715  1.9840  1.1165  1.0537
  167SAPE   C2318738   4.772   5.914   4.120 -0.1019 -0.3049 -0.1630
  167SAPE   H3R18739   4.793   6.020   4.095 -2.7463  0.5940  1.0458
  167SAPE   H3S18740   4.859   5.846   4.104 -0.2717 -0.3213 -1.1194
  167SAPE   C2418741   4.729   5.897   4.267  0.0717 -0.0144  0.1685
  167SAPE   H4R18742   4.713   5.789   4.291  3.0081 -0.8016 -0.8937
  167SAPE   H4S18743   4.630   5.944   4.282 -2.0403 -4.1265  0.6020
  167SAPE   C2518744   4.837   5.951   4.357  0.8070 -1.1992  0.2530
  167SAPE   H5R18745   4.898   6.038   4.326  1.8467 -2.0903 -0.2425
  167SAPE   C2618746   4.865   5.904   4.480  0.6677 -0.1473 -0.4172
  167SAPE   H6R18747   4.950   5.941   4.539 -0.0474 -0.1972  0.6673
  167SAPE   C2718748   4.789   5.796   4.556  0.8550  0.4616 -0.6408
  167SAPE   H7R18749   4.688   5.797   4.512  0.8302  1.6544 -0.6024
  167SAPE   H7S18750   4.780   5.823   4.664 -2.0456  0.6973 -0.8685
  167SAPE   C2818751   4.852   5.666   4.517  0.1626 -0.1041 -0.4890
  167SAPE   H8R18752   4.908   5.675   4.423  1.7975 -1.2108  0.3337
  167SAPE   C2918753   4.845   5.550   4.585 -0.6249  0.0504 -0.1884
  167SAPE   H9R18754   4.893   5.459   4.548 -1.4943 -1.7562  2.8313
  167SAPE  C21018755   4.755   5.520   4.702  0.0589 -0.8910 -0.5406
  167SAPE  H10R18756   4.679   5.442   4.681 -1.2120 -0.5844  2.3673
  167SAPE  H10S18757   4.698   5.610   4.735  2.7614  1.0197 -0.7611
  167SAPE  C21118758   4.838   5.469   4.814  0.2346  0.3390  0.4698
  167SAPE  H11R18759   4.896   5.378   4.796  0.2572  0.4749 -0.1503
  167SAPE  C21218760   4.863   5.533   4.924  0.0850 -0.2466 -1.0479
  167SAPE  H12R18761   4.925   5.484   5.001 -1.2906  2.9289  2.4018
  167SAPE  C21318762   4.817   5.668   4.973 -0.1138 -0.1184 -0.2320
  167SAPE  H13R18763   4.829   5.737   4.886 -0.9380  0.1716 -0.1257
  167SAPE  H13S18764   4.893   5.695   5.049 -1.6984 -1.0316  1.7645
  167SAPE  C21418765   4.678   5.693   5.027  0.0603 -0.5425  0.8875
  167SAPE  H14R18766   4.598   5.722   4.957  1.4190 -0.4537 -0.6713
  167SAPE  C21518767   4.643   5.684   5.152 -0.7534 -0.2142 -0.3967
  167SAPE  H15R18768   4.539   5.707   5.177 -0.3749  1.9539 -0.6776
  167SAPE  C21618769   4.727   5.629   5.261 -0.6013  0.1693 -0.3910
  167SAPE  H16R18770   4.796   5.549   5.226  0.2599  1.0296 -0.6982
  167SAPE  H16S18771   4.655   5.582   5.332 -0.8964  1.0813 -0.0774
  167SAPE  C21718772   4.817   5.737   5.331  0.2689  0.2272 -0.1569
  167SAPE  H17R18773   4.758   5.822   5.372  0.9661  0.1196  1.1304
  167SAPE  H17S18774   4.891   5.780   5.260  0.1355  0.5711 -0.0936
  167SAPE  C21818775   4.902   5.678   5.444  0.5121  0.2248  0.1284
  167SAPE  H18R18776   4.979   5.604   5.415  0.5795 -0.3870  1.7800
  167SAPE  H18S18777   4.830   5.611   5.494 -1.1659 -0.0744 -2.5185
  167SAPE  C21918778   4.955   5.780   5.542  0.1444 -0.4964  0.3296
  167SAPE  H19R18779   4.874   5.851   5.569 -0.7966 -0.9287 -1.2583
  167SAPE  H19S18780   5.051   5.832   5.519  0.4625 -1.1155  0.2403
  167SAPE  C22018781   4.983   5.713   5.678 -0.9329  0.3782  0.0509
  167SAPE  H20R18782   5.047   5.623   5.676  0.0994  1.0743  0.6782
  167SAPE  H20S18783   4.883   5.678   5.712 -1.5148 -1.7375 -3.3836
  167SAPE  H20T18784   5.022   5.788   5.751 -1.4952  0.3927  0.3390
  167SAPE   C3318785   4.964   6.294   3.904  0.9478  0.4230  0.2474
  167SAPE   H3X18786   5.073   6.309   3.891  0.7754  0.2740 -1.7433
  167SAPE   H3Y18787   4.947   6.192   3.946  2.8341  0.2645  0.6943
  167SAPE   C3418788   4.907   6.398   4.004  0.1890  0.1242  0.4039
  167SAPE   H4X18789   4.798   6.406   4.025 -0.4924 -2.0605 -1.6977
  167SAPE   H4Y18790   4.955   6.495   3.982 -1.2495  0.8404  0.3256
  167SAPE   C3518791   4.959   6.375   4.150 -0.3076  0.4314 -0.0028
  167SAPE   H5X18792   5.069   6.391   4.139 -0.5445  1.1676 -1.5691
  167SAPE   H5Y18793   4.922   6.273   4.175 -2.9776  1.4361  0.3513
  167SAPE   C3618794   4.901   6.473   4.256  0.2288 -0.3015 -0.7861
  167SAPE   H6X18795   4.796   6.496   4.230 -0.1062 -0.2331  0.5431
  167SAPE   H6Y18796   4.966   6.564   4.249  0.3127 -0.4896 -3.1885
  167SAPE   C3718797   4.905   6.418   4.399  0.2949 -0.1138  0.1091
  167SAPE   H7X18798   4.849   6.322   4.405 -0.1096 -0.0536 -1.9799
  167SAPE   H7Y18799   4.850   6.486   4.467 -1.1907 -1.2138  0.0569
  167SAPE   C3818800   5.049   6.404   4.454  0.5359 -0.2820  0.4396
  167SAPE   H8X18801   5.100   6.502   4.438  0.9662 -0.5012  0.4422
  167SAPE   H8Y18802   5.117   6.335   4.398  1.1833  0.6949 -0.0041
  167SAPE   C3918803   5.060   6.355   4.601 -0.2266 -0.4525 -0.2047
  167SAPE   H9X18804   4.998   6.421   4.665  2.6030 -0.0785  2.3752
  167SAPE   H9Y18805   5.154   6.388   4.650  1.1837 -1.9307 -1.7869
  167SAPE  C31018806   5.037   6.205   4.632  0.2331 -0.3924  0.4903
  167SAPE  H10X18807   5.134   6.152   4.617  0.4124  0.1637 -0.3879
  167SAPE  H10Y18808   4.971   6.164   4.552  0.1148 -0.2611  0.5207
  167SAPE  C31118809   4.971   6.171   4.769 -0.9459  0.1933  0.6959
  167SAPE  H11X18810   4.967   6.060   4.763  3.4392 -0.0919 -0.3371
  167SAPE  H11Y18811   4.871   6.218   4.780 -1.3944 -0.5513 -0.0595
  167SAPE  C31218812   5.063   6.202   4.896  0.6348 -0.2582  0.1770
  167SAPE  H12X18813   5.085   6.311   4.899 -0.1198 -0.0576 -0.7584
  167SAPE  H12Y18814   5.162   6.158   4.876  1.9041  2.5772 -0.3562
  167SAPE  C31318815   4.998   6.152   5.022 -0.1709  1.0853  0.3654
  167SAPE  H13X18816   4.987   6.045   4.996  0.6203  1.2395 -0.6905
  167SAPE  H13Y18817   4.892   6.183   5.031 -0.3697  0.1871  1.2125
  167SAPE  C31418818   5.072   6.186   5.143  0.6098 -0.2459 -0.8563
  167SAPE  H14X18819   5.064   6.296   5.154 -0.2538 -0.3560 -0.3630
  167SAPE  H14Y18820   5.176   6.147   5.134  0.3791 -0.4521 -3.5870
  167SAPE  C31518821   5.019   6.115   5.266 -0.1917 -0.1766 -0.1673
  167SAPE  H15X18822   5.013   6.004   5.258 -1.1407 -0.0526 -1.8314
  167SAPE  H15Y18823   4.912   6.146   5.261 -0.4070 -0.6576  1.1866
  167SAPE  C31618824   5.071   6.165   5.405 -0.6915 -0.1280  0.4344
  167SAPE  H16X18825   5.029   6.110   5.491  1.7240 -3.5717 -0.3915
  167SAPE  H16Y18826   5.030   6.268   5.415 -2.7363 -0.8985  0.3004
  167SAPE  C31718827   5.227   6.162   5.403  0.1944  0.4693  1.4213
  167SAPE  H17X18828   5.256   6.243   5.333 -2.8007  1.5345  1.2777
  167SAPE  H17Y18829   5.273   6.063   5.380  1.7998  1.8247 -1.7667
  167SAPE  C31818830   5.292   6.208   5.530  0.0299  0.5410 -0.0379
  167SAPE  H18X18831   5.257   6.310   5.555  1.8041  1.8203 -2.3414
  167SAPE  H18Y18832   5.402   6.213   5.518 -0.0735  1.2955 -0.7853
  167SAPE  H18Z18833   5.274   6.128   5.605  0.4915  1.4270  1.0415
  168SAPE     N18834   2.349   3.342   3.393  0.4958 -0.3776  0.3251
  168SAPE   HN118835   2.320   3.426   3.339  0.8279 -0.7662 -0.4581
  168SAPE   HN218836   2.433   3.374   3.445  0.6904 -0.2589 -0.0651
  168SAPE   HN318837   2.380   3.263   3.333  1.4832  0.5124 -0.3747
  168SAPE   C1218838   2.247   3.308   3.495 -0.2093 -0.1047  0.1502
  168SAPE  H12A18839   2.277   3.207   3.531  0.3529 -0.2500 -0.6865
  168SAPE  H12B18840   2.152   3.304   3.438  0.3935  0.2037 -0.8970
  168SAPE   C1118841   2.245   3.412   3.614 -0.1045 -0.6895  0.2814
  168SAPE  H11A18842   2.332   3.375   3.672 -0.1121  0.2555  0.9295
  168SAPE  H11B18843   2.156   3.396   3.679 -2.5040 -0.8884 -2.8547
  168SAPE     P18844   2.172   3.672   3.587 -0.4257  0.0738 -0.2462
  168SAPE   O1318845   2.240   3.797   3.547  0.3729  0.3150 -0.0770
  168SAPE   O1418846   2.035   3.647   3.536  0.6516 -0.0619  0.3462
  168SAPE   O1218847   2.266   3.547   3.558  0.6188  0.1018  0.1266
  168SAPE   O1118848   2.169   3.665   3.745  0.0398 -0.8144  0.1779
  168SAPE    C118849   2.296   3.641   3.814  0.4962 -0.3731 -0.3063
  168SAPE    HA18850   2.304   3.532   3.833 -0.5327 -0.3601  0.2538
  168SAPE    HB18851   2.382   3.668   3.750  0.5531  1.2571  0.4026
  168SAPE    C218852   2.300   3.725   3.945  0.8073 -0.3849  0.3035
  168SAPE    HS18853   2.386   3.689   4.005  1.9206 -0.4604 -1.2776
  168SAPE   O2118854   2.175   3.718   4.013 -0.2094  0.2612  0.0219
  168SAPE   C2118855   2.153   3.605   4.067  0.2627  0.2745 -0.6952
  168SAPE   O2218856   2.231   3.510   4.087  0.0471  0.4442 -0.4881
  168SAPE   C2218857   2.012   3.623   4.136  0.1947  0.3320 -0.1653
  168SAPE   H2R18858   2.020   3.703   4.213  1.5208 -0.7158  0.8394
  168SAPE   H2S18859   1.940   3.663   4.061  0.9665  2.5423  0.1922
  168SAPE    C318860   2.340   3.876   3.919 -0.1440 -0.3574  0.1690
  168SAPE    HX18861   2.257   3.935   3.875  1.4278  0.7724 -1.4487
  168SAPE    HY18862   2.422   3.887   3.844 -1.4954 -0.0303 -1.3267
  168SAPE   O3118863   2.392   3.953   4.034 -0.0900 -0.0832 -0.0573
  168SAPE   C3118864   2.306   4.001   4.123  0.1754  0.1900 -0.2272
  168SAPE   O3218865   2.188   4.017   4.112  0.8984  0.0693 -0.6494
  168SAPE   C3218866   2.376   4.049   4.250  0.1513 -0.5813  0.0791
  168SAPE   H2X18867   2.469   4.103   4.221 -0.1645  0.5694  1.1233
  168SAPE   H2Y18868   2.417   3.958   4.300 -1.1542 -0.7465  0.9022
  168SAPE   C2318869   1.958   3.492   4.196 -0.1421  0.4625  0.5149
  168SAPE   H3R18870   2.022   3.453   4.278  0.2598 -0.7794 -0.3570
  168SAPE   H3S18871   1.968   3.416   4.115  0.3900  2.6184 -1.5251
  168SAPE   C2418872   1.813   3.492   4.242  0.0258  0.1088  0.1492
  168SAPE   H4R18873   1.736   3.508   4.164  1.1284 -2.7180 -1.6715
  168SAPE   H4S18874   1.803   3.574   4.317  0.8342  0.5576 -0.2306
  168SAPE   C2518875   1.784   3.357   4.303  0.5301  0.4154 -0.5049
  168SAPE   H5R18876   1.807   3.269   4.240 -1.7211  0.7710 -1.9373
  168SAPE   C2618877   1.732   3.332   4.428  0.2468 -0.0930  0.0885
  168SAPE   H6R18878   1.702   3.227   4.443  0.8137 -0.5498 -1.7346
  168SAPE   C2718879   1.686   3.437   4.532  0.7601  0.6318 -0.2568
  168SAPE   H7R18880   1.627   3.520   4.488  2.7926  1.0811 -2.3148
  168SAPE   H7S18881   1.764   3.476   4.601 -1.4624  1.5482  1.8839
  168SAPE   C2818882   1.592   3.362   4.619  0.2133  0.8064  0.9718
  168SAPE   H8R18883   1.546   3.277   4.568  0.9444  0.2717  1.1849
  168SAPE   C2918884   1.578   3.369   4.748 -0.0521  0.2428 -0.3268
  168SAPE   H9R18885   1.497   3.316   4.801 -1.7841  1.8771 -1.2157
  168SAPE  C21018886   1.646   3.468   4.837  0.0311 -0.2032 -0.0182
  168SAPE  H10R18887   1.565   3.538   4.867 -2.9301 -2.8406 -1.2906
  168SAPE  H10S18888   1.735   3.520   4.796  0.2754  0.4790  1.3113
  168SAPE  C21118889   1.690   3.405   4.970 -0.0669 -0.2935  0.1966
  168SAPE  H11R18890   1.772   3.332   4.966  0.0355 -0.1888  0.3420
  168SAPE  C21218891   1.636   3.426   5.093  0.6416  0.2383 -0.4720
  168SAPE  H12R18892   1.682   3.374   5.179  0.9235  1.2247 -0.0148
  168SAPE  C21318893   1.512   3.513   5.121  0.1793  0.8918 -0.2878
  168SAPE  H13R18894   1.457   3.463   5.204  0.0723  1.8484  0.2289
  168SAPE  H13S18895   1.442   3.505   5.036 -1.0879 -2.8539  0.8974
  168SAPE  C21418896   1.552   3.660   5.148  0.4182  0.9205  0.1944
  168SAPE  H14R18897   1.563   3.718   5.055  0.3551 -1.4047 -1.3719
  168SAPE  C21518898   1.562   3.723   5.267  0.2930 -0.0813 -0.3961
  168SAPE  H15R18899   1.613   3.820   5.267 -0.4741  0.3812  1.9917
  168SAPE  C21618900   1.558   3.675   5.405  0.6492  0.2797 -0.5191
  168SAPE  H16R18901   1.650   3.717   5.451  0.1086  0.9741 -0.0483
  168SAPE  H16S18902   1.569   3.565   5.404 -0.6958  0.0853  1.1947
  168SAPE  C21718903   1.435   3.714   5.488 -0.0673 -0.0651 -0.0524
  168SAPE  H17R18904   1.433   3.823   5.508  3.0694 -0.2657  1.9394
  168SAPE  H17S18905   1.459   3.667   5.586  0.8387  1.0447  0.2780
  168SAPE  C21818906   1.302   3.661   5.430  0.2350 -0.4186  0.4324
  168SAPE  H18R18907   1.296   3.552   5.451 -0.6048 -0.5279 -0.3243
  168SAPE  H18S18908   1.290   3.688   5.323 -0.0622 -1.5131  0.1775
  168SAPE  C21918909   1.174   3.712   5.504  0.5533 -0.1445 -0.6371
  168SAPE  H19R18910   1.094   3.666   5.442 -0.0033 -1.1032  0.7636
  168SAPE  H19S18911   1.162   3.822   5.498  0.5045 -0.0130  1.3280
  168SAPE  C22018912   1.150   3.666   5.640  0.4781  0.3881 -0.7185
  168SAPE  H20R18913   1.060   3.715   5.683  1.5229 -0.4005  2.6180
  168SAPE  H20S18914   1.227   3.698   5.713  0.2213 -0.9352  0.1678
  168SAPE  H20T18915   1.127   3.558   5.650 -0.0288  0.6409  1.0819
  168SAPE   C3318916   2.291   4.140   4.337  0.6185  0.4265  0.3507
  168SAPE   H3X18917   2.196   4.088   4.360  1.4651 -0.4480  1.9570
  168SAPE   H3Y18918   2.258   4.231   4.282 -1.2924 -1.2136 -1.3770
  168SAPE   C3418919   2.354   4.169   4.471 -0.4106 -0.6474  0.1210
  168SAPE   H4X18920   2.434   4.245   4.462 -0.2876 -0.9737 -1.8824
  168SAPE   H4Y18921   2.401   4.076   4.510 -0.1325  0.1567  1.7939
  168SAPE   C3518922   2.262   4.218   4.582  0.9725  0.3879 -0.3969
  168SAPE   H5X18923   2.197   4.139   4.624 -0.6983  0.5951 -2.4329
  168SAPE   H5Y18924   2.193   4.296   4.543 -0.2871  1.2338  3.1135
  168SAPE   C3618925   2.339   4.278   4.702  0.4185  0.2361 -0.8263
  168SAPE   H6X18926   2.261   4.287   4.780  0.3275  0.8026 -0.9780
  168SAPE   H6Y18927   2.374   4.381   4.679 -0.2226  0.9301  1.1678
  168SAPE   C3718928   2.452   4.189   4.757 -0.1681 -0.0816  0.1033
  168SAPE   H7X18929   2.505   4.240   4.840 -1.1812 -1.8190  1.9085
  168SAPE   H7Y18930   2.531   4.184   4.679 -2.0213  2.1695 -2.0918
  168SAPE   C3818931   2.405   4.046   4.803  0.3088 -0.1888  0.1231
  168SAPE   H8X18932   2.356   3.993   4.718  0.3619 -1.5016  0.8759
  168SAPE   H8Y18933   2.331   4.040   4.885 -0.5670 -0.6232 -0.6707
  168SAPE   C3918934   2.523   3.954   4.840 -0.4245 -0.0337 -0.3006
  168SAPE   H9X18935   2.602   4.005   4.899  0.0960 -0.8333 -0.2999
  168SAPE   H9Y18936   2.577   3.921   4.749  0.3377 -1.1406  0.5283
  168SAPE  C31018937   2.489   3.835   4.936  0.4101  0.1547  0.4197
  168SAPE  H10X18938   2.412   3.775   4.883  0.8952 -1.2099  1.2131
  168SAPE  H10Y18939   2.445   3.878   5.028 -1.0861 -0.6447  0.0969
  168SAPE  C31118940   2.608   3.756   4.978  0.0870 -0.4137 -0.0987
  168SAPE  H11X18941   2.684   3.820   5.027  1.1014 -0.2467 -1.8113
  168SAPE  H11Y18942   2.662   3.704   4.895  1.6406  0.0015  0.6102
  168SAPE  C31218943   2.591   3.642   5.082 -0.2468  0.4500  1.2274
  168SAPE  H12X18944   2.680   3.576   5.073 -1.0813 -0.4247 -1.8264
  168SAPE  H12Y18945   2.506   3.580   5.045 -1.8664  2.4858  1.3834
  168SAPE  C31318946   2.568   3.699   5.223  0.1538 -0.1379 -0.6346
  168SAPE  H13X18947   2.532   3.804   5.224  0.4909  0.0703 -3.0600
  168SAPE  H13Y18948   2.671   3.701   5.265 -0.5477 -0.1196  1.1582
  168SAPE  C31418949   2.472   3.609   5.308 -0.3235 -0.4540 -0.4085
  168SAPE  H14X18950   2.530   3.515   5.312  4.1209  2.0485  1.2693
  168SAPE  H14Y18951   2.372   3.589   5.263 -1.4006 -4.0550  2.9902
  168SAPE  C31518952   2.455   3.656   5.457  0.1412  0.0626  0.6410
  168SAPE  H15X18953   2.553   3.661   5.509  1.2567  1.7451 -1.4330
  168SAPE  H15Y18954   2.394   3.574   5.500 -2.6844  1.6134 -0.2136
  168SAPE  C31618955   2.376   3.784   5.476 -0.5649 -0.2777  0.2004
  168SAPE  H16X18956   2.278   3.771   5.427  0.1865 -0.6571 -1.2520
  168SAPE  H16Y18957   2.424   3.862   5.414  0.6671 -0.9247  0.2967
  168SAPE  C31718958   2.377   3.837   5.621  0.3530  0.0596 -0.6746
  168SAPE  H17X18959   2.476   3.864   5.663 -0.2123  0.9238  0.1271
  168SAPE  H17Y18960   2.330   3.748   5.669 -0.9055  0.5347 -0.9691
  168SAPE  C31818961   2.280   3.956   5.642 -0.3969  0.8235  0.3216
  168SAPE  H18X18962   2.267   3.996   5.745  0.7396 -0.2449  0.9055
  168SAPE  H18Y18963   2.182   3.938   5.593  0.4422 -4.2820  0.0161
  168SAPE  H18Z18964   2.327   4.046   5.597 -0.5813  1.9239  2.2031
  169SAPE     N18965   4.312   4.500   3.707  0.4734  0.1769 -0.5009
  169SAPE   HN118966   4.409   4.473   3.735 -0.0264  0.9311  2.1702
  169SAPE   HN218967   4.280   4.573   3.773 -1.1349 -0.2103 -0.8000
  169SAPE   HN318968   4.259   4.411   3.713 -0.4790  0.7570  0.0101
  169SAPE   C1218969   4.308   4.553   3.565 -0.4790 -0.4152 -0.0815
  169SAPE  H12A18970   4.211   4.537   3.513 -0.7705  4.3209 -1.4528
  169SAPE  H12B18971   4.389   4.501   3.511 -0.6144 -1.3346  0.5729
  169SAPE   C1118972   4.338   4.707   3.555  0.1969 -0.5221  0.9394
  169SAPE  H11A18973   4.334   4.744   3.451  3.7499 -0.5512  0.6663
  169SAPE  H11B18974   4.446   4.722   3.575  1.3090 -2.1695 -2.8790
  169SAPE     P18975   4.114   4.860   3.587 -0.3149  0.1918  0.0934
  169SAPE   O1318976   4.089   4.834   3.440 -0.0276  0.2356 -0.1818
  169SAPE   O1418977   4.004   4.827   3.671  0.4475  0.0204 -0.0716
  169SAPE   O1218978   4.248   4.789   3.624  0.3775  0.3516 -0.4523
  169SAPE   O1118979   4.146   5.012   3.604 -0.2366  0.3658 -0.0745
  169SAPE    C118980   4.254   5.063   3.685 -0.4987 -0.2354  0.2827
  169SAPE    HA18981   4.328   4.985   3.711  1.4005  0.2671 -3.1430
  169SAPE    HB18982   4.311   5.131   3.618 -0.2889 -1.2831 -0.6296
  169SAPE    C218983   4.208   5.141   3.810 -0.0625 -0.1183  0.3588
  169SAPE    HS18984   4.289   5.145   3.886 -0.3537 -1.7654  0.7893
  169SAPE   O2118985   4.082   5.086   3.866 -0.3322  0.1795  0.0192
  169SAPE   C2118986   4.108   4.979   3.953  0.6368 -0.1509 -0.6566
  169SAPE   O2218987   4.218   4.929   3.970 -0.1881 -0.0334  0.3657
  169SAPE   C2218988   3.990   4.948   4.043 -0.3447  0.0148  0.8479
  169SAPE   H2R18989   3.899   4.931   3.981 -0.2190  1.2806  0.2907
  169SAPE   H2S18990   4.020   4.847   4.079 -0.6283 -0.6155 -0.6125
  169SAPE    C318991   4.187   5.293   3.768 -0.1051 -0.6997  0.5935
  169SAPE    HX18992   4.110   5.303   3.689  0.4654  1.2997  0.2367
  169SAPE    HY18993   4.276   5.325   3.711 -0.6774 -2.2283 -1.2199
  169SAPE   O3118994   4.166   5.361   3.894 -0.1146 -0.1058  1.1108
  169SAPE   C3118995   4.037   5.390   3.916 -0.2366  0.1402  0.1386
  169SAPE   O3218996   3.942   5.358   3.848 -0.0124  0.2892  0.2492
  169SAPE   C3218997   4.025   5.466   4.048  0.0237 -0.6917  0.7345
  169SAPE   H2X18998   4.071   5.566   4.033  0.8766 -1.2505 -0.5696
  169SAPE   H2Y18999   4.061   5.405   4.134 -2.2668 -1.3712  1.2769
  169SAPE   C2319000   3.975   5.062   4.149 -0.3389  0.0084  0.0796
  169SAPE   H3R19001   3.877   5.065   4.201 -0.6700  0.1807 -0.5511
  169SAPE   H3S19002   3.978   5.154   4.087 -1.9598 -1.2133 -1.9604
  169SAPE   C2419003   4.094   5.064   4.255 -0.0247 -0.8449 -0.1666
  169SAPE   H4R19004   4.085   5.152   4.322 -1.0412 -0.5932 -0.6168
  169SAPE   H4S19005   4.186   5.069   4.193 -0.7097 -0.4624 -1.1824
  169SAPE   C2519006   4.107   4.942   4.338  0.0703  0.4297 -0.0251
  169SAPE   H5R19007   4.144   4.854   4.282  0.3294  0.5400 -0.0277
  169SAPE   C2619008   4.074   4.917   4.466  0.0429  0.8626  0.6456
  169SAPE   H6R19009   4.091   4.818   4.509 -0.0206  0.8201  0.5748
  169SAPE   C2719010   4.013   5.015   4.565 -0.0234  0.2771 -0.4228
  169SAPE   H7R19011   3.954   5.094   4.514 -0.1584  0.6268  0.2711
  169SAPE   H7S19012   4.096   5.070   4.614 -0.1592  0.1363 -0.0301
  169SAPE   C2819013   3.921   4.939   4.660  0.0636 -0.0123 -0.4129
  169SAPE   H8R19014   3.822   4.927   4.614 -0.2331  1.2729 -0.1407
  169SAPE   C2919015   3.942   4.915   4.790  0.2040  0.0486  0.0984
  169SAPE   H9R19016   3.858   4.862   4.838 -1.2381  0.9872 -1.2921
  169SAPE  C21019017   4.067   4.950   4.867  0.3809 -0.2140 -0.2817
  169SAPE  H10R19018   4.039   4.990   4.967  1.2330 -2.0991  0.7680
  169SAPE  H10S19019   4.137   5.018   4.814 -0.9588  0.6268 -1.0251
  169SAPE  C21119020   4.138   4.821   4.887 -0.5452 -0.0878  0.1207
  169SAPE  H11R19021   4.126   4.745   4.808  1.0956  2.8659 -3.2553
  169SAPE  C21219022   4.205   4.798   5.000  0.2793  0.2279  0.6395
  169SAPE  H12R19023   4.243   4.699   5.027 -0.7307 -0.4817 -0.4684
  169SAPE  C21319024   4.235   4.899   5.107  0.1663 -0.3951  0.2765
  169SAPE  H13R19025   4.259   5.003   5.075 -0.7392  0.1884  1.4082
  169SAPE  H13S19026   4.342   4.876   5.128  0.5067 -2.2805 -2.8409
  169SAPE  C21419027   4.138   4.901   5.225  0.2981 -0.3531  0.3333
  169SAPE  H14R19028   4.086   4.997   5.243  1.3952  0.6257 -1.3693
  169SAPE  C21519029   4.105   4.805   5.305  0.4328  0.4620 -0.1326
  169SAPE  H15R19030   4.043   4.824   5.395  1.5678  0.1764  0.7376
  169SAPE  C21619031   4.154   4.663   5.302  0.5810 -0.9233  0.0136
  169SAPE  H16R19032   4.263   4.669   5.283  0.4891  0.3019 -0.2091
  169SAPE  H16S19033   4.113   4.607   5.215  0.4925 -0.7249 -0.0746
  169SAPE  C21719034   4.125   4.589   5.428 -0.5161  0.8458 -0.0314
  169SAPE  H17R19035   4.016   4.602   5.444 -0.7694 -0.3062 -0.6987
  169SAPE  H17S19036   4.178   4.628   5.518  0.6118  2.1368 -1.2142
  169SAPE  C21819037   4.154   4.438   5.427  0.7184  0.0279 -0.1139
  169SAPE  H18R19038   4.263   4.422   5.440  1.0683  0.9232 -1.7064
  169SAPE  H18S19039   4.125   4.396   5.328 -1.4015 -0.2258  0.5573
  169SAPE  C21919040   4.076   4.357   5.533 -0.7324  0.1076 -0.8343
  169SAPE  H19R19041   3.970   4.365   5.499 -0.7597  0.2677 -0.7128
  169SAPE  H19S19042   4.077   4.408   5.632  0.9974 -1.3831 -0.0236
  169SAPE  C22019043   4.112   4.206   5.547 -0.4946  0.4406  0.2413
  169SAPE  H20R19044   4.099   4.155   5.449  2.4624  1.0315 -0.5763
  169SAPE  H20S19045   4.055   4.152   5.626  0.0368  1.6771  1.5164
  169SAPE  H20T19046   4.221   4.208   5.570 -0.2414  0.4771 -0.9171
  169SAPE   C3319047   3.884   5.502   4.097  0.0486  0.4898  0.3317
  169SAPE   H3X19048   3.814   5.418   4.079  0.3633  0.0414  1.1406
  169SAPE   H3Y19049   3.845   5.584   4.032 -2.2381 -0.8394 -0.0889
  169SAPE   C3419050   3.869   5.548   4.241 -0.1358 -0.7528  0.3027
  169SAPE   H4X19051   3.764   5.579   4.261 -0.0491  1.6041 -2.3583
  169SAPE   H4Y19052   3.938   5.633   4.261  0.8980 -0.7383 -2.8799
  169SAPE   C3519053   3.899   5.438   4.344  0.0317 -0.1090  0.1277
  169SAPE   H5X19054   4.009   5.421   4.344  0.2370  0.9747 -1.7034
  169SAPE   H5Y19055   3.846   5.350   4.304 -0.6286  0.6625 -0.7515
  169SAPE   C3619056   3.855   5.465   4.486 -0.1277 -0.4223  0.4534
  169SAPE   H6X19057   3.744   5.466   4.488 -0.1510 -2.1674  1.8431
  169SAPE   H6Y19058   3.906   5.558   4.520 -0.6415  0.4653 -1.0890
  169SAPE   C3719059   3.905   5.361   4.589  0.2855  0.0587 -0.5649
  169SAPE   H7X19060   4.015   5.346   4.591  0.3258 -0.0016  3.2093
  169SAPE   H7Y19061   3.855   5.265   4.561 -1.0008  0.8948 -1.2439
  169SAPE   C3819062   3.865   5.404   4.732 -0.8093 -0.5184  0.0162
  169SAPE   H8X19063   3.755   5.419   4.745 -0.7833 -0.9157  0.7577
  169SAPE   H8Y19064   3.923   5.497   4.751 -0.6106 -0.4757 -0.7797
  169SAPE   C3919065   3.917   5.298   4.832  0.5145 -0.0146  0.1491
  169SAPE   H9X19066   4.026   5.283   4.818  0.5407 -0.1594  0.5120
  169SAPE   H9Y19067   3.869   5.202   4.802 -2.0224  1.7577 -1.9725
  169SAPE  C31019068   3.884   5.347   4.973 -0.4649 -0.3132 -0.8443
  169SAPE  H10X19069   3.775   5.337   4.994 -0.3762  0.3704  0.0004
  169SAPE  H10Y19070   3.906   5.455   4.978 -0.8598 -0.2755  0.7167
  169SAPE  C31119071   3.964   5.274   5.084 -0.4732 -0.6363 -0.8703
  169SAPE  H11X19072   4.069   5.308   5.076 -1.4643  3.8287  1.5279
  169SAPE  H11Y19073   3.953   5.165   5.067  0.1045 -0.7202 -0.6952
  169SAPE  C31219074   3.909   5.307   5.226  0.2932 -0.1010  0.2104
  169SAPE  H12X19075   3.834   5.230   5.253 -0.8742  1.2928  1.1426
  169SAPE  H12Y19076   3.857   5.406   5.227 -0.3108 -0.3752  2.7932
  169SAPE  C31319077   4.020   5.307   5.337  0.4709  0.0933  1.0791
  169SAPE  H13X19078   4.100   5.380   5.311 -0.4853  0.6558 -0.4520
  169SAPE  H13Y19079   4.056   5.202   5.343 -0.4942 -0.3322 -0.2544
  169SAPE  C31419080   3.956   5.359   5.462  0.7716  0.6380  0.7068
  169SAPE  H14X19081   3.855   5.316   5.475  0.7251  0.0958 -1.2497
  169SAPE  H14Y19082   3.943   5.468   5.445  0.4012  0.1949 -2.2668
  169SAPE  C31519083   4.044   5.348   5.585 -0.5493 -0.1252 -0.2274
  169SAPE  H15X19084   4.004   5.413   5.666 -2.8929 -1.0372 -0.5700
  169SAPE  H15Y19085   4.149   5.384   5.576 -0.5439 -0.0422  0.1799
  169SAPE  C31619086   4.030   5.218   5.666  1.0089  1.1345 -0.0579
  169SAPE  H16X19087   4.077   5.229   5.766 -2.3240  0.1793  1.7621
  169SAPE  H16Y19088   4.089   5.143   5.608  0.5442 -0.5232  1.5046
  169SAPE  C31719089   3.890   5.161   5.691  0.1163 -0.3472 -0.0255
  169SAPE  H17X19090   3.837   5.149   5.594 -0.2287 -0.0501  0.1247
  169SAPE  H17Y19091   3.831   5.237   5.746 -1.7705 -0.4022 -1.8591
  169SAPE  C31819092   3.887   5.016   5.748 -0.3559 -0.2312 -0.0471
  169SAPE  H18X19093   3.783   4.982   5.767 -0.6803  1.5562  1.7584
  169SAPE  H18Y19094   3.931   5.020   5.850 -0.9176 -0.3453  0.2030
  169SAPE  H18Z19095   3.950   4.943   5.694  1.4478  1.9674 -1.0931
  170SAPE     N19096   0.644   4.349   3.768 -0.4051 -0.1031  0.3023
  170SAPE   HN119097   0.588   4.430   3.801  0.7540 -0.0208  2.2719
  170SAPE   HN219098   0.599   4.323   3.678 -1.7374 -1.6086  1.3402
  170SAPE   HN319099   0.626   4.271   3.835  2.0596 -0.3431  0.7862
  170SAPE   C1219100   0.789   4.382   3.740 -0.1274 -0.1582 -0.0401
  170SAPE  H12A19101   0.822   4.305   3.667  0.0112 -2.2131  2.0687
  170SAPE  H12B19102   0.838   4.356   3.836  1.3988  3.5308  0.3506
  170SAPE   C1119103   0.803   4.530   3.708  0.4719 -0.4382 -0.1580
  170SAPE  H11A19104   0.747   4.540   3.613  0.4825 -5.7881 -1.0114
  170SAPE  H11B19105   0.910   4.554   3.692  0.4017  0.7863  1.0396
  170SAPE     P19106   0.841   4.688   3.917 -0.2467 -0.1538  0.3859
  170SAPE   O1319107   0.967   4.728   3.849  0.0417 -0.2375 -0.1853
  170SAPE   O1419108   0.761   4.794   3.988 -0.2877  0.0449  0.4156
  170SAPE   O1219109   0.752   4.619   3.808  0.2503 -0.1070  0.4622
  170SAPE   O1119110   0.875   4.570   4.018  0.1512  0.2687 -0.0430
  170SAPE    C119111   0.767   4.503   4.086  0.1946 -0.3998 -0.1308
  170SAPE    HA19112   0.684   4.480   4.015 -2.7189  1.7050  2.3688
  170SAPE    HB19113   0.811   4.407   4.121  2.5851  0.7509  0.1813
  170SAPE    C219114   0.696   4.569   4.209  1.1534  0.3254 -0.0832
  170SAPE    HS19115   0.617   4.640   4.176  0.3734 -0.1635  0.6752
  170SAPE   O2119116   0.799   4.623   4.290  0.2632  0.0605  0.0846
  170SAPE   C2119117   0.765   4.726   4.371  0.0292  0.0448 -0.4101
  170SAPE   O2219118   0.659   4.784   4.367  0.4038 -0.5618 -0.3241
  170SAPE   C2219119   0.880   4.761   4.466  0.6616  0.0407 -0.5226
  170SAPE   H2R19120   0.963   4.807   4.407 -1.3169  2.9177 -1.2765
  170SAPE   H2S19121   0.845   4.831   4.544  0.0605 -0.8493  0.0297
  170SAPE    C319122   0.616   4.455   4.285 -1.0171  0.0142 -0.3211
  170SAPE    HX19123   0.560   4.397   4.209 -1.4176  1.2299 -0.9820
  170SAPE    HY19124   0.547   4.508   4.354 -1.1863 -0.6831  0.0488
  170SAPE   O3119125   0.708   4.358   4.350 -0.5030  0.5355 -0.2067
  170SAPE   C3119126   0.719   4.375   4.478  0.4409  0.6500  0.0211
  170SAPE   O3219127   0.661   4.457   4.548 -0.3356  0.3428 -0.7437
  170SAPE   C3219128   0.817   4.260   4.537 -0.6171 -0.3911  0.6187
  170SAPE   H2X19129   0.908   4.323   4.529 -1.1122  0.1094 -1.6468
  170SAPE   H2Y19130   0.804   4.179   4.463  2.7383 -0.2262 -0.3258
  170SAPE   C2319131   0.935   4.638   4.538 -0.3237 -0.0862  0.3521
  170SAPE   H3R19132   0.965   4.558   4.468  3.2318  0.0294  1.5423
  170SAPE   H3S19133   0.856   4.586   4.596 -0.8665  0.5958  0.2436
  170SAPE   C2419134   1.068   4.666   4.616 -0.2892 -0.4945 -0.3845
  170SAPE   H4R19135   1.145   4.699   4.543  1.6828 -0.9800  1.3948
  170SAPE   H4S19136   1.100   4.571   4.664  2.0000  0.3562 -0.1043
  170SAPE   C2519137   1.049   4.763   4.734  0.4566 -0.3670  0.8417
  170SAPE   H5R19138   0.982   4.718   4.808 -1.7116  0.2700 -0.6270
  170SAPE   C2619139   1.093   4.887   4.758  0.1970  0.5810  0.6838
  170SAPE   H6R19140   1.062   4.935   4.852  1.4613  1.7292  0.5455
  170SAPE   C2719141   1.185   4.972   4.674  0.1411  0.5185  0.3481
  170SAPE   H7R19142   1.270   4.908   4.643 -0.3720 -1.4014  2.5960
  170SAPE   H7S19143   1.227   5.051   4.740  2.7508  1.5013 -2.3021
  170SAPE   C2819144   1.101   5.038   4.570 -0.1241 -0.6999  0.3854
  170SAPE   H8R19145   1.002   5.076   4.600 -0.5604 -1.0532 -0.5596
  170SAPE   C2919146   1.145   5.064   4.444 -0.3912  1.1163 -0.4200
  170SAPE   H9R19147   1.086   5.127   4.376  0.1212 -0.1138 -2.0685
  170SAPE  C21019148   1.280   5.023   4.386  0.8016 -0.0560  0.2508
  170SAPE  H10R19149   1.282   4.913   4.368  0.5943 -0.3533  1.8453
  170SAPE  H10S19150   1.364   5.042   4.456  1.9633 -0.0721 -1.0961
  170SAPE  C21119151   1.325   5.096   4.262 -1.0738 -0.0449 -0.1444
  170SAPE  H11R19152   1.279   5.063   4.167 -2.5329  0.1981  0.4616
  170SAPE  C21219153   1.387   5.217   4.247 -1.0664 -0.5244  0.1318
  170SAPE  H12R19154   1.407   5.252   4.144 -1.0461 -1.3941 -0.1629
  170SAPE  C21319155   1.468   5.299   4.340 -0.8183  0.3498 -1.0085
  170SAPE  H13R19156   1.574   5.293   4.307 -0.2878  0.8069  0.5104
  170SAPE  H13S19157   1.472   5.256   4.443 -1.1480 -0.4050 -1.3000
  170SAPE  C21419158   1.427   5.446   4.327  0.4832  0.3058  0.6553
  170SAPE  H14R19159   1.384   5.475   4.230  0.2822  1.1896  1.0010
  170SAPE  C21519160   1.452   5.542   4.418  0.3347 -0.2210 -0.8615
  170SAPE  H15R19161   1.393   5.633   4.404  1.9383  0.8096 -1.1300
  170SAPE  C21619162   1.530   5.538   4.549  0.3782  0.9168  0.6456
  170SAPE  H16R19163   1.638   5.554   4.527  0.6583 -2.3299 -0.9248
  170SAPE  H16S19164   1.525   5.438   4.599  4.9864 -0.2187 -0.6570
  170SAPE  C21719165   1.483   5.638   4.650  0.2243  0.3962  0.2102
  170SAPE  H17R19166   1.383   5.604   4.684  0.2750 -1.1595 -1.0849
  170SAPE  H17S19167   1.452   5.738   4.613 -1.4726  0.0241  0.5202
  170SAPE  C21819168   1.585   5.639   4.765  0.0872  0.2513  0.2692
  170SAPE  H18R19169   1.673   5.689   4.720  0.4011 -1.4951 -1.1682
  170SAPE  H18S19170   1.620   5.534   4.773  0.3000  0.3481  0.6410
  170SAPE  C21919171   1.549   5.722   4.893  0.0698  0.1506 -0.1479
  170SAPE  H19R19172   1.477   5.647   4.932  0.3772 -0.7069 -1.1811
  170SAPE  H19S19173   1.491   5.817   4.887  1.0876  0.9126  1.5920
  170SAPE  C22019174   1.662   5.746   5.001 -0.4709  0.2820 -0.1060
  170SAPE  H20R19175   1.698   5.647   5.037  0.7928  0.7556 -0.0461
  170SAPE  H20S19176   1.628   5.814   5.082 -0.5150  1.0798 -0.7772
  170SAPE  H20T19177   1.745   5.797   4.949  0.2472 -1.2896 -0.5730
  170SAPE   C3319178   0.785   4.210   4.687 -0.2052  0.8142  0.0487
  170SAPE   H3X19179   0.819   4.105   4.697 -0.4257  0.5297 -1.8817
  170SAPE   H3Y19180   0.674   4.204   4.692 -0.3366  1.5512 -1.3351
  170SAPE   C3419181   0.837   4.297   4.796  0.2721  0.2464  0.0047
  170SAPE   H4X19182   0.796   4.401   4.793  1.1898  0.6333  0.3909
  170SAPE   H4Y19183   0.948   4.297   4.800  0.2867  0.7843 -0.3330
  170SAPE   C3519184   0.781   4.251   4.938  0.8585 -0.4209  0.1522
  170SAPE   H5X19185   0.746   4.147   4.925 -2.4847  0.3206  1.9458
  170SAPE   H5Y19186   0.690   4.310   4.962 -0.5262 -1.6850 -1.7138
  170SAPE   C3619187   0.889   4.260   5.050  0.0957 -0.2755 -0.7965
  170SAPE   H6X19188   0.909   4.368   5.067  0.6707 -0.3983 -0.6823
  170SAPE   H6Y19189   0.977   4.201   5.015 -0.2823 -0.9112 -0.6905
  170SAPE   C3719190   0.831   4.213   5.186 -0.8452  0.5021  0.0701
  170SAPE   H7X19191   0.803   4.110   5.157 -0.7942  0.4414  0.2371
  170SAPE   H7Y19192   0.742   4.276   5.208  0.1589  1.4459  1.6073
  170SAPE   C3819193   0.924   4.206   5.296 -0.1110 -0.1972 -0.1749
  170SAPE   H8X19194   0.947   4.310   5.328 -1.3353  0.2710 -0.7426
  170SAPE   H8Y19195   1.017   4.167   5.249 -0.2476 -0.3161 -0.3511
  170SAPE   C3919196   0.884   4.131   5.425  0.5423  0.6655  0.3451
  170SAPE   H9X19197   0.796   4.184   5.468 -1.3032  1.0261 -3.4308
  170SAPE   H9Y19198   0.969   4.132   5.495  1.0895  1.1760 -0.3163
  170SAPE  C31019199   0.852   3.986   5.395 -0.1122  0.6484 -0.3695
  170SAPE  H10X19200   0.930   3.935   5.334 -0.8389 -1.1152  0.1071
  170SAPE  H10Y19201   0.767   3.982   5.325  0.4941 -1.1961 -1.0607
  170SAPE  C31119202   0.837   3.895   5.514 -0.3023  1.0893  0.4220
  170SAPE  H11X19203   0.936   3.891   5.563  0.3230  0.1808 -0.8570
  170SAPE  H11Y19204   0.807   3.791   5.489 -2.5656  0.9123  3.3590
  170SAPE  C31219205   0.727   3.954   5.605  0.2790  0.2694 -0.0474
  170SAPE  H12X19206   0.666   4.005   5.528 -1.5517 -1.7237  0.0124
  170SAPE  H12Y19207   0.767   4.043   5.660 -1.0948 -0.2599  1.9516
  170SAPE  C31319208   0.653   3.858   5.694 -0.1099  0.7287 -1.0330
  170SAPE  H13X19209   0.631   3.771   5.629  1.2889 -0.7314  0.3635
  170SAPE  H13Y19210   0.570   3.918   5.738  0.5765  1.7836 -1.1563
  170SAPE  C31419211   0.748   3.802   5.804  0.6286 -0.1425  0.8236
  170SAPE  H14X19212   0.787   3.887   5.864  0.5060  0.1066  0.5525
  170SAPE  H14Y19213   0.837   3.756   5.757 -0.2759 -0.3089 -0.7886
  170SAPE  C31519214   0.688   3.707   5.903  0.4158 -0.3298 -0.3184
  170SAPE  H15X19215   0.765   3.670   5.973  0.2927  1.4902  0.8375
  170SAPE  H15Y19216   0.636   3.626   5.846  0.6907 -0.7459  0.0175
  170SAPE  C31619217   0.593   3.783   6.000  0.1369 -0.2786 -0.3932
  170SAPE  H16X19218   0.525   3.712   6.053  0.3967  0.4435  0.9449
  170SAPE  H16Y19219   0.552   3.856   5.927  0.3178 -2.1102 -2.4655
  170SAPE  C31719220   0.671   3.851   6.116  0.2766  0.7112  0.0577
  170SAPE  H17X19221   0.624   3.941   6.160  2.1178  2.2914 -1.0230
  170SAPE  H17Y19222   0.776   3.865   6.082 -0.1360 -1.9559 -2.7240
  170SAPE  C31819223   0.690   3.760   6.240  0.3632 -0.5153  0.2518
  170SAPE  H18X19224   0.605   3.760   6.311 -0.9479  2.1856 -1.1527
  170SAPE  H18Y19225   0.774   3.811   6.292 -0.6382  2.3760 -0.7365
  170SAPE  H18Z19226   0.712   3.656   6.209 -1.8433 -0.6697 -0.9670
  171SAPE     N19227   3.420   4.345   3.633  0.0478 -0.7002 -0.4661
  171SAPE   HN119228   3.382   4.431   3.676 -1.3661 -1.0055 -1.0503
  171SAPE   HN219229   3.489   4.290   3.689 -0.0296 -1.3694 -1.0230
  171SAPE   HN319230   3.459   4.362   3.538 -0.5539 -1.2427 -0.8215
  171SAPE   C1219231   3.305   4.256   3.614 -0.0740  0.3805 -0.6227
  171SAPE  H12A19232   3.305   4.187   3.701  0.5763  1.8286  0.5875
  171SAPE  H12B19233   3.330   4.188   3.530  0.2536 -0.5864  0.2363
  171SAPE   C1119234   3.170   4.328   3.602  0.6952  0.4141  0.3488
  171SAPE  H11A19235   3.143   4.372   3.700 -1.4466  4.0388 -1.6670
  171SAPE  H11B19236   3.105   4.239   3.585  1.5553 -0.9848  3.6437
  171SAPE     P19237   3.046   4.507   3.475 -0.1235 -0.2077 -0.0620
  171SAPE   O1319238   3.087   4.633   3.415 -0.1596 -0.1925  0.3853
  171SAPE   O1419239   2.945   4.427   3.399  0.2020 -0.3832  0.4854
  171SAPE   O1219240   3.182   4.432   3.501  0.1506  0.6684 -0.2522
  171SAPE   O1119241   2.984   4.536   3.617 -0.0120 -0.0662 -0.3192
  171SAPE    C119242   2.870   4.469   3.660  0.5939  0.8261 -0.9983
  171SAPE    HA19243   2.782   4.497   3.597 -0.6529  1.0913  0.7774
  171SAPE    HB19244   2.886   4.359   3.653  1.2340  0.9721 -1.8961
  171SAPE    C219245   2.818   4.514   3.801  0.6576  0.4141 -0.8515
  171SAPE    HS19246   2.721   4.465   3.824  0.1855  1.4445 -0.6128
  171SAPE   O2119247   2.804   4.661   3.798 -0.3158 -0.7496 -0.0437
  171SAPE   C2119248   2.712   4.704   3.892 -0.0526 -0.2942  0.0424
  171SAPE   O2219249   2.634   4.631   3.953  0.0402  0.3463 -0.8607
  171SAPE   C2219250   2.717   4.859   3.907  0.2645  0.4488  0.1880
  171SAPE   H2R19251   2.818   4.904   3.894  0.3245  0.6024  1.0766
  171SAPE   H2S19252   2.637   4.891   3.837  1.3816 -0.0265 -1.3531
  171SAPE    C319253   2.927   4.474   3.900 -0.5207 -0.1712  0.1133
  171SAPE    HX19254   3.021   4.524   3.868 -0.8228  1.3330  1.4178
  171SAPE    HY19255   2.950   4.366   3.896 -0.1043 -0.0736 -0.1728
  171SAPE   O3119256   2.892   4.508   4.042 -0.1590  0.4830 -0.2270
  171SAPE   C3119257   2.801   4.429   4.099 -0.1761 -0.0619 -0.2244
  171SAPE   O3219258   2.751   4.328   4.047 -0.3410 -0.3044  0.1925
  171SAPE   C3219259   2.767   4.486   4.241  0.1985  0.1767 -0.0293
  171SAPE   H2X19260   2.664   4.527   4.241  0.3109  0.4608 -0.7237
  171SAPE   H2Y19261   2.848   4.557   4.268  2.1340 -1.5160 -1.0833
  171SAPE   C2319262   2.668   4.898   4.050 -0.4789 -0.7864 -0.1077
  171SAPE   H3R19263   2.732   4.858   4.132  0.9136 -0.4151 -1.0078
  171SAPE   H3S19264   2.564   4.859   4.059 -1.4621  1.6856 -0.1829
  171SAPE   C2419265   2.661   5.053   4.058 -0.0028  0.4644 -0.6593
  171SAPE   H4R19266   2.601   5.065   4.150  2.7536 -3.0522  1.8656
  171SAPE   H4S19267   2.608   5.099   3.972 -0.0183  0.6653 -0.5421
  171SAPE   C2519268   2.791   5.119   4.070 -0.4084 -0.2022  0.8023
  171SAPE   H5R19269   2.832   5.150   3.973 -2.5076  1.3759  0.3525
  171SAPE   C2619270   2.868   5.138   4.178 -0.3065  0.0579 -0.0148
  171SAPE   H6R19271   2.966   5.186   4.164 -1.4468  1.5633 -4.5309
  171SAPE   C2719272   2.840   5.093   4.323  0.4952 -0.5018 -0.0582
  171SAPE   H7R19273   2.930   5.046   4.368  0.1622 -0.5574  0.5507
  171SAPE   H7S19274   2.757   5.019   4.321 -0.4140  0.4578  1.0800
  171SAPE   C2819275   2.815   5.209   4.420 -0.0888  0.1995  0.0260
  171SAPE   H8R19276   2.799   5.304   4.367 -1.1839 -0.0134 -0.0550
  171SAPE   C2919277   2.817   5.206   4.555  0.0687  0.4434 -0.5924
  171SAPE   H9R19278   2.801   5.297   4.615  0.8327 -0.3031  0.8223
  171SAPE  C21019279   2.820   5.085   4.648 -0.1390  0.6814 -0.1288
  171SAPE  H10R19280   2.907   5.091   4.717 -1.7393 -0.4887  2.1043
  171SAPE  H10S19281   2.833   4.988   4.594  0.4269  1.6993 -1.8973
  171SAPE  C21119282   2.699   5.066   4.739 -0.5700 -0.6533 -0.0359
  171SAPE  H11R19283   2.602   5.067   4.687 -0.3721  0.2340 -0.4098
  171SAPE  C21219284   2.703   5.047   4.872  0.3253  0.3335 -0.1032
  171SAPE  H12R19285   2.611   5.035   4.931  0.7485 -1.2465  0.2709
  171SAPE  C21319286   2.819   5.044   4.963 -0.5568 -1.3872 -0.4515
  171SAPE  H13R19287   2.918   5.041   4.913  0.0431 -1.3721  0.7058
  171SAPE  H13S19288   2.823   4.947   5.018  1.7024 -0.4867  1.1286
  171SAPE  C21419289   2.808   5.170   5.059  0.3433  0.4336 -0.1695
  171SAPE  H14R19290   2.756   5.257   5.016  0.6909  0.0291 -1.4623
  171SAPE  C21519291   2.854   5.177   5.191  0.0348 -0.2708  0.3535
  171SAPE  H15R19292   2.848   5.269   5.250  0.1875 -0.9826  1.5213
  171SAPE  C21619293   2.930   5.076   5.273  0.3079 -0.2867  0.3747
  171SAPE  H16R19294   3.021   5.120   5.319  0.9797 -1.7159  0.4676
  171SAPE  H16S19295   2.953   4.990   5.207  3.1227  0.6033  0.0779
  171SAPE  C21719296   2.842   5.014   5.379  0.0958  0.4967 -0.2137
  171SAPE  H17R19297   2.893   4.933   5.436  2.2462  1.3272 -0.8630
  171SAPE  H17S19298   2.746   4.968   5.348 -0.0495 -1.1225  2.3664
  171SAPE  C21819299   2.797   5.120   5.482 -0.5725 -0.0818 -0.3178
  171SAPE  H18R19300   2.727   5.188   5.428 -0.4937 -2.1663 -3.3370
  171SAPE  H18S19301   2.885   5.179   5.512 -0.2998  0.2348 -1.6606
  171SAPE  C21919302   2.737   5.054   5.610  0.5703 -0.1614  0.3032
  171SAPE  H19R19303   2.735   5.129   5.691 -0.8711 -0.3819  0.5023
  171SAPE  H19S19304   2.803   4.966   5.631  1.5938  0.2737 -0.9451
  171SAPE  C22019305   2.591   5.027   5.596 -0.6203  0.3565 -0.2200
  171SAPE  H20R19306   2.582   4.946   5.520  1.5677  0.8557 -1.0973
  171SAPE  H20S19307   2.541   5.117   5.554 -0.1621  0.4519 -0.5708
  171SAPE  H20T19308   2.546   4.994   5.692 -2.1293  1.2009 -0.6100
  171SAPE   C3319309   2.758   4.374   4.342  0.2097 -0.0772 -0.3972
  171SAPE   H3X19310   2.857   4.334   4.371 -0.1712 -0.7426  0.0218
  171SAPE   H3Y19311   2.706   4.281   4.310 -1.5801  1.1224 -1.1728
  171SAPE   C3419312   2.665   4.404   4.455 -0.2485  0.0436 -0.0447
  171SAPE   H4X19313   2.656   4.315   4.520  0.6711 -0.7959 -1.0189
  171SAPE   H4Y19314   2.560   4.417   4.421 -0.3440 -0.3251  0.1056
  171SAPE   C3519315   2.702   4.518   4.550 -0.2911 -0.4880 -0.0106
  171SAPE   H5X19316   2.647   4.525   4.646  0.7574 -1.4972  0.6750
  171SAPE   H5Y19317   2.697   4.612   4.491  1.2514  0.6138  1.5443
  171SAPE   C3619318   2.841   4.501   4.599 -0.6855  0.0425 -0.4449
  171SAPE   H6X19319   2.881   4.573   4.674  0.2560  0.3768 -1.2486
  171SAPE   H6Y19320   2.913   4.517   4.516 -0.0222 -1.6231 -0.2425
  171SAPE   C3719321   2.875   4.367   4.667  0.5219 -0.3071  0.4897
  171SAPE   H7X19322   2.878   4.289   4.587  0.0014 -0.3527  0.5137
  171SAPE   H7Y19323   2.798   4.337   4.740 -0.8642  1.9641  0.0543
  171SAPE   C3819324   3.010   4.369   4.746 -0.1148  0.0988 -0.5606
  171SAPE   H8X19325   3.018   4.450   4.820 -0.3774 -0.2364 -0.1598
  171SAPE   H8Y19326   3.081   4.395   4.664 -0.3427  2.3957 -0.0737
  171SAPE   C3919327   3.037   4.231   4.807 -0.0919  0.4637  0.7770
  171SAPE   H9X19328   3.145   4.204   4.808 -0.4515 -1.1350  0.1693
  171SAPE   H9Y19329   2.988   4.148   4.751  0.5972 -0.2651  1.2315
  171SAPE  C31019330   3.007   4.222   4.958  0.0055 -0.5829 -0.2957
  171SAPE  H10X19331   3.048   4.309   5.015 -1.0895  1.2888 -2.1979
  171SAPE  H10Y19332   3.040   4.127   5.003  1.3682 -0.6377 -1.3463
  171SAPE  C31119333   2.857   4.231   4.979 -0.1164  0.1662 -0.4107
  171SAPE  H11X19334   2.818   4.147   4.917 -1.1996 -1.1048  1.8549
  171SAPE  H11Y19335   2.799   4.316   4.937 -3.0696 -1.5146 -0.0694
  171SAPE  C31219336   2.823   4.211   5.122 -0.1911 -0.7682  0.4800
  171SAPE  H12X19337   2.865   4.288   5.190  1.2681 -1.3123  0.2293
  171SAPE  H12Y19338   2.879   4.121   5.153  3.0218  0.9382 -0.0044
  171SAPE  C31319339   2.671   4.189   5.145  0.2567  0.1987 -0.2021
  171SAPE  H13X19340   2.643   4.086   5.114 -0.9009 -0.4479  2.6380
  171SAPE  H13Y19341   2.626   4.263   5.077  0.2573  0.2617 -0.1342
  171SAPE  C31419342   2.627   4.220   5.294  0.1679  0.6019  0.6210
  171SAPE  H14X19343   2.623   4.330   5.311 -1.7961  0.4648  1.3565
  171SAPE  H14Y19344   2.696   4.166   5.362  1.1151  1.6694  0.5277
  171SAPE  C31519345   2.481   4.175   5.321 -0.3774  0.0240 -0.5425
  171SAPE  H15X19346   2.476   4.183   5.432 -1.2960  0.1146 -0.5802
  171SAPE  H15Y19347   2.471   4.066   5.304 -0.0905 -0.0962  0.0326
  171SAPE  C31619348   2.361   4.249   5.248 -0.4196  0.4874 -0.2093
  171SAPE  H16X19349   2.373   4.249   5.138  1.5495 -2.0627 -0.0705
  171SAPE  H16Y19350   2.371   4.356   5.278 -3.0563  0.2364  1.9854
  171SAPE  C31719351   2.223   4.191   5.275 -0.1236  0.4299 -0.3012
  171SAPE  H17X19352   2.149   4.265   5.238 -0.3930  1.9827  2.9641
  171SAPE  H17Y19353   2.198   4.188   5.383  0.9891 -3.8207 -0.0103
  171SAPE  C31819354   2.191   4.047   5.226 -0.0883  0.2302 -0.4109
  171SAPE  H18X19355   2.247   3.976   5.289 -0.3759  1.1960  0.9803
  171SAPE  H18Y19356   2.214   4.034   5.118 -1.0523  2.7716 -1.0204
  171SAPE  H18Z19357   2.084   4.027   5.248  0.5439 -1.7498  1.0945
  172SAPE     N19358   6.492   4.725   3.922  0.0556  0.0711 -0.1209
  172SAPE   HN119359   6.541   4.741   4.013 -0.4986  0.3931  0.1250
  172SAPE   HN219360   6.484   4.621   3.921  0.0739  0.0517  0.7710
  172SAPE   HN319361   6.556   4.749   3.844  1.5116 -1.2331  0.6203
  172SAPE   C1219362   6.362   4.801   3.926  0.0531  0.0930  0.3896
  172SAPE  H12A19363   6.300   4.758   4.009 -0.8812 -0.3392 -0.5042
  172SAPE  H12B19364   6.303   4.794   3.832  1.2289  2.3172 -0.5750
  172SAPE   C1119365   6.379   4.947   3.939  0.4102 -0.1130  0.0943
  172SAPE  H11A19366   6.410   4.974   4.042  1.0672  0.1232 -0.1635
  172SAPE  H11B19367   6.278   4.990   3.921 -0.2672 -2.0076 -0.9292
  172SAPE     P19368   6.448   5.142   3.790 -0.6385 -0.0501  0.2506
  172SAPE   O1319369   6.568   5.189   3.717 -0.1320  0.5095 -0.1950
  172SAPE   O1419370   6.330   5.139   3.702  0.1675  0.0981  0.6077
  172SAPE   O1219371   6.476   4.993   3.843 -0.1558  0.3647  0.0639
  172SAPE   O1119372   6.420   5.235   3.917 -0.1437 -0.3082  0.1275
  172SAPE    C119373   6.515   5.261   4.017  0.3125 -0.6045 -0.0489
  172SAPE    HA19374   6.588   5.178   4.014  0.5487 -0.3843 -0.3586
  172SAPE    HB19375   6.568   5.357   3.998 -3.2906  1.9874  1.6761
  172SAPE    C219376   6.450   5.273   4.156  0.0154 -0.2983  0.1574
  172SAPE    HS19377   6.536   5.308   4.216  0.8730  1.4682 -2.0003
  172SAPE   O2119378   6.402   5.142   4.205  0.2014 -0.1302 -0.4463
  172SAPE   C2119379   6.411   5.113   4.331  0.0393 -0.3869  0.1662
  172SAPE   O2219380   6.463   5.176   4.420 -0.0920  0.0150 -0.2207
  172SAPE   C2219381   6.341   4.985   4.361 -0.1977 -0.1327 -0.1314
  172SAPE   H2R19382   6.258   4.998   4.434 -1.8074 -0.1619 -1.8887
  172SAPE   H2S19383   6.288   4.944   4.272 -2.4578  1.8403  0.1974
  172SAPE    C319384   6.331   5.376   4.161 -0.1982  0.0093  0.0300
  172SAPE    HX19385   6.239   5.327   4.122  0.2783  0.4514 -1.7264
  172SAPE    HY19386   6.341   5.466   4.097 -3.1066 -0.7919 -1.7185
  172SAPE   O3119387   6.311   5.414   4.303  0.2508 -0.1140  0.6250
  172SAPE   C3119388   6.389   5.507   4.350  0.2617 -1.5049  0.4123
  172SAPE   O3219389   6.494   5.555   4.299  0.5336 -0.2340 -0.1063
  172SAPE   C3219390   6.332   5.552   4.488 -0.4663 -0.5777  0.4423
  172SAPE   H2X19391   6.411   5.601   4.548  0.4151 -2.2386  0.6935
  172SAPE   H2Y19392   6.304   5.463   4.547  0.8026 -1.4880 -0.2783
  172SAPE   C2319393   6.443   4.885   4.422  0.2527 -0.8912 -0.5770
  172SAPE   H3R19394   6.492   4.921   4.514 -1.4517 -0.8446  0.3661
  172SAPE   H3S19395   6.527   4.870   4.351 -1.8159 -1.2009 -3.1234
  172SAPE   C2419396   6.365   4.758   4.465 -0.0060 -0.8866  0.8831
  172SAPE   H4R19397   6.311   4.714   4.379  2.2243 -0.3619 -0.8603
  172SAPE   H4S19398   6.279   4.789   4.529 -0.8969 -0.5845 -0.4245
  172SAPE   C2519399   6.454   4.662   4.538  0.1799 -0.5170  0.2406
  172SAPE   H5R19400   6.515   4.587   4.484 -1.3391 -2.9589  1.7474
  172SAPE   C2619401   6.480   4.669   4.666 -0.3122  0.3322 -0.0293
  172SAPE   H6R19402   6.538   4.590   4.716 -3.0789 -0.7634  1.7200
  172SAPE   C2719403   6.412   4.762   4.763 -0.2231 -0.6931 -0.3987
  172SAPE   H7R19404   6.327   4.817   4.715 -0.6756 -2.3302 -1.5434
  172SAPE   H7S19405   6.468   4.851   4.800 -1.4793 -0.5047  1.2115
  172SAPE   C2819406   6.368   4.686   4.889 -0.0132 -0.3841 -0.5089
  172SAPE   H8R19407   6.456   4.661   4.950 -0.7670 -3.5060 -0.4931
  172SAPE   C2919408   6.240   4.661   4.934 -0.5618  0.0409  0.5092
  172SAPE   H9R19409   6.226   4.634   5.040  1.2752  3.1899  1.7133
  172SAPE  C21019410   6.120   4.713   4.863  0.3491  0.3742  0.3686
  172SAPE  H10R19411   6.130   4.678   4.758  0.0988 -2.6442  1.2462
  172SAPE  H10S19412   6.115   4.824   4.865  3.1993  0.6466 -1.3526
  172SAPE  C21119413   5.992   4.652   4.905  0.0606  0.0387  0.4474
  172SAPE  H11R19414   6.006   4.545   4.927  1.1844 -0.4163 -2.1250
  172SAPE  C21219415   5.870   4.705   4.920 -0.1736 -0.6330 -0.1485
  172SAPE  H12R19416   5.785   4.646   4.958 -1.5468 -0.1475 -2.2911
  172SAPE  C21319417   5.843   4.849   4.882  0.5382 -0.3099  0.2825
  172SAPE  H13R19418   5.871   4.856   4.775 -3.3271 -1.6627 -0.9967
  172SAPE  H13S19419   5.903   4.920   4.943 -0.3820  0.4004  0.3782
  172SAPE  C21419420   5.697   4.897   4.902 -0.1406  0.2084 -0.3129
  172SAPE  H14R19421   5.672   4.906   5.008  2.1701 -1.0320  0.3927
  172SAPE  C21519422   5.607   4.941   4.809 -0.1687  0.3386  0.8567
  172SAPE  H15R19423   5.504   4.959   4.843 -0.7436 -0.5754 -0.3166
  172SAPE  C21619424   5.635   4.919   4.668  0.2612  0.3686  0.3764
  172SAPE  H16R19425   5.684   4.824   4.639 -1.3167 -1.2224  2.6270
  172SAPE  H16S19426   5.689   5.003   4.618 -1.5972  2.2133  1.3081
  172SAPE  C21719427   5.494   4.912   4.603 -0.1227  0.1395  0.1661
  172SAPE  H17R19428   5.436   5.005   4.618  2.2805  1.9573 -1.0934
  172SAPE  H17S19429   5.437   4.823   4.637  1.0731 -0.0723  1.7218
  172SAPE  C21819430   5.516   4.893   4.453 -0.0771  0.1940  0.8099
  172SAPE  H18R19431   5.549   4.788   4.443 -0.9068 -0.0004 -0.0403
  172SAPE  H18S19432   5.579   4.971   4.403  0.1971 -1.2077 -1.1511
  172SAPE  C21919433   5.391   4.887   4.370 -0.1359  0.0749  0.8271
  172SAPE  H19R19434   5.345   4.988   4.370  0.8907  0.5578  0.3243
  172SAPE  H19S19435   5.317   4.818   4.415  1.3131 -1.5759  0.8085
  172SAPE  C22019436   5.407   4.834   4.224 -0.3147 -0.1910  0.4154
  172SAPE  H20R19437   5.492   4.878   4.167 -1.6297  1.9161 -0.0263
  172SAPE  H20S19438   5.315   4.837   4.161 -1.3477  1.3451  1.9222
  172SAPE  H20T19439   5.448   4.731   4.218 -0.9665 -0.3793 -3.7238
  172SAPE   C3319440   6.213   5.652   4.488  0.6049 -0.3639 -0.6300
  172SAPE   H3X19441   6.116   5.618   4.445 -0.2068  0.7253  0.2507
  172SAPE   H3Y19442   6.263   5.728   4.425  1.8203 -0.9983 -0.4516
  172SAPE   C3419443   6.182   5.695   4.630 -0.6149  0.2975  0.2802
  172SAPE   H4X19444   6.119   5.786   4.620 -1.2627 -0.2601 -0.9277
  172SAPE   H4Y19445   6.281   5.719   4.676  0.0682 -0.7088 -0.5852
  172SAPE   C3519446   6.076   5.596   4.693 -0.2610 -0.2259  0.0541
  172SAPE   H5X19447   6.109   5.491   4.706  0.1865 -0.4993 -2.8043
  172SAPE   H5Y19448   5.995   5.583   4.619 -0.8838  0.8637  0.5069
  172SAPE   C3619449   6.023   5.653   4.826  0.7461  0.3419  0.6847
  172SAPE   H6X19450   5.933   5.592   4.846 -0.5758  1.3250 -1.7396
  172SAPE   H6Y19451   5.997   5.761   4.816  1.9271  0.4631 -1.9346
  172SAPE   C3719452   6.130   5.656   4.933  0.0133 -0.3062 -0.2699
  172SAPE   H7X19453   6.232   5.689   4.902  1.3857 -4.1250 -0.3800
  172SAPE   H7Y19454   6.149   5.550   4.957 -1.7785 -0.5848  0.0411
  172SAPE   C3819455   6.075   5.740   5.052  0.4122  1.2094  0.3573
  172SAPE   H8X19456   5.990   5.679   5.088  0.9230  1.4252  1.9965
  172SAPE   H8Y19457   6.040   5.839   5.015 -0.2784  0.9593  0.3399
  172SAPE   C3919458   6.179   5.762   5.160 -0.1655  0.2018 -0.7729
  172SAPE   H9X19459   6.123   5.826   5.232 -1.8057 -1.0577 -0.8553
  172SAPE   H9Y19460   6.270   5.809   5.116  0.1001  0.0890 -0.3495
  172SAPE  C31019461   6.224   5.632   5.234 -0.4683  0.0101 -0.5439
  172SAPE  H10X19462   6.263   5.564   5.155 -0.0286 -0.3610 -0.0150
  172SAPE  H10Y19463   6.133   5.580   5.271 -1.0652  0.7019 -1.0062
  172SAPE  C31119464   6.325   5.652   5.356  0.1553  0.1556  0.4508
  172SAPE  H11X19465   6.265   5.701   5.435 -0.6093 -0.4080  0.2232
  172SAPE  H11Y19466   6.406   5.725   5.332  0.2546  0.5140  1.8307
  172SAPE  C31219467   6.382   5.522   5.405 -0.2331  1.1632  0.5603
  172SAPE  H12X19468   6.472   5.499   5.344 -0.2720  3.5647 -0.5302
  172SAPE  H12Y19469   6.307   5.441   5.395 -1.7801  2.2114  2.8017
  172SAPE  C31319470   6.426   5.533   5.556  0.2577  0.1770  1.1427
  172SAPE  H13X19471   6.475   5.632   5.567  0.4838  0.0356  1.4347
  172SAPE  H13Y19472   6.507   5.457   5.567  1.0142  0.8172  0.2039
  172SAPE  C31419473   6.316   5.527   5.662  0.2001 -0.2004 -0.6003
  172SAPE  H14X19474   6.237   5.605   5.660 -0.7366 -1.0739  0.7409
  172SAPE  H14Y19475   6.364   5.544   5.760  1.3293 -1.4800 -0.8995
  172SAPE  C31519476   6.245   5.393   5.680  0.2499 -0.5272 -0.4998
  172SAPE  H15X19477   6.159   5.395   5.610 -0.2332  1.5198  0.0812
  172SAPE  H15Y19478   6.200   5.389   5.782  0.8455 -1.0941 -0.2565
  172SAPE  C31619479   6.330   5.269   5.654  0.0739 -0.3765  0.3196
  172SAPE  H16X19480   6.364   5.280   5.549  0.2239 -0.7725  0.3251
  172SAPE  H16Y19481   6.266   5.178   5.655 -1.0616  0.4117  1.2388
  172SAPE  C31719482   6.440   5.234   5.756 -0.7960  0.3050  0.4681
  172SAPE  H17X19483   6.393   5.243   5.856 -0.0687 -1.6766  1.0306
  172SAPE  H17Y19484   6.524   5.306   5.753  0.2777 -0.9427 -0.0392
  172SAPE  C31819485   6.501   5.093   5.731 -0.7301 -0.0051 -0.0381
  172SAPE  H18X19486   6.538   5.052   5.827 -0.6477  1.8876  0.7733
  172SAPE  H18Y19487   6.583   5.092   5.655 -0.4108 -1.6548  0.2907
  172SAPE  H18Z19488   6.425   5.021   5.695 -1.6972  0.6108  0.7395
  173SLPC     N19489   5.685   0.289   8.382  0.4675  0.2069  0.5356
  173SLPC   C1319490   5.607   0.307   8.515  0.3531  0.0814 -0.0484
  173SLPC  H13A19491   5.669   0.268   8.595 -1.1180 -0.4023  0.8959
  173SLPC  H13B19492   5.577   0.410   8.527  1.3665  0.3442  0.3211
  173SLPC  H13C19493   5.517   0.249   8.531  1.6045 -1.7584  0.6721
  173SLPC   C1419494   5.780   0.403   8.381 -0.6039  0.1533  0.1405
  173SLPC  H14A19495   5.723   0.494   8.377 -1.5458 -0.4468 -0.2876
  173SLPC  H14B19496   5.848   0.385   8.463 -1.6876 -1.4771  0.7422
  173SLPC  H14C19497   5.828   0.401   8.285 -1.2785 -1.0118 -0.1865
  173SLPC   C1519498   5.584   0.314   8.274 -0.1061 -0.5990  0.4659
  173SLPC  H15A19499   5.514   0.391   8.301 -0.0454  0.2459 -1.6312
  173SLPC  H15B19500   5.624   0.332   8.176  3.2253 -1.8245  1.4551
  173SLPC  H15C19501   5.524   0.224   8.263  2.0019 -1.8202 -2.4234
  173SLPC   C1219502   5.756   0.154   8.367  0.1559  0.2434  0.3347
  173SLPC  H12A19503   5.685   0.074   8.377  1.1555 -0.7166 -0.0630
  173SLPC  H12B19504   5.825   0.149   8.450 -0.0873  2.8900  0.7972
  173SLPC   C1119505   5.831   0.133   8.229  0.3579  0.5601  0.1011
  173SLPC  H11A19506   5.748   0.158   8.159 -0.8989  5.2979  2.8319
  173SLPC  H11B19507   5.869   0.029   8.226 -1.2093 -0.0106 -0.5197
  173SLPC     P19508   6.048   0.195   8.092 -0.0012  0.4167  0.1536
  173SLPC   O1319509   6.133   0.318   8.071  0.5041 -0.0150  0.3443
  173SLPC   O1419510   6.106   0.067   8.142 -0.3707  0.1446 -0.3509
  173SLPC   O1219511   5.934   0.230   8.196  0.0958 -0.3060 -0.1236
  173SLPC   O1119512   5.951   0.171   7.966 -0.5461 -0.0528 -0.5459
  173SLPC    C119513   5.920   0.274   7.874 -0.0918 -0.1756  0.3379
  173SLPC    HA19514   5.967   0.370   7.901  1.9979 -1.4994  1.6310
  173SLPC    HB19515   5.957   0.253   7.771 -0.0138  1.8679 -0.0832
  173SLPC    C219516   5.765   0.300   7.866  0.5421  0.5573  0.4315
  173SLPC    HS19517   5.749   0.339   7.969  0.2902  0.9863  0.2364
  173SLPC   O2119518   5.705   0.172   7.860 -0.5053 -0.2476 -0.3628
  173SLPC   C2119519   5.586   0.154   7.917 -0.0015 -0.2798  0.2466
  173SLPC   O2219520   5.528   0.235   7.985  0.4808 -0.1088 -0.3308
  173SLPC   C2219521   5.533   0.014   7.882 -0.3395  0.3311  0.0416
  173SLPC   H2R19522   5.616  -0.038   7.829  0.5300  1.2289  0.4979
  173SLPC   H2S19523   5.524  -0.038   7.980 -0.0927 -1.5411 -0.8727
  173SLPC    C319524   5.728   0.393   7.749 -0.5730  0.0201  0.0639
  173SLPC    HX19525   5.764   0.336   7.660  0.2207  1.7465 -0.7539
  173SLPC    HY19526   5.794   0.482   7.756 -0.1170 -0.3118  0.0699
  173SLPC   O3119527   5.592   0.421   7.737  0.6156  0.1468 -0.0276
  173SLPC   C3119528   5.536   0.508   7.818  0.1365 -0.8258  0.4208
  173SLPC   O3219529   5.590   0.566   7.910  0.3851  0.6137 -0.1332
  173SLPC   C3219530   5.396   0.520   7.786  0.1464 -0.0193  0.5083
  173SLPC   H2X19531   5.341   0.498   7.880  0.0087  1.8139  0.8938
  173SLPC   H2Y19532   5.361   0.449   7.708 -0.8953  1.9389 -0.9028
  173SLPC   C2319533   5.406  -0.007   7.800 -0.2579  0.3953  0.5525
  173SLPC   H3R19534   5.320   0.061   7.816 -1.7443 -0.6204 -2.4630
  173SLPC   H3S19535   5.367  -0.105   7.836  2.1071 -0.3802  1.2086
  173SLPC   C2419536   5.439  -0.004   7.646  0.4129 -0.3914 -0.8117
  173SLPC   H4R19537   5.349   0.004   7.582  0.9903  0.8331 -1.5340
  173SLPC   H4S19538   5.489  -0.101   7.624  1.2320 -1.2651  3.9049
  173SLPC   C2519539   5.519   0.109   7.581  0.0707  0.2462  1.1595
  173SLPC   H5R19540   5.621   0.106   7.624 -1.0480 -0.1377  4.0209
  173SLPC   H5S19541   5.487   0.213   7.603 -1.2706  0.3407 -0.9609
  173SLPC   C2619542   5.511   0.101   7.423 -0.3558 -0.0539 -0.5006
  173SLPC   H6R19543   5.414   0.117   7.371 -0.4026  0.9129 -0.1335
  173SLPC   H6S19544   5.538  -0.004   7.396  0.8316 -0.8844  3.3238
  173SLPC   C2719545   5.616   0.200   7.361  0.9046  0.2471  0.2256
  173SLPC   H7R19546   5.709   0.188   7.420  0.6135  1.6702  1.0260
  173SLPC   H7S19547   5.591   0.303   7.395  0.5562 -0.7179  3.1835
  173SLPC   C2819548   5.641   0.176   7.215  0.5858  0.3972 -0.2642
  173SLPC   H8R19549   5.693   0.078   7.203 -1.7468 -0.8042 -1.1812
  173SLPC   H8S19550   5.714   0.256   7.190 -1.1176  1.7782 -0.9976
  173SLPC   C2919551   5.525   0.191   7.125 -0.3964  0.5185 -0.2563
  173SLPC   H9R19552   5.438   0.248   7.161 -0.0488 -0.5143  2.3889
  173SLPC  C21019553   5.525   0.143   6.999  0.2790  0.3018 -0.1167
  173SLPC  H10R19554   5.433   0.164   6.943  1.4166  0.0572 -2.1729
  173SLPC  C21119555   5.635   0.070   6.927  0.0927 -0.8019  0.3053
  173SLPC  H11R19556   5.644  -0.039   6.948  0.1125 -0.4858  2.0619
  173SLPC  H11S19557   5.719   0.121   6.978 -1.4744  2.8803 -0.4139
  173SLPC  C21219558   5.634   0.114   6.784 -0.3420  0.3349 -0.7027
  173SLPC  H12R19559   5.681   0.213   6.773 -1.9921  1.2845  0.5055
  173SLPC  C21319560   5.587   0.055   6.675  0.8186 -0.1273 -0.1215
  173SLPC  H13R19561   5.601   0.094   6.573  4.5844  0.9730  0.6444
  173SLPC  C21419562   5.488  -0.057   6.685 -0.1133 -0.0750  0.2865
  173SLPC  H14R19563   5.404  -0.051   6.613 -0.4625  0.4839  0.7332
  173SLPC  H14S19564   5.439  -0.054   6.785  1.6770  2.4783  1.2142
  173SLPC  C21519565   5.565  -0.190   6.659 -0.4862 -0.2978 -0.9031
  173SLPC  H15R19566   5.515  -0.277   6.705  0.3241 -0.1480  0.3030
  173SLPC  H15S19567   5.660  -0.193   6.717 -1.8593 -1.8007  1.4410
  173SLPC  C21619568   5.585  -0.211   6.514 -0.5492  0.1209 -0.2288
  173SLPC  H16R19569   5.631  -0.126   6.458  2.0149  2.8777  5.2876
  173SLPC  H16S19570   5.481  -0.232   6.483 -0.8133 -1.2920  1.4665
  173SLPC  C21719571   5.661  -0.342   6.488  0.7757 -0.5975 -0.1749
  173SLPC  H17R19572   5.619  -0.430   6.541  0.0834  0.3577  0.9250
  173SLPC  H17S19573   5.761  -0.342   6.536 -0.3562 -1.7001  2.3688
  173SLPC  C21819574   5.666  -0.376   6.337  0.5649  0.1357  0.0510
  173SLPC  H18R19575   5.596  -0.302   6.292 -0.0346 -0.2947  0.2575
  173SLPC  H18S19576   5.645  -0.482   6.309  1.6376 -0.5769  1.7874
  173SLPC  H18T19577   5.771  -0.371   6.302  0.6807 -4.6793 -1.0244
  173SLPC   C3319578   5.367   0.659   7.715  0.3812 -0.1793 -0.0726
  173SLPC   H3X19579   5.370   0.746   7.784 -4.8406  1.1446 -1.0624
  173SLPC   H3Y19580   5.262   0.647   7.681 -0.1630 -0.2101  1.5536
  173SLPC   C3419581   5.463   0.696   7.597 -0.2361 -0.1155  0.2789
  173SLPC   H4X19582   5.565   0.703   7.641  0.6694 -1.4509 -1.4794
  173SLPC   H4Y19583   5.425   0.796   7.569 -0.6933  0.0656  1.4703
  173SLPC   C3519584   5.463   0.607   7.473  0.0942  0.2848  0.0467
  173SLPC   H5X19585   5.361   0.566   7.461  0.1495  0.0647  0.3019
  173SLPC   H5Y19586   5.537   0.527   7.497 -0.4797  0.1950  1.6368
  173SLPC   C3619587   5.496   0.676   7.340 -0.2192 -0.5171  0.1860
  173SLPC   H6X19588   5.597   0.717   7.363  0.1366 -2.5008  2.6054
  173SLPC   H6Y19589   5.424   0.757   7.316 -0.6521 -1.2841 -1.2627
  173SLPC   C3719590   5.519   0.577   7.227 -0.3901  0.0115 -0.2542
  173SLPC   H7X19591   5.428   0.516   7.209 -0.1524 -1.2815  2.4133
  173SLPC   H7Y19592   5.598   0.504   7.255  1.3630  0.8768 -2.6886
  173SLPC   C3819593   5.550   0.639   7.100 -0.8687  0.1129  1.4018
  173SLPC   H8X19594   5.649   0.687   7.087  0.6228 -3.3143 -1.6783
  173SLPC   H8Y19595   5.468   0.708   7.071 -0.9221 -0.9806 -1.3122
  173SLPC   C3919596   5.564   0.544   6.974  0.6433  0.5728  0.6978
  173SLPC   H9X19597   5.462   0.498   6.968  0.7021  0.6221 -1.7675
  173SLPC   H9Y19598   5.640   0.464   6.984  0.4832  0.1926 -0.8064
  173SLPC  C31019599   5.589   0.608   6.841 -0.2195  0.0388  0.1076
  173SLPC  H10X19600   5.698   0.629   6.829 -0.5621  2.5194  0.7936
  173SLPC  H10Y19601   5.539   0.705   6.827 -0.4547 -0.1495 -0.3612
  173SLPC  C31119602   5.539   0.518   6.724  0.3749  0.3642  0.1416
  173SLPC  H11X19603   5.434   0.486   6.741  0.8653 -0.4345  2.0095
  173SLPC  H11Y19604   5.597   0.425   6.744  1.1633  0.3583 -1.9537
  173SLPC  C31219605   5.582   0.582   6.594 -1.0087 -0.3243 -0.2184
  173SLPC  H12X19606   5.692   0.594   6.602 -1.1795  1.7288 -0.3614
  173SLPC  H12Y19607   5.545   0.687   6.592  0.4872  0.2307  0.2108
  173SLPC  C31319608   5.528   0.514   6.471  0.1732  0.2713 -0.9308
  173SLPC  H13X19609   5.419   0.507   6.488  0.0298  3.3264  0.0955
  173SLPC  H13Y19610   5.550   0.406   6.485 -1.0739  0.0826 -0.2438
  173SLPC  C31419611   5.558   0.580   6.336  0.2950 -0.3129  0.9706
  173SLPC  H14X19612   5.665   0.563   6.312  0.2086  1.2798 -0.8417
  173SLPC  H14Y19613   5.540   0.689   6.333 -0.1141 -0.2387  3.9521
  173SLPC  C31519614   5.470   0.523   6.224 -0.5793 -0.2723  0.2187
  173SLPC  H15X19615   5.365   0.522   6.260 -0.5081  2.0633  0.6497
  173SLPC  H15Y19616   5.513   0.422   6.206  0.2937  0.2783 -0.8745
  173SLPC  C31619617   5.459   0.612   6.104  0.1428 -0.5069 -0.2418
  173SLPC  H16X19618   5.558   0.648   6.069  0.7286 -2.3337 -0.5519
  173SLPC  H16Y19619   5.410   0.701   6.149  4.6118  1.0801  2.2171
  173SLPC  C31719620   5.381   0.545   5.985 -0.7397 -1.1272  0.0254
  173SLPC  H17X19621   5.286   0.504   6.028 -2.3958  2.0271 -0.3556
  173SLPC  H17Y19622   5.449   0.464   5.950 -1.0639 -1.0488 -0.8066
  173SLPC  C31819623   5.348   0.650   5.875  0.3168  0.5671  0.4591
  173SLPC  H18X19624   5.269   0.723   5.904  0.2229 -0.1077  1.9705
  173SLPC  H18Y19625   5.317   0.597   5.783  1.5028 -1.1119  0.9996
  173SLPC  H18Z19626   5.445   0.700   5.852 -0.7057  0.9195 -4.1221
  174SLPC     N19627   6.287   2.827   8.607  0.6881  0.6399  0.6582
  174SLPC   C1319628   6.375   2.921   8.674  0.0252 -0.1896 -0.2165
  174SLPC  H13A19629   6.330   2.991   8.743  0.8363  0.5678 -0.4281
  174SLPC  H13B19630   6.445   2.873   8.740 -0.1391  0.9994  0.8776
  174SLPC  H13C19631   6.426   2.983   8.601  2.7816 -1.8769  0.1374
  174SLPC   C1419632   6.196   2.914   8.522 -0.4172 -0.3518  0.7357
  174SLPC  H14A19633   6.139   2.852   8.455  1.3259  0.2521 -1.4380
  174SLPC  H14B19634   6.153   2.996   8.578  1.8240  0.4112  1.4571
  174SLPC  H14C19635   6.260   2.960   8.448  0.1857 -1.0159  0.8302
  174SLPC   C1519636   6.210   2.743   8.700  0.0988  0.3922 -0.5121
  174SLPC  H15A19637   6.266   2.674   8.763 -0.9457 -2.1174 -2.1739
  174SLPC  H15B19638   6.163   2.814   8.767 -0.3991 -0.9002  0.5533
  174SLPC  H15C19639   6.131   2.691   8.649 -0.1116 -0.0855  0.2756
  174SLPC   C1219640   6.375   2.744   8.517 -0.0667  0.8317  0.2278
  174SLPC  H12A19641   6.433   2.688   8.588  0.4783  0.2622 -0.6445
  174SLPC  H12B19642   6.438   2.810   8.459  0.5359 -1.7795 -2.3472
  174SLPC   C1119643   6.307   2.645   8.412 -0.7487  0.1910 -0.0878
  174SLPC  H11A19644   6.229   2.591   8.469 -0.4473 -0.8614 -0.6480
  174SLPC  H11B19645   6.382   2.571   8.377 -2.0941 -1.3789  0.2350
  174SLPC     P19646   6.303   2.805   8.201  0.1524 -0.4254  0.4987
  174SLPC   O1319647   6.206   2.832   8.092  0.7394  0.1228  0.4923
  174SLPC   O1419648   6.356   2.924   8.277 -0.4347  0.1691 -0.1421
  174SLPC   O1219649   6.235   2.708   8.308  0.0734  0.3216  0.3307
  174SLPC   O1119650   6.420   2.711   8.161 -0.1325 -0.2172 -0.4872
  174SLPC    C119651   6.544   2.755   8.111 -0.4357 -0.1641 -0.4843
  174SLPC    HA19652   6.585   2.839   8.170  0.2003 -0.3138 -0.7043
  174SLPC    HB19653   6.619   2.673   8.111 -0.2391 -0.0380  1.9184
  174SLPC    C219654   6.531   2.812   7.973 -0.5241  0.0025 -0.2204
  174SLPC    HS19655   6.462   2.898   7.985 -0.1602  0.2913 -0.1749
  174SLPC   O2119656   6.471   2.724   7.872  0.4622  0.4324 -0.3647
  174SLPC   C2119657   6.447   2.784   7.750 -0.4363  0.9147 -0.2907
  174SLPC   O2219658   6.442   2.902   7.729  0.3924  0.0563  0.6376
  174SLPC   C2219659   6.429   2.668   7.654 -0.0100 -0.3263  0.5256
  174SLPC   H2R19660   6.528   2.618   7.645 -0.1217 -0.7427  1.4783
  174SLPC   H2S19661   6.369   2.588   7.701 -2.3785  0.9507 -0.1834
  174SLPC    C319662   6.667   2.883   7.929 -0.7929  0.8880 -0.6436
  174SLPC    HX19663   6.706   2.935   8.019 -0.8137  0.6106 -0.4743
  174SLPC    HY19664   6.648   2.960   7.851  1.2410  1.9984 -0.1367
  174SLPC   O3119665   6.760   2.785   7.882  0.2458 -0.5197 -0.3137
  174SLPC   C3119666   6.863   2.747   7.965  0.0008 -0.1881 -0.3028
  174SLPC   O3219667   6.888   2.807   8.067  0.7045 -0.2688 -0.3285
  174SLPC   C3219668   6.952   2.660   7.883  0.2856  0.5347  0.3705
  174SLPC   H2X19669   6.911   2.557   7.894 -2.3973  1.5713  0.7419
  174SLPC   H2Y19670   7.045   2.649   7.943  0.4526 -2.2310 -0.2479
  174SLPC   C2319671   6.393   2.721   7.514  0.8563  0.1377 -0.5422
  174SLPC   H3R19672   6.452   2.807   7.477  2.5040 -1.1784 -1.0973
  174SLPC   H3S19673   6.283   2.735   7.511  0.4175 -1.3980  2.7718
  174SLPC   C2419674   6.403   2.613   7.405 -0.0154  0.3611  0.4140
  174SLPC   H4R19675   6.342   2.521   7.421 -0.1162  0.2678 -0.4346
  174SLPC   H4S19676   6.509   2.581   7.392 -0.3427 -1.0340  1.0355
  174SLPC   C2519677   6.363   2.664   7.264 -0.7133  0.4440  0.0291
  174SLPC   H5R19678   6.430   2.750   7.242 -0.5626  0.0736 -1.0142
  174SLPC   H5S19679   6.257   2.696   7.265 -0.9067 -0.1845  0.9318
  174SLPC   C2619680   6.402   2.567   7.145 -0.0194 -0.4698 -0.4515
  174SLPC   H6R19681   6.505   2.525   7.151 -0.9829 -2.8298  1.2798
  174SLPC   H6S19682   6.390   2.639   7.062  1.3087  0.5893  0.2298
  174SLPC   C2719683   6.312   2.442   7.136 -0.0503 -0.1828 -0.1954
  174SLPC   H7R19684   6.205   2.463   7.159  0.1006  2.1527 -1.2857
  174SLPC   H7S19685   6.333   2.372   7.219 -1.5645 -0.4029  0.0376
  174SLPC   C2819686   6.328   2.374   7.002 -0.5719  0.6163  0.1454
  174SLPC   H8R19687   6.265   2.283   6.992  1.1005 -0.3472 -3.6951
  174SLPC   H8S19688   6.437   2.357   6.989  0.1857  1.7630  3.8105
  174SLPC   C2919689   6.282   2.468   6.891  0.0573  0.5251 -0.3288
  174SLPC   H9R19690   6.209   2.542   6.927 -0.5149  1.0708 -2.4707
  174SLPC  C21019691   6.357   2.488   6.779 -0.1484  0.6854  0.8429
  174SLPC  H10R19692   6.305   2.547   6.702 -2.3187 -0.5942  1.2522
  174SLPC  C21119693   6.481   2.413   6.731 -0.1127  0.1112  0.2438
  174SLPC  H11R19694   6.458   2.305   6.733  0.6922 -0.0626  0.7404
  174SLPC  H11S19695   6.565   2.434   6.801  2.2042 -3.7921 -1.0737
  174SLPC  C21219696   6.519   2.451   6.590  0.1859 -0.3846 -0.2698
  174SLPC  H12R19697   6.581   2.541   6.589 -0.2910  0.0140  1.8475
  174SLPC  C21319698   6.483   2.387   6.474  0.3671 -0.9703  0.4521
  174SLPC  H13R19699   6.516   2.418   6.374 -2.7922 -0.6945 -0.6305
  174SLPC  C21419700   6.391   2.266   6.467  0.1607 -0.2369 -0.2891
  174SLPC  H14R19701   6.323   2.276   6.554  0.4646 -1.2192  0.0756
  174SLPC  H14S19702   6.455   2.177   6.483  1.0152  0.5066  0.5297
  174SLPC  C21519703   6.311   2.256   6.341 -0.0195 -0.1376 -0.0654
  174SLPC  H15R19704   6.282   2.358   6.305 -1.8734  0.0488  1.8099
  174SLPC  H15S19705   6.217   2.201   6.362  0.3662 -1.2119 -1.0567
  174SLPC  C21619706   6.382   2.188   6.221 -0.1439 -0.3523  0.8955
  174SLPC  H16R19707   6.429   2.090   6.241  2.2220  0.3682 -0.7166
  174SLPC  H16S19708   6.465   2.257   6.193  0.0822 -0.4973  1.2018
  174SLPC  C21719709   6.293   2.167   6.095  0.2101 -0.2976  0.7709
  174SLPC  H17R19710   6.252   2.263   6.056  1.9097  0.0069 -0.4022
  174SLPC  H17S19711   6.209   2.096   6.110  0.5454 -0.8640  0.0283
  174SLPC  C21819712   6.380   2.114   5.977  0.0653 -0.2886  0.3189
  174SLPC  H18R19713   6.328   2.129   5.880  1.2183  0.3190 -0.2210
  174SLPC  H18S19714   6.417   2.009   5.981 -1.3916 -0.8023  1.1569
  174SLPC  H18T19715   6.465   2.185   5.972 -0.0343 -0.2239 -0.6849
  174SLPC   C3319716   6.969   2.695   7.737 -0.2007 -0.4509  0.6379
  174SLPC   H3X19717   7.002   2.801   7.728  0.4068 -0.7684 -1.4786
  174SLPC   H3Y19718   6.871   2.686   7.687  0.3128 -0.9089 -0.3223
  174SLPC   C3419719   7.074   2.614   7.665 -0.2452  0.3098 -0.4462
  174SLPC   H4X19720   7.019   2.517   7.661 -1.7550  1.0178  1.4964
  174SLPC   H4Y19721   7.166   2.612   7.727 -1.1659 -0.5915  0.9452
  174SLPC   C3519722   7.104   2.668   7.525 -0.5701 -0.5647 -0.2234
  174SLPC   H5X19723   7.128   2.776   7.537  1.3944 -0.9376 -0.3979
  174SLPC   H5Y19724   7.015   2.658   7.459  0.1096 -1.7290 -1.0031
  174SLPC   C3619725   7.218   2.583   7.463  0.3253  0.7770  0.0326
  174SLPC   H6X19726   7.179   2.479   7.464  1.4908  0.3301  1.3035
  174SLPC   H6Y19727   7.308   2.590   7.527 -1.5785  2.8905  2.7113
  174SLPC   C3719728   7.251   2.621   7.320 -0.2539 -0.1321  1.1880
  174SLPC   H7X19729   7.158   2.612   7.260 -0.1029  1.8085  0.5598
  174SLPC   H7Y19730   7.323   2.545   7.285 -0.0568  1.4024 -2.2171
  174SLPC   C3819731   7.315   2.760   7.297 -0.2608  0.2458  0.8932
  174SLPC   H8X19732   7.383   2.786   7.380 -0.0247  1.1456  0.4322
  174SLPC   H8Y19733   7.224   2.825   7.295 -0.9199 -0.6671 -0.1514
  174SLPC   C3919734   7.403   2.765   7.166 -0.0544  0.0893  0.0539
  174SLPC   H9X19735   7.490   2.698   7.187  1.4990 -0.2706 -5.8448
  174SLPC   H9Y19736   7.440   2.865   7.136 -1.0343  0.3753 -0.2157
  174SLPC  C31019737   7.356   2.696   7.038 -0.2643 -0.3271 -0.0696
  174SLPC  H10X19738   7.257   2.736   7.008 -1.1470 -0.9130  1.8785
  174SLPC  H10Y19739   7.344   2.588   7.059 -2.1690  0.1471  1.6120
  174SLPC  C31119740   7.445   2.728   6.917 -0.6387 -0.3966  0.4715
  174SLPC  H11X19741   7.534   2.664   6.933 -0.9727 -1.2635 -0.9789
  174SLPC  H11Y19742   7.474   2.835   6.919  2.9741 -1.2502  1.5087
  174SLPC  C31219743   7.398   2.687   6.776  0.2691 -0.0262  0.3587
  174SLPC  H12X19744   7.356   2.585   6.774  1.9352 -0.7680 -2.6728
  174SLPC  H12Y19745   7.484   2.684   6.705  0.2394  1.5303  0.2119
  174SLPC  C31319746   7.293   2.788   6.731  0.4115  0.0570 -0.0104
  174SLPC  H13X19747   7.311   2.890   6.770 -0.5501  0.3495 -0.3141
  174SLPC  H13Y19748   7.191   2.759   6.764  1.0150  0.0812  1.9873
  174SLPC  C31419749   7.273   2.805   6.579 -0.4394 -0.3224  0.0321
  174SLPC  H14X19750   7.181   2.865   6.561  0.4346  0.8936 -0.4769
  174SLPC  H14Y19751   7.247   2.712   6.524 -3.0058 -1.0235  2.2172
  174SLPC  C31519752   7.384   2.873   6.512 -0.1353 -0.1728  0.3195
  174SLPC  H15X19753   7.479   2.834   6.553 -0.5342 -2.7306 -0.9652
  174SLPC  H15Y19754   7.366   2.981   6.535 -1.5310 -0.3209  0.0214
  174SLPC  C31619755   7.382   2.847   6.362 -0.1416  0.2946 -0.2053
  174SLPC  H16X19756   7.281   2.877   6.327 -0.6380  0.1176  1.0276
  174SLPC  H16Y19757   7.398   2.740   6.336  1.8198  0.5935 -0.4541
  174SLPC  C31719758   7.475   2.926   6.271 -0.1664  0.2992  0.2126
  174SLPC  H17X19759   7.581   2.910   6.300  0.0720  0.7827 -0.3412
  174SLPC  H17Y19760   7.444   3.032   6.286  2.4994  1.5473 -1.9760
  174SLPC  C31819761   7.449   2.891   6.119  0.7754  0.0949 -0.1632
  174SLPC  H18X19762   7.342   2.908   6.095  0.9852 -0.7313 -1.8264
  174SLPC  H18Y19763   7.469   2.784   6.098 -0.7979 -0.2512 -0.0133
  174SLPC  H18Z19764   7.513   2.956   6.056  0.5758  1.0522  0.6042
  175SLPC     N19765   1.043   5.491   8.518  0.1434  0.8515  0.2687
  175SLPC   C1319766   1.161   5.417   8.571 -0.4345  0.3788  0.4658
  175SLPC  H13A19767   1.129   5.336   8.635 -0.3072 -1.6150 -1.8551
  175SLPC  H13B19768   1.215   5.357   8.499 -0.4086  0.8540  0.0775
  175SLPC  H13C19769   1.237   5.475   8.623 -0.3105 -1.8743  2.9877
  175SLPC   C1419770   0.973   5.547   8.635 -0.6482 -0.5940 -0.1383
  175SLPC  H14A19771   0.945   5.472   8.708  0.2959  0.2314  1.1006
  175SLPC  H14B19772   1.029   5.623   8.687 -2.7653  0.7141  0.3434
  175SLPC  H14C19773   0.880   5.589   8.599  0.9014  2.7759 -0.5685
  175SLPC   C1519774   0.952   5.397   8.449 -0.4285  0.1661  0.7316
  175SLPC  H15A19775   0.876   5.456   8.401  0.4761  2.1449  1.6399
  175SLPC  H15B19776   1.009   5.355   8.368  0.8716 -0.4774  1.9379
  175SLPC  H15C19777   0.910   5.313   8.503 -0.0270 -2.2435 -2.4384
  175SLPC   C1219778   1.088   5.604   8.426  0.2033  0.1200 -0.4900
  175SLPC  H12A19779   1.165   5.659   8.480 -1.4179  1.5263  0.4979
  175SLPC  H12B19780   1.000   5.665   8.412 -1.3915 -2.1337 -0.6242
  175SLPC   C1119781   1.142   5.557   8.292 -0.0434  0.3009 -0.5482
  175SLPC  H11A19782   1.155   5.656   8.243  0.6330 -0.4014 -1.8161
  175SLPC  H11B19783   1.068   5.502   8.230 -1.0281  1.9790 -0.9329
  175SLPC     P19784   1.406   5.549   8.321  0.1845  0.1388  0.1376
  175SLPC   O1319785   1.405   5.608   8.453 -0.9939 -0.0881 -0.1697
  175SLPC   O1419786   1.511   5.448   8.301  0.2066 -0.3498 -0.5107
  175SLPC   O1219787   1.258   5.476   8.300 -0.0410 -0.6720 -0.2805
  175SLPC   O1119788   1.415   5.671   8.212 -0.5044 -0.0599  0.2754
  175SLPC    C119789   1.348   5.651   8.084 -0.7741 -0.0561 -0.2801
  175SLPC    HA19790   1.311   5.548   8.065 -0.1234 -0.4308  0.3995
  175SLPC    HB19791   1.273   5.731   8.074  1.4453  1.9241 -2.5168
  175SLPC    C219792   1.462   5.674   7.980  0.6606  0.3754 -0.0753
  175SLPC    HS19793   1.522   5.759   8.019  2.1618 -1.9054  2.9661
  175SLPC   O2119794   1.393   5.701   7.860 -0.2735  0.0891  0.6494
  175SLPC   C2119795   1.453   5.777   7.770 -0.3644  0.0926  0.4091
  175SLPC   O2219796   1.555   5.843   7.792 -0.0056  0.5718  0.5635
  175SLPC   C2219797   1.374   5.785   7.639  0.2238  0.1708 -0.5938
  175SLPC   H2R19798   1.419   5.722   7.559 -1.0247 -2.4142  0.6154
  175SLPC   H2S19799   1.271   5.744   7.651  0.3942 -0.8491 -2.2682
  175SLPC    C319800   1.557   5.541   7.970 -0.1136 -0.3322 -0.1917
  175SLPC    HX19801   1.487   5.457   7.951  1.4615 -1.7932  0.1853
  175SLPC    HY19802   1.606   5.522   8.067  0.3699  0.8812 -0.1755
  175SLPC   O3119803   1.645   5.538   7.852  0.2138  0.2034  0.0049
  175SLPC   C3119804   1.754   5.610   7.864 -0.7423 -0.2535  0.5270
  175SLPC   O3219805   1.773   5.689   7.955 -0.1923 -0.3235 -0.0165
  175SLPC   C3219806   1.849   5.603   7.736 -0.4335 -0.0250  1.0344
  175SLPC   H2X19807   1.907   5.509   7.746 -1.5275 -0.7385  0.8744
  175SLPC   H2Y19808   1.917   5.691   7.744  2.2452 -2.0386  1.9055
  175SLPC   C2319809   1.366   5.935   7.586  0.5861 -0.2964  0.5604
  175SLPC   H3R19810   1.462   5.990   7.581  1.4821 -1.9060 -1.0765
  175SLPC   H3S19811   1.299   5.993   7.653  0.4654  0.6745 -0.3836
  175SLPC   C2419812   1.301   5.950   7.442  0.2539  0.7713 -0.5767
  175SLPC   H4R19813   1.260   6.053   7.447  1.5320  1.2530  0.4387
  175SLPC   H4S19814   1.216   5.878   7.440 -0.2937  1.3398  0.9894
  175SLPC   C2519815   1.389   5.935   7.321 -0.0097  0.2797  0.2308
  175SLPC   H5R19816   1.434   5.834   7.322 -0.8657 -0.1896 -1.9549
  175SLPC   H5S19817   1.475   6.004   7.318  0.9664 -0.9336 -0.7216
  175SLPC   C2619818   1.314   5.935   7.184  0.1101 -0.5289  0.7157
  175SLPC   H6R19819   1.268   6.035   7.171 -0.7305 -0.5664  2.9254
  175SLPC   H6S19820   1.239   5.855   7.167  0.9359 -0.8499 -1.8561
  175SLPC   C2719821   1.407   5.904   7.065  0.6712  0.3564 -0.2675
  175SLPC   H7R19822   1.427   5.795   7.065  0.2381  0.2613 -1.8543
  175SLPC   H7S19823   1.500   5.965   7.070  0.2078  1.0194  0.6048
  175SLPC   C2819824   1.334   5.952   6.937  0.4294 -0.6290 -0.0482
  175SLPC   H8R19825   1.302   6.057   6.957  0.5567 -0.1531 -2.1605
  175SLPC   H8S19826   1.243   5.899   6.904  0.3065 -0.0423 -0.6733
  175SLPC   C2919827   1.427   5.956   6.815  0.1898  0.1785 -0.1983
  175SLPC   H9R19828   1.502   5.876   6.821 -0.9309 -0.8720  0.3132
  175SLPC  C21019829   1.429   6.040   6.709 -0.2281  0.1781  0.0406
  175SLPC  H10R19830   1.513   6.035   6.639 -1.2989 -1.1263 -1.2078
  175SLPC  C21119831   1.340   6.156   6.691 -0.5621  0.2199 -0.2789
  175SLPC  H11R19832   1.395   6.252   6.691 -2.2585  1.2310  0.0435
  175SLPC  H11S19833   1.261   6.172   6.767  1.0112 -0.5630  1.6209
  175SLPC  C21219834   1.271   6.142   6.557  0.5477  0.2373  0.0958
  175SLPC  H12R19835   1.183   6.078   6.562  0.3847  0.4122 -0.4686
  175SLPC  C21319836   1.301   6.188   6.434 -0.8411  0.0018  0.0465
  175SLPC  H13R19837   1.230   6.168   6.353 -2.3718 -0.8781  1.5373
  175SLPC  C21419838   1.431   6.256   6.398  0.0857 -0.5634  0.2212
  175SLPC  H14R19839   1.496   6.268   6.487  0.7364  1.2648 -0.4595
  175SLPC  H14S19840   1.406   6.353   6.350 -1.5148 -0.5297  1.0507
  175SLPC  C21519841   1.512   6.178   6.290  0.7079  0.3344 -0.0696
  175SLPC  H15R19842   1.460   6.157   6.194 -1.1017 -1.9668  1.2907
  175SLPC  H15S19843   1.537   6.080   6.337 -0.9829  0.0028  0.2140
  175SLPC  C21619844   1.643   6.252   6.251 -0.1150  0.3373 -0.0498
  175SLPC  H16R19845   1.725   6.194   6.298  0.0335  1.4269  1.0929
  175SLPC  H16S19846   1.654   6.347   6.307  0.4836 -0.2207  0.8089
  175SLPC  C21719847   1.670   6.282   6.109  0.1988  0.2975 -0.8563
  175SLPC  H17R19848   1.598   6.364   6.088  0.7338  1.1340  0.4355
  175SLPC  H17S19849   1.641   6.193   6.049 -1.1407 -0.8396  1.3205
  175SLPC  C21819850   1.799   6.349   6.089  0.3084 -0.4995 -0.2407
  175SLPC  H18R19851   1.804   6.440   6.153  0.5441 -2.3753  2.6152
  175SLPC  H18S19852   1.818   6.383   5.985  2.0594  1.5328  0.6640
  175SLPC  H18T19853   1.888   6.287   6.115  1.9280  2.3329  1.5642
  175SLPC   C3319854   1.768   5.599   7.610  0.3636 -0.5652 -0.9969
  175SLPC   H3X19855   1.692   5.680   7.614  0.2276 -0.7286  1.6250
  175SLPC   H3Y19856   1.716   5.501   7.608 -0.2638 -0.3145  0.9764
  175SLPC   C3419857   1.850   5.617   7.483 -0.4446  0.6153 -0.6696
  175SLPC   H4X19858   1.941   5.554   7.483 -0.1849  0.9897 -0.8117
  175SLPC   H4Y19859   1.879   5.724   7.486 -2.3477  1.2098 -1.7422
  175SLPC   C3519860   1.758   5.609   7.356 -0.3030  0.1494 -0.0469
  175SLPC   H5X19861   1.654   5.647   7.367 -0.5724 -0.2298 -1.1348
  175SLPC   H5Y19862   1.755   5.500   7.337  0.2385 -0.7858  4.2458
  175SLPC   C3619863   1.816   5.691   7.238  0.5527 -0.5244 -0.0388
  175SLPC   H6X19864   1.920   5.663   7.212  0.7542  2.0078 -2.4624
  175SLPC   H6Y19865   1.813   5.800   7.257  0.8883 -0.2251 -1.5973
  175SLPC   C3719866   1.729   5.668   7.111  0.2098  0.5321 -0.7282
  175SLPC   H7X19867   1.628   5.705   7.140 -0.1847 -0.6086 -0.5819
  175SLPC   H7Y19868   1.722   5.559   7.093  2.6663  0.0510  0.8359
  175SLPC   C3819869   1.783   5.737   6.991 -0.6552  0.0573 -0.0491
  175SLPC   H8X19870   1.892   5.728   6.974 -0.5751 -0.5553  0.7342
  175SLPC   H8Y19871   1.765   5.846   7.002  1.0833  0.3752 -0.1183
  175SLPC   C3919872   1.716   5.693   6.859  0.1525 -0.4628  0.3016
  175SLPC   H9X19873   1.608   5.685   6.886 -0.5983  0.3713 -2.2314
  175SLPC   H9Y19874   1.749   5.594   6.822 -0.7717 -0.6504 -0.0407
  175SLPC  C31019875   1.735   5.797   6.748  0.6902  1.0322 -0.1903
  175SLPC  H10X19876   1.844   5.788   6.730  0.9497 -2.6837  2.0525
  175SLPC  H10Y19877   1.698   5.900   6.765  2.7912  1.7044  0.6549
  175SLPC  C31119878   1.676   5.744   6.623  0.5076 -0.1881  0.1031
  175SLPC  H11X19879   1.566   5.746   6.640  0.6795  1.2771  1.1953
  175SLPC  H11Y19880   1.710   5.641   6.596 -1.4140 -0.6706 -0.6024
  175SLPC  C31219881   1.690   5.837   6.503 -0.4525  0.6371  0.4271
  175SLPC  H12X19882   1.694   5.945   6.528  0.3732  0.4434  1.1829
  175SLPC  H12Y19883   1.602   5.816   6.439 -1.6736 -1.2654  2.5914
  175SLPC  C31319884   1.824   5.809   6.423 -0.4232 -0.0499 -0.0519
  175SLPC  H13X19885   1.839   5.699   6.415  0.3463  0.0841 -0.7300
  175SLPC  H13Y19886   1.902   5.859   6.485 -0.9772  0.6228  0.1111
  175SLPC  C31419887   1.825   5.854   6.276  0.4514 -0.6299 -0.2029
  175SLPC  H14X19888   1.818   5.964   6.287 -2.5769 -0.7904  0.4038
  175SLPC  H14Y19889   1.726   5.834   6.230 -0.1024  0.4373  0.4758
  175SLPC  C31519890   1.937   5.808   6.185 -0.1848 -0.3321 -0.4389
  175SLPC  H15X19891   1.938   5.699   6.161 -0.4330 -0.4309  0.0002
  175SLPC  H15Y19892   2.033   5.820   6.238 -0.1698 -0.1326 -0.5128
  175SLPC  C31619893   1.943   5.891   6.053  0.1211  0.6908  0.8582
  175SLPC  H16X19894   1.910   5.997   6.064 -3.1977  0.1711 -2.2993
  175SLPC  H16Y19895   1.866   5.853   5.982  0.2383  2.5629 -0.3648
  175SLPC  C31719896   2.077   5.882   5.979 -0.1054  0.1474 -0.5043
  175SLPC  H17X19897   2.093   5.773   5.964 -3.4408 -1.0740  3.0234
  175SLPC  H17Y19898   2.160   5.914   6.046 -1.0937  0.1510  0.7764
  175SLPC  C31819899   2.086   5.953   5.840  0.1604 -0.0146 -0.1144
  175SLPC  H18X19900   2.182   5.946   5.785  0.8784 -1.2566  1.2254
  175SLPC  H18Y19901   2.054   6.057   5.861 -0.4803 -0.4738  1.3067
  175SLPC  H18Z19902   2.013   5.913   5.766  0.2571  0.9966 -0.7851
  176SLPC     N19903   2.315   0.771   8.534  0.1000 -0.4142  0.3570
  176SLPC   C1319904   2.274   0.737   8.395 -0.2542  0.4642 -0.4850
  176SLPC  H13A19905   2.176   0.773   8.369 -0.3032 -0.0969 -1.1079
  176SLPC  H13B19906   2.347   0.762   8.319 -0.7344  2.7082 -0.2703
  176SLPC  H13C19907   2.263   0.629   8.392 -0.2027  0.2882  2.4711
  176SLPC   C1419908   2.450   0.712   8.572  0.0063 -0.5512 -0.3461
  176SLPC  H14A19909   2.521   0.750   8.500 -0.3162 -0.3153 -0.5480
  176SLPC  H14B19910   2.476   0.749   8.670 -1.3090  0.0463 -0.1890
  176SLPC  H14C19911   2.444   0.605   8.564 -0.1344 -0.5992  0.3556
  176SLPC   C1519912   2.216   0.702   8.625  0.2221 -0.2647 -0.0643
  176SLPC  H15A19913   2.117   0.743   8.609  1.1590  1.9677 -0.4857
  176SLPC  H15B19914   2.202   0.598   8.599  0.6934 -0.3871  0.1681
  176SLPC  H15C19915   2.234   0.719   8.730 -0.0125  3.7791 -0.5287
  176SLPC   C1219916   2.311   0.925   8.560 -0.5054  0.1033 -0.1584
  176SLPC  H12A19917   2.213   0.968   8.548 -0.0489  1.6890  1.4078
  176SLPC  H12B19918   2.373   0.980   8.491  0.3983  0.1223  0.6517
  176SLPC   C1119919   2.361   0.977   8.695  0.7643 -0.4675  0.0247
  176SLPC  H11A19920   2.292   0.942   8.775  0.1935  1.3545  0.3850
  176SLPC  H11B19921   2.340   1.086   8.687 -3.7139 -1.1153  0.2851
  176SLPC     P19922   2.614   1.026   8.626 -0.0440 -0.0726 -0.0876
  176SLPC   O1319923   2.694   1.120   8.710 -0.1521 -0.2330  0.0519
  176SLPC   O1419924   2.686   0.905   8.571 -0.1113 -0.2106  0.5145
  176SLPC   O1219925   2.500   0.962   8.720  0.1529 -0.4012  0.2177
  176SLPC   O1119926   2.531   1.099   8.515 -0.3304 -0.0404 -0.3640
  176SLPC    C119927   2.609   1.155   8.411 -0.2973  0.0189 -1.1898
  176SLPC    HA19928   2.694   1.218   8.445 -1.8654  1.3855  0.3992
  176SLPC    HB19929   2.646   1.072   8.347 -1.0535 -1.6125  0.3773
  176SLPC    C219930   2.522   1.237   8.317  0.2087 -0.2970 -0.2870
  176SLPC    HS19931   2.486   1.322   8.380 -0.1918 -2.8374  3.2689
  176SLPC   O2119932   2.410   1.148   8.294  0.3293  0.2836  0.0770
  176SLPC   C2119933   2.315   1.201   8.226 -0.4620 -0.4635 -0.2545
  176SLPC   O2219934   2.307   1.317   8.195  0.0451 -0.0502 -0.1834
  176SLPC   C2219935   2.209   1.093   8.184 -0.5965  0.2141 -0.2900
  176SLPC   H2R19936   2.230   1.012   8.257 -1.2736  0.6790  0.4386
  176SLPC   H2S19937   2.104   1.128   8.188 -0.8717 -0.6380  0.1772
  176SLPC    C319938   2.594   1.273   8.181 -0.3993 -0.0197 -0.5571
  176SLPC    HX19939   2.682   1.338   8.203 -1.0819 -0.0255  2.7058
  176SLPC    HY19940   2.524   1.345   8.135  1.0672  1.5542 -0.4034
  176SLPC   O3119941   2.621   1.159   8.098 -0.2436  0.7094  0.3726
  176SLPC   C3119942   2.740   1.114   8.086  0.4771 -0.2743  0.5246
  176SLPC   O3219943   2.843   1.160   8.133  0.4086 -0.0640 -0.3936
  176SLPC   C3219944   2.738   0.990   7.998 -0.0325  0.4038  0.8745
  176SLPC   H2X19945   2.649   0.992   7.931 -0.1961  0.1054  1.0762
  176SLPC   H2Y19946   2.735   0.899   8.061 -2.3154 -0.9609 -1.0132
  176SLPC   C2319947   2.238   1.021   8.051 -0.0102  0.1785  0.1707
  176SLPC   H3R19948   2.182   0.925   8.051 -1.6352  1.1069 -0.3654
  176SLPC   H3S19949   2.347   1.000   8.037  0.0580  0.2236  0.5921
  176SLPC   C2419950   2.191   1.097   7.925  0.1423  0.0407  0.1839
  176SLPC   H4R19951   2.082   1.100   7.944  0.1068 -0.6677  0.1299
  176SLPC   H4S19952   2.209   1.025   7.842  2.6320  0.8676 -0.0989
  176SLPC   C2519953   2.239   1.238   7.888  0.5837  0.9570 -0.3931
  176SLPC   H5R19954   2.350   1.243   7.891  0.7014 -0.9308 -0.1547
  176SLPC   H5S19955   2.191   1.314   7.954  0.2676 -0.1745  0.7304
  176SLPC   C2619956   2.204   1.279   7.740  0.0820 -0.1891 -0.5832
  176SLPC   H6R19957   2.237   1.385   7.727  1.2488 -0.4595  0.0993
  176SLPC   H6S19958   2.093   1.280   7.732 -0.0496  2.1978  0.4750
  176SLPC   C2719959   2.287   1.208   7.632  0.1777 -0.9089 -0.1094
  176SLPC   H7R19960   2.271   1.099   7.648  0.8298 -0.8836  0.7707
  176SLPC   H7S19961   2.394   1.236   7.623  0.4599 -0.7056  2.9203
  176SLPC   C2819962   2.218   1.230   7.500 -0.1625 -0.3382 -0.4014
  176SLPC   H8R19963   2.232   1.336   7.468  0.8155 -0.3127  0.0785
  176SLPC   H8S19964   2.109   1.215   7.516 -0.4124  1.3734 -0.2231
  176SLPC   C2919965   2.273   1.137   7.399 -0.6031 -0.9967  0.0525
  176SLPC   H9R19966   2.347   1.185   7.333  0.6600 -0.7249  1.6052
  176SLPC  C21019967   2.239   1.009   7.380 -0.7218 -0.0550 -0.8813
  176SLPC  H10R19968   2.301   0.949   7.312 -0.5520 -3.1604  1.7419
  176SLPC  C21119969   2.131   0.940   7.461 -0.3867  0.5661 -0.0675
  176SLPC  H11R19970   2.103   0.997   7.552  0.7795  1.7451 -0.4110
  176SLPC  H11S19971   2.178   0.848   7.502  0.6489  0.8225 -0.6397
  176SLPC  C21219972   2.010   0.906   7.376  0.2729 -0.4438  0.4720
  176SLPC  H12R19973   1.999   0.969   7.286  0.2269  0.9485  1.4078
  176SLPC  C21319974   1.927   0.809   7.404 -0.2292  0.0017 -0.6786
  176SLPC  H13R19975   1.837   0.792   7.344 -1.7524  0.5527  1.3175
  176SLPC  C21419976   1.934   0.715   7.520 -0.1199  0.3666 -0.1301
  176SLPC  H14R19977   2.026   0.731   7.580 -0.7891  2.4231  0.4125
  176SLPC  H14S19978   1.931   0.609   7.486  0.1440 -1.5018  4.7885
  176SLPC  C21519979   1.810   0.742   7.606 -0.6423 -0.0374 -0.2897
  176SLPC  H15R19980   1.721   0.701   7.554 -0.4802 -0.4415 -0.2459
  176SLPC  H15S19981   1.798   0.851   7.626  2.4210  0.1286  1.1496
  176SLPC  C21619982   1.819   0.671   7.743 -0.0169 -0.3180 -0.2372
  176SLPC  H16R19983   1.900   0.596   7.751 -0.5998 -0.7639  3.9318
  176SLPC  H16S19984   1.722   0.624   7.770 -0.1695  0.9418  1.6559
  176SLPC  C21719985   1.850   0.758   7.858 -0.2845 -0.0895 -0.4448
  176SLPC  H17R19986   1.862   0.696   7.950 -1.5172  0.4149  0.0883
  176SLPC  H17S19987   1.763   0.823   7.883  0.2293  0.9035 -1.1665
  176SLPC  C21819988   1.966   0.851   7.842  0.2619  0.1476 -0.3031
  176SLPC  H18R19989   1.958   0.942   7.778  0.8353  1.8804  1.9441
  176SLPC  H18S19990   2.054   0.788   7.815  0.2237 -0.3610  0.7095
  176SLPC  H18T19991   1.989   0.892   7.943  1.8701  1.4169 -1.1165
  176SLPC   C3319992   2.867   0.985   7.910  0.2754 -0.5308  0.1115
  176SLPC   H3X19993   2.865   0.899   7.839 -1.6241 -1.0750  0.7529
  176SLPC   H3Y19994   2.945   0.962   7.986 -0.2718  0.1798  0.9066
  176SLPC   C3419995   2.882   1.117   7.827 -0.6476  0.4774  0.6663
  176SLPC   H4X19996   2.972   1.095   7.766 -1.2104 -0.0825  0.0190
  176SLPC   H4Y19997   2.906   1.201   7.896 -1.1751  0.9729  0.2575
  176SLPC   C3519998   2.765   1.136   7.735  0.3278  0.3226 -1.2397
  176SLPC   H5X19999   2.670   1.164   7.786  1.1834  1.0429  0.0251
  176SLPC   H5Y20000   2.757   1.047   7.669 -0.8732 -0.6516  0.1429
  176SLPC   C3620001   2.789   1.251   7.633  0.3162 -0.6735 -0.3258
  176SLPC   H6X20002   2.888   1.235   7.587 -0.1506 -1.3211 -1.1304
  176SLPC   H6Y20003   2.798   1.348   7.687 -1.1890  0.5881 -2.2243
  176SLPC   C3720004   2.687   1.254   7.529  0.6325 -0.5584 -0.0904
  176SLPC   H7X20005   2.637   1.350   7.504 -0.6818 -0.7922  1.5099
  176SLPC   H7Y20006   2.599   1.192   7.554  1.3364 -0.8840  1.7130
  176SLPC   C3820007   2.739   1.214   7.391  0.1304  0.4813 -0.0774
  176SLPC   H8X20008   2.776   1.109   7.398 -2.9406 -0.6091  2.0989
  176SLPC   H8Y20009   2.819   1.289   7.373 -0.7622  1.3875 -0.3598
  176SLPC   C3920010   2.640   1.228   7.280  0.5800 -0.1852  0.9197
  176SLPC   H9X20011   2.599   1.332   7.286  2.2556  0.5561  0.1317
  176SLPC   H9Y20012   2.567   1.150   7.310  0.1838 -0.3585 -0.4486
  176SLPC  C31020013   2.690   1.202   7.142 -0.0678  0.1314  0.1242
  176SLPC  H10X20014   2.724   1.097   7.154 -1.0419 -0.0802  1.2619
  176SLPC  H10Y20015   2.778   1.268   7.128  1.0473 -1.1093  0.9642
  176SLPC  C31120016   2.582   1.215   7.036  0.2170 -0.5853  0.4143
  176SLPC  H11X20017   2.536   1.316   7.040 -1.8059 -1.4703  0.4340
  176SLPC  H11Y20018   2.497   1.150   7.065 -0.4573 -0.1137 -0.4563
  176SLPC  C31220019   2.640   1.206   6.898 -0.4706 -0.2515  0.0366
  176SLPC  H12X20020   2.655   1.096   6.890 -1.7063 -0.3065 -2.0858
  176SLPC  H12Y20021   2.738   1.258   6.895  0.0936 -0.7277  4.1760
  176SLPC  C31320022   2.537   1.253   6.791 -0.8503  0.3296 -0.0608
  176SLPC  H13X20023   2.512   1.361   6.789 -0.8402  0.3496 -2.7974
  176SLPC  H13Y20024   2.442   1.196   6.798  1.2326 -3.3330  0.7632
  176SLPC  C31420025   2.590   1.206   6.655 -0.1259  0.1057  0.1702
  176SLPC  H14X20026   2.567   1.101   6.625  0.9491 -0.1579  0.2102
  176SLPC  H14Y20027   2.701   1.196   6.653  0.0911  1.9988 -1.5832
  176SLPC  C31520028   2.565   1.290   6.528 -0.5525  0.2564 -0.3414
  176SLPC  H15X20029   2.590   1.231   6.437  1.0806  0.6518 -0.1760
  176SLPC  H15Y20030   2.639   1.373   6.533  0.4816 -0.5913 -1.0636
  176SLPC  C31620031   2.417   1.345   6.524 -0.0760  0.8334 -0.3393
  176SLPC  H16X20032   2.408   1.411   6.436  1.4056  0.2814 -0.9507
  176SLPC  H16Y20033   2.398   1.412   6.610 -0.2864 -0.8996  1.0415
  176SLPC  C31720034   2.308   1.235   6.532 -0.3905 -0.0975 -0.1460
  176SLPC  H17X20035   2.215   1.280   6.574  0.0463 -0.5638  1.3784
  176SLPC  H17Y20036   2.343   1.154   6.599  0.5567  0.4780  0.0613
  176SLPC  C31820037   2.264   1.155   6.405  0.3642  0.9869 -0.1676
  176SLPC  H18X20038   2.209   1.217   6.331  1.3395  0.7434 -1.1173
  176SLPC  H18Y20039   2.216   1.060   6.438  2.8123 -0.0775  0.5169
  176SLPC  H18Z20040   2.354   1.125   6.347 -1.1508 -2.5070 -1.0027
  177SLPC     N20041   4.418   6.792   8.370 -0.4886 -0.4305  0.1887
  177SLPC   C1320042   4.277   6.798   8.431 -0.6119 -0.9041  0.4216
  177SLPC  H13A20043   4.270   6.804   8.539  0.7537 -1.4175  0.5530
  177SLPC  H13B20044   4.232   6.887   8.391  2.0775 -0.7356 -2.6521
  177SLPC  H13C20045   4.213   6.719   8.394 -0.7871  1.1983 -4.4718
  177SLPC   C1420046   4.479   6.661   8.410  0.2102  0.3592 -0.2797
  177SLPC  H14A20047   4.437   6.579   8.353  0.0894  0.3957 -0.2440
  177SLPC  H14B20048   4.586   6.653   8.404  0.1310 -6.0086  0.3237
  177SLPC  H14C20049   4.467   6.653   8.517  1.7470  0.6556 -0.0653
  177SLPC   C1520050   4.499   6.907   8.425 -0.3310 -0.3781  0.8337
  177SLPC  H15A20051   4.435   6.993   8.409 -0.9509 -1.1416 -1.0571
  177SLPC  H15B20052   4.521   6.904   8.531  1.4546  0.7231  0.5383
  177SLPC  H15C20053   4.592   6.919   8.372  0.7642 -0.2296  2.6949
  177SLPC   C1220054   4.393   6.798   8.216  0.8409 -0.2922  0.2549
  177SLPC  H12A20055   4.338   6.886   8.187  1.0050  0.1875  1.3498
  177SLPC  H12B20056   4.329   6.711   8.206 -0.5755  0.4822  1.9667
  177SLPC   C1120057   4.510   6.792   8.112  0.2858 -0.0493 -0.7359
  177SLPC  H11A20058   4.482   6.774   8.006  3.4611  0.3688 -1.7394
  177SLPC  H11B20059   4.569   6.701   8.139  1.9858  0.8659 -1.2271
  177SLPC     P20060   4.571   7.047   8.068  0.3659  0.1767  0.1868
  177SLPC   O1320061   4.422   7.070   8.070  0.4475  0.0920 -0.6084
  177SLPC   O1420062   4.650   7.134   8.156  0.1332  0.1342 -0.3264
  177SLPC   O1220063   4.599   6.900   8.126  0.2447  0.2229 -0.4726
  177SLPC   O1120064   4.627   7.047   7.918 -0.0574 -0.4213 -0.0500
  177SLPC    C120065   4.727   6.951   7.886  0.1140 -0.0279  0.0893
  177SLPC    HA20066   4.806   6.948   7.965  0.3938 -0.6408 -0.2064
  177SLPC    HB20067   4.678   6.855   7.859 -1.5332  0.3181  1.6948
  177SLPC    C220068   4.808   6.993   7.760 -0.5249 -0.5112  0.4264
  177SLPC    HS20069   4.838   7.099   7.772 -0.8333 -0.6622  3.2057
  177SLPC   O2120070   4.733   6.968   7.637 -0.4108 -0.1338 -0.0020
  177SLPC   C2120071   4.732   7.064   7.548 -0.6247  0.2035  0.4159
  177SLPC   O2220072   4.786   7.171   7.552  0.3762 -0.3677  0.9539
  177SLPC   C2220073   4.668   7.004   7.426 -0.2344 -0.4442  1.0622
  177SLPC   H2R20074   4.704   6.899   7.415  0.0120 -0.1612 -1.0475
  177SLPC   H2S20075   4.561   7.000   7.457 -0.1936  0.9953  1.4741
  177SLPC    C320076   4.940   6.916   7.758 -0.9006  0.0709 -0.9120
  177SLPC    HX20077   4.911   6.810   7.740  1.4893 -0.7390 -0.4156
  177SLPC    HY20078   4.999   6.929   7.851  2.5024  1.3126 -3.0673
  177SLPC   O3120079   5.022   6.948   7.643 -0.6857 -0.9614  0.5072
  177SLPC   C3120080   5.126   7.018   7.655 -0.7930 -0.2744  0.5423
  177SLPC   O3220081   5.177   7.054   7.761 -0.3789  0.4130  0.9828
  177SLPC   C3220082   5.187   7.052   7.519 -0.3272  0.1544 -0.4600
  177SLPC   H2X20083   5.228   6.958   7.476  0.2019 -0.1569  0.6939
  177SLPC   H2Y20084   5.274   7.119   7.539 -0.7887  1.2548 -1.9137
  177SLPC   C2320085   4.684   7.076   7.289  0.3970 -0.3869  0.9295
  177SLPC   H3R20086   4.790   7.091   7.258 -0.2826  1.6431 -0.5839
  177SLPC   H3S20087   4.655   7.183   7.292 -0.0055 -0.5076  2.5127
  177SLPC   C2420088   4.623   6.999   7.170 -0.7219 -0.6670  0.3598
  177SLPC   H4R20089   4.517   6.973   7.194 -0.6297  0.9086  2.9509
  177SLPC   H4S20090   4.676   6.903   7.154 -0.4162 -0.4067 -0.1893
  177SLPC   C2520091   4.627   7.085   7.044  0.1744  0.1723  0.8619
  177SLPC   H5R20092   4.732   7.093   7.011 -0.6114  2.1968 -1.5255
  177SLPC   H5S20093   4.584   7.186   7.065 -0.6762  0.2552 -1.0769
  177SLPC   C2620094   4.548   7.029   6.921 -0.2466 -0.4733 -0.7905
  177SLPC   H6R20095   4.444   7.022   6.959  0.9614  0.1844  3.1251
  177SLPC   H6S20096   4.579   6.923   6.905 -2.0307 -0.8356 -2.2154
  177SLPC   C2720097   4.557   7.116   6.800 -0.0965  0.3102  0.4277
  177SLPC   H7R20098   4.664   7.134   6.776  0.4897 -1.7779  1.2022
  177SLPC   H7S20099   4.515   7.217   6.819  0.1847  1.0751 -2.4511
  177SLPC   C2820100   4.468   7.052   6.691 -0.1907 -0.3215  0.5535
  177SLPC   H8R20101   4.360   7.050   6.716 -0.3604 -1.3853 -0.2100
  177SLPC   H8S20102   4.500   6.951   6.659  0.4075 -0.6563  2.1092
  177SLPC   C2920103   4.487   7.136   6.559  0.3538  0.0619 -0.2145
  177SLPC   H9R20104   4.594   7.163   6.556  0.0741  1.1571 -1.6294
  177SLPC  C21020105   4.393   7.193   6.483 -0.6563 -0.3136  0.3855
  177SLPC  H10R20106   4.427   7.235   6.388 -1.8391 -1.1259 -0.4252
  177SLPC  C21120107   4.246   7.169   6.489  0.1922 -0.6490  0.1220
  177SLPC  H11R20108   4.189   7.229   6.562  0.4206 -2.4395  1.8659
  177SLPC  H11S20109   4.232   7.069   6.536 -1.4892 -0.1911  0.6541
  177SLPC  C21220110   4.175   7.143   6.361 -0.6600 -0.1815 -0.2306
  177SLPC  H12R20111   4.154   7.036   6.343  0.6705 -0.2655 -1.4022
  177SLPC  C21320112   4.114   7.235   6.289  0.0541  0.1359  0.3235
  177SLPC  H13R20113   4.054   7.194   6.206  0.9060 -0.6519  0.0768
  177SLPC  C21420114   4.110   7.389   6.306 -0.4020  0.1610  0.5730
  177SLPC  H14R20115   4.170   7.427   6.220  0.7549  0.2994  1.4198
  177SLPC  H14S20116   4.139   7.428   6.406 -1.2402  0.4466  0.7112
  177SLPC  C21520117   3.974   7.450   6.266  0.2257  0.4279  0.1326
  177SLPC  H15R20118   3.898   7.407   6.334  0.5392 -0.9651 -0.3724
  177SLPC  H15S20119   3.939   7.431   6.162  1.5448 -1.5341 -0.0024
  177SLPC  C21620120   3.971   7.599   6.284 -0.4539  0.0099  0.5567
  177SLPC  H16R20121   4.051   7.647   6.224  0.0267  1.8083  2.5157
  177SLPC  H16S20122   3.991   7.617   6.391  0.0307 -1.0869  0.6683
  177SLPC  C21720123   3.837   7.672   6.242 -0.0609 -0.3966  0.8112
  177SLPC  H17R20124   3.752   7.639   6.305  0.4541 -1.5959  0.9062
  177SLPC  H17S20125   3.817   7.654   6.135  1.6023  0.7343  0.2607
  177SLPC  C21820126   3.841   7.822   6.250 -0.0381 -1.0355  0.0707
  177SLPC  H18R20127   3.744   7.869   6.223  1.6833  2.6351 -0.2629
  177SLPC  H18S20128   3.920   7.865   6.184 -0.3809  0.7910  0.7948
  177SLPC  H18T20129   3.875   7.851   6.352  0.4906 -1.5644  0.0562
  177SLPC   C3320130   5.090   7.126   7.429 -0.1722  0.6316 -0.6540
  177SLPC   H3X20131   5.058   7.220   7.478 -2.1730 -1.0679  1.4754
  177SLPC   H3Y20132   4.995   7.069   7.419 -0.6567  1.1700  0.7708
  177SLPC   C3420133   5.141   7.151   7.284 -0.7812  1.0057 -0.0856
  177SLPC   H4X20134   5.180   7.051   7.253 -1.1616  0.9671 -0.4411
  177SLPC   H4Y20135   5.231   7.217   7.290 -1.6516  2.2582 -0.4129
  177SLPC   C3520136   5.047   7.202   7.176 -0.9033  1.0358  0.0915
  177SLPC   H5X20137   4.985   7.276   7.232 -0.2686 -0.4543  2.9136
  177SLPC   H5Y20138   4.986   7.120   7.132  2.3429 -0.2676 -2.4046
  177SLPC   C3620139   5.124   7.259   7.063 -0.6305  0.4816  0.5666
  177SLPC   H6X20140   5.191   7.340   7.102  0.4876  0.2816 -0.8331
  177SLPC   H6Y20141   5.052   7.318   7.003 -2.8979  0.0276  2.6898
  177SLPC   C3720142   5.212   7.161   6.983  0.2305  0.2761  0.1200
  177SLPC   H7X20143   5.185   7.058   7.015  1.8259 -0.2612 -0.1992
  177SLPC   H7Y20144   5.319   7.162   7.014  0.3933 -0.8890 -0.3656
  177SLPC   C3820145   5.196   7.198   6.835  0.4086 -0.0186 -0.0086
  177SLPC   H8X20146   5.234   7.300   6.810 -0.7275  0.7927  1.4428
  177SLPC   H8Y20147   5.089   7.188   6.810  0.2794  0.3857  0.3696
  177SLPC   C3920148   5.254   7.100   6.743  0.2747 -0.3508  0.5993
  177SLPC   H9X20149   5.219   6.998   6.768 -0.5419 -0.0386  0.7367
  177SLPC   H9Y20150   5.365   7.105   6.747  0.3310  1.2899 -1.4217
  177SLPC  C31020151   5.218   7.136   6.597 -0.6540  0.1250  0.1895
  177SLPC  H10X20152   5.249   7.242   6.585 -1.8483  0.5375  0.5054
  177SLPC  H10Y20153   5.110   7.130   6.571 -0.6714 -1.2770  0.5230
  177SLPC  C31120154   5.288   7.037   6.502  0.3018  0.1865 -0.5510
  177SLPC  H11X20155   5.243   6.937   6.517 -0.3413  0.4390 -0.7506
  177SLPC  H11Y20156   5.392   7.028   6.540  0.5635 -2.3731 -1.6824
  177SLPC  C31220157   5.273   7.089   6.361 -0.1654  0.6073  0.8510
  177SLPC  H12X20158   5.282   7.200   6.368 -1.0150  0.6958  0.6780
  177SLPC  H12Y20159   5.165   7.078   6.335 -0.1953  0.6137  0.9712
  177SLPC  C31320160   5.366   7.029   6.262 -1.0596 -0.4191 -0.4430
  177SLPC  H13X20161   5.467   7.031   6.308 -1.0040  1.6713 -0.5710
  177SLPC  H13Y20162   5.366   7.090   6.170 -0.2194 -2.8906 -2.1964
  177SLPC  C31420163   5.340   6.878   6.245  0.2905 -0.3151 -0.3194
  177SLPC  H14X20164   5.240   6.865   6.199 -1.0147  0.3794  2.1423
  177SLPC  H14Y20165   5.338   6.834   6.347 -0.5829  0.3225 -0.0472
  177SLPC  C31520166   5.439   6.809   6.141  0.0946  0.0429 -0.4420
  177SLPC  H15X20167   5.544   6.822   6.175  0.2350 -3.0033  0.5486
  177SLPC  H15Y20168   5.413   6.829   6.035 -0.9796 -0.9215 -0.3785
  177SLPC  C31620169   5.399   6.660   6.144 -0.1765  0.0493  0.0231
  177SLPC  H16X20170   5.297   6.641   6.104  0.5163 -2.0053 -0.8717
  177SLPC  H16Y20171   5.395   6.631   6.251 -0.8907 -2.1492 -0.5523
  177SLPC  C31720172   5.493   6.581   6.047 -0.5356  0.2147 -0.3255
  177SLPC  H17X20173   5.598   6.573   6.083 -1.1096 -0.2727  1.3251
  177SLPC  H17Y20174   5.497   6.624   5.945  0.6118 -1.0652 -0.8589
  177SLPC  C31820175   5.453   6.440   6.024 -0.6727  0.5257 -0.5950
  177SLPC  H18X20176   5.519   6.396   5.946 -0.4762  0.5700 -0.4564
  177SLPC  H18Y20177   5.350   6.432   5.983 -0.8831  0.0356  0.0073
  177SLPC  H18Z20178   5.464   6.386   6.121 -1.2413  1.3644 -0.0470
  178SLPC     N20179   1.118   0.231   0.018 -0.1865  0.0769  0.1203
  178SLPC   C1320180   1.257   0.231  -0.030 -0.5012 -0.2465 -0.2569
  178SLPC  H13A20181   1.291   0.130  -0.010 -0.9932 -0.3678 -0.0292
  178SLPC  H13B20182   1.285   0.242  -0.134 -1.7182  1.5478 -0.4287
  178SLPC  H13C20183   1.309   0.306   0.026 -0.4461  0.2814 -1.0021
  178SLPC   C1420184   1.124   0.212   0.164  0.2798  0.6629  0.6176
  178SLPC  H14A20185   1.160   0.113   0.188 -0.9098 -0.2773 -1.2115
  178SLPC  H14B20186   1.196   0.280   0.207  1.4608  0.2853 -0.7252
  178SLPC  H14C20187   1.028   0.231   0.212 -0.6977 -1.7250 -0.2483
  178SLPC   C1520188   1.041   0.128  -0.050 -0.3609  0.6915  0.4492
  178SLPC  H15A20189   1.085   0.031  -0.032 -1.4593 -0.2105 -1.4117
  178SLPC  H15B20190   0.935   0.131  -0.028 -0.4994 -0.5875  0.0510
  178SLPC  H15C20191   1.062   0.133  -0.156  0.5082 -1.4610  0.4776
  178SLPC   C1220192   1.052   0.365  -0.016 -0.3652  0.6693 -0.5113
  178SLPC  H12A20193   1.107   0.443   0.035 -0.8478  0.1472  0.8513
  178SLPC  H12B20194   0.956   0.367   0.033 -1.4840  2.1528 -2.6446
  178SLPC   C1120195   1.037   0.401  -0.165 -0.2873  0.2300  0.2026
  178SLPC  H11A20196   1.134   0.386  -0.217 -0.0879  0.4265  0.5185
  178SLPC  H11B20197   1.012   0.509  -0.171 -1.8721 -0.0564  0.9992
  178SLPC     P20198   0.792   0.337  -0.204  0.0809  0.1349  0.4047
  178SLPC   O1320199   0.725   0.206  -0.184 -0.0209 -0.6069 -0.2118
  178SLPC   O1420200   0.772   0.445  -0.107  0.9749  0.6667 -0.2458
  178SLPC   O1220201   0.944   0.316  -0.239  0.2828 -0.2955 -0.0190
  178SLPC   O1120202   0.729   0.386  -0.344 -0.8854  0.2431  0.3908
  178SLPC    C120203   0.763   0.521  -0.386  0.0245 -0.1570 -0.1195
  178SLPC    HA20204   0.725   0.590  -0.307  0.2093 -2.8837  2.5656
  178SLPC    HB20205   0.871   0.539  -0.404 -0.0740  0.8868  0.2793
  178SLPC    C220206   0.681   0.560  -0.514  0.2423  0.6485 -0.5407
  178SLPC    HS20207   0.577   0.566  -0.476  0.9138  3.3537  1.1621
  178SLPC   O2120208   0.709   0.460  -0.604  0.3342 -0.3069 -0.2253
  178SLPC   C2120209   0.616   0.455  -0.698  0.3615  0.2461  0.0545
  178SLPC   O2220210   0.504   0.503  -0.684  0.4472 -0.1775  0.3775
  178SLPC   C2220211   0.658   0.383  -0.821 -0.2798  0.8421 -0.1244
  178SLPC   H2R20212   0.745   0.317  -0.799 -0.8709  0.0474 -0.1181
  178SLPC   H2S20213   0.567   0.322  -0.841 -0.3959  0.7855  0.5303
  178SLPC    C320214   0.738   0.696  -0.564  0.1248  0.5015  0.2206
  178SLPC    HX20215   0.848   0.680  -0.572  0.0132  0.2855 -1.0862
  178SLPC    HY20216   0.727   0.782  -0.495 -2.9055 -0.1427  0.6556
  178SLPC   O3120217   0.687   0.734  -0.694 -0.2852  0.4417  0.4004
  178SLPC   C3120218   0.749   0.838  -0.748 -0.3518 -0.4814 -0.3868
  178SLPC   O3220219   0.827   0.911  -0.685  0.6976  0.3427 -0.1394
  178SLPC   C3220220   0.708   0.867  -0.896 -0.4427  0.0949  0.1047
  178SLPC   H2X20221   0.607   0.912  -0.911  0.6725  2.4500 -0.8532
  178SLPC   H2Y20222   0.707   0.768  -0.947 -2.0780 -0.4592  1.1353
  178SLPC   C2320223   0.710   0.471  -0.940  0.7362 -0.3738 -0.0807
  178SLPC   H3R20224   0.794   0.537  -0.909 -0.5266  1.1552  0.2366
  178SLPC   H3S20225   0.628   0.543  -0.963  1.4435  0.1223 -1.1518
  178SLPC   C2420226   0.742   0.378  -1.051 -0.1128  0.5965  0.4222
  178SLPC   H4R20227   0.653   0.316  -1.071 -1.2264  1.4620  2.4027
  178SLPC   H4S20228   0.827   0.315  -1.017 -1.1471 -1.2905 -0.3862
  178SLPC   C2520229   0.767   0.459  -1.187  0.9965 -0.3555  0.1237
  178SLPC   H5R20230   0.843   0.540  -1.179 -0.1398  1.2093 -3.0006
  178SLPC   H5S20231   0.677   0.517  -1.216  1.1001  0.7887  1.9808
  178SLPC   C2620232   0.794   0.371  -1.302 -0.1255 -1.0079  0.4047
  178SLPC   H6R20233   0.711   0.299  -1.318 -1.2977 -0.0817  2.0754
  178SLPC   H6S20234   0.884   0.317  -1.266  0.3607  0.1516  0.9796
  178SLPC   C2720235   0.792   0.454  -1.427 -0.2822 -0.0063  0.2431
  178SLPC   H7R20236   0.874   0.529  -1.427 -0.4389  0.1670  0.0032
  178SLPC   H7S20237   0.703   0.519  -1.438 -0.1388  0.1359 -0.1030
  178SLPC   C2820238   0.808   0.368  -1.559 -0.0773 -0.6176  0.1154
  178SLPC   H8R20239   0.769   0.426  -1.646  3.4898  2.6005  0.3917
  178SLPC   H8S20240   0.748   0.278  -1.532  0.9769 -1.0674  1.0255
  178SLPC   C2920241   0.955   0.325  -1.583  0.4009 -0.3665 -0.3990
  178SLPC   H9R20242   1.016   0.309  -1.493  0.1462  0.3295 -0.0952
  178SLPC  C21020243   1.017   0.328  -1.700  0.7664 -0.1282  0.3014
  178SLPC  H10R20244   1.119   0.289  -1.705  1.0032  0.4454  0.5858
  178SLPC  C21120245   0.954   0.392  -1.834  0.0115  0.3786  0.1144
  178SLPC  H11R20246   1.032   0.445  -1.893 -2.0228  0.2266 -2.8975
  178SLPC  H11S20247   0.875   0.469  -1.820 -0.6944 -0.0513 -1.3504
  178SLPC  C21220248   0.889   0.303  -1.942 -0.3686 -0.0631 -0.4530
  178SLPC  H12R20249   0.858   0.206  -1.900  1.5936  0.1998  1.8585
  178SLPC  C21320250   0.869   0.338  -2.069 -0.1896 -0.3957 -0.2143
  178SLPC  H13R20251   0.821   0.264  -2.136 -1.4331  0.2891 -0.0929
  178SLPC  C21420252   0.894   0.469  -2.135 -0.4977 -0.0318 -0.9210
  178SLPC  H14R20253   0.999   0.457  -2.171  1.2378  1.8921  2.9647
  178SLPC  H14S20254   0.895   0.556  -2.066  0.9205 -2.1509  1.9222
  178SLPC  C21520255   0.808   0.491  -2.258  0.3995  0.2611  0.3306
  178SLPC  H15R20256   0.783   0.598  -2.277  1.1386  0.3878  0.0299
  178SLPC  H15S20257   0.712   0.435  -2.255  1.2877 -1.3055  0.5074
  178SLPC  C21620258   0.878   0.442  -2.385  0.3173  0.1278  0.8687
  178SLPC  H16R20259   0.917   0.340  -2.369  1.0279  0.5790  2.2114
  178SLPC  H16S20260   0.970   0.503  -2.397  0.0644  0.4367  0.4813
  178SLPC  C21720261   0.796   0.457  -2.510 -0.2820 -0.0796  0.4435
  178SLPC  H17R20262   0.765   0.562  -2.529  0.6290  0.1308  0.0501
  178SLPC  H17S20263   0.700   0.401  -2.498  0.4203 -1.1026  1.5018
  178SLPC  C21820264   0.858   0.409  -2.644 -0.0236  0.2869  0.8427
  178SLPC  H18R20265   0.950   0.460  -2.678 -0.0737 -1.7814 -2.9166
  178SLPC  H18S20266   0.791   0.412  -2.733  1.7671  0.1770 -0.5499
  178SLPC  H18T20267   0.878   0.303  -2.620 -0.9374 -0.5557 -1.7449
  178SLPC   C3320268   0.817   0.947  -0.967 -0.2953 -0.0075  0.7847
  178SLPC   H3X20269   0.910   0.949  -0.907  0.2536 -0.4835 -0.0424
  178SLPC   H3Y20270   0.789   1.051  -0.993  1.0121  0.1243 -0.1719
  178SLPC   C3420271   0.865   0.869  -1.093 -0.4611 -0.4012  0.4421
  178SLPC   H4X20272   0.918   0.776  -1.062 -0.0408 -0.3230 -0.0426
  178SLPC   H4Y20273   0.939   0.945  -1.126  2.6325 -3.2770  0.2319
  178SLPC   C3520274   0.756   0.840  -1.194  0.2827  0.1405  0.1540
  178SLPC   H5X20275   0.678   0.919  -1.186 -0.4148 -0.0778 -3.0329
  178SLPC   H5Y20276   0.707   0.742  -1.176  0.4505 -0.4616 -2.3066
  178SLPC   C3620277   0.815   0.839  -1.334 -0.0314  0.1206 -0.5467
  178SLPC   H6X20278   0.880   0.750  -1.345  1.6846  0.8540  2.4093
  178SLPC   H6Y20279   0.877   0.931  -1.341 -0.5033  0.5329  0.5019
  178SLPC   C3720280   0.715   0.831  -1.445 -0.0584  0.5585 -0.0775
  178SLPC   H7X20281   0.667   0.929  -1.467  2.7979  1.8832 -0.7938
  178SLPC   H7Y20282   0.635   0.761  -1.414  0.2913  1.0893  2.2133
  178SLPC   C3820283   0.763   0.784  -1.582  0.0539  0.0946 -0.3241
  178SLPC   H8X20284   0.811   0.684  -1.586 -1.8673 -0.8886 -0.0335
  178SLPC   H8Y20285   0.838   0.860  -1.614  0.9206 -0.3508  0.5832
  178SLPC   C3920286   0.662   0.781  -1.690 -0.4403 -0.5728 -0.0507
  178SLPC   H9X20287   0.594   0.869  -1.686  0.6338  0.2322  1.4962
  178SLPC   H9Y20288   0.595   0.693  -1.684  0.2564 -1.1425 -0.4190
  178SLPC  C31020289   0.726   0.784  -1.833  0.4548  0.3157  1.2578
  178SLPC  H10X20290   0.783   0.689  -1.842  1.0146  0.7926 -0.9043
  178SLPC  H10Y20291   0.789   0.875  -1.835  0.3999  0.3568 -0.4671
  178SLPC  C31120292   0.621   0.805  -1.945 -0.2377 -0.4533 -0.6364
  178SLPC  H11X20293   0.568   0.898  -1.917 -1.9604 -1.9259  1.2451
  178SLPC  H11Y20294   0.545   0.724  -1.949  2.0070 -2.6851 -1.1491
  178SLPC  C31220295   0.667   0.819  -2.095  0.1236  0.8634 -0.5553
  178SLPC  H12X20296   0.723   0.729  -2.128 -0.7467  0.3778 -0.7619
  178SLPC  H12Y20297   0.730   0.910  -2.100  2.0739 -0.4576 -1.4308
  178SLPC  C31320298   0.539   0.849  -2.181  0.6369 -0.0454  0.2032
  178SLPC  H13X20299   0.465   0.911  -2.126  1.4949  1.3039 -0.1317
  178SLPC  H13Y20300   0.486   0.752  -2.194 -0.1490  0.2975  0.7219
  178SLPC  C31420301   0.582   0.920  -2.306 -0.4203  0.6012  0.5249
  178SLPC  H14X20302   0.644   0.843  -2.356 -1.3868  0.3057 -0.2375
  178SLPC  H14Y20303   0.628   1.017  -2.275 -2.1908  1.8849 -0.6722
  178SLPC  C31520304   0.465   0.974  -2.390  0.0869  0.5489  0.0833
  178SLPC  H15X20305   0.491   1.031  -2.482  0.0621 -0.4578 -0.5667
  178SLPC  H15Y20306   0.416   1.042  -2.318  4.3364  1.7134  2.1755
  178SLPC  C31620307   0.376   0.865  -2.450 -0.5359  0.3920 -0.0623
  178SLPC  H16X20308   0.349   0.799  -2.365 -0.1756  1.2763  0.7587
  178SLPC  H16Y20309   0.443   0.817  -2.524  0.2112  1.4332 -0.1020
  178SLPC  C31720310   0.255   0.925  -2.521  0.2469  0.1319 -0.9580
  178SLPC  H17X20311   0.293   0.982  -2.608  1.2657  0.0697 -0.5782
  178SLPC  H17Y20312   0.212   0.996  -2.447 -0.4303 -0.8232 -0.4156
  178SLPC  C31820313   0.143   0.827  -2.578  0.4585 -0.5615 -0.3101
  178SLPC  H18X20314   0.102   0.770  -2.491  3.0119 -1.4477  0.3814
  178SLPC  H18Y20315   0.174   0.751  -2.652 -1.3548  0.7376 -2.5118
  178SLPC  H18Z20316   0.062   0.883  -2.629  0.7011  0.3591  0.2866
  179SLPC     N20317   4.051   0.790   3.677  0.7764 -0.0353  0.3549
  179SLPC   C1320318   4.180   0.856   3.640 -0.1674 -0.2512  0.2399
  179SLPC  H13A20319   4.260   0.810   3.697  1.5842  1.3127 -0.8306
  179SLPC  H13B20320   4.211   0.863   3.537 -0.4257  0.7461  0.2244
  179SLPC  H13C20321   4.180   0.960   3.669  0.7233  0.4167 -1.9804
  179SLPC   C1420322   4.055   0.644   3.639  0.7989  0.4020  0.3871
  179SLPC  H14A20323   3.966   0.601   3.682  0.9337  0.2508  0.5157
  179SLPC  H14B20324   4.076   0.639   3.533  0.1741  1.8647  0.1715
  179SLPC  H14C20325   4.138   0.600   3.692  2.0880  1.0902 -0.9782
  179SLPC   C1520326   3.951   0.858   3.580 -0.0321  0.4004 -0.0624
  179SLPC  H15A20327   3.995   0.863   3.482  0.9851  0.5311  0.3902
  179SLPC  H15B20328   3.861   0.798   3.569  2.2807 -3.2170 -0.9512
  179SLPC  H15C20329   3.916   0.958   3.598  2.6985  2.3307 -4.0556
  179SLPC   C1220330   4.019   0.813   3.822  0.1237 -0.6522  0.0621
  179SLPC  H12A20331   4.083   0.763   3.893  0.6133 -0.0675  0.0489
  179SLPC  H12B20332   3.921   0.772   3.840 -0.4560  0.5861 -0.1149
  179SLPC   C1120333   4.004   0.958   3.867  0.1802  0.2113  0.4955
  179SLPC  H11A20334   4.110   0.993   3.870 -0.3020  1.8175 -0.4025
  179SLPC  H11B20335   3.977   0.945   3.974  2.3002 -1.2721  0.9107
  179SLPC     P20336   3.751   1.021   3.829 -0.4099 -0.2568  0.5450
  179SLPC   O1320337   3.685   1.045   3.699  0.7112  0.2084  0.2422
  179SLPC   O1420338   3.721   0.891   3.895 -0.6035 -0.5238  0.6364
  179SLPC   O1220339   3.907   1.041   3.799  0.3881 -0.0554  0.2845
  179SLPC   O1120340   3.723   1.138   3.925 -0.1573 -0.2949  0.3118
  179SLPC    C120341   3.733   1.282   3.897  0.5604  0.4077  0.3152
  179SLPC    HA20342   3.699   1.303   3.793  3.1206  1.1799 -0.4471
  179SLPC    HB20343   3.669   1.338   3.967 -0.6170 -0.6825  0.1612
  179SLPC    C220344   3.866   1.351   3.924 -0.3121 -0.0930  0.7217
  179SLPC    HS20345   3.935   1.304   3.852 -0.9422 -2.4267  1.5713
  179SLPC   O2120346   3.914   1.317   4.052 -0.3257  0.7189 -0.0455
  179SLPC   C2120347   4.043   1.336   4.082  0.7270  0.0179 -0.0770
  179SLPC   O2220348   4.130   1.376   4.007 -0.3022 -0.5203  0.5313
  179SLPC   C2220349   4.055   1.287   4.228  0.2137 -0.1468 -0.0364
  179SLPC   H2R20350   3.960   1.319   4.275 -1.0893 -0.6994 -2.1508
  179SLPC   H2S20351   4.056   1.176   4.236  0.0700  0.0007  3.7652
  179SLPC    C320352   3.873   1.506   3.897  0.1638 -0.0701  0.1223
  179SLPC    HX20353   3.833   1.523   3.794 -0.9824 -2.0639  0.1834
  179SLPC    HY20354   3.974   1.552   3.906 -0.0333  0.5807 -0.8385
  179SLPC   O3120355   3.776   1.568   3.981 -0.2337  0.8251  0.1454
  179SLPC   C3120356   3.808   1.671   4.052 -1.2612  0.5554  0.1606
  179SLPC   O3220357   3.923   1.709   4.064 -0.2882 -0.2336  0.2367
  179SLPC   C3220358   3.678   1.723   4.120  0.4504 -0.1028 -0.0199
  179SLPC   H2X20359   3.620   1.631   4.142  1.9232 -1.3038 -0.8865
  179SLPC   H2Y20360   3.635   1.792   4.045 -0.3833  0.1326  0.6605
  179SLPC   C2320361   4.180   1.354   4.288 -0.1661 -0.0406  0.1835
  179SLPC   H3R20362   4.169   1.463   4.307  1.2893  0.4541 -1.5290
  179SLPC   H3S20363   4.270   1.351   4.222 -0.0279 -1.3766  0.4095
  179SLPC   C2420364   4.215   1.293   4.432 -0.7190  0.5168  0.5190
  179SLPC   H4R20365   4.303   1.340   4.482  0.7322 -0.3982 -1.0509
  179SLPC   H4S20366   4.240   1.185   4.428 -1.2644  0.4125 -0.3044
  179SLPC   C2520367   4.106   1.301   4.535  0.3990 -0.6818 -0.2144
  179SLPC   H5R20368   4.024   1.232   4.506 -2.8699  2.4664  0.7630
  179SLPC   H5S20369   4.060   1.402   4.548 -1.2212 -1.4160 -0.0450
  179SLPC   C2620370   4.151   1.273   4.683 -0.1241 -0.3474 -0.4729
  179SLPC   H6R20371   4.224   1.348   4.721  0.7145 -0.5954 -1.5537
  179SLPC   H6S20372   4.195   1.171   4.686 -0.3342 -0.4206  1.6125
  179SLPC   C2720373   4.044   1.270   4.796  0.5839 -0.5652 -0.1113
  179SLPC   H7R20374   3.956   1.216   4.754 -1.2651  1.2980  1.2012
  179SLPC   H7S20375   4.027   1.371   4.838 -0.9655 -1.0277  0.4643
  179SLPC   C2820376   4.078   1.176   4.914 -0.0695  0.3393  0.0238
  179SLPC   H8R20377   4.090   1.075   4.869  1.9710  1.3158 -1.8037
  179SLPC   H8S20378   4.000   1.159   4.991 -1.1308  1.8816 -0.6634
  179SLPC   C2920379   4.209   1.200   4.992 -0.2911 -0.1662 -0.0882
  179SLPC   H9R20380   4.299   1.165   4.940 -1.6438 -2.7854 -0.8355
  179SLPC  C21020381   4.221   1.283   5.093  0.7354  0.4937 -0.3806
  179SLPC  H10R20382   4.319   1.289   5.142  0.5808 -1.2022  0.2149
  179SLPC  C21120383   4.116   1.355   5.174  0.1836  0.2482  0.0069
  179SLPC  H11R20384   4.015   1.339   5.131 -0.7636  0.5281  1.9687
  179SLPC  H11S20385   4.130   1.466   5.172 -0.9708  0.4393  1.1578
  179SLPC  C21220386   4.118   1.326   5.325  0.0291 -0.3832  0.6066
  179SLPC  H12R20387   4.101   1.417   5.385 -1.0611  0.1325 -0.4488
  179SLPC  C21320388   4.117   1.212   5.390  0.5532 -0.0545  0.4937
  179SLPC  H13R20389   4.129   1.223   5.499  0.8588  1.6917  0.3231
  179SLPC  C21420390   4.121   1.074   5.344  0.4347  0.3819 -0.2026
  179SLPC  H14R20391   4.138   1.076   5.235  0.1974 -0.0768 -0.2491
  179SLPC  H14S20392   4.023   1.029   5.373  0.2500 -0.2535 -1.7444
  179SLPC  C21520393   4.229   0.992   5.419  0.0683 -0.4407  0.7116
  179SLPC  H15R20394   4.314   1.056   5.452 -0.5039  1.0729 -0.5982
  179SLPC  H15S20395   4.269   0.904   5.365  0.1764 -0.6101  1.0680
  179SLPC  C21620396   4.183   0.936   5.549 -0.3663 -0.5908 -0.5953
  179SLPC  H16R20397   4.088   0.881   5.536 -1.5456  0.8021  1.4715
  179SLPC  H16S20398   4.156   1.023   5.613 -0.8294  0.0003 -1.5569
  179SLPC  C21720399   4.268   0.832   5.623 -0.6754  0.7033  0.1592
  179SLPC  H17R20400   4.371   0.865   5.649  0.1405 -1.6145  0.1624
  179SLPC  H17S20401   4.293   0.755   5.546 -0.5148 -0.3599  1.2430
  179SLPC  C21820402   4.211   0.764   5.749 -0.0856  0.4296 -0.1932
  179SLPC  H18R20403   4.111   0.727   5.717 -0.0837  0.6153 -0.4156
  179SLPC  H18S20404   4.214   0.831   5.838 -2.0154  0.3349 -0.0097
  179SLPC  H18T20405   4.271   0.675   5.777 -2.5984 -1.3010  0.0022
  179SLPC   C3320406   3.708   1.806   4.249 -0.0401  0.6451 -0.2623
  179SLPC   H3X20407   3.612   1.836   4.296 -0.0623 -0.9464  0.8231
  179SLPC   H3Y20408   3.765   1.893   4.212  1.2149 -1.4680 -3.7893
  179SLPC   C3420409   3.788   1.717   4.349 -0.3657 -0.4348 -0.3985
  179SLPC   H4X20410   3.884   1.680   4.306  0.5903  1.2567  0.1767
  179SLPC   H4Y20411   3.724   1.631   4.378 -0.0089  0.1586  2.5349
  179SLPC   C3520412   3.811   1.793   4.483  0.1048  0.6730  0.2269
  179SLPC   H5X20413   3.873   1.884   4.477  1.3822 -0.1643  0.4127
  179SLPC   H5Y20414   3.710   1.820   4.520  0.7872  0.1933  2.5742
  179SLPC   C3620415   3.867   1.693   4.590  0.4642 -0.4519  0.1849
  179SLPC   H6X20416   3.977   1.675   4.590  0.7401  1.0392  0.2718
  179SLPC   H6Y20417   3.808   1.601   4.571  1.7101 -1.5972  1.6006
  179SLPC   C3720418   3.821   1.743   4.732 -0.2545  0.2404  0.0515
  179SLPC   H7X20419   3.712   1.765   4.726 -0.1248  0.6767 -0.8765
  179SLPC   H7Y20420   3.880   1.831   4.763 -0.2402 -0.3493  1.7651
  179SLPC   C3820421   3.834   1.633   4.842  0.2979  0.6047 -0.8687
  179SLPC   H8X20422   3.940   1.602   4.853  0.2682 -0.5632 -3.1833
  179SLPC   H8Y20423   3.766   1.547   4.826 -0.8433  0.7265  2.5357
  179SLPC   C3920424   3.772   1.674   4.987 -0.1473 -0.0728 -0.1734
  179SLPC   H9X20425   3.663   1.696   4.982 -0.1773 -0.0433  0.5332
  179SLPC   H9Y20426   3.830   1.769   4.997  2.1859 -1.5178  0.9015
  179SLPC  C31020427   3.822   1.580   5.097  0.1165 -0.4572 -0.2965
  179SLPC  H10X20428   3.929   1.561   5.078  0.4730 -0.3100  1.4558
  179SLPC  H10Y20429   3.769   1.483   5.084  0.7646 -0.9947  0.9328
  179SLPC  C31120430   3.821   1.633   5.238  0.1110 -0.0993  0.4691
  179SLPC  H11X20431   3.856   1.544   5.294 -0.9761 -0.7895  0.0820
  179SLPC  H11Y20432   3.714   1.654   5.259 -0.2354 -2.1185  0.8905
  179SLPC  C31220433   3.915   1.756   5.257  0.6030  0.2199  0.0699
  179SLPC  H12X20434   3.878   1.843   5.199 -2.1477 -2.2265 -2.1910
  179SLPC  H12Y20435   4.017   1.726   5.223  1.0158  0.6714  0.8833
  179SLPC  C31320436   3.942   1.784   5.403 -0.8056 -0.7776 -0.1078
  179SLPC  H13X20437   3.855   1.822   5.460  1.3531  1.8911  1.6769
  179SLPC  H13Y20438   4.007   1.874   5.406  0.0475 -1.3997  1.0718
  179SLPC  C31420439   4.024   1.682   5.485 -0.3136 -0.6181 -1.0532
  179SLPC  H14X20440   4.126   1.682   5.443  1.0647  0.4436  1.9981
  179SLPC  H14Y20441   3.983   1.579   5.495 -0.9050 -0.1956  2.6219
  179SLPC  C31520442   4.042   1.721   5.631 -0.1324  0.4152  0.4505
  179SLPC  H15X20443   3.946   1.740   5.683  0.0039  0.8971  0.5359
  179SLPC  H15Y20444   4.102   1.815   5.636  2.0218 -0.9388  2.0549
  179SLPC  C31620445   4.119   1.624   5.716 -0.1933  0.7778  0.2901
  179SLPC  H16X20446   4.222   1.613   5.675 -1.0767  0.4634 -1.9501
  179SLPC  H16Y20447   4.079   1.521   5.726 -0.9047  1.0659  0.5064
  179SLPC  C31720448   4.133   1.668   5.860 -0.3187  0.4679 -0.3980
  179SLPC  H17X20449   4.029   1.681   5.897  0.0385 -0.5309  0.9865
  179SLPC  H17Y20450   4.183   1.766   5.877 -0.2590  0.1831  1.1620
  179SLPC  C31820451   4.196   1.567   5.954  0.2774  0.4127  0.2304
  179SLPC  H18X20452   4.305   1.588   5.964  0.4984 -0.0500 -1.0354
  179SLPC  H18Y20453   4.171   1.461   5.932  1.6026 -1.0525  4.7741
  179SLPC  H18Z20454   4.149   1.584   6.053  1.5408  0.3567  0.8546
  180SLPC     N20455   2.178   6.507   3.418 -0.0518 -0.2372 -0.0893
  180SLPC   C1320456   2.304   6.495   3.342  0.6944 -0.1246 -0.4381
  180SLPC  H13A20457   2.283   6.494   3.236 -1.7303  1.9562 -0.0688
  180SLPC  H13B20458   2.369   6.580   3.354 -0.2496  0.8156 -1.7487
  180SLPC  H13C20459   2.376   6.416   3.360  0.6917 -0.9692 -3.4944
  180SLPC   C1420460   2.099   6.382   3.430  0.0693  0.8225  0.6978
  180SLPC  H14A20461   2.066   6.355   3.330 -0.3758  2.1464  0.4731
  180SLPC  H14B20462   2.158   6.301   3.469  1.4293  1.2809 -0.3341
  180SLPC  H14C20463   2.006   6.402   3.481 -1.3692  0.6020 -1.6413
  180SLPC   C1520464   2.103   6.610   3.347  0.3274 -0.7511 -0.1646
  180SLPC  H15A20465   2.098   6.588   3.241  0.7300  0.3599 -0.4332
  180SLPC  H15B20466   2.000   6.616   3.376  0.6648  0.2221  0.9197
  180SLPC  H15C20467   2.145   6.708   3.365  0.6951 -1.2068  1.6548
  180SLPC   C1220468   2.193   6.551   3.567  0.6992 -0.0621 -0.0189
  180SLPC  H12A20469   2.098   6.544   3.618  1.0698 -1.6826  0.4982
  180SLPC  H12B20470   2.223   6.654   3.573 -0.1830  0.1284  1.9323
  180SLPC   C1120471   2.296   6.472   3.652  0.2378 -0.7310 -0.0504
  180SLPC  H11A20472   2.286   6.511   3.755 -2.3976  0.1145 -0.5480
  180SLPC  H11B20473   2.395   6.508   3.617 -0.1852  2.4062  1.6360
  180SLPC     P20474   2.171   6.261   3.743 -0.0246 -0.0696 -0.1912
  180SLPC   O1320475   2.035   6.314   3.721  0.5099 -0.2050 -0.0329
  180SLPC   O1420476   2.178   6.114   3.739 -0.8817  0.3941  0.8203
  180SLPC   O1220477   2.282   6.325   3.644 -0.3566 -0.9510  0.2576
  180SLPC   O1120478   2.221   6.312   3.884  0.0426  0.4463  0.3213
  180SLPC    C120479   2.337   6.246   3.930  0.1672  0.3255 -0.4659
  180SLPC    HA20480   2.313   6.139   3.944  1.2385 -0.3405 -3.0161
  180SLPC    HB20481   2.419   6.245   3.855  2.1648  1.1680  1.6030
  180SLPC    C220482   2.379   6.298   4.066 -0.3828  0.0154 -1.1228
  180SLPC    HS20483   2.473   6.251   4.103 -0.3762  1.1927  0.4754
  180SLPC   O2120484   2.284   6.259   4.166 -0.7027 -0.5097 -0.6550
  180SLPC   C2120485   2.325   6.242   4.295  1.1525 -0.5511  0.5896
  180SLPC   O2220486   2.440   6.244   4.338  0.1918 -0.1697  0.4998
  180SLPC   C2220487   2.197   6.204   4.372 -0.0536  0.3437  0.4455
  180SLPC   H2R20488   2.107   6.261   4.340  0.4859  0.9491 -0.0172
  180SLPC   H2S20489   2.181   6.097   4.351  1.6853  0.5579 -2.4396
  180SLPC    C320490   2.400   6.453   4.056  0.5678 -0.2004  0.3092
  180SLPC    HX20491   2.306   6.508   4.036  1.5196  1.3368 -0.1446
  180SLPC    HY20492   2.475   6.455   3.974  1.7557  0.1548  1.3767
  180SLPC   O3120493   2.466   6.510   4.172 -0.5394  0.0613  0.0937
  180SLPC   C3120494   2.380   6.549   4.274  0.4311 -0.4291  0.3755
  180SLPC   O3220495   2.263   6.559   4.268  0.6441 -0.0571  0.3853
  180SLPC   C3220496   2.460   6.549   4.407  0.5704 -0.3653 -0.2603
  180SLPC   H2X20497   2.556   6.601   4.391  0.2346  0.2674 -0.2535
  180SLPC   H2Y20498   2.484   6.443   4.429  2.1055 -0.0995 -0.5619
  180SLPC   C2320499   2.227   6.223   4.527 -0.5033 -0.3128  0.7062
  180SLPC   H3R20500   2.267   6.326   4.537  2.2087 -1.0722 -1.0899
  180SLPC   H3S20501   2.320   6.165   4.546  0.6103  1.2478  0.2681
  180SLPC   C2420502   2.111   6.201   4.614 -0.2210  0.6479  0.1235
  180SLPC   H4R20503   2.056   6.110   4.579 -0.4873  0.4667  0.9969
  180SLPC   H4S20504   2.042   6.288   4.603  0.7356  1.2069 -1.9737
  180SLPC   C2520505   2.146   6.189   4.764 -0.2552 -0.5205  0.7858
  180SLPC   H5R20506   2.173   6.289   4.805 -2.2417  0.0980  0.7200
  180SLPC   H5S20507   2.226   6.113   4.778 -0.8801 -1.1506  1.0076
  180SLPC   C2620508   2.028   6.136   4.846  0.2092 -0.0593 -0.1554
  180SLPC   H6R20509   2.004   6.033   4.812 -1.7908  0.1563  0.4829
  180SLPC   H6S20510   1.940   6.202   4.837  1.1283  1.1151 -0.8646
  180SLPC   C2720511   2.042   6.137   4.998 -0.0793 -0.7953  0.7993
  180SLPC   H7R20512   2.055   6.244   5.024 -4.2675 -0.0590  0.6342
  180SLPC   H7S20513   2.134   6.081   5.025  0.5651  0.3188  0.9361
  180SLPC   C2820514   1.915   6.069   5.072 -0.0485  0.2641 -0.5540
  180SLPC   H8R20515   1.919   5.959   5.059 -1.6384 -0.1541  1.8270
  180SLPC   H8S20516   1.832   6.111   5.011  1.2316 -0.8909 -3.2900
  180SLPC   C2920517   1.915   6.108   5.218  0.2330  0.0697  0.0628
  180SLPC   H9R20518   1.853   6.195   5.242 -0.8365 -0.6077 -0.2037
  180SLPC  C21020519   1.969   6.051   5.326  0.8312 -0.1173  0.1478
  180SLPC  H10R20520   1.930   6.100   5.417  0.8865 -0.6938  0.4816
  180SLPC  C21120521   2.054   5.926   5.332  0.1656  0.4749  0.3782
  180SLPC  H11R20522   2.150   5.951   5.384  0.0265  2.3743 -0.1906
  180SLPC  H11S20523   2.077   5.890   5.229  0.3381  0.4198  0.4351
  180SLPC  C21220524   1.974   5.810   5.383  0.0559  0.1721  0.0286
  180SLPC  H12R20525   1.878   5.777   5.342  1.1267 -2.3309 -0.6842
  180SLPC  C21320526   2.016   5.739   5.490  1.3215 -0.0212 -0.3208
  180SLPC  H13R20527   1.956   5.655   5.528  0.4999  1.4636  1.8777
  180SLPC  C21420528   2.148   5.748   5.560  0.3395  0.2098  0.2034
  180SLPC  H14R20529   2.129   5.753   5.669  0.8880 -2.9864  0.5510
  180SLPC  H14S20530   2.200   5.842   5.530  0.0384 -0.1460 -1.5563
  180SLPC  C21520531   2.235   5.632   5.513 -0.3004 -0.6246 -0.2202
  180SLPC  H15R20532   2.335   5.634   5.561  0.5505 -0.4192 -1.9258
  180SLPC  H15S20533   2.263   5.640   5.405 -0.3972  0.9254 -0.1502
  180SLPC  C21620534   2.180   5.488   5.553 -0.1003 -0.7033  0.3417
  180SLPC  H16R20535   2.091   5.479   5.488  0.1015  0.4602 -0.1334
  180SLPC  H16S20536   2.135   5.491   5.655 -0.3676  0.4531  0.2077
  180SLPC  C21720537   2.276   5.376   5.537  0.2005 -0.1135 -0.4080
  180SLPC  H17R20538   2.361   5.392   5.606 -0.4850  3.0588 -0.1476
  180SLPC  H17S20539   2.329   5.360   5.441  0.7935 -0.5472 -0.0121
  180SLPC  C21820540   2.215   5.240   5.562  0.6623  0.4259 -0.1247
  180SLPC  H18R20541   2.293   5.166   5.593 -1.9451 -3.7351 -2.4549
  180SLPC  H18S20542   2.187   5.189   5.467  2.6208 -1.9190  0.4515
  180SLPC  H18T20543   2.136   5.231   5.639  2.1211 -0.2936  1.3492
  180SLPC   C3320544   2.396   6.596   4.543  0.4621  0.3991  0.4793
  180SLPC   H3X20545   2.289   6.566   4.542  0.7398 -0.7030  1.5809
  180SLPC   H3Y20546   2.392   6.707   4.539  1.4176  0.5204  2.1555
  180SLPC   C3420547   2.459   6.539   4.666 -0.0126  0.0895  0.3463
  180SLPC   H4X20548   2.565   6.516   4.641 -0.0169 -0.5184  0.8716
  180SLPC   H4Y20549   2.414   6.442   4.695  3.4845 -1.4500  1.0781
  180SLPC   C3520550   2.439   6.632   4.789  0.6991 -0.7863 -0.0755
  180SLPC   H5X20551   2.335   6.625   4.828  1.3698 -0.9035  1.7844
  180SLPC   H5Y20552   2.450   6.738   4.756 -1.1891 -0.7805 -0.8056
  180SLPC   C3620553   2.528   6.609   4.912 -0.0289  0.5179 -0.2745
  180SLPC   H6X20554   2.626   6.589   4.865 -1.1450 -1.9555 -1.7773
  180SLPC   H6Y20555   2.489   6.515   4.958 -2.9006  0.4298 -2.6012
  180SLPC   C3720556   2.523   6.723   5.010 -0.0699 -0.1136 -0.5771
  180SLPC   H7X20557   2.418   6.738   5.042 -0.3426  1.8850 -2.1960
  180SLPC   H7Y20558   2.551   6.819   4.961  1.1915  0.2806  0.8252
  180SLPC   C3820559   2.606   6.707   5.136  0.0326  0.8328  0.2513
  180SLPC   H8X20560   2.703   6.660   5.108 -0.1179  0.7996 -0.2317
  180SLPC   H8Y20561   2.549   6.633   5.197 -1.8912  1.8470 -0.2138
  180SLPC   C3920562   2.642   6.842   5.201 -0.4871 -0.4083 -0.7130
  180SLPC   H9X20563   2.562   6.919   5.196  0.6176  0.9377  1.0798
  180SLPC   H9Y20564   2.713   6.878   5.123  0.1679 -1.1973 -0.4921
  180SLPC  C31020565   2.692   6.830   5.345  0.0490 -0.3287  0.0446
  180SLPC  H10X20566   2.784   6.768   5.348 -0.5828 -1.6341 -3.1402
  180SLPC  H10Y20567   2.607   6.784   5.401 -0.7535  0.7421 -0.2590
  180SLPC  C31120568   2.722   6.955   5.421 -0.2143 -0.6487 -0.0031
  180SLPC  H11X20569   2.628   6.994   5.465 -0.4250 -2.5595  1.4263
  180SLPC  H11Y20570   2.766   7.031   5.354 -0.6289  0.0449  0.5068
  180SLPC  C31220571   2.812   6.938   5.542 -0.1906  0.8970  0.3627
  180SLPC  H12X20572   2.912   6.979   5.516 -0.0732  0.2538 -0.2718
  180SLPC  H12Y20573   2.802   6.832   5.573 -1.6752  1.1206  0.6990
  180SLPC  C31320574   2.765   7.022   5.660 -0.6980 -0.4016  0.2983
  180SLPC  H13X20575   2.675   6.979   5.710 -0.3684 -0.3877  0.9174
  180SLPC  H13Y20576   2.731   7.121   5.624 -2.2805 -0.7934  0.5973
  180SLPC  C31420577   2.877   7.041   5.764 -0.1948  0.7379 -0.1676
  180SLPC  H14X20578   2.952   7.107   5.716 -0.8830  1.8243  0.1996
  180SLPC  H14Y20579   2.924   6.942   5.782  3.9441  2.1579 -2.1015
  180SLPC  C31520580   2.829   7.095   5.901 -0.1111 -0.0741  0.5557
  180SLPC  H15X20581   2.767   7.017   5.949  2.6420 -2.2156  0.8383
  180SLPC  H15Y20582   2.771   7.190   5.894 -0.5365 -0.3002  0.9762
  180SLPC  C31620583   2.947   7.118   5.995  0.0021  0.7454 -0.6904
  180SLPC  H16X20584   3.021   7.185   5.947  0.7369  0.1666 -0.3960
  180SLPC  H16Y20585   2.994   7.020   6.021  0.4501  1.2762  0.5649
  180SLPC  C31720586   2.894   7.185   6.122 -0.7423 -0.0626 -0.7394
  180SLPC  H17X20587   2.821   7.120   6.175 -0.8484  0.4036 -0.3122
  180SLPC  H17Y20588   2.838   7.280   6.106 -1.1733 -0.0323  0.7677
  180SLPC  C31820589   3.010   7.212   6.226  0.9065  0.3788 -0.2154
  180SLPC  H18X20590   3.081   7.127   6.222 -0.1127 -0.5322  0.5074
  180SLPC  H18Y20591   2.970   7.223   6.329 -1.6375  0.1676 -1.1054
  180SLPC  H18Z20592   3.067   7.304   6.199 -0.4533  1.1453 -0.5811
  181SLPC     N20593   0.572   2.134   3.745  0.3968  0.2210  0.1992
  181SLPC   C1320594   0.465   2.235   3.709 -0.4149 -0.1163 -0.2957
  181SLPC  H13A20595   0.405   2.265   3.794  2.9692  1.7088  1.6383
  181SLPC  H13B20596   0.520   2.325   3.686 -0.5447  0.2770  0.8761
  181SLPC  H13C20597   0.412   2.188   3.627 -0.3573  0.2929 -0.5713
  181SLPC   C1420598   0.489   2.011   3.770  0.5170 -0.2050 -0.3633
  181SLPC  H14A20599   0.406   2.044   3.831  2.3609  0.6460  1.8214
  181SLPC  H14B20600   0.456   1.973   3.674 -0.4012  1.3528 -0.7138
  181SLPC  H14C20601   0.545   1.935   3.821  0.0331 -1.9431 -2.3068
  181SLPC   C1520602   0.654   2.167   3.870  0.5794  0.2905 -0.4752
  181SLPC  H15A20603   0.733   2.095   3.877 -0.8393 -1.3666 -0.8715
  181SLPC  H15B20604   0.701   2.263   3.854  0.6018 -0.2145 -4.3565
  181SLPC  H15C20605   0.588   2.181   3.955 -0.1181 -0.9499 -0.7848
  181SLPC   C1220606   0.660   2.114   3.626 -0.1446 -0.1863  0.4472
  181SLPC  H12A20607   0.691   2.213   3.594 -0.9435  0.7234  2.3155
  181SLPC  H12B20608   0.611   2.073   3.538  0.4088 -1.6149  0.7900
  181SLPC   C1120609   0.799   2.037   3.636  0.0052  0.6926  0.2360
  181SLPC  H11A20610   0.873   2.099   3.691  1.3468 -0.5994 -0.0505
  181SLPC  H11B20611   0.844   2.019   3.537 -0.5054 -1.8778  0.4183
  181SLPC     P20612   0.888   1.859   3.803 -0.0609 -0.1149 -0.2295
  181SLPC   O1320613   0.852   1.732   3.864  0.0321  0.3320 -0.4459
  181SLPC   O1420614   1.019   1.864   3.732 -0.3417 -0.6797 -0.2988
  181SLPC   O1220615   0.782   1.910   3.707 -0.1629 -0.0517 -0.6741
  181SLPC   O1120616   0.892   1.972   3.916  0.1205  0.0252  0.2342
  181SLPC    C120617   1.004   2.069   3.919 -0.4199  0.1765  0.3363
  181SLPC    HA20618   1.034   2.103   3.818 -0.0126 -0.5259  0.2140
  181SLPC    HB20619   0.980   2.160   3.978  0.7200  0.0379  1.0270
  181SLPC    C220620   1.120   2.000   3.992 -0.0043  0.5958 -0.1192
  181SLPC    HS20621   1.163   1.928   3.920 -0.7355 -0.9132  0.9072
  181SLPC   O2120622   1.079   1.946   4.119 -0.3092  0.5870  0.1650
  181SLPC   C2120623   1.140   1.829   4.151 -0.2088 -0.5754  0.2912
  181SLPC   O2220624   1.214   1.766   4.078 -0.1628 -0.2971 -0.1750
  181SLPC   C2220625   1.098   1.789   4.289 -0.3158  0.0475  0.0850
  181SLPC   H2R20626   1.109   1.877   4.356  1.0138 -0.9984  1.2996
  181SLPC   H2S20627   0.998   1.747   4.268  0.8024 -1.3931 -2.9924
  181SLPC    C320628   1.232   2.097   4.024  0.3771  0.4726 -0.1071
  181SLPC    HX20629   1.211   2.156   4.116  0.0423  0.0067  0.1187
  181SLPC    HY20630   1.238   2.184   3.955  0.2353  1.3198  0.9313
  181SLPC   O3120631   1.358   2.031   4.037  0.3038 -0.1015 -0.2531
  181SLPC   C3120632   1.430   2.017   3.924  0.3746 -0.3572  0.3212
  181SLPC   O3220633   1.391   2.055   3.814 -0.3180 -0.0172  0.4231
  181SLPC   C3220634   1.561   1.940   3.960  0.0880  0.7448  0.4021
  181SLPC   H2X20635   1.616   1.934   3.864  0.4224  0.8328  0.5854
  181SLPC   H2Y20636   1.520   1.841   3.990 -4.2555  2.2588  0.1271
  181SLPC   C2320637   1.189   1.681   4.351  0.1208 -0.3216 -0.2391
  181SLPC   H3R20638   1.228   1.600   4.285  3.1383  0.1753  0.7395
  181SLPC   H3S20639   1.127   1.622   4.421  0.7468 -1.4096 -0.5791
  181SLPC   C2420640   1.304   1.738   4.437  0.1043 -0.5292  0.6218
  181SLPC   H4R20641   1.354   1.817   4.378  0.5736 -0.7945  0.6634
  181SLPC   H4S20642   1.372   1.655   4.465 -0.8512 -0.9793  1.7027
  181SLPC   C2520643   1.259   1.819   4.568 -0.1696  0.3874  0.3762
  181SLPC   H5R20644   1.186   1.891   4.524  1.2815  1.5975 -0.1286
  181SLPC   H5S20645   1.349   1.869   4.609  1.2807 -0.7262 -1.3192
  181SLPC   C2620646   1.207   1.729   4.674 -0.0634 -0.8224 -0.4918
  181SLPC   H6R20647   1.275   1.642   4.685  0.6529 -0.1544  0.5234
  181SLPC   H6S20648   1.110   1.689   4.636 -0.3498  0.6194 -1.3605
  181SLPC   C2720649   1.179   1.801   4.809 -0.6053 -0.3827 -0.1958
  181SLPC   H7R20650   1.116   1.721   4.855  0.9956 -2.2569 -1.0898
  181SLPC   H7S20651   1.132   1.898   4.783  1.5635  0.3313 -1.6842
  181SLPC   C2820652   1.312   1.833   4.885  0.0757 -0.0163  0.5799
  181SLPC   H8R20653   1.302   1.923   4.948  1.8094 -1.7371  3.5324
  181SLPC   H8S20654   1.394   1.856   4.814  0.2955  0.3025  0.9356
  181SLPC   C2920655   1.346   1.721   4.980  0.0698  0.2785  0.6206
  181SLPC   H9R20656   1.353   1.625   4.928  0.4182  0.6444 -0.0261
  181SLPC  C21020657   1.391   1.738   5.104 -0.2574 -0.1712 -0.0283
  181SLPC  H10R20658   1.409   1.645   5.159 -1.0272  0.4108  1.2474
  181SLPC  C21120659   1.408   1.861   5.179 -0.5537 -0.2957 -0.2396
  181SLPC  H11R20660   1.312   1.909   5.208 -0.3911  0.3821 -0.8120
  181SLPC  H11S20661   1.463   1.942   5.126  1.0922 -1.5883 -0.5848
  181SLPC  C21220662   1.499   1.848   5.303  0.1676  0.1796 -0.5773
  181SLPC  H12R20663   1.601   1.889   5.298  0.7074 -1.2605 -3.4443
  181SLPC  C21320664   1.452   1.783   5.416  0.0036  0.7539  0.4767
  181SLPC  H13R20665   1.514   1.764   5.506 -0.5354  0.3704  0.7686
  181SLPC  C21420666   1.312   1.723   5.447 -1.1978 -0.0374 -0.5855
  181SLPC  H14R20667   1.315   1.613   5.433 -1.6212  0.1561 -2.5455
  181SLPC  H14S20668   1.237   1.788   5.397 -0.8433  1.8589  1.2103
  181SLPC  C21520669   1.291   1.735   5.601  0.0310 -0.2321  0.4909
  181SLPC  H15R20670   1.378   1.699   5.659  0.7634 -1.5622 -1.3328
  181SLPC  H15S20671   1.207   1.665   5.624  0.0627 -0.0357  1.2244
  181SLPC  C21620672   1.263   1.872   5.658  0.5208  0.2849  0.3271
  181SLPC  H16R20673   1.177   1.910   5.599 -0.6512 -2.9783 -0.2747
  181SLPC  H16S20674   1.350   1.940   5.646 -0.4057  1.6423  1.0001
  181SLPC  C21720675   1.235   1.871   5.810 -0.6886 -0.1736  0.3066
  181SLPC  H17R20676   1.298   1.797   5.864 -0.9379 -1.1358 -0.6629
  181SLPC  H17S20677   1.137   1.819   5.818 -1.3191  0.6395 -1.5191
  181SLPC  C21820678   1.227   2.003   5.873  0.3148  0.4125 -0.8073
  181SLPC  H18R20679   1.313   2.071   5.857  2.0107 -1.4119  0.1632
  181SLPC  H18S20680   1.224   1.995   5.984  2.0818 -4.6681 -0.9023
  181SLPC  H18T20681   1.166   2.077   5.817  0.3130  1.0029 -0.0446
  181SLPC   C3320682   1.658   1.987   4.072 -0.2841  0.0450  0.0384
  181SLPC   H3X20683   1.663   2.098   4.061  0.8183  0.0885  0.8215
  181SLPC   H3Y20684   1.764   1.958   4.054 -0.1161  1.2440 -1.0276
  181SLPC   C3420685   1.624   1.925   4.207  0.1644  0.1824 -0.1099
  181SLPC   H4X20686   1.612   1.816   4.194  0.1812  0.3297 -1.5890
  181SLPC   H4Y20687   1.520   1.957   4.231 -0.5342 -0.5602 -1.9723
  181SLPC   C3520688   1.721   1.969   4.320  1.0937 -0.2425  0.0514
  181SLPC   H5X20689   1.721   2.080   4.332 -1.1234 -0.2884  1.0459
  181SLPC   H5Y20690   1.824   1.945   4.288  1.4855 -1.5343  2.1048
  181SLPC   C3620691   1.693   1.897   4.455  0.1595  0.2648 -0.5006
  181SLPC   H6X20692   1.734   1.793   4.452 -1.8691 -0.6301  0.7064
  181SLPC   H6Y20693   1.583   1.894   4.471 -0.0217  0.2468 -1.6097
  181SLPC   C3720694   1.775   1.962   4.572  0.3774  0.2530  0.4900
  181SLPC   H7X20695   1.770   2.068   4.539  1.8916 -0.1082 -1.0478
  181SLPC   H7Y20696   1.882   1.932   4.569  0.7546  1.5937 -0.5792
  181SLPC   C3820697   1.725   1.930   4.721  0.7770  0.7749 -0.2145
  181SLPC   H8X20698   1.732   1.820   4.735 -0.2582  0.9145  1.7580
  181SLPC   H8Y20699   1.617   1.957   4.728  1.2579  2.3280  3.0467
  181SLPC   C3920700   1.796   2.001   4.838 -0.2730  0.4692 -0.3496
  181SLPC   H9X20701   1.755   2.103   4.852 -2.9607 -0.3383 -1.5988
  181SLPC   H9Y20702   1.904   1.994   4.812 -0.3025 -3.4809 -0.0234
  181SLPC  C31020703   1.791   1.927   4.972 -0.2945 -0.2474 -0.5729
  181SLPC  H10X20704   1.843   1.831   4.950 -1.6400 -1.1482  0.0021
  181SLPC  H10Y20705   1.687   1.900   5.002 -0.2231  1.2508  1.1677
  181SLPC  C31120706   1.869   2.000   5.088  0.4306  0.6589  0.3433
  181SLPC  H11X20707   1.807   2.084   5.128  0.2179  2.5157 -3.4442
  181SLPC  H11Y20708   1.957   2.052   5.046 -0.1994  0.4955 -1.2643
  181SLPC  C31220709   1.916   1.895   5.187  0.5617  0.1397  0.7368
  181SLPC  H12X20710   1.999   1.833   5.148 -0.8507 -2.0163  0.9770
  181SLPC  H12Y20711   1.821   1.837   5.186 -0.7617  2.1837 -0.7434
  181SLPC  C31320712   1.940   1.943   5.332 -0.4257  0.2524 -1.1172
  181SLPC  H13X20713   1.849   1.970   5.389 -0.8664 -1.1465 -1.1366
  181SLPC  H13Y20714   2.010   2.030   5.334 -0.2756  0.1834 -2.3551
  181SLPC  C31420715   2.023   1.833   5.411 -0.3032 -0.4485  0.7748
  181SLPC  H14X20716   2.109   1.805   5.347 -1.5937 -2.5147 -0.1302
  181SLPC  H14Y20717   1.964   1.739   5.415  0.3049 -0.8226  1.0453
  181SLPC  C31520718   2.076   1.885   5.544 -1.0356 -0.1144  0.0215
  181SLPC  H15X20719   1.987   1.925   5.597 -0.0393  0.8410  1.0367
  181SLPC  H15Y20720   2.136   1.976   5.521  1.1949 -1.9127 -1.9192
  181SLPC  C31620721   2.167   1.785   5.620  0.0741 -0.6996 -0.2583
  181SLPC  H16X20722   2.214   1.850   5.697 -0.4252 -1.0068  0.3171
  181SLPC  H16Y20723   2.242   1.743   5.550  1.4406  0.2107  0.6031
  181SLPC  C31720724   2.084   1.695   5.706 -0.0575 -0.3173  0.4099
  181SLPC  H17X20725   2.010   1.635   5.647 -0.3139 -1.9454  2.3003
  181SLPC  H17Y20726   2.025   1.761   5.772  0.3414  1.0927 -0.5899
  181SLPC  C31820727   2.158   1.587   5.790 -0.2033  0.1203  0.6569
  181SLPC  H18X20728   2.103   1.537   5.872  0.3471  0.5639  1.3019
  181SLPC  H18Y20729   2.243   1.627   5.849  0.7889  0.2442 -0.7775
  181SLPC  H18Z20730   2.198   1.516   5.714 -2.0241 -1.3402  0.9896
  182SLPC     N20731   4.684   2.877   3.341 -0.3563  0.1656 -0.2549
  182SLPC   C1320732   4.830   2.842   3.349 -0.3791  0.0121  0.4393
  182SLPC  H13A20733   4.844   2.862   3.454 -2.8495 -1.7216  1.1991
  182SLPC  H13B20734   4.854   2.739   3.325 -1.9448 -0.0435 -1.1065
  182SLPC  H13C20735   4.885   2.916   3.293 -1.7625  1.5178  1.0010
  182SLPC   C1420736   4.657   2.912   3.200 -0.1145 -0.1520 -0.6701
  182SLPC  H14A20737   4.651   2.831   3.129 -0.9983 -1.3770  0.7476
  182SLPC  H14B20738   4.565   2.967   3.208  0.6013  0.8585  1.0602
  182SLPC  H14C20739   4.734   2.980   3.166  1.8166 -1.1529  1.4991
  182SLPC   C1520740   4.658   2.991   3.425  0.2510  0.5712 -0.3261
  182SLPC  H15A20741   4.674   2.971   3.530  2.8288 -0.2599 -0.7975
  182SLPC  H15B20742   4.705   3.084   3.399 -0.3069  0.9535  0.0212
  182SLPC  H15C20743   4.555   3.016   3.407 -0.3846 -2.1304 -0.8916
  182SLPC   C1220744   4.603   2.755   3.384  0.3288 -0.5138  0.1731
  182SLPC  H12A20745   4.656   2.710   3.467  0.4160 -0.7698 -0.0188
  182SLPC  H12B20746   4.618   2.693   3.297 -3.0008  0.3574 -1.1841
  182SLPC   C1120747   4.452   2.772   3.406  0.2780  0.0275 -0.0154
  182SLPC  H11A20748   4.423   2.828   3.497 -0.4823  0.6320 -0.6030
  182SLPC  H11B20749   4.420   2.670   3.437  0.8484 -0.4943 -1.0713
  182SLPC     P20750   4.299   2.951   3.286  0.5003  0.3551  0.1622
  182SLPC   O1320751   4.399   3.053   3.256 -0.4499 -0.9891  0.3188
  182SLPC   O1420752   4.177   2.949   3.202 -0.3520 -0.5183 -0.5595
  182SLPC   O1220753   4.374   2.809   3.291 -0.2592  0.1130  0.2701
  182SLPC   O1120754   4.240   2.960   3.428  0.5763 -0.4326  0.1963
  182SLPC    C120755   4.221   3.093   3.488 -0.2415 -0.8226  0.5246
  182SLPC    HA20756   4.195   3.170   3.412  1.8475  0.7136  1.2638
  182SLPC    HB20757   4.138   3.091   3.561 -0.9560 -1.4240 -0.2857
  182SLPC    C220758   4.345   3.143   3.569 -0.3940 -0.8324  0.4896
  182SLPC    HS20759   4.437   3.142   3.507 -0.9494  2.3058 -0.5667
  182SLPC   O2120760   4.341   3.063   3.693  0.4425  0.0362 -0.8856
  182SLPC   C2120761   4.466   3.040   3.742  0.7003  0.8007 -0.4389
  182SLPC   O2220762   4.568   3.078   3.696 -0.2409  0.4500 -0.2653
  182SLPC   C2220763   4.451   2.979   3.880 -0.0383 -0.0308 -0.2541
  182SLPC   H2R20764   4.361   2.915   3.872  1.3605 -2.7872  3.4607
  182SLPC   H2S20765   4.540   2.917   3.904 -0.5654 -0.7153 -0.0243
  182SLPC    C320766   4.320   3.290   3.608  0.6625  0.2146  0.2846
  182SLPC    HX20767   4.235   3.289   3.679  1.0223  0.3576  0.7226
  182SLPC    HY20768   4.281   3.348   3.522 -0.1130 -1.6376 -0.6612
  182SLPC   O3120769   4.423   3.355   3.695  0.0785 -0.4284 -0.2990
  182SLPC   C3120770   4.539   3.386   3.630  0.3530 -0.1760  0.3541
  182SLPC   O3220771   4.556   3.373   3.508  0.2129  0.5323 -0.2970
  182SLPC   C3220772   4.645   3.412   3.744  0.2144 -0.1420 -0.3380
  182SLPC   H2X20773   4.740   3.425   3.688  0.2843  2.0462  0.2168
  182SLPC   H2Y20774   4.656   3.321   3.807  0.3012  0.1440  0.0631
  182SLPC   C2320775   4.430   3.084   3.991  0.1320 -0.3431 -0.0387
  182SLPC   H3R20776   4.356   3.159   3.955  1.0545  0.5020 -0.2298
  182SLPC   H3S20777   4.528   3.136   3.997  1.4946 -2.6189 -1.0204
  182SLPC   C2420778   4.395   3.020   4.125 -0.2670  0.2371 -0.3582
  182SLPC   H4R20779   4.474   2.947   4.149 -1.6374 -0.3971  2.6890
  182SLPC   H4S20780   4.302   2.960   4.112 -0.5759  0.8952 -1.3973
  182SLPC   C2520781   4.385   3.121   4.241 -0.9372 -0.2046  0.1915
  182SLPC   H5R20782   4.318   3.077   4.318 -0.9898 -1.5122 -0.5801
  182SLPC   H5S20783   4.350   3.219   4.202  1.0731  0.5219  0.0894
  182SLPC   C2620784   4.524   3.144   4.304  0.1848 -0.6239 -0.0848
  182SLPC   H6R20785   4.581   3.199   4.227 -1.8253 -0.0820 -1.2491
  182SLPC   H6S20786   4.566   3.042   4.322  1.5161 -0.2160 -0.7855
  182SLPC   C2720787   4.507   3.218   4.442 -0.3507  0.0507  0.2105
  182SLPC   H7R20788   4.422   3.167   4.493  0.2088  0.1681  1.2933
  182SLPC   H7S20789   4.478   3.323   4.420 -0.7656 -0.6235 -2.8868
  182SLPC   C2820790   4.629   3.213   4.535  0.5119  0.5251  1.3675
  182SLPC   H8R20791   4.602   3.249   4.637  0.6627  1.3331  1.1312
  182SLPC   H8S20792   4.705   3.286   4.499 -0.9082  1.2407 -0.3730
  182SLPC   C2920793   4.694   3.079   4.547 -0.3526  0.4897 -0.1573
  182SLPC   H9R20794   4.628   3.003   4.592 -0.2317 -0.3632 -1.3772
  182SLPC  C21020795   4.805   3.032   4.488  0.3237  0.0774  0.8010
  182SLPC  H10R20796   4.835   2.932   4.521  0.4691 -0.3119 -0.4490
  182SLPC  C21120797   4.909   3.108   4.410  0.0527  0.2291 -0.5278
  182SLPC  H11R20798   4.921   3.211   4.449  0.0810  0.2560 -0.6059
  182SLPC  H11S20799   4.873   3.126   4.306 -0.6582 -2.3066 -0.7980
  182SLPC  C21220800   5.045   3.036   4.401  0.5552 -0.6875  0.1105
  182SLPC  H12R20801   5.054   2.967   4.316  0.3416 -2.0824  1.1898
  182SLPC  C21320802   5.147   3.049   4.487  0.1762 -0.1693 -0.0001
  182SLPC  H13R20803   5.232   2.981   4.477  0.7571  0.6615 -0.9497
  182SLPC  C21420804   5.151   3.134   4.614 -0.6310 -0.3281  0.3897
  182SLPC  H14R20805   5.048   3.163   4.643 -1.0739  0.9158 -2.1964
  182SLPC  H14S20806   5.206   3.226   4.586 -0.8671 -1.1746 -3.3271
  182SLPC  C21520807   5.216   3.060   4.740 -0.4246  0.1612  0.5227
  182SLPC  H15R20808   5.236   3.125   4.828  2.1468 -0.2987  0.3708
  182SLPC  H15S20809   5.321   3.035   4.712 -0.8307  0.0241 -0.9630
  182SLPC  C21620810   5.121   2.952   4.786 -0.1234 -0.2495  0.0896
  182SLPC  H16R20811   5.103   2.882   4.701 -2.9563  0.9429 -0.3991
  182SLPC  H16S20812   5.029   3.007   4.813 -0.4541 -0.5144 -0.4872
  182SLPC  C21720813   5.167   2.858   4.909  0.3319  0.2678  0.2831
  182SLPC  H17R20814   5.239   2.786   4.865  0.8924  1.5294 -0.9269
  182SLPC  H17S20815   5.076   2.801   4.939  0.2315 -1.0268 -2.1680
  182SLPC  C21820816   5.234   2.913   5.030 -0.2430 -0.5488  0.2282
  182SLPC  H18R20817   5.312   2.989   5.009  0.8802 -1.8525 -0.5460
  182SLPC  H18S20818   5.277   2.828   5.087 -0.8338 -0.4608  0.8258
  182SLPC  H18T20819   5.161   2.954   5.103  0.1502 -1.3147  1.0753
  182SLPC   C3320820   4.624   3.538   3.823 -0.4555 -0.4182 -0.4663
  182SLPC   H3X20821   4.528   3.592   3.805  0.4360  0.8560 -1.6273
  182SLPC   H3Y20822   4.704   3.610   3.792  0.8911 -1.0221  1.4073
  182SLPC   C3420823   4.648   3.519   3.972  0.0564 -0.1140 -0.4661
  182SLPC   H4X20824   4.742   3.465   3.997  0.8482  0.6615 -1.7039
  182SLPC   H4Y20825   4.564   3.470   4.026  0.0842  0.7416  0.3891
  182SLPC   C3520826   4.665   3.652   4.040  0.3192 -0.0260  1.0004
  182SLPC   H5X20827   4.588   3.717   3.993  0.8181  0.1579  0.4275
  182SLPC   H5Y20828   4.758   3.702   4.006 -0.2448  1.3585  1.3930
  182SLPC   C3620829   4.658   3.646   4.188 -0.2110 -0.1009 -0.9390
  182SLPC   H6X20830   4.588   3.571   4.230 -0.0895  0.0345 -0.4881
  182SLPC   H6Y20831   4.629   3.743   4.233 -1.2572 -1.5506  1.7562
  182SLPC   C3720832   4.800   3.598   4.247  0.1981  0.1755  0.5719
  182SLPC   H7X20833   4.874   3.661   4.193  0.2009 -0.7314 -0.5260
  182SLPC   H7Y20834   4.814   3.490   4.224  2.2531  0.0777  2.0159
  182SLPC   C3820835   4.812   3.622   4.397 -1.1459  0.1420 -0.0868
  182SLPC   H8X20836   4.738   3.560   4.453 -0.3290 -0.8396 -0.0653
  182SLPC   H8Y20837   4.774   3.724   4.418 -0.6713  0.3268 -0.1441
  182SLPC   C3920838   4.956   3.604   4.455  1.3654  0.5454  0.3354
  182SLPC   H9X20839   5.014   3.696   4.433  3.4410 -0.8003 -0.1201
  182SLPC   H9Y20840   4.999   3.510   4.416  0.3690 -0.6193  1.8972
  182SLPC  C31020841   4.952   3.595   4.606  0.0366  0.5407 -0.0447
  182SLPC  H10X20842   4.863   3.652   4.640 -1.3633 -1.3592 -0.3299
  182SLPC  H10Y20843   5.048   3.633   4.647 -0.1906 -0.0501  1.1045
  182SLPC  C31120844   4.929   3.444   4.647 -0.2706 -0.2139  0.4608
  182SLPC  H11X20845   5.018   3.379   4.631  0.8925  0.7701  2.5592
  182SLPC  H11Y20846   4.837   3.403   4.599 -0.9679  0.5095  1.1434
  182SLPC  C31220847   4.902   3.435   4.796 -0.2065 -0.1882  0.7716
  182SLPC  H12X20848   4.802   3.464   4.834  0.6985  4.2502  0.2753
  182SLPC  H12Y20849   4.975   3.495   4.853  0.2780 -1.5958  1.6892
  182SLPC  C31320850   4.935   3.293   4.843  0.1394 -0.0040 -0.2933
  182SLPC  H13X20851   5.044   3.288   4.822  0.0225 -1.3887 -0.6709
  182SLPC  H13Y20852   4.886   3.216   4.780 -1.1057 -2.6424  3.5017
  182SLPC  C31420853   4.884   3.263   4.987 -0.3466 -0.7018  0.7020
  182SLPC  H14X20854   4.912   3.158   5.006 -0.8682 -0.6083  2.2057
  182SLPC  H14Y20855   4.774   3.278   4.995 -0.0962  1.5749  0.6767
  182SLPC  C31520856   4.962   3.347   5.088  0.2092  0.1642  0.0550
  182SLPC  H15X20857   4.949   3.457   5.091  2.3195  0.4445  0.6040
  182SLPC  H15Y20858   5.068   3.349   5.054 -0.7788  2.4634 -3.3608
  182SLPC  C31620859   4.943   3.290   5.235 -0.2296 -0.7062 -0.0343
  182SLPC  H16X20860   4.948   3.179   5.235 -0.3501 -0.7322 -1.6657
  182SLPC  H16Y20861   4.846   3.336   5.265 -0.3837 -1.0242 -0.0316
  182SLPC  C31720862   5.065   3.329   5.320  0.2981  0.4095  0.3540
  182SLPC  H17X20863   5.087   3.434   5.290 -3.5320  1.5433  1.0796
  182SLPC  H17Y20864   5.150   3.262   5.292  2.3110  3.3533 -1.2227
  182SLPC  C31820865   5.046   3.320   5.475  0.3369 -0.2212 -0.0137
  182SLPC  H18X20866   4.993   3.227   5.506 -3.1361  1.4269 -0.4459
  182SLPC  H18Y20867   4.992   3.410   5.511  3.0075  1.6200 -0.3262
  182SLPC  H18Z20868   5.148   3.317   5.517  0.0840 -2.3553  0.5517
  183SLPC     N20869   5.599   4.428   3.562 -0.2529 -0.2273  0.8355
  183SLPC   C1320870   5.653   4.496   3.436 -0.0068  0.4097  0.3837
  183SLPC  H13A20871   5.760   4.511   3.447  0.4735 -1.3226 -1.2189
  183SLPC  H13B20872   5.637   4.436   3.347  0.7204  2.1326 -0.9703
  183SLPC  H13C20873   5.602   4.589   3.415 -0.9572  0.2117  1.7395
  183SLPC   C1420874   5.460   4.379   3.536 -0.5789 -0.6033  0.7314
  183SLPC  H14A20875   5.451   4.287   3.481  0.5703 -0.0129 -0.5112
  183SLPC  H14B20876   5.413   4.382   3.633  1.9517  3.4292  2.1210
  183SLPC  H14C20877   5.406   4.441   3.465  1.8807 -0.5084 -1.1744
  183SLPC   C1520878   5.572   4.528   3.674  0.6577  0.0232 -0.5398
  183SLPC  H15A20879   5.519   4.482   3.757  1.6553 -0.6172 -0.2497
  183SLPC  H15B20880   5.658   4.569   3.724 -0.6529 -0.1032  2.0111
  183SLPC  H15C20881   5.511   4.612   3.644  0.0386 -0.0830  0.3793
  183SLPC   C1220882   5.694   4.322   3.605 -0.4662  0.1911 -0.1057
  183SLPC  H12A20883   5.783   4.365   3.648 -0.4406 -0.3796  0.4357
  183SLPC  H12B20884   5.734   4.273   3.517  0.4092  0.2446  0.2495
  183SLPC   C1120885   5.635   4.211   3.693  0.4015  0.6487  0.3622
  183SLPC  H11A20886   5.570   4.247   3.776 -2.6276 -1.9415 -0.6740
  183SLPC  H11B20887   5.716   4.156   3.745 -2.6307 -1.9084  2.8528
  183SLPC     P20888   5.631   4.028   3.515  0.1304  0.4176  0.2746
  183SLPC   O1320889   5.530   4.001   3.410  0.3050  0.2541  0.5012
  183SLPC   O1420890   5.763   4.079   3.468  0.2152 -0.2940 -0.2855
  183SLPC   O1220891   5.556   4.120   3.623  0.0370 -0.0072  0.5078
  183SLPC   O1120892   5.656   3.888   3.584 -0.2919  0.2943 -0.9803
  183SLPC    C120893   5.558   3.823   3.665 -0.2620  0.3274  0.3698
  183SLPC    HA20894   5.460   3.857   3.627  0.1440  0.3262 -0.7024
  183SLPC    HB20895   5.555   3.712   3.660  0.9862  0.2994 -0.2562
  183SLPC    C220896   5.576   3.865   3.812  0.6731 -0.3993 -0.0095
  183SLPC    HS20897   5.603   3.972   3.813 -2.1084  0.3753  0.2508
  183SLPC   O2120898   5.666   3.776   3.878  0.3305  0.6258 -0.2791
  183SLPC   C2120899   5.798   3.805   3.866 -0.4656  0.0800  0.6755
  183SLPC   O2220900   5.839   3.896   3.794  0.1780 -0.1782 -0.0852
  183SLPC   C2220901   5.878   3.693   3.930 -0.9500 -0.1962  0.2616
  183SLPC   H2R20902   5.807   3.608   3.926 -0.5551 -0.5108 -0.4125
  183SLPC   H2S20903   5.964   3.669   3.864 -0.5749 -0.1492  0.7294
  183SLPC    C320904   5.442   3.868   3.897  0.0284  0.0332  0.0270
  183SLPC    HX20905   5.401   3.765   3.904  2.7535 -1.0122  2.4207
  183SLPC    HY20906   5.366   3.932   3.845  1.0508  1.1989 -0.0843
  183SLPC   O3120907   5.468   3.912   4.034 -0.0200 -0.2025  0.7508
  183SLPC   C3120908   5.364   3.959   4.096  0.4154  0.3649  0.9781
  183SLPC   O3220909   5.257   3.990   4.040 -0.3826 -0.5911 -0.1844
  183SLPC   C3220910   5.394   3.980   4.242  0.3900 -0.1201  0.3341
  183SLPC   H2X20911   5.352   3.890   4.292  0.0013 -0.0344  0.1647
  183SLPC   H2Y20912   5.325   4.062   4.270  0.2095 -0.1291 -0.0815
  183SLPC   C2320913   5.924   3.730   4.072 -0.1213  0.1592  0.3147
  183SLPC   H3R20914   5.974   3.827   4.095  0.3366 -0.1962  0.8764
  183SLPC   H3S20915   5.996   3.655   4.112 -0.9128 -0.8519 -0.1256
  183SLPC   C2420916   5.803   3.723   4.162  0.3941  0.4702 -0.2912
  183SLPC   H4R20917   5.730   3.644   4.133  0.8677  0.2699 -0.9513
  183SLPC   H4S20918   5.741   3.814   4.147 -0.0455  0.5886  1.9626
  183SLPC   C2520919   5.838   3.709   4.314 -0.1904 -0.1028 -0.2469
  183SLPC   H5R20920   5.889   3.611   4.328 -1.6453 -1.0897 -1.5191
  183SLPC   H5S20921   5.747   3.706   4.378 -0.1726 -1.8100 -0.2505
  183SLPC   C2620922   5.933   3.819   4.368 -0.2801  0.0036  0.5383
  183SLPC   H6R20923   5.901   3.925   4.353  1.8557  0.5113 -0.8162
  183SLPC   H6S20924   6.035   3.820   4.325 -0.0809 -0.3347  0.9900
  183SLPC   C2720925   5.973   3.797   4.518  0.4541 -0.2702  0.6643
  183SLPC   H7R20926   6.007   3.691   4.517  1.4160  0.0206 -0.8750
  183SLPC   H7S20927   5.877   3.819   4.569 -1.3718  5.3071 -4.1292
  183SLPC   C2820928   6.096   3.878   4.578  0.0907 -0.3220  0.7582
  183SLPC   H8R20929   6.092   3.855   4.686 -0.8145  0.4230  0.8961
  183SLPC   H8S20930   6.080   3.988   4.569 -0.1869 -0.4177  0.0659
  183SLPC   C2920931   6.228   3.856   4.515  0.5163  0.3919  0.2295
  183SLPC   H9R20932   6.223   3.851   4.405  1.6398  0.7355  0.1466
  183SLPC  C21020933   6.344   3.826   4.570 -0.1982  0.2307  0.2532
  183SLPC  H10R20934   6.431   3.812   4.505 -1.5058  1.6973 -1.9564
  183SLPC  C21120935   6.377   3.799   4.712  0.7122  0.3283  0.5544
  183SLPC  H11R20936   6.320   3.711   4.748  0.4328  0.3585  0.1909
  183SLPC  H11S20937   6.338   3.884   4.773  1.4304  1.8448 -1.0211
  183SLPC  C21220938   6.525   3.784   4.736 -0.0292 -0.0794  0.6511
  183SLPC  H12R20939   6.576   3.710   4.674  0.5423  1.4380 -0.7628
  183SLPC  C21320940   6.597   3.851   4.819 -0.7339  0.0224 -0.7730
  183SLPC  H13R20941   6.705   3.830   4.824 -1.2461 -2.6625  1.8619
  183SLPC  C21420942   6.550   3.960   4.916  0.4521  0.6714  0.5950
  183SLPC  H14R20943   6.441   3.980   4.916 -0.0519 -1.8106  1.2903
  183SLPC  H14S20944   6.604   4.047   4.873  0.1046 -0.6368 -2.8214
  183SLPC  C21520945   6.579   3.932   5.059  0.1682  0.1722 -0.1845
  183SLPC  H15R20946   6.509   3.855   5.096  1.2362  0.2680  2.2616
  183SLPC  H15S20947   6.543   4.025   5.109 -0.9340 -0.2133 -0.2550
  183SLPC  C21620948   6.724   3.891   5.087 -0.1342  0.4312  0.1581
  183SLPC  H16R20949   6.789   3.949   5.019  0.1690  2.8057  2.3027
  183SLPC  H16S20950   6.746   3.786   5.059  2.0788  0.2114  2.3588
  183SLPC  C21720951   6.774   3.921   5.234  0.6513 -0.3605  0.1861
  183SLPC  H17R20952   6.777   4.032   5.237  3.0092 -0.3487 -0.3983
  183SLPC  H17S20953   6.877   3.880   5.241  0.8718 -0.8467 -3.5913
  183SLPC  C21820954   6.696   3.865   5.352 -0.1194  0.0803  0.8347
  183SLPC  H18R20955   6.597   3.915   5.366 -1.1856 -0.7428 -2.7298
  183SLPC  H18S20956   6.749   3.871   5.449  3.1307  0.6176 -0.8527
  183SLPC  H18T20957   6.685   3.759   5.321  2.7449  0.2070 -1.0318
  183SLPC   C3320958   5.538   4.017   4.289  0.1072  0.8408 -0.9401
  183SLPC   H3X20959   5.564   4.103   4.223  0.8762  2.8446  1.7726
  183SLPC   H3Y20960   5.601   3.928   4.270  3.2645  2.9024 -0.8823
  183SLPC   C3420961   5.545   4.059   4.439  0.3485  0.0939  0.5475
  183SLPC   H4X20962   5.463   4.130   4.462 -0.4975 -0.5796 -0.3147
  183SLPC   H4Y20963   5.637   4.117   4.461 -1.9951  3.3562  2.5507
  183SLPC   C3520964   5.528   3.940   4.543  0.6067 -0.7890  0.5829
  183SLPC   H5X20965   5.606   3.864   4.518 -0.5415 -0.8108 -3.6799
  183SLPC   H5Y20966   5.428   3.893   4.534  1.6129 -2.7147 -1.9920
  183SLPC   C3620967   5.558   3.985   4.689 -0.2677  0.7095 -0.0652
  183SLPC   H6X20968   5.472   4.045   4.728 -0.3120  1.2280 -0.9199
  183SLPC   H6Y20969   5.648   4.050   4.680  0.7217 -0.7102 -0.7527
  183SLPC   C3720970   5.570   3.864   4.783 -0.4950  0.2546 -0.1224
  183SLPC   H7X20971   5.638   3.789   4.737  2.6549  2.6453  0.2486
  183SLPC   H7Y20972   5.471   3.820   4.806  0.1685 -2.4271 -2.0024
  183SLPC   C3820973   5.652   3.896   4.917  0.3695 -1.0294 -0.7305
  183SLPC   H8X20974   5.576   3.958   4.968 -0.4774 -2.6533  0.0455
  183SLPC   H8Y20975   5.736   3.960   4.881 -0.8264 -0.0684 -1.9043
  183SLPC   C3920976   5.689   3.776   5.008 -0.5074 -0.0666  0.0523
  183SLPC   H9X20977   5.770   3.719   4.959  0.9371  1.1802  0.9235
  183SLPC   H9Y20978   5.588   3.730   5.018 -1.3740  1.4414 -1.2640
  183SLPC  C31020979   5.727   3.825   5.152 -0.4681 -0.1248  0.9607
  183SLPC  H10X20980   5.804   3.906   5.149  0.5090 -1.0177  1.1992
  183SLPC  H10Y20981   5.784   3.749   5.211  0.1034  1.2331  2.2504
  183SLPC  C31120982   5.616   3.879   5.240  0.3433  0.1036 -0.3690
  183SLPC  H11X20983   5.568   3.966   5.191 -0.2945 -0.1721 -0.2417
  183SLPC  H11Y20984   5.648   3.921   5.338 -2.0054  0.0133  0.5006
  183SLPC  C31220985   5.503   3.783   5.284  0.6514  0.5245  0.0899
  183SLPC  H12X20986   5.543   3.702   5.349 -0.0657  0.3050  0.2786
  183SLPC  H12Y20987   5.454   3.740   5.193 -2.4480  0.9374  1.4362
  183SLPC  C31320988   5.398   3.841   5.377  0.1824  0.4698 -0.4484
  183SLPC  H13X20989   5.349   3.925   5.322  1.6752  1.0419 -0.9391
  183SLPC  H13Y20990   5.448   3.884   5.466 -0.5038  1.4370 -0.5125
  183SLPC  C31420991   5.298   3.723   5.412 -0.6746 -0.6235 -0.1507
  183SLPC  H14X20992   5.360   3.658   5.478  0.2546  0.4313  0.0458
  183SLPC  H14Y20993   5.265   3.669   5.321  0.9386 -2.5120  0.2972
  183SLPC  C31520994   5.179   3.773   5.493 -0.1490 -0.3444  0.6504
  183SLPC  H15X20995   5.222   3.838   5.573 -0.9356  1.9634 -0.7086
  183SLPC  H15Y20996   5.127   3.687   5.541  0.3926 -1.9369 -1.4939
  183SLPC  C31620997   5.067   3.848   5.415  0.2456 -1.3232 -0.4774
  183SLPC  H16X20998   5.111   3.915   5.338 -2.2580 -1.1595 -1.8480
  183SLPC  H16Y20999   5.023   3.926   5.481  2.7690 -1.2978  1.3390
  183SLPC  C31721000   4.971   3.745   5.355 -0.5819  0.1407 -0.2914
  183SLPC  H17X21001   4.919   3.691   5.437  0.8911 -0.6728  0.1403
  183SLPC  H17Y21002   5.033   3.664   5.312 -1.7828 -0.3817 -1.0863
  183SLPC  C31821003   4.889   3.798   5.239 -0.9521  0.7129  0.1786
  183SLPC  H18X21004   4.789   3.833   5.271 -0.6064  0.4303  1.6389
  183SLPC  H18Y21005   4.887   3.721   5.159  1.3482  1.7131 -0.9318
  183SLPC  H18Z21006   4.949   3.885   5.205  1.0963 -0.9039 -0.5806
  184SLPC     N21007   5.979   4.836   3.303 -0.0559 -0.4799 -0.3858
  184SLPC   C1321008   5.899   4.952   3.248 -0.2922  0.5916 -0.4301
  184SLPC  H13A21009   5.929   4.986   3.150 -1.4813  2.3227 -0.2339
  184SLPC  H13B21010   5.794   4.927   3.251  0.6376 -4.1435  0.5299
  184SLPC  H13C21011   5.908   5.032   3.321 -1.3012 -0.4479  0.8849
  184SLPC   C1421012   6.111   4.833   3.239 -0.1001  0.4451  0.5689
  184SLPC  H14A21013   6.176   4.916   3.263  0.8391 -0.6808  2.1326
  184SLPC  H14B21014   6.164   4.742   3.263  1.6795  0.9455 -1.1809
  184SLPC  H14C21015   6.089   4.834   3.134  0.2144  1.8725  0.4924
  184SLPC   C1521016   5.903   4.711   3.279 -0.1441 -0.3522  0.1696
  184SLPC  H15A21017   5.939   4.620   3.326 -0.6613 -0.2459  0.7945
  184SLPC  H15B21018   5.799   4.718   3.307 -0.5438 -0.1138 -1.2765
  184SLPC  H15C21019   5.892   4.698   3.172 -1.3631 -0.4452  0.2896
  184SLPC   C1221020   5.998   4.853   3.453  0.2022  0.2565 -0.9276
  184SLPC  H12A21021   6.042   4.947   3.481  0.2328  0.3690 -1.3465
  184SLPC  H12B21022   6.057   4.771   3.492 -2.2110 -1.1728 -0.0295
  184SLPC   C1121023   5.865   4.837   3.541  0.2682  0.0707 -0.0521
  184SLPC  H11A21024   5.898   4.840   3.647  2.2416 -0.5629 -0.6091
  184SLPC  H11B21025   5.824   4.738   3.512  0.3564  0.4959 -1.7137
  184SLPC     P21026   5.771   5.081   3.581  0.3461 -0.1061  0.0630
  184SLPC   O1321027   5.909   5.123   3.574  0.1091  0.1010 -0.1361
  184SLPC   O1421028   5.682   5.176   3.507  0.0609 -0.1518  0.1299
  184SLPC   O1221029   5.760   4.932   3.515  0.2928 -0.0816  0.3589
  184SLPC   O1121030   5.727   5.061   3.731  0.0169 -0.2691  0.5380
  184SLPC    C121031   5.605   4.999   3.765 -0.8779  0.6401 -0.3942
  184SLPC    HA21032   5.534   4.975   3.682  0.7194 -1.7984 -1.1637
  184SLPC    HB21033   5.627   4.904   3.819 -1.3097  2.4551  3.2445
  184SLPC    C221034   5.534   5.092   3.866 -0.5396  0.4191 -0.1523
  184SLPC    HS21035   5.545   5.190   3.815  0.8901  1.0655  1.3069
  184SLPC   O2121036   5.607   5.096   3.996  0.2633 -0.5532 -0.4680
  184SLPC   C2121037   5.598   5.213   4.051 -0.5945 -0.1815  0.2001
  184SLPC   O2221038   5.547   5.315   4.010 -0.1099 -0.3815 -0.7907
  184SLPC   C2221039   5.664   5.192   4.192 -0.7011 -0.2103 -0.1005
  184SLPC   H2R21040   5.654   5.088   4.228 -0.2220  0.3946  1.9536
  184SLPC   H2S21041   5.773   5.211   4.188 -0.5355 -0.1348  2.7193
  184SLPC    C321042   5.380   5.044   3.892 -0.2828 -0.5442 -0.1917
  184SLPC    HX21043   5.373   4.937   3.919 -0.4474 -0.6369 -0.5877
  184SLPC    HY21044   5.337   5.048   3.790  1.5968  1.5769 -1.0026
  184SLPC   O3121045   5.297   5.117   3.987 -0.1546 -0.0772  0.2389
  184SLPC   C3121046   5.220   5.211   3.943  0.3072  0.3274  0.3587
  184SLPC   O3221047   5.212   5.246   3.827  0.7601  0.2698  0.5417
  184SLPC   C3221048   5.151   5.287   4.066 -0.0667  0.4100 -0.1503
  184SLPC   H2X21049   5.045   5.278   4.036 -0.0775 -0.1331  0.0519
  184SLPC   H2Y21050   5.203   5.384   4.051 -1.4937  1.5339  1.8226
  184SLPC   C2321051   5.606   5.291   4.307  0.1670  0.6845  0.5984
  184SLPC   H3R21052   5.505   5.251   4.332 -0.0692  0.4602 -0.6554
  184SLPC   H3S21053   5.590   5.393   4.268  0.1720  0.5089  0.1291
  184SLPC   C2421054   5.704   5.301   4.430 -0.2621  0.1260  0.0546
  184SLPC   H4R21055   5.793   5.353   4.389  0.3435 -0.6793  0.3158
  184SLPC   H4S21056   5.743   5.203   4.465  1.7864  0.3482 -1.3876
  184SLPC   C2521057   5.643   5.378   4.549  0.5593 -0.2026  0.4488
  184SLPC   H5R21058   5.541   5.334   4.558 -0.0179  0.9147 -0.3876
  184SLPC   H5S21059   5.620   5.479   4.508 -0.8140 -0.8491 -0.4416
  184SLPC   C2621060   5.721   5.383   4.679  0.6498  0.2824  0.1354
  184SLPC   H6R21061   5.787   5.472   4.677 -0.7100  1.3428  0.5795
  184SLPC   H6S21062   5.781   5.290   4.673  2.8154  1.5613  0.8314
  184SLPC   C2721063   5.627   5.380   4.800  0.0795  0.2691  0.4036
  184SLPC   H7R21064   5.567   5.288   4.787 -2.4511  1.4350  2.7988
  184SLPC   H7S21065   5.562   5.471   4.800  1.1878  1.1386  2.4629
  184SLPC   C2821066   5.694   5.388   4.938 -0.1112  0.0562 -0.4263
  184SLPC   H8R21067   5.616   5.423   5.009  1.0260 -1.9746  1.9534
  184SLPC   H8S21068   5.768   5.470   4.927 -1.3278  0.9269 -3.2648
  184SLPC   C2921069   5.757   5.258   4.985 -0.4269  0.7141  0.2261
  184SLPC   H9R21070   5.704   5.164   4.965  0.6457 -0.4431  2.3840
  184SLPC  C21021071   5.874   5.246   5.050  0.0203 -0.7219 -0.2019
  184SLPC  H10R21072   5.904   5.145   5.081 -1.6394 -1.5344 -1.1132
  184SLPC  C21121073   5.962   5.360   5.095  0.0813 -0.2908 -0.1928
  184SLPC  H11R21074   5.884   5.431   5.130 -0.7698 -1.0228 -0.5592
  184SLPC  H11S21075   6.015   5.399   5.005 -0.3417 -0.3543 -0.4703
  184SLPC  C21221076   6.069   5.341   5.204  0.0181  0.4829 -0.5133
  184SLPC  H12R21077   6.168   5.335   5.156  0.6790 -0.9495  0.9583
  184SLPC  C21321078   6.053   5.327   5.335 -0.3003 -0.5215 -0.1542
  184SLPC  H13R21079   6.146   5.326   5.395 -0.5979 -1.8176  0.2979
  184SLPC  C21421080   5.921   5.332   5.410  0.0899 -0.1048  0.0487
  184SLPC  H14R21081   5.835   5.369   5.349 -0.5539 -0.5256  0.6875
  184SLPC  H14S21082   5.937   5.405   5.492  1.0018 -0.9229  0.6101
  184SLPC  C21521083   5.890   5.193   5.471  0.6409  0.7326 -0.5874
  184SLPC  H15R21084   5.985   5.159   5.517  0.4407 -0.9830 -1.3924
  184SLPC  H15S21085   5.862   5.120   5.393 -0.4472  0.2935  0.1826
  184SLPC  C21621086   5.782   5.192   5.574 -0.8788  0.5437 -0.2527
  184SLPC  H16R21087   5.681   5.193   5.528 -1.1490  0.7692  0.3385
  184SLPC  H16S21088   5.787   5.287   5.631  0.0082  1.1800 -1.3516
  184SLPC  C21721089   5.791   5.077   5.677 -0.8923  0.5210 -1.1882
  184SLPC  H17R21090   5.888   5.093   5.728 -1.5244 -0.4799  0.4221
  184SLPC  H17S21091   5.793   4.983   5.618  1.1072 -0.2722  0.0319
  184SLPC  C21821092   5.673   5.075   5.779  0.1790 -0.0271 -0.4383
  184SLPC  H18R21093   5.704   5.026   5.874 -1.0577  2.0282  1.1106
  184SLPC  H18S21094   5.579   5.036   5.736 -0.8102  2.3416 -0.6009
  184SLPC  H18T21095   5.660   5.180   5.812  1.9875  1.3492 -3.6391
  184SLPC   C3321096   5.190   5.224   4.200  0.0086  0.3433 -0.1549
  184SLPC   H3X21097   5.275   5.276   4.249  0.7214 -1.0769  0.1622
  184SLPC   H3Y21098   5.213   5.115   4.198  0.5133  0.4478 -0.2980
  184SLPC   C3421099   5.056   5.226   4.282 -0.0676  0.3755 -1.0880
  184SLPC   H4X21100   4.972   5.175   4.230 -2.2724 -1.7851  3.9442
  184SLPC   H4Y21101   5.037   5.334   4.298  0.8730  0.5598 -1.1375
  184SLPC   C3521102   5.069   5.150   4.419 -0.5609  0.4008  0.4676
  184SLPC   H5X21103   5.094   5.043   4.403 -1.2645  0.5498 -2.0132
  184SLPC   H5Y21104   4.978   5.159   4.482  0.0856  0.2655  1.4457
  184SLPC   C3621105   5.184   5.219   4.512 -0.1573  0.3977 -0.0524
  184SLPC   H6X21106   5.169   5.329   4.523  0.5255  0.6559 -1.4469
  184SLPC   H6Y21107   5.280   5.202   4.458  0.2936  0.8624  0.5822
  184SLPC   C3721108   5.197   5.160   4.657  0.2722  0.1903 -0.5633
  184SLPC   H7X21109   5.251   5.063   4.654  0.5889  0.2498  1.7721
  184SLPC   H7Y21110   5.100   5.138   4.705  1.3626 -1.8437  0.8667
  184SLPC   C3821111   5.258   5.262   4.752 -0.0996  0.6249  0.4680
  184SLPC   H8X21112   5.188   5.347   4.769 -0.4259  0.1521  1.6244
  184SLPC   H8Y21113   5.349   5.294   4.698 -0.4068  0.5040 -0.1241
  184SLPC   C3921114   5.301   5.199   4.885 -0.5160  0.4045  0.5160
  184SLPC   H9X21115   5.398   5.147   4.869 -0.1473  0.9210  1.0149
  184SLPC   H9Y21116   5.230   5.116   4.909  1.2783 -0.7318  2.2650
  184SLPC  C31021117   5.316   5.299   4.997  0.6143 -0.0542 -0.3342
  184SLPC  H10X21118   5.216   5.346   5.012  1.3502  1.0987  1.2729
  184SLPC  H10Y21119   5.379   5.385   4.965  0.9822 -0.8470 -1.8526
  184SLPC  C31121120   5.369   5.237   5.129  0.5471  0.4747  0.0566
  184SLPC  H11X21121   5.476   5.208   5.117 -0.0312 -1.8093 -0.0505
  184SLPC  H11Y21122   5.313   5.152   5.173  1.0563  0.7868  1.3478
  184SLPC  C31221123   5.370   5.341   5.239  0.0297  0.4472 -0.1070
  184SLPC  H12X21124   5.267   5.381   5.242  0.1919  0.8304  0.6361
  184SLPC  H12Y21125   5.435   5.428   5.214 -1.9106  1.7617 -0.8293
  184SLPC  C31321126   5.410   5.287   5.378 -0.3089 -0.0827  1.3484
  184SLPC  H13X21127   5.423   5.380   5.438  0.4237  0.1684  0.8131
  184SLPC  H13Y21128   5.507   5.234   5.372  0.3717  1.2542 -0.0350
  184SLPC  C31421129   5.315   5.180   5.437 -0.0282 -0.1059 -0.3144
  184SLPC  H14X21130   5.298   5.093   5.370 -3.3135 -1.2116  1.7374
  184SLPC  H14Y21131   5.216   5.229   5.450 -0.1954 -0.6632  0.6156
  184SLPC  C31521132   5.365   5.111   5.566 -0.1609 -0.2480  0.4926
  184SLPC  H15X21133   5.403   5.187   5.637 -0.8179  0.2808  0.2925
  184SLPC  H15Y21134   5.450   5.040   5.557 -0.9300 -1.2489  0.9029
  184SLPC  C31621135   5.251   5.027   5.626  0.5832  0.2486 -0.2053
  184SLPC  H16X21136   5.168   5.098   5.645 -1.6412 -2.1313 -0.4941
  184SLPC  H16Y21137   5.280   4.985   5.724  0.6101  1.9912  0.5692
  184SLPC  C31721138   5.205   4.917   5.531 -0.3929  0.2601  0.3279
  184SLPC  H17X21139   5.167   4.953   5.433 -1.4663 -2.8664 -0.5511
  184SLPC  H17Y21140   5.112   4.877   5.578 -0.1690  0.3159  0.8247
  184SLPC  C31821141   5.291   4.794   5.513  0.3124  0.0830  0.2290
  184SLPC  H18X21142   5.399   4.820   5.505  0.4080 -0.0769  0.9621
  184SLPC  H18Y21143   5.263   4.730   5.427 -3.1923  3.4755 -1.4401
  184SLPC  H18Z21144   5.277   4.724   5.598  0.8669  0.9272  1.0346
  185POPC     N21145   2.195   5.640   8.136  0.3226 -0.2563 -0.0254
  185POPC   C1221146   2.077   5.584   8.063 -0.1780  0.2266 -0.5552
  185POPC  H12A21147   2.102   5.556   7.962  2.9859 -2.0057  0.7058
  185POPC  H12B21148   1.993   5.653   8.060 -1.2563 -1.0451 -0.8408
  185POPC   C1321149   2.240   5.761   8.066  0.1027  0.3693 -1.1525
  185POPC  H13A21150   2.335   5.798   8.101 -0.7408  1.1927  0.3734
  185POPC  H13B21151   2.254   5.753   7.959  2.4573  2.3593 -1.0791
  185POPC  H13C21152   2.174   5.844   8.087  2.1132  1.5541  1.0868
  185POPC   C1421153   2.158   5.666   8.284  0.1955 -0.6131  0.2645
  185POPC  H14A21154   2.227   5.720   8.347 -0.1827 -0.3091  0.4189
  185POPC  H14B21155   2.066   5.723   8.289 -0.5606 -1.6001 -1.6665
  185POPC  H14C21156   2.144   5.570   8.332  1.2833 -0.1639  1.5751
  185POPC   C1521157   2.313   5.543   8.141 -0.4413  1.1325 -0.4063
  185POPC  H15A21158   2.393   5.586   8.199  0.8876 -0.7767 -0.7303
  185POPC  H15B21159   2.357   5.526   8.044  0.8113  0.4369  0.2558
  185POPC  H15C21160   2.279   5.448   8.181 -2.6757  0.6730 -3.0955
  185POPC   C1121161   2.010   5.458   8.125  0.1982 -0.5082 -0.1718
  185POPC  H11A21162   1.913   5.446   8.073 -0.0933 -1.5692  0.5810
  185POPC  H11B21163   1.997   5.484   8.232  2.2817  1.3783 -0.2913
  185POPC     P21164   2.113   5.279   7.969  0.0431 -0.2954 -0.4633
  185POPC   O1321165   2.197   5.158   7.985 -0.3607 -1.0122  0.3507
  185POPC   O1421166   2.168   5.383   7.872  0.6893 -0.0636  0.1902
  185POPC   O1221167   2.096   5.344   8.114  0.0213 -0.5351 -0.1044
  185POPC   O1121168   1.977   5.232   7.921  0.9332  0.4309 -0.2626
  185POPC    C121169   1.938   5.094   7.887 -0.1819  0.4829  0.4275
  185POPC    HA21170   1.842   5.058   7.930 -0.3085  0.0798 -0.1865
  185POPC    HB21171   2.018   5.025   7.920 -0.8222 -0.3461  0.2693
  185POPC    C221172   1.903   5.070   7.733 -0.9199 -0.0283  0.2812
  185POPC    HS21173   1.871   4.965   7.716  0.0727 -0.4115  0.6537
  185POPC   O2121174   2.016   5.104   7.651  0.2557 -0.0273  0.2221
  185POPC   C2121175   2.108   5.015   7.639 -0.2661 -0.5393  0.0063
  185POPC   O2221176   2.108   4.906   7.684  0.3384  0.2391  0.0218
  185POPC   C2221177   2.238   5.080   7.579 -1.0689  0.2542  0.0987
  185POPC   H2R21178   2.320   5.009   7.600 -2.8266 -1.8733  0.1102
  185POPC   H2S21179   2.250   5.177   7.632  0.1122  0.1235  0.1055
  185POPC    C321180   1.783   5.149   7.678  0.2463 -0.4286  0.1793
  185POPC    HX21181   1.809   5.256   7.690  2.7871 -1.0638  1.2480
  185POPC    HY21182   1.703   5.116   7.748  1.6212 -1.4658  1.3382
  185POPC   O3121183   1.743   5.108   7.545  0.4420  0.0776  0.1307
  185POPC   C3121184   1.790   5.182   7.447  0.3858 -0.3697  0.0257
  185POPC   O3221185   1.843   5.291   7.458  0.5211  0.0302  0.8581
  185POPC   C3221186   1.763   5.101   7.318 -0.0288 -0.2894  0.3215
  185POPC   H2X21187   1.661   5.057   7.326 -0.1283 -0.4607 -1.3937
  185POPC   H2Y21188   1.837   5.022   7.293  0.4658  0.0804  0.6120
  185POPC   C2321189   2.234   5.103   7.423  0.5053 -0.1301 -0.3764
  185POPC   H3R21190   2.323   5.164   7.395  0.8236  0.7441  2.1886
  185POPC   H3S21191   2.143   5.165   7.410  0.0545 -0.5310  0.7134
  185POPC   C2421192   2.216   4.977   7.334  0.6752  0.4570  0.1286
  185POPC   H4R21193   2.131   4.914   7.369  1.0771 -1.1002 -1.4982
  185POPC   H4S21194   2.301   4.905   7.346 -0.1078 -0.4033  0.6739
  185POPC   C2521195   2.189   5.017   7.185  0.6891 -0.7413 -0.1992
  185POPC   H5R21196   2.270   5.093   7.174 -1.6078  2.9626  4.3486
  185POPC   H5S21197   2.094   5.074   7.181  1.5472  1.9014  5.6095
  185POPC   C2621198   2.198   4.896   7.093  0.3084 -0.0798 -0.4865
  185POPC   H6R21199   2.117   4.824   7.122 -0.9685  1.5253  0.0919
  185POPC   H6S21200   2.300   4.854   7.101 -0.1932 -1.4342 -0.7789
  185POPC   C2721201   2.184   4.933   6.942  0.1707 -0.0740  0.3850
  185POPC   H7R21202   2.221   4.859   6.867  2.0601 -0.4832  1.6510
  185POPC   H7S21203   2.250   5.018   6.916 -0.4504 -0.1921 -1.7561
  185POPC   C2821204   2.034   4.977   6.909  0.3143  0.8810 -0.9560
  185POPC   H8R21205   2.035   5.026   6.809 -2.0331  2.5558 -0.2441
  185POPC   H8S21206   2.005   5.046   6.991  0.4836 -0.4319  0.2427
  185POPC   C2921207   1.936   4.855   6.906 -0.5429  0.6310 -0.9565
  185POPC   H9121208   1.912   4.818   7.007 -1.6862  2.4016 -0.5327
  185POPC  C21021209   1.896   4.788   6.800 -0.5527  0.9914  0.8841
  185POPC  H10121210   1.849   4.693   6.831 -0.5934  0.7644  0.1384
  185POPC  C21121211   1.911   4.826   6.656  0.1704  0.7466  0.7330
  185POPC  H11R21212   1.927   4.740   6.589  0.5129  1.3328  0.0494
  185POPC  H11S21213   1.997   4.896   6.641  0.0911  0.3093 -2.4225
  185POPC  C21221214   1.789   4.899   6.612  0.8646 -0.3109 -0.2693
  185POPC  H12R21215   1.753   4.973   6.686 -1.4146 -1.1947 -0.3936
  185POPC  H12S21216   1.700   4.832   6.600 -0.2187  0.7400  1.5577
  185POPC  C21321217   1.814   4.955   6.472 -0.1427  0.7571  0.2852
  185POPC  H13R21218   1.717   4.958   6.419 -0.3350 -1.2019  0.4683
  185POPC  H13S21219   1.878   4.881   6.420 -0.7816  0.1105  0.4109
  185POPC  C21421220   1.881   5.090   6.460 -0.2041  0.2784  0.0026
  185POPC  H14R21221   1.975   5.062   6.513 -0.4236  0.0099  0.2511
  185POPC  H14S21222   1.830   5.164   6.526 -1.6665  0.5167 -1.3292
  185POPC  C21521223   1.866   5.150   6.318  0.4031 -0.0869  0.6203
  185POPC  H15R21224   1.909   5.251   6.307 -1.0234  0.2992 -2.3296
  185POPC  H15S21225   1.759   5.168   6.293  0.5845  0.3670  0.1809
  185POPC  C21621226   1.946   5.064   6.212  0.0283 -0.2446  0.1483
  185POPC  H16R21227   2.028   5.013   6.267  0.2305  0.8624  0.8857
  185POPC  H16S21228   1.993   5.122   6.129 -2.5272  4.1945  1.4969
  185POPC  C21721229   1.873   4.955   6.125  0.4365 -0.1159  0.6579
  185POPC  H17R21230   1.854   4.864   6.186 -1.2259  0.1066  0.5411
  185POPC  H17S21231   1.937   4.924   6.040 -0.6727  0.2396 -0.3288
  185POPC  C21821232   1.733   5.000   6.070  0.7121 -0.6372 -0.3079
  185POPC  H18R21233   1.749   5.082   5.996 -1.1481 -0.5393 -0.6503
  185POPC  H18S21234   1.670   5.056   6.142  1.1965  1.2648 -1.2786
  185POPC  H18T21235   1.676   4.911   6.033 -1.2018  0.4212 -0.0499
  185POPC   C3321236   1.772   5.189   7.191  0.2529  0.1027 -0.6579
  185POPC   H3X21237   1.877   5.201   7.156  1.3275 -1.1852  1.8453
  185POPC   H3Y21238   1.743   5.295   7.209  1.1186  0.1849  0.3721
  185POPC   C3421239   1.682   5.132   7.084 -0.0169 -0.1024  0.1420
  185POPC   H4X21240   1.579   5.125   7.125 -0.3024 -1.3629 -0.7289
  185POPC   H4Y21241   1.720   5.034   7.050  2.4202  0.6497  0.5365
  185POPC   C3521242   1.695   5.226   6.961 -0.3081 -0.1388  0.3748
  185POPC   H5X21243   1.801   5.222   6.928 -0.1883  2.4929  0.2867
  185POPC   H5Y21244   1.688   5.333   6.991  0.4779  0.3475 -1.1121
  185POPC   C3621245   1.602   5.212   6.841  0.6416  0.7688 -0.5361
  185POPC   H6X21246   1.504   5.235   6.888  0.6805 -1.1794  0.5969
  185POPC   H6Y21247   1.603   5.108   6.803 -1.1023  0.9465 -1.1609
  185POPC   C3721248   1.642   5.306   6.724  0.1788  0.3947  0.1330
  185POPC   H7X21249   1.748   5.288   6.699 -0.3558 -2.1849 -0.5590
  185POPC   H7Y21250   1.641   5.412   6.758  1.8991  1.3312 -2.4809
  185POPC   C3821251   1.554   5.288   6.597  0.9184 -0.4350 -0.2049
  185POPC   H8X21252   1.451   5.323   6.616 -0.2972 -2.6366 -2.1408
  185POPC   H8Y21253   1.541   5.182   6.565  1.9910 -0.1493 -1.7139
  185POPC   C3921254   1.613   5.371   6.481  0.4236 -0.1601 -0.2345
  185POPC   H9X21255   1.702   5.330   6.428  0.6997  0.4051 -0.2273
  185POPC   H9Y21256   1.634   5.471   6.525 -1.1679 -0.1610  0.6059
  185POPC  C31021257   1.513   5.377   6.361 -0.0411  0.4283 -0.8740
  185POPC  H10X21258   1.418   5.412   6.406  1.3135  1.2037  1.6028
  185POPC  H10Y21259   1.504   5.269   6.336 -1.1979 -0.3086  2.2135
  185POPC  C31121260   1.559   5.457   6.234 -0.3015 -0.3141 -0.0404
  185POPC  H11X21261   1.666   5.443   6.209  0.1361  1.9947  0.2849
  185POPC  H11Y21262   1.565   5.567   6.252  2.3228 -0.2358 -0.9093
  185POPC  C31221263   1.462   5.438   6.115  0.3034  0.0194  0.0654
  185POPC  H12X21264   1.492   5.487   6.020  1.1438 -1.6077 -0.5549
  185POPC  H12Y21265   1.365   5.489   6.134  0.6610  1.1642 -1.0171
  185POPC  C31321266   1.434   5.293   6.076 -0.2751  0.6172  0.1362
  185POPC  H13X21267   1.398   5.237   6.165  1.6838 -1.2546 -0.1743
  185POPC  H13Y21268   1.521   5.234   6.040 -1.2472  0.7719 -2.6535
  185POPC  C31421269   1.317   5.279   5.964 -0.0234 -0.0008  0.1683
  185POPC  H14X21270   1.304   5.169   5.953  0.9987 -0.0352 -0.8448
  185POPC  H14Y21271   1.348   5.332   5.872  0.2840  1.3659  1.0313
  185POPC  C31521272   1.179   5.341   6.007  0.3108 -0.0214 -0.6462
  185POPC  H15X21273   1.186   5.450   5.989  2.1474 -0.0058 -0.0533
  185POPC  H15Y21274   1.172   5.318   6.116  1.6036  3.0844  0.2116
  185POPC  C31621275   1.067   5.294   5.917 -0.0866 -0.0707  0.6084
  185POPC  H16X21276   1.045   5.185   5.923 -1.0299  0.1307  1.0080
  185POPC  H16Y21277   1.083   5.316   5.810  0.4629 -1.1784  0.4539
  185POPC  H16Z21278   0.974   5.342   5.954 -1.3741 -1.9136 -0.1262
  186POPC     N21279   6.410   6.490   8.577 -0.1726  0.2795  0.5268
  186POPC   C1221280   6.461   6.353   8.524 -0.3330  0.2909  0.2567
  186POPC  H12A21281   6.375   6.294   8.495  0.9374 -1.7041  0.4371
  186POPC  H12B21282   6.514   6.299   8.600  0.4976  1.6812  0.6941
  186POPC   C1321283   6.522   6.581   8.595  0.0086  0.1363 -0.2506
  186POPC  H13A21284   6.592   6.548   8.670 -1.6532 -1.1915  0.7915
  186POPC  H13B21285   6.579   6.596   8.505  1.8585 -0.6646  0.7429
  186POPC  H13C21286   6.491   6.680   8.628 -0.4759  0.5231 -1.7825
  186POPC   C1421287   6.338   6.549   8.464  0.5027 -0.4096  0.0137
  186POPC  H14A21288   6.397   6.528   8.376  1.1971 -2.1605  0.8418
  186POPC  H14B21289   6.236   6.514   8.466 -0.3020  1.8253  1.0592
  186POPC  H14C21290   6.328   6.656   8.478  1.5438  0.0714 -2.3307
  186POPC   C1521291   6.322   6.472   8.695 -0.4036  0.5410  0.0675
  186POPC  H15A21292   6.227   6.423   8.678 -0.4041 -0.0512  1.5839
  186POPC  H15B21293   6.292   6.574   8.716  1.5736  1.7919 -2.5969
  186POPC  H15C21294   6.375   6.432   8.780 -3.0540  0.2017  1.7056
  186POPC   C1121295   6.563   6.340   8.406 -0.2882 -0.4420 -0.0364
  186POPC  H11A21296   6.597   6.235   8.392  1.4471 -0.3542  2.7135
  186POPC  H11B21297   6.655   6.399   8.425 -0.0357 -0.4815 -1.1056
  186POPC     P21298   6.412   6.316   8.202 -0.2255 -0.4475  0.1106
  186POPC   O1321299   6.407   6.379   8.067 -0.0872 -0.0570  0.5151
  186POPC   O1421300   6.282   6.307   8.271  0.1594 -0.1359 -0.1389
  186POPC   O1221301   6.506   6.399   8.290 -0.0101 -0.6069 -0.3411
  186POPC   O1121302   6.470   6.177   8.191 -0.0531 -0.0173 -0.4071
  186POPC    C121303   6.573   6.151   8.095  0.0506 -0.6117 -0.1083
  186POPC    HA21304   6.645   6.089   8.153  0.0612 -1.2224 -0.7685
  186POPC    HB21305   6.632   6.236   8.056  0.3969  0.0183  1.6603
  186POPC    C221306   6.540   6.056   7.972  0.5253 -0.8270  0.8013
  186POPC    HS21307   6.635   6.030   7.920 -0.2602  0.3388 -1.3610
  186POPC   O2121308   6.448   6.111   7.874 -0.0120 -0.2174  0.3570
  186POPC   C2121309   6.485   6.225   7.820  0.1082 -0.6232  0.3502
  186POPC   O2221310   6.599   6.273   7.820  0.3918  0.5141 -0.9064
  186POPC   C2221311   6.372   6.284   7.736 -0.0844 -0.0055 -0.2038
  186POPC   H2R21312   6.327   6.349   7.814  1.8255  1.5506 -0.2969
  186POPC   H2S21313   6.304   6.206   7.698  0.6294 -1.4523  1.3261
  186POPC    C321314   6.490   5.922   8.016 -0.7477 -0.0698  0.2858
  186POPC    HX21315   6.396   5.939   8.072 -2.3522  1.3487 -2.5812
  186POPC    HY21316   6.577   5.882   8.073  0.0361 -0.1704 -0.9493
  186POPC   O3121317   6.467   5.826   7.906  0.5760 -0.0084  0.0124
  186POPC   C3121318   6.338   5.826   7.853 -0.0142 -0.3095 -0.0962
  186POPC   O3221319   6.249   5.898   7.895 -0.1762  0.4028  0.3826
  186POPC   C3221320   6.336   5.740   7.732  0.1697 -0.3898 -0.0327
  186POPC   H2X21321   6.248   5.673   7.739  0.4931 -0.7729  0.4742
  186POPC   H2Y21322   6.427   5.676   7.726  0.1155 -0.4102 -0.7287
  186POPC   C2321323   6.427   6.383   7.636 -0.0143 -0.1271  0.3864
  186POPC   H3R21324   6.515   6.352   7.575  0.6939 -0.5485  1.5831
  186POPC   H3S21325   6.450   6.475   7.693 -1.3674  0.1751  0.4850
  186POPC   C2421326   6.307   6.400   7.536 -0.8283  0.2168 -0.4903
  186POPC   H4R21327   6.222   6.441   7.593 -0.6681 -1.0650  0.7124
  186POPC   H4S21328   6.277   6.302   7.494 -3.2747  0.7479 -0.1371
  186POPC   C2521329   6.339   6.499   7.425  0.4953 -0.2450  0.3461
  186POPC   H5R21330   6.419   6.571   7.454 -0.5051  0.9658  0.2060
  186POPC   H5S21331   6.249   6.560   7.402 -0.0452 -1.0247  0.3713
  186POPC   C2621332   6.391   6.439   7.296  0.0875 -0.4117 -0.4538
  186POPC   H6R21333   6.323   6.357   7.266 -1.3159 -0.2178  1.9518
  186POPC   H6S21334   6.490   6.391   7.314 -0.2921 -1.7071 -1.7005
  186POPC   C2721335   6.437   6.543   7.193  0.0971  0.1297  0.3659
  186POPC   H7R21336   6.520   6.607   7.227  0.6836 -0.6294  0.3972
  186POPC   H7S21337   6.352   6.608   7.162 -0.8373 -1.0207  0.4205
  186POPC   C2821338   6.480   6.478   7.062  0.4113 -0.0081 -0.0162
  186POPC   H8R21339   6.395   6.443   6.999  1.0329 -1.2150 -0.2130
  186POPC   H8S21340   6.532   6.384   7.093  0.4973  0.1985  0.4652
  186POPC   C2921341   6.575   6.560   6.977  0.3638  0.0861  0.2590
  186POPC   H9121342   6.653   6.603   7.041 -1.6060  1.9302  1.5851
  186POPC  C21021343   6.570   6.559   6.842 -0.4416  0.2708  0.4220
  186POPC  H10121344   6.648   6.613   6.786  2.0010 -0.8777  2.5302
  186POPC  C21121345   6.465   6.503   6.750  0.7231 -0.0517  0.4338
  186POPC  H11R21346   6.367   6.497   6.802  0.7771 -0.5856  0.4806
  186POPC  H11S21347   6.488   6.396   6.728  0.6145 -0.1475  0.7773
  186POPC  C21221348   6.441   6.573   6.616  0.4332 -1.3126  0.4009
  186POPC  H12R21349   6.408   6.677   6.638 -0.8085 -2.0988  2.4232
  186POPC  H12S21350   6.363   6.524   6.554 -0.3277  0.8582 -0.4794
  186POPC  C21321351   6.572   6.572   6.527  0.7870 -0.4459  0.2171
  186POPC  H13R21352   6.604   6.466   6.519  0.4398 -0.4850 -0.7795
  186POPC  H13S21353   6.652   6.628   6.581 -0.9995  1.6156  0.8523
  186POPC  C21421354   6.538   6.619   6.384  0.3591  0.2237 -0.8342
  186POPC  H14R21355   6.625   6.631   6.317  0.4179  1.4765 -0.5607
  186POPC  H14S21356   6.495   6.721   6.395  0.7083  0.0959  2.8955
  186POPC  C21521357   6.444   6.519   6.312 -0.5800  0.5248  0.2025
  186POPC  H15R21358   6.360   6.490   6.378  0.8491 -0.2769  1.7542
  186POPC  H15S21359   6.496   6.426   6.282 -1.0460 -0.0222  1.0893
  186POPC  C21621360   6.386   6.590   6.190  0.0512  0.5661 -0.0573
  186POPC  H16R21361   6.386   6.700   6.205 -0.8343  0.6648 -0.7612
  186POPC  H16S21362   6.284   6.549   6.181  0.8914 -1.9567  0.9578
  186POPC  C21721363   6.462   6.562   6.055 -0.4017 -0.3490  0.2476
  186POPC  H17R21364   6.570   6.585   6.071 -0.0127 -1.0536 -1.2407
  186POPC  H17S21365   6.427   6.642   5.986 -1.5825 -0.8873  0.2112
  186POPC  C21821366   6.431   6.425   5.997 -0.0407  0.2555 -0.2332
  186POPC  H18R21367   6.500   6.390   5.917  1.4023  1.4797  0.4288
  186POPC  H18S21368   6.331   6.424   5.948  0.5862 -1.0736 -1.5628
  186POPC  H18T21369   6.431   6.351   6.080 -0.6374 -1.8483 -2.0196
  186POPC   C3321370   6.337   5.838   7.614 -0.0518 -0.1909  0.9623
  186POPC   H3X21371   6.256   5.914   7.617  0.5261  0.4549  0.5233
  186POPC   H3Y21372   6.318   5.775   7.524  2.9904  1.5557 -1.1144
  186POPC   C3421373   6.461   5.912   7.587  0.3982 -0.1610 -0.1476
  186POPC   H4X21374   6.545   5.840   7.575  1.6605  0.6976  2.5969
  186POPC   H4Y21375   6.502   5.977   7.668  1.1738 -0.7467 -0.0606
  186POPC   C3521376   6.433   6.009   7.475  0.6078  0.8638 -0.2629
  186POPC   H5X21377   6.530   6.064   7.467  1.5927 -0.6757  0.6160
  186POPC   H5Y21378   6.353   6.086   7.484 -1.0362 -0.3710 -2.9266
  186POPC   C3621379   6.427   5.945   7.333  0.4591  0.0995  0.1476
  186POPC   H6X21380   6.336   5.881   7.335 -1.0167  2.0539  3.3146
  186POPC   H6Y21381   6.519   5.885   7.312  1.8073  2.2865 -0.5338
  186POPC   C3721382   6.415   6.041   7.214 -0.0640  0.1320 -0.0822
  186POPC   H7X21383   6.492   6.120   7.230 -2.3297  2.4171  0.2593
  186POPC   H7Y21384   6.322   6.101   7.214  0.6442  1.3169  1.5414
  186POPC   C3821385   6.440   5.974   7.076 -0.2133 -0.8021 -0.0070
  186POPC   H8X21386   6.351   5.915   7.045  0.8027 -2.3312 -0.0960
  186POPC   H8Y21387   6.538   5.924   7.070  1.5776  2.4785 -0.4535
  186POPC   C3921388   6.456   6.080   6.967  0.2067  0.1671  0.7028
  186POPC   H9X21389   6.551   6.132   6.991  2.0567 -2.3140 -0.8560
  186POPC   H9Y21390   6.377   6.158   6.976  1.9382  2.3888 -1.6321
  186POPC  C31021391   6.446   6.011   6.834  0.3806 -0.0173  0.5737
  186POPC  H10X21392   6.354   5.950   6.820  0.7444 -0.7488  1.3016
  186POPC  H10Y21393   6.529   5.938   6.825  0.2200 -0.3065  1.3075
  186POPC  C31121394   6.465   6.109   6.717 -0.4597 -0.2780  0.4315
  186POPC  H11X21395   6.563   6.160   6.715 -0.6764  0.1414  0.3721
  186POPC  H11Y21396   6.381   6.182   6.721  0.4631  0.8620 -0.5399
  186POPC  C31221397   6.429   6.041   6.581  0.4298 -0.3086  0.5696
  186POPC  H12X21398   6.325   6.004   6.580 -0.3527  1.6934 -1.1436
  186POPC  H12Y21399   6.508   5.967   6.555  1.9697  1.7056 -0.9088
  186POPC  C31321400   6.440   6.141   6.462  0.3277 -0.4569 -0.3099
  186POPC  H13X21401   6.546   6.176   6.463 -0.6350  2.8609  1.0121
  186POPC  H13Y21402   6.370   6.224   6.483  0.8354 -0.6230  2.3634
  186POPC  C31421403   6.421   6.090   6.324  0.1504 -0.0043 -0.3729
  186POPC  H14X21404   6.425   6.169   6.246  0.3290 -2.6357 -3.2156
  186POPC  H14Y21405   6.320   6.046   6.335 -0.9469  2.4774  0.3811
  186POPC  C31521406   6.519   5.981   6.273 -0.2106 -0.2296 -0.4016
  186POPC  H15X21407   6.490   5.878   6.303  0.4865 -0.2952  0.0685
  186POPC  H15Y21408   6.617   6.005   6.318  0.3996 -1.3976 -1.0556
  186POPC  C31621409   6.528   5.985   6.124 -0.6916  0.3180  0.3900
  186POPC  H16X21410   6.422   6.000   6.093 -0.5305  0.3830 -0.1289
  186POPC  H16Y21411   6.541   5.882   6.084 -1.8615  0.8170 -1.3945
  186POPC  H16Z21412   6.593   6.063   6.080  0.7698 -0.7105  0.6647
  187POPC     N21413   5.058   0.929   3.554 -0.0350  0.0579  0.4028
  187POPC   C1221414   4.946   0.851   3.470  0.3138 -1.2044 -0.3534
  187POPC  H12A21415   4.990   0.768   3.416  1.2255 -1.5959  0.9436
  187POPC  H12B21416   4.915   0.917   3.390  2.0012 -0.0571 -0.1146
  187POPC   C1321417   4.989   1.058   3.596 -0.3789  0.5403  0.4407
  187POPC  H13A21418   4.901   1.032   3.654 -1.5548  0.6449 -1.2204
  187POPC  H13B21419   5.057   1.121   3.651  0.2472  0.5696 -0.3555
  187POPC  H13C21420   4.965   1.114   3.507 -1.1047 -1.3656 -0.6144
  187POPC   C1421421   5.111   0.858   3.667  0.0036 -0.1259 -0.3753
  187POPC  H14A21422   5.150   0.759   3.651 -3.0176 -1.2401 -1.5322
  187POPC  H14B21423   5.180   0.915   3.728  0.3212  0.4535 -1.2421
  187POPC  H14C21424   5.025   0.838   3.728  0.0983  1.1197  0.2035
  187POPC   C1521425   5.165   0.973   3.460  0.3274 -0.0543 -0.3028
  187POPC  H15A21426   5.196   0.892   3.396 -0.2892 -0.8881  0.4217
  187POPC  H15B21427   5.243   1.017   3.519 -0.2913 -0.5045  0.8738
  187POPC  H15C21428   5.130   1.049   3.391  0.3143  0.3262  0.1243
  187POPC   C1121429   4.819   0.797   3.544  0.4963 -1.0801  0.0723
  187POPC  H11A21430   4.756   0.748   3.467  0.9776 -1.7473  0.0944
  187POPC  H11B21431   4.773   0.887   3.589  0.2564 -0.7122 -0.8829
  187POPC     P21432   4.775   0.566   3.653 -0.2773  0.3264 -0.4929
  187POPC   O1321433   4.832   0.460   3.567  0.2183 -0.3115  0.5343
  187POPC   O1421434   4.631   0.590   3.643 -0.3248 -0.0920  0.4226
  187POPC   O1221435   4.855   0.708   3.645 -0.1136 -0.1061 -0.0292
  187POPC   O1121436   4.790   0.514   3.803  0.3860  0.7882 -0.0833
  187POPC    C121437   4.898   0.566   3.886  0.9203  0.2897 -0.1309
  187POPC    HA21438   4.973   0.623   3.827  2.5287  1.2561  2.6202
  187POPC    HB21439   4.940   0.473   3.929  1.0429  0.6289  0.5071
  187POPC    C221440   4.845   0.650   4.008  0.3096  0.0920 -0.1702
  187POPC    HS21441   4.932   0.670   4.074  0.2439  1.4093 -0.4558
  187POPC   O2121442   4.728   0.583   4.075  0.1453  0.7159  0.0398
  187POPC   C2121443   4.766   0.516   4.175  0.0763  0.6807  0.2669
  187POPC   O2221444   4.884   0.493   4.203 -0.0017 -0.3825  0.0188
  187POPC   C2221445   4.654   0.477   4.263  0.4799  0.6227  0.0364
  187POPC   H2R21446   4.576   0.420   4.208 -0.3793 -0.8375  2.5737
  187POPC   H2S21447   4.596   0.563   4.304 -0.0554  0.3013 -0.0381
  187POPC    C321448   4.804   0.785   3.960  0.7435 -0.0592  0.3562
  187POPC    HX21449   4.730   0.758   3.881  0.6121  1.2235  0.0171
  187POPC    HY21450   4.883   0.839   3.904  0.3289  0.3237  0.1368
  187POPC   O3121451   4.750   0.870   4.064  0.9278  0.2930 -0.1694
  187POPC   C3121452   4.624   0.847   4.107 -0.4278  0.0182  0.2974
  187POPC   O3221453   4.533   0.784   4.055 -0.4027  1.2280  0.2595
  187POPC   C3221454   4.609   0.926   4.239  0.2106  0.2890 -0.3774
  187POPC   H2X21455   4.504   0.958   4.255  0.0832  0.5016 -1.5858
  187POPC   H2Y21456   4.670   1.015   4.214  1.7231 -0.5334  0.2533
  187POPC   C2321457   4.694   0.394   4.387 -0.3028  0.1677 -0.1746
  187POPC   H3R21458   4.739   0.466   4.460  2.3503 -2.3331  0.8343
  187POPC   H3S21459   4.774   0.320   4.365 -0.0057  1.0834 -2.3913
  187POPC   C2421460   4.565   0.325   4.441  0.5421 -0.8475 -1.5126
  187POPC   H4R21461   4.524   0.252   4.367 -1.7629 -0.8102 -0.3818
  187POPC   H4S21462   4.485   0.396   4.471 -1.1096 -2.8405 -0.9650
  187POPC   C2521463   4.601   0.242   4.569  0.2437 -0.4724  0.0867
  187POPC   H5R21464   4.703   0.196   4.568  0.4619 -0.0364  0.9710
  187POPC   H5S21465   4.528   0.160   4.586  0.8626 -0.5575  2.7226
  187POPC   C2621466   4.601   0.316   4.703 -0.3434 -0.3457 -0.2269
  187POPC   H6R21467   4.505   0.367   4.722 -0.5278 -0.2598 -1.3188
  187POPC   H6S21468   4.693   0.379   4.701  0.5624 -1.2251  3.8182
  187POPC   C2721469   4.618   0.227   4.829  0.5895 -0.4062  0.2891
  187POPC   H7R21470   4.710   0.166   4.814 -0.2505 -1.9841  1.2302
  187POPC   H7S21471   4.529   0.161   4.838 -1.3806  2.0534 -0.1432
  187POPC   C2821472   4.623   0.318   4.952  0.1449  0.2543  0.5811
  187POPC   H8R21473   4.600   0.248   5.035 -3.0508 -1.2514 -1.3652
  187POPC   H8S21474   4.531   0.380   4.950 -0.5616 -0.5511  3.3108
  187POPC   C2921475   4.747   0.398   4.960  0.2401 -0.3895 -0.9128
  187POPC   H9121476   4.742   0.508   4.957 -1.6090 -0.1686  3.2142
  187POPC  C21021477   4.854   0.353   5.028 -0.3375 -0.3898  0.3100
  187POPC  H10121478   4.940   0.420   5.035  0.6707 -1.7409  1.7144
  187POPC  C21121479   4.888   0.205   5.062 -0.2868 -0.1522 -0.0300
  187POPC  H11R21480   4.964   0.177   4.986 -0.6988  0.5931 -0.7349
  187POPC  H11S21481   4.806   0.134   5.038  1.1952 -2.2436  0.7699
  187POPC  C21221482   4.923   0.195   5.211 -0.1086  0.3684  0.4996
  187POPC  H12R21483   5.000   0.272   5.231  1.6853 -1.2142  0.0025
  187POPC  H12S21484   4.967   0.095   5.233  1.4479  0.4030 -2.0831
  187POPC  C21321485   4.794   0.226   5.289  0.1728 -0.3449 -0.3538
  187POPC  H13R21486   4.731   0.310   5.252 -0.2271 -0.9401 -1.0268
  187POPC  H13S21487   4.821   0.255   5.393  2.4293  0.4612 -1.1067
  187POPC  C21421488   4.708   0.098   5.300  0.8324  0.1076 -0.1077
  187POPC  H14R21489   4.743   0.015   5.365 -0.1217  0.2051  0.5540
  187POPC  H14S21490   4.698   0.059   5.197  1.1320  0.3372 -0.2239
  187POPC  C21521491   4.568   0.126   5.367  0.8212  0.2975  0.1782
  187POPC  H15R21492   4.508   0.033   5.356  0.9469  0.1505  0.7200
  187POPC  H15S21493   4.529   0.203   5.298  1.4489  0.8526  0.4374
  187POPC  C21621494   4.566   0.167   5.514  0.5834  0.1622 -0.3391
  187POPC  H16R21495   4.614   0.267   5.521  1.2301  0.0711 -2.7282
  187POPC  H16S21496   4.619   0.086   5.568  1.5693  1.0248  0.0227
  187POPC  C21721497   4.413   0.180   5.559 -0.1016 -0.4002 -0.2961
  187POPC  H17R21498   4.361   0.082   5.560  1.1333 -1.1019 -1.3814
  187POPC  H17S21499   4.354   0.250   5.496  0.6294 -0.5026 -1.1169
  187POPC  C21821500   4.403   0.239   5.701 -0.7373 -0.3116 -0.5151
  187POPC  H18R21501   4.302   0.272   5.733 -0.4717 -0.8400  0.9529
  187POPC  H18S21502   4.481   0.314   5.728 -1.2033  0.2798 -0.7964
  187POPC  H18T21503   4.427   0.157   5.772  0.2692 -1.9686 -2.6440
  187POPC   C3321504   4.662   0.849   4.364  0.0801  0.3927  0.2654
  187POPC   H3X21505   4.762   0.802   4.351 -0.1433 -0.7451  2.2030
  187POPC   H3Y21506   4.586   0.771   4.387  0.1636  0.8597  2.3235
  187POPC   C3421507   4.661   0.932   4.493 -0.4380 -0.6306  0.6895
  187POPC   H4X21508   4.560   0.978   4.506 -0.0860  0.4230 -0.1852
  187POPC   H4Y21509   4.729   1.019   4.486  0.1420 -1.1361 -0.1302
  187POPC   C3521510   4.706   0.851   4.612  0.5680  0.0565  0.1780
  187POPC   H5X21511   4.816   0.837   4.605  0.4912 -0.5138  0.0946
  187POPC   H5Y21512   4.658   0.751   4.605  1.6356 -0.5221  0.8409
  187POPC   C3621513   4.668   0.926   4.744 -0.2149  0.3041 -0.3018
  187POPC   H6X21514   4.565   0.966   4.732 -0.5442 -0.2496  0.6154
  187POPC   H6Y21515   4.746   1.006   4.746  2.6878 -2.3243 -0.3796
  187POPC   C3721516   4.679   0.845   4.874 -0.1661  0.1850 -0.6728
  187POPC   H7X21517   4.642   0.741   4.865  0.3824 -0.1975  1.0297
  187POPC   H7Y21518   4.618   0.888   4.957  0.5197  1.2328 -0.6935
  187POPC   C3821519   4.820   0.832   4.930 -0.2184 -0.3312 -0.0269
  187POPC   H8X21520   4.868   0.932   4.931 -0.3488 -0.1929  3.0283
  187POPC   H8Y21521   4.882   0.762   4.870 -0.0631  0.1310 -0.4135
  187POPC   C3921522   4.828   0.780   5.076  0.7203  0.3538 -1.0436
  187POPC   H9X21523   4.793   0.675   5.078 -0.4767  0.7413  1.1799
  187POPC   H9Y21524   4.750   0.835   5.132  0.1554 -0.0240 -1.4453
  187POPC  C31021525   4.971   0.777   5.131  0.1816  0.6561  0.0175
  187POPC  H10X21526   5.004   0.882   5.149  2.2160 -0.3643  3.0671
  187POPC  H10Y21527   5.037   0.732   5.054  0.6086  2.2590 -0.5959
  187POPC  C31121528   4.992   0.705   5.264  0.1825 -0.3211  0.7657
  187POPC  H11X21529   4.969   0.597   5.253  1.2419 -0.5512  0.6448
  187POPC  H11Y21530   4.936   0.754   5.346 -0.2505  0.4923 -0.0007
  187POPC  C31221531   5.126   0.727   5.322 -0.3073 -0.1949 -0.0852
  187POPC  H12X21532   5.147   0.834   5.301 -1.8433  0.3437  0.9116
  187POPC  H12Y21533   5.202   0.668   5.267  0.9114  0.2788  1.0459
  187POPC  C31321534   5.134   0.689   5.478  0.1774  0.0379  0.2458
  187POPC  H13X21535   5.242   0.700   5.503 -0.2866  1.7204  1.7203
  187POPC  H13Y21536   5.101   0.584   5.497 -0.5050  0.3565  0.8623
  187POPC  C31421537   5.059   0.792   5.573  0.8490  0.0141  0.1025
  187POPC  H14X21538   5.085   0.773   5.679 -0.0894  2.1512  0.7567
  187POPC  H14Y21539   4.949   0.776   5.578  0.8939  0.1013  2.4760
  187POPC  C31521540   5.085   0.942   5.538 -0.7735 -0.0441  0.5781
  187POPC  H15X21541   5.031   0.955   5.442 -0.3172 -0.3584  0.2786
  187POPC  H15Y21542   5.193   0.950   5.512 -1.2930 -2.0366 -2.7478
  187POPC  C31621543   5.038   1.046   5.638 -0.6494 -0.5969  0.1866
  187POPC  H16X21544   5.097   1.026   5.731  0.5330 -4.6470 -1.2034
  187POPC  H16Y21545   4.932   1.027   5.663 -1.4044  1.3211 -1.3020
  187POPC  H16Z21546   5.045   1.154   5.614  0.7465 -1.2586 -2.7682
  188POPC     N21547   5.936   0.142   3.805 -0.0559  0.0850  0.2955
  188POPC   C1221548   5.860   0.012   3.844  0.6442 -1.1632  0.1692
  188POPC  H12A21549   5.894  -0.051   3.763  2.3739 -1.9114  1.4383
  188POPC  H12B21550   5.753   0.026   3.844  0.5273 -2.0460  0.4381
  188POPC   C1321551   5.897   0.256   3.898  1.2879  0.2022  0.6937
  188POPC  H13A21552   5.926   0.348   3.851  1.0341 -0.4224 -0.7486
  188POPC  H13B21553   5.792   0.259   3.922  1.1956 -0.6016  0.4489
  188POPC  H13C21554   5.957   0.248   3.987  0.0204 -1.1001  1.4855
  188POPC   C1421555   6.088   0.115   3.802  0.7253 -0.4638 -0.3030
  188POPC  H14A21556   6.133   0.211   3.781  0.5603 -0.4388 -0.5539
  188POPC  H14B21557   6.131   0.072   3.891  0.8854  0.9321  0.3156
  188POPC  H14C21558   6.109   0.047   3.721  0.4790 -2.1272  0.9934
  188POPC   C1521559   5.878   0.178   3.672 -0.5992  1.0040 -0.3750
  188POPC  H15A21560   5.880   0.096   3.602 -2.2932  1.2384 -0.7483
  188POPC  H15B21561   5.927   0.266   3.634  0.7033  0.3425 -0.2943
  188POPC  H15C21562   5.772   0.198   3.678 -1.3205 -2.3175  0.0937
  188POPC   C1121563   5.895  -0.067   3.971  0.4952  0.2328  0.2306
  188POPC  H11A21564   5.805  -0.129   3.994  0.8960  0.2604  2.0544
  188POPC  H11B21565   5.907   0.007   4.053  0.9379  0.5247 -0.0918
  188POPC     P21566   6.018  -0.256   3.856 -0.0301 -0.0013 -0.0664
  188POPC   O1321567   6.153  -0.312   3.873  0.1121  0.0459  0.2201
  188POPC   O1421568   5.977  -0.207   3.724  0.7046  0.8175  0.0880
  188POPC   O1221569   6.015  -0.142   3.963  0.1233  1.1166 -0.1339
  188POPC   O1121570   5.906  -0.360   3.909 -0.0236  0.0451  0.1674
  188POPC    C121571   5.912  -0.413   4.046 -0.3443 -0.5343  0.3763
  188POPC    HA21572   5.835  -0.357   4.103  1.0693  1.8912  0.0410
  188POPC    HB21573   6.009  -0.394   4.096 -0.3303 -0.9027  0.4908
  188POPC    C221574   5.887  -0.567   4.046 -0.0560 -0.3109  0.9833
  188POPC    HS21575   5.951  -0.602   3.962  2.0266  0.6999  2.0910
  188POPC   O2121576   5.749  -0.576   4.020  0.3818  0.1197 -0.4056
  188POPC   C2121577   5.701  -0.686   3.991 -0.5067  0.1179  0.0151
  188POPC   O2221578   5.760  -0.793   3.987  0.4819  0.2685 -0.5540
  188POPC   C2221579   5.547  -0.666   3.962 -0.2491  0.4228 -0.3903
  188POPC   H2R21580   5.509  -0.720   3.872  0.5819  0.1005 -0.5564
  188POPC   H2S21581   5.525  -0.558   3.948  0.4234  0.4407 -1.3638
  188POPC    C321582   5.932  -0.641   4.174 -0.5075 -0.1668  0.3548
  188POPC    HX21583   6.040  -0.615   4.172 -0.2530 -1.2056 -1.1200
  188POPC    HY21584   5.913  -0.751   4.173 -1.3676 -0.0274  0.5221
  188POPC   O3121585   5.857  -0.599   4.292  0.0091  0.0609 -0.5649
  188POPC   C3121586   5.928  -0.513   4.369  0.0288 -0.5194  0.0027
  188POPC   O3221587   6.043  -0.476   4.347 -0.1307 -0.1785  0.0408
  188POPC   C3221588   5.856  -0.484   4.504 -0.6090  0.7394 -0.3770
  188POPC   H2X21589   5.820  -0.581   4.544 -0.6974  0.2719 -1.5487
  188POPC   H2Y21590   5.775  -0.414   4.473 -1.3169 -1.2434 -3.3926
  188POPC   C2321591   5.467  -0.724   4.086 -0.3676  0.0291  0.1225
  188POPC   H3R21592   5.503  -0.667   4.174 -3.2533  2.2847  0.0111
  188POPC   H3S21593   5.495  -0.826   4.118  0.5024  0.7248  1.6629
  188POPC   C2421594   5.314  -0.715   4.055 -0.1649 -0.0967  0.2012
  188POPC   H4R21595   5.281  -0.782   3.973 -2.0411  1.0778 -0.0598
  188POPC   H4S21596   5.304  -0.613   4.012  0.0095 -0.2638 -0.2427
  188POPC   C2521597   5.220  -0.749   4.175  0.5437 -0.2270  0.6975
  188POPC   H5R21598   5.123  -0.746   4.121  0.5701 -2.1769  0.4424
  188POPC   H5S21599   5.218  -0.674   4.257 -3.9110 -0.3774  0.9668
  188POPC   C2621600   5.231  -0.893   4.232 -0.3947 -0.0258 -0.0169
  188POPC   H6R21601   5.183  -0.898   4.332  1.6102 -1.2691  0.9308
  188POPC   H6S21602   5.339  -0.900   4.257 -0.2628  2.1287  0.1915
  188POPC   C2721603   5.190  -1.003   4.129 -0.5682  0.4843  0.2338
  188POPC   H7R21604   5.269  -0.997   4.052 -1.8860  1.0740 -1.1238
  188POPC   H7S21605   5.092  -0.980   4.082 -0.4720  0.8503  0.2071
  188POPC   C2821606   5.181  -1.140   4.203 -0.1924  0.5193  0.3461
  188POPC   H8R21607   5.143  -1.204   4.121 -0.5148  2.1439 -0.8227
  188POPC   H8S21608   5.101  -1.138   4.280  0.4941 -1.5114  1.1798
  188POPC   C2921609   5.314  -1.199   4.246  0.3177  1.4304  0.0440
  188POPC   H9121610   5.382  -1.219   4.162  1.5169  1.3000  1.0170
  188POPC  C21021611   5.361  -1.232   4.369 -0.0506  0.4041  0.4088
  188POPC  H10121612   5.464  -1.270   4.378 -0.1280 -0.4436 -1.8493
  188POPC  C21121613   5.285  -1.188   4.490  0.1666 -0.1504  0.2931
  188POPC  H11R21614   5.228  -1.276   4.527  0.6096 -1.0627 -1.1268
  188POPC  H11S21615   5.211  -1.112   4.457  0.6610 -0.2527 -1.1330
  188POPC  C21221616   5.369  -1.126   4.600 -0.2605  0.3686  0.9393
  188POPC  H12R21617   5.405  -1.029   4.559  0.4288  0.2800  1.3256
  188POPC  H12S21618   5.457  -1.192   4.613  0.1132  0.6958  0.1162
  188POPC  C21321619   5.279  -1.108   4.721 -0.8556 -0.3057 -0.1760
  188POPC  H13R21620   5.228  -1.196   4.764 -1.0836 -0.1030 -0.0322
  188POPC  H13S21621   5.196  -1.039   4.696 -0.4857  0.9355  1.7658
  188POPC  C21421622   5.361  -1.046   4.833  0.3707  0.0766 -0.0649
  188POPC  H14R21623   5.398  -0.944   4.809  0.0497  0.3518  0.5748
  188POPC  H14S21624   5.448  -1.108   4.864 -1.5759 -2.7701  0.0294
  188POPC  C21521625   5.279  -1.034   4.967  0.4513 -0.8121  0.6059
  188POPC  H15R21626   5.191  -0.966   4.957  0.3266 -0.8077  1.6045
  188POPC  H15S21627   5.349  -0.993   5.043  0.2289 -0.1012  0.4296
  188POPC  C21621628   5.235  -1.164   5.046  0.6728 -0.3331  0.1991
  188POPC  H16R21629   5.326  -1.225   5.065  1.9043  1.2336 -0.4024
  188POPC  H16S21630   5.168  -1.222   4.979  1.7866 -1.5344  0.0751
  188POPC  C21721631   5.147  -1.142   5.168 -0.9044 -0.1451 -0.1597
  188POPC  H17R21632   5.095  -1.238   5.186 -0.9254 -0.6134 -2.4388
  188POPC  H17S21633   5.072  -1.062   5.149 -2.0093 -1.0852  0.1493
  188POPC  C21821634   5.240  -1.115   5.286  0.0210  1.1046 -0.8699
  188POPC  H18R21635   5.299  -1.208   5.295 -2.7790 -0.9945 -2.5051
  188POPC  H18S21636   5.190  -1.097   5.383  2.1012  0.7923  0.3170
  188POPC  H18T21637   5.311  -1.031   5.273  0.7047  1.0587  1.9360
  188POPC   C3321638   5.959  -0.410   4.609 -0.5463 -0.4953  0.4544
  188POPC   H3X21639   5.898  -0.382   4.698  0.4966  1.0073  0.7335
  188POPC   H3Y21640   5.999  -0.318   4.560  1.1400 -1.5704 -0.2570
  188POPC   C3421641   6.077  -0.497   4.652  0.4540 -0.5420 -0.8173
  188POPC   H4X21642   6.162  -0.448   4.703  0.5706  0.1119 -1.6115
  188POPC   H4Y21643   6.123  -0.537   4.559  2.9623  0.9047 -0.2995
  188POPC   C3521644   6.037  -0.630   4.725  0.1143  0.9975  0.8689
  188POPC   H5X21645   5.992  -0.706   4.658  2.8549  0.3389 -0.3740
  188POPC   H5Y21646   5.971  -0.591   4.806 -0.3937  0.5679  0.6647
  188POPC   C3621647   6.144  -0.716   4.788  1.0268  0.2975 -0.1164
  188POPC   H6X21648   6.214  -0.740   4.705  0.9038 -1.9671  0.3801
  188POPC   H6Y21649   6.104  -0.815   4.818  0.5327  0.8477  1.1002
  188POPC   C3721650   6.220  -0.654   4.905  0.2126  0.0134  0.8671
  188POPC   H7X21651   6.241  -0.551   4.869 -0.4671 -0.4966 -1.1290
  188POPC   H7Y21652   6.317  -0.705   4.923 -0.1596 -1.6826 -1.4407
  188POPC   C3821653   6.153  -0.662   5.046  0.5009 -0.9247  0.1521
  188POPC   H8X21654   6.110  -0.765   5.048 -0.6395 -0.4989 -0.9582
  188POPC   H8Y21655   6.063  -0.597   5.058 -1.1435 -3.1766  0.7841
  188POPC   C3921656   6.244  -0.613   5.160  0.6969  0.4417  0.3647
  188POPC   H9X21657   6.171  -0.599   5.242 -1.3316  0.6898 -1.4019
  188POPC   H9Y21658   6.297  -0.522   5.125 -0.1754  0.3042 -1.4510
  188POPC  C31021659   6.341  -0.728   5.206 -0.2603 -0.5349 -0.0657
  188POPC  H10X21660   6.404  -0.758   5.119 -1.0370 -1.7599 -0.2230
  188POPC  H10Y21661   6.282  -0.818   5.232  0.3000 -1.2132 -1.0603
  188POPC  C31121662   6.415  -0.692   5.334 -0.0462  0.2417 -0.2913
  188POPC  H11X21663   6.340  -0.679   5.414  1.0063  0.9930  0.6018
  188POPC  H11Y21664   6.455  -0.590   5.318 -0.5813  0.5930  0.5589
  188POPC  C31221665   6.531  -0.784   5.374  0.2693  0.2259  0.0678
  188POPC  H12X21666   6.579  -0.820   5.281 -1.7036 -2.9897  0.1228
  188POPC  H12Y21667   6.490  -0.872   5.429 -2.3672  1.1234 -0.3666
  188POPC  C31321668   6.624  -0.728   5.482 -1.1172 -0.1978 -0.5072
  188POPC  H13X21669   6.566  -0.713   5.576  0.6115  2.5638  0.2467
  188POPC  H13Y21670   6.648  -0.624   5.450  0.0963  0.2172  1.5671
  188POPC  C31421671   6.750  -0.814   5.518 -0.4146  0.6354 -0.0168
  188POPC  H14X21672   6.789  -0.768   5.611 -1.5237 -0.2777  0.9345
  188POPC  H14Y21673   6.826  -0.811   5.438 -0.1047  0.6138  0.2761
  188POPC  C31521674   6.714  -0.960   5.557  0.7010 -0.7519  0.3698
  188POPC  H15X21675   6.636  -1.001   5.489 -0.3257 -0.1351  1.1451
  188POPC  H15Y21676   6.660  -0.949   5.654 -1.0948 -4.5968 -0.0216
  188POPC  C31621677   6.833  -1.046   5.590 -0.5696  0.1151 -0.4876
  188POPC  H16X21678   6.892  -1.000   5.673 -1.2564  2.2073 -1.1171
  188POPC  H16Y21679   6.901  -1.060   5.503 -1.1998 -0.8718 -0.8360
  188POPC  H16Z21680   6.798  -1.147   5.620  0.1807  0.6862  2.7481
  189SAPI   C1221681   4.636   5.505   8.167 -0.3059 -0.4347  0.1250
  189SAPI    H221682   4.575   5.555   8.088  0.9542 -0.6901 -1.0488
  189SAPI    O221683   4.739   5.602   8.197 -0.1241 -0.2520  0.1873
  189SAPI   HO221684   4.772   5.633   8.112  1.0598 -1.6194  0.1069
  189SAPI   C1321685   4.545   5.482   8.285 -0.1259  0.6444  0.6389
  189SAPI    H321686   4.482   5.394   8.258  3.4268 -1.8324 -0.2885
  189SAPI    O321687   4.465   5.594   8.325  0.0088  0.1484  0.2501
  189SAPI   HO321688   4.378   5.589   8.286 -0.1410 -0.3674  0.6423
  189SAPI   C1421689   4.629   5.427   8.404 -0.0537 -0.4912  0.6330
  189SAPI    H421690   4.694   5.514   8.431 -1.1395  0.3869  0.5003
  189SAPI    O421691   4.553   5.409   8.520 -0.0817  0.0494 -0.0148
  189SAPI   HO421692   4.536   5.494   8.560  2.3892  0.8172 -0.4462
  189SAPI   C1521693   4.720   5.312   8.373 -0.3295 -0.2881  0.2076
  189SAPI    H521694   4.654   5.222   8.377 -1.7697  0.6156 -1.6174
  189SAPI    O521695   4.822   5.293   8.471 -0.3739  0.5022  0.2893
  189SAPI   HO521696   4.777   5.295   8.556 -2.7187 -0.3923 -0.8700
  189SAPI   C1621697   4.777   5.312   8.226  0.7389 -0.4301  0.8631
  189SAPI    H621698   4.873   5.369   8.220  0.7558 -0.4669  0.7814
  189SAPI    O621699   4.812   5.181   8.185 -0.0019  0.3058  0.2320
  189SAPI   HO621700   4.872   5.192   8.110  2.1148 -2.7491  1.2813
  189SAPI   C1121701   4.687   5.376   8.117  0.2931 -0.0132 -0.4657
  189SAPI    H121702   4.608   5.299   8.121 -0.8821  1.2188  2.5493
  189SAPI     P21703   4.650   5.380   7.849 -0.1972 -0.0606  0.8418
  189SAPI   O1321704   4.570   5.259   7.870 -0.5347  0.0813 -0.5733
  189SAPI   O1421705   4.735   5.368   7.730  0.5836  0.4625  0.0530
  189SAPI   O1221706   4.745   5.390   7.984  0.2403  0.3524 -0.5002
  189SAPI   O1121707   4.564   5.507   7.854  0.3092 -0.3006 -0.0063
  189SAPI    C121708   4.589   5.637   7.797  0.1990  0.4208  0.3020
  189SAPI    HA21709   4.580   5.723   7.867  0.0930 -0.7095  1.7301
  189SAPI    HB21710   4.690   5.647   7.752 -0.0128  2.3654  0.1471
  189SAPI    C221711   4.487   5.671   7.682 -1.0061  0.0179 -0.3061
  189SAPI    HS21712   4.519   5.773   7.652 -0.7319 -0.0445 -0.2237
  189SAPI   O2121713   4.351   5.671   7.721  0.5513  0.1914 -0.3833
  189SAPI   C2121714   4.316   5.760   7.808 -0.4301  0.1550 -0.3107
  189SAPI   O2221715   4.377   5.859   7.846  0.0354 -0.2633 -0.1991
  189SAPI   C2221716   4.175   5.732   7.855 -0.0391  0.1537  0.6908
  189SAPI   H2R21717   4.179   5.623   7.874  3.3684 -0.1744 -1.1282
  189SAPI   H2S21718   4.159   5.791   7.948  0.7140  0.6400  0.5179
  189SAPI    C321719   4.495   5.572   7.560  0.5390  0.1339  0.1456
  189SAPI    HX21720   4.404   5.597   7.501  1.9712  1.5271 -1.6015
  189SAPI    HY21721   4.474   5.474   7.606  1.6710  0.9807  2.6419
  189SAPI   O3121722   4.617   5.593   7.492 -0.0899 -0.0153  0.1357
  189SAPI   C3121723   4.629   5.492   7.404 -0.3567 -0.5772  0.1442
  189SAPI   O3221724   4.540   5.420   7.366 -0.1259 -0.1632 -0.2994
  189SAPI   C3221725   4.772   5.494   7.338 -0.3361 -0.3984  0.5493
  189SAPI   H2X21726   4.814   5.391   7.329 -1.3260 -1.4533  5.0257
  189SAPI   H2Y21727   4.833   5.548   7.413 -1.3595 -0.4094  1.4213
  189SAPI   C2321728   4.067   5.794   7.763  0.1343  0.1289  0.3021
  189SAPI   H3R21729   4.106   5.890   7.721 -0.5476 -0.3186 -1.4423
  189SAPI   H3S21730   3.979   5.821   7.824 -0.4431  2.9352 -1.5689
  189SAPI   C2421731   4.019   5.713   7.642  0.2733 -0.0153  0.7294
  189SAPI   H4R21732   4.108   5.709   7.576 -0.4823 -2.6696 -0.2390
  189SAPI   H4S21733   3.935   5.759   7.586 -0.2198 -1.1885  0.4797
  189SAPI   C2521734   3.993   5.571   7.676 -0.2789  0.3743  0.4589
  189SAPI   H5R21735   4.060   5.532   7.754  1.0186 -0.0301 -0.8157
  189SAPI   C2621736   3.909   5.494   7.618 -0.3968  0.6446 -0.7131
  189SAPI   H6R21737   3.906   5.388   7.646 -0.7958  0.4214 -1.5463
  189SAPI   C2721738   3.805   5.533   7.514 -0.5602 -0.2314 -0.6708
  189SAPI   H7R21739   3.856   5.589   7.433  0.3769 -0.9283 -0.5743
  189SAPI   H7S21740   3.736   5.615   7.543 -0.6445  0.6459 -3.0797
  189SAPI   C2821741   3.727   5.416   7.465 -0.2854 -0.2022 -0.0898
  189SAPI   H8R21742   3.669   5.355   7.535 -0.1872  0.5088  0.6271
  189SAPI   C2921743   3.700   5.380   7.335  0.7821  0.5152  0.4986
  189SAPI   H9R21744   3.637   5.292   7.318  0.3871  1.3474 -2.9267
  189SAPI  C21021745   3.766   5.443   7.219 -0.4035 -0.1569  0.5845
  189SAPI  H10R21746   3.827   5.363   7.172 -1.3330 -0.7324  0.3208
  189SAPI  H10S21747   3.838   5.522   7.249 -1.2008  0.9429 -0.3083
  189SAPI  C21121748   3.673   5.514   7.127  0.6787 -0.7837  0.1659
  189SAPI  H11R21749   3.572   5.525   7.169  0.5583 -2.3418  0.3560
  189SAPI  C21221750   3.707   5.546   6.996 -0.4556 -0.0501 -0.2470
  189SAPI  H12R21751   3.632   5.602   6.938 -0.6242  0.9475  0.8929
  189SAPI  C21321752   3.840   5.517   6.922  1.0503  0.5701 -0.2741
  189SAPI  H13R21753   3.864   5.409   6.931 -1.9158 -0.0820  0.9018
  189SAPI  H13S21754   3.923   5.569   6.975  0.2936  2.2271 -0.6478
  189SAPI  C21421755   3.831   5.561   6.778  0.0864  0.2847  0.5717
  189SAPI  H14R21756   3.863   5.663   6.754  1.7772 -0.4053 -0.2486
  189SAPI  C21521757   3.801   5.474   6.675 -0.0050 -0.8729  0.1067
  189SAPI  H15R21758   3.776   5.526   6.581  0.0548  0.7554  0.9413
  189SAPI  C21621759   3.732   5.339   6.690 -0.0776 -0.4810 -0.5901
  189SAPI  H16R21760   3.775   5.281   6.774 -1.2156 -2.5195 -1.3451
  189SAPI  H16S21761   3.775   5.283   6.604 -0.4060  0.8429 -1.6495
  189SAPI  C21721762   3.580   5.346   6.682  1.2001 -0.1598  0.1086
  189SAPI  H17R21763   3.553   5.416   6.600 -0.5161 -0.6790  0.1810
  189SAPI  H17S21764   3.531   5.388   6.772  0.7473 -0.4193 -0.0157
  189SAPI  C21821765   3.516   5.214   6.634  0.2286 -0.0633  0.0936
  189SAPI  H18R21766   3.407   5.231   6.622 -0.0770 -1.7386  0.2112
  189SAPI  H18S21767   3.532   5.126   6.701 -0.2415  0.8960  1.5010
  189SAPI  C21921768   3.563   5.158   6.493 -0.2848  0.4415  0.2805
  189SAPI  H19R21769   3.505   5.067   6.468  1.8350 -0.4656 -1.7160
  189SAPI  H19S21770   3.671   5.131   6.501 -0.0669  1.4515  0.9878
  189SAPI  C22021771   3.542   5.247   6.375 -0.1570  0.0123 -0.0951
  189SAPI  H20R21772   3.616   5.222   6.297 -0.9793 -1.5816 -0.3966
  189SAPI  H20S21773   3.552   5.356   6.393  0.3191 -0.1159  0.4472
  189SAPI  H20T21774   3.440   5.233   6.334  0.0562  2.7918 -1.8278
  189SAPI   C3321775   4.779   5.558   7.197 -0.0726  0.0212 -0.2942
  189SAPI   H3X21776   4.888   5.569   7.175 -0.1403 -1.0839 -1.2793
  189SAPI   H3Y21777   4.734   5.659   7.202  0.0897  0.1790 -1.6190
  189SAPI   C3421778   4.720   5.474   7.083  0.2404 -0.6235  1.0301
  189SAPI   H4X21779   4.614   5.443   7.091 -0.2083  1.1352  2.6783
  189SAPI   H4Y21780   4.784   5.383   7.077  1.3927  0.2200 -0.0112
  189SAPI   C3521781   4.738   5.543   6.944 -0.1409 -0.5356  0.5863
  189SAPI   H5X21782   4.847   5.555   6.924  0.0060 -0.6718  1.3004
  189SAPI   H5Y21783   4.690   5.643   6.945  1.0260  0.0372  1.4084
  189SAPI   C3621784   4.657   5.477   6.829  0.2505 -0.3263 -0.3018
  189SAPI   H6X21785   4.561   5.446   6.874 -0.1660  0.0658 -0.9059
  189SAPI   H6Y21786   4.713   5.387   6.795 -0.7768 -0.7214 -0.9709
  189SAPI   C3721787   4.611   5.561   6.708  1.1077  0.2340  0.6238
  189SAPI   H7X21788   4.693   5.616   6.657 -0.0543  1.3985 -0.0416
  189SAPI   H7Y21789   4.539   5.639   6.740 -1.0309 -1.0345 -0.8130
  189SAPI   C3821790   4.522   5.483   6.599 -0.0997  0.0750  0.0291
  189SAPI   H8X21791   4.483   5.555   6.523 -1.7604 -0.8397 -0.0186
  189SAPI   H8Y21792   4.435   5.437   6.650  0.7099  0.9516  2.3888
  189SAPI   C3921793   4.578   5.362   6.531  0.5343 -0.6670  0.7898
  189SAPI   H9X21794   4.585   5.277   6.602 -0.5449 -1.6144 -0.1966
  189SAPI   H9Y21795   4.672   5.403   6.486 -0.6120  0.0195 -1.1228
  189SAPI  C31021796   4.489   5.315   6.419 -0.3195 -0.4767 -0.1569
  189SAPI  H10X21797   4.487   5.381   6.329  0.6155  0.9645  0.8404
  189SAPI  H10Y21798   4.382   5.299   6.447 -1.0123 -0.0951 -2.3385
  189SAPI  C31121799   4.548   5.187   6.366 -0.2303  0.0292  0.9209
  189SAPI  H11X21800   4.559   5.101   6.436 -2.3179 -0.8070  0.3133
  189SAPI  H11Y21801   4.649   5.202   6.322 -0.4059 -0.9794  0.1213
  189SAPI  C31221802   4.457   5.118   6.259  0.7691 -0.2256 -0.0507
  189SAPI  H12X21803   4.415   5.183   6.179 -0.5658 -3.2509 -2.0005
  189SAPI  H12Y21804   4.359   5.092   6.304  0.9301  0.2835  0.6093
  189SAPI  C31321805   4.523   5.013   6.181  0.1393 -0.2943  0.3955
  189SAPI  H13X21806   4.570   4.939   6.249  4.4998  0.3474 -1.5723
  189SAPI  H13Y21807   4.613   5.061   6.136  0.8926 -2.3671 -0.4508
  189SAPI  C31421808   4.424   4.944   6.086  0.2224  0.0628 -0.0272
  189SAPI  H14X21809   4.339   4.912   6.151  1.4484  0.9215  2.1019
  189SAPI  H14Y21810   4.478   4.862   6.035  0.5719 -0.6447  1.4342
  189SAPI  C31521811   4.388   5.032   5.965 -0.0165 -1.2676 -0.1168
  189SAPI  H15X21812   4.465   5.112   5.953 -0.8343 -0.5742 -0.8957
  189SAPI  H15Y21813   4.292   5.082   5.990 -0.2495 -1.5654 -0.4033
  189SAPI  C31621814   4.368   4.953   5.839  0.0251  0.3599  0.7983
  189SAPI  H16X21815   4.275   4.893   5.832  0.0247  0.4443  0.0350
  189SAPI  H16Y21816   4.450   4.878   5.827  1.6388  2.0101  1.0056
  189SAPI  C31721817   4.381   5.044   5.715 -0.0549  0.5739  0.6769
  189SAPI  H17X21818   4.481   5.093   5.723 -0.3061  0.8935  2.4656
  189SAPI  H17Y21819   4.308   5.127   5.724 -0.5875  0.2606 -0.5708
  189SAPI  C31821820   4.365   4.974   5.578  0.5547  0.3288  0.1376
  189SAPI  H18X21821   4.344   5.054   5.503 -0.7714  0.0956  0.2390
  189SAPI  H18Y21822   4.267   4.924   5.592  1.7155 -1.6388  1.7237
  189SAPI  H18Z21823   4.436   4.898   5.538  1.1156  0.6839  0.4398
  190SAPI   C1221824   5.740   2.907   7.986 -0.4496  1.0167  0.0817
  190SAPI    H221825   5.668   2.849   8.048  1.0424  0.3970  1.3129
  190SAPI    O221826   5.762   3.026   8.056 -0.0349 -0.5124  0.4472
  190SAPI   HO221827   5.808   3.091   8.002 -1.4626 -0.3714 -0.6344
  190SAPI   C1321828   5.864   2.835   7.972  0.1584  0.5536 -0.0090
  190SAPI    H321829   5.840   2.742   7.917 -1.1908  0.1310  1.2479
  190SAPI    O321830   5.913   2.790   8.099  0.3972  0.1849  0.1141
  190SAPI   HO321831   6.008   2.797   8.094  0.4637 -1.1218 -1.8963
  190SAPI   C1421832   5.958   2.915   7.884 -0.2026  0.5824  0.0394
  190SAPI    H421833   5.990   3.000   7.947 -0.8297  0.6283  0.3067
  190SAPI    O421834   6.077   2.835   7.859 -0.5434 -0.6017 -0.2932
  190SAPI   HO421835   6.130   2.824   7.938  0.7332 -0.5505 -1.1031
  190SAPI   C1521836   5.900   2.973   7.762  0.2778  0.1897  0.1511
  190SAPI    H521837   5.903   2.893   7.684  1.1023  0.9467 -0.6059
  190SAPI    O521838   5.978   3.076   7.718  0.4532  0.1288  0.4067
  190SAPI   HO521839   6.048   3.033   7.667  1.5938 -2.1268  3.5552
  190SAPI   C1621840   5.755   3.019   7.763 -0.1965  0.3621 -0.4518
  190SAPI    H621841   5.754   3.124   7.797  0.2351 -0.7899  3.5594
  190SAPI    O621842   5.691   3.021   7.637  0.1829 -0.0824 -0.0726
  190SAPI   HO621843   5.599   3.046   7.647 -0.8496 -2.6553 -1.9723
  190SAPI   C1121844   5.672   2.926   7.858 -0.6361 -0.5467  1.2365
  190SAPI    H121845   5.674   2.830   7.802 -1.7511  0.2323 -0.1932
  190SAPI     P21846   5.419   2.861   7.874 -0.1965 -0.0373  0.0226
  190SAPI   O1321847   5.294   2.935   7.868 -0.0153  0.2064  0.2704
  190SAPI   O1421848   5.456   2.776   7.989 -0.5056 -0.1552  0.8957
  190SAPI   O1221849   5.532   2.976   7.858 -0.0567 -0.3706 -0.6064
  190SAPI   O1121850   5.430   2.780   7.734  0.6151  0.1077 -0.1875
  190SAPI    C121851   5.351   2.666   7.716 -0.1911  0.5812  0.0157
  190SAPI    HA21852   5.406   2.574   7.747  0.3874  0.6580 -0.7512
  190SAPI    HB21853   5.261   2.666   7.781  0.1490  0.3597  0.4923
  190SAPI    C221854   5.314   2.656   7.564 -0.2203  0.9474 -0.2065
  190SAPI    HS21855   5.288   2.549   7.550  0.1498  0.7154  0.7295
  190SAPI   O2121856   5.426   2.686   7.484  0.1247 -0.5153 -0.1120
  190SAPI   C2121857   5.530   2.604   7.499  0.3109 -0.0397  0.0786
  190SAPI   O2221858   5.525   2.497   7.561  0.2011 -0.5066 -0.5417
  190SAPI   C2221859   5.653   2.664   7.430  0.1717  0.1298  0.9014
  190SAPI   H2R21860   5.677   2.603   7.341  0.3710  1.4120  0.0509
  190SAPI   H2S21861   5.623   2.761   7.387 -4.5688 -1.7400 -0.6231
  190SAPI    C321862   5.188   2.738   7.538 -1.0167 -0.4884  0.0324
  190SAPI    HX21863   5.203   2.837   7.586  2.5684 -0.2900 -1.2150
  190SAPI    HY21864   5.108   2.688   7.596 -0.6180  1.0409  2.0406
  190SAPI   O3121865   5.156   2.743   7.394 -0.4652  0.6151  0.0243
  190SAPI   C3121866   5.028   2.769   7.362  0.3601 -0.4240 -0.1732
  190SAPI   O3221867   4.938   2.793   7.440  0.6367  0.5927 -0.4460
  190SAPI   C3221868   5.027   2.773   7.212  0.1981  0.5054 -0.9616
  190SAPI   H2X21869   5.111   2.838   7.179  0.0355  0.8388 -0.7267
  190SAPI   H2Y21870   4.930   2.810   7.173  0.2434 -0.6144 -2.2100
  190SAPI   C2321871   5.786   2.683   7.510 -0.0460 -0.3068 -0.6794
  190SAPI   H3R21872   5.824   2.595   7.566 -2.1142  0.7838  2.8074
  190SAPI   H3S21873   5.752   2.749   7.593 -0.3658 -0.5647 -0.6008
  190SAPI   C2421874   5.905   2.736   7.427 -0.1853 -0.1295 -0.3864
  190SAPI   H4R21875   5.937   2.661   7.352 -0.9540  1.6498 -2.6036
  190SAPI   H4S21876   5.993   2.761   7.490 -0.7503  0.8222  0.0529
  190SAPI   C2521877   5.884   2.873   7.367 -0.1273  0.7209  0.6677
  190SAPI   H5R21878   5.856   2.953   7.436 -1.4875  1.5035 -0.7380
  190SAPI   C2621879   5.885   2.906   7.233  1.4199  0.1045  0.6089
  190SAPI   H6R21880   5.873   3.013   7.209  0.7076 -0.2528 -0.7382
  190SAPI   C2721881   5.898   2.815   7.106  0.0721  0.1959  0.3936
  190SAPI   H7R21882   5.905   2.707   7.129  0.6998 -0.1757 -1.4065
  190SAPI   H7S21883   5.990   2.842   7.050  0.7579  0.6554  1.6933
  190SAPI   C2821884   5.776   2.841   7.024 -0.8210  0.1274 -0.2682
  190SAPI   H8R21885   5.684   2.861   7.079 -0.8745 -0.0744 -0.2847
  190SAPI   C2921886   5.758   2.822   6.891 -0.3447  0.3451 -0.3766
  190SAPI   H9R21887   5.658   2.825   6.845 -1.4293  0.0652  1.8248
  190SAPI  C21021888   5.868   2.787   6.795 -0.2072 -0.0958 -0.2641
  190SAPI  H10R21889   5.835   2.705   6.727  0.5468 -0.6144 -0.0214
  190SAPI  H10S21890   5.960   2.757   6.849 -0.3958 -2.8418 -1.3019
  190SAPI  C21121891   5.915   2.903   6.705  0.3234  0.5279  0.1698
  190SAPI  H11R21892   5.936   2.995   6.763  1.3750 -0.1471  0.8975
  190SAPI  C21221893   5.946   2.901   6.576  0.4889  0.2452 -0.1097
  190SAPI  H12R21894   5.999   2.992   6.543  0.0543  1.1115  1.4766
  190SAPI  C21321895   5.950   2.782   6.481  0.0407  0.2396  0.0344
  190SAPI  H13R21896   5.856   2.800   6.425  0.8412 -1.2124 -1.8669
  190SAPI  H13S21897   5.935   2.686   6.533  0.4554  0.7706  1.1776
  190SAPI  C21421898   6.059   2.765   6.381 -0.0474  0.1312  0.0146
  190SAPI  H14R21899   6.133   2.688   6.408  0.6730  1.6604  2.7482
  190SAPI  C21521900   6.080   2.855   6.285  0.5227 -0.1567  0.1802
  190SAPI  H15R21901   6.159   2.846   6.209 -0.9484  2.0192 -1.7214
  190SAPI  C21621902   5.989   2.972   6.255 -0.1561  0.5294  0.5556
  190SAPI  H16R21903   5.999   3.050   6.333 -2.1153 -2.2716  3.8542
  190SAPI  H16S21904   5.883   2.944   6.264  0.0468 -0.3843  0.1431
  190SAPI  C21721905   6.007   3.029   6.111  0.1960 -0.1057 -0.1223
  190SAPI  H17R21906   6.003   2.945   6.039  1.3859  1.2440 -1.8589
  190SAPI  H17S21907   6.105   3.081   6.108 -0.0860  0.3887 -1.5334
  190SAPI  C21821908   5.921   3.153   6.076  0.2916  0.4981  0.0114
  190SAPI  H18R21909   5.927   3.232   6.154  2.0957 -1.1447  1.6306
  190SAPI  H18S21910   5.819   3.108   6.069  0.0529  0.9200  0.6777
  190SAPI  C21921911   5.960   3.204   5.934  0.1693 -0.5667  0.2906
  190SAPI  H19R21912   5.882   3.276   5.900  1.3312  1.5999  1.9160
  190SAPI  H19S21913   5.953   3.119   5.864 -1.0674  0.5499 -1.0080
  190SAPI  C22021914   6.093   3.282   5.928 -0.3530  0.9887 -0.1027
  190SAPI  H20R21915   6.176   3.216   5.894 -2.2066 -0.0355 -3.0455
  190SAPI  H20S21916   6.116   3.308   6.034  1.4268  3.6038 -1.0100
  190SAPI  H20T21917   6.083   3.375   5.868  1.9178  2.3132  1.4285
  190SAPI   C3321918   5.046   2.636   7.144  0.2640 -0.0977 -0.4396
  190SAPI   H3X21919   4.996   2.567   7.215  0.7544  0.7010  0.7242
  190SAPI   H3Y21920   5.151   2.600   7.148 -0.3536 -1.8988  0.7483
  190SAPI   C3421921   4.978   2.622   7.008 -0.8350  0.0209 -0.0750
  190SAPI   H4X21922   5.017   2.695   6.933 -1.9373  0.1666 -0.5203
  190SAPI   H4Y21923   4.869   2.642   7.020 -1.1102 -2.6895  3.3348
  190SAPI   C3521924   4.999   2.483   6.945  0.4310  0.6982  0.0427
  190SAPI   H5X21925   4.975   2.411   7.027 -1.1884  0.6855 -0.4173
  190SAPI   H5Y21926   5.105   2.466   6.916 -0.4813 -3.8048 -1.4657
  190SAPI   C3621927   4.918   2.453   6.816 -0.8074 -0.3804  0.1913
  190SAPI   H6X21928   4.922   2.544   6.752 -1.6275 -1.8527 -2.0664
  190SAPI   H6Y21929   4.810   2.440   6.838 -0.9072  0.9525  0.5987
  190SAPI   C3721930   4.981   2.344   6.721  0.4446 -0.0019 -0.2095
  190SAPI   H7X21931   4.938   2.242   6.732 -0.9574  0.6828  0.9293
  190SAPI   H7Y21932   5.086   2.331   6.757  0.1648 -2.7872 -0.1221
  190SAPI   C3821933   4.973   2.380   6.576 -0.2247 -0.4610  0.1230
  190SAPI   H8X21934   5.010   2.484   6.563 -1.6923 -0.0452 -1.0807
  190SAPI   H8Y21935   4.869   2.385   6.537 -0.3884  2.8280  0.7475
  190SAPI   C3921936   5.059   2.293   6.484 -0.2681  0.1221  0.1306
  190SAPI   H9X21937   5.004   2.198   6.500 -1.8510  1.2231  1.6060
  190SAPI   H9Y21938   5.156   2.274   6.534  0.1359 -0.0117 -0.6901
  190SAPI  C31021939   5.065   2.330   6.334  0.0859  0.4154 -0.4072
  190SAPI  H10X21940   4.959   2.325   6.303 -0.0572 -0.8712  0.2402
  190SAPI  H10Y21941   5.130   2.253   6.287 -0.4460  0.0379 -0.5314
  190SAPI  C31121942   5.141   2.461   6.310  0.3491 -0.3274  0.7908
  190SAPI  H11X21943   5.240   2.468   6.358 -0.5704  3.1551  2.5099
  190SAPI  H11Y21944   5.095   2.557   6.343  0.1931  0.4694 -1.5605
  190SAPI  C31221945   5.169   2.479   6.159 -1.0256 -0.4191 -0.6628
  190SAPI  H12X21946   5.234   2.397   6.121  1.6442 -0.1018  2.7325
  190SAPI  H12Y21947   5.236   2.567   6.157 -0.3673 -0.8908 -0.0865
  190SAPI  C31321948   5.043   2.506   6.075  0.5508  0.8479  0.0025
  190SAPI  H13X21949   4.997   2.599   6.115 -0.9826  0.6522 -1.1774
  190SAPI  H13Y21950   4.976   2.421   6.102 -0.3753  1.3109 -0.7541
  190SAPI  C31421951   5.059   2.478   5.926  0.4174 -0.1746  0.8492
  190SAPI  H14X21952   5.113   2.382   5.915  1.1764  0.4013 -1.0509
  190SAPI  H14Y21953   5.119   2.565   5.891 -2.2069  2.1490  1.7282
  190SAPI  C31521954   4.935   2.501   5.841 -0.6127  0.1144  0.0333
  190SAPI  H15X21955   4.883   2.598   5.859 -0.7981  0.0631 -0.2200
  190SAPI  H15Y21956   4.860   2.422   5.866 -1.9083  1.2480 -0.1663
  190SAPI  C31621957   4.950   2.485   5.683  0.1091  0.7739  0.0764
  190SAPI  H16X21958   5.039   2.543   5.652  1.5373 -1.1550  0.4091
  190SAPI  H16Y21959   4.865   2.519   5.620  0.3922 -0.2811 -0.8953
  190SAPI  C31721960   4.976   2.340   5.640 -0.2125  0.5546  0.1050
  190SAPI  H17X21961   4.914   2.268   5.699  1.4578 -2.4695 -1.5862
  190SAPI  H17Y21962   5.076   2.316   5.682  0.3120  1.4148 -0.6288
  190SAPI  C31821963   4.962   2.302   5.497  0.5575 -0.4266  0.3858
  190SAPI  H18X21964   4.862   2.332   5.460  0.9907  1.2936  0.5023
  190SAPI  H18Y21965   4.966   2.193   5.478 -1.0327 -0.9684  2.7411
  190SAPI  H18Z21966   5.047   2.357   5.451  0.4722  0.2561  1.0100
  191SAPI   C1221967   4.838   6.403   3.279 -0.8244  0.3569  0.1034
  191SAPI    H221968   4.942   6.376   3.249 -0.9359 -0.5397  0.4902
  191SAPI    O221969   4.786   6.470   3.165 -0.0595 -0.4170 -0.2828
  191SAPI   HO221970   4.778   6.399   3.101  1.9108 -1.2996  0.3608
  191SAPI   C1321971   4.754   6.287   3.326  0.7505  0.1213 -0.2058
  191SAPI    H321972   4.775   6.251   3.429  1.3385  0.1816 -0.3009
  191SAPI    O321973   4.773   6.171   3.247 -0.5583 -0.4679  0.5370
  191SAPI   HO321974   4.700   6.112   3.271  0.3202 -1.9726 -0.3301
  191SAPI   C1421975   4.607   6.334   3.329  0.2931 -0.3803 -0.0537
  191SAPI    H421976   4.577   6.375   3.231  0.3454  0.2255  0.1786
  191SAPI    O421977   4.512   6.228   3.351  0.5544  0.3582  0.0047
  191SAPI   HO421978   4.418   6.243   3.336 -0.2587 -4.2562 -1.1952
  191SAPI   C1521979   4.583   6.436   3.438 -0.7070  0.0874  0.0324
  191SAPI    H521980   4.575   6.383   3.535 -1.4001  2.9073  1.6232
  191SAPI    O521981   4.465   6.522   3.424  0.5968  0.2624  0.0903
  191SAPI   HO521982   4.380   6.478   3.428 -0.1361  1.6773  1.0719
  191SAPI   C1621983   4.713   6.527   3.465  0.4328 -0.3734  0.2145
  191SAPI    H621984   4.678   6.616   3.409 -1.2660 -0.3939  1.1544
  191SAPI    O621985   4.727   6.567   3.602  0.0021  0.2099 -0.1209
  191SAPI   HO621986   4.719   6.663   3.596  2.9446  0.5887  0.4598
  191SAPI   C1121987   4.846   6.497   3.401 -0.2296  0.1848 -0.5096
  191SAPI    H121988   4.904   6.446   3.481 -0.1803  2.2998  0.8745
  191SAPI     P21989   5.078   6.630   3.380 -0.3080 -0.0816 -0.2687
  191SAPI   O1321990   5.121   6.720   3.271  1.0411  0.1558  0.0492
  191SAPI   O1421991   5.133   6.493   3.382  0.0619 -0.4016  0.2366
  191SAPI   O1221992   4.916   6.620   3.374 -0.0102 -0.0891 -0.3165
  191SAPI   O1121993   5.115   6.705   3.513 -0.4252  0.4671  0.6624
  191SAPI    C121994   5.032   6.799   3.579  0.6112  1.0967 -0.1610
  191SAPI    HA21995   4.994   6.872   3.505 -0.2230 -0.5912 -1.4802
  191SAPI    HB21996   4.945   6.747   3.626  0.0898  0.9369 -1.2716
  191SAPI    C221997   5.088   6.871   3.700  0.3373  0.0549  0.0905
  191SAPI    HS21998   5.185   6.912   3.666  0.8196 -0.1935  1.1159
  191SAPI   O2121999   5.100   6.768   3.801 -0.4351 -0.0284 -0.0732
  191SAPI   C2122000   5.204   6.773   3.877  0.0825  0.1979  0.2702
  191SAPI   O2222001   5.287   6.865   3.865  0.0582 -0.0674 -0.7030
  191SAPI   C2222002   5.211   6.653   3.973 -0.4443  0.0462  0.6445
  191SAPI   H2R22003   5.176   6.680   4.075  0.0048 -3.3671  1.8305
  191SAPI   H2S22004   5.152   6.566   3.939  0.8138 -1.1162  1.3096
  191SAPI    C322005   4.982   6.985   3.746  0.1134 -0.5089  0.1694
  191SAPI    HX22006   4.882   6.947   3.718  0.8521 -1.8187 -0.8292
  191SAPI    HY22007   5.002   7.069   3.676 -1.0012  0.7880  1.3494
  191SAPI   O3122008   4.998   7.042   3.880  0.0134  0.2831  0.4741
  191SAPI   C3122009   4.920   6.983   3.968  0.4527 -0.0494 -0.5826
  191SAPI   O3222010   4.819   6.916   3.952  0.0429 -0.7316 -0.7158
  191SAPI   C3222011   4.989   7.010   4.105  0.0945  0.2130  0.2978
  191SAPI   H2X22012   5.000   7.120   4.123  1.6458 -0.1929  2.1494
  191SAPI   H2Y22013   5.090   6.965   4.106 -0.0258 -0.0943 -0.6335
  191SAPI   C2322014   5.359   6.617   4.013 -0.1180 -0.8799 -0.5117
  191SAPI   H3R22015   5.427   6.705   4.007  1.1332 -1.7986 -0.2149
  191SAPI   H3S22016   5.403   6.555   3.933  1.5629  1.4162 -1.4857
  191SAPI   C2422017   5.374   6.557   4.161  0.5513  0.4336  0.9457
  191SAPI   H4R22018   5.309   6.469   4.180  0.9982  0.0120  0.5499
  191SAPI   H4S22019   5.351   6.642   4.228 -1.7447  1.8075 -1.3902
  191SAPI   C2522020   5.524   6.519   4.168 -0.0078  0.6960  0.6570
  191SAPI   H5R22021   5.587   6.563   4.089 -1.8470 -0.9888 -1.9230
  191SAPI   C2622022   5.582   6.456   4.269  1.0147  0.7550 -0.8523
  191SAPI   H6R22023   5.691   6.439   4.268  0.6980 -2.9240  2.5984
  191SAPI   C2722024   5.509   6.399   4.391  0.1332 -0.1407  0.1534
  191SAPI   H7R22025   5.542   6.299   4.426  2.8410  0.4413 -0.5358
  191SAPI   H7S22026   5.403   6.370   4.375  0.5129 -1.9500  0.5845
  191SAPI   C2822027   5.496   6.493   4.504 -0.1715  0.2096 -0.2581
  191SAPI   H8R22028   5.476   6.599   4.484  1.2628  0.1208 -2.4050
  191SAPI   C2922029   5.530   6.463   4.633 -0.0378 -0.4811  0.0597
  191SAPI   H9R22030   5.512   6.539   4.710  1.4267 -0.4141  0.3701
  191SAPI  C21022031   5.568   6.331   4.695 -0.0575 -0.4454  0.0752
  191SAPI  H10R22032   5.664   6.352   4.746  0.8562  2.2830 -2.4686
  191SAPI  H10S22033   5.606   6.256   4.622 -2.0664 -4.2425  2.5887
  191SAPI  C21122034   5.459   6.258   4.783 -0.2026 -0.6851 -0.3665
  191SAPI  H11R22035   5.376   6.221   4.721 -0.0364 -0.0931 -0.9444
  191SAPI  C21222036   5.465   6.268   4.918 -0.2269  1.0680  0.0314
  191SAPI  H12R22037   5.380   6.220   4.969  0.4515 -1.4226 -1.0256
  191SAPI  C21322038   5.575   6.342   4.995  0.0027 -1.0014 -0.1089
  191SAPI  H13R22039   5.605   6.438   4.949  1.1708 -0.4909  1.6012
  191SAPI  H13S22040   5.667   6.279   4.995 -0.4580 -1.6862 -0.7189
  191SAPI  C21422041   5.522   6.378   5.130 -0.1776 -0.4506  0.2246
  191SAPI  H14R22042   5.413   6.396   5.129  0.0480  1.2721  1.5662
  191SAPI  C21522043   5.587   6.384   5.245 -0.2831 -0.3591  0.0932
  191SAPI  H15R22044   5.544   6.424   5.338  2.0532  1.3497  0.5465
  191SAPI  C21622045   5.731   6.340   5.266  0.6827 -0.6994  0.1017
  191SAPI  H16R22046   5.788   6.434   5.285  0.5202 -0.8011  1.1486
  191SAPI  H16S22047   5.777   6.290   5.178  2.3944 -0.6850  0.9490
  191SAPI  C21722048   5.754   6.254   5.394 -0.2355 -0.4549  0.0170
  191SAPI  H17R22049   5.724   6.150   5.368  1.8096 -0.9541 -0.5470
  191SAPI  H17S22050   5.693   6.299   5.474  0.0553  2.9607 -1.5175
  191SAPI  C21822051   5.898   6.240   5.446 -0.5200 -0.1010  0.0740
  191SAPI  H18R22052   5.936   6.339   5.480 -0.6846  0.0234 -0.1079
  191SAPI  H18S22053   5.959   6.212   5.357 -0.4682 -1.5622  0.5288
  191SAPI  C21922054   5.920   6.154   5.571 -0.0450 -0.0830 -0.3001
  191SAPI  H19R22055   5.876   6.054   5.550 -0.6534  0.6027 -2.5949
  191SAPI  H19S22056   5.863   6.213   5.645  1.8765  2.8687 -0.9868
  191SAPI  C22022057   6.062   6.146   5.619  0.0474 -0.3268  0.5132
  191SAPI  H20R22058   6.072   6.085   5.712  0.3582  0.3644  0.9515
  191SAPI  H20S22059   6.107   6.247   5.633  1.7583 -0.7718 -1.3472
  191SAPI  H20T22060   6.131   6.093   5.550  1.9475  0.0567  2.0169
  191SAPI   C3322061   4.916   6.939   4.227  0.3677 -0.2320  0.7026
  191SAPI   H3X22062   4.898   6.835   4.191 -2.9299  0.8971 -1.4146
  191SAPI   H3Y22063   4.817   6.988   4.240  0.4333 -0.3182  1.5472
  191SAPI   C3422064   4.996   6.938   4.354 -0.7755  0.0585  0.3650
  191SAPI   H4X22065   5.006   7.037   4.404 -0.1300 -0.7586  1.9045
  191SAPI   H4Y22066   5.100   6.907   4.331 -0.8461 -0.4478  0.7135
  191SAPI   C3522067   4.932   6.846   4.462  0.3561 -0.7086  0.2565
  191SAPI   H5X22068   4.909   6.742   4.432  0.1219 -0.7014  0.4105
  191SAPI   H5Y22069   4.833   6.895   4.471  1.0396  0.6805  0.4587
  191SAPI   C3622070   4.992   6.858   4.599 -0.2611 -0.0460 -0.0989
  191SAPI   H6X22071   4.970   6.961   4.638  1.9577  1.1451 -1.7863
  191SAPI   H6Y22072   5.102   6.863   4.608 -0.2349 -0.1192 -0.3669
  191SAPI   C3722073   4.951   6.740   4.676  1.0737  0.3467 -0.3123
  191SAPI   H7X22074   4.993   6.642   4.646 -2.5639 -3.0774  4.2953
  191SAPI   H7Y22075   4.842   6.726   4.663  1.1533 -1.5341  0.7614
  191SAPI   C3822076   4.974   6.739   4.836  0.5660  0.1664  0.2719
  191SAPI   H8X22077   4.932   6.645   4.877 -0.4109  0.8857  0.9529
  191SAPI   H8Y22078   4.914   6.818   4.885 -1.7838 -0.8453 -0.8226
  191SAPI   C3922079   5.121   6.744   4.887 -0.0374  0.7338  0.6602
  191SAPI   H9X22080   5.147   6.843   4.843  0.0810 -0.5708 -2.4707
  191SAPI   H9Y22081   5.188   6.673   4.833  0.9480  1.7263  0.5231
  191SAPI  C31022082   5.140   6.727   5.040 -0.5139 -0.6754  0.5188
  191SAPI  H10X22083   5.071   6.808   5.071  0.5070  0.0177  0.9955
  191SAPI  H10Y22084   5.247   6.749   5.059 -0.7683  0.0927  1.0909
  191SAPI  C31122085   5.105   6.594   5.100 -1.1639  0.2149  0.4162
  191SAPI  H11X22086   5.173   6.515   5.062 -0.5401  0.9364  0.0048
  191SAPI  H11Y22087   4.999   6.564   5.089 -1.0294 -0.8134  1.7135
  191SAPI  C31222088   5.121   6.601   5.255  0.4514  0.1272 -0.1636
  191SAPI  H12X22089   5.045   6.542   5.311 -0.2531  0.6521 -0.5409
  191SAPI  H12Y22090   5.093   6.706   5.281  0.9056  1.0681 -3.1323
  191SAPI  C31322091   5.261   6.587   5.314 -0.6418 -0.1198  0.7830
  191SAPI  H13X22092   5.314   6.674   5.271  0.2302 -1.8074 -1.8160
  191SAPI  H13Y22093   5.309   6.488   5.298 -0.5970  0.3058 -2.2027
  191SAPI  C31422094   5.248   6.605   5.462  0.2737  0.3645 -0.1833
  191SAPI  H14X22095   5.341   6.556   5.499  1.6396  0.5627 -3.0213
  191SAPI  H14Y22096   5.152   6.558   5.489  0.7317 -0.3301  0.2800
  191SAPI  C31522097   5.264   6.752   5.494  0.4515 -0.3315 -0.4335
  191SAPI  H15X22098   5.169   6.798   5.458  0.3354  0.8008  1.1806
  191SAPI  H15Y22099   5.344   6.807   5.440 -0.1466  1.6350  0.5564
  191SAPI  C31622100   5.265   6.770   5.645  0.7685 -0.9276  0.1324
  191SAPI  H16X22101   5.350   6.703   5.672  0.9469 -1.5557 -1.8232
  191SAPI  H16Y22102   5.169   6.732   5.684 -0.3291  1.6770  0.1948
  191SAPI  C31722103   5.297   6.916   5.696 -0.5788 -0.4217 -0.2848
  191SAPI  H17X22104   5.405   6.938   5.684 -0.8559  2.0753  1.1259
  191SAPI  H17Y22105   5.260   6.930   5.799 -1.6385  1.1583 -0.8393
  191SAPI  C31822106   5.227   7.026   5.614  0.0803  0.1831 -0.9842
  191SAPI  H18X22107   5.252   7.121   5.667  1.4152 -1.4572  1.5482
  191SAPI  H18Y22108   5.117   7.020   5.601 -0.0485  0.8344 -0.2534
  191SAPI  H18Z22109   5.273   7.038   5.514  1.3877 -0.4221 -0.4898
  192SAPI   C1222110   0.675   1.636   3.486 -0.3859 -0.4023 -0.9547
  192SAPI    H222111   0.687   1.610   3.593 -1.4089 -1.1018 -0.9985
  192SAPI    O222112   0.716   1.768   3.459 -0.6628  0.0756  0.2962
  192SAPI   HO222113   0.716   1.813   3.544 -0.5424  0.5328  0.0594
  192SAPI   C1322114   0.758   1.547   3.406 -0.1136  0.4641 -0.1500
  192SAPI    H322115   0.709   1.455   3.445  0.8674  1.0851  2.7823
  192SAPI    O322116   0.899   1.551   3.444  0.4056 -0.2933  0.6380
  192SAPI   HO322117   0.938   1.464   3.451  1.0650 -0.1353 -0.8878
  192SAPI   C1422118   0.737   1.555   3.260 -0.5422 -0.0653 -0.0355
  192SAPI    H422119   0.792   1.646   3.229 -1.7857  1.0633  0.9257
  192SAPI    O422120   0.800   1.448   3.191  0.6449  0.0509 -0.0575
  192SAPI   HO422121   0.772   1.365   3.230 -0.7518 -0.3961 -1.8649
  192SAPI   C1522122   0.595   1.572   3.219  0.7875  0.0765  0.3537
  192SAPI    H522123   0.553   1.470   3.209 -0.9853  0.8677 -0.5389
  192SAPI    O522124   0.585   1.617   3.086  0.4601  0.1354 -0.0492
  192SAPI   HO522125   0.621   1.706   3.085 -0.6987  0.6136 -0.4356
  192SAPI   C1622126   0.495   1.645   3.309 -0.4489  0.4134 -0.0836
  192SAPI    H622127   0.519   1.753   3.298 -0.1287  0.4121  0.5431
  192SAPI    O622128   0.359   1.621   3.280  0.1074 -0.0036  0.2449
  192SAPI   HO622129   0.310   1.700   3.302  0.8104  0.4953  0.0242
  192SAPI   C1122130   0.520   1.624   3.458  0.4466 -0.1364 -0.1209
  192SAPI    H122131   0.488   1.522   3.485 -2.3377  0.3204 -1.4119
  192SAPI     P22132   0.354   1.662   3.668  0.6939 -0.5034 -0.1564
  192SAPI   O1322133   0.309   1.527   3.635  0.0447 -0.1358 -0.0182
  192SAPI   O1422134   0.251   1.761   3.694 -0.5364 -0.0256 -0.4914
  192SAPI   O1222135   0.443   1.714   3.543  0.0460 -0.3128  0.6907
  192SAPI   O1122136   0.445   1.658   3.788 -0.2174  0.3372  0.3442
  192SAPI    C122137   0.515   1.545   3.830 -0.2842  0.2072  0.1694
  192SAPI    HA22138   0.564   1.491   3.746 -0.0585  2.4010 -1.2001
  192SAPI    HB22139   0.607   1.575   3.885  0.8477 -0.1057 -1.4859
  192SAPI    C222140   0.436   1.452   3.935 -0.5149  0.4116  1.0290
  192SAPI    HS22141   0.330   1.439   3.905 -0.4080  2.4288 -0.4127
  192SAPI   O2122142   0.446   1.503   4.073 -0.8361  0.2962 -0.1673
  192SAPI   C2122143   0.364   1.605   4.104  0.2123 -0.8238  0.8130
  192SAPI   O2222144   0.262   1.630   4.032 -0.1412 -0.1293 -0.1473
  192SAPI   C2222145   0.409   1.695   4.221  0.2793  0.6159 -0.3026
  192SAPI   H2R22146   0.447   1.618   4.292 -2.5845 -2.3014 -1.6548
  192SAPI   H2S22147   0.497   1.755   4.191 -0.5459  0.6817 -2.8359
  192SAPI    C322148   0.499   1.314   3.942  0.6329  0.1840  0.1263
  192SAPI    HX22149   0.608   1.324   3.959  0.3338  0.6927  1.9485
  192SAPI    HY22150   0.505   1.282   3.836  1.9483  1.0351 -0.0814
  192SAPI   O3122151   0.417   1.226   4.023 -0.6046  0.1251 -0.4276
  192SAPI   C3122152   0.457   1.206   4.147 -0.0381 -0.1773 -0.0143
  192SAPI   O3222153   0.563   1.249   4.192  0.1446  0.3686 -1.1771
  192SAPI   C3222154   0.348   1.126   4.217  0.7788 -0.6435  0.2863
  192SAPI   H2X22155   0.365   1.021   4.188  1.4452 -0.3840 -0.2595
  192SAPI   H2Y22156   0.251   1.176   4.193  0.5443  0.3670  2.9490
  192SAPI   C2322157   0.290   1.763   4.291 -0.2249 -0.5100 -0.0120
  192SAPI   H3R22158   0.213   1.791   4.215  1.1959  0.7995 -1.0276
  192SAPI   H3S22159   0.324   1.861   4.333 -2.1801  1.1445 -2.0317
  192SAPI   C2422160   0.230   1.679   4.399 -0.0614  0.2721 -0.0770
  192SAPI   H4R22161   0.304   1.640   4.472  0.6138  1.9785  0.1983
  192SAPI   H4S22162   0.194   1.584   4.353  0.5341 -0.1361  0.2764
  192SAPI   C2522163   0.115   1.739   4.469 -0.7479  0.3563  0.1560
  192SAPI   H5R22164   0.034   1.783   4.410  0.4111 -0.8853 -2.5321
  192SAPI   C2622165   0.106   1.755   4.602 -0.0250  0.4719 -0.6380
  192SAPI   H6R22166   0.023   1.806   4.654 -0.7344 -0.3195 -0.9636
  192SAPI   C2722167   0.204   1.714   4.706 -0.5566 -0.1304 -0.5043
  192SAPI   H7R22168   0.299   1.669   4.671  0.2707  2.2230 -1.4712
  192SAPI   H7S22169   0.156   1.648   4.782  0.7199 -0.3940  0.0968
  192SAPI   C2822170   0.255   1.840   4.767 -0.0213  0.4062  0.9436
  192SAPI   H8R22171   0.313   1.907   4.702  0.8693 -1.1276  0.1008
  192SAPI   C2922172   0.217   1.891   4.887 -0.0932  0.3233 -0.6359
  192SAPI   H9R22173   0.274   1.977   4.925  0.2489  0.3513 -1.2070
  192SAPI  C21022174   0.129   1.810   4.984 -0.1535  0.0253  0.0516
  192SAPI  H10R22175   0.153   1.702   4.989  1.6357  0.3451 -0.9351
  192SAPI  H10S22176   0.027   1.790   4.944  0.7409  0.4639 -2.5743
  192SAPI  C21122177   0.126   1.869   5.124 -0.7720  0.3136  0.9893
  192SAPI  H11R22178   0.144   1.977   5.120 -0.7288  0.2748 -0.9897
  192SAPI  C21222179   0.106   1.799   5.240  0.0456  1.6283  0.3692
  192SAPI  H12R22180   0.106   1.852   5.336  0.3520 -0.3640  1.5093
  192SAPI  C21322181   0.072   1.652   5.256 -0.1501  0.7800  0.3299
  192SAPI  H13R22182  -0.025   1.629   5.206 -0.6466  2.0173  0.6840
  192SAPI  H13S22183   0.044   1.649   5.364 -1.0446  1.3692  0.1240
  192SAPI  C21422184   0.166   1.543   5.229 -0.2511  0.2394 -0.1476
  192SAPI  H14R22185   0.146   1.476   5.144  1.1402 -1.5209  0.8352
  192SAPI  C21522186   0.275   1.530   5.308  0.9646  0.0551 -0.4936
  192SAPI  H15R22187   0.339   1.442   5.293  0.5033 -0.5285  0.8231
  192SAPI  C21622188   0.312   1.607   5.432  0.1058  0.4068  0.6835
  192SAPI  H16R22189   0.239   1.687   5.457  0.2146  0.6337  0.2811
  192SAPI  H16S22190   0.399   1.671   5.409 -1.3625  1.3079 -2.9990
  192SAPI  C21722191   0.326   1.518   5.559  0.7975 -0.3376  0.3921
  192SAPI  H17R22192   0.406   1.443   5.541 -0.5910 -1.8864  0.4250
  192SAPI  H17S22193   0.229   1.465   5.569  0.3734  0.2166 -0.6560
  192SAPI  C21822194   0.347   1.607   5.678  0.3405 -0.1197  0.0442
  192SAPI  H18R22195   0.273   1.689   5.686  1.9133  1.4075 -0.5988
  192SAPI  H18S22196   0.430   1.678   5.662 -0.9385  0.7660 -3.4585
  192SAPI  C21922197   0.346   1.537   5.820  0.2144  0.1976 -0.4179
  192SAPI  H19R22198   0.454   1.527   5.845  0.6366  2.5637 -1.0523
  192SAPI  H19S22199   0.293   1.440   5.812  0.3649 -0.2884  2.8204
  192SAPI  C22022200   0.283   1.629   5.928 -0.1733 -0.2985 -0.2613
  192SAPI  H20R22201   0.193   1.678   5.885 -1.6770 -1.5473  1.3658
  192SAPI  H20S22202   0.359   1.697   5.973  0.7511 -0.6844 -1.2054
  192SAPI  H20T22203   0.237   1.584   6.018 -3.3947  4.1216  0.6601
  192SAPI   C3322204   0.377   1.119   4.364  0.5975  0.3033 -0.1703
  192SAPI   H3X22205   0.477   1.083   4.396  0.3875  1.1161  1.5000
  192SAPI   H3Y22206   0.301   1.047   4.399 -1.3232  1.9172 -0.8515
  192SAPI   C3422207   0.347   1.243   4.444 -0.1217 -0.4280 -0.4276
  192SAPI   H4X22208   0.240   1.269   4.430  0.5321  2.2511 -1.2633
  192SAPI   H4Y22209   0.418   1.323   4.411  1.4602 -2.0989 -1.2336
  192SAPI   C3522210   0.374   1.212   4.594  0.7759  0.5203  0.2874
  192SAPI   H5X22211   0.483   1.193   4.606  0.7819 -0.1762 -0.6973
  192SAPI   H5Y22212   0.318   1.121   4.624 -0.1649 -0.1525 -3.0959
  192SAPI   C3622213   0.336   1.328   4.684 -0.2198 -0.3661  0.1928
  192SAPI   H6X22214   0.226   1.342   4.686 -0.5412 -2.6001  0.9214
  192SAPI   H6Y22215   0.398   1.419   4.667  2.3670 -1.8662  0.9307
  192SAPI   C3722216   0.357   1.293   4.832 -0.1769 -0.2291 -0.8796
  192SAPI   H7X22217   0.323   1.189   4.850 -2.4628  0.4802 -0.8156
  192SAPI   H7Y22218   0.298   1.357   4.901  1.5568 -1.3664  1.8351
  192SAPI   C3822219   0.510   1.294   4.872  0.4984 -0.8202 -0.5910
  192SAPI   H8X22220   0.532   1.403   4.877 -2.8126 -0.1127  1.3972
  192SAPI   H8Y22221   0.558   1.228   4.796  1.3256  0.2223 -1.0078
  192SAPI   C3922222   0.535   1.232   5.017 -0.0824  0.3743  0.2953
  192SAPI   H9X22223   0.645   1.220   5.028 -0.2539 -0.2454  1.6434
  192SAPI   H9Y22224   0.476   1.137   5.015  1.0965 -0.4023  0.9656
  192SAPI  C31022225   0.480   1.304   5.142  0.2825 -0.3941  0.1223
  192SAPI  H10X22226   0.369   1.305   5.132  0.2501 -1.0668  0.3929
  192SAPI  H10Y22227   0.515   1.409   5.139 -0.6572 -0.0970 -1.3616
  192SAPI  C31122228   0.513   1.228   5.269  0.2047 -0.0427 -0.2436
  192SAPI  H11X22229   0.506   1.123   5.233  1.9108  0.1013 -1.0805
  192SAPI  H11Y22230   0.441   1.255   5.349  2.4049  0.7837  1.5716
  192SAPI  C31222231   0.657   1.266   5.301 -0.0665 -0.3077 -0.3721
  192SAPI  H12X22232   0.670   1.373   5.327 -0.7781 -0.2445 -0.2606
  192SAPI  H12Y22233   0.717   1.250   5.209 -1.4245  2.9967 -1.9915
  192SAPI  C31322234   0.729   1.188   5.415  0.7323  0.1061  0.1133
  192SAPI  H13X22235   0.836   1.217   5.429  0.4860  0.0645  2.4955
  192SAPI  H13Y22236   0.733   1.080   5.389  2.4845  0.6500 -2.3011
  192SAPI  C31422237   0.651   1.205   5.548 -0.8050 -0.0641 -0.4933
  192SAPI  H14X22238   0.547   1.171   5.529 -0.2555 -1.6280 -0.8453
  192SAPI  H14Y22239   0.657   1.315   5.567  0.6754 -0.2754  0.3836
  192SAPI  C31522240   0.715   1.135   5.673 -0.1214 -0.0204  0.0459
  192SAPI  H15X22241   0.824   1.115   5.668 -0.1246 -0.1926  0.6279
  192SAPI  H15Y22242   0.671   1.034   5.674  0.8154 -0.4363  0.4011
  192SAPI  C31622243   0.673   1.210   5.799  0.5372 -0.4627  0.2801
  192SAPI  H16X22244   0.694   1.148   5.888 -0.4430  2.0614  2.3886
  192SAPI  H16Y22245   0.564   1.227   5.802  0.3735 -1.2025 -0.7154
  192SAPI  C31722246   0.730   1.344   5.831  0.0258  0.3235 -0.4699
  192SAPI  H17X22247   0.682   1.384   5.923 -1.4043  1.8432 -1.8328
  192SAPI  H17Y22248   0.692   1.415   5.754 -1.1171 -0.6207 -0.8012
  192SAPI  C31822249   0.883   1.347   5.848  0.1865 -0.0511 -0.2320
  192SAPI  H18X22250   0.926   1.443   5.813 -0.9502  0.3255 -0.6569
  192SAPI  H18Y22251   0.915   1.269   5.776  0.1055  1.3190 -1.8246
  192SAPI  H18Z22252   0.922   1.325   5.950  0.4964  0.1035 -0.3151
  193SOD    SOD22253   1.074   1.490   0.338 -0.3994  0.0929 -0.3006
  194SOD    SOD22254   2.823   4.615   2.444  0.1038 -0.3958  0.0654
  195SOD    SOD22255   4.378   3.418   1.967  0.3020  0.2036 -0.0319
  196SOD    SOD22256   0.748   5.457   0.523  0.3162  0.4097  0.5667
  197SOD    SOD22257   6.296   4.801   1.486 -0.5295  0.2198  0.0248
  198SOD    SOD22258   6.585   0.361   7.937  0.3786 -0.7197  0.0033
  199SOD    SOD22259   0.781   0.057   3.972  0.2637 -1.0053 -0.0133
  200SOD    SOD22260   5.077   1.830   3.619  0.1767  0.4064 -0.1710
  201SOD    SOD22261   5.326   1.172   8.470 -0.6524 -0.0391  0.1855
  202SOD    SOD22262   0.033   0.826   8.574  0.1735 -0.3046 -0.1757
  203SOD    SOD22263   2.773   6.540   8.413 -0.1644  0.4294  0.1038
  204SOD    SOD22264   3.833   0.284   1.052  0.4198  0.4031  0.3325
  205SOD    SOD22265   1.058   0.940   3.115 -0.3076  0.5334 -0.2611
  206SOD    SOD22266   1.725   6.366   1.253 -0.4652 -0.1357  0.2978
  207SOD    SOD22267   5.941   1.695   0.735 -0.0213 -0.3012 -0.3612
  208SOD    SOD22268   4.697   5.531   2.455  0.1648 -0.0926  0.1440
  209SOD    SOD22269   0.911   4.506   0.077 -0.4914 -0.4261  0.2983
  210SOD    SOD22270   5.140   1.539   2.010 -0.3508 -0.4705  0.2062
  211SOD    SOD22271   3.139   6.441   2.499  0.3887  0.0968  0.1886
  212SOD    SOD22272   5.312   4.357   1.532  0.2085  0.3018  0.0806
  213SOD    SOD22273   5.279   2.971   2.300  0.0631 -0.5207 -0.5494
  214SOD    SOD22274   0.578   4.325   1.430  0.2574 -0.4762 -0.4269
  215SOD    SOD22275   2.309   2.931   2.864 -0.1284  0.2323 -0.4778
  216SOD    SOD22276   6.328   6.173   1.402  0.1916 -0.4242 -0.4238
  217SOD    SOD22277   1.755   5.380   2.042  0.4083 -0.0674 -0.8607
  218SOD    SOD22278   4.825   0.428   8.263  0.2387 -0.4194  0.2887
  219SOD    SOD22279   2.974   4.031   2.143  0.0172  0.1612 -0.1232
  220SOD    SOD22280   3.416   4.360   8.392 -0.1668  0.0057 -0.2472
  221SOD    SOD22281   3.115   2.922   0.795 -0.3326  0.1354 -0.4740
  222SOD    SOD22282   0.495   2.865   8.110 -0.2305  0.6407 -0.0706
  223SOD    SOD22283   2.284   4.829   2.181  0.2267 -0.7423 -0.4272
  224SOD    SOD22284   4.368   0.381   3.867  0.1034 -0.4023 -0.0152
  225SOD    SOD22285   2.486   4.483   3.369 -0.5274 -0.1395  0.2559
  226SOD    SOD22286   1.025   5.090   2.148  0.3497  0.3179 -0.2476
  227SOD    SOD22287   4.022   4.467   2.343 -0.1724 -0.3264  0.1661
  228SOD    SOD22288   6.333   0.024   2.501 -0.0061  0.2903  0.0432
  229SOD    SOD22289   2.596   2.369   8.537 -0.2259 -0.5960  0.0605
  230SOD    SOD22290   0.398   6.541   0.327  0.1706 -0.0238 -0.0612
  231SOD    SOD22291   1.493   2.930   8.613  0.0504  0.0438  0.2677
  232SOD    SOD22292   3.944   4.521   3.166  0.3928 -0.2508 -0.3570
  233SOD    SOD22293   6.205   1.929   2.130 -0.4834 -0.1980  0.4116
  234CLA    CLA22294   1.853   1.114   2.544 -0.3677 -0.2897  0.1802
  235CLA    CLA22295   0.376   4.522   3.347 -0.0181 -0.3902 -0.1450
  236CLA    CLA22296   6.688   2.638   1.120 -0.3717 -0.1811 -0.1776
  237CLA    CLA22297   5.852   1.376   1.886  0.1953  0.1476 -0.0389
  238CLA    CLA22298   0.719   6.004   1.134 -0.0847 -0.3418  0.2715
  239CLA    CLA22299   4.029   0.136   1.910  0.2566  0.2931  0.0245
  240CLA    CLA22300   2.394   3.495   0.844 -0.0959  0.3031  0.3227
  241CLA    CLA22301   3.982   4.726   1.470 -0.0561 -0.0509 -0.0573
  242CLA    CLA22302   2.801   6.799   1.493  0.0042  0.3950  0.0579
  243CLA    CLA22303   5.750   6.157   0.222 -0.0115  0.0572  0.0943
  244CLA    CLA22304   6.530   6.581   1.032  0.1069  0.3000 -0.3043
  245CLA    CLA22305   3.909   2.713   0.601 -0.1776 -0.0721  0.1486
  246CLA    CLA22306   1.270   6.656   2.653 -0.4248  0.0094  0.1083
  247CLA    CLA22307   5.566   4.445   1.592 -0.4243  0.1183  0.4010
  248CLA    CLA22308   6.335   1.905   2.870  0.0356  0.0626  0.0719
  249CLA    CLA22309   5.673   2.144   2.603 -0.0454  0.0577  0.1546
  250CLA    CLA22310   1.969   4.447   2.116 -0.8079 -0.1708 -0.0137
  251TIP3   OH222311   2.793   2.739   0.873  0.1749 -0.2394  0.1437
  251TIP3    H122312   2.726   2.723   0.807  1.4340  0.1188 -1.2905
  251TIP3    H222313   2.852   2.663   0.866  0.8194  0.2448  0.1994
  252TIP3   OH222314   1.919   0.513   0.377 -0.0773 -0.0784 -0.2506
  252TIP3    H122315   1.937   0.593   0.427  0.2427  0.6361 -1.4653
  252TIP3    H222316   2.006   0.478   0.355 -0.1908 -1.4592  1.2882
  253TIP3   OH222317   3.753   5.783   3.515  0.1639 -0.2032  0.4423
  253TIP3    H122318   3.751   5.874   3.484  0.6185 -0.4626 -0.3801
  253TIP3    H222319   3.663   5.764   3.540 -0.0280  0.3204  0.1674
  254TIP3   OH222320   0.972   2.793   4.084 -0.0539  0.0638  0.4602
  254TIP3    H122321   1.026   2.715   4.094 -0.3610  0.0527  2.2697
  254TIP3    H222322   0.883   2.763   4.098 -0.5627  0.1809 -2.0184
  255TIP3   OH222323   1.797   6.551   1.616 -0.1965 -0.6163  0.0553
  255TIP3    H122324   1.725   6.529   1.675 -0.9478 -0.8510 -0.9174
  255TIP3    H222325   1.769   6.631   1.572  0.6948 -0.0124  0.5622
  256TIP3   OH222326   0.274   5.866   3.381 -0.0214 -0.4108 -0.1578
  256TIP3    H122327   0.363   5.902   3.373  0.0170 -0.9297 -3.5652
  256TIP3    H222328   0.218   5.944   3.387  0.5095  0.0671 -1.0022
  257TIP3   OH222329   0.129   3.935   2.679 -0.3267  0.1009  0.0543
  257TIP3    H122330   0.152   3.852   2.637 -1.2850  0.0812 -0.4671
  257TIP3    H222331   0.110   3.994   2.607 -1.2368  0.2980  0.4428
  258TIP3   OH222332   3.982   2.268   0.926 -0.2736 -0.3743  0.8442
  258TIP3    H122333   4.035   2.307   0.857 -1.4218 -2.7333 -1.5531
  258TIP3    H222334   4.042   2.207   0.970  0.1303  0.2009  1.1039
  259TIP3   OH222335   1.945   1.466   1.582 -0.2821  0.1567 -0.3148
  259TIP3    H122336   1.930   1.395   1.645 -0.9735 -0.7067 -1.4316
  259TIP3    H222337   1.889   1.538   1.612  0.6340  0.3729  0.9861
  260TIP3   OH222338   3.523   2.923   0.419 -0.6725  0.1481 -0.0363
  260TIP3    H122339   3.567   3.007   0.429  1.9597 -0.9575 -1.1996
  260TIP3    H222340   3.553   2.871   0.493 -0.4562 -0.4363 -0.5202
  261TIP3   OH222341   1.130   4.785   3.224  0.1259  0.2514  0.2286
  261TIP3    H122342   1.151   4.878   3.217 -0.8459  0.5102  0.6174
  261TIP3    H222343   1.213   4.740   3.206  0.5208  1.1773 -0.3125
  262TIP3   OH222344   5.938   3.259   0.303  0.3934 -0.0513  0.7549
  262TIP3    H122345   6.005   3.205   0.262  1.5338  0.4285  1.9056
  262TIP3    H222346   5.922   3.330   0.240 -1.1445 -1.6553 -0.7833
  263TIP3   OH222347   1.739   2.249   1.159 -1.2871  0.3580 -0.8701
  263TIP3    H122348   1.683   2.271   1.234 -1.5217  0.3342 -1.0394
  263TIP3    H222349   1.795   2.179   1.191 -0.7752  0.9488 -0.4315
  264TIP3   OH222350   3.991   4.174   1.643 -0.5205 -0.5595 -0.4782
  264TIP3    H122351   4.071   4.227   1.646  0.5595 -2.1265 -0.0404
  264TIP3    H222352   4.021   4.088   1.613 -1.9371 -1.3803  0.3494
  265TIP3   OH222353   3.437   1.512   1.246  0.6702 -0.4894  0.1696
  265TIP3    H122354   3.397   1.525   1.160 -0.1234 -0.0690  0.5941
  265TIP3    H222355   3.524   1.551   1.237  0.5649 -0.3694 -0.4160
  266TIP3   OH222356   5.349   4.858   2.005 -0.0126 -0.4392  0.3508
  266TIP3    H122357   5.402   4.779   2.011  2.6697  1.2576  0.4591
  266TIP3    H222358   5.294   4.856   2.084  1.9629 -0.9267  1.7916
  267TIP3   OH222359   2.836   2.727   2.572 -0.5494  0.3872  0.3048
  267TIP3    H122360   2.903   2.737   2.504  1.4448 -0.4933  2.0502
  267TIP3    H222361   2.827   2.815   2.609 -1.0269  0.6919 -0.5048
  268TIP3   OH222362   6.219   0.418   7.827 -0.0074 -0.6611 -0.4295
  268TIP3    H122363   6.202   0.497   7.879 -0.5805 -0.4848 -0.8731
  268TIP3    H222364   6.199   0.346   7.887 -2.2397 -0.4621 -0.8485
  269TIP3   OH222365   2.858   5.594   1.594 -0.5895  0.1668  0.4553
  269TIP3    H122366   2.912   5.519   1.573 -1.0242 -0.1552  0.4730
  269TIP3    H222367   2.899   5.667   1.548 -0.0576 -0.0454  0.5929
  270TIP3   OH222368   6.640   6.510   7.993 -0.0151  0.2659 -0.1452
  270TIP3    H122369   6.548   6.530   8.006  0.1073  1.1003 -0.5212
  270TIP3    H222370   6.640   6.434   7.934 -0.4754 -0.7126  1.0625
  271TIP3   OH222371   3.839   3.931   0.303 -0.0861 -0.5602 -0.7526
  271TIP3    H122372   3.817   4.010   0.254  0.2694  0.0818  0.0861
  271TIP3    H222373   3.934   3.924   0.295 -0.1102 -0.8799 -0.7806
  272TIP3   OH222374   4.966   5.126   1.456  0.2111  0.1420  0.0649
  272TIP3    H122375   5.041   5.068   1.442  0.9137  0.8799  0.6378
  272TIP3    H222376   4.979   5.197   1.392 -1.7717 -1.3263 -2.1267
  273TIP3   OH222377   2.575   5.183   0.185  0.0799  0.2160  0.3294
  273TIP3    H122378   2.482   5.191   0.165  0.2887  0.4309 -0.6151
  273TIP3    H222379   2.618   5.176   0.099  0.9322  0.1008  0.7470
  274TIP3   OH222380   6.147   2.145   2.058 -0.0905  0.6766 -0.0420
  274TIP3    H122381   6.101   2.193   2.128 -1.0824 -0.9685  0.4922
  274TIP3    H222382   6.190   2.213   2.007 -1.0369  2.0960  0.9662
  275TIP3   OH222383   5.494   3.903   1.620  0.9181 -0.3731 -0.1778
  275TIP3    H122384   5.525   3.991   1.641  0.8525 -0.3682 -0.1006
  275TIP3    H222385   5.549   3.875   1.547  0.5974 -0.0710 -0.5315
  276TIP3   OH222386   5.169   5.456   2.227 -0.4741 -0.0466  0.0933
  276TIP3    H122387   5.175   5.386   2.162  0.9848  0.1161  0.0239
  276TIP3    H222388   5.220   5.425   2.301 -0.4173  0.6378  0.3470
  277TIP3   OH222389   1.510   6.711   2.273 -0.1994 -0.3048  0.3065
  277TIP3    H122390   1.433   6.660   2.296  0.8321 -2.8748 -1.3594
  277TIP3    H222391   1.583   6.649   2.282  1.2188  1.0083 -1.3259
  278TIP3   OH222392   5.551   3.397   0.190  0.2754  0.6213 -0.6743
  278TIP3    H122393   5.496   3.327   0.227  2.5373 -0.5047  0.7757
  278TIP3    H222394   5.492   3.445   0.132 -2.5248  0.1590  1.5310
  279TIP3   OH222395   5.817   6.586   0.785  0.3279  0.3031 -0.2842
  279TIP3    H122396   5.892   6.540   0.746  0.5671 -0.1376  0.6660
  279TIP3    H222397   5.847   6.608   0.873 -0.8027 -0.2099  0.2390
  280TIP3   OH222398   3.218   5.882   8.570  0.0339  0.1169  0.1107
  280TIP3    H122399   3.206   5.950   8.504 -1.6202 -0.3342 -0.1059
  280TIP3    H222400   3.197   5.800   8.524 -1.6872 -0.1570  1.2905
  281TIP3   OH222401   4.291   1.763   3.159 -0.1054  0.5779 -0.4489
  281TIP3    H122402   4.226   1.823   3.196 -0.1863 -0.0941  0.5380
  281TIP3    H222403   4.364   1.765   3.221 -0.4642 -0.9742  0.0725
  282TIP3   OH222404   5.870   0.776   2.141  0.3323  0.0550  0.1352
  282TIP3    H122405   5.899   0.790   2.051  1.0541  0.3932  0.4164
  282TIP3    H222406   5.896   0.686   2.160  0.1130 -0.0419 -0.0150
  283TIP3   OH222407   6.490   3.397   2.328 -0.4368 -0.3739 -0.9357
  283TIP3    H122408   6.514   3.337   2.398 -1.1800 -1.0458 -1.2433
  283TIP3    H222409   6.572   3.441   2.306 -0.1590 -0.2734  0.2245
  284TIP3   OH222410   5.061   3.583   2.057  0.1055 -0.4524 -0.0631
  284TIP3    H122411   5.145   3.575   2.011  0.0392 -0.8699 -0.1209
  284TIP3    H222412   5.013   3.504   2.031 -0.2812 -0.2467  0.0181
  285TIP3   OH222413   1.250   4.659   1.576 -0.0192  0.1020 -0.0911
  285TIP3    H122414   1.264   4.688   1.486 -1.7007  1.1349 -0.0572
  285TIP3    H222415   1.323   4.600   1.593 -0.7673 -1.8743 -2.8623
  286TIP3   OH222416   1.756   5.084   2.876 -0.5069 -0.2017  0.1181
  286TIP3    H122417   1.805   5.156   2.916 -0.4484  0.0925 -0.4718
  286TIP3    H222418   1.665   5.100   2.902 -0.5616  0.3565 -0.3980
  287TIP3   OH222419   4.041   3.162   8.288  0.2261 -0.2455 -0.1010
  287TIP3    H122420   4.073   3.183   8.200 -0.9719 -2.1307 -1.0375
  287TIP3    H222421   3.945   3.164   8.280  0.0488 -3.0680  0.4227
  288TIP3   OH222422   3.720   4.611   0.320 -0.1254  0.6538 -0.8781
  288TIP3    H122423   3.704   4.553   0.395  1.0969  1.4680  0.0451
  288TIP3    H222424   3.796   4.572   0.276  1.1430  1.8867  0.1459
  289TIP3   OH222425   3.711   4.676   2.620 -0.4678 -0.3025 -0.0010
  289TIP3    H122426   3.748   4.647   2.704 -3.4474 -0.5987  1.3642
  289TIP3    H222427   3.695   4.769   2.632  3.4132  0.8409 -2.1278
  290TIP3   OH222428   3.174   0.320   3.194 -0.1623 -0.1146 -0.0128
  290TIP3    H122429   3.154   0.234   3.231 -1.7602  0.1492 -0.1892
  290TIP3    H222430   3.149   0.382   3.263  1.1843  0.2339  0.2018
  291TIP3   OH222431   3.078   1.587   1.443  0.4877  0.3759 -0.3051
  291TIP3    H122432   3.172   1.580   1.460  0.1108 -0.9625  1.5750
  291TIP3    H222433   3.049   1.658   1.500  0.1138 -0.3529  0.4384
  292TIP3   OH222434   6.136   4.747   2.237 -0.1313  0.4154  0.9534
  292TIP3    H122435   6.180   4.746   2.153 -1.9049  1.9929 -0.0755
  292TIP3    H222436   6.158   4.663   2.277  3.3961  0.9364  0.3992
  293TIP3   OH222437   6.669   3.837   2.052 -0.1160 -0.4209 -0.0559
  293TIP3    H122438   6.609   3.839   1.978 -0.1235  1.1834 -0.0568
  293TIP3    H222439   6.615   3.814   2.127 -0.1384 -1.9049 -0.5070
  294TIP3   OH222440   3.306   2.721   1.386  0.0604  0.2117 -0.3680
  294TIP3    H122441   3.257   2.680   1.458  0.6304 -0.4455 -0.3539
  294TIP3    H222442   3.384   2.758   1.428 -0.3454  1.1442 -0.4128
  295TIP3   OH222443   0.904   5.523   2.882 -0.1456  0.2699  0.2362
  295TIP3    H122444   0.900   5.429   2.869 -1.6592  0.4905 -1.2322
  295TIP3    H222445   0.814   5.549   2.902 -0.0820  1.5857 -0.9974
  296TIP3   OH222446   2.853   6.396   0.788 -0.2143 -0.2275  0.4589
  296TIP3    H122447   2.839   6.490   0.794  0.2019 -0.0858 -0.6387
  296TIP3    H222448   2.876   6.369   0.877  2.0555  1.0995  0.3458
  297TIP3   OH222449   4.734   4.630   8.716  0.1484  0.4801  0.8051
  297TIP3    H122450   4.720   4.658   8.625  0.5524  1.4912  1.0364
  297TIP3    H222451   4.669   4.679   8.767 -0.2353 -0.2606  1.0485
  298TIP3   OH222452   1.843   4.567   3.094 -0.2304 -0.0671 -0.3377
  298TIP3    H122453   1.894   4.547   3.016 -0.7969  1.3116 -1.0984
  298TIP3    H222454   1.901   4.545   3.167  1.0744  0.5255 -1.1632
  299TIP3   OH222455   5.734   5.492   0.912  0.0591  0.2514  0.8649
  299TIP3    H122456   5.720   5.476   0.818 -0.5888 -0.4675  1.0720
  299TIP3    H222457   5.770   5.580   0.916 -0.0340  0.3458 -0.0553
  300TIP3   OH222458   6.462   6.374   3.541 -0.3324  0.7186  0.4975
  300TIP3    H122459   6.389   6.358   3.601  0.5122  0.7757  1.5781
  300TIP3    H222460   6.537   6.388   3.598  0.4562  1.0462 -0.5833
  301TIP3   OH222461   5.412   5.151   2.217 -0.2742  0.1055  0.3302
  301TIP3    H122462   5.446   5.231   2.259 -1.0618 -0.0555  1.3037
  301TIP3    H222463   5.348   5.116   2.280 -0.3439 -0.9947 -0.3299
  302TIP3   OH222464   6.484   5.161   1.275 -0.0789 -0.0172 -0.5599
  302TIP3    H122465   6.460   5.246   1.238  0.6072  0.0269 -0.9360
  302TIP3    H222466   6.401   5.117   1.291 -0.4284  0.5252 -0.8481
  303TIP3   OH222467   0.301   1.238   2.511 -0.3351  0.5361 -0.4708
  303TIP3    H122468   0.381   1.274   2.474  0.5841 -2.8001 -2.1249
  303TIP3    H222469   0.235   1.252   2.443  0.1621 -1.1688 -1.3769
  304TIP3   OH222470   3.357   0.575   2.956 -0.1248  0.4991  0.1634
  304TIP3    H122471   3.359   0.581   2.860 -1.4523 -2.5517 -0.1674
  304TIP3    H222472   3.264   0.577   2.978  0.0781 -0.7024  1.2008
  305TIP3   OH222473   4.235   3.732   0.440  0.5759  0.0110  0.2600
  305TIP3    H122474   4.300   3.737   0.510 -0.1594  0.2959  0.9316
  305TIP3    H222475   4.265   3.659   0.385  0.6379 -0.8565  1.4133
  306TIP3   OH222476   6.779   3.868   0.919 -0.2722 -0.2617 -0.1468
  306TIP3    H122477   6.859   3.875   0.868 -0.1514 -0.7104 -0.0245
  306TIP3    H222478   6.711   3.906   0.863  0.0758  0.4223 -0.1181
  307TIP3   OH222479   4.160   0.682   2.081 -0.0173  0.0157 -0.0401
  307TIP3    H122480   4.094   0.617   2.058  0.5259 -1.2886  1.9288
  307TIP3    H222481   4.118   0.737   2.147  0.8503 -0.8702  1.2837
  308TIP3   OH222482   6.528   4.019   0.433  0.7645 -0.2600  0.4023
  308TIP3    H122483   6.619   4.043   0.449  0.7340 -1.8401  3.6956
  308TIP3    H222484   6.477   4.084   0.480  0.2414 -0.2251 -0.2043
  309TIP3   OH222485   2.357   3.131   3.172  0.0817  1.0073 -0.0504
  309TIP3    H122486   2.450   3.130   3.149  0.3767  2.8488  0.8780
  309TIP3    H222487   2.313   3.094   3.096  1.5341  0.4419 -0.6551
  310TIP3   OH222488   6.032   1.018   2.440  0.6449 -0.1855  0.5821
  310TIP3    H122489   6.078   0.934   2.445 -1.0683 -1.2462 -0.4477
  310TIP3    H222490   5.975   1.019   2.516  0.8192  0.1757  0.7148
  311TIP3   OH222491   1.808   3.922   0.992  0.1669 -0.2160  0.0481
  311TIP3    H122492   1.888   3.892   1.035  1.3838  0.4773 -1.5986
  311TIP3    H222493   1.785   3.852   0.932 -1.3800 -1.0748  1.5775
  312TIP3   OH222494   0.778   3.432   1.064 -0.0360 -0.4243 -0.7174
  312TIP3    H122495   0.788   3.417   1.159  1.0047 -1.3312 -0.9428
  312TIP3    H222496   0.860   3.401   1.027 -0.2412  0.3848 -1.8871
  313TIP3   OH222497   6.357   4.789   3.536 -0.0391  0.0135  0.0233
  313TIP3    H122498   6.438   4.812   3.491 -0.3131  0.1104 -0.4235
  313TIP3    H222499   6.371   4.698   3.564  0.6588  0.3836  0.9414
  314TIP3   OH222500   6.776   6.691   3.498 -0.0831 -0.2736 -0.0757
  314TIP3    H122501   6.727   6.700   3.416 -0.8082  2.2266  0.5244
  314TIP3    H222502   6.708   6.685   3.566  0.4220  0.9950  0.5800
  315TIP3   OH222503   1.509   0.522   4.295  0.1375  0.2266  0.1809
  315TIP3    H122504   1.432   0.570   4.265 -1.5174 -0.6624  2.6625
  315TIP3    H222505   1.553   0.581   4.355  1.6450  0.8290 -1.4215
  316TIP3   OH222506   2.702   3.542   3.251 -0.4747 -0.3038  0.1475
  316TIP3    H122507   2.663   3.618   3.294  0.0026  0.6304 -1.0221
  316TIP3    H222508   2.790   3.535   3.289  0.1693  0.8847 -1.0335
  317TIP3   OH222509   0.932   2.074   2.092  0.3526  0.2615  0.5987
  317TIP3    H122510   0.979   2.004   2.047 -2.6383 -0.4272 -1.7940
  317TIP3    H222511   0.879   2.028   2.157  1.5410  0.8372  2.0255
  318TIP3   OH222512   2.291   3.013   0.548  0.1399 -0.8665  0.1135
  318TIP3    H122513   2.288   3.057   0.633  0.7422  0.3220 -0.4601
  318TIP3    H222514   2.272   3.082   0.484  1.1251 -1.4170 -0.8146
  319TIP3   OH222515   3.792   5.276   3.644  0.0375 -0.0857 -0.1696
  319TIP3    H122516   3.846   5.247   3.717 -0.5681 -2.1636 -0.4584
  319TIP3    H222517   3.739   5.347   3.679 -0.6185 -1.3736  1.6153
  320TIP3   OH222518   1.221   1.286   1.909 -0.3592  0.3640 -0.0123
  320TIP3    H122519   1.217   1.200   1.869 -1.9326  1.1502 -1.7007
  320TIP3    H222520   1.200   1.271   2.001  2.9027 -1.4305  0.5718
  321TIP3   OH222521   4.152   4.375   3.258 -0.3208 -0.0502 -0.0380
  321TIP3    H122522   4.193   4.328   3.185 -1.4106  1.1173 -1.4771
  321TIP3    H222523   4.108   4.308   3.309 -0.0376 -0.8359 -0.8072
  322TIP3   OH222524   1.531   1.785   2.400 -0.0526 -0.0556  0.2937
  322TIP3    H122525   1.445   1.805   2.438 -0.1910  0.7314 -0.3766
  322TIP3    H222526   1.583   1.753   2.473 -0.1060  2.0010  1.3140
  323TIP3   OH222527   1.378   1.906   8.477  0.0225  0.1989  0.3510
  323TIP3    H122528   1.452   1.924   8.419  0.5170 -0.0434  0.9015
  323TIP3    H222529   1.396   1.820   8.514 -1.7063 -0.9677 -1.3058
  324TIP3   OH222530   2.880   0.597   2.129  0.1728 -0.0640  0.2073
  324TIP3    H122531   2.849   0.587   2.039  0.9207  1.2454 -0.2235
  324TIP3    H222532   2.843   0.681   2.158  0.1704 -0.3382  1.0209
  325TIP3   OH222533   4.810   2.101   8.471 -0.9045  0.3753  0.3088
  325TIP3    H122534   4.896   2.066   8.495  0.7621  2.3232 -2.3169
  325TIP3    H222535   4.801   2.181   8.522 -0.1294  1.2851 -0.9217
  326TIP3   OH222536   6.723   5.443   0.719 -0.2683 -0.0346 -0.6391
  326TIP3    H122537   6.640   5.490   0.711 -0.7689 -0.6375  0.7595
  326TIP3    H222538   6.717   5.374   0.653  0.6050  1.9275 -2.9441
  327TIP3   OH222539   4.908   6.749   1.870  0.0455 -0.1330 -0.9659
  327TIP3    H122540   4.869   6.836   1.872  0.7740  0.2032 -1.0451
  327TIP3    H222541   4.872   6.708   1.791  0.1436  0.3123 -1.2473
  328TIP3   OH222542   0.973   3.235   1.646 -0.0386  0.2654  0.2676
  328TIP3    H122543   1.017   3.150   1.653  1.2815  1.0899  3.8050
  328TIP3    H222544   0.894   3.225   1.700 -0.9267  0.7614 -0.8890
  329TIP3   OH222545   2.883   4.156   2.570  0.3452 -0.1571  0.1136
  329TIP3    H122546   2.858   4.168   2.479 -0.0529 -2.3379 -0.1312
  329TIP3    H222547   2.801   4.164   2.619  0.2829 -0.5278  0.0786
  330TIP3   OH222548   5.201   1.497   0.492  0.5348 -0.6727  0.0501
  330TIP3    H122549   5.246   1.570   0.534  0.5862  0.3914 -1.7305
  330TIP3    H222550   5.149   1.457   0.561  1.3868  0.3457  1.3280
  331TIP3   OH222551   4.953   5.306   1.987 -0.0465  0.0439  0.2354
  331TIP3    H122552   4.917   5.252   1.916 -1.6435  1.0017  0.2675
  331TIP3    H222553   5.038   5.266   2.006 -0.4226 -1.4092 -0.8944
  332TIP3   OH222554   5.886   3.016   8.722  0.2786 -0.5689 -0.1052
  332TIP3    H122555   5.898   3.006   8.816 -0.1279 -0.1493 -0.0073
  332TIP3    H222556   5.836   2.939   8.696  0.2274 -0.5903  0.0541
  333TIP3   OH222557   5.923   1.288   0.901  0.4467 -0.2369 -0.3444
  333TIP3    H122558   5.892   1.225   0.836  0.4965  0.1985 -0.7972
  333TIP3    H222559   6.017   1.269   0.910  0.7564  0.6712 -1.5159
  334TIP3   OH222560   5.923   2.368   0.130 -0.3805 -0.4343 -0.2058
  334TIP3    H122561   5.851   2.332   0.078 -0.6777 -0.4748  0.2336
  334TIP3    H222562   5.921   2.318   0.212 -0.5671  0.3438  0.2653
  335TIP3   OH222563   3.434   4.220   2.745 -0.8332  0.1725 -0.4856
  335TIP3    H122564   3.407   4.138   2.703 -0.0347 -0.3508  0.0032
  335TIP3    H222565   3.356   4.249   2.793 -0.6102 -1.2870  0.8607
  336TIP3   OH222566   2.758   0.806   8.337  0.0198  0.1755 -0.2500
  336TIP3    H122567   2.734   0.859   8.413 -2.0810  0.6745 -1.1953
  336TIP3    H222568   2.843   0.840   8.310  0.3079  0.6975  1.2364
  337TIP3   OH222569   5.465   2.945   3.007  0.2430  0.1556  0.0691
  337TIP3    H122570   5.547   2.992   2.988 -0.0744  0.7376  0.1095
  337TIP3    H222571   5.483   2.855   2.981  0.9065  0.2730  0.0958
  338TIP3   OH222572   2.095   2.324   2.674 -0.1472  0.1970 -0.4152
  338TIP3    H122573   2.035   2.292   2.741 -1.8138 -1.4448 -2.5552
  338TIP3    H222574   2.182   2.312   2.712 -0.9853 -1.6614  1.0676
  339TIP3   OH222575   4.102   2.812   2.408 -0.1482  0.0031  0.0714
  339TIP3    H122576   4.092   2.768   2.493 -0.1547 -0.7744 -0.3228
  339TIP3    H222577   4.084   2.744   2.344  0.8774  0.3151 -0.5699
  340TIP3   OH222578   2.518   1.432   2.309  0.5529 -0.1331 -0.2658
  340TIP3    H122579   2.503   1.423   2.403 -0.9917  0.8991 -0.3651
  340TIP3    H222580   2.527   1.342   2.277  0.1402 -0.5467  0.7353
  341TIP3   OH222581   0.932   0.948   0.027 -0.2827 -0.5501 -0.3505
  341TIP3    H122582   0.961   1.023  -0.025  0.6869  0.5694  1.6838
  341TIP3    H222583   0.980   0.874  -0.009 -0.7746 -0.1000 -1.9918
  342TIP3   OH222584   1.789   6.610   0.561 -0.0989 -0.0606  0.0964
  342TIP3    H122585   1.716   6.561   0.524  0.5294 -1.0710  0.1563
  342TIP3    H222586   1.867   6.574   0.517  0.3449  1.3022 -0.3014
  343TIP3   OH222587   6.650   1.000   3.611 -0.1241 -0.4425  0.0737
  343TIP3    H122588   6.738   0.969   3.590  0.4565 -1.6328  3.5029
  343TIP3    H222589   6.593   0.926   3.590 -0.0693 -0.3312 -0.4797
  344TIP3   OH222590   2.513   5.230   8.561  0.1001 -0.4835  0.5077
  344TIP3    H122591   2.583   5.190   8.613  0.7025 -0.1791 -0.0504
  344TIP3    H222592   2.488   5.308   8.610  1.5601  0.5203 -0.2445
  345TIP3   OH222593   0.718   3.910   2.170  0.7424  0.2370 -0.3836
  345TIP3    H122594   0.789   3.950   2.220  0.5557  0.0168  0.0598
  345TIP3    H222595   0.757   3.888   2.085  1.4042 -0.5866  0.1301
  346TIP3   OH222596   5.406   0.636   8.175  0.2272  0.2482 -1.1441
  346TIP3    H122597   5.396   0.636   8.270  2.1801 -1.0935 -0.8735
  346TIP3    H222598   5.320   0.612   8.141 -1.1932  3.0355  0.0992
  347TIP3   OH222599   5.507   5.575   2.981 -0.4985 -0.3544  0.0650
  347TIP3    H122600   5.587   5.605   3.024 -1.2992  0.1526  1.2690
  347TIP3    H222601   5.499   5.483   3.007 -1.8156  0.3503  2.4541
  348TIP3   OH222602   0.444   5.142   2.667 -1.0118 -0.0012  0.3359
  348TIP3    H122603   0.373   5.166   2.727 -1.8080 -1.5667  0.0765
  348TIP3    H222604   0.418   5.056   2.633  1.9143 -1.6036  1.7086
  349TIP3   OH222605   6.575   2.915   1.203  0.3429  0.9904  0.3413
  349TIP3    H122606   6.638   2.844   1.192  1.4539  2.1863 -1.7445
  349TIP3    H222607   6.588   2.945   1.293  0.5140 -0.7978  0.9518
  350TIP3   OH222608   3.599   3.650   2.209  0.0059  0.2752 -0.1380
  350TIP3    H122609   3.585   3.616   2.297 -0.2858  0.4630 -0.1102
  350TIP3    H222610   3.511   3.658   2.173  0.1399 -0.1308 -0.5715
  351TIP3   OH222611   0.640   6.450   0.272 -0.0172  0.0749 -0.5120
  351TIP3    H122612   0.712   6.509   0.248  1.6987 -1.3351  0.9192
  351TIP3    H222613   0.652   6.373   0.217 -0.2605 -0.2896 -0.0643
  352TIP3   OH222614   2.478   1.841   0.427 -0.2862 -0.4513 -0.2796
  352TIP3    H122615   2.482   1.751   0.396 -0.7296  0.3023 -2.7124
  352TIP3    H222616   2.567   1.873   0.419 -0.0405 -0.7477  0.9856
  353TIP3   OH222617   5.227   1.134   0.665  0.2752 -0.3340 -0.2025
  353TIP3    H122618   5.164   1.065   0.646  0.1832 -0.4429  0.4686
  353TIP3    H222619   5.308   1.088   0.685  0.9144 -0.1729 -2.1490
  354TIP3   OH222620   4.176   1.420   0.730  0.0062 -0.3820 -0.4134
  354TIP3    H122621   4.216   1.367   0.660  1.6548 -0.9888  0.9304
  354TIP3    H222622   4.240   1.488   0.747 -0.1671 -0.5180  0.8201
  355TIP3   OH222623   0.903   3.736   2.472 -0.3185  0.2006  0.1735
  355TIP3    H122624   0.922   3.681   2.396 -0.8960 -0.4059  0.4642
  355TIP3    H222625   0.813   3.716   2.495 -0.0787  0.2004  1.1679
  356TIP3   OH222626   6.021   5.978   3.818 -0.4486  0.0589 -0.2150
  356TIP3    H122627   6.018   5.905   3.755 -1.3403  1.1166 -1.4664
  356TIP3    H222628   6.038   5.936   3.902 -0.1589 -1.5185 -1.0102
  357TIP3   OH222629   1.800   5.656   0.180 -0.0944 -0.6532 -0.0968
  357TIP3    H122630   1.848   5.738   0.193  1.2930 -1.2047 -1.5622
  357TIP3    H222631   1.712   5.685   0.156 -0.2160  0.3720  1.3844
  358TIP3   OH222632   2.211   0.911   2.215  0.4132 -0.1654  0.0193
  358TIP3    H122633   2.262   0.847   2.265  2.4763  1.0698 -0.4140
  358TIP3    H222634   2.274   0.952   2.156 -1.5870 -0.3173 -2.3958
  359TIP3   OH222635   3.122   6.624   0.571 -0.6871 -0.1798  0.0977
  359TIP3    H122636   3.212   6.628   0.540 -1.0811  1.1088 -0.9792
  359TIP3    H222637   3.069   6.620   0.492 -1.6024 -0.1840  0.6929
  360TIP3   OH222638   0.257   0.298   3.136  0.3819 -0.1779 -0.7090
  360TIP3    H122639   0.183   0.238   3.128 -0.7636  0.5902  2.5800
  360TIP3    H222640   0.332   0.241   3.154 -0.3040 -0.7684  0.3623
  361TIP3   OH222641   0.283   2.055   1.820  0.1608 -0.1227 -0.2203
  361TIP3    H122642   0.331   1.973   1.833  1.5626  0.2366 -2.6221
  361TIP3    H222643   0.197   2.028   1.789  0.7337 -0.7044 -1.3492
  362TIP3   OH222644   3.326   5.090   8.637 -0.1886  0.6853 -0.6784
  362TIP3    H122645   3.413   5.112   8.603  0.2090  0.2425  0.0371
  362TIP3    H222646   3.332   5.109   8.731 -1.6251  3.0489 -0.9768
  363TIP3   OH222647   3.627   3.517   2.501  0.6037 -0.6282 -0.0574
  363TIP3    H122648   3.658   3.442   2.551 -1.1102 -1.3691 -0.0550
  363TIP3    H222649   3.704   3.574   2.494  1.5701 -1.7253  1.1205
  364TIP3   OH222650   5.696   3.679   8.430 -0.0190  0.6049  0.2108
  364TIP3    H122651   5.779   3.633   8.439 -0.0362  1.0103  3.2919
  364TIP3    H222652   5.714   3.748   8.365  1.8632  0.2918  0.3521
  365TIP3   OH222653   6.707   2.840   2.898  0.8662 -0.2206  0.0658
  365TIP3    H122654   6.760   2.866   2.973 -0.0327  1.7626  0.0728
  365TIP3    H222655   6.682   2.922   2.855 -1.1671 -1.1203 -0.6375
  366TIP3   OH222656   2.017   4.245   0.021 -0.1433 -0.1820  0.1534
  366TIP3    H122657   1.968   4.305  -0.036  0.7732  1.6667  1.2024
  366TIP3    H222658   2.108   4.272   0.013  0.2851 -1.3524  0.7884
  367TIP3   OH222659   1.683   4.678   3.515  0.0076 -0.0661  0.5129
  367TIP3    H122660   1.596   4.669   3.553 -0.0800  1.4225  0.7278
  367TIP3    H222661   1.730   4.738   3.574  1.4389 -1.3979  0.8024
  368TIP3   OH222662   3.083   4.690   1.799  0.4999  0.0837  0.9725
  368TIP3    H122663   3.065   4.602   1.834  2.5297  0.2361  2.6001
  368TIP3    H222664   3.178   4.695   1.794  0.3992  1.1664 -2.0131
  369TIP3   OH222665   5.281   0.391   0.676  0.0641 -0.0604 -0.3156
  369TIP3    H122666   5.325   0.315   0.638  0.0566 -0.0457 -0.3535
  369TIP3    H222667   5.190   0.365   0.686 -0.3002  0.5194 -1.8861
  370TIP3   OH222668   2.061   4.081   0.935  0.1372 -0.5125  0.1655
  370TIP3    H122669   1.991   4.016   0.941  0.2386 -0.5987  0.4024
  370TIP3    H222670   2.040   4.145   1.003 -0.5276  0.2526 -0.7279
  371TIP3   OH222671   2.296   0.762   0.504  0.1806 -0.0949  0.4850
  371TIP3    H122672   2.311   0.835   0.444  0.6574 -0.2883  0.3669
  371TIP3    H222673   2.238   0.798   0.572 -0.3486  0.1350 -0.0731
  372TIP3   OH222674   1.642   1.662   2.612 -0.2136 -1.0719 -0.1259
  372TIP3    H122675   1.731   1.699   2.612 -0.6968  0.1596  0.3645
  372TIP3    H222676   1.648   1.586   2.668  0.8831 -1.9469 -1.3570
  373TIP3   OH222677   2.134   2.107   3.445  0.1570  0.4937 -0.0584
  373TIP3    H122678   2.120   2.122   3.538  0.1688  0.5944 -0.0720
  373TIP3    H222679   2.091   2.024   3.427 -0.7512  0.9789 -0.1783
  374TIP3   OH222680   4.935   1.902   3.050  0.7643  0.3029 -0.4554
  374TIP3    H122681   4.911   1.829   3.107  0.8654  0.4656 -0.2025
  374TIP3    H222682   4.991   1.958   3.105 -0.1283  1.0921 -0.3275
  375TIP3   OH222683   5.336   1.715   2.461 -0.4979  0.1044 -0.2803
  375TIP3    H122684   5.367   1.797   2.423 -0.7757  0.7118  0.7723
  375TIP3    H222685   5.415   1.666   2.481 -0.2619  0.8571  0.6735
  376TIP3   OH222686   3.745   4.990   1.386  0.3427  0.4693  0.7530
  376TIP3    H122687   3.838   4.988   1.361  0.1889 -1.0534  0.1839
  376TIP3    H222688   3.705   5.048   1.321  0.8288  0.8424  0.7775
  377TIP3   OH222689   2.670   3.401   2.696  0.5751 -0.3533  0.7631
  377TIP3    H122690   2.734   3.472   2.687  0.1438  0.1677  1.6408
  377TIP3    H222691   2.595   3.432   2.644  0.0997  0.2017  1.7515
  378TIP3   OH222692   2.608   6.691   0.239  0.0006 -0.6271 -0.2141
  378TIP3    H122693   2.590   6.645   0.157 -0.1749  0.0069 -0.5398
  378TIP3    H222694   2.702   6.680   0.253  0.2284  0.0889 -1.0349
  379TIP3   OH222695   2.445   0.366   1.080  0.2852 -0.2256  0.4974
  379TIP3    H122696   2.490   0.436   1.033 -0.8005  0.0094 -0.2412
  379TIP3    H222697   2.507   0.337   1.146  0.4963  1.9403  1.3239
  380TIP3   OH222698   3.894   4.799   2.842 -0.6254 -0.1961 -0.0186
  380TIP3    H122699   3.974   4.755   2.812 -0.5233 -0.1937  0.2542
  380TIP3    H222700   3.878   4.867   2.776  0.1489  0.4502  0.4443
  381TIP3   OH222701   5.293   1.230   3.575  0.1798 -0.3782  0.0401
  381TIP3    H122702   5.333   1.295   3.517  0.4181 -1.0926 -0.6298
  381TIP3    H222703   5.351   1.153   3.567 -0.6762 -1.0301 -0.0262
  382TIP3   OH222704   3.317   3.352   0.799 -0.3634 -0.1069  0.4353
  382TIP3    H122705   3.244   3.314   0.750 -0.7383  0.1496  0.7783
  382TIP3    H222706   3.392   3.297   0.779  0.1620  1.4733 -2.5550
  383TIP3   OH222707   5.194   4.527   0.540 -0.3088  0.0941 -0.0727
  383TIP3    H122708   5.148   4.443   0.544 -0.3391  0.1390  0.5899
  383TIP3    H222709   5.213   4.539   0.447  4.1154 -3.0562  0.1338
  384TIP3   OH222710   3.297   2.160   1.942 -0.1478  0.4916 -0.3312
  384TIP3    H122711   3.385   2.140   1.974  1.1905  2.6520 -2.3289
  384TIP3    H222712   3.239   2.111   2.000  2.2875  0.0563  1.9482
  385TIP3   OH222713   3.254   5.839   2.681 -0.0475 -0.3381  0.0550
  385TIP3    H122714   3.279   5.771   2.744  1.2598 -1.0843 -1.2082
  385TIP3    H222715   3.209   5.791   2.611  0.4100  0.1546 -0.5894
  386TIP3   OH222716   5.603   1.700   3.863  0.3212 -0.4258  0.3956
  386TIP3    H122717   5.661   1.627   3.887  1.5875  0.2989 -0.3272
  386TIP3    H222718   5.626   1.770   3.924 -0.4833 -0.4191  0.7100
  387TIP3   OH222719   1.525   3.210   1.673  0.1547 -0.2249  0.3208
  387TIP3    H122720   1.566   3.156   1.606 -0.5653 -0.2120 -0.1325
  387TIP3    H222721   1.580   3.197   1.751  3.0387  2.2637 -1.0404
  388TIP3   OH222722   4.608   5.161   1.692 -0.3828 -0.2217  0.2547
  388TIP3    H122723   4.683   5.178   1.749  0.0963 -1.5487  0.0552
  388TIP3    H222724   4.615   5.226   1.622  1.0211 -0.8171 -0.1807
  389TIP3   OH222725   2.789   5.784   2.998 -0.3578 -0.0422  0.2546
  389TIP3    H122726   2.741   5.757   2.919 -0.2627 -0.1724  0.2411
  389TIP3    H222727   2.790   5.707   3.054  1.7272 -0.7669 -0.6624
  390TIP3   OH222728   3.041   5.126   1.746 -0.0577 -0.1737  0.5598
  390TIP3    H122729   3.034   5.042   1.700  1.2778  1.6080 -3.3125
  390TIP3    H222730   3.127   5.124   1.789 -0.0352 -0.7616  0.4902
  391TIP3   OH222731   5.168   0.256   8.034 -0.0966  0.5999  0.0143
  391TIP3    H122732   5.193   0.242   7.942 -2.0365 -1.1957 -0.3263
  391TIP3    H222733   5.170   0.169   8.073 -1.7915  0.9390  0.9724
  392TIP3   OH222734   0.578   1.029   1.280  0.2446 -0.2185 -0.3036
  392TIP3    H122735   0.549   0.941   1.304 -1.1700  0.5474  1.0549
  392TIP3    H222736   0.520   1.087   1.330  0.7863  1.4913 -1.5662
  393TIP3   OH222737   3.215   3.631   2.216  0.0753 -0.2122 -0.5730
  393TIP3    H122738   3.153   3.566   2.183  1.4153 -1.2379 -1.1976
  393TIP3    H222739   3.271   3.651   2.141  0.5121  0.6797 -0.0309
  394TIP3   OH222740   5.487   3.309   1.665  0.0871 -0.0659  0.1499
  394TIP3    H122741   5.454   3.228   1.704  1.1078 -0.2970  0.5817
  394TIP3    H222742   5.575   3.286   1.634 -0.5061  0.2170 -1.9396
  395TIP3   OH222743   4.463   1.888   0.845 -1.1346  0.6235 -0.6598
  395TIP3    H122744   4.401   1.943   0.798 -1.3176  1.2362  0.2713
  395TIP3    H222745   4.490   1.941   0.920 -3.3310 -1.4859  1.8005
  396TIP3   OH222746   1.369   1.075   1.233 -0.4942 -0.5000 -0.5353
  396TIP3    H122747   1.413   1.049   1.152  0.7230  0.8132 -0.3429
  396TIP3    H222748   1.377   1.170   1.235 -3.5062 -0.1508 -0.5285
  397TIP3   OH222749   2.984   6.239   2.946  0.2635 -1.0215  0.1071
  397TIP3    H122750   3.024   6.152   2.953  2.3062 -0.0469  1.7977
  397TIP3    H222751   3.054   6.295   2.912 -0.3781  0.3160  0.9016
  398TIP3   OH222752   6.709   5.950   1.503  0.0163  0.5430  0.3678
  398TIP3    H122753   6.786   6.003   1.523 -0.0603  0.1046  1.9733
  398TIP3    H222754   6.732   5.861   1.531 -0.8328  0.2681  0.2450
  399TIP3   OH222755   0.491   2.033   2.386  0.6052  0.2540  0.2796
  399TIP3    H122756   0.503   2.020   2.480  2.4008 -0.4635  0.0052
  399TIP3    H222757   0.448   1.952   2.356  1.5375 -0.2534  0.2628
  400TIP3   OH222758   1.240   4.058   1.921 -0.8405 -0.2720  0.2124
  400TIP3    H122759   1.226   3.971   1.959 -3.2447 -0.3199 -0.6584
  400TIP3    H222760   1.331   4.056   1.890 -1.5191 -3.4612 -2.1233
  401TIP3   OH222761   3.866   1.319   1.691 -0.1464 -0.8848  0.0432
  401TIP3    H122762   3.937   1.260   1.716  0.3014  0.1917  1.5223
  401TIP3    H222763   3.819   1.335   1.773 -0.3241  0.6892 -0.3360
  402TIP3   OH222764   3.790   6.539   3.315 -0.2908 -0.1694  0.1815
  402TIP3    H122765   3.702   6.516   3.346 -0.6008 -0.8077 -1.1210
  402TIP3    H222766   3.786   6.527   3.220  1.2928 -0.5067  0.1295
  403TIP3   OH222767   4.044   3.304   0.209 -0.6447 -0.3257 -0.5914
  403TIP3    H122768   3.968   3.277   0.260 -0.0897 -0.6807  0.0730
  403TIP3    H222769   4.008   3.338   0.127 -1.7446  2.2799  0.8353
  404TIP3   OH222770   3.090   5.729   3.387 -0.4313 -1.0175  0.0143
  404TIP3    H122771   3.159   5.742   3.453  1.8695  0.5199 -2.4871
  404TIP3    H222772   3.009   5.749   3.433  1.0717  0.2975  2.2954
  405TIP3   OH222773   1.487   5.150   1.175 -0.3420 -0.2351 -0.2874
  405TIP3    H122774   1.416   5.190   1.124 -0.0542 -0.5318 -0.9384
  405TIP3    H222775   1.567   5.189   1.140 -0.1843  0.2384  0.5739
  406TIP3   OH222776   1.244   4.377   3.608 -0.1505 -0.4076  0.0297
  406TIP3    H122777   1.216   4.464   3.635  0.3594  0.1878 -1.3009
  406TIP3    H222778   1.259   4.330   3.690  2.7471  1.7765  0.8807
  407TIP3   OH222779   6.563   5.260   8.288 -0.4228  0.1274 -0.1800
  407TIP3    H122780   6.599   5.220   8.367 -2.3075  0.4022  0.8829
  407TIP3    H222781   6.632   5.250   8.222  1.3389  0.1524  1.5566
  408TIP3   OH222782   4.171   6.311   3.027  0.1271  0.1842  0.2279
  408TIP3    H122783   4.266   6.325   3.028  0.4162 -1.5527 -0.3672
  408TIP3    H222784   4.135   6.393   2.994  1.4935  0.5036 -0.5451
  409TIP3   OH222785   3.698   5.537   0.572 -0.4385 -0.3964  0.1983
  409TIP3    H122786   3.775   5.483   0.592  0.4415  0.9940  0.6956
  409TIP3    H222787   3.704   5.554   0.478  0.4395  0.5336  0.4072
  410TIP3   OH222788   3.337   1.535   1.819  0.0777  0.5831  0.4272
  410TIP3    H122789   3.332   1.551   1.725  1.4747 -0.8435  0.0716
  410TIP3    H222790   3.359   1.620   1.857  0.8206  0.9039 -0.6853
  411TIP3   OH222791   5.599   6.232   0.610 -0.6454  0.5090 -0.2949
  411TIP3    H122792   5.606   6.323   0.639  0.9498  0.2912  0.0939
  411TIP3    H222793   5.689   6.206   0.589 -1.0950 -0.9178 -0.6135
  412TIP3   OH222794   2.853   2.408   1.980  0.7455  0.8910 -0.3353
  412TIP3    H122795   2.778   2.378   2.031 -0.0077 -1.4061 -2.5756
  412TIP3    H222796   2.929   2.380   2.032  0.0115 -0.9947 -0.1900
  413TIP3   OH222797   4.104   4.506   8.242  0.0509 -0.4166  0.5991
  413TIP3    H122798   4.169   4.537   8.179  1.0631 -1.4271  1.1034
  413TIP3    H222799   4.029   4.563   8.229  1.1736  1.0541  0.2692
  414TIP3   OH222800   4.863   6.047   2.378  0.6754 -0.0541 -0.2174
  414TIP3    H122801   4.866   6.054   2.473  1.2479  1.6643 -0.3221
  414TIP3    H222802   4.920   6.117   2.347 -0.1577 -0.0400 -1.8374
  415TIP3   OH222803   1.229   2.036   1.840  0.0896 -0.3931  0.0661
  415TIP3    H122804   1.223   1.984   1.921 -2.0373  0.8123  0.7508
  415TIP3    H222805   1.230   1.971   1.770  0.7233 -1.4251  0.9890
  416TIP3   OH222806   3.160   1.960   2.082 -0.0150 -0.0112  0.5365
  416TIP3    H122807   3.209   1.879   2.093 -0.4098 -0.1808  1.0827
  416TIP3    H222808   3.112   1.971   2.164 -1.3615 -0.1792 -0.1928
  417TIP3   OH222809   6.638   2.009   2.459  0.2868 -0.2940  0.4522
  417TIP3    H122810   6.631   2.044   2.548  0.5496 -0.0736  0.3876
  417TIP3    H222811   6.678   2.080   2.408  0.6815 -0.6347  0.2835
  418TIP3   OH222812   3.790   0.747   4.119 -0.2021  0.2951  0.3958
  418TIP3    H122813   3.756   0.761   4.031 -2.1743  1.3817  1.2390
  418TIP3    H222814   3.767   0.657   4.140 -0.3533  0.2501  0.0400
  419TIP3   OH222815   6.634   6.546   2.696 -0.3318 -0.1820 -0.3208
  419TIP3    H122816   6.689   6.615   2.658 -1.0059  0.0253 -0.9417
  419TIP3    H222817   6.692   6.471   2.705 -0.1025 -0.1785 -1.6032
  420TIP3   OH222818   2.146   1.848   3.831  0.4759  0.2500  0.2738
  420TIP3    H122819   2.208   1.836   3.903  1.8495 -0.7093 -1.0076
  420TIP3    H222820   2.189   1.808   3.755 -0.1041  2.7785 -1.5259
  421TIP3   OH222821   3.138   2.438   0.062  0.2260  0.0904 -0.2267
  421TIP3    H122822   3.105   2.358   0.104 -0.8542  0.5233 -0.2220
  421TIP3    H222823   3.061   2.475   0.018  0.1519  2.2532  1.5339
  422TIP3   OH222824   3.296   2.272   8.634 -0.7358 -0.0015  0.2159
  422TIP3    H122825   3.301   2.324   8.714 -0.2982  2.0861 -1.0839
  422TIP3    H222826   3.345   2.323   8.569 -1.7309 -1.2062 -1.5754
  423TIP3   OH222827   4.728   0.274   1.112 -0.7622 -0.2103  0.1647
  423TIP3    H122828   4.822   0.278   1.095 -0.8598  1.4375 -0.1116
  423TIP3    H222829   4.715   0.189   1.153  0.9645 -0.1513  0.9071
  424TIP3   OH222830   0.011   1.908   4.161 -0.0423 -0.3768  0.4580
  424TIP3    H122831  -0.077   1.943   4.150  0.5552  1.0874  0.0836
  424TIP3    H222832   0.034   1.872   4.076  0.4718  1.1020 -0.0563
  425TIP3   OH222833   4.353   5.175   7.979 -0.8915  0.4406  0.0488
  425TIP3    H122834   4.299   5.130   7.914  0.7422 -1.3178 -0.1755
  425TIP3    H222835   4.434   5.196   7.933  0.1292 -0.4501  1.3613
  426TIP3   OH222836   0.147   2.764   2.222  0.9318  0.3032 -0.5222
  426TIP3    H122837   0.067   2.714   2.209  0.0069  1.4867  0.3408
  426TIP3    H222838   0.214   2.698   2.242 -0.1069 -0.6287  0.0185
  427TIP3   OH222839   4.477   1.368   3.092 -0.3529 -0.5155  0.3906
  427TIP3    H122840   4.466   1.434   3.159  0.7621 -1.1742  1.2446
  427TIP3    H222841   4.501   1.288   3.139  3.6859 -0.2867 -0.9016
  428TIP3   OH222842   0.293   5.588   1.182 -0.4099  0.1743  0.2547
  428TIP3    H122843   0.234   5.660   1.206  0.1404  1.1120 -1.1142
  428TIP3    H222844   0.380   5.626   1.186  0.0312 -0.8801  1.0749
  429TIP3   OH222845   4.921   0.946   1.195 -0.5872  0.0484  0.0859
  429TIP3    H122846   4.925   0.856   1.164 -2.5650  0.2420 -0.8443
  429TIP3    H222847   5.006   0.984   1.171  0.5752 -1.7133  1.1420
  430TIP3   OH222848   4.251   4.937   1.601 -0.1004  0.2828  0.1760
  430TIP3    H122849   4.175   4.941   1.543 -1.3917 -3.3841  1.3356
  430TIP3    H222850   4.223   4.984   1.679 -0.9465 -0.3914  0.3020
  431TIP3   OH222851   3.094   5.459   8.740  0.2870  0.0799  0.2482
  431TIP3    H122852   3.107   5.365   8.753  0.5653  0.0503 -0.2067
  431TIP3    H222853   3.180   5.498   8.754  0.3919  0.1473 -0.5340
  432TIP3   OH222854   1.651   2.088   2.900  0.2353 -0.5581  0.3490
  432TIP3    H122855   1.586   2.053   2.838  0.1370 -0.1412  0.2156
  432TIP3    H222856   1.614   2.067   2.986  0.2030 -0.8300  0.2731
  433TIP3   OH222857   5.724   4.639   1.049  0.2511  0.9123 -0.4979
  433TIP3    H122858   5.729   4.544   1.042 -2.8940  0.5449  0.8985
  433TIP3    H222859   5.727   4.670   0.958 -0.0521 -0.5989 -1.0484
  434TIP3   OH222860   2.860   1.589   8.061 -0.4954  0.0564 -0.1006
  434TIP3    H122861   2.884   1.516   8.118  0.7028 -0.0327 -0.6786
  434TIP3    H222862   2.941   1.639   8.051 -0.1481 -0.8646 -3.0263
  435TIP3   OH222863   4.245   3.597   1.031 -0.1620 -0.1702 -0.0301
  435TIP3    H122864   4.320   3.630   1.079  1.1449 -0.9200 -1.4645
  435TIP3    H222865   4.237   3.505   1.057 -0.2931 -0.2117 -0.2107
  436TIP3   OH222866   4.428   2.664   2.377  0.0889  0.0461  0.1150
  436TIP3    H122867   4.404   2.756   2.367 -0.2981 -0.1401 -0.7748
  436TIP3    H222868   4.518   2.659   2.343 -0.9004 -0.4133 -2.6782
  437TIP3   OH222869   2.594   5.369   8.341  0.5727  0.2098  0.3775
  437TIP3    H122870   2.569   5.305   8.408 -0.4544 -0.2447 -0.4296
  437TIP3    H222871   2.676   5.335   8.305 -0.8931 -1.6827 -1.3236
  438TIP3   OH222872   4.836   5.830   1.186  0.5172 -0.2500 -0.6833
  438TIP3    H122873   4.816   5.797   1.098 -0.5460 -0.4413 -0.3850
  438TIP3    H222874   4.818   5.924   1.180 -0.7746 -0.4600 -0.3506
  439TIP3   OH222875   0.035   5.184   3.408  0.3416  0.0482 -0.3447
  439TIP3    H122876   0.049   5.105   3.459 -1.0957  0.4182  0.6855
  439TIP3    H222877  -0.009   5.154   3.328 -0.6131 -0.1670  0.2490
  440TIP3   OH222878   3.359   5.131   2.954  0.6372  0.2068  0.1298
  440TIP3    H122879   3.386   5.174   3.035  1.8595  0.9760 -0.6544
  440TIP3    H222880   3.330   5.044   2.981 -0.2807  0.9126  1.5440
  441TIP3   OH222881   1.004   6.617   3.075  0.3775  0.6182  0.2690
  441TIP3    H122882   0.972   6.690   3.127  0.8501 -0.2471  1.8548
  441TIP3    H222883   1.047   6.559   3.138 -1.2393 -1.7645 -0.6337
  442TIP3   OH222884   4.349   1.389   0.520  0.5969  0.0697  0.3920
  442TIP3    H122885   4.355   1.482   0.500 -0.8724  0.1079  0.0216
  442TIP3    H222886   4.280   1.356   0.463  0.9944 -1.2235  0.6222
  443TIP3   OH222887   5.638   4.340   0.003 -0.1028  0.2957 -0.3546
  443TIP3    H122888   5.577   4.365  -0.066 -0.5174  1.2679  0.3377
  443TIP3    H222889   5.599   4.374   0.083  0.4901 -0.5929  0.3332
  444TIP3   OH222890   2.450   3.246   2.237  0.0136 -0.0680 -0.6727
  444TIP3    H122891   2.434   3.209   2.324 -0.0442  0.8519 -0.2793
  444TIP3    H222892   2.418   3.179   2.177  0.4427 -0.9073 -0.0058
  445TIP3   OH222893   4.255   4.926   8.574  0.0372 -0.4000  0.4462
  445TIP3    H122894   4.287   5.016   8.580  0.0891 -0.4577  1.0335
  445TIP3    H222895   4.298   4.891   8.496  0.1159  0.0417  0.2850
  446TIP3   OH222896   3.250   1.609   0.383 -0.7076  0.1816  0.2604
  446TIP3    H122897   3.261   1.552   0.307  1.7354  0.5736  0.2306
  446TIP3    H222898   3.264   1.552   0.458  0.2278  0.4224  0.2796
  447TIP3   OH222899   0.619   3.900   3.178 -0.5866  0.0367 -0.0695
  447TIP3    H122900   0.611   3.925   3.086 -1.5839  0.3773  0.0967
  447TIP3    H222901   0.551   3.834   3.191 -0.6344  0.1861  0.4834
  448TIP3   OH222902   5.982   1.047   2.772  0.2560 -0.7396 -0.1194
  448TIP3    H122903   5.983   1.068   2.865  1.4572  0.7475 -0.4157
  448TIP3    H222904   5.899   1.084   2.740  0.6905  0.4215  0.0486
  449TIP3   OH222905   2.406   6.093   0.705 -0.2408 -0.0640 -0.9896
  449TIP3    H122906   2.468   6.075   0.634  1.4243  0.6379  0.2280
  449TIP3    H222907   2.362   6.173   0.677 -1.6645 -1.3197 -2.5161
  450TIP3   OH222908   5.445   3.576   8.367 -0.0127 -0.1227 -0.1382
  450TIP3    H122909   5.473   3.589   8.276 -0.7407 -1.3839 -0.5667
  450TIP3    H222910   5.498   3.638   8.418  0.7094  0.2959 -1.3660
  451TIP3   OH222911   2.080   3.203   3.986 -0.3138  0.0636 -0.0912
  451TIP3    H122912   1.995   3.163   4.009 -0.5245 -0.5894 -1.8346
  451TIP3    H222913   2.058   3.269   3.921  0.5417 -0.3230 -0.7864
  452TIP3   OH222914   3.320   1.170   0.927 -0.1373  0.2293 -0.0925
  452TIP3    H122915   3.253   1.152   0.993 -0.0511 -0.9998 -0.3211
  452TIP3    H222916   3.384   1.099   0.937 -0.2940 -0.1735 -1.7098
  453TIP3   OH222917   2.421   3.846   0.480 -0.3808 -0.0592 -0.4126
  453TIP3    H122918   2.420   3.762   0.435 -1.5052  0.3675 -1.2567
  453TIP3    H222919   2.334   3.854   0.519 -0.1353  0.5100  0.0428
  454TIP3   OH222920   5.002   4.049   2.199 -0.0356  0.2346 -0.1270
  454TIP3    H122921   5.076   4.073   2.254 -0.3708 -1.0423  0.9304
  454TIP3    H222922   5.035   3.978   2.144 -0.2993  0.0898 -0.0985
  455TIP3   OH222923   6.441   2.162   1.542  0.0360 -0.1436 -0.2362
  455TIP3    H122924   6.455   2.257   1.539  0.4965 -0.1851  0.5616
  455TIP3    H222925   6.385   2.145   1.466  0.2325  0.7162 -0.5950
  456TIP3   OH222926   6.153   0.229   0.834 -0.2430  0.2804  0.3611
  456TIP3    H122927   6.103   0.296   0.786 -1.1291 -0.7783 -0.2299
  456TIP3    H222928   6.118   0.146   0.803  0.1182 -0.4616  1.8644
  457TIP3   OH222929   2.326   0.620   2.906 -0.0141  0.4618  0.1423
  457TIP3    H122930   2.242   0.578   2.889  0.1005 -0.1086  0.9698
  457TIP3    H222931   2.381   0.551   2.942  0.3865  1.1488  0.8909
  458TIP3   OH222932   5.279   6.515   7.760  0.7048  0.1454 -0.0967
  458TIP3    H122933   5.264   6.428   7.796  1.2079  0.7752  1.7394
  458TIP3    H222934   5.373   6.518   7.744  0.4779 -0.1751 -1.7234
  459TIP3   OH222935   6.272   3.635   0.713  0.4999  0.2241 -0.5499
  459TIP3    H122936   6.294   3.628   0.620  1.0288 -1.3309 -0.3284
  459TIP3    H222937   6.195   3.692   0.716  1.6578  1.9528 -1.7554
  460TIP3   OH222938   5.706   0.401   1.597  0.1834 -0.1458 -0.0822
  460TIP3    H122939   5.686   0.493   1.582 -0.7373 -0.3636 -0.2475
  460TIP3    H222940   5.722   0.395   1.691 -0.6690  0.0207  0.0798
  461TIP3   OH222941   2.611   6.109   1.848 -0.6349  0.0033 -0.4108
  461TIP3    H122942   2.518   6.111   1.869 -0.3183 -1.0204  1.3562
  461TIP3    H222943   2.640   6.199   1.858 -1.7000  0.6469 -2.5571
  462TIP3   OH222944   2.830   4.639   3.117  0.0355  0.1799 -0.0025
  462TIP3    H122945   2.859   4.584   3.189 -2.2666  0.0983  0.9321
  462TIP3    H222946   2.894   4.711   3.115  2.4633 -1.8204 -0.5598
  463TIP3   OH222947   2.268   5.099   8.557  0.1972 -0.4447 -0.0537
  463TIP3    H122948   2.355   5.139   8.551 -0.0407 -0.0707 -1.3714
  463TIP3    H222949   2.282   5.007   8.536  0.2028 -0.2806 -0.7714
  464TIP3   OH222950   4.655   4.912   0.622 -0.0689  0.2970 -0.7648
  464TIP3    H122951   4.700   4.870   0.695 -0.6690  0.1841 -0.4573
  464TIP3    H222952   4.722   4.967   0.581  0.7638 -1.0288 -1.2454
  465TIP3   OH222953   3.428   6.615   3.072 -0.4613  0.0487 -0.3054
  465TIP3    H122954   3.420   6.667   3.151  0.5955 -0.8136  0.3963
  465TIP3    H222955   3.367   6.655   3.010 -1.2046  0.8134  0.8918
  466TIP3   OH222956   6.668   4.111   3.199  0.1297 -0.1828  0.3703
  466TIP3    H122957   6.730   4.087   3.130 -1.5113 -1.6299 -0.6775
  466TIP3    H222958   6.687   4.050   3.270  0.5927  0.0795  0.4762
  467TIP3   OH222959   3.948   1.836   1.884 -0.4305 -0.0488  0.9736
  467TIP3    H122960   3.959   1.774   1.956 -0.6778  0.3746  1.3868
  467TIP3    H222961   3.871   1.888   1.909 -0.9903 -0.4009  0.0362
  468TIP3   OH222962   0.810   6.405   2.323  0.0211 -0.0659 -0.2593
  468TIP3    H122963   0.838   6.364   2.404 -1.2407  1.5393  1.0782
  468TIP3    H222964   0.878   6.470   2.304 -1.0869  1.6442  1.2503
  469TIP3   OH222965   3.388   0.384   2.730 -0.4216  0.1182  0.1925
  469TIP3    H122966   3.468   0.390   2.781 -1.7472  0.3390  2.3937
  469TIP3    H222967   3.379   0.470   2.689 -0.2843  0.6067  1.1623
  470TIP3   OH222968   2.029   0.663   1.859 -0.2466 -0.3702 -0.2974
  470TIP3    H122969   1.990   0.689   1.943 -1.2279  0.5574 -1.0209
  470TIP3    H222970   1.963   0.684   1.794  1.1407  0.5189 -1.4856
  471TIP3   OH222971   6.402   4.596   1.527  0.0562 -0.0989 -0.6986
  471TIP3    H122972   6.373   4.516   1.482 -2.2880  0.1970  0.1712
  471TIP3    H222973   6.435   4.566   1.611  2.1026 -0.4031 -1.5575
  472TIP3   OH222974   6.194   3.978   0.864  0.1324 -0.2631 -0.2408
  472TIP3    H122975   6.229   3.961   0.776 -3.9224  0.5566 -2.2848
  472TIP3    H222976   6.197   4.073   0.873  1.1577 -0.3753  0.8969
  473TIP3   OH222977   2.225   1.649   2.156 -0.6839 -0.0222  0.2360
  473TIP3    H122978   2.292   1.611   2.214  0.7773  0.9184 -0.7469
  473TIP3    H222979   2.170   1.575   2.131  2.4577 -1.8085 -2.1599
  474TIP3   OH222980   5.604   5.293   3.112 -0.1196 -0.4701  0.4632
  474TIP3    H122981   5.608   5.198   3.125 -1.9218 -0.7279 -0.5554
  474TIP3    H222982   5.633   5.329   3.196  2.4771 -1.8414  0.2717
  475TIP3   OH222983   2.248   5.836   1.518 -0.0301  0.3387  0.6473
  475TIP3    H122984   2.326   5.840   1.573 -0.1948  0.2100  0.8946
  475TIP3    H222985   2.231   5.927   1.493  0.6063  0.2957  0.0036
  476TIP3   OH222986   1.004   5.123   1.441 -0.5340 -0.5159  0.8172
  476TIP3    H122987   1.066   5.060   1.404 -0.7414  0.1990 -0.8427
  476TIP3    H222988   1.009   5.109   1.535  0.7617 -1.7585  0.5999
  477TIP3   OH222989   5.464   6.667   1.512 -0.3322 -0.2775 -0.0630
  477TIP3    H122990   5.472   6.635   1.422  0.1856  0.0592 -0.1377
  477TIP3    H222991   5.553   6.667   1.546 -0.5004 -0.2022  0.3831
  478TIP3   OH222992   3.343   3.516   2.437 -0.1121  0.0882  0.1594
  478TIP3    H122993   3.325   3.551   2.349  2.1959 -2.4895 -1.5193
  478TIP3    H222994   3.438   3.517   2.444 -0.1223 -2.0166  1.5953
  479TIP3   OH222995   2.604   0.688   1.688 -0.2732 -1.0823  0.0778
  479TIP3    H122996   2.571   0.714   1.602 -0.1511 -1.8891 -0.2216
  479TIP3    H222997   2.699   0.698   1.681 -0.2314 -1.5176 -0.0140
  480TIP3   OH222998   6.737   1.934   8.710  0.6126  0.6636  0.0987
  480TIP3    H122999   6.674   1.895   8.770  0.3352  1.3422  0.2567
  480TIP3    H223000   6.822   1.921   8.752  0.5320  0.2046  0.1284
  481TIP3   OH223001   3.597   5.494   1.775  0.5783  0.2545 -0.6529
  481TIP3    H123002   3.517   5.527   1.815 -0.6783 -1.9297 -1.2075
  481TIP3    H223003   3.664   5.504   1.843 -0.0683  2.2251 -0.2245
  482TIP3   OH223004   6.802   4.206   8.316  0.0875 -1.1087  0.0705
  482TIP3    H123005   6.733   4.141   8.326 -0.4000 -0.6987 -0.5777
  482TIP3    H223006   6.798   4.258   8.396 -1.2439 -0.2486 -0.5268
  483TIP3   OH223007   2.876   3.282   2.831  0.3111 -0.1289 -0.8684
  483TIP3    H123008   2.803   3.283   2.769 -0.7889 -0.2996  0.3736
  483TIP3    H223009   2.878   3.371   2.866  0.8155 -0.0799 -1.0186
  484TIP3   OH223010   6.813   6.466   2.081  0.1791 -0.3250  0.5545
  484TIP3    H123011   6.763   6.398   2.125 -0.6401 -0.0638  0.0631
  484TIP3    H223012   6.884   6.420   2.036 -0.5095 -0.8817  0.0240
  485TIP3   OH223013   2.656   1.216   3.296 -0.2026 -0.2207  0.4789
  485TIP3    H123014   2.603   1.176   3.366 -0.6706 -0.8768 -0.2379
  485TIP3    H223015   2.739   1.235   3.338 -0.4568 -0.6604  1.2136
  486TIP3   OH223016   3.540   3.180   3.210  0.4092 -0.1144 -0.1917
  486TIP3    H123017   3.634   3.195   3.206  0.7376 -1.6728  0.8286
  486TIP3    H223018   3.528   3.119   3.282 -1.7383  2.5001  1.9001
  487TIP3   OH223019   3.873   4.773   3.321 -1.0889 -0.5236  0.8439
  487TIP3    H123020   3.954   4.808   3.359  0.4877 -0.1325 -2.4939
  487TIP3    H223021   3.808   4.841   3.338  0.3349  1.1101  0.0817
  488TIP3   OH223022   1.954   1.786   4.123  0.4999  0.4540  0.1008
  488TIP3    H123023   1.983   1.877   4.122  1.8692  0.0390 -1.6565
  488TIP3    H223024   2.032   1.735   4.145  0.6593 -0.4980 -2.3101
  489TIP3   OH223025   5.492   2.069   1.495 -0.2174  0.0313 -0.3441
  489TIP3    H123026   5.525   2.156   1.513  2.3049 -0.6329 -1.3046
  489TIP3    H223027   5.570   2.013   1.498 -2.1574 -3.0609  4.5718
  490TIP3   OH223028   3.587   3.841   2.454  0.0403  0.2540 -0.1862
  490TIP3    H123029   3.497   3.859   2.481 -0.6381 -0.6764 -1.7072
  490TIP3    H223030   3.597   3.888   2.371  0.7643 -0.1235 -0.3220
  491TIP3   OH223031   5.774   1.432   0.433 -0.2097  0.3014  0.0440
  491TIP3    H123032   5.695   1.451   0.484  0.0077 -1.3745  1.1054
  491TIP3    H223033   5.767   1.487   0.356 -2.7595 -0.2512 -0.2146
  492TIP3   OH223034   1.797   5.080   0.061 -0.2439  0.5747  0.2749
  492TIP3    H123035   1.767   5.094  -0.029 -2.1661 -2.3148  0.3325
  492TIP3    H223036   1.876   5.026   0.052  0.9598  2.2505  0.3302
  493TIP3   OH223037   6.583   5.036   2.498  0.0144 -0.4700  0.1571
  493TIP3    H123038   6.579   5.007   2.407 -1.6589 -0.9165  0.3429
  493TIP3    H223039   6.549   5.126   2.496  0.5203 -0.2719  0.2722
  494TIP3   OH223040   1.854   1.671   0.478 -0.6255  0.3840  0.4627
  494TIP3    H123041   1.774   1.636   0.518 -0.2940  1.6038  2.3283
  494TIP3    H223042   1.923   1.614   0.511 -0.6261 -0.2493 -0.5949
  495TIP3   OH223043   2.723   4.890   1.976 -0.3548 -0.3673  0.0769
  495TIP3    H123044   2.813   4.895   2.007 -0.8728  0.8648  1.4845
  495TIP3    H223045   2.724   4.934   1.891  0.5397 -1.2762 -0.4096
  496TIP3   OH223046   0.703   5.807   2.854 -0.1539  0.2080 -0.0181
  496TIP3    H123047   0.739   5.785   2.940  0.9795  2.3007  0.1036
  496TIP3    H223048   0.612   5.778   2.859  0.1540 -0.6456  1.5139
  497TIP3   OH223049   4.488   3.622   3.348  0.3588  0.4245  0.2427
  497TIP3    H123050   4.446   3.626   3.433  3.0707  1.8271  1.6448
  497TIP3    H223051   4.506   3.529   3.335  1.5533  0.3421  2.1382
  498TIP3   OH223052   0.814   2.233   2.994 -0.2486  0.1075 -0.4402
  498TIP3    H123053   0.881   2.223   3.062 -1.4384 -0.0570  0.7538
  498TIP3    H223054   0.731   2.233   3.042 -1.3467 -2.7478 -2.0664
  499TIP3   OH223055   5.881   0.697   0.620 -0.4801  0.4286  0.1805
  499TIP3    H123056   5.918   0.777   0.657 -0.8748  0.8527 -0.3213
  499TIP3    H223057   5.797   0.687   0.663 -0.1564 -0.0741  0.7082
  500TIP3   OH223058   5.108   6.066   2.602  0.3718 -0.5398  0.9659
  500TIP3    H123059   5.175   6.125   2.638 -1.2234  1.5815  0.6200
  500TIP3    H223060   5.134   6.054   2.510  0.3476  0.1889  0.8588
  501TIP3   OH223061   1.996   3.490   3.849 -0.1805  0.1217 -0.1771
  501TIP3    H123062   2.074   3.545   3.841  0.0181 -0.2244 -0.6221
  501TIP3    H223063   1.969   3.473   3.759 -0.2983 -0.4316 -0.0386
  502TIP3   OH223064   0.344   4.839   2.537  0.0153 -0.0548  0.3542
  502TIP3    H123065   0.259   4.820   2.575  0.2354 -0.6082  0.5759
  502TIP3    H223066   0.324   4.883   2.454 -0.4571  1.1756  1.1047
  503TIP3   OH223067   3.658   2.383   8.660  0.1568 -0.0508  0.1923
  503TIP3    H123068   3.620   2.459   8.704  2.0027  0.5508  0.8164
  503TIP3    H223069   3.618   2.308   8.704  1.5954  0.5267  2.6771
  504TIP3   OH223070   1.961   5.664   0.475 -0.6633  0.3100  0.0885
  504TIP3    H123071   2.000   5.602   0.414  4.1973  0.6155  2.3877
  504TIP3    H223072   1.932   5.611   0.549 -0.4719  0.4367  0.2560
  505TIP3   OH223073   3.197   1.717   1.173 -0.6115 -0.0912  0.3718
  505TIP3    H123074   3.133   1.774   1.216 -1.9456 -1.7866  0.7260
  505TIP3    H223075   3.282   1.753   1.198 -1.3203  2.8755 -0.9588
  506TIP3   OH223076   1.664   0.201   1.178 -0.3499 -0.0995  0.1569
  506TIP3    H123077   1.612   0.280   1.163 -0.5763 -0.4766 -1.2450
  506TIP3    H223078   1.753   0.227   1.154 -0.5224 -0.3961 -0.8852
  507TIP3   OH223079   6.010   0.030   0.102 -0.6959 -0.7001 -0.3793
  507TIP3    H123080   5.964  -0.049   0.076 -2.9740  0.4071  0.0510
  507TIP3    H223081   5.942   0.086   0.141  1.0291  1.0275  0.3205
  508TIP3   OH223082   6.424   2.517   0.665 -0.0910 -0.2625  0.5720
  508TIP3    H123083   6.501   2.503   0.610 -0.4447 -0.8063  0.2055
  508TIP3    H223084   6.450   2.483   0.751  0.4638  0.5920  0.7509
  509TIP3   OH223085   5.084   3.897   0.617  0.2241  0.4421  0.2878
  509TIP3    H123086   5.132   3.979   0.626  1.3165 -0.0616 -0.6949
  509TIP3    H223087   5.063   3.892   0.524 -0.8497  0.1503  0.5327
  510TIP3   OH223088   2.641   2.734   0.549  0.0143 -0.0342 -0.5386
  510TIP3    H123089   2.657   2.779   0.466  0.7246 -1.8253 -1.4314
  510TIP3    H223090   2.552   2.758   0.572  0.1145  1.2272 -1.3211
  511TIP3   OH223091   2.828   4.467   2.616  0.2986  0.4077 -0.3943
  511TIP3    H123092   2.818   4.490   2.709  2.2942  2.1472 -0.5546
  511TIP3    H223093   2.902   4.406   2.614 -0.2142 -0.2140 -0.7931
  512TIP3   OH223094   1.907   0.824   0.940 -0.2353 -0.5035  0.3626
  512TIP3    H123095   1.848   0.897   0.926 -0.6935 -0.7481  0.9874
  512TIP3    H223096   1.851   0.753   0.971  0.4067 -0.6731  1.1744
  513TIP3   OH223097   5.424   3.827   2.689 -0.9257  0.0155 -0.2491
  513TIP3    H123098   5.401   3.888   2.618 -1.6565  1.0000  0.7981
  513TIP3    H223099   5.482   3.764   2.648 -1.1658  0.6820 -1.6851
  514TIP3   OH223100   6.431   2.415   0.344 -0.0174  0.1203 -0.4918
  514TIP3    H123101   6.507   2.419   0.402 -0.7984 -0.4698  0.6067
  514TIP3    H223102   6.405   2.323   0.345 -0.2639  0.1617 -1.5127
  515TIP3   OH223103   6.312   1.514   1.481 -0.2619 -0.4220 -0.6288
  515TIP3    H123104   6.336   1.483   1.394  2.4912 -1.2718  0.3079
  515TIP3    H223105   6.330   1.440   1.539 -0.8037  0.5174  0.8073
  516TIP3   OH223106   4.194   1.508   3.205  0.5295 -0.3572 -0.1224
  516TIP3    H123107   4.217   1.600   3.196  0.4515 -0.4072 -0.8856
  516TIP3    H223108   4.187   1.494   3.300 -0.0699  0.5648 -0.0188
  517TIP3   OH223109   1.800   1.052   8.193  0.4807 -0.1918  0.9453
  517TIP3    H123110   1.874   0.992   8.198  1.4267  0.8639  0.0169
  517TIP3    H223111   1.805   1.090   8.105 -0.2803  1.0085  1.3881
  518TIP3   OH223112   1.030   0.822   0.747 -0.4761 -0.1517  0.3365
  518TIP3    H123113   1.040   0.846   0.839 -0.4834 -0.6935  0.4794
  518TIP3    H223114   1.116   0.789   0.721 -0.6963 -0.7748  0.3803
  519TIP3   OH223115   2.549   6.333   1.570  0.4733  0.2837  0.0608
  519TIP3    H123116   2.632   6.285   1.569 -0.0325 -0.6556 -2.0308
  519TIP3    H223117   2.543   6.372   1.483 -1.0286  0.7982  0.3748
  520TIP3   OH223118   5.717   1.888   1.557 -0.4580 -0.1700 -0.3389
  520TIP3    H123119   5.703   1.804   1.600 -1.8817 -0.3761 -1.1473
  520TIP3    H223120   5.811   1.890   1.539 -0.1776 -0.9838  0.8659
  521TIP3   OH223121   1.004   2.308   8.690 -0.4050  0.2109  0.4853
  521TIP3    H123122   1.079   2.319   8.632 -1.1071  0.8410 -0.3178
  521TIP3    H223123   0.931   2.348   8.644 -1.1597 -0.0154  1.4415
  522TIP3   OH223124   1.177   4.309   3.033  0.0489  0.4009 -0.2691
  522TIP3    H123125   1.241   4.240   3.015 -0.4150  0.0541 -0.5900
  522TIP3    H223126   1.163   4.351   2.948 -0.2826  0.3677 -0.2292
  523TIP3   OH223127   2.486   2.695   8.277  0.2933 -0.3169 -0.5275
  523TIP3    H123128   2.415   2.757   8.291 -0.7045 -1.4048 -0.6256
  523TIP3    H223129   2.520   2.716   8.190  0.3277  0.4347 -0.3340
  524TIP3   OH223130   0.434   1.348   1.218  0.4594  0.2139 -0.4286
  524TIP3    H123131   0.487   1.403   1.276  0.4932 -0.1485 -0.1159
  524TIP3    H223132   0.373   1.304   1.277 -3.0596  3.6537 -1.0464
  525TIP3   OH223133   6.695   2.840   3.749 -0.3967 -0.0255  0.3546
  525TIP3    H123134   6.680   2.908   3.814  0.1957 -0.7089  1.2285
  525TIP3    H223135   6.639   2.767   3.777  0.5107 -0.6408  0.6033
  526TIP3   OH223136   5.739   0.767   2.395 -0.1497 -0.4950  0.3219
  526TIP3    H123137   5.773   0.782   2.307 -2.4682  1.3795 -0.3892
  526TIP3    H223138   5.816   0.766   2.451  1.3260 -0.7875 -1.5956
  527TIP3   OH223139   0.746   4.945   0.793  0.1273  0.3757  0.0803
  527TIP3    H123140   0.694   4.982   0.721 -0.8376  0.4902  0.8226
  527TIP3    H223141   0.800   4.878   0.751  0.1306  0.9570 -0.8809
  528TIP3   OH223142   2.077   6.094   3.235  0.6528 -0.6958 -0.4050
  528TIP3    H123143   2.111   6.056   3.154  2.3803 -1.3608  0.5964
  528TIP3    H223144   2.130   6.056   3.304  0.7237  1.5455  0.8821
  529TIP3   OH223145   3.857   4.716   2.017  0.2522 -0.7778  0.4516
  529TIP3    H123146   3.765   4.696   2.034  0.3976 -0.6917  1.4384
  529TIP3    H223147   3.856   4.768   1.937 -0.7395  0.7721  1.4087
  530TIP3   OH223148   4.156   5.379   2.759 -0.3272 -0.0932  0.2705
  530TIP3    H123149   4.189   5.431   2.833  0.0654  0.2290 -0.1241
  530TIP3    H223150   4.183   5.429   2.682  0.1435 -0.9329 -0.1176
  531TIP3   OH223151   3.095   4.949   1.149 -0.3323  0.5880 -0.3098
  531TIP3    H123152   3.114   5.026   1.095 -3.0166  1.2709 -0.4025
  531TIP3    H223153   3.123   4.974   1.237  2.4826  0.0985 -0.9508
  532TIP3   OH223154   1.315   1.394   2.735  0.0217  0.3214 -0.1778
  532TIP3    H123155   1.292   1.396   2.642  0.8920  0.4494 -0.4011
  532TIP3    H223156   1.401   1.352   2.737  0.0936  0.4923  0.5549
  533TIP3   OH223157   4.170   3.170   2.683 -0.1018  0.0466  0.0873
  533TIP3    H123158   4.142   3.148   2.594 -0.6179 -0.8568  0.4633
  533TIP3    H223159   4.093   3.212   2.722  0.3199  0.9903 -0.0756
  534TIP3   OH223160   5.140   3.201   8.727 -0.4687 -0.4532 -0.2428
  534TIP3    H123161   5.135   3.264   8.799  1.4308 -1.2093  0.6387
  534TIP3    H223162   5.208   3.236   8.669 -1.5267 -0.1861 -1.3522
  535TIP3   OH223163   5.705   6.345   1.225 -0.2211 -0.1083  0.3365
  535TIP3    H123164   5.658   6.414   1.271 -1.5628 -0.0405 -1.0758
  535TIP3    H223165   5.649   6.323   1.150  0.7965 -1.8148  0.0266
  536TIP3   OH223166   1.800   6.035   0.931  0.2352 -0.0745 -0.5426
  536TIP3    H123167   1.836   6.093   0.864  1.3102 -1.3202 -1.0849
  536TIP3    H223168   1.765   5.960   0.882  3.0033 -2.0869  0.2816
  537TIP3   OH223169   5.041   6.470   0.072 -0.6125  0.1921 -0.6586
  537TIP3    H123170   4.967   6.517   0.108 -0.2108 -0.8973  1.7484
  537TIP3    H223171   5.117   6.522   0.096 -0.3915 -0.1173 -0.6781
  538TIP3   OH223172   0.521   4.834   3.540 -0.9661  0.0714 -0.1867
  538TIP3    H123173   0.509   4.778   3.616  0.9277 -1.2093 -0.7574
  538TIP3    H223174   0.548   4.775   3.470 -1.0771  1.4207 -1.4194
  539TIP3   OH223175   1.500   4.417   8.153  0.0729  0.3579  0.5323
  539TIP3    H123176   1.550   4.485   8.109  0.2989  0.6314  1.1939
  539TIP3    H223177   1.434   4.465   8.203 -1.0338 -0.0032 -0.5272
  540TIP3   OH223178   1.121   4.393   2.787  0.3041 -0.0456 -0.0720
  540TIP3    H123179   1.180   4.329   2.748  0.2635 -0.0987 -0.0473
  540TIP3    H223180   1.131   4.471   2.734 -0.4688 -0.4175 -0.7968
  541TIP3   OH223181   4.151   4.516   0.645 -0.2054  0.1911  0.2013
  541TIP3    H123182   4.118   4.492   0.559  0.3013  2.1034 -0.5836
  541TIP3    H223183   4.084   4.576   0.680  0.0951  0.2557  0.6760
  542TIP3   OH223184   0.997   1.183   3.071 -0.4840  0.0635  0.2176
  542TIP3    H123185   0.914   1.221   3.102 -0.3080  0.4308  0.2509
  542TIP3    H223186   1.037   1.253   3.020 -0.6348 -0.4384 -0.6038
  543TIP3   OH223187   2.368   2.975   1.472 -0.3897  0.2165  0.1453
  543TIP3    H123188   2.297   2.911   1.467 -1.9119  1.9047 -2.1183
  543TIP3    H223189   2.330   3.056   1.437  2.1438  1.7113  0.5705
  544TIP3   OH223190   5.373   2.712   0.626 -0.2701 -0.2879  0.0003
  544TIP3    H123191   5.467   2.695   0.625 -0.3979 -1.0098 -0.8745
  544TIP3    H223192   5.356   2.755   0.542 -0.3570  2.0267  1.1371
  545TIP3   OH223193   4.533   0.125   0.816 -0.2526 -0.1845 -0.1175
  545TIP3    H123194   4.565   0.095   0.901 -1.2589  0.7749  0.6363
  545TIP3    H223195   4.444   0.090   0.810 -0.6702  0.8418 -0.1552
  546TIP3   OH223196   2.591   0.978   2.030  0.0048 -0.3002 -0.0213
  546TIP3    H123197   2.536   0.903   2.008 -1.2343  0.6189 -0.1658
  546TIP3    H223198   2.582   0.987   2.125  1.1748 -1.0712  0.1962
  547TIP3   OH223199   5.161   1.091   1.066 -0.1708 -0.0601  0.2177
  547TIP3    H123200   5.221   1.050   1.003  0.0049 -0.3325  0.5624
  547TIP3    H223201   5.127   1.168   1.020  1.7939  1.1141  0.6225
  548TIP3   OH223202   4.607   6.661   2.545  0.0614  0.5016 -0.0222
  548TIP3    H123203   4.623   6.567   2.556 -0.4229  0.4107 -0.0726
  548TIP3    H223204   4.585   6.671   2.453 -0.3191  0.6013  0.0807
  549TIP3   OH223205   3.762   5.135   3.896 -0.3562  0.0462 -0.6596
  549TIP3    H123206   3.805   5.221   3.892 -1.0050  0.4534  0.6024
  549TIP3    H223207   3.670   5.155   3.911 -0.3943 -0.8727  0.4261
  550TIP3   OH223208   5.511   0.086   3.113  0.2831  0.3638  0.1369
  550TIP3    H123209   5.438   0.134   3.151 -0.5745 -0.8565  0.1156
  550TIP3    H223210   5.565   0.059   3.187  0.1574  0.4145  0.2458
  551TIP3   OH223211   4.266   1.502   0.110 -0.3416  0.3872 -0.0874
  551TIP3    H123212   4.244   1.415   0.076 -0.3388  0.2158  0.3344
  551TIP3    H223213   4.358   1.494   0.137 -1.0975 -0.3683  2.6016
  552TIP3   OH223214   0.101   2.815   3.987 -0.1774  0.2896  0.3154
  552TIP3    H123215   0.036   2.746   3.977 -1.1398  0.8272  2.3278
  552TIP3    H223216   0.151   2.814   3.905 -1.3461 -1.5422 -0.4198
  553TIP3   OH223217   0.626   2.690   0.535  0.2883 -0.1145  0.5320
  553TIP3    H123218   0.645   2.703   0.628 -0.5423 -1.2232  0.8875
  553TIP3    H223219   0.638   2.596   0.522  1.2341  0.1604 -0.6937
  554TIP3   OH223220   5.133   5.530   7.510 -0.1505  0.0302 -0.3392
  554TIP3    H123221   5.068   5.464   7.534 -1.2267  1.7637  1.7417
  554TIP3    H223222   5.216   5.495   7.544 -0.4990 -0.7542 -0.2734
  555TIP3   OH223223   5.923   3.882   0.957  0.6343  0.1556  0.6340
  555TIP3    H123224   6.013   3.913   0.959  0.8077 -0.2539 -0.2821
  555TIP3    H223225   5.925   3.805   0.899 -0.6087  1.2099 -0.9076
  556TIP3   OH223226   1.693   0.377   2.933  0.0011  0.4716  0.5117
  556TIP3    H123227   1.600   0.396   2.945 -0.1759 -0.5589  0.8512
  556TIP3    H223228   1.737   0.453   2.971 -0.6906  1.2235 -0.1300
  557TIP3   OH223229   6.675   4.829   0.800  0.2590 -0.2580  0.1967
  557TIP3    H123230   6.689   4.829   0.895 -1.3224 -0.0758  0.4638
  557TIP3    H223231   6.762   4.817   0.763  1.0878  0.8547  1.6493
  558TIP3   OH223232   3.732   2.414   8.189 -0.0770  0.1755  0.9600
  558TIP3    H123233   3.731   2.507   8.167  1.0557 -0.0687 -0.2826
  558TIP3    H223234   3.822   2.396   8.214 -0.1327 -0.7055  0.5667
  559TIP3   OH223235   4.600   4.389   1.676 -0.1371 -0.6789  0.4412
  559TIP3    H123236   4.664   4.459   1.661 -1.8887  0.5167 -2.1495
  559TIP3    H223237   4.636   4.314   1.629  0.8315 -1.0461  1.6822
  560TIP3   OH223238   6.739   0.635   0.335 -0.8614 -0.5311 -0.0656
  560TIP3    H123239   6.783   0.568   0.282  1.8460  0.7480  0.3688
  560TIP3    H223240   6.772   0.620   0.424 -0.8968  0.8236  0.1915
  561TIP3   OH223241   6.174   2.220   8.708  0.3517  0.2355  0.2838
  561TIP3    H123242   6.235   2.201   8.637  1.6257  1.3834  1.0286
  561TIP3    H223243   6.221   2.281   8.764 -1.5555  1.3125  0.8005
  562TIP3   OH223244   5.501   4.947   1.781 -0.2356 -0.5639  0.1464
  562TIP3    H123245   5.481   5.040   1.777 -0.2244 -0.5514  0.3600
  562TIP3    H223246   5.450   4.914   1.855  1.1486 -0.3630  1.2446
  563TIP3   OH223247   3.353   6.598   8.696 -0.2089  0.4411  0.0570
  563TIP3    H123248   3.422   6.619   8.759  1.1697 -0.9158 -0.9298
  563TIP3    H223249   3.360   6.666   8.629  1.5650 -0.7607 -1.0642
  564TIP3   OH223250   5.739   5.032   0.666  0.1062 -0.4564 -0.4154
  564TIP3    H123251   5.805   5.096   0.638 -0.5577  0.6983  0.5435
  564TIP3    H223252   5.672   5.085   0.709 -0.7345 -1.7616 -0.0737
  565TIP3   OH223253   2.428   6.069   0.981  0.7171 -0.2755  0.2271
  565TIP3    H123254   2.373   5.991   0.986  0.1366  0.0889 -0.3438
  565TIP3    H223255   2.428   6.092   0.888  0.3816  0.7614  0.4737
  566TIP3   OH223256   4.359   4.177   7.964 -0.0908  0.0544 -0.1272
  566TIP3    H123257   4.378   4.084   7.949 -0.5538 -0.0311 -0.2102
  566TIP3    H223258   4.266   4.179   7.985  0.0633  0.4280  0.5411
  567TIP3   OH223259   2.726   5.080   2.961  0.2769  0.0914  0.4660
  567TIP3    H123260   2.788   5.146   2.929  1.4664 -2.5862 -3.6092
  567TIP3    H223261   2.641   5.111   2.930  0.6756  0.2436 -0.5204
  568TIP3   OH223262   4.457   2.662   0.111  0.0361  0.1299 -0.1544
  568TIP3    H123263   4.381   2.604   0.111 -0.0637  0.2613 -0.4131
  568TIP3    H223264   4.531   2.604   0.091 -0.1145  0.1591 -0.8052
  569TIP3   OH223265   4.819   5.562   0.748 -0.1541 -0.3053 -0.1178
  569TIP3    H123266   4.831   5.611   0.667 -2.3501  1.2385  0.3993
  569TIP3    H223267   4.808   5.630   0.815 -0.1777 -1.5355  1.1614
  570TIP3   OH223268   6.236   1.856   1.905 -0.4320  0.2419  0.7405
  570TIP3    H123269   6.289   1.781   1.880 -0.7407 -0.0528  0.9517
  570TIP3    H223270   6.279   1.931   1.865 -2.4764 -0.4296 -3.2575
  571TIP3   OH223271   5.607   4.825   3.328 -0.3504  0.5007  0.1330
  571TIP3    H123272   5.662   4.851   3.403 -0.5002 -0.8247  0.7357
  571TIP3    H223273   5.523   4.803   3.368 -0.6502  0.4532 -0.5288
  572TIP3   OH223274   5.108   3.883   0.228  0.1168 -0.1261 -0.0180
  572TIP3    H123275   5.036   3.935   0.193 -0.6844 -1.0284  0.2391
  572TIP3    H223276   5.089   3.794   0.200  0.9814 -0.4312  0.3133
  573TIP3   OH223277   1.469   3.831   0.263  0.6314  0.3676 -0.4632
  573TIP3    H123278   1.479   3.827   0.168  0.3367 -0.2149 -0.4732
  573TIP3    H223279   1.541   3.779   0.298  0.3690  0.0489 -0.3903
  574TIP3   OH223280   3.620   1.648   2.136 -0.2264 -0.4596 -0.3531
  574TIP3    H123281   3.652   1.602   2.058  0.3508  0.2824 -0.5669
  574TIP3    H223282   3.643   1.590   2.209 -0.7208 -1.1322 -0.7320
  575TIP3   OH223283   3.566   2.445   0.301  0.3417 -0.0236 -0.0287
  575TIP3    H123284   3.661   2.460   0.305  0.6116 -1.7296  0.5630
  575TIP3    H223285   3.531   2.501   0.370  1.0782 -0.4502  0.7145
  576TIP3   OH223286   6.765   3.727   0.409  0.0582 -0.1303  0.1336
  576TIP3    H123287   6.840   3.667   0.400  0.1875  0.1009 -0.3341
  576TIP3    H223288   6.717   3.693   0.485 -0.4376 -1.4534 -0.7205
  577TIP3   OH223289   3.430   3.969   1.942  0.0513  0.5770  0.3207
  577TIP3    H123290   3.499   3.961   1.876 -0.2462 -2.6257  0.2435
  577TIP3    H223291   3.374   4.039   1.910  1.3693  0.9027 -1.4267
  578TIP3   OH223292   0.324   0.690   2.540 -0.0539 -0.4717  0.0828
  578TIP3    H123293   0.235   0.720   2.521  0.5798  0.5716 -1.5164
  578TIP3    H223294   0.380   0.759   2.505  1.4214 -1.8974 -0.5093
  579TIP3   OH223295   1.504   4.424   3.166  0.3560  0.1072 -0.2616
  579TIP3    H123296   1.553   4.493   3.211  1.7014 -1.1859  0.2990
  579TIP3    H223297   1.462   4.375   3.237  0.7623 -0.6507 -0.5375
  580TIP3   OH223298   0.067   3.145   1.352  0.1996 -0.3938 -0.1242
  580TIP3    H123299   0.063   3.052   1.333  0.9934 -0.0705 -2.1765
  580TIP3    H223300  -0.024   3.174   1.351 -0.0614 -1.1615  0.7345
  581TIP3   OH223301   0.519   0.952   0.203 -0.1647  0.0543  0.0069
  581TIP3    H123302   0.556   0.953   0.292  2.7642 -0.0816 -1.1090
  581TIP3    H223303   0.589   0.988   0.148 -2.6650  2.1736 -2.0302
  582TIP3   OH223304   0.003   4.807   1.560  0.2504  0.1716  0.5779
  582TIP3    H123305   0.001   4.902   1.547 -0.4277  0.0856 -0.0239
  582TIP3    H223306  -0.048   4.793   1.640 -1.7879  0.1430 -0.6550
  583TIP3   OH223307   4.040   5.620   1.655  0.2596 -0.2470 -0.0191
  583TIP3    H123308   4.088   5.655   1.580  1.6866  0.6495  1.2424
  583TIP3    H223309   3.958   5.669   1.656  0.7468  0.6003 -0.3054
  584TIP3   OH223310   4.972   3.537   2.366  0.3548  0.0225  0.2403
  584TIP3    H123311   4.986   3.567   2.276 -0.9758  1.0910  0.3566
  584TIP3    H223312   5.033   3.588   2.418 -0.7742  1.4245  0.2416
  585TIP3   OH223313   4.351   5.326   0.083  0.5521  0.6197  0.1396
  585TIP3    H123314   4.423   5.324   0.146  0.4555  2.0151  0.3250
  585TIP3    H223315   4.380   5.269   0.012  1.9825  1.4013  0.0627
  586TIP3   OH223316   2.384   0.245   3.534 -0.5949 -0.1320 -0.0861
  586TIP3    H123317   2.326   0.295   3.477 -1.0699 -1.4755 -0.8115
  586TIP3    H223318   2.446   0.310   3.567 -2.2480  1.2708  0.4080
  587TIP3   OH223319   0.652   3.007   2.091  0.4023  0.4089 -0.1107
  587TIP3    H123320   0.709   3.083   2.079  1.2591 -0.2591 -0.4000
  587TIP3    H223321   0.702   2.934   2.056 -1.4976  0.0768 -2.3920
  588TIP3   OH223322   3.345   4.515   0.333  0.5240 -0.2254  0.0654
  588TIP3    H123323   3.365   4.580   0.400 -2.8170  0.9029  0.1465
  588TIP3    H223324   3.430   4.477   0.311  2.2750  2.2249  1.9652
  589TIP3   OH223325   4.396   1.694   2.899 -0.3123  0.0837 -0.2435
  589TIP3    H123326   4.374   1.739   2.981 -0.0824 -0.5826  0.1929
  589TIP3    H223327   4.376   1.602   2.916 -0.4402 -0.0357 -1.0049
  590TIP3   OH223328   2.212   5.659   3.831 -0.1124  0.3881 -0.5545
  590TIP3    H123329   2.272   5.631   3.900 -1.0353  0.3017  0.2303
  590TIP3    H223330   2.180   5.744   3.860 -2.2362 -0.6292  0.3070
  591TIP3   OH223331   4.023   1.381   2.573 -0.1232 -0.5452 -0.7413
  591TIP3    H123332   3.936   1.394   2.536 -0.9870  0.8984  1.5987
  591TIP3    H223333   4.081   1.432   2.517 -1.0421 -0.1596 -1.3596
  592TIP3   OH223334   1.088   6.009   0.940  0.3270 -0.2101  0.4163
  592TIP3    H123335   1.157   6.029   1.004  1.5399  1.7231 -1.3549
  592TIP3    H223336   1.120   5.933   0.893 -0.2803 -1.2549  1.6264
  593TIP3   OH223337   3.232   2.441   3.342  0.2614  0.0824 -0.0317
  593TIP3    H123338   3.152   2.405   3.380 -0.4069  0.5208 -0.9634
  593TIP3    H223339   3.290   2.366   3.330 -0.3948 -0.3954 -0.2523
  594TIP3   OH223340   1.930   4.533   0.508 -0.5614 -0.9355  0.0810
  594TIP3    H123341   2.025   4.544   0.513 -0.6479  1.7676 -1.7076
  594TIP3    H223342   1.900   4.540   0.598  0.8596 -0.4465  0.5415
  595TIP3   OH223343   4.937   4.343   0.686 -0.1306 -0.0421  0.7643
  595TIP3    H123344   4.982   4.407   0.741  0.3203  1.0227 -0.7707
  595TIP3    H223345   4.905   4.277   0.747  3.1067 -0.6200  2.0212
  596TIP3   OH223346   1.881   3.402   3.162 -0.1420 -0.5540 -0.3804
  596TIP3    H123347   1.831   3.476   3.197 -1.0129 -0.6419 -1.3800
  596TIP3    H223348   1.848   3.392   3.073  2.4090  0.0619 -1.4860
  597TIP3   OH223349   4.248   1.208   2.168  0.6556 -0.0976 -0.9389
  597TIP3    H123350   4.280   1.149   2.099  0.0234 -1.8388  0.2035
  597TIP3    H223351   4.278   1.168   2.249 -3.8697 -1.6662  0.2282
  598TIP3   OH223352   4.446   6.273   1.552 -0.5446  0.0584 -0.5002
  598TIP3    H123353   4.366   6.268   1.501 -1.6579  2.3463  0.8584
  598TIP3    H223354   4.476   6.363   1.540  1.4086 -0.5283 -0.3262
  599TIP3   OH223355   4.344   2.018   3.946 -0.4049  0.0309 -0.0572
  599TIP3    H123356   4.371   2.036   4.037  0.0004  1.6645 -0.4752
  599TIP3    H223357   4.421   2.041   3.894 -1.0064  0.1289 -0.9024
  600TIP3   OH223358   0.029   3.976   0.316  0.3389 -0.1018 -0.6503
  600TIP3    H123359  -0.006   3.967   0.227  2.0419 -1.0629 -1.2701
  600TIP3    H223360  -0.007   3.901   0.364 -3.5647  2.2998  0.6490
  601TIP3   OH223361   1.446   6.118   0.267 -0.0623  0.3857 -0.1217
  601TIP3    H123362   1.384   6.086   0.202  0.8524 -0.3180 -0.6815
  601TIP3    H223363   1.480   6.199   0.231 -0.5897  0.7333  0.1511
  602TIP3   OH223364   6.771   6.803   2.681  0.2644  0.1140 -0.1476
  602TIP3    H123365   6.805   6.811   2.770  0.7115 -0.1127 -0.2953
  602TIP3    H223366   6.848   6.784   2.628 -0.0270  0.0736 -0.5575
  603TIP3   OH223367   3.939   2.803   0.904  0.5927 -0.7474  0.0636
  603TIP3    H123368   4.021   2.787   0.950  0.9641 -1.9209 -0.9417
  603TIP3    H223369   3.951   2.763   0.818 -0.6238  0.0591 -0.5138
  604TIP3   OH223370   0.479   2.415   1.265  0.6520  0.0219  0.8230
  604TIP3    H123371   0.539   2.399   1.338  0.5964  0.7401  1.0282
  604TIP3    H223372   0.532   2.396   1.187  1.5164  1.7359  0.9522
  605TIP3   OH223373   1.225   3.222   3.455  0.1953 -0.6825  0.1183
  605TIP3    H123374   1.215   3.192   3.545 -0.6181 -1.1121 -0.1070
  605TIP3    H223375   1.260   3.310   3.463 -0.3841 -0.5110  0.8696
  606TIP3   OH223376   0.045   6.127   2.332  0.6700 -0.1384  0.2725
  606TIP3    H123377  -0.010   6.065   2.380  0.1256 -0.3980 -0.6487
  606TIP3    H223378   0.075   6.078   2.256  1.6918  0.2003  0.4500
  607TIP3   OH223379   1.737   1.112   2.881  0.1262  0.2409  0.0427
  607TIP3    H123380   1.795   1.142   2.811  0.6035  0.6580  0.5990
  607TIP3    H223381   1.795   1.106   2.958 -0.3997 -0.1364  0.4114
  608TIP3   OH223382   1.145   0.529   0.379  0.5873 -0.0525  0.4019
  608TIP3    H123383   1.218   0.476   0.345 -0.5324 -0.0548 -2.3184
  608TIP3    H223384   1.097   0.556   0.300 -1.1030  1.7878  1.9572
  609TIP3   OH223385   4.636   4.486   1.250 -0.2830 -0.0452  0.2691
  609TIP3    H123386   4.570   4.522   1.309 -0.6180  0.1015 -0.1885
  609TIP3    H223387   4.716   4.533   1.271 -0.3085 -0.2591  0.8621
  610TIP3   OH223388   3.543   4.574   0.747  0.3845  0.4509  0.3428
  610TIP3    H123389   3.598   4.650   0.762 -0.4708  1.1157  0.2073
  610TIP3    H223390   3.467   4.589   0.803  0.1848 -0.2803  0.2755
  611TIP3   OH223391   2.233   4.265   0.247 -0.8278  0.0360 -0.7265
  611TIP3    H123392   2.175   4.341   0.237  0.3517  1.0125 -0.4157
  611TIP3    H223393   2.277   4.281   0.330 -0.2785 -0.8054 -0.8542
  612TIP3   OH223394   1.021   0.502   3.322  0.6424  0.0275  0.4446
  612TIP3    H123395   1.093   0.466   3.372  0.6602 -0.5398  0.0185
  612TIP3    H223396   0.948   0.507   3.384  1.1079  0.8529  0.9456
  613TIP3   OH223397   0.294   2.349   8.084 -0.1656 -0.8266 -0.7219
  613TIP3    H123398   0.198   2.353   8.083 -0.3711 -2.0495  2.0794
  613TIP3    H223399   0.317   2.366   8.175  2.4320  0.8642 -1.5997
  614TIP3   OH223400   1.063   4.677   0.850  0.8776  0.1168  1.2090
  614TIP3    H123401   1.116   4.598   0.841  1.5025  0.4618  1.7153
  614TIP3    H223402   1.096   4.735   0.782 -0.2686 -0.4098  0.1704
  615TIP3   OH223403   4.034   3.687   3.646  0.1547 -0.6237 -0.4798
  615TIP3    H123404   4.013   3.733   3.565 -0.5381 -0.7112 -0.3538
  615TIP3    H223405   3.955   3.638   3.667  0.6514 -1.3354 -0.2454
  616TIP3   OH223406   0.660   5.243   2.225  0.2979  0.1879 -0.0486
  616TIP3    H123407   0.579   5.197   2.247  1.6294 -2.2490  0.1553
  616TIP3    H223408   0.720   5.221   2.297  1.6808  0.3692 -1.1032
  617TIP3   OH223409   0.343   6.529   0.087 -0.4060  0.1554 -0.2039
  617TIP3    H123410   0.414   6.567   0.034  1.2638 -2.4264 -0.0103
  617TIP3    H223411   0.269   6.588   0.073  1.2424  2.0016 -1.8737
  618TIP3   OH223412   5.438   0.131   3.399 -0.1241  0.3372  0.3318
  618TIP3    H123413   5.449   0.045   3.439 -0.2667  0.0255 -0.2992
  618TIP3    H223414   5.399   0.184   3.469 -2.1113 -0.6858  0.0719
  619TIP3   OH223415   3.638   4.457   1.341 -0.1435 -0.2594  0.5548
  619TIP3    H123416   3.717   4.403   1.350 -0.2985 -0.2890  1.9036
  619TIP3    H223417   3.672   4.543   1.315  0.6581  0.4770  3.6027
  620TIP3   OH223418   1.293   0.273   3.144  0.0789  0.0385  0.2860
  620TIP3    H123419   1.273   0.181   3.162  4.2124 -1.6987 -2.3672
  620TIP3    H223420   1.241   0.295   3.067 -0.4264 -0.3080  0.5267
  621TIP3   OH223421   5.016   5.492   8.525 -0.5307 -0.2754 -0.0484
  621TIP3    H123422   5.013   5.409   8.572 -0.6087  1.2271  2.7597
  621TIP3    H223423   4.985   5.469   8.436  1.3961 -3.5750 -0.0463
  622TIP3   OH223424   0.008   0.285   1.600  0.3154 -0.1434  0.0048
  622TIP3    H123425   0.085   0.336   1.573 -1.7599  2.1298 -2.1105
  622TIP3    H223426  -0.015   0.233   1.524 -0.3713 -0.6577  0.5514
  623TIP3   OH223427   4.833   5.384   3.885 -0.2287 -0.1893 -0.2644
  623TIP3    H123428   4.849   5.290   3.883 -0.4688 -0.2220 -1.5086
  623TIP3    H223429   4.815   5.407   3.794  1.5117  1.3708 -0.2657
  624TIP3   OH223430   0.643   3.918   2.914  0.3677  0.3648  0.0708
  624TIP3    H123431   0.687   3.836   2.939  0.6981  0.7402  0.7817
  624TIP3    H223432   0.578   3.893   2.849  0.3982 -0.4789  0.3595
  625TIP3   OH223433   0.529   0.400   0.245 -0.2277 -0.6259 -0.6246
  625TIP3    H123434   0.518   0.372   0.154 -0.0290 -1.6608 -0.3346
  625TIP3    H223435   0.621   0.426   0.252 -0.2304 -0.5952 -0.7032
  626TIP3   OH223436   1.340   0.455   0.194  0.4904 -0.1712 -0.3841
  626TIP3    H123437   1.410   0.429   0.134  1.6212  0.8236  0.4345
  626TIP3    H223438   1.347   0.551   0.197 -0.5223 -0.1095  0.1730
  627TIP3   OH223439   2.833   5.425   3.928  0.2053 -0.2689 -0.0547
  627TIP3    H123440   2.866   5.482   3.859 -1.7557  1.7004  0.5135
  627TIP3    H223441   2.899   5.357   3.937  2.6771  1.8964 -0.7797
  628TIP3   OH223442   3.013   0.368   0.072  0.0081 -0.4138 -0.7354
  628TIP3    H123443   3.081   0.302   0.057  0.6017 -0.5725  2.1020
  628TIP3    H223444   3.057   0.452   0.060  0.6589 -0.5223  0.7091
  629TIP3   OH223445   2.454   5.188   2.977  0.0788 -0.1480 -0.7443
  629TIP3    H123446   2.390   5.143   2.922 -0.6957 -0.1944  0.1869
  629TIP3    H223447   2.425   5.172   3.066 -0.2966  2.2936 -0.3642
  630TIP3   OH223448   4.779   2.746   4.299  0.2338  0.0046  0.2909
  630TIP3    H123449   4.861   2.770   4.343  0.1979  0.1196  0.2960
  630TIP3    H223450   4.780   2.794   4.217  0.1886 -0.0212  0.2750
  631TIP3   OH223451   4.746   1.233   1.857 -0.0750  0.5579  0.0484
  631TIP3    H123452   4.763   1.204   1.947  1.8656  0.7202 -0.2300
  631TIP3    H223453   4.652   1.252   1.856 -0.1536  0.5148  2.0194
  632TIP3   OH223454   6.505   4.983   2.916  0.4427 -0.6413  0.0759
  632TIP3    H123455   6.594   4.958   2.938 -0.1720  0.0529  4.1491
  632TIP3    H223456   6.492   5.068   2.959 -1.7838  0.0017 -1.6076
  633TIP3   OH223457   4.227   4.228   2.999  0.0787  0.0097  0.8692
  633TIP3    H123458   4.304   4.241   2.943  0.7766  0.8308  1.9824
  633TIP3    H223459   4.152   4.246   2.942  0.7130 -0.4113 -0.1231
  634TIP3   OH223460   3.039   1.870   8.654 -0.1272  0.2181  0.0661
  634TIP3    H123461   3.032   1.778   8.679  1.2302  0.3156  0.8956
  634TIP3    H223462   3.036   1.869   8.558 -0.8138 -0.6056  0.0863
  635TIP3   OH223463   3.971   2.765   8.113  0.6155 -0.1598 -0.4550
  635TIP3    H123464   4.067   2.772   8.110  0.5099  1.0864 -1.8888
  635TIP3    H223465   3.945   2.824   8.184  1.0017 -2.4029  1.6883
  636TIP3   OH223466   4.030   2.421   1.320  0.2009 -0.2115 -0.4010
  636TIP3    H123467   4.070   2.422   1.232 -1.0405  1.0167 -0.9749
  636TIP3    H223468   3.936   2.429   1.304  0.0637  1.9782  1.0961
  637TIP3   OH223469   1.747   2.833   3.228  0.6922  0.7285 -0.0236
  637TIP3    H123470   1.680   2.901   3.226 -0.6957 -0.5915 -0.8065
  637TIP3    H223471   1.709   2.764   3.282  1.8529  0.3479  0.3290
  638TIP3   OH223472   4.442   1.114   1.037 -0.0223  0.0876  0.2298
  638TIP3    H123473   4.442   1.063   0.955 -0.2113 -1.6763  1.2810
  638TIP3    H223474   4.358   1.160   1.035 -0.1571 -0.1622 -0.4325
  639TIP3   OH223475   1.000   3.786   8.227 -0.1634 -0.4268 -0.0208
  639TIP3    H123476   0.984   3.765   8.319  0.1683 -2.0812 -0.3176
  639TIP3    H223477   1.024   3.879   8.228  2.0554 -0.9126  1.8764
  640TIP3   OH223478   1.353   0.584   2.514 -0.6690 -0.4163 -0.1625
  640TIP3    H123479   1.300   0.647   2.466  1.6113  0.9138 -1.0730
  640TIP3    H223480   1.382   0.522   2.448  0.1613 -0.2251  0.0145
  641TIP3   OH223481   0.348   3.030   2.096 -0.2346 -0.1452  0.2534
  641TIP3    H123482   0.334   3.102   2.158 -0.9892 -0.6972  0.7391
  641TIP3    H223483   0.428   3.055   2.048  1.1927 -0.3703  2.3842
  642TIP3   OH223484   0.155   0.040   0.650  0.0375 -0.2440 -0.3189
  642TIP3    H123485   0.212   0.090   0.592 -0.1603  2.1150  1.4146
  642TIP3    H223486   0.214  -0.013   0.703  0.9301  3.1455  2.3854
  643TIP3   OH223487   2.348   0.323   2.911 -0.4456  0.0679  0.1295
  643TIP3    H123488   2.294   0.254   2.949  0.0494  0.3919  1.4816
  643TIP3    H223489   2.431   0.280   2.890 -0.0532  0.2782  1.1903
  644TIP3   OH223490   4.003   4.613   8.733  0.1911 -0.0208 -0.2254
  644TIP3    H123491   4.090   4.616   8.692  0.3304  0.2921  0.0870
  644TIP3    H223492   3.942   4.606   8.660  0.4330  0.6231 -0.4949
  645TIP3   OH223493   5.913   6.089   1.007 -0.3202  0.0113  0.0624
  645TIP3    H123494   5.962   6.025   1.059  0.4567 -1.2042 -2.0488
  645TIP3    H223495   5.826   6.090   1.047 -0.1551 -1.9063  0.5836
  646TIP3   OH223496   3.428   2.851   3.220 -0.1017 -0.2813  0.2857
  646TIP3    H123497   3.505   2.839   3.165 -0.1956  2.2539 -0.5171
  646TIP3    H223498   3.455   2.912   3.288 -0.6694 -1.5130  1.6632
  647TIP3   OH223499   6.364   6.295   1.597  0.1165  0.6992  0.4000
  647TIP3    H123500   6.409   6.368   1.640  0.8785  0.6039 -0.2036
  647TIP3    H223501   6.351   6.231   1.666 -0.5303  1.3859  0.9338
  648TIP3   OH223502   4.147   4.753   2.722  0.5435  0.4397  0.2420
  648TIP3    H123503   4.181   4.751   2.633 -0.6339 -0.9575 -0.2385
  648TIP3    H223504   4.209   4.700   2.773  1.6722  1.9262  0.4734
  649TIP3   OH223505   0.924   0.791   1.406  0.3835 -0.1019  0.4456
  649TIP3    H123506   0.897   0.770   1.316  1.3585 -1.3561  0.4297
  649TIP3    H223507   1.005   0.841   1.395  0.2024  0.2330  0.6212
  650TIP3   OH223508   6.440   4.448   1.768 -0.6518  0.2412  0.4583
  650TIP3    H123509   6.388   4.423   1.845 -1.4372 -2.5184 -0.8234
  650TIP3    H223510   6.522   4.481   1.804 -1.1100 -0.6919  2.4976
  651TIP3   OH223511   2.167   2.759   2.582  0.4824 -0.1672 -0.3329
  651TIP3    H123512   2.206   2.674   2.561  0.3194 -0.4808  0.5830
  651TIP3    H223513   2.104   2.774   2.512 -1.0586 -1.8390  0.5897
  652TIP3   OH223514   5.222   1.415   2.947  0.0901  0.3347  0.7695
  652TIP3    H123515   5.143   1.362   2.938  0.3910  0.2285 -2.8037
  652TIP3    H223516   5.190   1.505   2.953 -0.3556  0.2148  0.2678
  653TIP3   OH223517   1.390   5.629   1.381  0.1063 -0.5237  0.7523
  653TIP3    H123518   1.419   5.633   1.290  1.4448 -1.5550  1.1033
  653TIP3    H223519   1.297   5.654   1.378 -0.4363 -2.5129 -1.1668
  654TIP3   OH223520   5.524   0.001   2.527 -0.0676  0.0518 -0.0310
  654TIP3    H123521   5.602   0.030   2.480 -0.5582 -1.2825 -1.7572
  654TIP3    H223522   5.531   0.043   2.612  2.1681  0.5282 -0.3840
  655TIP3   OH223523   0.964   6.414   2.709  0.1226 -0.5527  0.1698
  655TIP3    H123524   1.056   6.392   2.717  0.1862  0.2834  2.3245
  655TIP3    H223525   0.961   6.509   2.719 -0.9409 -0.5118 -0.3541
  656TIP3   OH223526   3.081   3.563   2.888  0.4228 -0.1368 -0.0594
  656TIP3    H123527   2.991   3.555   2.921 -0.4790  1.5525 -1.9212
  656TIP3    H223528   3.133   3.511   2.950 -1.5434  0.3789  2.2061
  657TIP3   OH223529   1.875   3.813   0.146  0.4070  0.1359  0.2164
  657TIP3    H123530   1.847   3.904   0.147  0.8673  0.2905  2.2881
  657TIP3    H223531   1.946   3.808   0.210 -0.6843 -1.9942  1.3758
  658TIP3   OH223532   1.423   6.022   1.344 -0.4546  0.3894 -0.3275
  658TIP3    H123533   1.354   6.023   1.410 -0.2657 -0.2042 -0.1127
  658TIP3    H223534   1.494   6.074   1.381 -0.4790  0.3333 -0.2022
  659TIP3   OH223535   2.172   2.598   8.452  0.3403 -0.1428 -0.1915
  659TIP3    H123536   2.206   2.686   8.464  0.6649 -0.6124  3.5043
  659TIP3    H223537   2.082   2.611   8.422  0.2285  1.4805  0.7606
  660TIP3   OH223538   6.474   2.814   3.553  0.0522  0.1727  0.2488
  660TIP3    H123539   6.551   2.814   3.608  0.4263  0.6918 -0.2563
  660TIP3    H223540   6.429   2.732   3.573 -0.5215  0.9196  2.2764
  661TIP3   OH223541   3.637   0.789   2.823  0.2600 -0.7741  0.0337
  661TIP3    H123542   3.683   0.870   2.800 -0.0692 -0.6248 -0.0952
  661TIP3    H223543   3.705   0.721   2.820  0.1925 -0.8006 -1.5866
  662TIP3   OH223544   4.089   6.575   3.059 -0.2353 -0.5432  0.1565
  662TIP3    H123545   4.163   6.635   3.062 -0.6404  0.1106 -1.7340
  662TIP3    H223546   4.018   6.620   3.105 -0.5664  0.5095 -1.3342
  663TIP3   OH223547   2.115   1.249   8.571  0.3248  0.1773 -0.2714
  663TIP3    H123548   2.049   1.318   8.578 -0.5298 -0.6912  0.3395
  663TIP3    H223549   2.198   1.294   8.589 -0.3699  0.7672  1.7039
  664TIP3   OH223550   2.085   5.195   1.924 -0.1739 -0.4889  0.6554
  664TIP3    H123551   2.004   5.238   1.899 -0.2488 -1.3202 -0.6058
  664TIP3    H223552   2.152   5.235   1.868 -0.4033 -2.6308 -1.2845
  665TIP3   OH223553   2.750   3.312   1.279 -0.1110 -0.1042 -0.0456
  665TIP3    H123554   2.832   3.340   1.319 -0.5406  0.4421  0.4574
  665TIP3    H223555   2.724   3.235   1.330 -0.0367 -0.1345 -0.0530
  666TIP3   OH223556   0.014   1.822   1.988 -0.1005 -0.6767  0.5353
  666TIP3    H123557   0.074   1.807   2.061 -1.9011  2.0719  2.7708
  666TIP3    H223558  -0.072   1.806   2.025 -0.9758 -2.1996 -1.9414
  667TIP3   OH223559   2.502   0.292   0.783 -0.1202  0.2520  0.6958
  667TIP3    H123560   2.417   0.265   0.749 -0.5848  2.3703  0.0651
  667TIP3    H223561   2.486   0.312   0.875  0.7411 -3.6412  1.8993
  668TIP3   OH223562   3.327   0.857   8.300 -0.6638  0.1692 -0.0299
  668TIP3    H123563   3.292   0.876   8.387 -1.0133 -1.2812  0.1791
  668TIP3    H223564   3.313   0.937   8.250 -0.6494  0.9544  1.1838
  669TIP3   OH223565   5.632   5.848   0.229  0.1432  0.4248  0.4785
  669TIP3    H123566   5.556   5.837   0.171  0.2058 -1.7256  0.7399
  669TIP3    H223567   5.688   5.911   0.183 -0.9416  0.6485 -0.6023
  670TIP3   OH223568   0.445   0.901   2.900  0.0576 -0.2194 -0.1934
  670TIP3    H123569   0.379   0.958   2.940  0.3487  0.1562 -0.2427
  670TIP3    H223570   0.402   0.816   2.894 -0.8001  0.2625 -1.1941
  671TIP3   OH223571   3.932   1.581   1.695  0.0473 -0.1191 -0.1480
  671TIP3    H123572   4.008   1.569   1.752  0.9250 -0.0587 -1.2479
  671TIP3    H223573   3.923   1.498   1.649 -0.9157 -0.3126  0.3660
  672TIP3   OH223574   3.254   4.783   8.488  0.0455 -0.9939 -0.2418
  672TIP3    H123575   3.253   4.719   8.416  1.7950  0.3955 -1.5833
  672TIP3    H223576   3.242   4.867   8.444 -0.8480 -0.2499  1.3553
  673TIP3   OH223577   1.409   3.272   1.375 -0.0625  0.4271 -0.1610
  673TIP3    H123578   1.450   3.186   1.390  1.8310  1.4620  1.0625
  673TIP3    H223579   1.472   3.335   1.410 -1.4259  2.3403 -0.9624
  674TIP3   OH223580   0.430   4.730   0.009  0.7815  0.1223  0.6321
  674TIP3    H123581   0.417   4.705  -0.082  0.5881 -1.2355  1.0078
  674TIP3    H223582   0.343   4.755   0.040  0.6473 -0.4402  0.7238
  675TIP3   OH223583   3.438   3.810   2.840  0.1159  0.0665  0.9568
  675TIP3    H123584   3.455   3.807   2.934  1.0770 -1.2435  0.7709
  675TIP3    H223585   3.451   3.720   2.810  1.2623  0.7253 -0.6561
  676TIP3   OH223586   4.867   3.057   0.420 -0.2741  0.1497  0.1509
  676TIP3    H123587   4.957   3.061   0.452 -0.7794 -0.5237  1.7413
  676TIP3    H223588   4.846   3.147   0.396 -0.7706  1.3803  4.4600
  677TIP3   OH223589   0.038   3.217   2.761 -0.0453  0.3895 -0.3309
  677TIP3    H123590   0.081   3.134   2.742  0.5092  0.8527 -1.2132
  677TIP3    H223591  -0.052   3.194   2.783  0.6519 -0.6190  1.7019
  678TIP3   OH223592   1.249   6.720   0.061  0.2571 -0.2745  0.5298
  678TIP3    H123593   1.196   6.666   0.119  1.5703 -0.4730  1.5889
  678TIP3    H223594   1.261   6.666  -0.017  2.3673 -1.9988  1.9529
  679TIP3   OH223595   5.068   2.562   2.850  0.2450 -0.2205  0.0910
  679TIP3    H123596   5.087   2.604   2.933 -0.5851 -0.9690  0.6848
  679TIP3    H223597   5.074   2.468   2.869 -0.1826 -0.4049 -0.6342
  680TIP3   OH223598   2.307   6.144   2.650  0.1545 -0.1952 -0.1130
  680TIP3    H123599   2.364   6.165   2.576  0.4024 -1.1988 -0.2209
  680TIP3    H223600   2.302   6.225   2.700 -1.0346  0.8752 -1.8890
  681TIP3   OH223601   1.508   3.539   3.073 -0.3995 -0.2105  0.1952
  681TIP3    H123602   1.440   3.605   3.080  0.0573  0.0950  2.8534
  681TIP3    H223603   1.461   3.457   3.057 -1.1750  0.3419 -0.4148
  682TIP3   OH223604   5.387   1.151   2.584 -0.0653  0.2351 -0.7288
  682TIP3    H123605   5.394   1.086   2.514 -0.9252  0.4253 -1.0056
  682TIP3    H223606   5.440   1.225   2.554 -0.6432  0.4255 -1.3242
  683TIP3   OH223607   3.811   6.429   1.011  0.5139  0.5171 -0.1158
  683TIP3    H123608   3.795   6.441   1.105  0.4835  0.3947 -0.1045
  683TIP3    H223609   3.810   6.334   0.999  0.4981  0.5335 -0.2437
  684TIP3   OH223610   0.158   5.812   3.043 -0.3550  0.9112  0.0780
  684TIP3    H123611   0.140   5.900   3.076 -0.8558  0.5589  0.7859
  684TIP3    H223612   0.252   5.800   3.057  0.0509  1.9176 -1.5219
  685TIP3   OH223613   1.695   0.606   2.044  0.1486  0.3850  0.3956
  685TIP3    H123614   1.751   0.536   2.010  0.4056 -0.3407  2.2359
  685TIP3    H223615   1.656   0.570   2.123  2.5042  3.1951  3.1028
  686TIP3   OH223616   6.112   4.269   2.193 -0.0038 -0.4243  0.1071
  686TIP3    H123617   6.110   4.284   2.098  0.7202  0.9955  0.2963
  686TIP3    H223618   6.038   4.319   2.226  0.1745 -0.3262  0.3600
  687TIP3   OH223619   4.047   5.323   0.447  0.2742 -0.2641 -0.9201
  687TIP3    H123620   4.126   5.281   0.481  1.0401  0.5883 -1.6040
  687TIP3    H223621   4.015   5.262   0.380  0.5432 -0.4557 -0.8748
  688TIP3   OH223622   5.282   1.552   0.191 -0.7536  0.0313 -0.0582
  688TIP3    H123623   5.272   1.542   0.286  1.6919  1.9314  0.5017
  688TIP3    H223624   5.330   1.474   0.163 -3.6709 -1.8333 -0.2969
  689TIP3   OH223625   5.161   4.860   1.805  0.1861 -0.0775 -0.6810
  689TIP3    H123626   5.218   4.868   1.881 -0.4392 -1.1340 -0.0808
  689TIP3    H223627   5.135   4.768   1.803 -1.0822  0.2666 -1.2422
  690TIP3   OH223628   1.815   3.743   2.674 -0.0205  0.0846 -0.1871
  690TIP3    H123629   1.764   3.823   2.665 -2.1125 -0.9378  1.4915
  690TIP3    H223630   1.843   3.742   2.766  1.4416 -0.3357 -0.5975
  691TIP3   OH223631   5.344   1.693   3.966 -0.2773  0.1501 -0.4275
  691TIP3    H123632   5.422   1.639   3.954  0.8323  1.2584  1.4002
  691TIP3    H223633   5.376   1.783   3.966 -1.6398  0.6557 -0.1962
  692TIP3   OH223634   3.225   3.924   3.599 -0.2362 -0.1857  0.4265
  692TIP3    H123635   3.295   3.931   3.534 -1.6336 -0.2189 -1.1673
  692TIP3    H223636   3.264   3.955   3.680  1.1393  1.4770 -0.7903
  693TIP3   OH223637   0.776   0.166   0.219  0.0780  0.0337 -0.2697
  693TIP3    H123638   0.759   0.154   0.312 -0.1001 -2.3655 -0.5261
  693TIP3    H223639   0.801   0.258   0.210  1.3047  0.0534  2.3193
  694TIP3   OH223640   0.842   6.364   4.339 -0.0796 -0.0950 -0.0783
  694TIP3    H123641   0.802   6.450   4.345 -1.4125 -0.7708  1.5932
  694TIP3    H223642   0.770   6.306   4.314  0.5173 -0.9043  0.0400
  695TIP3   OH223643   3.010   0.143   2.915  0.4133 -0.2331  0.0062
  695TIP3    H123644   3.091   0.159   2.963  0.0614  0.3626  0.4180
  695TIP3    H223645   3.026   0.178   2.827  0.5101  0.1364  0.1682
  696TIP3   OH223646   6.198   1.699   2.237 -0.6457  0.0275 -0.5733
  696TIP3    H123647   6.108   1.711   2.267 -1.1120 -0.0223 -1.8947
  696TIP3    H223648   6.193   1.626   2.175  1.0499 -3.0628  2.5477
  697TIP3   OH223649   1.913   2.176   0.832  0.5998 -0.0840 -0.4515
  697TIP3    H123650   1.886   2.086   0.851  0.4197 -0.1961 -1.1924
  697TIP3    H223651   1.848   2.208   0.771 -0.4495  1.2478  1.2968
  698TIP3   OH223652   0.724   1.196   1.091 -0.3219 -0.1416  0.2761
  698TIP3    H123653   0.764   1.259   1.152 -0.5985 -0.3131  0.6380
  698TIP3    H223654   0.656   1.153   1.142  1.1573 -2.1614  0.6555
  699TIP3   OH223655   2.887   5.333   2.989 -0.2253 -0.0326 -0.2366
  699TIP3    H123656   2.887   5.333   3.085 -1.2028  2.1155 -0.1925
  699TIP3    H223657   2.979   5.344   2.966 -0.0442 -0.0236  0.4594
  700TIP3   OH223658   2.821   4.266   1.524  0.0830 -0.3946  0.1961
  700TIP3    H123659   2.743   4.213   1.510 -0.4294  0.4972 -0.4363
  700TIP3    H223660   2.788   4.352   1.550  0.8578 -0.0394  0.0552
  701TIP3   OH223661   4.095   6.641   0.408 -0.4508 -0.5162 -0.3390
  701TIP3    H123662   4.033   6.714   0.410 -0.4619 -0.4670 -1.8836
  701TIP3    H223663   4.100   6.615   0.316  1.6515 -0.6770 -0.2282
  702TIP3   OH223664   4.441   2.784   0.942  0.4478  0.7653 -0.3054
  702TIP3    H123665   4.450   2.764   1.035 -0.7972 -1.7056 -0.6285
  702TIP3    H223666   4.530   2.800   0.912  1.2937 -1.6140  0.7100
  703TIP3   OH223667   6.039   0.378   3.241 -0.3309  0.3804  0.3269
  703TIP3    H123668   6.098   0.330   3.299 -0.2094 -1.2160 -1.0611
  703TIP3    H223669   6.079   0.465   3.235  2.3112 -0.7932 -1.0219
  704TIP3   OH223670   2.189   3.024   3.353  0.9892  0.4121  0.4934
  704TIP3    H123671   2.115   2.992   3.301  0.7240  1.2489  0.3391
  704TIP3    H223672   2.242   3.074   3.291  0.8027  1.2123  0.9633
  705TIP3   OH223673   6.391   3.288   0.170  0.4653 -0.1566 -0.5392
  705TIP3    H123674   6.337   3.318   0.097  0.4842 -0.2904 -0.6099
  705TIP3    H223675   6.480   3.291   0.136  0.6373  1.2575 -0.0177
  706TIP3   OH223676   0.770   0.164   2.773  0.0072 -0.4914  0.3484
  706TIP3    H123677   0.779   0.194   2.682 -0.9015  0.0984  0.4440
  706TIP3    H223678   0.691   0.110   2.773 -0.9330  0.8215  1.0912
  707TIP3   OH223679   3.132   5.782   1.990 -0.2086 -0.1789  0.2150
  707TIP3    H123680   3.042   5.758   2.008 -0.0920 -0.5588  0.3099
  707TIP3    H223681   3.133   5.805   1.897 -0.3306 -0.5180  0.1296
  708TIP3   OH223682   4.369   5.596   1.982 -0.1848 -0.0019  0.1785
  708TIP3    H123683   4.408   5.646   1.910 -0.1921 -1.8346 -1.1654
  708TIP3    H223684   4.275   5.613   1.974 -0.1908 -0.2290 -0.2932
  709TIP3   OH223685   4.144   5.291   1.033  0.0507  0.0668  0.0272
  709TIP3    H123686   4.225   5.305   1.081  0.8478  1.5885 -1.6700
  709TIP3    H223687   4.086   5.248   1.096  1.1091  1.7209  2.2469
  710TIP3   OH223688   6.259   1.348   0.362  0.5845  0.4930 -0.1913
  710TIP3    H123689   6.222   1.284   0.422 -1.4825  0.0628 -1.7720
  710TIP3    H223690   6.305   1.410   0.417 -0.0991 -0.6004  1.6864
  711TIP3   OH223691   2.861   2.991   3.727  0.5852  0.5820  0.4433
  711TIP3    H123692   2.839   2.898   3.721 -0.2112  0.8703 -2.3907
  711TIP3    H223693   2.784   3.031   3.767 -1.4332  0.6155 -3.0842
  712TIP3   OH223694   3.209   0.810   3.216 -0.1279  0.0194 -0.5218
  712TIP3    H123695   3.185   0.815   3.124 -1.5212 -2.0938 -0.3377
  712TIP3    H223696   3.304   0.805   3.216 -0.0989  0.2788 -1.8101
  713TIP3   OH223697   3.726   0.717   3.429 -0.0826  0.4728  0.1560
  713TIP3    H123698   3.731   0.634   3.476  1.0612  0.4290 -0.0104
  713TIP3    H223699   3.634   0.741   3.432 -1.0881 -2.3354 -2.4303
  714TIP3   OH223700   6.144   6.811   2.650 -0.7672 -0.4916  0.0794
  714TIP3    H123701   6.101   6.727   2.669 -1.3393 -0.0500  0.8035
  714TIP3    H223702   6.156   6.851   2.736 -0.8127  0.3224 -0.2895
  715TIP3   OH223703   1.534   5.540   2.713 -0.0455  0.0699 -0.4185
  715TIP3    H123704   1.605   5.477   2.724 -1.1158 -1.1777 -0.4674
  715TIP3    H223705   1.494   5.546   2.800 -1.4520 -1.1934 -0.9429
  716TIP3   OH223706   5.918   0.180   8.655 -0.0757 -0.0406 -0.0144
  716TIP3    H123707   5.989   0.152   8.713  1.3788 -0.4946 -1.8811
  716TIP3    H223708   5.919   0.275   8.659 -0.2422 -0.0767  0.9650
  717TIP3   OH223709   6.683   4.361   7.569 -0.1538  0.6882 -0.3662
  717TIP3    H123710   6.750   4.324   7.512 -0.5133  0.3599 -0.5792
  717TIP3    H223711   6.732   4.405   7.638  0.2947 -0.5060  0.1035
  718TIP3   OH223712   1.334   2.059   3.029  0.1156 -0.3304 -0.4924
  718TIP3    H123713   1.265   1.993   3.040 -0.0631 -0.1267 -0.3839
  718TIP3    H223714   1.317   2.123   3.098  0.2233 -0.1123 -0.6679
  719TIP3   OH223715   1.071   3.662   3.330  0.5508 -0.0481  0.1222
  719TIP3    H123716   1.044   3.715   3.405 -1.2224 -0.8504  0.0981
  719TIP3    H223717   1.007   3.683   3.262  1.0522 -0.6969 -0.5636
  720TIP3   OH223718   1.670   4.095   8.510 -0.4481 -0.2058 -0.3706
  720TIP3    H123719   1.677   4.190   8.519 -0.3784 -0.0978 -1.4385
  720TIP3    H223720   1.588   4.073   8.553 -0.7530  0.4217 -0.6143
  721TIP3   OH223721   5.864   5.551   2.230  0.4398 -0.3792  0.0591
  721TIP3    H123722   5.921   5.492   2.279 -0.7222 -1.5953 -0.0075
  721TIP3    H223723   5.808   5.591   2.296 -0.8822 -1.7478 -0.1701
  722TIP3   OH223724   5.531   3.232   8.050  0.6811 -0.3215 -0.3102
  722TIP3    H123725   5.554   3.146   8.014 -1.4173 -0.5468 -1.2431
  722TIP3    H223726   5.562   3.294   7.984  0.5021 -0.4763 -0.5400
  723TIP3   OH223727   2.217   1.590   2.768  0.1050 -0.1798 -0.1707
  723TIP3    H123728   2.219   1.511   2.821  0.7671 -1.6079 -2.1880
  723TIP3    H223729   2.127   1.595   2.736  0.0663 -0.1189 -0.0529
  724TIP3   OH223730   0.020   5.112   3.816  0.2423 -0.0650 -0.0856
  724TIP3    H123731  -0.073   5.109   3.794 -0.0933 -0.2824  1.2452
  724TIP3    H223732   0.054   5.187   3.767 -1.0215  1.0916  0.7320
  725TIP3   OH223733   4.089   1.626   0.315 -0.2389  0.3824  0.0028
  725TIP3    H123734   4.141   1.551   0.288 -1.4662 -0.4105 -0.2815
  725TIP3    H223735   4.134   1.661   0.392  0.8772 -0.0475 -0.4383
  726TIP3   OH223736   1.575   6.459   0.434 -0.0014 -0.4213  0.0534
  726TIP3    H123737   1.531   6.463   0.349  0.1503  0.9695  0.0273
  726TIP3    H223738   1.540   6.533   0.484  1.4491  0.0419  0.4459
  727TIP3   OH223739   6.270   2.597   0.206 -0.4327 -0.0440 -0.0320
  727TIP3    H123740   6.318   2.534   0.259 -0.7601  0.5808  1.0276
  727TIP3    H223741   6.301   2.683   0.236 -0.7398  0.3278 -0.7450
  728TIP3   OH223742   3.514   0.620   3.580 -0.1174  0.4173  0.2791
  728TIP3    H123743   3.423   0.650   3.574 -0.1544  0.5512  1.3513
  728TIP3    H223744   3.510   0.527   3.561 -0.2378  0.7193 -1.3456
  729TIP3   OH223745   3.732   6.693   2.498  0.9481  0.3393  0.7510
  729TIP3    H123746   3.827   6.677   2.498  0.8226 -0.5220 -0.2957
  729TIP3    H223747   3.722   6.771   2.442  0.8526 -1.1003 -1.3433
  730TIP3   OH223748   0.939   5.211   4.074  0.2605  0.4260  0.0013
  730TIP3    H123749   0.965   5.276   4.140 -1.2780  0.1314  0.9386
  730TIP3    H223750   0.878   5.257   4.017 -2.2536 -0.5549  1.7103
  731TIP3   OH223751   1.150   2.397   0.479  0.4556 -0.1627  0.2620
  731TIP3    H123752   1.218   2.366   0.538  2.1590  0.6620 -1.1937
  731TIP3    H223753   1.076   2.338   0.495  1.6588 -1.3962  1.5154
  732TIP3   OH223754   4.041   2.334   3.216 -0.3346 -0.0888 -0.1590
  732TIP3    H123755   3.993   2.269   3.166 -1.5945  2.0600 -1.9208
  732TIP3    H223756   3.974   2.379   3.268 -0.0683  1.8654 -1.4073
  733TIP3   OH223757   6.192   5.202   3.201 -0.6043 -0.3703 -0.0342
  733TIP3    H123758   6.141   5.213   3.281 -1.4397 -0.4683 -0.5425
  733TIP3    H223759   6.247   5.125   3.218 -1.0545 -0.6229  0.3026
  734TIP3   OH223760   2.306   2.111   2.513 -0.1312 -0.5415 -0.2438
  734TIP3    H123761   2.336   2.187   2.563 -1.6979 -1.6316  2.5806
  734TIP3    H223762   2.382   2.053   2.509  0.7704  0.6799 -1.5201
  735TIP3   OH223763   3.725   5.727   8.088  0.3174 -0.1745  0.0227
  735TIP3    H123764   3.678   5.659   8.040 -2.4082  0.9589  0.9236
  735TIP3    H223765   3.751   5.790   8.021 -3.0472  1.1603 -0.2268
  736TIP3   OH223766   6.416   6.454   2.133  0.1192  0.1982  0.2115
  736TIP3    H123767   6.496   6.405   2.151  1.0409  2.1683  1.8917
  736TIP3    H223768   6.435   6.501   2.051  0.0683 -0.4971 -0.2081
  737TIP3   OH223769   4.155   2.053   1.931 -0.1841 -0.5442 -0.4813
  737TIP3    H123770   4.117   2.035   1.845 -1.6701 -1.6269  0.3448
  737TIP3    H223771   4.110   1.993   1.990  1.7135 -0.7288  0.8669
  738TIP3   OH223772   3.180   0.208   2.602  0.3116 -0.1227 -0.2461
  738TIP3    H123773   3.092   0.244   2.614  0.2388 -0.9736  2.2220
  738TIP3    H223774   3.237   0.264   2.654  0.6037 -1.8530  1.3785
  739TIP3   OH223775   5.916   3.267   0.701 -0.0905  0.3960  0.1172
  739TIP3    H123776   5.897   3.174   0.689 -0.5662  0.5601 -0.4531
  739TIP3    H223777   5.996   3.281   0.651 -1.0980  0.6976 -1.4861
  740TIP3   OH223778   5.143   1.249   2.662 -0.1613 -0.5013 -0.8343
  740TIP3    H123779   5.169   1.336   2.689  0.3137 -1.1574  0.9644
  740TIP3    H223780   5.224   1.206   2.636  0.0516 -1.2506  0.9174
  741TIP3   OH223781   0.385   4.164   0.385  0.1743  0.4369 -0.8324
  741TIP3    H123782   0.466   4.215   0.390  0.4821 -0.1484  0.4411
  741TIP3    H223783   0.410   4.083   0.342  0.6350 -0.3662  0.8497
  742TIP3   OH223784   1.668   5.059   8.574 -0.7354 -0.0333 -0.0610
  742TIP3    H123785   1.598   4.995   8.570  0.2837 -1.3794  2.1592
  742TIP3    H223786   1.743   5.015   8.534 -0.3869  0.2768  0.2386
  743TIP3   OH223787   1.318   2.544   3.862  0.2894  0.1219  0.0027
  743TIP3    H123788   1.371   2.614   3.824 -0.3393  0.6265  0.0481
  743TIP3    H223789   1.380   2.492   3.913  0.8245  0.4359 -0.3205
  744TIP3   OH223790   1.189   5.246   2.859 -0.1004  0.4832 -0.0959
  744TIP3    H123791   1.124   5.316   2.856 -1.6890 -0.8305  1.8294
  744TIP3    H223792   1.193   5.221   2.951  3.3577  0.6475 -0.0741
  745TIP3   OH223793   6.505   5.070   0.773  1.0162  0.5901 -0.2077
  745TIP3    H123794   6.560   4.993   0.789  1.8572  0.7711 -1.9811
  745TIP3    H223795   6.484   5.064   0.680  0.2061  1.9552 -0.1267
  746TIP3   OH223796   5.679   1.750   3.591 -0.2344 -0.0933 -0.0392
  746TIP3    H123797   5.698   1.662   3.557 -1.2161  0.3382 -1.8548
  746TIP3    H223798   5.640   1.734   3.677 -2.2322 -1.5983 -1.1379
  747TIP3   OH223799   6.051   1.524   1.701 -0.5232  0.2326 -0.0180
  747TIP3    H123800   6.140   1.522   1.737 -0.6895  0.4442  0.4183
  747TIP3    H223801   5.999   1.473   1.764 -0.7350  0.2337 -0.1929
  748TIP3   OH223802   6.757   5.400   1.128 -0.1275 -0.0362 -0.3151
  748TIP3    H123803   6.743   5.345   1.051 -3.6760 -1.3183  0.9895
  748TIP3    H223804   6.744   5.490   1.097 -0.1190 -0.4238 -1.4651
  749TIP3   OH223805   5.938   3.699   1.248  0.6628  0.1978  0.5165
  749TIP3    H123806   5.886   3.745   1.181 -0.4704 -2.4724 -0.5937
  749TIP3    H223807   6.026   3.734   1.238  0.1902  0.9766 -1.3699
  750TIP3   OH223808   0.768   2.121   1.623  0.2241  0.0052  0.0999
  750TIP3    H123809   0.678   2.143   1.643  0.6653  1.6065  0.4483
  750TIP3    H223810   0.818   2.153   1.698  1.3635  1.6322 -1.2858
  751TIP3   OH223811   1.645   0.845   0.272  0.0114  0.4976  0.0685
  751TIP3    H123812   1.661   0.758   0.237 -0.3186 -0.1662  1.5043
  751TIP3    H223813   1.583   0.885   0.211 -0.5843 -0.6358 -0.0908
  752TIP3   OH223814   0.535   3.886   1.583 -0.7765 -0.6004  0.0556
  752TIP3    H123815   0.453   3.888   1.633 -1.1744  1.2532 -0.5814
  752TIP3    H223816   0.519   3.943   1.508  1.1787  0.0468  0.0595
  753TIP3   OH223817   3.731   6.286   3.173  0.5167 -0.6548 -0.0781
  753TIP3    H123818   3.768   6.216   3.118  0.6689  0.3844 -1.3495
  753TIP3    H223819   3.759   6.367   3.130  0.0041  0.1912  1.1422
  754TIP3   OH223820   3.742   5.566   1.513  0.4307  0.1349  0.4016
  754TIP3    H123821   3.785   5.506   1.452 -1.7686 -0.8879 -0.2366
  754TIP3    H223822   3.699   5.508   1.577 -1.6930  0.9510 -0.2006
  755TIP3   OH223823   4.980   3.182   3.255 -0.9052 -0.0739  0.0653
  755TIP3    H123824   5.053   3.126   3.281  0.7923  1.8773 -0.2386
  755TIP3    H223825   4.924   3.188   3.333 -0.5697 -1.3090  0.4146
  756TIP3   OH223826   5.054   6.643   7.518 -0.3996  0.3383 -0.0997
  756TIP3    H123827   4.981   6.609   7.569  0.0248 -0.5557 -0.0656
  756TIP3    H223828   5.126   6.650   7.581 -0.5126  1.4479 -0.0768
  757TIP3   OH223829   1.033   5.455   1.556 -0.5353 -0.2054  0.0461
  757TIP3    H123830   1.048   5.528   1.616  0.5551  2.7004 -3.4133
  757TIP3    H223831   1.116   5.407   1.556  0.3515  1.2506 -0.8572
  758TIP3   OH223832   5.922   0.584   1.019 -0.4042  0.1730  0.5857
  758TIP3    H123833   5.943   0.555   1.108  0.1122  0.9677  0.7403
  758TIP3    H223834   5.847   0.642   1.030 -0.8193 -0.3199  0.4000
  759TIP3   OH223835   3.722   1.658   3.228 -0.0236  0.2133  0.3054
  759TIP3    H123836   3.802   1.698   3.195 -0.8909  0.7757 -1.2104
  759TIP3    H223837   3.746   1.567   3.245  0.5702 -0.0831 -1.7743
  760TIP3   OH223838   1.461   3.228   0.713 -0.0635  0.4392  0.3362
  760TIP3    H123839   1.405   3.161   0.752  0.5283  0.0125  0.4685
  760TIP3    H223840   1.433   3.233   0.622  1.4132 -1.6939 -0.3306
  761TIP3   OH223841   1.656   3.341   0.104 -0.2233 -0.1420  0.6826
  761TIP3    H123842   1.732   3.288   0.079  0.0089  0.5866 -0.1851
  761TIP3    H223843   1.680   3.378   0.189  1.1657  1.4872 -0.3491
  762TIP3   OH223844   6.506   3.782   7.974  0.1154  0.3535 -0.1023
  762TIP3    H123845   6.428   3.802   8.026 -0.7187  1.4317 -1.6992
  762TIP3    H223846   6.571   3.753   8.038 -1.2900  0.3577  1.3719
  763TIP3   OH223847   3.339   6.370   1.670 -0.2903 -0.2795 -0.0493
  763TIP3    H123848   3.403   6.433   1.704 -0.6886  0.0776  0.0512
  763TIP3    H223849   3.284   6.350   1.745 -1.3385  0.7141 -0.5195
  764TIP3   OH223850   3.695   6.519   2.746  0.3627 -0.1139  0.8215
  764TIP3    H123851   3.641   6.587   2.785 -0.7514 -0.6992  0.3379
  764TIP3    H223852   3.734   6.562   2.669  0.2445  0.1805  0.9220
  765TIP3   OH223853   5.206   4.948   1.498 -0.3133  0.1237 -0.4378
  765TIP3    H123854   5.202   4.916   1.408  0.2492 -0.4753 -0.2484
  765TIP3    H223855   5.205   4.870   1.552  0.1861  0.4541  0.0569
  766TIP3   OH223856   6.714   2.725   0.796 -0.6219 -0.4257  0.8720
  766TIP3    H123857   6.714   2.688   0.884 -1.2051 -0.4247  0.8769
  766TIP3    H223858   6.771   2.667   0.745  0.0011 -0.2266  1.3271
  767TIP3   OH223859   2.283   3.194   0.771 -0.7821 -0.4827  0.4586
  767TIP3    H123860   2.301   3.288   0.770 -0.9137 -0.4591  0.3466
  767TIP3    H223861   2.340   3.160   0.840 -1.0532 -0.2566  0.7945
  768TIP3   OH223862   0.486   2.643   1.559  0.5830  0.3579  0.6457
  768TIP3    H123863   0.529   2.699   1.494  0.7130  0.6472  0.9807
  768TIP3    H223864   0.479   2.697   1.637  0.6208 -0.0591  0.9429
  769TIP3   OH223865   1.116   6.558   0.227 -0.6836 -0.0281  0.6074
  769TIP3    H123866   1.110   6.508   0.308 -0.7466 -0.8044  0.1337
  769TIP3    H223867   1.025   6.572   0.201 -0.7387  1.9138  1.6667
  770TIP3   OH223868   5.405   0.662   0.251  0.4736  0.1679 -0.1379
  770TIP3    H123869   5.468   0.594   0.227  0.1518 -0.2973  0.3065
  770TIP3    H223870   5.357   0.624   0.325  0.2246  0.8419  0.0494
  771TIP3   OH223871   5.022   2.562   3.147 -0.2249 -0.0032 -0.3022
  771TIP3    H123872   5.044   2.481   3.100 -0.2549 -0.5511  0.6161
  771TIP3    H223873   5.015   2.535   3.238 -0.1502  1.0620  0.0201
  772TIP3   OH223874   0.919   6.249   3.613 -0.0165 -0.2757  0.2555
  772TIP3    H123875   0.927   6.325   3.555 -0.5413  1.2324  2.0718
  772TIP3    H223876   0.836   6.208   3.588 -0.0203  0.0816 -0.3427
  773TIP3   OH223877   3.595   2.375   3.470  0.4368  0.1511  0.4344
  773TIP3    H123878   3.561   2.412   3.388 -2.6123 -2.8353  0.1316
  773TIP3    H223879   3.554   2.428   3.538  0.0154  0.3591  0.0277
  774TIP3   OH223880   5.987   3.462   3.533 -0.0561 -0.8554 -0.1400
  774TIP3    H123881   5.921   3.512   3.580 -1.7379 -0.3503 -2.8067
  774TIP3    H223882   6.031   3.526   3.477  2.3626 -1.2980  1.1192
  775TIP3   OH223883   3.123   0.661   0.004  0.4853  0.1853 -1.0906
  775TIP3    H123884   3.160   0.727  -0.055  0.4433  1.8879  0.6975
  775TIP3    H223885   3.029   0.667  -0.009  0.4701  0.6332 -0.7953
  776TIP3   OH223886   5.005   5.099   0.825  0.1475  0.2965 -0.6955
  776TIP3    H123887   4.939   5.168   0.815 -0.5804 -0.6029 -2.6630
  776TIP3    H223888   5.077   5.127   0.768  1.0156  0.7257  0.5877
  777TIP3   OH223889   3.832   0.017   8.428  0.0260  0.3880  0.0837
  777TIP3    H123890   3.834   0.107   8.463  0.3333  0.1381  0.7237
  777TIP3    H223891   3.892   0.019   8.354 -0.7985  0.9817 -0.5865
  778TIP3   OH223892   3.344   1.497   1.526 -0.3052 -0.1409  0.8308
  778TIP3    H123893   3.369   1.505   1.434  0.1973  2.9871  1.1100
  778TIP3    H223894   3.426   1.479   1.571 -0.4648 -1.1360  0.7405
  779TIP3   OH223895   3.414   1.375   2.065  0.0535  0.1482  0.1380
  779TIP3    H123896   3.402   1.412   1.977 -2.2509 -0.3661  0.1493
  779TIP3    H223897   3.362   1.294   2.063  1.2804 -0.7253  1.5066
  780TIP3   OH223898   4.594   6.276   8.742  0.1050 -0.0281  0.6111
  780TIP3    H123899   4.528   6.213   8.713 -0.5794  0.3400  1.3154
  780TIP3    H223900   4.626   6.241   8.825 -1.0644  1.0547  1.5674
  781TIP3   OH223901   6.405   0.621   0.626  0.0700 -0.0579  0.1006
  781TIP3    H123902   6.452   0.621   0.542 -0.1720  0.8764 -0.0514
  781TIP3    H223903   6.339   0.552   0.616 -0.7059  0.7842 -0.9325
  782TIP3   OH223904   1.325   1.715   2.602 -0.1013  0.4718  0.3804
  782TIP3    H123905   1.234   1.741   2.590  0.3439  2.8265  1.5106
  782TIP3    H223906   1.331   1.690   2.694  0.2444 -0.3648  0.1367
  783TIP3   OH223907   4.090   5.989   1.382  0.6065 -0.4635 -0.1594
  783TIP3    H123908   4.131   5.905   1.402  0.2720 -0.5198  0.3159
  783TIP3    H223909   4.083   5.990   1.287  0.8185 -0.8767 -0.1826
  784TIP3   OH223910   0.326   2.538   3.376 -0.3721  0.8513 -0.2769
  784TIP3    H123911   0.251   2.506   3.425 -0.5047 -1.8842 -2.0404
  784TIP3    H223912   0.298   2.536   3.284  1.2788  1.4540 -0.8435
  785TIP3   OH223913   0.667   6.479   2.797  0.2088 -0.1236  0.2074
  785TIP3    H123914   0.616   6.487   2.717  2.0187 -1.1524 -1.1249
  785TIP3    H223915   0.693   6.387   2.800 -0.2502 -0.2509  2.3058
  786TIP3   OH223916   0.117   6.099   1.831 -0.3055 -0.1852 -0.0674
  786TIP3    H123917   0.068   6.018   1.822  0.4203 -1.0514  2.7719
  786TIP3    H223918   0.206   6.077   1.803 -0.3466 -0.0469 -0.3146
  787TIP3   OH223919   6.211   1.029   8.146  0.2023  0.1336  0.0461
  787TIP3    H123920   6.205   0.967   8.073  0.3983  0.4111 -0.2075
  787TIP3    H223921   6.134   1.011   8.199  0.5799 -0.7682  0.3230
  788TIP3   OH223922   3.171   2.893   1.680  0.1600 -0.0153  0.3488
  788TIP3    H123923   3.115   2.819   1.703  1.4811 -0.8417  1.0479
  788TIP3    H223924   3.257   2.854   1.664  0.4763  1.1587 -1.0938
  789TIP3   OH223925   5.171   1.610   8.471 -0.0190  0.5542 -0.1739
  789TIP3    H123926   5.158   1.631   8.378  0.5663 -0.5372 -0.5183
  789TIP3    H223927   5.124   1.527   8.484  0.8250  0.1208  0.2203
  790TIP3   OH223928   5.901   2.108   8.371  0.2321  0.1392  0.0025
  790TIP3    H123929   5.905   2.109   8.275 -0.6482  0.3208 -0.0380
  790TIP3    H223930   5.820   2.060   8.391  0.9290 -0.7930  0.6777
  791TIP3   OH223931   4.888   4.434   0.157 -0.3528 -0.3551  0.1236
  791TIP3    H123932   4.855   4.428   0.247 -0.0696  2.5327  0.4978
  791TIP3    H223933   4.840   4.507   0.118  0.2788 -0.8813 -1.7643
  792TIP3   OH223934   1.096   6.470   1.815  0.1796  0.5181 -0.1431
  792TIP3    H123935   1.064   6.385   1.785 -1.0367  0.5195  1.0421
  792TIP3    H223936   1.075   6.472   1.909  1.5405  1.5293  0.1848
  793TIP3   OH223937   4.176   4.079   3.686  0.1185 -0.0379  0.7402
  793TIP3    H123938   4.180   4.109   3.595  2.4155 -1.2887  0.3577
  793TIP3    H223939   4.140   4.154   3.734 -0.4234  0.9170 -1.0627
  794TIP3   OH223940   2.124   6.158   0.349  0.0660  0.2464  0.0328
  794TIP3    H123941   2.138   6.068   0.380 -0.6259 -0.1450 -0.7540
  794TIP3    H223942   2.033   6.177   0.371 -0.4442 -0.0444 -1.7260
  795TIP3   OH223943   2.005   3.660   2.153 -0.1914  0.4270 -0.4817
  795TIP3    H123944   2.074   3.656   2.087 -0.2137  0.2905 -0.4977
  795TIP3    H223945   2.051   3.683   2.234 -0.0413 -0.2464 -0.3700
  796TIP3   OH223946   3.072   6.644   2.396 -0.4669 -0.1056 -0.7799
  796TIP3    H123947   3.021   6.712   2.440  0.5010  0.1223  0.0218
  796TIP3    H223948   3.025   6.628   2.314 -1.4868  0.5175 -0.3393
  797TIP3   OH223949   6.049   5.282   1.755  0.2706  0.8152  0.6846
  797TIP3    H123950   6.012   5.361   1.715  2.0567  2.6236  2.4290
  797TIP3    H223951   5.983   5.255   1.820 -0.0811  1.2173  0.4984
  798TIP3   OH223952   6.213   4.940   0.583  0.4856 -0.0436  0.2103
  798TIP3    H123953   6.304   4.913   0.581  0.4971  0.0555 -1.3873
  798TIP3    H223954   6.174   4.888   0.653  1.2643 -1.7275 -0.5764
  799TIP3   OH223955   5.694   0.268   3.386  0.5596  0.2268  0.7398
  799TIP3    H123956   5.627   0.204   3.364  0.7359 -0.1145  1.1796
  799TIP3    H223957   5.776   0.229   3.357  0.3012  2.2102 -3.2864
  800TIP3   OH223958   6.245   2.849   1.145  0.0752  0.0179  0.4925
  800TIP3    H123959   6.311   2.858   1.076 -1.0239  1.6237 -0.4223
  800TIP3    H223960   6.284   2.789   1.208  2.2872  0.7240 -0.1294
  801TIP3   OH223961   4.220   3.793   2.161  0.2646 -0.0960  0.1418
  801TIP3    H123962   4.143   3.819   2.111  0.1799 -0.0332  0.3007
  801TIP3    H223963   4.197   3.815   2.252  0.6392  0.3204  0.1385
  802TIP3   OH223964   6.333   3.183   0.436 -0.2944  0.3690  0.3446
  802TIP3    H123965   6.295   3.218   0.356  1.0280  0.8598 -0.1054
  802TIP3    H223966   6.279   3.218   0.506 -1.0709  0.4741 -0.2972
  803TIP3   OH223967   6.539   3.191   0.620  0.4879 -0.0860 -0.0022
  803TIP3    H123968   6.451   3.170   0.588  0.9738 -1.8859 -0.2197
  803TIP3    H223969   6.585   3.226   0.544  0.2719 -0.0984 -0.1404
  804TIP3   OH223970   1.545   4.488   2.393  0.2854 -0.1361  0.2641
  804TIP3    H123971   1.484   4.551   2.431  0.9053 -0.0291  1.1087
  804TIP3    H223972   1.572   4.528   2.311 -1.6250 -0.6994 -0.7043
  805TIP3   OH223973   5.185   5.452   0.459  0.5630  0.1877 -0.5510
  805TIP3    H123974   5.208   5.545   0.466 -2.8238  1.1617 -0.3175
  805TIP3    H223975   5.177   5.422   0.549  0.2160  0.0913 -0.6126
  806TIP3   OH223976   3.708   3.953   1.538 -0.5332 -0.4886 -0.5250
  806TIP3    H123977   3.758   4.011   1.480  0.9581 -0.8158  0.3967
  806TIP3    H223978   3.737   3.865   1.514  0.9558 -0.5847  1.4215
  807TIP3   OH223979   2.337   1.161   2.096 -0.0454  0.2017 -0.2155
  807TIP3    H123980   2.429   1.139   2.110 -0.0714 -0.2400 -0.7407
  807TIP3    H223981   2.339   1.239   2.041  0.0192  0.5405  0.2591
  808TIP3   OH223982   5.778   3.471   1.182 -0.1981  0.2532 -0.7009
  808TIP3    H123983   5.823   3.394   1.147  0.8607  0.5769 -0.1234
  808TIP3    H223984   5.848   3.536   1.192 -0.9123  0.9743 -0.3131
  809TIP3   OH223985   2.889   2.248   1.303 -0.1131  0.3644 -0.0170
  809TIP3    H123986   2.805   2.208   1.323  1.2461 -1.7871  2.0506
  809TIP3    H223987   2.895   2.246   1.208 -2.8179  1.6718 -0.2911
  810TIP3   OH223988   6.089   6.732   0.350  0.3866  0.3721 -0.3941
  810TIP3    H123989   6.091   6.777   0.266  0.9932  0.3131 -0.4219
  810TIP3    H223990   6.000   6.699   0.359 -0.0300  1.4624 -0.4319
  811TIP3   OH223991   2.987   3.203   4.213  0.5892 -0.2489 -0.3060
  811TIP3    H123992   2.904   3.159   4.194 -0.4873  0.3110  2.5703
  811TIP3    H223993   2.976   3.291   4.177  0.3883 -0.4860 -0.8478
  812TIP3   OH223994   4.510   1.221   2.676 -0.4162  0.4723 -0.2926
  812TIP3    H123995   4.590   1.228   2.728 -0.2732  0.7308 -0.5457
  812TIP3    H223996   4.440   1.242   2.738 -0.2521  0.6901 -0.1774
  813TIP3   OH223997   2.588   5.952   0.038  0.5374  0.1675 -0.2528
  813TIP3    H123998   2.623   5.934   0.126 -0.3249  1.5773  0.4179
  813TIP3    H223999   2.525   6.022   0.052 -0.7772 -0.6590 -1.7811
  814TIP3   OH224000   6.631   5.572   0.392  0.0467  0.1399  0.5926
  814TIP3    H124001   6.574   5.498   0.370 -0.4219  0.2718  1.3364
  814TIP3    H224002   6.585   5.649   0.359  0.0601  0.1943  0.7001
  815TIP3   OH224003   2.959   3.820   0.235  0.6633 -0.0885 -0.3822
  815TIP3    H124004   2.919   3.902   0.208 -2.7948 -1.5678 -0.2669
  815TIP3    H224005   2.985   3.835   0.326 -2.5423  0.1628  0.6123
  816TIP3   OH224006   3.427   4.193   0.357  0.3350  0.5347 -0.3830
  816TIP3    H124007   3.372   4.270   0.349 -0.3143  0.0385 -0.8092
  816TIP3    H224008   3.397   4.150   0.438  0.5415  0.6042 -0.2677
  817TIP3   OH224009   1.561   3.535   8.461  0.2311  0.4509  1.0471
  817TIP3    H124010   1.655   3.522   8.472  0.1640 -1.4147 -0.0684
  817TIP3    H224011   1.524   3.514   8.547  0.7384 -0.2284  1.1106
  818TIP3   OH224012   3.815   0.854   2.267  0.4002 -0.1722  0.1508
  818TIP3    H124013   3.865   0.772   2.260  2.3445  1.0633 -2.3115
  818TIP3    H224014   3.875   0.915   2.309 -0.2412  0.5569  0.0281
  819TIP3   OH224015   1.226   5.228   8.257 -0.0648 -0.5630 -0.0280
  819TIP3    H124016   1.237   5.322   8.273 -0.8210 -0.6436  1.0210
  819TIP3    H224017   1.188   5.194   8.337 -0.1811 -1.7094 -0.5513
  820TIP3   OH224018   5.886   3.858   1.776 -0.0379 -1.0545 -0.3431
  820TIP3    H124019   5.957   3.910   1.738 -1.2777 -0.1979 -1.5826
  820TIP3    H224020   5.925   3.773   1.793  1.6193 -0.2156  0.2301
  821TIP3   OH224021   2.304   2.750   3.463 -0.0414  0.1243 -0.2966
  821TIP3    H124022   2.373   2.795   3.512  2.0088 -0.9326 -2.0630
  821TIP3    H224023   2.269   2.816   3.403  0.6405  0.2397 -0.5735
  822TIP3   OH224024   1.509   0.303   1.789 -0.4900 -0.2225 -0.1138
  822TIP3    H124025   1.530   0.267   1.703 -2.1419  0.8102 -1.0181
  822TIP3    H224026   1.413   0.297   1.794 -0.6119  1.6154  0.7531
  823TIP3   OH224027   5.273   0.890   1.764 -0.1102 -0.8648  0.0872
  823TIP3    H124028   5.350   0.833   1.765  0.9070  0.3456 -2.0089
  823TIP3    H224029   5.209   0.844   1.709  0.4129 -0.3902 -0.9460
  824TIP3   OH224030   2.018   1.056   3.576 -0.0308 -0.2853 -0.0539
  824TIP3    H124031   2.035   1.150   3.575  1.4237 -0.5328 -0.1873
  824TIP3    H224032   2.017   1.032   3.668 -1.7876  0.0613  0.0604
  825TIP3   OH224033   5.377   2.124   7.945 -0.2620  0.6447  0.1305
  825TIP3    H124034   5.323   2.071   8.002 -0.8679 -0.2047 -1.1945
  825TIP3    H224035   5.461   2.130   7.991 -0.5274 -0.5373  0.8116
  826TIP3   OH224036   4.181   6.639   8.692 -0.0406  0.3187  0.0137
  826TIP3    H124037   4.262   6.594   8.666  0.4818  2.0138 -1.4732
  826TIP3    H224038   4.155   6.596   8.774  1.4210 -1.4019 -0.3603
  827TIP3   OH224039   0.670   5.562   0.066 -0.3930  0.4291  0.4222
  827TIP3    H124040   0.658   5.470   0.089 -0.4540  0.3990  0.2776
  827TIP3    H224041   0.624   5.571  -0.018 -3.4411  1.4083  2.0377
  828TIP3   OH224042   4.976   3.074   2.007 -0.0002  0.3078  0.2000
  828TIP3    H124043   4.900   3.035   2.051  1.4426 -1.8577  0.9447
  828TIP3    H224044   4.975   3.036   1.920  1.4184 -1.5376  0.9315
  829TIP3   OH224045   3.244   1.117   2.989 -0.4141  0.1409  0.0107
  829TIP3    H124046   3.248   1.102   3.084 -2.6348 -1.4608 -0.0782
  829TIP3    H224047   3.309   1.186   2.973  0.5895 -0.1015  2.5609
  830TIP3   OH224048   4.597   3.998   3.066 -0.0215 -0.1900 -0.2776
  830TIP3    H124049   4.686   3.993   3.101 -0.6849 -3.0654  1.2964
  830TIP3    H224050   4.610   4.015   2.972  1.9456  3.4735  0.4647
  831TIP3   OH224051   1.634   4.617   4.015 -0.6728  0.5937  0.6990
  831TIP3    H124052   1.645   4.712   4.004 -1.4209  0.7085  0.8435
  831TIP3    H224053   1.721   4.581   4.004 -0.7797  0.9888 -2.4873
  832TIP3   OH224054   2.012   0.283   3.689 -0.4618  0.3863  0.0957
  832TIP3    H124055   2.064   0.326   3.756  0.2680  0.1291 -0.2958
  832TIP3    H224056   2.035   0.328   3.608 -1.2323  0.6057 -0.0062
  833TIP3   OH224057   4.153   4.361   1.844 -0.2937 -0.6410 -0.2860
  833TIP3    H124058   4.235   4.313   1.831 -0.3409 -0.8497  0.1415
  833TIP3    H224059   4.151   4.427   1.775  0.7690  0.0960  0.3678
  834TIP3   OH224060   2.113   2.297   3.050 -0.2340 -0.3154 -0.5400
  834TIP3    H124061   2.036   2.341   3.013  0.4563  0.5877 -0.9582
  834TIP3    H224062   2.129   2.342   3.133 -0.3846 -0.7684 -0.2622
  835TIP3   OH224063   1.791   0.532   1.008  0.2344  0.1987 -0.1190
  835TIP3    H124064   1.853   0.515   0.938  2.2725  1.1292  1.3541
  835TIP3    H224065   1.706   0.508   0.972  1.3098 -0.1468 -2.5766
  836TIP3   OH224066   2.401   4.179   0.481  0.9980  0.5861 -0.4320
  836TIP3    H124067   2.444   4.093   0.477 -1.3806 -0.7260  0.1622
  836TIP3    H224068   2.372   4.186   0.572  0.1354  1.4862 -0.7642
  837TIP3   OH224069   0.321   2.596   0.223  0.1692  0.3696 -0.2774
  837TIP3    H124070   0.318   2.635   0.311  0.8192  0.2503 -0.1954
  837TIP3    H224071   0.240   2.624   0.181  0.3971  1.3914 -0.0462
  838TIP3   OH224072   0.459   5.267   3.062 -0.6020  0.7320  0.6981
  838TIP3    H124073   0.496   5.180   3.044  0.5234  1.4969 -1.0118
  838TIP3    H224074   0.436   5.265   3.154  0.4212 -1.0258  0.9597
  839TIP3   OH224075   2.977   0.947   8.542 -0.1790  0.5312  0.6477
  839TIP3    H124076   2.922   1.017   8.577  1.9011  2.6724 -0.0679
  839TIP3    H224077   2.977   0.961   8.447  0.1705 -0.5364  0.4752
  840TIP3   OH224078   5.338   5.719   1.592  0.5078 -0.5955  0.8870
  840TIP3    H124079   5.418   5.733   1.642  0.4241  1.7395  0.5002
  840TIP3    H224080   5.268   5.752   1.650  0.4541  2.5705 -0.7769
  841TIP3   OH224081   1.707   1.072   1.259 -0.8459 -0.2997 -0.4100
  841TIP3    H124082   1.651   1.020   1.316 -1.0948 -0.7541 -1.0523
  841TIP3    H224083   1.740   1.143   1.315 -1.3809 -0.5181  0.1904
  842TIP3   OH224084   2.802   6.214   3.705  0.7774  0.0283 -0.2786
  842TIP3    H124085   2.864   6.254   3.766 -0.6401  1.8753  0.0088
  842TIP3    H224086   2.774   6.285   3.649 -1.3578 -0.6798 -0.1834
  843TIP3   OH224087   4.625   3.205   2.794 -0.5770  0.3883 -0.1860
  843TIP3    H124088   4.586   3.290   2.817 -1.4884  0.1250 -0.7118
  843TIP3    H224089   4.644   3.164   2.878 -0.3199  1.0289  0.0748
  844TIP3   OH224090   5.408   0.089   1.603 -0.1957  0.1780 -0.1115
  844TIP3    H124091   5.417  -0.001   1.572 -0.7165 -0.6114  1.8578
  844TIP3    H224092   5.462   0.141   1.543  1.4067 -1.6536 -0.3448
  845TIP3   OH224093   5.834   2.872   2.924 -0.2504 -0.4505 -0.3196
  845TIP3    H124094   5.930   2.869   2.924 -0.1747 -2.1790 -3.3980
  845TIP3    H224095   5.807   2.786   2.957 -0.9445  0.8209  2.8281
  846TIP3   OH224096   4.380   1.198   1.645 -0.0883  0.0075 -0.1180
  846TIP3    H124097   4.460   1.216   1.596  0.2430 -0.0011  0.4131
  846TIP3    H224098   4.311   1.193   1.579  0.1508  1.1875 -0.4687
  847TIP3   OH224099   4.947   1.460   0.363 -0.3294  0.1058 -0.1875
  847TIP3    H124100   4.961   1.378   0.410 -1.0997  0.3983  0.5773
  847TIP3    H224101   5.000   1.525   0.411 -1.8149  0.5898  0.8662
  848TIP3   OH224102   1.154   1.973   0.734 -0.2088  0.4177 -0.3284
  848TIP3    H124103   1.127   2.061   0.760 -1.0847  0.1887 -0.4522
  848TIP3    H224104   1.248   1.971   0.751 -0.4118  0.9307  0.9206
  849TIP3   OH224105   4.649   1.829   0.666  0.2735 -0.8020  0.2734
  849TIP3    H124106   4.576   1.848   0.725  0.9855 -0.7377  1.1528
  849TIP3    H224107   4.722   1.808   0.724  0.5328 -2.5167 -0.6048
  850TIP3   OH224108   6.733   2.110   2.200 -0.3922  0.2917 -0.3884
  850TIP3    H124109   6.701   2.131   2.112 -1.0046  1.2084  0.0342
  850TIP3    H224110   6.827   2.125   2.196 -0.5447  1.2429 -0.6408
  851TIP3   OH224111   5.162   2.732   8.732  0.2057  0.4371 -0.1359
  851TIP3    H124112   5.211   2.677   8.793  0.1478  0.8359  0.2665
  851TIP3    H224113   5.090   2.676   8.703  0.7097 -0.0416 -0.4856
  852TIP3   OH224114   3.628   0.663   8.756  0.6621  0.0075  0.1227
  852TIP3    H124115   3.573   0.712   8.695  3.0488  2.8870  0.0099
  852TIP3    H224116   3.583   0.670   8.840 -0.1927  0.3978 -0.3552
  853TIP3   OH224117   4.446   6.746   3.808 -0.5359  0.2807  0.2104
  853TIP3    H124118   4.530   6.729   3.851 -1.0435  1.8836  1.9711
  853TIP3    H224119   4.465   6.740   3.714  1.1515 -0.9611  0.5820
  854TIP3   OH224120   2.955   3.651   0.510  0.1930 -0.1592  0.1480
  854TIP3    H124121   2.869   3.670   0.474  0.5182 -1.0921 -1.1796
  854TIP3    H224122   3.008   3.727   0.487  0.1765 -0.3747 -0.6414
  855TIP3   OH224123   5.436   5.831   2.888  0.0952 -0.0137  0.0469
  855TIP3    H124124   5.516   5.858   2.933  0.0525  0.9197 -0.4075
  855TIP3    H224125   5.435   5.735   2.895  1.4190 -0.0647 -0.2182
  856TIP3   OH224126   1.925   6.613   8.541  0.1350  0.1501  0.1747
  856TIP3    H124127   1.865   6.583   8.609 -0.5435  0.5300 -0.2483
  856TIP3    H224128   1.968   6.533   8.509 -2.2204 -0.5557 -1.4975
  857TIP3   OH224129   4.477   6.770   3.528 -0.2466  0.3029  0.4325
  857TIP3    H124130   4.476   6.682   3.488  0.2629  0.5058 -0.0403
  857TIP3    H224131   4.386   6.799   3.522 -0.0156  0.7547 -1.5875
  858TIP3   OH224132   1.756   1.195   3.764  0.3172 -0.2943 -0.9576
  858TIP3    H124133   1.774   1.140   3.688  1.1007 -1.4887  0.0447
  858TIP3    H224134   1.698   1.142   3.819  2.7378 -1.0909  1.0121
  859TIP3   OH224135   4.854   6.196   2.066 -0.2633 -0.1629  0.7253
  859TIP3    H124136   4.899   6.112   2.076 -0.0189 -0.1338 -0.0755
  859TIP3    H224137   4.878   6.245   2.144  0.6995 -0.3386  0.5596
  860TIP3   OH224138   5.966   5.014   0.414  0.4303 -0.5597 -0.6262
  860TIP3    H124139   6.046   4.980   0.452  0.2973 -0.5076 -0.2972
  860TIP3    H224140   5.944   5.090   0.468 -1.0043 -1.8118  0.6671
  861TIP3   OH224141   2.874   5.255   0.385 -0.3481 -0.8178 -0.0272
  861TIP3    H124142   2.915   5.255   0.298 -1.6498 -1.7487 -0.6832
  861TIP3    H224143   2.929   5.198   0.438  1.5073  1.1922  0.3333
  862TIP3   OH224144   5.102   5.749   3.635 -0.3623 -0.2452  0.2960
  862TIP3    H124145   5.093   5.689   3.709  1.3259 -0.6179  0.2442
  862TIP3    H224146   5.100   5.693   3.557 -0.6776 -0.0243  0.1452
  863TIP3   OH224147   3.013   0.200   8.159  0.4527 -0.2520 -0.2457
  863TIP3    H124148   3.091   0.153   8.129 -0.3214 -1.9814  0.3107
  863TIP3    H224149   3.047   0.279   8.202  1.7859 -0.1103 -1.4958
  864TIP3   OH224150   2.010   1.021   8.522 -0.0366  0.2623 -0.0911
  864TIP3    H124151   2.077   1.087   8.542  0.1193 -0.1686  0.8548
  864TIP3    H224152   1.928   1.070   8.519  0.1759  0.6188 -0.1735
  865TIP3   OH224153   6.753   2.612   1.907 -0.6295 -0.2539  0.0295
  865TIP3    H124154   6.707   2.530   1.887 -0.5995 -0.0117 -1.0857
  865TIP3    H224155   6.682   2.675   1.926 -0.6562 -0.4897  0.7553
  866TIP3   OH224156   3.869   6.357   1.292 -0.0693 -0.2686 -0.4252
  866TIP3    H124157   3.831   6.270   1.303  1.1694 -0.5600  2.2568
  866TIP3    H224158   3.858   6.400   1.377  3.0604  0.6197 -0.3233
  867TIP3   OH224159   4.344   5.847   2.570 -0.0065  0.2958 -0.1490
  867TIP3    H124160   4.376   5.818   2.485 -0.1047  0.1979 -0.1514
  867TIP3    H224161   4.379   5.783   2.632 -0.9292 -0.3236 -0.2460
  868TIP3   OH224162   6.718   2.966   0.619 -0.1040 -0.3396  0.3892
  868TIP3    H124163   6.640   3.016   0.645 -1.9284 -2.4369 -0.7437
  868TIP3    H224164   6.726   2.897   0.685 -0.0042 -0.9078 -0.2053
  869TIP3   OH224165   2.128   5.543   3.563 -0.7682  0.0762 -0.0477
  869TIP3    H124166   2.041   5.539   3.603  0.1280 -2.6575  1.8273
  869TIP3    H224167   2.186   5.574   3.633  0.1283 -0.2613 -0.6250
  870TIP3   OH224168   2.816   5.043   8.446 -0.4276 -0.1518  0.1080
  870TIP3    H124169   2.898   5.084   8.471  2.8155 -4.4211 -2.2096
  870TIP3    H224170   2.813   5.050   8.351 -1.9372 -1.4868  0.0029
  871TIP3   OH224171   1.206   6.033   1.500  0.3155  0.0967  0.4109
  871TIP3    H124172   1.164   5.973   1.561  1.4936 -0.2184  0.9489
  871TIP3    H224173   1.159   6.116   1.510  0.0018 -0.1727  1.1808
  872TIP3   OH224174   1.404   5.852   2.357  0.1665  0.3322  0.0926
  872TIP3    H124175   1.400   5.819   2.268 -0.1691  0.3753  0.0932
  872TIP3    H224176   1.497   5.843   2.381  0.2748  0.4094 -0.2895
  873TIP3   OH224177   6.690   5.602   7.796 -0.1016 -0.1051 -0.1381
  873TIP3    H124178   6.707   5.679   7.743  0.4435 -0.1157  0.0211
  873TIP3    H224179   6.775   5.560   7.807 -0.4907 -1.1291 -0.8348
  874TIP3   OH224180   6.222   2.549   1.048  0.2947 -0.0142 -0.0097
  874TIP3    H124181   6.213   2.597   0.965  0.8097 -0.1932 -0.1712
  874TIP3    H224182   6.149   2.487   1.047  0.0871  0.2306 -0.1630
  875TIP3   OH224183   2.231   5.438   3.304  0.1895  0.6261 -0.2402
  875TIP3    H124184   2.326   5.441   3.305  0.5381 -3.4196  2.8780
  875TIP3    H224185   2.203   5.500   3.371  1.0028 -0.9035  1.6005
  876TIP3   OH224186   4.871   2.901   4.072 -0.5996  0.0381  0.0587
  876TIP3    H124187   4.852   2.973   4.013  3.7784  1.7615  0.3678
  876TIP3    H224188   4.901   2.830   4.015 -1.0275 -0.0640 -0.0394
  877TIP3   OH224189   0.295   2.922   3.094 -0.3229 -0.1793  0.3868
  877TIP3    H124190   0.348   2.984   3.044 -0.3596 -1.9969 -2.1193
  877TIP3    H224191   0.322   2.934   3.185  0.8472  2.2803 -0.2282
  878TIP3   OH224192   0.058   4.676   0.698  0.6983 -0.6300 -0.5222
  878TIP3    H124193   0.075   4.673   0.604  0.5799 -1.7958 -0.5142
  878TIP3    H224194   0.017   4.592   0.718 -4.3380  1.5370 -0.3761
  879TIP3   OH224195   0.187   1.898   2.579 -0.1029  0.0326 -0.0426
  879TIP3    H124196   0.146   1.828   2.529  0.0056 -1.0790  1.3648
  879TIP3    H224197   0.242   1.853   2.643  0.3993  1.4193  0.5446
  880TIP3   OH224198   1.410   1.674   8.646  0.3296  0.0062 -0.0873
  880TIP3    H124199   1.341   1.620   8.608 -0.2833  0.9336 -0.3372
  880TIP3    H224200   1.376   1.699   8.732  1.0451 -0.8131  0.4548
  881TIP3   OH224201   4.098   0.306   0.748 -0.1368 -0.4244 -0.1929
  881TIP3    H124202   4.124   0.397   0.766  0.5121  0.0277 -2.8929
  881TIP3    H224203   4.104   0.262   0.833  1.1872  1.6633  0.8993
  882TIP3   OH224204   5.774   6.806   3.306 -0.7061 -0.0528 -0.5451
  882TIP3    H124205   5.824   6.798   3.387 -0.2742  1.9666 -0.5574
  882TIP3    H224206   5.711   6.735   3.309 -1.3605  0.5530  2.0752
  883TIP3   OH224207   0.818   2.215   2.646  0.3309  0.4671  0.2973
  883TIP3    H124208   0.827   2.308   2.628 -1.3833  0.3417 -1.5857
  883TIP3    H224209   0.769   2.211   2.728  1.5377  1.1539  1.0949
  884TIP3   OH224210   5.666   3.534   2.763 -0.8850  0.2225  0.1746
  884TIP3    H124211   5.619   3.451   2.773 -2.1208  1.0607  1.8665
  884TIP3    H224212   5.758   3.511   2.773 -1.1171 -1.0642 -0.3886
  885TIP3   OH224213   2.780   0.291   4.211  0.2204 -0.2913 -0.0922
  885TIP3    H124214   2.840   0.312   4.282 -0.3585  0.2877  0.2236
  885TIP3    H224215   2.814   0.340   4.136  1.3270 -1.5551 -0.4640
  886TIP3   OH224216   2.331   1.788   3.613 -0.2912 -0.1143 -1.0117
  886TIP3    H124217   2.356   1.852   3.547 -2.0877  0.8998 -0.7831
  886TIP3    H224218   2.410   1.774   3.665  0.4785  0.9199 -1.8606
  887TIP3   OH224219   3.536   4.875   1.531  0.4728 -0.2360 -0.5099
  887TIP3    H124220   3.520   4.785   1.503 -0.7595 -0.3597  0.5079
  887TIP3    H224221   3.622   4.897   1.494  2.4673 -2.9712  1.9890
  888TIP3   OH224222   0.407   1.925   7.760  0.1396 -0.3051  0.4583
  888TIP3    H124223   0.406   1.832   7.739  0.4033 -0.8493  2.6134
  888TIP3    H224224   0.488   1.958   7.721 -0.2411 -0.8193 -0.8235
  889TIP3   OH224225   2.174   1.176   0.863  0.4265  0.2591  0.9297
  889TIP3    H124226   2.209   1.262   0.839  0.5663  0.1231  0.6372
  889TIP3    H224227   2.112   1.155   0.793 -0.3532  0.5591  1.5176
  890TIP3   OH224228   0.341   1.400   2.229 -0.6010  0.7396  0.2001
  890TIP3    H124229   0.273   1.334   2.244  0.4297 -0.7842 -1.4428
  890TIP3    H224230   0.305   1.480   2.267 -2.3230 -0.5248  1.3996
  891TIP3   OH224231   4.902   0.682   0.111 -0.0039  0.3304 -0.1925
  891TIP3    H124232   4.937   0.671   0.199  0.1671  1.7711 -0.0540
  891TIP3    H224233   4.979   0.675   0.053  0.0744  0.6373 -0.1251
  892TIP3   OH224234   5.635   5.132   2.038 -0.0179 -0.6953  0.1551
  892TIP3    H124235   5.547   5.168   2.049  0.5132  0.2086  1.7252
  892TIP3    H224236   5.679   5.150   2.121  1.4340 -1.7745 -0.3350
  893TIP3   OH224237   3.859   5.539   0.281  0.2782 -0.1086 -0.0418
  893TIP3    H124238   3.908   5.585   0.350 -0.0500 -0.6064  0.5266
  893TIP3    H224239   3.896   5.451   0.280 -2.6155 -1.5772  2.6141
  894TIP3   OH224240   6.287   5.999   1.233  0.2237 -0.1594  0.3962
  894TIP3    H124241   6.240   6.013   1.151 -0.4362  0.0924  0.8052
  894TIP3    H224242   6.364   5.948   1.209 -1.1531 -2.1276 -0.0529
  895TIP3   OH224243   6.364   5.511   3.739 -0.1208 -0.0728  0.5532
  895TIP3    H124244   6.279   5.526   3.780 -0.5063  1.2536 -0.6202
  895TIP3    H224245   6.377   5.416   3.742 -1.4926 -0.2591  1.0365
  896TIP3   OH224246   0.926   4.174   1.112 -0.1954 -0.8739 -0.6465
  896TIP3    H124247   0.955   4.265   1.109 -2.5738 -0.0100  0.0763
  896TIP3    H224248   0.957   4.142   1.197 -1.2981  0.0343  0.1310
  897TIP3   OH224249   3.592   6.709   1.018  0.0719  0.2809 -0.0995
  897TIP3    H124250   3.598   6.667   1.103  1.5090  0.8982  0.1282
  897TIP3    H224251   3.678   6.749   1.004 -0.9986  2.5671 -0.6043
  898TIP3   OH224252   3.955   2.712   7.831 -0.0564 -0.4514 -0.1836
  898TIP3    H124253   3.982   2.731   7.921 -0.9130 -0.7654  0.1464
  898TIP3    H224254   3.948   2.617   7.827 -0.1604 -0.4297 -0.5495
  899TIP3   OH224255   4.745   4.012   1.693 -0.3488 -0.3305 -0.5569
  899TIP3    H124256   4.738   3.930   1.645  0.8562 -0.4334 -0.5734
  899TIP3    H224257   4.715   3.990   1.781  1.5156 -1.2321 -0.0948
  900TIP3   OH224258   6.022   0.279   2.019 -0.3944 -0.5324 -0.0207
  900TIP3    H124259   6.092   0.263   2.081  0.0145  0.1135 -0.3061
  900TIP3    H224260   5.942   0.254   2.066 -0.0294 -0.7621  0.4900
  901TIP3   OH224261   5.653   4.614   2.841  0.0747  0.2942  0.2525
  901TIP3    H124262   5.665   4.638   2.749  0.1366 -1.6958 -0.3012
  901TIP3    H224263   5.635   4.520   2.839  0.7720  0.0685  2.3338
  902TIP3   OH224264   4.347   5.528   0.804 -0.4141 -0.8218  0.3391
  902TIP3    H124265   4.278   5.540   0.739 -0.9340 -1.6139  0.7266
  902TIP3    H224266   4.354   5.433   0.814  1.1277 -0.7776 -0.0977
  903TIP3   OH224267   1.640   4.656   8.655 -0.2563  0.0727  0.5746
  903TIP3    H124268   1.698   4.659   8.579  0.3794  1.7122  1.0884
  903TIP3    H224269   1.571   4.594   8.630 -0.2670  0.8497 -1.4768
  904TIP3   OH224270   0.123   0.911   1.046 -0.4082 -0.3929 -0.3426
  904TIP3    H124271   0.171   0.888   0.967 -1.2107 -0.7589 -0.7393
  904TIP3    H224272   0.037   0.870   1.035 -1.0515  0.7845  0.0387
  905TIP3   OH224273   2.440   2.059   0.006  0.1915 -0.0797 -0.0249
  905TIP3    H124274   2.476   2.117  -0.061  0.2318  0.4218  0.4260
  905TIP3    H224275   2.514   2.005   0.033  0.2816  0.0180 -0.0748
  906TIP3   OH224276   1.926   0.899   2.766 -0.2545 -0.2680 -0.0528
  906TIP3    H124277   1.998   0.914   2.826  0.2919 -2.3803 -0.0857
  906TIP3    H224278   1.918   0.980   2.716  1.3557  0.3926  0.7117
  907TIP3   OH224279   0.505   2.027   3.394 -0.1570 -0.1934  0.4288
  907TIP3    H124280   0.522   1.938   3.426  1.2148 -0.2829 -0.4582
  907TIP3    H224281   0.447   2.014   3.318 -2.2032 -0.0882  1.9030
  908TIP3   OH224282   3.536   0.460   2.419  0.2587 -0.1903  0.5361
  908TIP3    H124283   3.459   0.514   2.438  0.5734 -0.0253  1.3890
  908TIP3    H224284   3.502   0.372   2.409 -0.1832  0.0575 -0.2617
  909TIP3   OH224285   6.041   5.621   0.741  0.5944 -0.1783 -0.2958
  909TIP3    H124286   6.047   5.714   0.762  0.7210 -0.6432  1.9164
  909TIP3    H224287   6.101   5.610   0.666  1.0672  1.3890 -0.1883
  910TIP3   OH224288   3.524   1.071   8.017 -0.2565  0.1292  0.2433
  910TIP3    H124289   3.534   1.166   8.011 -0.7906  0.0906 -1.9152
  910TIP3    H224290   3.610   1.037   7.992 -0.2409  0.0179  0.4413
  911TIP3   OH224291   2.900   3.448   2.459  0.2541  0.1295 -0.1283
  911TIP3    H124292   2.970   3.423   2.520 -0.2255  1.3001  0.9511
  911TIP3    H224293   2.917   3.540   2.439 -0.8291  0.3707 -0.0222
  912TIP3   OH224294   4.374   2.044   2.985  0.0154  0.0518 -0.6565
  912TIP3    H124295   4.390   2.138   2.992  2.2437 -0.3635  1.0702
  912TIP3    H224296   4.280   2.034   3.004  0.0236  1.8094  0.5788
  913TIP3   OH224297   1.671   5.763   3.040  0.0949 -0.1457 -0.3917
  913TIP3    H124298   1.749   5.797   3.083  0.7897  0.7454 -2.2116
  913TIP3    H224299   1.689   5.670   3.027  1.5813  0.3158 -2.1095
  914TIP3   OH224300   3.246   3.157   1.392 -0.2145 -0.3509 -0.2827
  914TIP3    H124301   3.283   3.238   1.357 -0.2250 -0.1785  0.1008
  914TIP3    H224302   3.260   3.093   1.322  0.1152 -0.1055 -0.4481
  915TIP3   OH224303   0.749   0.543   1.796 -0.4807 -0.0084  0.9103
  915TIP3    H124304   0.716   0.596   1.724  0.8769  2.9269  2.2985
  915TIP3    H224305   0.697   0.569   1.872 -0.3310 -1.3173  1.4887
  916TIP3   OH224306   1.120   2.126   1.381 -0.3332  1.1418 -0.2145
  916TIP3    H124307   1.093   2.205   1.428  0.4772  1.8452 -0.9042
  916TIP3    H224308   1.038   2.090   1.348 -1.0098  0.2681  2.2164
  917TIP3   OH224309   0.546   1.582   8.032 -0.3423  0.3393  0.7632
  917TIP3    H124310   0.450   1.580   8.031 -0.3404  0.3306  0.5023
  917TIP3    H224311   0.569   1.642   7.961 -0.1389 -0.2599  0.3106
  918TIP3   OH224312   4.138   0.847   1.775  0.1157 -0.2683 -0.5375
  918TIP3    H124313   4.085   0.838   1.854 -0.1937 -0.8407 -0.8103
  918TIP3    H224314   4.111   0.931   1.737  1.6151  0.9735  0.9569
  919TIP3   OH224315   0.917   1.894   3.310 -0.3387  0.5125 -0.0825
  919TIP3    H124316   0.849   1.846   3.357 -0.4218 -0.0211 -0.7386
  919TIP3    H224317   0.989   1.833   3.301 -0.5834  0.3608 -1.2451
  920TIP3   OH224318   0.776   1.189   3.315  0.4269  0.5200 -0.4664
  920TIP3    H124319   0.791   1.095   3.324  1.7633  0.3305 -3.4448
  920TIP3    H224320   0.682   1.197   3.302 -0.1044 -0.0351  2.2706
  921TIP3   OH224321   5.534   1.328   3.862 -0.3523 -0.0037 -0.1175
  921TIP3    H124322   5.565   1.368   3.943 -1.1249 -1.4897  0.9513
  921TIP3    H224323   5.459   1.275   3.888  0.7059 -2.2861 -1.4012
  922TIP3   OH224324   4.998   2.884   2.662 -0.2824  0.1053  0.1091
  922TIP3    H124325   4.983   2.795   2.628 -2.1928  0.8532 -1.1732
  922TIP3    H224326   4.922   2.902   2.717  0.6077  0.5907  1.2256
  923TIP3   OH224327   3.572   6.611   2.079 -0.0182 -0.4135  0.1869
  923TIP3    H124328   3.623   6.688   2.053  0.6428 -0.5486  1.0492
  923TIP3    H224329   3.497   6.647   2.127  1.3855 -0.3302  2.4748
  924TIP3   OH224330   5.227   1.318   8.286 -0.1664 -0.1174 -0.2229
  924TIP3    H124331   5.265   1.401   8.256  0.2385 -0.5317 -0.8799
  924TIP3    H224332   5.150   1.306   8.230 -1.1987  0.6191  0.9682
  925TIP3   OH224333   3.390   2.626   8.188 -0.2111 -0.0565 -0.1435
  925TIP3    H124334   3.327   2.562   8.221 -0.6786  0.9628  1.0059
  925TIP3    H224335   3.339   2.682   8.130  0.1208 -0.4881 -0.8677
  926TIP3   OH224336   3.515   4.060   1.319  0.0652  0.2378  0.0944
  926TIP3    H124337   3.542   4.126   1.255  4.1338  0.2016  1.4753
  926TIP3    H224338   3.549   3.977   1.283  0.9985 -0.0082  1.4715
  927TIP3   OH224339   3.014   3.224   3.404 -0.2790 -0.8655 -0.4758
  927TIP3    H124340   3.092   3.172   3.382  1.0613  1.0544 -0.5331
  927TIP3    H224341   3.023   3.304   3.352 -1.7418 -0.1420  0.3275
  928TIP3   OH224342   0.172   1.284   0.719  0.0434 -0.2876 -0.2485
  928TIP3    H124343   0.107   1.236   0.668 -0.6204  0.4149 -0.1007
  928TIP3    H224344   0.123   1.317   0.794  0.4752  0.5834 -0.3353
  929TIP3   OH224345   0.684   4.577   0.064 -0.1514  0.4733 -0.1680
  929TIP3    H124346   0.669   4.665   0.099  0.5485  0.3392  0.4806
  929TIP3    H224347   0.607   4.527   0.091  0.2968  0.4160  1.0477
  930TIP3   OH224348   2.366   6.113   1.918 -0.2497 -0.3270  0.0724
  930TIP3    H124349   2.347   6.149   1.832 -0.1340 -1.4921 -0.4554
  930TIP3    H224350   2.327   6.176   1.979 -1.0593  0.0819 -0.8416
  931TIP3   OH224351   2.677   1.448   1.779 -0.2322 -0.0852 -0.2418
  931TIP3    H124352   2.611   1.487   1.836  0.7293  0.3460  0.6120
  931TIP3    H224353   2.674   1.354   1.799  1.2265  0.2261  1.8239
  932TIP3   OH224354   2.073   1.309   3.472 -0.0069 -0.3275  0.2343
  932TIP3    H124355   2.046   1.400   3.463 -0.9727 -0.6513 -0.2980
  932TIP3    H224356   2.083   1.277   3.382 -0.8719 -1.0790  0.3883
  933TIP3   OH224357   1.150   1.135   2.132  0.3392 -0.0491 -0.3546
  933TIP3    H124358   1.176   1.156   2.221  0.7008 -0.0350 -0.4645
  933TIP3    H224359   1.183   1.047   2.116  0.3235 -0.0310 -0.4932
  934TIP3   OH224360   5.720   1.083   2.932 -0.4797  0.2155 -0.0225
  934TIP3    H124361   5.724   1.051   3.022  1.5861 -0.5976 -0.3392
  934TIP3    H224362   5.675   1.014   2.884 -1.2972  0.5035  0.3175
  935TIP3   OH224363   1.731   6.113   0.101  0.1623 -0.1796 -0.7018
  935TIP3    H124364   1.665   6.169   0.061 -1.1884 -0.7847  0.5667
  935TIP3    H224365   1.691   6.026   0.101  0.2980 -0.3000  1.3961
  936TIP3   OH224366   3.085   0.689   1.825 -0.0185  0.1391  0.3016
  936TIP3    H124367   3.118   0.642   1.902  2.1811  1.6549  0.3684
  936TIP3    H224368   3.155   0.682   1.760 -1.0716  0.4612 -0.9119
  937TIP3   OH224369   5.317   0.499   8.530  0.5150  0.7426  0.5144
  937TIP3    H124370   5.269   0.446   8.466 -0.1032  0.2797  1.3455
  937TIP3    H224371   5.301   0.589   8.504 -0.5093  0.5838  0.5672
  938TIP3   OH224372   1.531   5.418   0.888  0.6548  0.1632 -0.0300
  938TIP3    H124373   1.449   5.394   0.931  0.8126  0.7924  0.6398
  938TIP3    H224374   1.600   5.390   0.948  0.9207  0.0870 -0.3616
  939TIP3   OH224375   3.106   0.062   8.421  0.2549  0.4123  0.2397
  939TIP3    H124376   3.119   0.098   8.333  1.0211 -1.9752 -0.7017
  939TIP3    H224377   3.046   0.124   8.463 -2.1562  0.4140 -2.7843
  940TIP3   OH224378   0.999   4.667   1.323  0.1095 -0.1872  0.2071
  940TIP3    H124379   1.085   4.684   1.286  0.3282  1.0016  1.2235
  940TIP3    H224380   0.992   4.726   1.397 -0.4697 -2.2007  1.8617
  941TIP3   OH224381   3.863   5.595   3.336  0.2554  0.3277  0.1293
  941TIP3    H124382   3.843   5.632   3.251  4.0426  1.9400 -0.2433
  941TIP3    H224383   3.833   5.661   3.399  0.2960  0.5627 -0.0998
  942TIP3   OH224384   5.588   1.695   0.440  0.1647 -0.3163  0.1163
  942TIP3    H124385   5.555   1.771   0.391  2.4197  0.1132 -0.8536
  942TIP3    H224386   5.540   1.621   0.403 -0.7078  0.4017 -0.2453
  943TIP3   OH224387   0.472   1.612   2.058 -0.1702  0.3861 -0.1360
  943TIP3    H124388   0.521   1.548   2.109  0.8756  0.7389 -0.6490
  943TIP3    H224389   0.451   1.568   1.976 -1.5150 -0.0547  0.4210
  944TIP3   OH224390   4.496   6.747   3.224  0.5716 -0.7189  0.0059
  944TIP3    H124391   4.495   6.664   3.271  0.1132 -0.0404  1.2155
  944TIP3    H224392   4.405   6.763   3.201  0.6792 -0.6041 -0.3529
  945TIP3   OH224393   2.104   4.720   8.046 -0.1398 -0.0901 -0.0398
  945TIP3    H124394   2.029   4.695   8.101 -0.6090  1.1310 -0.0920
  945TIP3    H224395   2.169   4.752   8.108 -0.6841  1.3249 -0.1554
  946TIP3   OH224396   6.064   1.459   8.471  0.3657  0.1012 -0.0156
  946TIP3    H124397   6.099   1.512   8.399 -1.4632  0.4077 -0.7244
  946TIP3    H224398   6.055   1.371   8.435  5.3690 -1.4791  1.7461
  947TIP3   OH224399   2.984   1.884   1.597  0.2148  0.3545 -0.1115
  947TIP3    H124400   3.033   1.868   1.678 -2.4967 -0.6825  1.4497
  947TIP3    H224401   2.905   1.831   1.605 -1.0050  1.5887 -2.6719
  948TIP3   OH224402   0.744   4.276   3.037  0.0875 -0.4279  0.3627
  948TIP3    H124403   0.828   4.308   3.070 -0.0251 -0.1464  0.3705
  948TIP3    H224404   0.692   4.260   3.115 -0.2629  0.4627  0.3200
  949TIP3   OH224405   2.132   1.194   3.229 -0.3341 -0.5612  0.1293
  949TIP3    H124406   2.169   1.106   3.222 -0.2936 -0.4804 -0.7618
  949TIP3    H224407   2.206   1.252   3.216 -0.5386 -0.3958 -0.2926
  950TIP3   OH224408   0.713   4.258   2.130  0.1361 -0.3526  0.2971
  950TIP3    H124409   0.774   4.228   2.197 -0.3022 -0.3684  0.6980
  950TIP3    H224410   0.724   4.353   2.129 -1.3290 -0.1108  1.8965
  951TIP3   OH224411   2.066   5.565   1.609  0.5012 -0.3692  0.6434
  951TIP3    H124412   2.133   5.541   1.545  1.5535  1.0944  1.1410
  951TIP3    H224413   2.055   5.659   1.597 -1.5087 -0.5719  0.5709
  952TIP3   OH224414   1.359   2.072   0.173 -0.0852  0.1003  0.4878
  952TIP3    H124415   1.414   2.040   0.101 -2.2455  1.4895 -1.9358
  952TIP3    H224416   1.383   2.164   0.182 -0.5873  0.2051  0.7831
  953TIP3   OH224417   0.976   0.744   3.215 -0.3185 -0.7183  0.4019
  953TIP3    H124418   1.019   0.663   3.245 -1.6574 -1.1876  1.1500
  953TIP3    H224419   0.882   0.727   3.228 -0.7662  0.2057 -1.3291
  954TIP3   OH224420   0.518   1.426   2.439 -0.6292  0.6599  0.0623
  954TIP3    H124421   0.456   1.443   2.367 -0.3035  0.0488 -0.3783
  954TIP3    H224422   0.500   1.494   2.503  0.2385  2.3097 -1.3495
  955TIP3   OH224423   6.406   4.177   0.616  0.4806 -0.0544 -0.0585
  955TIP3    H124424   6.481   4.185   0.674  0.9922 -0.3619 -0.6672
  955TIP3    H224425   6.370   4.266   0.610  0.2820 -0.0644  0.8962
  956TIP3   OH224426   1.649   3.443   1.577 -0.0945 -0.1040 -0.4454
  956TIP3    H124427   1.577   3.384   1.601  0.6724 -0.7498  0.3323
  956TIP3    H224428   1.677   3.412   1.491 -0.2362 -0.3482 -0.4077
  957TIP3   OH224429   0.859   1.705   2.180  0.5180 -0.5584 -0.3610
  957TIP3    H124430   0.946   1.704   2.218  0.7449 -1.9687 -0.8750
  957TIP3    H224431   0.837   1.613   2.167 -3.2450 -0.8635  4.7405
  958TIP3   OH224432   3.925   5.260   2.805 -0.0227  0.2224 -0.5659
  958TIP3    H124433   3.918   5.319   2.880 -0.9726  0.7269 -1.0403
  958TIP3    H224434   4.000   5.293   2.755 -0.0540  0.5332 -0.4073
  959TIP3   OH224435   0.377   5.787   2.792  0.5039  0.7740  0.0669
  959TIP3    H124436   0.389   5.693   2.806  1.1246  0.7751 -0.4140
  959TIP3    H224437   0.284   5.802   2.808  0.5805  0.2385  1.0607
  960TIP3   OH224438   0.520   5.193   0.762 -0.4616 -0.2317  0.1060
  960TIP3    H124439   0.547   5.242   0.684  2.1461 -0.1512  0.9426
  960TIP3    H224440   0.443   5.143   0.734  2.2267 -2.8249 -3.6199
  961TIP3   OH224441   6.270   2.476   2.258 -0.2140 -0.9496  0.0657
  961TIP3    H124442   6.228   2.463   2.173 -1.9454  0.2670  0.6776
  961TIP3    H224443   6.198   2.490   2.319  1.0304 -0.4290  1.4990
  962TIP3   OH224444   4.530   5.365   2.039 -0.3455 -0.4300 -0.9644
  962TIP3    H124445   4.623   5.384   2.040 -0.4205  0.1662  2.1188
  962TIP3    H224446   4.488   5.448   2.018 -0.2418  0.0025  0.4566
  963TIP3   OH224447   2.446   4.845   1.974 -0.2780 -0.1545  0.5466
  963TIP3    H124448   2.434   4.829   1.880  0.1164 -0.7095  0.5801
  963TIP3    H224449   2.541   4.848   1.985 -0.2692  3.1324  0.4354
  964TIP3   OH224450   5.483   6.599   2.792  0.1650  0.0387  0.3837
  964TIP3    H124451   5.503   6.681   2.746 -2.5005  0.5763  0.0076
  964TIP3    H224452   5.468   6.626   2.883  0.0288 -0.1732  0.4231
  965TIP3   OH224453   5.922   1.118   0.118 -0.5208  0.4076 -0.8015
  965TIP3    H124454   6.016   1.115   0.102 -0.3432  1.5772 -0.1489
  965TIP3    H224455   5.893   1.201   0.079 -1.2338  0.1710 -0.7939
  966TIP3   OH224456   0.292   6.163   2.688 -0.3028 -0.0098 -0.0214
  966TIP3    H124457   0.232   6.145   2.616  2.4368 -0.4343 -2.4008
  966TIP3    H224458   0.323   6.252   2.671  0.2990 -0.0795  0.6775
  967TIP3   OH224459   1.923   5.504   1.954 -0.0650 -0.3598  0.5461
  967TIP3    H124460   2.007   5.515   1.999  0.9720 -1.2834 -1.0471
  967TIP3    H224461   1.922   5.574   1.888  0.0903 -1.1488 -0.3140
  968TIP3   OH224462   0.605   2.284   0.092  0.6904 -0.0946 -0.0130
  968TIP3    H124463   0.581   2.363   0.043  1.5625  0.2995  0.1868
  968TIP3    H224464   0.687   2.306   0.136  0.0019 -0.4874  1.5324
  969TIP3   OH224465   5.184   4.856   1.232  0.2212 -0.4994 -0.6164
  969TIP3    H124466   5.238   4.781   1.206  1.2367  0.1606 -0.4634
  969TIP3    H224467   5.180   4.911   1.154 -1.9660 -1.5006 -1.2782
  970TIP3   OH224468   5.354   2.520   2.585 -0.1419 -0.0588 -0.0890
  970TIP3    H124469   5.306   2.601   2.605 -1.2006 -1.0658  1.7011
  970TIP3    H224470   5.419   2.512   2.655  0.6684 -0.2382 -0.8455
  971TIP3   OH224471   1.261   5.794   0.807  0.0278 -0.2090 -0.1700
  971TIP3    H124472   1.263   5.703   0.837  0.6682  0.1267  0.8821
  971TIP3    H224473   1.332   5.800   0.743 -0.8765 -0.7567 -1.2620
  972TIP3   OH224474   3.962   5.449   3.003 -0.2264  0.1184 -0.4104
  972TIP3    H124475   4.009   5.517   2.955  1.3335  0.5633  1.6327
  972TIP3    H224476   4.006   5.443   3.088  0.4299 -4.2018 -0.8191
  973TIP3   OH224477   1.016   4.273   1.482 -0.1083  0.4386  0.1694
  973TIP3    H124478   1.019   4.244   1.573  1.1472  1.7944  0.6095
  973TIP3    H224479   1.030   4.194   1.431  0.6105 -0.1463  1.2238
  974TIP3   OH224480   3.800   1.210   8.610  0.0602 -0.0737  0.6702
  974TIP3    H124481   3.850   1.209   8.691  1.5174  0.4619 -0.1827
  974TIP3    H224482   3.837   1.282   8.559 -1.1235 -0.1024 -0.2840
  975TIP3   OH224483   4.114   1.018   0.737  0.0517  0.7043 -0.3828
  975TIP3    H124484   4.066   1.093   0.773 -0.3557  0.0800  0.4264
  975TIP3    H224485   4.075   0.942   0.781  0.1589 -0.0201 -1.5137
  976TIP3   OH224486   0.517   4.472   1.264  0.0416 -0.5063 -0.0590
  976TIP3    H124487   0.566   4.551   1.238  3.3165 -2.0828  0.7315
  976TIP3    H224488   0.513   4.420   1.184 -0.2887 -0.4117 -0.1040
  977TIP3   OH224489   3.420   2.708   1.996  0.2926 -0.3007  0.4202
  977TIP3    H124490   3.468   2.790   2.006 -0.6433  0.5598 -1.6293
  977TIP3    H224491   3.378   2.694   2.080 -1.0578  2.3532  0.2705
  978TIP3   OH224492   4.321   2.828   1.617  0.4732  0.1829  0.3622
  978TIP3    H124493   4.359   2.744   1.593  2.8654  1.5589 -1.1019
  978TIP3    H224494   4.290   2.865   1.535  1.4536  1.6053  0.5818
  979TIP3   OH224495   4.729   6.814   8.745  0.3934  0.4737  0.0558
  979TIP3    H124496   4.710   6.720   8.740  3.6542 -0.2462 -1.6495
  979TIP3    H224497   4.736   6.832   8.839 -0.8383 -0.8056  0.4297
  980TIP3   OH224498   6.344   0.102   3.992  0.0112 -0.3335 -0.0713
  980TIP3    H124499   6.422   0.158   3.986 -0.2625  0.5803  3.0637
  980TIP3    H224500   6.272   0.164   4.007 -0.8560 -1.3589  0.1028
  981TIP3   OH224501   3.927   2.319   1.598  0.2444 -0.0925  0.5231
  981TIP3    H124502   3.910   2.330   1.505  1.3944  1.3516  0.4452
  981TIP3    H224503   3.867   2.380   1.642 -0.8437 -1.3206  0.8153
  982TIP3   OH224504   1.728   3.485   2.939 -0.0071 -0.3996 -0.0808
  982TIP3    H124505   1.650   3.506   2.990 -0.7902 -2.5027 -0.3219
  982TIP3    H224506   1.696   3.436   2.864  1.5115 -1.0333 -0.3577
  983TIP3   OH224507   2.825   4.126   2.295  0.2089  0.7021 -0.1596
  983TIP3    H124508   2.732   4.109   2.278  0.3739  0.7325 -1.1094
  983TIP3    H224509   2.830   4.221   2.308 -0.1773  0.4983  1.7951
  984TIP3   OH224510   1.236   0.292   1.700  0.0450 -0.3653 -0.2737
  984TIP3    H124511   1.250   0.238   1.778 -0.6035 -0.8090 -0.4506
  984TIP3    H224512   1.149   0.329   1.712  0.7290  1.1778  0.1428
  985TIP3   OH224513   5.339   5.971   8.123  0.0750 -0.0511  0.3952
  985TIP3    H124514   5.399   6.044   8.108  1.1924 -0.6617  1.5992
  985TIP3    H224515   5.361   5.907   8.055  1.0786 -0.4164  1.0373
  986TIP3   OH224516   2.878   4.408   2.307  0.2838  0.1500 -0.0624
  986TIP3    H124517   2.883   4.433   2.215  0.8590  0.3082  0.0029
  986TIP3    H224518   2.969   4.410   2.337  0.4027 -2.2836 -0.1177
  987TIP3   OH224519   0.227   6.017   0.532  0.4646 -0.3920 -0.5416
  987TIP3    H124520   0.319   6.027   0.557  0.5597  0.7694 -1.2858
  987TIP3    H224521   0.230   5.975   0.446  0.4027  1.1874 -1.3596
  988TIP3   OH224522   3.951   3.625   0.299 -0.2855 -0.2839  0.2002
  988TIP3    H124523   3.891   3.656   0.230  0.0580 -1.1121 -0.4931
  988TIP3    H224524   3.990   3.546   0.262  0.3785 -0.3906  1.1126
  989TIP3   OH224525   2.091   5.429   2.444  0.9011  0.0682 -0.1560
  989TIP3    H124526   2.104   5.502   2.383  0.6684  0.4823  0.2759
  989TIP3    H224527   2.005   5.445   2.482  2.0365  1.2854  2.1587
  990TIP3   OH224528   0.351   6.664   0.834 -0.5107  0.1159 -0.3177
  990TIP3    H124529   0.313   6.578   0.847 -2.0435  0.6893 -0.7344
  990TIP3    H224530   0.387   6.688   0.919 -0.3273 -0.8079 -0.1312
  991TIP3   OH224531   4.654   1.564   2.752  0.6537 -0.1337  0.0085
  991TIP3    H124532   4.559   1.569   2.755  0.5128 -2.5360  1.4270
  991TIP3    H224533   4.682   1.656   2.743 -1.7476  0.6679 -0.0058
  992TIP3   OH224534   6.553   0.588   2.224 -0.0889  0.5796  0.1192
  992TIP3    H124535   6.588   0.657   2.280  0.6938  1.7144 -1.6515
  992TIP3    H224536   6.483   0.631   2.175 -1.1243 -0.5235  0.5966
  993TIP3   OH224537   6.583   5.756   2.043 -0.4511 -0.4419  0.3458
  993TIP3    H124538   6.578   5.672   1.996  1.2102 -0.9024  0.9099
  993TIP3    H224539   6.618   5.733   2.129 -0.5732  0.7607  0.7329
  994TIP3   OH224540   1.109   2.512   3.081 -0.7356  0.2805  0.0790
  994TIP3    H124541   1.158   2.562   3.146 -1.8658  1.1206  0.3348
  994TIP3    H224542   1.173   2.455   3.040  0.0189 -0.2332  1.8899
  995TIP3   OH224543   3.766   6.706   0.601 -0.3609 -0.3864 -0.2082
  995TIP3    H124544   3.853   6.720   0.564 -0.8217  1.0362 -0.8111
  995TIP3    H224545   3.761   6.611   0.615  1.1358 -0.5350 -0.5049
  996TIP3   OH224546   6.061   6.587   0.698  0.7553 -0.2601  0.0263
  996TIP3    H124547   6.016   6.582   0.614  0.6313  0.8915  0.0069
  996TIP3    H224548   6.129   6.520   0.694 -0.1628 -1.1991 -0.4197
  997TIP3   OH224549   0.251   4.508   1.386 -1.0688  0.2787 -0.7472
  997TIP3    H124550   0.194   4.442   1.345 -0.5066 -0.4693 -0.3489
  997TIP3    H224551   0.328   4.511   1.329 -0.3269 -0.6924  0.1789
  998TIP3   OH224552   6.180   3.759   2.447 -0.5855 -0.0631  0.0368
  998TIP3    H124553   6.126   3.751   2.525  0.3705  0.6712  0.8008
  998TIP3    H224554   6.165   3.848   2.416  0.3831  0.2581  0.4366
  999TIP3   OH224555   2.978   1.391   8.231 -0.5376  0.3464 -0.6281
  999TIP3    H124556   2.925   1.314   8.213 -2.4810  0.2150  4.2009
  999TIP3    H224557   3.066   1.356   8.248 -0.9943 -0.6112 -0.1506
 1000TIP3   OH224558   4.836   2.810   3.663  0.2260  0.2816  0.7351
 1000TIP3    H124559   4.750   2.770   3.680 -0.0252  0.9539  1.0825
 1000TIP3    H224560   4.891   2.782   3.736  0.2575 -0.0259  0.5924
 1001TIP3   OH224561   0.089   3.510   2.556  0.0188 -0.0526  0.7267
 1001TIP3    H124562   0.159   3.446   2.568  0.0999 -0.0407  0.3286
 1001TIP3    H224563   0.030   3.470   2.492  0.1237  0.3091  0.3966
 1002TIP3   OH224564   3.740   3.255   1.560  0.1201  0.0723  0.4131
 1002TIP3    H124565   3.758   3.335   1.608 -0.1356  1.4265 -1.6121
 1002TIP3    H224566   3.796   3.189   1.601 -0.0098  1.1367  2.4282
 1003TIP3   OH224567   1.962   0.709   3.299  0.1884 -0.2629  0.4635
 1003TIP3    H124568   1.919   0.652   3.364  0.5125 -1.5427 -0.3946
 1003TIP3    H224569   2.004   0.777   3.351  1.7266 -2.0977  1.7577
 1004TIP3   OH224570   6.460   5.935   8.314  0.4398  0.1573  0.0729
 1004TIP3    H124571   6.551   5.929   8.343  0.3582  0.7103  0.4442
 1004TIP3    H224572   6.452   6.022   8.275 -0.4421  0.9235  1.8506
 1005TIP3   OH224573   3.062   1.264   1.796 -0.6505 -0.4168  0.1910
 1005TIP3    H124574   3.011   1.262   1.715  0.1805 -0.5409 -0.3511
 1005TIP3    H224575   3.056   1.355   1.826  0.2113  0.0047 -0.8167
 1006TIP3   OH224576   2.548   4.355   0.344  0.0299  0.1808 -0.5235
 1006TIP3    H124577   2.554   4.437   0.394  1.1102 -0.8775  1.1982
 1006TIP3    H224578   2.488   4.300   0.394  1.5133 -1.0928 -0.0768
 1007TIP3   OH224579   2.794   1.844   1.833 -0.1782 -0.7773  0.5655
 1007TIP3    H124580   2.704   1.877   1.825 -0.0203 -0.4751  0.0077
 1007TIP3    H224581   2.801   1.776   1.766  0.7386  0.8552 -1.1098
 1008TIP3   OH224582   1.564   0.743   8.683  0.3384 -0.3005  0.3850
 1008TIP3    H124583   1.631   0.676   8.672 -0.1454 -0.5857 -0.9494
 1008TIP3    H224584   1.612   0.826   8.679  0.9586 -0.5307  2.2015
 1009TIP3   OH224585   4.610   2.136   0.340  0.0236 -0.1499 -0.5125
 1009TIP3    H124586   4.650   2.068   0.286 -0.7717  0.6754 -2.2412
 1009TIP3    H224587   4.533   2.095   0.378  1.2539 -1.1039  1.0558
 1010TIP3   OH224588   1.345   1.514   3.244  0.3181  0.0462  0.2736
 1010TIP3    H124589   1.270   1.487   3.191  1.2573 -0.8166 -0.6504
 1010TIP3    H224590   1.306   1.556   3.321 -1.0781  1.9648 -1.3831
 1011TIP3   OH224591   3.540   5.636   0.318 -0.2413  0.1497 -0.3511
 1011TIP3    H124592   3.497   5.672   0.241 -2.8846  0.1656  1.0175
 1011TIP3    H224593   3.590   5.561   0.284 -2.1198 -0.4682 -1.9958
 1012TIP3   OH224594   5.140   6.236   3.342 -0.0698  0.1806  0.2277
 1012TIP3    H124595   5.105   6.313   3.386  0.8981  1.4409 -1.0866
 1012TIP3    H224596   5.183   6.271   3.264  0.7089 -1.6667 -0.2288
 1013TIP3   OH224597   0.423   4.394   0.021 -0.0266  0.5749  0.2417
 1013TIP3    H124598   0.383   4.480   0.010  0.9038  1.1795  1.3143
 1013TIP3    H224599   0.380   4.338  -0.043 -0.7821  1.7973 -0.3386
 1014TIP3   OH224600   0.931   4.988   0.477  0.0244  0.2119 -0.2236
 1014TIP3    H124601   0.985   4.960   0.551  0.9062  2.1022 -0.1016
 1014TIP3    H224602   0.968   4.941   0.402 -0.2837 -1.0024  0.3516
 1015TIP3   OH224603   5.844   0.107   0.537  0.1119 -0.1652 -0.1096
 1015TIP3    H124604   5.916   0.169   0.527 -0.5555  0.7927  0.7927
 1015TIP3    H224605   5.846   0.083   0.630 -1.6825  1.1047  0.2928
 1016TIP3   OH224606   2.059   0.962   1.147 -0.3906  0.4532  0.3513
 1016TIP3    H124607   1.992   0.934   1.085 -0.5143  0.4312  0.4941
 1016TIP3    H224608   2.113   0.884   1.161 -0.0713  0.5906 -0.0994
 1017TIP3   OH224609   6.204   0.481   1.909 -0.0127  0.6578  0.5445
 1017TIP3    H124610   6.147   0.414   1.948 -0.5582  1.3456  0.9524
 1017TIP3    H224611   6.281   0.483   1.965  0.3123 -0.0956  0.1417
 1018TIP3   OH224612   0.268   4.664   0.289  0.6718  0.6967  0.2307
 1018TIP3    H124613   0.347   4.667   0.343  1.0500  0.6392 -0.3104
 1018TIP3    H224614   0.234   4.576   0.302  1.8795 -0.0360 -1.1584
 1019TIP3   OH224615   4.989   1.275   2.939 -0.0858  0.1633 -0.8196
 1019TIP3    H124616   4.900   1.312   2.939  0.7402  2.2768 -1.3910
 1019TIP3    H224617   5.005   1.252   2.848 -0.1516 -0.5568 -0.6568
 1020TIP3   OH224618   2.065   0.288   1.660 -0.2616  0.0731  0.4357
 1020TIP3    H124619   2.142   0.249   1.702 -0.6108 -0.4130  0.6451
 1020TIP3    H224620   2.007   0.213   1.643  0.0907  0.1913 -1.4177
 1021TIP3   OH224621   6.116   2.633   3.615 -0.5049 -0.6573 -0.1827
 1021TIP3    H124622   6.195   2.602   3.659 -1.2291 -1.3080  0.6953
 1021TIP3    H224623   6.072   2.553   3.586 -0.6206 -0.2817 -1.0646
 1022TIP3   OH224624   3.273   2.548   1.060 -0.1023  0.5377 -0.0508
 1022TIP3    H124625   3.254   2.579   0.972 -1.5313 -0.4990 -0.1368
 1022TIP3    H224626   3.189   2.554   1.107  0.0930 -1.0412  0.5660
 1023TIP3   OH224627   3.598   6.472   2.332  0.7922 -0.2704 -0.6603
 1023TIP3    H124628   3.614   6.541   2.396 -2.3834  0.5146 -0.5660
 1023TIP3    H224629   3.640   6.504   2.252  1.6774  0.4669  0.0748
 1024TIP3   OH224630   6.084   5.533   1.264  0.4021 -0.1411 -0.1245
 1024TIP3    H124631   6.003   5.566   1.224  0.0751 -2.3653 -1.4260
 1024TIP3    H224632   6.140   5.610   1.269 -0.4982  0.7733 -2.5193
 1025TIP3   OH224633   4.534   6.577   1.836 -0.6969  0.5695  0.4552
 1025TIP3    H124634   4.529   6.513   1.907 -1.6157  0.8580  0.6666
 1025TIP3    H224635   4.533   6.662   1.880  0.0900  0.7411  0.1551
 1026TIP3   OH224636   6.217   2.193   0.464  0.1569 -0.2167 -0.0492
 1026TIP3    H124637   6.307   2.160   0.475  0.5790  0.6280 -0.8300
 1026TIP3    H224638   6.162   2.116   0.474  0.9266 -0.6628  0.9801
 1027TIP3   OH224639   6.176   5.921   1.844 -0.3163 -0.0873 -0.1719
 1027TIP3    H124640   6.226   5.859   1.791  0.7831 -0.3000  1.0365
 1027TIP3    H224641   6.183   6.004   1.798 -2.1092 -0.8896 -2.0033
 1028TIP3   OH224642   1.664   0.798   3.892 -0.1296 -0.6473  0.1331
 1028TIP3    H124643   1.568   0.797   3.896 -0.2951  2.0929 -1.0826
 1028TIP3    H224644   1.691   0.836   3.975 -0.1433 -0.5221  0.0800
 1029TIP3   OH224645   3.208   3.614   1.819 -0.5119  0.1226  0.2165
 1029TIP3    H124646   3.125   3.660   1.809  0.3517  1.4116 -1.8035
 1029TIP3    H224647   3.190   3.525   1.788 -1.0435  0.5166 -0.6372
 1030TIP3   OH224648   1.361   3.235   1.938  0.2033 -0.4741 -0.1028
 1030TIP3    H124649   1.375   3.224   1.844  1.8136 -1.2040  0.2009
 1030TIP3    H224650   1.444   3.212   1.979 -0.3590  0.1371  1.5011
 1031TIP3   OH224651   3.443   2.048   8.663  0.3969 -0.3738 -0.0737
 1031TIP3    H124652   3.381   2.119   8.644 -0.4977 -0.7185  1.4152
 1031TIP3    H224653   3.526   2.092   8.677  0.1506  0.2468 -0.5021
 1032TIP3   OH224654   5.719   0.771   1.106 -0.7722 -0.4542  0.0791
 1032TIP3    H124655   5.747   0.854   1.070 -0.2779  0.2595  1.9811
 1032TIP3    H224656   5.626   0.764   1.083 -0.8479  0.6969  0.0197
 1033TIP3   OH224657   5.717   3.092   2.082 -0.3120 -0.0580  0.3198
 1033TIP3    H124658   5.659   3.038   2.135 -1.1086  1.1490  0.7346
 1033TIP3    H224659   5.805   3.068   2.110 -0.7149  1.1504  2.8964
 1034TIP3   OH224660   4.477   3.911   2.067 -0.1754  0.4252  0.3788
 1034TIP3    H124661   4.427   3.885   2.144 -0.6355  0.0447 -0.0417
 1034TIP3    H224662   4.411   3.924   1.999  0.1787  1.2504  0.1792
 1035TIP3   OH224663   5.961   4.138   3.051  0.1182 -0.7490  0.0579
 1035TIP3    H124664   6.056   4.131   3.055  0.1399 -1.1448 -0.7615
 1035TIP3    H224665   5.930   4.090   3.128  0.5738 -1.0099  0.0842
 1036TIP3   OH224666   1.541   6.015   2.148  0.1785  0.2129 -0.3565
 1036TIP3    H124667   1.473   5.950   2.133 -0.8500  1.3121 -0.5936
 1036TIP3    H224668   1.611   5.967   2.192 -0.8312 -0.9020  0.0707
 1037TIP3   OH224669   3.893   0.432   1.211  0.3892 -0.1966 -0.3324
 1037TIP3    H124670   3.804   0.458   1.235  0.0979  0.0864 -1.6259
 1037TIP3    H224671   3.950   0.495   1.256 -0.1175  0.2302 -0.2844
 1038TIP3   OH224672   2.769   4.826   2.546 -0.7448 -0.0299  0.6864
 1038TIP3    H124673   2.757   4.915   2.512 -1.4652 -0.3729 -0.0027
 1038TIP3    H224674   2.695   4.812   2.605 -0.2210  0.0925  1.3709
 1039TIP3   OH224675   2.720   2.334   2.982 -1.0522  0.0005  0.0005
 1039TIP3    H124676   2.645   2.349   3.040 -1.0974  1.7631 -0.4740
 1039TIP3    H224677   2.730   2.416   2.933  0.7006 -0.4814 -0.5150
 1040TIP3   OH224678   3.347   5.703   8.334  0.6109  0.3743  0.4696
 1040TIP3    H124679   3.273   5.660   8.377  0.8493  1.0704  1.6188
 1040TIP3    H224680   3.364   5.650   8.257 -1.0663  0.1753  0.2035
 1041TIP3   OH224681   6.747   6.177   3.196  0.2984 -0.0787 -0.6859
 1041TIP3    H124682   6.716   6.153   3.283  0.2225  0.9671 -0.4075
 1041TIP3    H224683   6.842   6.175   3.204  0.3133 -1.1726 -0.9364
 1042TIP3   OH224684   1.019   1.008   8.240  0.0372 -0.0042 -0.0024
 1042TIP3    H124685   0.974   1.027   8.323 -0.3173  0.1534 -0.2253
 1042TIP3    H224686   0.955   0.957   8.190  0.0728  0.3011 -0.3604
 1043TIP3   OH224687   2.497   3.003   3.997  0.5210 -0.1700  0.1046
 1043TIP3    H124688   2.446   3.068   3.949  0.8047 -0.5082 -0.6754
 1043TIP3    H224689   2.450   2.921   3.983  0.1762 -0.1453  1.0664
 1044TIP3   OH224690   3.781   5.552   1.973 -0.2647 -0.1149  0.7287
 1044TIP3    H124691   3.746   5.641   1.978  0.2704  0.1039  0.6407
 1044TIP3    H224692   3.784   5.523   2.064  0.0606  0.1605  0.8106
 1045TIP3   OH224693   1.769   5.131   0.752 -0.3639 -0.2971  0.1300
 1045TIP3    H124694   1.691   5.086   0.722  0.5191 -1.3880 -0.5933
 1045TIP3    H224695   1.748   5.224   0.744 -0.4057 -0.4838 -3.4071
 1046TIP3   OH224696   3.464   0.642   3.198 -0.7890 -0.1640 -0.1817
 1046TIP3    H124697   3.491   0.722   3.153  1.1089 -1.8096 -2.2127
 1046TIP3    H224698   3.397   0.604   3.142 -1.9346  0.1321  0.9517
 1047TIP3   OH224699   5.586   3.313   1.935 -0.5436  0.1797 -0.2105
 1047TIP3    H124700   5.607   3.225   1.966 -1.1470  0.3753  0.8054
 1047TIP3    H224701   5.495   3.327   1.964  0.3133  2.0636  1.8640
 1048TIP3   OH224702   5.746   1.100   8.393  0.1296  0.4167  0.0819
 1048TIP3    H124703   5.736   1.031   8.458 -1.5710 -0.0264 -0.6149
 1048TIP3    H224704   5.705   1.066   8.314  0.5105  1.6788 -0.6991
 1049TIP3   OH224705   1.153   3.687   1.915  0.3976  0.3962  0.1412
 1049TIP3    H124706   1.142   3.592   1.917  2.8941  0.0615  1.3645
 1049TIP3    H224707   1.149   3.714   2.007 -0.1131  1.4710 -0.1804
 1050TIP3   OH224708   1.542   0.944   8.210 -0.9520  0.0014 -0.0290
 1050TIP3    H124709   1.627   0.988   8.215 -0.6907 -0.6041  3.2698
 1050TIP3    H224710   1.545   0.879   8.281 -4.4026  0.4442  0.6820
 1051TIP3   OH224711   2.477   1.527   2.589 -0.4219 -0.4843  0.6924
 1051TIP3    H124712   2.539   1.502   2.658 -0.3466 -1.8376  0.1648
 1051TIP3    H224713   2.400   1.473   2.606  0.2688 -2.2591 -1.2987
 1052TIP3   OH224714   6.313   2.493   1.473  0.3938 -0.4973  0.1543
 1052TIP3    H124715   6.335   2.559   1.407 -0.6020 -0.2640  0.0321
 1052TIP3    H224716   6.396   2.449   1.492  0.9645  0.4176 -0.1714
 1053TIP3   OH224717   2.507   4.516   3.608 -0.0698  0.1285  0.0270
 1053TIP3    H124718   2.438   4.509   3.674  0.5811 -0.4074  0.6680
 1053TIP3    H224719   2.530   4.609   3.607 -1.8910  0.6142 -1.3552
 1054TIP3   OH224720   0.591   2.148   0.339 -0.3129  0.0687 -0.1555
 1054TIP3    H124721   0.682   2.119   0.338  0.3649  1.7488  2.6356
 1054TIP3    H224722   0.579   2.192   0.255  2.5664  2.6585  0.6142
 1055TIP3   OH224723   6.002   4.476   0.918  0.7782 -0.4971 -0.0713
 1055TIP3    H124724   5.995   4.516   0.832  0.8438  3.1837  1.4306
 1055TIP3    H224725   5.911   4.457   0.943  0.2953  2.0658  0.4485
 1056TIP3   OH224726   3.583   1.897   1.554  0.4643  0.3195  0.3888
 1056TIP3    H124727   3.626   1.977   1.524 -0.6229 -0.0829 -2.6736
 1056TIP3    H224728   3.648   1.828   1.541 -0.2613  0.0138 -2.2616
 1057TIP3   OH224729   4.186   1.274   0.003  0.1625  0.6128  0.7268
 1057TIP3    H124730   4.097   1.244   0.019  0.1479 -0.6804 -1.3605
 1057TIP3    H224731   4.234   1.195  -0.022  1.2794  1.6349 -0.5633
 1058TIP3   OH224732   3.969   1.591   0.013  0.0637  0.0045  0.4423
 1058TIP3    H124733   4.024   1.589   0.092  1.0247  0.3616 -0.2020
 1058TIP3    H224734   4.001   1.519  -0.041  0.7973  0.9793 -0.4929
 1059TIP3   OH224735   3.915   3.757   1.308  0.1937 -0.4830 -0.3522
 1059TIP3    H124736   3.976   3.755   1.235  0.6575 -0.5922  0.0352
 1059TIP3    H224737   3.960   3.710   1.379 -0.1344 -0.1360  0.0932
 1060TIP3   OH224738   3.605   0.042   0.742  0.3874 -0.0676 -0.2665
 1060TIP3    H124739   3.520   0.028   0.702 -0.6324 -1.2136  2.1282
 1060TIP3    H224740   3.660  -0.029   0.710 -0.6181 -1.3852  0.8436
 1061TIP3   OH224741   1.342   3.930   3.641 -0.1873  0.1597 -0.0589
 1061TIP3    H124742   1.333   4.019   3.674  0.0002  0.4740 -0.8410
 1061TIP3    H224743   1.395   3.885   3.708  1.9869  1.3525 -0.8665
 1062TIP3   OH224744   4.088   5.633   0.034 -0.0373 -0.5381 -0.1925
 1062TIP3    H124745   4.124   5.574   0.101  1.1947 -0.3560 -0.6621
 1062TIP3    H224746   3.993   5.622   0.041  0.1399 -2.4931 -0.1683
 1063TIP3   OH224747   0.692   3.735   8.653  0.5474 -0.5057  0.2937
 1063TIP3    H124748   0.617   3.716   8.597  0.3361  0.2237  0.3193
 1063TIP3    H224749   0.726   3.649   8.677 -1.2307 -0.9030  1.5925
 1064TIP3   OH224750   5.005   3.667   8.341 -0.8830  0.8150  1.1457
 1064TIP3    H124751   5.060   3.609   8.288 -0.4022  1.4284  0.9647
 1064TIP3    H224752   5.054   3.749   8.346 -1.6200  1.2575  1.2746
 1065TIP3   OH224753   4.470   3.735   0.207 -0.0490 -0.0743 -0.2056
 1065TIP3    H124754   4.479   3.823   0.243  0.9931  0.2906 -1.2988
 1065TIP3    H224755   4.376   3.723   0.196 -0.2882  0.3689  1.2137
 1066TIP3   OH224756   4.410   2.395   3.302  0.0354 -0.0306 -0.1413
 1066TIP3    H124757   4.395   2.435   3.216 -2.4889  1.1772  0.7711
 1066TIP3    H224758   4.488   2.439   3.335  0.3206  0.3746 -1.3044
 1067TIP3   OH224759   4.982   6.594   1.091  0.4584  0.1517  0.0426
 1067TIP3    H124760   4.944   6.551   1.015 -1.2508  0.8410  0.4375
 1067TIP3    H224761   4.909   6.600   1.153  1.8343 -0.5109  1.8024
 1068TIP3   OH224762   1.399   6.619   3.671 -0.2005 -0.5177 -0.7689
 1068TIP3    H124763   1.314   6.595   3.633  0.1985 -0.5674 -1.6733
 1068TIP3    H224764   1.391   6.599   3.764 -1.1171 -0.6951 -0.8794
 1069TIP3   OH224765   2.423   4.493   0.915 -0.3590 -0.2961 -0.0686
 1069TIP3    H124766   2.351   4.541   0.874 -0.6095 -1.1523 -0.6608
 1069TIP3    H224767   2.422   4.407   0.873  0.5972 -0.5474  0.3809
 1070TIP3   OH224768   2.786   0.952   1.101 -0.6329  0.1268  0.4469
 1070TIP3    H124769   2.831   1.032   1.076  0.9055 -0.5180  1.0134
 1070TIP3    H224770   2.693   0.970   1.084 -0.3279  1.9962  0.5376
 1071TIP3   OH224771   4.209   6.237   1.431 -0.3753  0.0230 -0.4873
 1071TIP3    H124772   4.163   6.161   1.395 -1.2448 -0.5508  1.6834
 1071TIP3    H224773   4.175   6.312   1.380 -0.9580 -0.8061 -1.3593
 1072TIP3   OH224774   4.179   3.143   0.502  0.2374  0.4168  0.1331
 1072TIP3    H124775   4.195   3.107   0.589  2.3898  1.4765  0.2515
 1072TIP3    H224776   4.227   3.085   0.442 -0.0501  0.4918 -0.1700
 1073TIP3   OH224777   0.691   2.347   1.078  0.2496  0.0636  0.1246
 1073TIP3    H124778   0.670   2.262   1.037 -3.6033 -0.1322  2.0154
 1073TIP3    H224779   0.704   2.406   1.004 -0.7064 -1.4607 -1.3447
 1074TIP3   OH224780   3.719   0.968   1.675  0.1694  0.5795  0.2699
 1074TIP3    H124781   3.681   1.039   1.623 -0.9820  0.0952  0.4000
 1074TIP3    H224782   3.700   0.991   1.766  0.3647  0.4297  0.3493
 1075TIP3   OH224783   6.394   3.603   2.508  0.1612 -0.2809  0.5820
 1075TIP3    H124784   6.418   3.547   2.433  1.8637 -0.7126  1.3993
 1075TIP3    H224785   6.348   3.677   2.469 -0.1356 -1.1359 -0.7596
 1076TIP3   OH224786   5.180   5.094   2.860 -0.2287  0.4774 -0.0425
 1076TIP3    H124787   5.168   5.001   2.879 -0.2896  0.4966  0.0125
 1076TIP3    H224788   5.101   5.119   2.812 -0.4722  0.6378  0.4439
 1077TIP3   OH224789   5.898   4.003   0.253 -0.5531 -0.0143  0.4369
 1077TIP3    H124790   5.906   4.070   0.186 -1.3084 -0.1074  0.2458
 1077TIP3    H224791   5.805   3.980   0.254 -0.1643 -1.8052 -0.2230
 1078TIP3   OH224792   5.165   0.006   8.609 -0.5752 -0.9688  0.0721
 1078TIP3    H124793   5.129  -0.082   8.614 -0.1702 -1.1684 -0.4426
 1078TIP3    H224794   5.243  -0.002   8.554 -0.8996 -0.1673 -0.5273
 1079TIP3   OH224795   0.684   4.246   0.363  0.1982  0.3441 -0.6291
 1079TIP3    H124796   0.715   4.333   0.339 -0.2067  0.9155  0.8075
 1079TIP3    H224797   0.648   4.210   0.282  0.6362  1.3979 -1.3060
 1080TIP3   OH224798   0.747   1.752   4.114  0.4942  0.1911 -0.2442
 1080TIP3    H124799   0.707   1.666   4.105  2.0920 -0.7359  1.0140
 1080TIP3    H224800   0.811   1.757   4.044  1.7047 -0.4516  0.7741
 1081TIP3   OH224801   4.500   2.220   0.001  0.2256  0.3793  0.1876
 1081TIP3    H124802   4.463   2.192  -0.083 -0.2781 -1.4307  0.9744
 1081TIP3    H224803   4.485   2.314   0.003 -1.6030  0.1497 -0.8683
 1082TIP3   OH224804   1.331   0.745   1.185 -1.0521 -0.1825  0.2153
 1082TIP3    H124805   1.284   0.789   1.255  0.1654  0.0070  0.9380
 1082TIP3    H224806   1.424   0.762   1.204 -0.5476 -2.7190  0.3090
 1083TIP3   OH224807   3.656   4.374   8.361  0.4972  0.4945  0.2901
 1083TIP3    H124808   3.687   4.446   8.415  0.9291  1.1491 -0.7964
 1083TIP3    H224809   3.735   4.322   8.343  1.2088  2.4080 -2.8539
 1084TIP3   OH224810   0.976   2.972   2.831 -0.0949 -0.0821 -0.6068
 1084TIP3    H124811   0.911   2.939   2.893 -0.1242  0.6765 -0.2331
 1084TIP3    H224812   1.043   2.903   2.828 -0.2407 -0.2564  0.0274
 1085TIP3   OH224813   6.351   1.824   8.526  0.2695  0.0236 -0.1805
 1085TIP3    H124814   6.290   1.858   8.460 -1.2556 -0.7430  0.7698
 1085TIP3    H224815   6.425   1.885   8.525 -0.0577  0.4427 -2.0605
 1086TIP3   OH224816   3.278   3.380   3.393 -0.2248 -0.1424  0.0241
 1086TIP3    H124817   3.222   3.446   3.353  2.0284  1.3288 -0.9072
 1086TIP3    H224818   3.336   3.429   3.450  2.1408 -1.1124 -1.3948
 1087TIP3   OH224819   6.113   2.188   4.147 -0.2407  0.2376  0.0476
 1087TIP3    H124820   6.120   2.215   4.239  0.6630  0.5337 -0.0943
 1087TIP3    H224821   6.028   2.146   4.141  0.5480 -1.7140  1.5281
 1088TIP3   OH224822   2.551   0.188   0.041 -0.1525 -0.2056  0.4340
 1088TIP3    H124823   2.488   0.238  -0.011 -0.4763  1.3951  2.2793
 1088TIP3    H224824   2.634   0.197  -0.006 -0.8745 -0.8259 -1.0469
 1089TIP3   OH224825   1.549   0.572   0.836  0.1218 -0.3350  0.3761
 1089TIP3    H124826   1.562   0.629   0.912 -0.8136 -0.5611  0.7277
 1089TIP3    H224827   1.595   0.616   0.765 -1.1782  1.2705  0.4484
 1090TIP3   OH224828   0.110   1.717   0.602 -0.0395 -0.3880 -0.5885
 1090TIP3    H124829   0.141   1.796   0.557  0.3390 -0.5732 -0.6518
 1090TIP3    H224830   0.143   1.726   0.692 -0.3966 -0.2463 -0.4700
 1091TIP3   OH224831   3.900   3.242   7.769 -0.1012  0.9649 -0.1599
 1091TIP3    H124832   3.889   3.150   7.745 -0.5021  1.4620 -2.0427
 1091TIP3    H224833   3.811   3.274   7.784  0.0518  1.0205  0.7162
 1092TIP3   OH224834   3.801   6.173   1.100  0.0439 -0.4139 -0.4859
 1092TIP3    H124835   3.886   6.130   1.093  0.5994  0.5842  0.0555
 1092TIP3    H224836   3.766   6.145   1.184 -0.2692 -0.9801 -0.7933
 1093TIP3   OH224837   6.179   3.405   1.937 -0.0467  1.3072  0.7804
 1093TIP3    H124838   6.162   3.315   1.965 -0.1842  1.4032  1.0169
 1093TIP3    H224839   6.271   3.406   1.912 -0.4831  0.6429 -1.0151
 1094TIP3   OH224840   4.881   1.905   1.771 -0.4631  0.5165 -0.6128
 1094TIP3    H124841   4.971   1.928   1.797 -0.6179 -0.6053  1.0472
 1094TIP3    H224842   4.858   1.970   1.705  1.4144  1.0965 -0.7542
 1095TIP3   OH224843   2.309   4.711   1.422  0.2008  0.3691  0.3058
 1095TIP3    H124844   2.313   4.619   1.395  0.1141  0.2504  0.6880
 1095TIP3    H224845   2.247   4.751   1.360  1.3187  0.5074 -0.7704
 1096TIP3   OH224846   3.536   5.412   8.630  0.2339  0.1083  0.0696
 1096TIP3    H124847   3.588   5.436   8.553  0.0596 -0.9949 -0.4108
 1096TIP3    H224848   3.449   5.394   8.595 -0.1872  0.8300  0.7153
 1097TIP3   OH224849   1.355   1.361   1.143  0.1981 -0.5290  0.2398
 1097TIP3    H124850   1.385   1.409   1.220  1.1356 -1.8679  0.7518
 1097TIP3    H224851   1.400   1.402   1.069  0.3260 -0.0794  0.5679
 1098TIP3   OH224852   1.759   4.820   3.741 -0.3959  0.0215  0.3147
 1098TIP3    H124853   1.823   4.891   3.733 -0.9566  0.3374 -2.3991
 1098TIP3    H224854   1.676   4.864   3.760 -0.4009 -0.0836  0.5387
 1099TIP3   OH224855   6.524   0.414   3.215  0.4425  0.8540  0.0302
 1099TIP3    H124856   6.457   0.412   3.147  0.3987 -0.3240  0.0867
 1099TIP3    H224857   6.603   0.380   3.172  1.0256  2.2241 -0.0358
 1100TIP3   OH224858   2.175   0.636   4.067 -0.1975 -0.0242  0.0090
 1100TIP3    H124859   2.242   0.568   4.060 -0.8227 -0.7546  0.9113
 1100TIP3    H224860   2.100   0.592   4.108 -0.8799  1.0282 -0.0695
 1101TIP3   OH224861   0.533   3.930   3.916  0.5393 -0.0147 -0.6050
 1101TIP3    H124862   0.497   4.014   3.889 -1.3948  0.0882  1.9153
 1101TIP3    H224863   0.479   3.865   3.872 -0.5047  0.1351  0.4010
 1102TIP3   OH224864   5.014   0.382   0.852  0.5534 -0.1553  0.0435
 1102TIP3    H124865   5.044   0.291   0.860 -0.0646 -0.4023 -0.3023
 1102TIP3    H224866   5.081   0.434   0.895  2.0139 -0.5778 -1.6124
 1103TIP3   OH224867   2.928   2.977   0.668 -0.1879  0.4999  0.4932
 1103TIP3    H124868   2.927   3.073   0.676  0.5910  0.7825 -1.9028
 1103TIP3    H224869   2.837   2.954   0.653 -0.2771  0.9598  0.2936
 1104TIP3   OH224870   2.634   4.158   0.672 -0.3427  0.0231  0.3417
 1104TIP3    H124871   2.723   4.139   0.644  0.3136  0.1473  2.1615
 1104TIP3    H224872   2.612   4.085   0.731 -1.9215 -0.6343 -0.9752
 1105TIP3   OH224873   1.833   5.558   3.633 -0.0255 -0.1499  0.3599
 1105TIP3    H124874   1.863   5.508   3.708 -1.3743 -2.0729 -0.3141
 1105TIP3    H224875   1.738   5.555   3.638 -0.1381  0.5434 -0.8959
 1106TIP3   OH224876   5.593   1.958   3.147 -0.4771  0.5805  0.0428
 1106TIP3    H124877   5.673   2.006   3.170 -1.0426  1.4843  0.1907
 1106TIP3    H224878   5.590   1.885   3.209  0.5895  0.1098 -0.4189
 1107TIP3   OH224879   5.686   3.240   1.034  0.1163  0.0067 -0.9873
 1107TIP3    H124880   5.658   3.313   0.978  0.0030  0.2228 -0.6503
 1107TIP3    H224881   5.766   3.208   0.992  0.5619  0.7803 -0.7452
 1108TIP3   OH224882   1.616   6.694   0.150 -0.6749 -0.5022  0.4036
 1108TIP3    H124883   1.634   6.776   0.195  0.7494 -0.5752  0.0156
 1108TIP3    H224884   1.619   6.717   0.057  1.2439 -1.2309  0.2353
 1109TIP3   OH224885   2.435   2.802   8.624 -0.2644  0.0857 -0.4373
 1109TIP3    H124886   2.365   2.836   8.680  0.4837  0.5384  0.2486
 1109TIP3    H224887   2.410   2.828   8.536 -1.4485 -0.6126 -0.3212
 1110TIP3   OH224888   4.311   0.472   2.641 -0.2182 -0.0135 -0.3654
 1110TIP3    H124889   4.401   0.446   2.661 -0.4936 -0.1740  0.6949
 1110TIP3    H224890   4.320   0.558   2.599  0.3954  0.2929  0.3617
 1111TIP3   OH224891   4.796   2.008   2.834  0.9632 -0.6513  0.5728
 1111TIP3    H124892   4.840   1.954   2.901  1.2426 -1.1295  0.0090
 1111TIP3    H224893   4.722   1.955   2.805  0.5002 -0.1995  0.9067
 1112TIP3   OH224894   6.084   4.999   2.101  0.5932  0.3764  0.3757
 1112TIP3    H124895   6.023   5.059   2.142 -2.0082 -0.9077 -1.3388
 1112TIP3    H224896   6.115   4.944   2.173 -0.7393  0.6930  1.2251
 1113TIP3   OH224897   6.170   1.260   2.703 -0.0098  0.1762 -0.6420
 1113TIP3    H124898   6.082   1.230   2.725 -0.0703  1.4347  1.0352
 1113TIP3    H224899   6.223   1.240   2.780  0.9095  0.4924 -1.1661
 1114TIP3   OH224900   6.279   3.659   1.680  0.1866  1.0112 -1.0929
 1114TIP3    H124901   6.209   3.644   1.617  0.1781  0.7571 -1.0261
 1114TIP3    H224902   6.353   3.691   1.628  1.7734 -3.4355 -2.0391
 1115TIP3   OH224903   4.743   2.361   1.648  0.2583  0.4617  0.4555
 1115TIP3    H124904   4.793   2.306   1.707 -0.6874  1.4990  2.3193
 1115TIP3    H224905   4.651   2.344   1.671 -0.4128 -1.3394 -2.7917
 1116TIP3   OH224906   1.042   0.603   2.573  0.2103  0.2890 -0.6683
 1116TIP3    H124907   0.971   0.657   2.607 -0.4424 -0.3816 -0.9255
 1116TIP3    H224908   1.107   0.665   2.539 -0.5781  0.9025 -1.0767
 1117TIP3   OH224909   6.238   6.391   0.685  0.1538 -0.9870  0.4655
 1117TIP3    H124910   6.267   6.381   0.775  0.6001  1.0540  0.5883
 1117TIP3    H224911   6.309   6.438   0.641 -1.4798  1.1600 -0.0490
 1118TIP3   OH224912   3.457   4.323   7.913  0.0511  0.2787  0.0268
 1118TIP3    H124913   3.439   4.242   7.961 -2.3543  2.3155  2.8933
 1118TIP3    H224914   3.431   4.303   7.823 -1.0001 -1.9654  0.7614
 1119TIP3   OH224915   0.345   4.928   1.025 -0.0390 -0.9868 -0.2301
 1119TIP3    H124916   0.298   5.008   1.000  1.7283 -0.0174 -0.5756
 1119TIP3    H224917   0.357   4.936   1.119 -2.0368 -2.0988  0.1841
 1120TIP3   OH224918   3.596   1.611   3.691  0.3735  0.0256 -0.4010
 1120TIP3    H124919   3.551   1.599   3.775  0.7645 -2.2301 -0.4546
 1120TIP3    H224920   3.625   1.703   3.692 -2.1607  0.9145  0.6163
 1121TIP3   OH224921   6.434   6.810   2.086 -0.4011  0.1392 -0.4703
 1121TIP3    H124922   6.505   6.754   2.053 -1.2836 -1.7402  0.6455
 1121TIP3    H224923   6.365   6.801   2.020  0.5725  2.5637 -1.9437
 1122TIP3   OH224924   1.580   5.008   2.340  0.3280  0.6337  0.4167
 1122TIP3    H124925   1.579   5.004   2.436  0.3991 -0.4923  0.3830
 1122TIP3    H224926   1.596   4.918   2.313  3.2003  1.3724 -0.6444
 1123TIP3   OH224927   6.355   0.787   3.538 -0.0660  0.2999  0.1671
 1123TIP3    H124928   6.318   0.699   3.536  0.2748  0.1506  0.5641
 1123TIP3    H224929   6.281   0.844   3.513 -0.1476 -0.1368 -0.6260
 1124TIP3   OH224930   5.203   5.377   3.586  0.5926 -0.6313 -0.4177
 1124TIP3    H124931   5.186   5.322   3.663  2.3726  1.9398  1.9757
 1124TIP3    H224932   5.289   5.348   3.555  0.6533 -0.4984 -0.3717
 1125TIP3   OH224933   6.575   4.296   3.360  0.7773 -0.3794  0.6028
 1125TIP3    H124934   6.607   4.252   3.282 -3.2306 -2.0429 -0.3342
 1125TIP3    H224935   6.578   4.389   3.338  2.7474 -0.5987 -0.1860
 1126TIP3   OH224936   5.621   3.976   1.337  0.2668  0.3324 -0.0251
 1126TIP3    H124937   5.641   3.944   1.249  0.6258  0.0606  0.1574
 1126TIP3    H224938   5.681   3.929   1.395 -1.5832 -1.3308  0.6611
 1127TIP3   OH224939   5.740   5.416   0.076  0.5392  0.2472  0.0928
 1127TIP3    H124940   5.727   5.454  -0.010 -0.3431 -0.8842 -0.2961
 1127TIP3    H224941   5.756   5.491   0.134  0.7551  1.0378 -0.9770
 1128TIP3   OH224942   5.914   6.520   0.415  0.1143 -0.1564  0.0026
 1128TIP3    H124943   5.818   6.525   0.415  0.0715 -0.5278 -1.2971
 1128TIP3    H224944   5.934   6.429   0.435  0.2952  0.3452  2.4290
 1129TIP3   OH224945   2.911   5.700   2.215  0.5787  0.2238 -0.1227
 1129TIP3    H124946   2.891   5.704   2.122  0.3918  0.4727 -0.0741
 1129TIP3    H224947   2.945   5.612   2.229 -1.7173 -0.7203  0.0402
 1130TIP3   OH224948   2.109   4.590   2.630 -0.1427  0.3450  0.0790
 1130TIP3    H124949   2.133   4.673   2.589 -1.0135  1.7749  2.2435
 1130TIP3    H224950   2.056   4.545   2.565  0.1043  1.6189 -1.0475
 1131TIP3   OH224951   0.619   2.728   3.020  0.5023  0.1313 -0.3793
 1131TIP3    H124952   0.643   2.699   3.109 -1.7722  0.4274  0.4054
 1131TIP3    H224953   0.676   2.678   2.963  1.1149 -1.1050  1.2187
 1132TIP3   OH224954   1.729   6.766   1.150 -0.0263  0.4658 -0.2341
 1132TIP3    H124955   1.808   6.786   1.200 -0.5217  0.9665  0.3642
 1132TIP3    H224956   1.676   6.845   1.155 -0.7479 -0.0017 -0.2756
 1133TIP3   OH224957   3.225   2.134   2.912 -0.0646  0.2652  0.0591
 1133TIP3    H124958   3.177   2.180   2.981 -0.3818 -0.6316  0.4515
 1133TIP3    H224959   3.176   2.053   2.898  1.1343 -0.5179  0.2225
 1134TIP3   OH224960   2.129   2.836   0.814  0.4254 -0.7094  0.9741
 1134TIP3    H124961   2.068   2.779   0.861 -0.3193 -1.7783 -1.1581
 1134TIP3    H224962   2.090   2.923   0.821 -0.6096 -1.1455  0.8593
 1135TIP3   OH224963   5.902   1.401   0.057 -0.0173  0.1251 -0.0178
 1135TIP3    H124964   5.834   1.449   0.106 -0.1370 -0.4972  0.4322
 1135TIP3    H224965   5.866   1.391  -0.031  0.4063  1.6973 -0.4043
 1136TIP3   OH224966   2.078   5.919   3.872  0.3163 -0.6451  0.6643
 1136TIP3    H124967   2.068   5.970   3.953 -0.1471 -1.0093  0.8380
 1136TIP3    H224968   2.132   5.975   3.816  0.4100 -0.2692  1.1201
 1137TIP3   OH224969   0.836   1.278   2.058 -0.1394  0.2400 -0.0171
 1137TIP3    H124970   0.833   1.182   2.062 -0.7980  0.2006 -1.0308
 1137TIP3    H224971   0.917   1.301   2.104  0.2639 -0.8265 -0.1510
 1138TIP3   OH224972   6.052   5.357   8.047  0.1416  0.2027  0.9702
 1138TIP3    H124973   6.086   5.268   8.036  1.1659  0.7995 -1.4795
 1138TIP3    H224974   5.967   5.356   8.003 -0.9854 -0.0964  3.0227
 1139TIP3   OH224975   5.319   6.269   7.902 -0.4686 -0.3158 -0.2099
 1139TIP3    H124976   5.372   6.251   7.980 -1.9222 -0.5594  0.7585
 1139TIP3    H224977   5.302   6.182   7.864 -0.9708 -0.3332  0.0427
 1140TIP3   OH224978   3.684   6.491   0.759  0.2465 -0.7891  0.1162
 1140TIP3    H124979   3.744   6.420   0.783 -0.5787 -1.7218 -0.5149
 1140TIP3    H224980   3.641   6.515   0.841  1.5529 -0.0089  0.6067
 1141TIP3   OH224981   4.013   0.626   0.205  0.0795  0.2417 -0.1504
 1141TIP3    H124982   4.020   0.710   0.249  1.6235  0.1100 -0.0765
 1141TIP3    H224983   4.094   0.618   0.154 -0.1908 -1.0443 -0.4383
 1142TIP3   OH224984   1.317   6.262   1.713  0.1365  0.0208 -0.1369
 1142TIP3    H124985   1.269   6.235   1.792  0.7113  1.1813  0.6391
 1142TIP3    H224986   1.389   6.315   1.746  1.0630 -0.4139 -1.3889
 1143TIP3   OH224987   2.343   5.749   1.085 -0.1616  0.0172 -0.2988
 1143TIP3    H124988   2.325   5.655   1.094  0.8911 -0.2944 -1.2273
 1143TIP3    H224989   2.438   5.754   1.078 -0.1835  1.2039  0.1143
 1144TIP3   OH224990   4.087   5.283   0.130  0.1336  0.6809 -0.0022
 1144TIP3    H124991   4.167   5.311   0.086  0.0891  0.9859  0.1158
 1144TIP3    H224992   4.017   5.301   0.066  0.0292  1.4340  0.3233
 1145TIP3   OH224993   3.321   4.523   0.015  0.3780  0.5968  0.0343
 1145TIP3    H124994   3.324   4.618   0.005 -1.2126  0.5387 -1.4894
 1145TIP3    H224995   3.356   4.507   0.103 -0.7787  2.7081  0.9486
 1146TIP3   OH224996   0.792   5.539   0.304  0.4331 -0.2274  0.1341
 1146TIP3    H124997   0.745   5.612   0.264  0.9189  0.6625  1.1502
 1146TIP3    H224998   0.838   5.498   0.231  0.7560  0.9547 -0.3529
 1147TIP3   OH224999   3.029   2.238   2.107 -0.2048 -0.1186  0.2881
 1147TIP3    H125000   3.090   2.262   2.177  1.0423  1.6689 -1.3065
 1147TIP3    H225001   2.983   2.161   2.141 -1.0164  1.7342  3.8051
 1148TIP3   OH225002   4.398   0.793   1.110  0.5282 -0.3783  0.8644
 1148TIP3    H125003   4.403   0.713   1.162  1.9167 -0.4253  0.6792
 1148TIP3    H225004   4.454   0.855   1.155  0.3257  0.1516  0.4024
 1149TIP3   OH225005   3.186   4.774   0.718  0.1051 -0.3062 -0.1683
 1149TIP3    H125006   3.238   4.698   0.745 -1.9882 -1.3132  1.3238
 1149TIP3    H225007   3.124   4.786   0.790 -0.8773  1.6394 -1.2828
 1150TIP3   OH225008   5.720   4.518   1.865 -0.2535  0.5586 -0.1638
 1150TIP3    H125009   5.666   4.494   1.789  0.9669 -1.1675 -0.5362
 1150TIP3    H225010   5.730   4.436   1.914  2.5517  0.6428 -0.4712
 1151TIP3   OH225011   4.400   2.431   2.190 -0.1960  0.1614  0.1190
 1151TIP3    H125012   4.332   2.367   2.168 -0.9573  1.4046 -1.2910
 1151TIP3    H225013   4.352   2.502   2.233  0.4532  0.3983  0.4616
 1152TIP3   OH225014   3.360   3.685   0.496  0.0218  0.2442  0.2941
 1152TIP3    H125015   3.340   3.737   0.575 -1.1355  0.0828  0.1206
 1152TIP3    H225016   3.448   3.713   0.472 -0.0677  1.1826  0.9614
 1153TIP3   OH225017   5.435   0.822   2.983 -0.3813 -0.0241  0.1972
 1153TIP3    H125018   5.386   0.886   2.931 -1.7901  0.8056  2.4067
 1153TIP3    H225019   5.461   0.755   2.920 -0.6306  1.6798 -1.8278
 1154TIP3   OH225020   3.526   1.394   8.633  0.0674 -0.2048  0.1945
 1154TIP3    H125021   3.470   1.464   8.599 -2.0704 -1.3088  1.2576
 1154TIP3    H225022   3.576   1.365   8.557 -1.8149 -0.0731 -1.1608
 1155TIP3   OH225023   2.570   4.700   3.334 -0.4320 -0.2423 -0.0129
 1155TIP3    H125024   2.655   4.727   3.368 -1.0572  0.9287  0.6963
 1155TIP3    H225025   2.574   4.719   3.240  0.3912 -1.0434 -0.1496
 1156TIP3   OH225026   6.229   6.351   3.692 -0.0584 -0.1105 -0.3230
 1156TIP3    H125027   6.214   6.431   3.744  2.1409  0.9257 -1.1528
 1156TIP3    H225028   6.161   6.354   3.625 -2.4391 -1.0440  1.8828
 1157TIP3   OH225029   6.737   0.939   3.316 -0.5454  0.3254  0.1929
 1157TIP3    H125030   6.754   0.998   3.242 -1.2876  2.0829  1.3631
 1157TIP3    H225031   6.777   0.983   3.391  0.2295 -1.4484  0.8830
 1158TIP3   OH225032   2.264   6.562   0.241 -0.3670  0.2829  0.1330
 1158TIP3    H125033   2.253   6.478   0.196 -1.2773 -0.2945  1.3839
 1158TIP3    H225034   2.332   6.545   0.306  2.2240  1.5790 -2.0253
 1159TIP3   OH225035   5.731   2.098   0.493 -0.1927  0.2444  0.3962
 1159TIP3    H125036   5.792   2.101   0.420  2.6767  1.0658  2.6389
 1159TIP3    H225037   5.693   2.186   0.496 -0.8117  0.0175 -0.4362
 1160TIP3   OH225038   3.916   2.320   0.546  0.2017 -0.4835  0.2102
 1160TIP3    H125039   3.890   2.343   0.635  1.2526 -0.2648  0.4703
 1160TIP3    H225040   3.898   2.398   0.495 -0.6643 -0.7001  0.1593
 1161TIP3   OH225041   4.325   3.620   3.581  0.6643  0.4287  0.6704
 1161TIP3    H125042   4.357   3.706   3.610  1.3028  0.8761 -1.2222
 1161TIP3    H225043   4.236   3.614   3.615 -0.2934  2.9199 -1.1204
 1162TIP3   OH225044   1.353   4.006   8.249  0.3141 -0.6863 -0.2149
 1162TIP3    H125045   1.335   3.956   8.169  0.7764  0.2164 -0.8987
 1162TIP3    H225046   1.379   3.939   8.313 -1.3760 -1.5619 -0.4025
 1163TIP3   OH225047   4.479   4.651   1.459  0.0498 -0.1996  0.0951
 1163TIP3    H125048   4.399   4.629   1.507  0.1356 -0.6341  0.0350
 1163TIP3    H225049   4.550   4.635   1.521  0.2122 -1.3870 -0.3714
 1164TIP3   OH225050   4.612   5.342   2.328  0.5193  0.2847 -0.5832
 1164TIP3    H125051   4.624   5.252   2.297  1.2633  0.9536 -2.3436
 1164TIP3    H225052   4.517   5.352   2.334  0.4274 -0.5779 -0.5097
 1165TIP3   OH225053   4.106   0.223   1.019  0.7514  0.5427  0.2570
 1165TIP3    H125054   4.124   0.159   1.088 -0.5020 -0.8618 -0.6722
 1165TIP3    H225055   4.156   0.301   1.045  0.7606 -0.1309  2.4366
 1166TIP3   OH225056   1.179   1.683   2.281  0.6314  0.1632  0.0295
 1166TIP3    H125057   1.269   1.653   2.274  0.2003 -1.2135  0.1129
 1166TIP3    H225058   1.184   1.763   2.333  1.6816 -0.5292  1.0164
 1167TIP3   OH225059   0.846   6.092   3.112 -0.1855 -0.2291  0.1681
 1167TIP3    H125060   0.928   6.134   3.085  0.7098 -1.5066  0.7370
 1167TIP3    H225061   0.797   6.079   3.031 -0.7331  2.2753  0.0158
 1168TIP3   OH225062   3.564   4.998   2.450  0.8068 -0.3625 -0.3222
 1168TIP3    H125063   3.538   4.926   2.392  2.6485 -0.2551 -1.3806
 1168TIP3    H225064   3.655   5.015   2.426  1.2019  0.6157  1.6969
 1169TIP3   OH225065   6.672   0.362   1.812 -0.2081 -0.3964 -0.4806
 1169TIP3    H125066   6.665   0.284   1.757  0.3509  0.0434 -1.1977
 1169TIP3    H225067   6.687   0.433   1.750 -0.3490  0.2254  0.1951
 1170TIP3   OH225068   2.791   1.906   3.659  0.0159  0.5052 -0.3915
 1170TIP3    H125069   2.785   1.935   3.750 -2.0713  0.2223 -0.4060
 1170TIP3    H225070   2.790   1.811   3.664  0.1531  0.4861 -0.7062
 1171TIP3   OH225071   3.472   1.660   3.024 -0.2195 -0.1661  0.3750
 1171TIP3    H125072   3.558   1.618   3.023  0.1074  0.4636  1.0873
 1171TIP3    H225073   3.475   1.723   2.952 -0.0515 -0.0839  0.4538
 1172TIP3   OH225074   0.626   4.763   1.550 -0.2317  0.8767  0.1913
 1172TIP3    H125075   0.624   4.747   1.455  0.7349  1.4871  0.0544
 1172TIP3    H225076   0.704   4.816   1.563 -1.3592  2.3723  1.1046
 1173TIP3   OH225077   0.467   1.462   2.797 -0.0438  0.0465  0.3330
 1173TIP3    H125078   0.386   1.435   2.842  1.0930 -0.9994  1.8761
 1173TIP3    H225079   0.490   1.545   2.838 -0.3395  0.3653 -0.1363
 1174TIP3   OH225080   6.152   3.077   0.812 -0.3013  0.0301  0.2315
 1174TIP3    H125081   6.086   3.015   0.781 -0.1405 -1.3085  2.3833
 1174TIP3    H225082   6.233   3.050   0.770 -0.3847 -0.7652  0.5704
 1175TIP3   OH225083   0.136   3.872   0.699  0.1220 -0.1055 -0.2046
 1175TIP3    H125084   0.214   3.925   0.680 -0.6309  1.1279  0.0873
 1175TIP3    H225085   0.163   3.783   0.677  0.3736  0.7321 -4.0328
 1176TIP3   OH225086   1.251   3.621   1.350  0.4137 -0.2058 -0.1602
 1176TIP3    H125087   1.275   3.702   1.395 -0.5707 -0.7453  1.4228
 1176TIP3    H225088   1.335   3.583   1.324  0.8875  1.3825 -1.1065
 1177TIP3   OH225089   2.368   2.725   2.287  0.3513 -0.1608  0.3633
 1177TIP3    H125090   2.390   2.668   2.361 -1.1989  0.6129  1.4930
 1177TIP3    H225091   2.272   2.735   2.292  0.3509  0.8975 -1.0185
 1178TIP3   OH225092   1.557   6.744   8.650  0.1072  0.3723 -0.5947
 1178TIP3    H125093   1.463   6.760   8.650 -0.2447 -0.6822  3.3084
 1178TIP3    H225094   1.592   6.808   8.587 -2.9253  2.8199 -0.0488
 1179TIP3   OH225095   1.320   2.673   1.167  0.0514  0.0834  0.2115
 1179TIP3    H125096   1.409   2.681   1.132 -0.4036  1.4496 -0.7104
 1179TIP3    H225097   1.275   2.615   1.107 -0.3245  1.2858 -0.7047
 1180TIP3   OH225098   5.145   5.834   1.757  0.1903  0.4317  0.1936
 1180TIP3    H125099   5.079   5.903   1.763 -0.1069  0.1149  0.6617
 1180TIP3    H225100   5.095   5.753   1.761  0.3840  0.1537 -1.9372
 1181TIP3   OH225101   4.780   6.246   0.646  0.3806  0.4240 -0.0578
 1181TIP3    H125102   4.840   6.219   0.716  0.8225 -0.9166 -0.9235
 1181TIP3    H225103   4.794   6.183   0.576  0.3284  2.0497 -1.6011
 1182TIP3   OH225104   2.873   6.368   0.248 -0.3432  0.2950  0.2760
 1182TIP3    H125105   2.943   6.314   0.286 -0.8292 -1.6328 -1.3879
 1182TIP3    H225106   2.867   6.339   0.157 -1.7079  2.1198 -0.2785
 1183TIP3   OH225107   0.819   3.119   3.459 -0.1475  0.6663 -0.3717
 1183TIP3    H125108   0.831   3.183   3.530 -0.7439 -0.9445  1.2623
 1183TIP3    H225109   0.771   3.047   3.500  0.1574 -0.6682 -2.2432
 1184TIP3   OH225110   5.820   5.868   3.240  0.3516  0.5265  0.1124
 1184TIP3    H125111   5.907   5.863   3.280  0.4310 -0.7477 -0.1790
 1184TIP3    H225112   5.778   5.943   3.283  0.6947 -0.3271  2.0740
 1185TIP3   OH225113   3.695   3.053   2.301  0.3080 -0.0508  0.7031
 1185TIP3    H125114   3.704   3.003   2.382  0.3085  0.0186  0.7463
 1185TIP3    H225115   3.734   3.139   2.321 -1.1479  0.5339  1.1484
 1186TIP3   OH225116   5.033   2.562   0.662 -0.1662  0.2530 -0.2114
 1186TIP3    H125117   4.976   2.569   0.738  2.0841 -1.7591  1.8194
 1186TIP3    H225118   4.988   2.502   0.603 -0.4741 -0.7835  1.0503
 1187TIP3   OH225119   1.950   3.585   0.299  0.1805 -0.4940 -0.4568
 1187TIP3    H125120   1.963   3.645   0.225 -0.5110 -1.6545 -1.5635
 1187TIP3    H225121   1.855   3.576   0.305  0.2732 -1.3722 -0.2330
 1188TIP3   OH225122   4.222   4.145   1.362 -0.4195  0.1974 -0.1999
 1188TIP3    H125123   4.238   4.201   1.438 -0.7622 -0.1728  0.1473
 1188TIP3    H225124   4.283   4.072   1.373 -0.0782  0.4221 -0.5736
 1189TIP3   OH225125   2.871   2.119   1.738  0.2010  0.3067  0.5124
 1189TIP3    H125126   2.829   2.082   1.815 -0.4926  1.6647  0.8258
 1189TIP3    H225127   2.862   2.051   1.671  3.0228 -1.9671  2.1924
 1190TIP3   OH225128   3.405   0.211   7.925  0.1893 -0.5317  0.0983
 1190TIP3    H125129   3.341   0.282   7.931  1.3957  0.5479  0.6754
 1190TIP3    H225130   3.475   0.246   7.871  0.4460 -1.5820 -0.2636
 1191TIP3   OH225131   3.845   0.494   0.046  0.2867 -0.0247 -0.6014
 1191TIP3    H125132   3.780   0.561   0.067 -1.2624 -2.0601  1.7381
 1191TIP3    H225133   3.917   0.510   0.107 -0.0509 -0.4111 -0.0929
 1192TIP3   OH225134   0.567   2.707   0.215 -0.3972  0.3539 -0.2311
 1192TIP3    H125135   0.585   2.670   0.301  0.4519 -1.3158 -1.0665
 1192TIP3    H225136   0.484   2.667   0.188  1.2250 -2.2483 -1.7366
 1193TIP3   OH225137   5.641   3.888   0.351  0.3924 -0.0692 -0.3902
 1193TIP3    H125138   5.685   3.814   0.393  0.4645 -1.0177 -2.0204
 1193TIP3    H225139   5.548   3.865   0.354  0.2864  0.4295  0.2847
 1194TIP3   OH225140   2.882   2.600   0.026 -0.4216  0.2838 -0.7564
 1194TIP3    H125141   2.953   2.663   0.032  0.9361 -1.2862  1.1986
 1194TIP3    H225142   2.841   2.602   0.112 -1.5117 -0.2328 -1.2422
 1195TIP3   OH225143   2.730   1.911   2.633 -0.1843 -0.1642  0.2112
 1195TIP3    H125144   2.794   1.840   2.629 -0.9649 -0.8277 -1.0211
 1195TIP3    H225145   2.718   1.927   2.727  0.5527 -1.1572  0.4892
 1196TIP3   OH225146   0.147   2.119   3.125 -0.0420  0.1855  0.2960
 1196TIP3    H125147   0.067   2.171   3.118  0.9049  1.5514 -0.7988
 1196TIP3    H225148   0.208   2.159   3.063  1.0295 -1.7069  0.0449
 1197TIP3   OH225149   0.887   2.819   3.222  0.6164  0.2208 -0.4403
 1197TIP3    H125150   0.893   2.914   3.222  0.2611  0.2590  0.5616
 1197TIP3    H225151   0.800   2.800   3.255 -0.2050 -0.4507 -2.7838
 1198TIP3   OH225152   2.738   3.201   3.497 -0.2580  0.1147  0.1072
 1198TIP3    H125153   2.804   3.266   3.521  0.3154 -0.0716 -0.8932
 1198TIP3    H225154   2.716   3.222   3.406 -0.9752 -0.3339  0.1703
 1199TIP3   OH225155   6.705   2.659   3.999 -0.0724 -0.4898 -0.5412
 1199TIP3    H125156   6.621   2.688   3.962 -1.6621  1.2923  3.7815
 1199TIP3    H225157   6.681   2.587   4.057  1.2127  0.3786  1.1562
 1200TIP3   OH225158   5.943   2.384   1.116  0.2770 -1.0102 -0.3273
 1200TIP3    H125159   5.917   2.451   1.179 -1.2158 -0.3745 -1.5756
 1200TIP3    H225160   5.894   2.306   1.142  1.3681 -1.4214  0.6065
 1201TIP3   OH225161   0.977   2.270   4.185  0.4166 -0.0032  0.4554
 1201TIP3    H125162   1.008   2.271   4.275  1.2249  0.4958  0.1868
 1201TIP3    H225163   0.957   2.179   4.167  1.5623 -0.3201  0.7142
 1202TIP3   OH225164   6.438   4.650   2.425 -0.2781  0.4842 -0.2581
 1202TIP3    H125165   6.404   4.658   2.514 -0.7622 -1.0539 -0.2671
 1202TIP3    H225166   6.376   4.591   2.381  1.3420 -0.8582 -0.8434
 1203TIP3   OH225167   4.275   5.729   1.013  0.0929 -0.1064 -0.1842
 1203TIP3    H125168   4.265   5.704   0.921  0.1321 -1.8313  0.2441
 1203TIP3    H225169   4.364   5.764   1.018  0.8272 -1.7997 -0.4678
 1204TIP3   OH225170   0.310   4.824   3.338 -0.0698  0.2526  0.2966
 1204TIP3    H125171   0.380   4.862   3.392  1.9557 -0.7923 -1.4347
 1204TIP3    H225172   0.326   4.730   3.341 -0.1212  0.1358 -1.7633
 1205TIP3   OH225173   3.615   0.418   1.951  0.4938 -0.5672  0.0243
 1205TIP3    H125174   3.540   0.436   1.894 -0.0952 -1.4452  0.4985
 1205TIP3    H225175   3.675   0.367   1.896  1.0341  0.6343 -0.5402
 1206TIP3   OH225176   6.426   6.071   3.437 -1.0626 -0.1947  0.4540
 1206TIP3    H125177   6.423   6.149   3.493 -2.4819  0.1326 -0.0271
 1206TIP3    H225178   6.508   6.028   3.460 -1.4912  0.0427  2.6464
 1207TIP3   OH225179   2.519   2.382   1.905  0.2745 -0.1742 -0.4521
 1207TIP3    H125180   2.441   2.394   1.959  0.8029 -0.5609  0.4258
 1207TIP3    H225181   2.536   2.468   1.868 -0.3894 -0.0179 -0.4120
 1208TIP3   OH225182   0.403   4.065   3.406  0.0525 -0.1028  0.1372
 1208TIP3    H125183   0.403   4.030   3.317  0.4804 -2.5752  1.0310
 1208TIP3    H225184   0.322   4.030   3.444  0.9330 -0.8798  1.3388
 1209TIP3   OH225185   3.387   1.251   1.362  0.3249  0.2409 -0.1267
 1209TIP3    H125186   3.400   1.333   1.315 -1.4064  0.0534 -1.0001
 1209TIP3    H225187   3.387   1.276   1.455  0.4528  1.1035 -0.3558
 1210TIP3   OH225188   4.035   6.240   0.181  0.5805 -0.4425  0.6045
 1210TIP3    H125189   4.129   6.240   0.166  0.3952  0.1570 -0.7200
 1210TIP3    H225190   4.004   6.160   0.138  0.4475 -0.4209  0.6613
 1211TIP3   OH225191   0.417   1.885   8.087  0.4801 -0.3551  0.4628
 1211TIP3    H125192   0.454   1.912   8.002  2.3113 -0.8682  1.0425
 1211TIP3    H225193   0.457   1.945   8.150  0.1579 -0.8137  1.1170
 1212TIP3   OH225194   0.147   5.760   1.341  0.0983 -0.4634 -0.0104
 1212TIP3    H125195   0.076   5.712   1.383 -1.4942  1.8984  0.1877
 1212TIP3    H225196   0.199   5.795   1.413  0.7311 -1.1284 -0.1361
 1213TIP3   OH225197   1.686   1.210   1.797  0.2325 -0.3390  0.0499
 1213TIP3    H125198   1.652   1.211   1.886 -1.5901 -2.3254 -0.5518
 1213TIP3    H225199   1.630   1.271   1.749  0.8037  0.2346  0.0874
 1214TIP3   OH225200   0.234   0.012   1.479  0.3193 -0.6116 -0.1240
 1214TIP3    H125201   0.208   0.097   1.443  0.0628 -0.1893  1.0180
 1214TIP3    H225202   0.303   0.033   1.543  1.2550 -1.4093 -0.8492
 1215TIP3   OH225203   0.098   5.815   0.996 -0.4530  0.1354 -0.1748
 1215TIP3    H125204   0.144   5.791   0.915 -0.5645  0.4011 -0.3167
 1215TIP3    H225205   0.019   5.761   0.996  0.0842 -0.6625  0.2989
 1216TIP3   OH225206   2.001   5.205   0.291  0.2377  0.0000 -0.4465
 1216TIP3    H125207   2.045   5.288   0.274 -0.3464  0.2094 -0.9384
 1216TIP3    H225208   1.962   5.180   0.208 -0.7562 -0.0769  0.0266
 1217TIP3   OH225209   3.410   6.000   2.268 -0.3106 -0.2004 -0.5239
 1217TIP3    H125210   3.321   6.030   2.284 -0.2125 -0.0462 -0.2559
 1217TIP3    H225211   3.465   6.074   2.296 -0.0371 -0.8709  0.8159
 1218TIP3   OH225212   3.030   1.272   1.338 -0.6430  0.1993 -0.0350
 1218TIP3    H125213   2.990   1.339   1.392  0.6763  0.1225  1.0704
 1218TIP3    H225214   3.036   1.195   1.395 -1.1839 -0.5557 -0.9610
 1219TIP3   OH225215   0.402   2.466   2.889  0.1966  0.0490 -0.6398
 1219TIP3    H125216   0.342   2.497   2.821  0.0382  0.0973 -0.4760
 1219TIP3    H225217   0.390   2.527   2.961  0.1246 -0.2009 -0.4411
 1220TIP3   OH225218   4.081   5.943   1.039 -0.5934 -0.4256 -0.0437
 1220TIP3    H125219   4.145   5.871   1.032 -0.9407 -0.6811 -0.7108
 1220TIP3    H225220   4.003   5.902   1.077 -0.1353  0.0433  1.4402
 1221TIP3   OH225221   3.755   4.565   1.649  0.1323  0.7543  0.2761
 1221TIP3    H125222   3.753   4.491   1.587 -0.0417  1.5015 -0.6348
 1221TIP3    H225223   3.834   4.613   1.627 -0.0811  1.1888  0.4495
 1222TIP3   OH225224   0.324   1.656   7.678  0.0757  0.4066  0.6785
 1222TIP3    H125225   0.331   1.622   7.589  0.9463 -0.1011  0.9295
 1222TIP3    H225226   0.249   1.609   7.715  0.8768 -0.8203  0.8179
 1223TIP3   OH225227   4.373   6.665   0.682  0.0114 -0.3360  0.1987
 1223TIP3    H125228   4.339   6.748   0.648  2.2312  0.4572 -0.2626
 1223TIP3    H225229   4.310   6.600   0.653 -1.2201  1.0555 -0.3915
 1224TIP3   OH225230   1.034   1.424   2.177 -0.2846  0.7408  0.0781
 1224TIP3    H125231   1.112   1.480   2.176  0.5907 -0.4594 -0.1195
 1224TIP3    H225232   1.030   1.389   2.266 -1.0790  1.4208  0.3296
 1225TIP3   OH225233   4.591   4.406   8.575 -0.3820 -0.0666 -0.1986
 1225TIP3    H125234   4.616   4.444   8.659  0.6569 -0.3035 -0.3924
 1225TIP3    H225235   4.667   4.420   8.519 -2.1813  3.1372 -2.1804
 1226TIP3   OH225236   5.327   6.362   0.635 -0.1425 -0.0178 -0.5443
 1226TIP3    H125237   5.317   6.386   0.543  2.2543  0.3767 -0.7566
 1226TIP3    H225238   5.410   6.402   0.662 -0.7026 -0.2536  1.7591
 1227TIP3   OH225239   5.500   3.555   1.179 -0.4744  0.5636  0.4576
 1227TIP3    H125240   5.512   3.615   1.252 -0.3188  2.2618 -0.9075
 1227TIP3    H225241   5.585   3.511   1.170 -0.0689  1.3190  0.4790
 1228TIP3   OH225242   4.549   0.999   2.037 -0.1168  0.2860 -0.1008
 1228TIP3    H125243   4.615   0.953   2.089  0.1524  1.0517  0.2557
 1228TIP3    H225244   4.465   0.964   2.066  0.1396 -1.1506 -0.9917
 1229TIP3   OH225245   5.721   4.625   0.164  0.2544  0.1948 -0.3320
 1229TIP3    H125246   5.736   4.643   0.257 -0.7008 -1.5488  0.2048
 1229TIP3    H225247   5.764   4.541   0.149  1.6101  1.0990 -1.8561
 1230TIP3   OH225248   6.744   5.061   2.194 -0.3437  0.1494  0.1182
 1230TIP3    H125249   6.666   5.006   2.195  0.0463 -0.4259 -0.0514
 1230TIP3    H225250   6.816   5.001   2.216  0.0558  0.6544  0.2268
 1231TIP3   OH225251   0.866   6.686   0.431 -0.2453  0.4981 -0.8242
 1231TIP3    H125252   0.818   6.631   0.494  2.6606 -0.5416  0.6467
 1231TIP3    H225253   0.915   6.747   0.485  3.7866 -1.5752 -1.7525
 1232TIP3   OH225254   6.464   5.781   0.323 -0.8074  0.2251 -0.1637
 1232TIP3    H125255   6.406   5.720   0.278 -0.6489  0.6890 -1.0166
 1232TIP3    H225256   6.456   5.863   0.274  0.3738  0.3680 -0.1547
 1233TIP3   OH225257   2.622   3.447   2.357  0.1420  0.5341 -0.3741
 1233TIP3    H125258   2.710   3.452   2.393 -0.3367 -1.4586  1.2804
 1233TIP3    H225259   2.631   3.394   2.278  0.3669 -0.1807  0.1211
 1234TIP3   OH225260   1.836   0.252   3.160  0.0847  0.5879 -0.3053
 1234TIP3    H125261   1.749   0.252   3.200 -0.1625 -1.0546 -0.7500
 1234TIP3    H225262   1.819   0.255   3.066  0.5967  2.3112 -0.3698
 1235TIP3   OH225263   2.962   2.782   2.317 -0.2443 -0.4319 -0.9771
 1235TIP3    H125264   3.001   2.800   2.232 -1.0657  0.2289 -1.2303
 1235TIP3    H225265   2.993   2.852   2.373  2.8671 -2.5444  0.1867
 1236TIP3   OH225266   2.427   5.163   7.845  0.2168 -1.1106 -0.6965
 1236TIP3    H125267   2.348   5.165   7.899 -1.3921 -2.5015 -2.8453
 1236TIP3    H225268   2.462   5.251   7.852 -0.2571 -1.0420  2.0373
 1237TIP3   OH225269   3.941   3.242   2.817  0.2147 -0.4943 -0.2292
 1237TIP3    H125270   3.955   3.198   2.901 -0.3928 -1.9498 -0.8615
 1237TIP3    H225271   3.954   3.335   2.836  0.3742 -0.8278  1.4065
 1238TIP3   OH225272   4.394   0.934   7.767 -0.2515 -0.2744  0.1154
 1238TIP3    H125273   4.432   0.932   7.854  3.5163  0.7012 -1.2997
 1238TIP3    H225274   4.399   0.843   7.736 -0.6033 -0.4323  0.5198
 1239TIP3   OH225275   6.278   5.799   0.893 -0.5017  0.3429  0.1619
 1239TIP3    H125276   6.292   5.837   0.807 -0.4277 -0.1294 -0.0402
 1239TIP3    H225277   6.270   5.874   0.952 -0.9570  0.6797 -0.3168
 1240TIP3   OH225278   2.250   6.816   3.876  0.0869  0.0447  0.2467
 1240TIP3    H125279   2.161   6.837   3.905  0.4144  1.7639  0.1208
 1240TIP3    H225280   2.302   6.822   3.956  0.6071  2.4678 -0.1922
 1241TIP3   OH225281   2.772   0.913   1.376  0.3476  0.2872 -0.3229
 1241TIP3    H125282   2.770   0.947   1.286  0.7360  0.6393 -0.2005
 1241TIP3    H225283   2.688   0.868   1.386  0.5147 -0.1875 -1.0275
 1242TIP3   OH225284   6.800   0.441   2.222 -0.5368  0.1954  0.5025
 1242TIP3    H125285   6.731   0.390   2.180  0.4660 -0.8295  0.0430
 1242TIP3    H225286   6.778   0.532   2.203 -1.0551 -0.1705 -0.7238
 1243TIP3   OH225287   4.570   1.544   8.506  0.4924  0.1420  0.3333
 1243TIP3    H125288   4.576   1.589   8.422  0.3810  0.9191  0.7379
 1243TIP3    H225289   4.610   1.604   8.568  1.2461 -0.7400  0.7245
 1244TIP3   OH225290   4.805   4.755   0.786 -0.2244  0.1467  0.2900
 1244TIP3    H125291   4.879   4.719   0.736 -0.9194 -3.2906  1.4740
 1244TIP3    H225292   4.845   4.783   0.868  0.0379 -0.1102  0.2571
 1245TIP3   OH225293   1.403   0.397   2.118  0.2305  0.4704  0.5533
 1245TIP3    H125294   1.472   0.334   2.139  0.9938  0.9103 -0.5127
 1245TIP3    H225295   1.439   0.481   2.145  0.4390  0.7974 -0.6587
 1246TIP3   OH225296   1.716   0.329   0.450 -0.6185 -0.3433 -0.3119
 1246TIP3    H125297   1.788   0.393   0.449 -0.2544 -0.7402 -1.9547
 1246TIP3    H225298   1.684   0.331   0.540 -0.4016  1.9025 -0.2286
 1247TIP3   OH225299   4.718   2.687   2.323 -0.0358 -0.4920  0.4050
 1247TIP3    H125300   4.715   2.673   2.228  0.9646 -2.4171  0.6065
 1247TIP3    H225301   4.746   2.602   2.358 -0.3216  0.2153  2.4190
 1248TIP3   OH225302   1.779   4.108   0.114 -0.4188  0.2462  0.4646
 1248TIP3    H125303   1.700   4.129   0.064  0.3540 -1.8642 -1.8484
 1248TIP3    H225304   1.845   4.171   0.084 -0.4086  0.0520  0.0769
 1249TIP3   OH225305   1.604   0.161   0.877  0.0349  0.2497  0.7616
 1249TIP3    H125306   1.668   0.179   0.946 -0.1868  1.2603  0.7262
 1249TIP3    H225307   1.623   0.072   0.849  0.5532  0.0538  1.6792
 1250TIP3   OH225308   6.082   6.333   0.135  0.2371  0.2467 -0.2893
 1250TIP3    H125309   6.144   6.379   0.192  0.4205  0.2735 -0.5075
 1250TIP3    H225310   5.996   6.362   0.165  0.3064 -0.2352  0.3941
 1251TIP3   OH225311   0.428   3.133   2.977 -0.1476 -0.1114 -0.3913
 1251TIP3    H125312   0.453   3.187   2.902 -1.1126 -0.5081 -1.0342
 1251TIP3    H225313   0.375   3.191   3.032  0.6059  0.1957  0.0202
 1252TIP3   OH225314   3.287   3.453   8.752 -0.2152  0.2211  0.5001
 1252TIP3    H125315   3.374   3.493   8.755 -0.7326  1.5118 -0.8052
 1252TIP3    H225316   3.229   3.521   8.787 -0.8797 -0.0979  0.0173
 1253TIP3   OH225317   3.432   3.336   1.637 -0.1480 -1.0664  0.3409
 1253TIP3    H125318   3.406   3.425   1.663 -1.2812 -1.1497 -0.4210
 1253TIP3    H225319   3.379   3.278   1.692  1.0710 -1.3062  1.3092
 1254TIP3   OH225320   1.672   0.759   2.840 -0.1566 -0.2802  0.0133
 1254TIP3    H125321   1.651   0.729   2.752  0.0157 -1.5973  0.3961
 1254TIP3    H225322   1.745   0.819   2.829 -0.0167 -0.5817 -0.7237
 1255TIP3   OH225323   4.023   4.358   8.443  0.1214  0.5138  0.3366
 1255TIP3    H125324   3.968   4.301   8.389 -2.9391  1.9503  1.7097
 1255TIP3    H225325   4.088   4.393   8.383 -1.3722 -0.1482 -1.7695
 1256TIP3   OH225326   1.014   3.368   3.323  0.3472 -0.2121  0.2884
 1256TIP3    H125327   1.051   3.457   3.320 -0.5645  0.2157  1.1045
 1256TIP3    H225328   1.084   3.315   3.361  0.4494  0.4285  1.0414
 1257TIP3   OH225329   0.340   5.526   0.617 -0.0343 -0.3545 -0.7035
 1257TIP3    H125330   0.390   5.583   0.675 -1.0681 -1.3075  1.2331
 1257TIP3    H225331   0.256   5.571   0.606 -0.2970 -0.7694 -0.4200
 1258TIP3   OH225332   0.833   3.748   3.191 -0.7366  0.4975  0.1271
 1258TIP3    H125333   0.800   3.689   3.124 -0.7732 -0.9026  1.3090
 1258TIP3    H225334   0.763   3.811   3.205 -0.3792  1.3794 -1.7338
 1259TIP3   OH225335   3.205   1.207   2.027 -0.0483  0.3784 -0.1878
 1259TIP3    H125336   3.174   1.217   1.937  0.5679 -0.4625 -0.5182
 1259TIP3    H225337   3.195   1.113   2.045  1.5288  0.2066 -0.0521
 1260TIP3   OH225338   5.820   6.648   1.097  0.8212  0.6732 -0.4099
 1260TIP3    H125339   5.844   6.657   1.190 -0.0077 -1.8591  0.1142
 1260TIP3    H225340   5.725   6.660   1.096  0.5998 -0.9078 -0.6365
 1261TIP3   OH225341   1.170   3.850   7.795 -0.1122  0.1232  0.6945
 1261TIP3    H125342   1.261   3.877   7.813  0.7124 -2.9121  1.6732
 1261TIP3    H225343   1.118   3.897   7.860  0.9856  0.5567  1.2917
 1262TIP3   OH225344   2.127   5.409   8.448 -0.2923 -0.1156  0.4394
 1262TIP3    H125345   2.080   5.336   8.407 -0.3037  0.2048 -0.1399
 1262TIP3    H225346   2.158   5.375   8.531 -0.4781 -0.7179  0.2650
 1263TIP3   OH225347   6.739   0.345   0.127  0.4324  0.2328 -0.2925
 1263TIP3    H125348   6.681   0.388   0.064  0.4095  0.0151 -0.4232
 1263TIP3    H225349   6.792   0.285   0.074  1.9559  1.6245 -0.4219
 1264TIP3   OH225350   3.002   6.615   8.388 -0.1177 -0.0372 -0.0938
 1264TIP3    H125351   3.091   6.591   8.363  0.1748 -0.3589  1.2011
 1264TIP3    H225352   3.003   6.710   8.393  0.4363 -0.0773  0.8452
 1265TIP3   OH225353   2.428   1.066   1.650 -0.3366 -0.4079  0.1090
 1265TIP3    H125354   2.396   1.003   1.714  2.1307  0.0142  1.9109
 1265TIP3    H225355   2.523   1.055   1.651  0.0500  2.1698 -0.7698
 1266TIP3   OH225356   5.055   3.953   3.860 -0.5438 -0.0924  0.0034
 1266TIP3    H125357   4.984   4.015   3.850 -1.1374 -0.6816  0.4555
 1266TIP3    H225358   5.109   3.988   3.930 -0.5799  0.1759 -0.1025
 1267TIP3   OH225359   4.326   2.100   3.367  1.3553  0.0488 -0.0971
 1267TIP3    H125360   4.352   2.072   3.455 -1.0662 -0.9132  0.3758
 1267TIP3    H225361   4.359   2.190   3.360  1.6316  0.1329  1.7826
 1268TIP3   OH225362   4.792   4.022   0.603 -0.3668  0.4310  0.6373
 1268TIP3    H125363   4.875   3.976   0.613 -1.3427 -1.1472  2.5056
 1268TIP3    H225364   4.778   4.065   0.687 -1.3939  0.7265  0.3359
 1269TIP3   OH225365   0.034   5.187   8.602 -0.0010 -0.1934  0.0600
 1269TIP3    H125366   0.111   5.220   8.556 -0.0400 -0.1031  0.0590
 1269TIP3    H225367  -0.038   5.242   8.570  0.0260  0.0941  0.4859
 1270TIP3   OH225368   6.054   0.743   2.510 -0.5265  0.0054 -0.5115
 1270TIP3    H125369   6.049   0.650   2.490  0.5184 -0.9657  2.9496
 1270TIP3    H225370   6.107   0.747   2.590 -0.3251  3.6146 -0.6745
 1271TIP3   OH225371   5.579   5.473   2.597 -0.0335  0.1658  0.0484
 1271TIP3    H125372   5.519   5.491   2.669 -1.0319 -0.3041 -0.6419
 1271TIP3    H225373   5.664   5.508   2.626 -1.1413  3.1186  0.0408
 1272TIP3   OH225374   6.576   1.982   8.517  0.3052  0.4101  0.0610
 1272TIP3    H125375   6.628   1.978   8.597  0.9278  1.1777 -0.2946
 1272TIP3    H225376   6.640   1.992   8.447 -0.3219  1.9202 -0.3350
 1273TIP3   OH225377   5.776   2.166   1.159 -0.4064 -0.3503  0.1688
 1273TIP3    H125378   5.743   2.079   1.181 -2.3213 -0.1753 -1.7260
 1273TIP3    H225379   5.699   2.222   1.158  0.7766  1.4161  1.3051
 1274TIP3   OH225380   6.568   2.413   1.534  0.1072 -0.2253 -0.0074
 1274TIP3    H125381   6.600   2.377   1.617 -0.7064  1.5815  1.1529
 1274TIP3    H225382   6.643   2.461   1.498  0.1426 -0.0840  0.2526
 1275TIP3   OH225383   5.361   5.453   3.320  0.0942  0.0790 -0.6695
 1275TIP3    H125384   5.314   5.402   3.255 -0.8323  0.8972 -0.6677
 1275TIP3    H225385   5.400   5.388   3.379  0.0734 -0.6369 -1.4332
 1276TIP3   OH225386   1.852   6.688   3.672 -0.6399 -0.0291 -0.1255
 1276TIP3    H125387   1.934   6.735   3.656 -1.0073  0.9142  0.6495
 1276TIP3    H225388   1.810   6.685   3.586 -1.5824  3.0256  0.1008
 1277TIP3   OH225389   5.385   0.111   0.584 -0.1191  0.2837  0.6105
 1277TIP3    H125390   5.478   0.117   0.607 -0.2652 -1.0273  1.6304
 1277TIP3    H225391   5.376   0.026   0.542 -0.7416  0.7270 -0.1984
 1278TIP3   OH225392   3.600   3.796   0.377 -0.0118  0.1177  0.3044
 1278TIP3    H125393   3.689   3.828   0.387 -0.2380  0.5790  0.8912
 1278TIP3    H225394   3.556   3.863   0.323 -0.1946  0.2585  0.6250
 1279TIP3   OH225395   1.641   3.981   2.666  0.2966  0.0767  0.2081
 1279TIP3    H125396   1.619   4.073   2.654  1.0436  0.2953  0.4728
 1279TIP3    H225397   1.558   3.939   2.688 -0.2412  0.5018 -0.9269
 1280TIP3   OH225398   1.469   2.053   0.786 -0.4236 -0.1254  0.3361
 1280TIP3    H125399   1.515   2.091   0.712 -0.9061  0.3964  0.2994
 1280TIP3    H225400   1.491   2.110   0.860 -1.3881  0.4205  0.2198
 1281TIP3   OH225401   0.651   6.781   8.472  0.5147  0.2099  0.5567
 1281TIP3    H125402   0.674   6.873   8.483 -0.8040  0.7404 -0.7687
 1281TIP3    H225403   0.599   6.760   8.549  1.2051  0.4341  1.0899
 1282TIP3   OH225404   1.259   4.680   8.416  0.1927  0.0099  0.5938
 1282TIP3    H125405   1.164   4.672   8.413  0.3026 -2.8526  1.2169
 1282TIP3    H225406   1.286   4.677   8.324 -0.3060  0.4008  0.4354
 1283TIP3   OH225407   3.759   0.439   2.555  0.2045  0.4781 -0.4407
 1283TIP3    H125408   3.775   0.529   2.584 -0.5722 -0.1152  2.1469
 1283TIP3    H225409   3.670   0.439   2.520 -0.4002  0.4538  1.0317
 1284TIP3   OH225410   0.209   5.133   2.848  0.6009  0.0958  0.4065
 1284TIP3    H125411   0.190   5.201   2.913  0.1888  0.9674 -0.5940
 1284TIP3    H225412   0.243   5.060   2.899  2.8452  1.6981  1.3936
 1285TIP3   OH225413   1.909   5.147   1.237  0.6141 -0.3834 -0.5373
 1285TIP3    H125414   1.981   5.084   1.239  0.8122 -0.1639 -0.7821
 1285TIP3    H225415   1.944   5.224   1.283 -0.4693 -1.3321  2.1073
 1286TIP3   OH225416   3.590   5.394   0.773 -0.0839  0.1639  0.1201
 1286TIP3    H125417   3.666   5.337   0.765  0.8616  1.3714  0.0951
 1286TIP3    H225418   3.608   5.465   0.711 -1.1944  0.5159  0.1830
 1287TIP3   OH225419   2.989   4.784   0.926 -0.1785  0.2384 -0.7534
 1287TIP3    H125420   3.024   4.814   1.010 -0.5756  0.9734 -0.8347
 1287TIP3    H225421   2.935   4.708   0.948  0.1582  0.0968 -0.4145
 1288TIP3   OH225422   1.356   2.670   3.350  0.5050  0.2323  0.0531
 1288TIP3    H125423   1.320   2.724   3.280 -0.6912 -0.2506  0.2670
 1288TIP3    H225424   1.396   2.732   3.411 -0.0790  0.8004 -0.1346
 1289TIP3   OH225425   1.673   0.759   3.216 -0.0388 -0.0536  0.0510
 1289TIP3    H125426   1.747   0.798   3.264  1.5153 -0.5092 -1.8310
 1289TIP3    H225427   1.609   0.830   3.208  0.4052  0.5043  1.3006
 1290TIP3   OH225428   0.731   5.714   2.301  0.1983 -0.3461  0.7289
 1290TIP3    H125429   0.671   5.707   2.375 -0.2362  0.6438  0.4831
 1290TIP3    H225430   0.754   5.807   2.296 -0.1770 -0.2993 -0.6754
 1291TIP3   OH225431   3.866   1.708   2.433 -0.0699 -0.4437 -0.1895
 1291TIP3    H125432   3.824   1.793   2.417  0.4565  0.2148  1.6422
 1291TIP3    H225433   3.835   1.682   2.520  1.0002 -1.3533 -0.0556
 1292TIP3   OH225434   6.328   5.013   2.678 -0.0763  0.0912  0.8223
 1292TIP3    H125435   6.385   4.996   2.603 -1.5909 -2.2026  0.1085
 1292TIP3    H225436   6.365   5.092   2.718  2.2077  0.0065 -0.9129
 1293TIP3   OH225437   1.235   3.081   3.208 -0.2046 -0.4606  0.0497
 1293TIP3    H125438   1.208   3.149   3.147 -0.7167 -0.8299 -0.1462
 1293TIP3    H225439   1.230   3.123   3.294  1.3464  0.3140 -0.2108
 1294TIP3   OH225440   1.676   4.495   2.683  0.2848  0.6235 -0.0016
 1294TIP3    H125441   1.692   4.587   2.704 -1.5856  1.3465 -1.4583
 1294TIP3    H225442   1.662   4.495   2.588 -1.3012 -0.9134  0.2076
 1295TIP3   OH225443   6.312   5.893   3.266 -0.0417 -0.1418  0.2375
 1295TIP3    H125444   6.335   5.952   3.337  1.2565  0.7205 -0.8568
 1295TIP3    H225445   6.395   5.854   3.238 -0.4074  0.0576 -1.2397
 1296TIP3   OH225446   3.419   4.300   8.628 -0.1795 -0.0750 -0.1713
 1296TIP3    H125447   3.503   4.256   8.640 -1.0342 -1.2681  1.7449
 1296TIP3    H225448   3.407   4.353   8.707 -1.7566 -0.8695  0.1688
 1297TIP3   OH225449   5.181   3.040   2.978  0.3657  0.1674  0.1432
 1297TIP3    H125450   5.267   3.002   2.993  0.4723  0.7003  0.8805
 1297TIP3    H225451   5.123   2.994   3.039 -0.4209 -1.9800 -1.9971
 1298TIP3   OH225452   4.435   6.369   2.946 -0.4786  0.1021  0.7756
 1298TIP3    H125453   4.416   6.348   2.855 -0.7950 -0.5296  0.9822
 1298TIP3    H225454   4.437   6.465   2.949  0.1468  0.1189 -0.0158
 1299TIP3   OH225455   3.750   3.569   0.125 -0.4420  0.6285 -0.6906
 1299TIP3    H125456   3.814   3.510   0.083 -1.3115 -0.3432 -0.6841
 1299TIP3    H225457   3.676   3.571   0.065 -1.4560 -0.2970  0.4794
 1300TIP3   OH225458   6.664   5.250   0.896  0.0759  0.1861 -0.3718
 1300TIP3    H125459   6.575   5.216   0.888  0.1841 -0.4277  0.8852
 1300TIP3    H225460   6.669   5.317   0.828 -0.9563 -0.5669 -1.2375
 1301TIP3   OH225461   5.361   2.462   2.323  0.0481 -0.0567  0.1611
 1301TIP3    H125462   5.371   2.368   2.340  2.4846  0.5705  3.1000
 1301TIP3    H225463   5.355   2.501   2.410  1.3783  2.6957 -0.8901
 1302TIP3   OH225464   2.819   1.679   1.288  0.2234 -0.5297  0.1853
 1302TIP3    H125465   2.895   1.632   1.254  0.9937  0.2074  0.8535
 1302TIP3    H225466   2.855   1.753   1.335 -0.9517  0.4622 -0.3990
 1303TIP3   OH225467   5.059   5.289   2.484 -0.1103  0.8533  0.2054
 1303TIP3    H125468   4.998   5.263   2.552 -0.3673  0.1382 -0.2765
 1303TIP3    H225469   5.016   5.361   2.438  0.6420  2.2545  1.6104
 1304TIP3   OH225470   6.601   6.343   2.407 -0.1336  0.3328 -0.2987
 1304TIP3    H125471   6.533   6.285   2.440  1.8224 -1.9919 -0.0746
 1304TIP3    H225472   6.672   6.337   2.471 -0.0414  3.5898  0.1024
 1305TIP3   OH225473   5.456   3.110   2.304  0.0438  0.1058  0.4123
 1305TIP3    H125474   5.522   3.053   2.344 -0.0684 -0.4815 -0.2282
 1305TIP3    H225475   5.495   3.197   2.304  0.9332 -0.2899 -0.2325
 1306TIP3   OH225476   0.532   5.749   1.150 -1.1129  0.4056  0.1816
 1306TIP3    H125477   0.579   5.666   1.140 -2.0816 -0.0054 -1.2926
 1306TIP3    H225478   0.601   5.816   1.150 -0.3923 -0.3235  0.1598
 1307TIP3   OH225479   2.495   5.480   8.654 -0.0949  0.0417  0.5511
 1307TIP3    H125480   2.499   5.541   8.580  0.8557  0.3484  0.8355
 1307TIP3    H225481   2.444   5.527   8.721 -1.3398 -0.4161 -0.0513
 1308TIP3   OH225482   1.550   5.049   0.265  0.1342  0.1231 -0.8156
 1308TIP3    H125483   1.474   4.992   0.275  0.2998 -0.0350 -0.3930
 1308TIP3    H225484   1.580   5.035   0.175 -0.3907  0.2622 -1.0145
 1309TIP3   OH225485   5.702   5.880   2.337 -0.0873  0.3885 -0.3961
 1309TIP3    H125486   5.691   5.839   2.251 -1.1619  0.5765 -0.3600
 1309TIP3    H225487   5.705   5.974   2.318  0.3644  0.3990 -0.2866
 1310TIP3   OH225488   0.712   1.906   2.565  0.3840 -0.2344  0.1542
 1310TIP3    H125489   0.662   1.958   2.627  0.7827  1.7426 -1.0822
 1310TIP3    H225490   0.780   1.864   2.618 -0.0209  0.4199  1.2165
 1311TIP3   OH225491   6.336   6.605   7.957  0.1622 -0.4358  0.0067
 1311TIP3    H125492   6.247   6.582   7.930 -0.4019  0.0592  1.3471
 1311TIP3    H225493   6.362   6.533   8.016 -0.9327  1.2915  2.8051
 1312TIP3   OH225494   2.439   4.463   4.015  0.2563 -0.3970  0.1657
 1312TIP3    H125495   2.385   4.535   4.050 -0.1600 -0.0632 -1.1086
 1312TIP3    H225496   2.523   4.504   3.996  1.1859 -1.0173  2.5865
 1313TIP3   OH225497   0.828   0.961   3.024  0.1167 -0.3743  0.1713
 1313TIP3    H125498   0.789   1.030   2.970  1.2850  0.2803  0.1240
 1313TIP3    H225499   0.755   0.926   3.075 -0.9301 -0.7321 -1.5121
 1314TIP3   OH225500   4.166   2.664   4.022 -0.4816  0.7083  0.3178
 1314TIP3    H125501   4.226   2.659   4.096 -2.3878 -0.1490  1.8780
 1314TIP3    H225502   4.223   2.679   3.946  1.5618  1.2286  1.8710
 1315TIP3   OH225503   3.429   3.937   1.561  0.0066 -0.1686 -0.3881
 1315TIP3    H125504   3.523   3.948   1.580 -0.0954  0.6791 -0.3193
 1315TIP3    H225505   3.410   4.003   1.495 -0.8855  0.8195  0.7946
 1316TIP3   OH225506   2.505   2.531   1.556  0.2707  0.2895  0.2175
 1316TIP3    H125507   2.427   2.533   1.611 -1.5392 -0.5516 -2.1598
 1316TIP3    H225508   2.542   2.444   1.571  0.2536  0.3579  0.6806
 1317TIP3   OH225509   6.110   3.912   0.004  0.1583  0.4124 -0.7206
 1317TIP3    H125510   6.029   3.861   0.008  0.0210  0.6875  0.6969
 1317TIP3    H225511   6.163   3.867  -0.061 -0.3161 -1.0110 -0.1674
 1318TIP3   OH225512   2.892   1.976   8.396 -0.4658 -0.0639 -0.1367
 1318TIP3    H125513   2.888   2.048   8.334 -0.0669 -0.2385 -0.3641
 1318TIP3    H225514   2.939   1.907   8.351 -0.8750 -0.4828  0.0698
 1319TIP3   OH225515   0.151   5.396   2.992 -0.0918  0.3371  0.6227
 1319TIP3    H125516   0.182   5.486   2.982  0.7245  0.0563  0.5129
 1319TIP3    H225517   0.128   5.388   3.084 -0.4222  0.7354  0.5762
 1320TIP3   OH225518   6.430   3.687   2.107 -0.0304  0.1596  0.0944
 1320TIP3    H125519   6.446   3.681   2.201 -0.3886 -0.9432  0.1042
 1320TIP3    H225520   6.469   3.607   2.071 -0.3837  0.2936 -0.6156
 1321TIP3   OH225521   5.639   4.280   2.541 -0.0693 -0.5133 -0.6266
 1321TIP3    H125522   5.630   4.298   2.634  0.5750  0.0469 -0.6635
 1321TIP3    H225523   5.581   4.343   2.498 -0.5956 -0.9724 -0.5923
 1322TIP3   OH225524   4.364   1.880   2.517 -1.0128  0.4480  0.2855
 1322TIP3    H125525   4.293   1.825   2.551 -1.8415  0.9331 -0.6320
 1322TIP3    H225526   4.388   1.839   2.434 -0.4629  0.4995  0.4144
 1323TIP3   OH225527   6.462   1.351   8.555  1.1403  0.0440 -0.1431
 1323TIP3    H125528   6.452   1.277   8.496  0.2763 -0.6197  0.7954
 1323TIP3    H225529   6.379   1.356   8.602  1.4271  1.2007  0.2839
 1324TIP3   OH225530   0.272   2.565   8.564 -0.0646  0.1399  0.2742
 1324TIP3    H125531   0.177   2.553   8.570 -0.4190  2.8047  1.7854
 1324TIP3    H225532   0.283   2.653   8.529  1.7832  0.6549  1.9451
 1325TIP3   OH225533   6.660   2.295   8.440 -0.3850  0.5293  0.1951
 1325TIP3    H125534   6.571   2.282   8.408 -1.6484  0.1677  3.4238
 1325TIP3    H225535   6.695   2.207   8.452 -0.4938  0.6000  1.1020
 1326TIP3   OH225536   2.795   2.221   0.404  0.0446  0.6083  0.0410
 1326TIP3    H125537   2.704   2.202   0.381  0.0701  0.1670  0.2950
 1326TIP3    H225538   2.790   2.257   0.492  0.3456 -2.1970  1.3245
 1327TIP3   OH225539   4.008   6.694   2.291 -0.4084  0.0805  0.3190
 1327TIP3    H125540   4.049   6.619   2.248 -1.1093 -0.0354 -0.1748
 1327TIP3    H225541   4.072   6.723   2.356  1.5158  1.4460 -2.0377
 1328TIP3   OH225542   6.798   0.055   0.851  0.5201  0.0672 -0.6045
 1328TIP3    H125543   6.818   0.139   0.891 -0.6385  0.5844 -1.0635
 1328TIP3    H225544   6.858   0.048   0.777  0.9644  0.2431 -0.2656
 1329TIP3   OH225545   5.528   1.837   2.107  0.1050  0.2147  0.2942
 1329TIP3    H125546   5.449   1.878   2.070  0.3159 -0.3687 -0.8582
 1329TIP3    H225547   5.531   1.751   2.066  0.3984 -0.4498  1.6673
 1330TIP3   OH225548   4.498   5.695   2.778 -0.0852 -0.2534  0.5491
 1330TIP3    H125549   4.475   5.760   2.845  4.0066  0.9439  1.0664
 1330TIP3    H225550   4.502   5.612   2.826 -0.9793 -0.1232  0.8777
 1331TIP3   OH225551   2.693   2.725   2.220  0.5758 -0.6443 -0.4838
 1331TIP3    H125552   2.688   2.816   2.251  1.9820 -0.4781 -0.6579
 1331TIP3    H225553   2.787   2.704   2.225  0.0706 -2.8324  1.6823
 1332TIP3   OH225554   6.167   4.071   2.554  0.0308  0.1851 -0.0255
 1332TIP3    H125555   6.183   4.163   2.574  0.8625  0.6780 -2.5892
 1332TIP3    H225556   6.074   4.066   2.533 -0.5246 -0.0643  2.2590
 1333TIP3   OH225557   5.633   5.785   0.506 -0.3831  0.1021  0.0963
 1333TIP3    H125558   5.629   5.811   0.414  0.9162 -0.8363 -0.2627
 1333TIP3    H225559   5.603   5.862   0.554  0.4701  1.1993 -1.0469
 1334TIP3   OH225560   2.169   3.853   2.459  0.5382 -0.2130 -0.8458
 1334TIP3    H125561   2.208   3.910   2.526  0.5686 -1.1134 -0.0775
 1334TIP3    H225562   2.132   3.914   2.395  0.1229  0.6936  0.2085
 1335TIP3   OH225563   0.662   1.795   1.713  0.1688  0.1977  0.0552
 1335TIP3    H125564   0.575   1.833   1.700  1.0641  1.8457 -1.5615
 1335TIP3    H225565   0.691   1.829   1.797 -0.4372  0.2858  0.2318
 1336TIP3   OH225566   1.952   0.860   2.135  0.0635  0.3390  0.3290
 1336TIP3    H125567   2.033   0.910   2.143  0.0911  0.7361 -1.7368
 1336TIP3    H225568   1.923   0.845   2.225  2.7841 -0.4524  1.1550
 1337TIP3   OH225569   2.792   3.521   1.084  0.6077  0.4810 -0.4663
 1337TIP3    H125570   2.711   3.569   1.064  1.1844  1.9851  0.6981
 1337TIP3    H225571   2.767   3.458   1.151  0.4135  0.9594 -0.0916
 1338TIP3   OH225572   5.403   1.472   1.280 -0.5295  0.4377  0.4264
 1338TIP3    H125573   5.481   1.452   1.332  0.5707 -1.0500 -1.6379
 1338TIP3    H225574   5.427   1.551   1.231 -0.9125  0.8525  0.9010
 1339TIP3   OH225575   1.189   3.396   1.606 -0.9487 -0.0682  0.3761
 1339TIP3    H125576   1.200   3.442   1.523 -0.1156  0.0808  0.5594
 1339TIP3    H225577   1.104   3.353   1.599 -1.0723  0.2891 -0.3834
 1340TIP3   OH225578   4.136   0.618   7.710  0.6432 -0.0160  0.4135
 1340TIP3    H125579   4.229   0.638   7.707  0.7288 -0.3191  0.8612
 1340TIP3    H225580   4.095   0.680   7.649  0.9338  1.3375  1.5347
 1341TIP3   OH225581   4.813   6.141   1.210  0.7276  0.3579  0.5191
 1341TIP3    H125582   4.864   6.176   1.282  0.3267  1.1826  0.4129
 1341TIP3    H225583   4.743   6.205   1.196 -1.0323 -1.2636  1.4043
 1342TIP3   OH225584   0.483   6.724   1.058  0.0152 -0.1835  0.0089
 1342TIP3    H125585   0.443   6.697   1.141 -0.9147  1.1601  0.0449
 1342TIP3    H225586   0.519   6.811   1.077  2.3806 -1.0272 -0.2358
 1343TIP3   OH225587   6.648   3.292   0.065 -0.5806  0.1285  0.1178
 1343TIP3    H125588   6.654   3.346  -0.013 -2.3143 -0.7372 -0.6689
 1343TIP3    H225589   6.714   3.328   0.124 -0.3794  1.8699 -1.0894
 1344TIP3   OH225590   5.996   6.308   2.099 -0.3876 -0.1787  0.1102
 1344TIP3    H125591   5.954   6.394   2.097 -0.9167 -0.4104  0.9826
 1344TIP3    H225592   5.929   6.247   2.068 -0.4112 -0.4366  0.6608
 1345TIP3   OH225593   5.068   6.471   2.529 -0.1384 -0.0333  0.2817
 1345TIP3    H125594   5.011   6.526   2.582 -0.1551 -0.5235  0.7760
 1345TIP3    H225595   5.139   6.446   2.588  0.1608 -0.0988 -0.0966
 1346TIP3   OH225596   1.132   5.541   0.744 -0.2813 -0.2879 -0.1305
 1346TIP3    H125597   1.213   5.514   0.701 -0.2431  0.6819 -0.7244
 1346TIP3    H225598   1.074   5.565   0.671 -1.4646 -1.8665  0.2281
 1347TIP3   OH225599   0.421   1.549   0.626 -0.4709 -0.3330 -0.1360
 1347TIP3    H125600   0.353   1.553   0.693  0.6311  0.0718  1.0103
 1347TIP3    H225601   0.459   1.462   0.635  0.3521  0.0682  0.4997
 1348TIP3   OH225602   6.661   3.776   2.677  0.1696 -0.6927  0.1518
 1348TIP3    H125603   6.710   3.845   2.632 -0.7701 -1.7390 -2.6314
 1348TIP3    H225604   6.569   3.800   2.666 -0.1110 -1.4829  0.6805
 1349TIP3   OH225605   6.755   4.464   8.593 -0.0273 -0.0163 -0.0986
 1349TIP3    H125606   6.678   4.478   8.538  0.8714  0.4578 -1.3043
 1349TIP3    H225607   6.740   4.380   8.636 -1.6894  0.5796  0.5468
 1350TIP3   OH225608   5.744   0.055   2.954 -0.1534  0.3790 -0.3663
 1350TIP3    H125609   5.688   0.045   3.031  1.2256  1.0375  0.7769
 1350TIP3    H225610   5.833   0.043   2.988  0.5368  1.4675 -1.7063
 1351TIP3   OH225611   2.579   2.987   0.390 -0.1777  0.3611 -0.3376
 1351TIP3    H125612   2.533   3.046   0.450  1.1065  1.6146 -0.5256
 1351TIP3    H225613   2.644   3.043   0.347 -0.1272 -0.8136 -1.8700
 1352TIP3   OH225614   4.969   0.442   8.078 -0.0462  0.3148 -0.4297
 1352TIP3    H125615   5.025   0.365   8.072 -1.6950 -0.8141 -3.6191
 1352TIP3    H225616   5.024   0.514   8.045 -0.0904 -0.5940 -2.6336
 1353TIP3   OH225617   4.636   5.797   8.390 -0.0665 -0.2617  0.0377
 1353TIP3    H125618   4.681   5.763   8.313 -0.6502  0.8934 -0.8522
 1353TIP3    H225619   4.564   5.736   8.406 -1.5711  0.8724 -1.9986
 1354TIP3   OH225620   4.289   6.432   0.452 -0.2931  0.1957 -0.3294
 1354TIP3    H125621   4.213   6.490   0.454 -0.6301 -0.2214  1.7631
 1354TIP3    H225622   4.280   6.378   0.531  1.6445 -0.5581 -0.5645
 1355TIP3   OH225623   3.329   0.337   0.358 -0.0496 -0.8031 -0.4396
 1355TIP3    H125624   3.294   0.417   0.397 -0.7414 -1.5697  0.5791
 1355TIP3    H225625   3.251   0.287   0.333  0.3754 -0.4924 -2.5557
 1356TIP3   OH225626   3.967   4.939   1.049  0.4548  0.1004 -0.0981
 1356TIP3    H125627   4.039   4.917   0.990  1.4988  0.9784  0.8086
 1356TIP3    H225628   3.902   4.871   1.034  0.6972  0.2618 -2.2250
 1357TIP3   OH225629   3.481   5.362   1.073  0.6596 -0.1080  0.1235
 1357TIP3    H125630   3.442   5.278   1.052  2.2199 -0.8489  0.0258
 1357TIP3    H225631   3.563   5.364   1.023  1.8542  0.3801  1.9817
 1358TIP3   OH225632   6.143   0.146   0.469  0.0998  0.4201  0.0027
 1358TIP3    H125633   6.143   0.061   0.425 -0.9764  0.5336 -0.2252
 1358TIP3    H225634   6.159   0.125   0.561 -1.3473 -0.1404  0.1416
 1359TIP3   OH225635   4.640   6.314   2.314 -0.0182 -0.4923 -0.0730
 1359TIP3    H125636   4.637   6.254   2.389 -0.5175 -0.3274  0.0412
 1359TIP3    H225637   4.720   6.365   2.328 -1.0262  0.8097  1.3571
 1360TIP3   OH225638   4.313   1.033   2.412  0.8996  0.3924  0.0288
 1360TIP3    H125639   4.399   0.998   2.435  0.1517  0.0288  2.5690
 1360TIP3    H225640   4.294   1.097   2.481 -0.7022  0.7704 -0.7145
 1361TIP3   OH225641   5.748   4.286   3.052  0.0757 -0.2479  0.1109
 1361TIP3    H125642   5.835   4.248   3.038 -0.6081 -1.5573 -0.7860
 1361TIP3    H225643   5.723   4.259   3.140  0.4362 -0.1519  0.2444
 1362TIP3   OH225644   1.118   6.469   1.443  0.1316 -0.7492 -0.5358
 1362TIP3    H125645   1.182   6.458   1.373  0.5846 -1.6090 -0.0125
 1362TIP3    H225646   1.169   6.503   1.517 -0.6401  1.8081 -1.0923
 1363TIP3   OH225647   6.053   3.950   1.448 -0.3210 -0.6664 -0.0909
 1363TIP3    H125648   6.080   3.911   1.531  3.1970  1.5937  0.0617
 1363TIP3    H225649   5.975   4.001   1.470  0.0027 -0.8359  1.6307
 1364TIP3   OH225650   1.030   3.898   0.265 -0.3322  0.3897  0.0312
 1364TIP3    H125651   0.995   3.905   0.177 -0.1971  0.4340 -0.0193
 1364TIP3    H225652   1.110   3.951   0.264 -0.0760  0.0066  0.0466
 1365TIP3   OH225653   1.503   0.126   2.991  0.3089 -0.3770  0.0899
 1365TIP3    H125654   1.502   0.031   2.985 -1.0471 -0.3773  0.1353
 1365TIP3    H225655   1.550   0.145   3.072  1.9553 -0.9416 -0.6867
 1366TIP3   OH225656   2.720   4.733   0.276 -0.3458 -0.1219 -0.3516
 1366TIP3    H125657   2.645   4.759   0.223 -0.0925  0.4980 -0.4035
 1366TIP3    H225658   2.726   4.800   0.344  0.9272  0.5213 -1.0857
 1367TIP3   OH225659   4.250   2.326   1.509  0.1356  0.0872 -0.3348
 1367TIP3    H125660   4.303   2.289   1.439 -2.2173 -1.6701 -1.2925
 1367TIP3    H225661   4.166   2.348   1.468 -0.9471 -0.0228  1.6902
 1368TIP3   OH225662   4.668   5.115   2.532  0.9706 -0.2287  0.1717
 1368TIP3    H125663   4.574   5.121   2.513  1.1581  0.2600 -0.6645
 1368TIP3    H225664   4.698   5.206   2.530  1.3770 -0.3387  0.9275
 1369TIP3   OH225665   0.339   1.333   3.141 -0.2800  0.1491 -0.2932
 1369TIP3    H125666   0.379   1.275   3.205 -1.3656 -1.7323 -1.2365
 1369TIP3    H225667   0.403   1.404   3.129  0.5401 -0.1766  1.7889
 1370TIP3   OH225668   4.480   2.334   1.710 -0.1033 -0.2310  0.4930
 1370TIP3    H125669   4.385   2.341   1.698 -0.0578 -2.0500 -1.7166
 1370TIP3    H225670   4.490   2.282   1.790 -1.0647 -1.2710 -0.0271
 1371TIP3   OH225671   5.893   1.094   1.742  0.0240  0.0165  0.1565
 1371TIP3    H125672   5.889   1.177   1.788 -0.6110  0.5195 -0.7697
 1371TIP3    H225673   5.802   1.075   1.720  0.3482  0.0335 -1.2822
 1372TIP3   OH225674   0.782   0.352   0.498 -0.1384 -0.2301 -0.4247
 1372TIP3    H125675   0.801   0.444   0.517 -0.3930 -0.0171 -1.1845
 1372TIP3    H225676   0.807   0.305   0.578  0.4820  0.4325 -0.2263
 1373TIP3   OH225677   1.819   0.552   2.510 -0.4014 -0.2154 -0.2992
 1373TIP3    H125678   1.847   0.526   2.598 -1.2029 -2.5363 -0.6654
 1373TIP3    H225679   1.855   0.486   2.452 -2.6310 -0.6475 -1.3129
 1374TIP3   OH225680   0.671   3.682   3.484  0.6120 -0.2058 -0.3308
 1374TIP3    H125681   0.700   3.599   3.447  0.1154  0.3639 -2.1164
 1374TIP3    H225682   0.743   3.743   3.468 -0.2704  0.4696 -2.0366
 1375TIP3   OH225683   4.360   1.979   3.625  0.2110  0.1344  0.3755
 1375TIP3    H125684   4.422   2.035   3.672  0.1744  0.6363 -0.1599
 1375TIP3    H225685   4.274   2.004   3.660 -0.0752  2.3041 -1.6708
 1376TIP3   OH225686   4.742   0.895   0.277  0.1433 -0.8467  0.7259
 1376TIP3    H125687   4.765   0.838   0.204 -0.5565 -1.0985  0.6954
 1376TIP3    H225688   4.660   0.860   0.310 -0.0523 -0.1415  1.0078
 1377TIP3   OH225689   0.504   0.412   2.270 -0.5476  0.0809 -0.4445
 1377TIP3    H125690   0.542   0.335   2.313  0.2106  0.5344 -0.2752
 1377TIP3    H225691   0.410   0.395   2.269 -0.8134  0.7000  2.8257
 1378TIP3   OH225692   3.047   0.426   1.937  0.1247  0.5451  0.0221
 1378TIP3    H125693   2.986   0.492   1.969 -0.4707  0.0720 -0.1231
 1378TIP3    H225694   2.994   0.347   1.925  0.9933 -0.2478  1.0995
 1379TIP3   OH225695   4.875   3.301   8.199 -0.0539 -0.1554 -0.5128
 1379TIP3    H125696   4.906   3.347   8.121  1.2033  1.5339  0.8864
 1379TIP3    H225697   4.791   3.344   8.220  0.0668  0.0436 -0.4276
 1380TIP3   OH225698   1.107   3.006   1.405  0.1967  0.1585 -0.0804
 1380TIP3    H125699   1.187   3.034   1.448 -0.0623  1.3648 -0.3539
 1380TIP3    H225700   1.107   2.910   1.414  1.2069  0.2177  0.6953
 1381TIP3   OH225701   1.554   3.380   2.319  0.2178 -0.4219 -0.6444
 1381TIP3    H125702   1.603   3.394   2.237 -1.9021  3.1086 -1.5057
 1381TIP3    H225703   1.606   3.424   2.386 -0.4048  1.0216 -1.0740
 1382TIP3   OH225704   6.488   4.162   3.565 -0.4303 -0.5269  0.5276
 1382TIP3    H125705   6.504   4.214   3.644 -1.9189 -1.8153  1.7526
 1382TIP3    H225706   6.514   4.219   3.493 -0.1355  1.1455  1.8874
 1383TIP3   OH225707   2.802   0.288   0.765  0.2862  0.0105  0.4202
 1383TIP3    H125708   2.854   0.230   0.710  1.6547 -0.1082  1.7760
 1383TIP3    H225709   2.712   0.256   0.756  0.8392 -1.5761  0.2179
 1384TIP3   OH225710   0.762   4.122   1.817 -0.2502  0.1355  0.3818
 1384TIP3    H125711   0.737   4.094   1.905 -0.0649  0.2268  0.4656
 1384TIP3    H225712   0.802   4.044   1.778 -1.3509 -0.2408 -0.0308
 1385TIP3   OH225713   3.944   3.359   1.186 -1.0221  0.2339 -0.1021
 1385TIP3    H125714   3.924   3.412   1.109  0.7287  0.3377 -0.5257
 1385TIP3    H225715   3.926   3.269   1.159  1.2172  0.0676 -1.2941
 1386TIP3   OH225716   3.667   5.262   1.288  0.0525 -0.5454  0.2815
 1386TIP3    H125717   3.662   5.253   1.193 -0.3588  0.3235  0.2083
 1386TIP3    H225718   3.731   5.332   1.302 -0.4830 -0.1091  0.6076
 1387TIP3   OH225719   0.495   3.085   8.144  0.3736  0.5207 -0.4615
 1387TIP3    H125720   0.464   3.097   8.234  1.3524  1.9871 -0.2786
 1387TIP3    H225721   0.529   3.171   8.119  1.7731 -0.3198 -1.5866
 1388TIP3   OH225722   1.049   0.763   8.636  0.0685 -0.0941 -0.5910
 1388TIP3    H125723   1.124   0.702   8.636 -0.1457 -0.3603 -0.6609
 1388TIP3    H225724   1.018   0.762   8.546  0.7191  0.9429 -0.8488
 1389TIP3   OH225725   0.651   1.210   2.369 -0.2173  0.1769  0.7417
 1389TIP3    H125726   0.611   1.296   2.380 -2.7341 -1.1343  3.0576
 1389TIP3    H225727   0.698   1.194   2.451 -1.4228 -1.3898  1.1697
 1390TIP3   OH225728   4.872   4.134   2.629 -0.0078  0.0150  0.1206
 1390TIP3    H125729   4.894   4.050   2.590  0.4960  1.0131 -1.9084
 1390TIP3    H225730   4.846   4.189   2.555  0.8925  2.0089  1.1935
 1391TIP3   OH225731   4.986   3.298   1.658  0.0887 -0.6345  0.2303
 1391TIP3    H125732   5.076   3.320   1.634 -0.9248  1.1182 -2.5659
 1391TIP3    H225733   4.986   3.292   1.753  3.0032 -0.0352  0.3396
 1392TIP3   OH225734   3.127   5.662   2.490  0.3332  0.3221 -0.2428
 1392TIP3    H125735   3.209   5.612   2.501  0.8158  1.1370 -0.0496
 1392TIP3    H225736   3.081   5.617   2.419  1.5153  0.5601 -1.1907
 1393TIP3   OH225737   3.780   0.493   3.266  0.6006 -0.1546  0.4406
 1393TIP3    H125738   3.700   0.442   3.282  0.7967 -0.1970  1.3362
 1393TIP3    H225739   3.749   0.582   3.249  0.3753 -0.0773  1.2127
 1394TIP3   OH225740   2.291   4.456   7.940  0.1913 -0.2017 -0.5450
 1394TIP3    H125741   2.365   4.498   7.984  0.4061  0.9403 -1.9105
 1394TIP3    H225742   2.272   4.513   7.865 -1.6380 -0.8407 -0.6207
 1395TIP3   OH225743   4.970   1.413   1.906 -0.4356  0.1552 -0.3105
 1395TIP3    H125744   4.889   1.391   1.953  0.0244 -2.4165 -0.5512
 1395TIP3    H225745   4.977   1.345   1.838  0.3440  2.1346 -2.3544
 1396TIP3   OH225746   4.558   3.761   1.690 -0.3365  0.2225 -0.0572
 1396TIP3    H125747   4.494   3.691   1.674 -0.3060  0.6185 -2.1035
 1396TIP3    H225748   4.505   3.840   1.698 -0.1992  0.3562 -0.4503
 1397TIP3   OH225749   2.387   2.776   0.636  0.3814  0.6205  0.2636
 1397TIP3    H125750   2.367   2.864   0.604  1.6898  0.9241  0.1986
 1397TIP3    H225751   2.313   2.753   0.691 -0.2641  1.5209 -0.1957
 1398TIP3   OH225752   0.008   4.309   1.935  0.3854  0.0148 -0.2483
 1398TIP3    H125753  -0.045   4.230   1.923 -0.4504  0.6134 -0.6811
 1398TIP3    H225754  -0.056   4.376   1.959  1.1333  0.4802  0.5082
 1399TIP3   OH225755   3.647   0.582   0.565  0.7372 -0.3759  0.0194
 1399TIP3    H125756   3.625   0.490   0.573  1.2045 -0.4690  0.2385
 1399TIP3    H225757   3.562   0.626   0.554  0.2263 -0.5378  2.6452
 1400TIP3   OH225758   3.918   4.656   1.020 -0.4035  0.2998 -0.2995
 1400TIP3    H125759   4.014   4.658   1.026 -0.4155  2.1032 -0.3064
 1400TIP3    H225760   3.900   4.629   0.930  0.0959  0.3614 -0.4198
 1401TIP3   OH225761   6.757   6.608   8.227 -0.3521  0.8197 -0.1083
 1401TIP3    H125762   6.682   6.626   8.283  0.1671  0.0606  0.8646
 1401TIP3    H225763   6.721   6.561   8.152 -0.8614  0.5570  0.3001
 1402TIP3   OH225764   2.123   5.893   0.395 -0.1342  0.0241  0.2108
 1402TIP3    H125765   2.218   5.883   0.406 -0.0661  0.5538  0.1335
 1402TIP3    H225766   2.086   5.815   0.436  0.2928  0.3058  1.1671
 1403TIP3   OH225767   5.153   2.955   3.298  0.5174 -0.0864 -0.4525
 1403TIP3    H125768   5.150   2.880   3.358 -0.0657 -0.8526 -1.4056
 1403TIP3    H225769   5.241   2.991   3.309  0.7115 -0.7422  0.2303
 1404TIP3   OH225770   5.698   6.603   3.511 -0.3453  0.2650 -0.1627
 1404TIP3    H125771   5.772   6.642   3.557  0.3417 -0.5580 -0.5412
 1404TIP3    H225772   5.672   6.529   3.565  0.1636 -0.4244 -0.8385
 1405TIP3   OH225773   4.691   5.516   0.111  0.5849  0.5616  0.4757
 1405TIP3    H125774   4.753   5.448   0.088 -0.5720 -0.2500 -0.3426
 1405TIP3    H225775   4.665   5.554   0.027  1.2059  2.0329  0.9127
 1406TIP3   OH225776   4.216   2.493   0.084  0.3613  0.1496 -0.1136
 1406TIP3    H125777   4.163   2.414   0.069 -0.6515  0.8675 -0.4334
 1406TIP3    H225778   4.176   2.534   0.160  0.0566  1.0207 -0.7262
 1407TIP3   OH225779   1.292   5.631   3.377 -0.1119  0.3190 -0.3284
 1407TIP3    H125780   1.271   5.688   3.303 -0.6281  1.1088  0.4160
 1407TIP3    H225781   1.231   5.657   3.446  1.0011  0.2613  0.7113
 1408TIP3   OH225782   3.705   6.618   1.259 -0.1053 -0.6577  0.1336
 1408TIP3    H125783   3.679   6.594   1.348  2.2529 -0.8100  0.8539
 1408TIP3    H225784   3.798   6.637   1.266  0.2018 -0.9119 -2.3762
 1409TIP3   OH225785   1.038   2.510   4.057  0.1343  0.5073  0.8268
 1409TIP3    H125786   1.003   2.446   4.120 -1.4356 -1.0401 -1.4586
 1409TIP3    H225787   1.104   2.460   4.009 -2.6517 -0.3541 -2.5137
 1410TIP3   OH225788   0.646   2.892   2.323  0.5024  0.2694 -0.8890
 1410TIP3    H125789   0.561   2.889   2.366  0.4796  1.1819 -0.8409
 1410TIP3    H225790   0.629   2.933   2.238  1.1958  2.5757 -0.0055
 1411TIP3   OH225791   3.828   6.271   4.126  0.1562 -0.0990  0.1026
 1411TIP3    H125792   3.897   6.246   4.064 -0.6583 -0.3874 -0.7137
 1411TIP3    H225793   3.747   6.261   4.076 -0.3913  1.6081  0.5973
 1412TIP3   OH225794   6.120   6.410   3.421  0.0019 -0.0115 -0.2955
 1412TIP3    H125795   6.147   6.328   3.379 -0.9153  0.0041 -0.9460
 1412TIP3    H225796   6.038   6.434   3.377 -1.5114 -0.4450  2.1051
 1413TIP3   OH225797   4.131   1.672   1.084 -0.3796  0.5386 -0.0010
 1413TIP3    H125798   4.212   1.705   1.045  0.0456 -0.0023  0.4126
 1413TIP3    H225799   4.150   1.661   1.177  0.1381 -2.5989 -0.3606
 1414TIP3   OH225800   1.559   5.450   1.964 -0.3473  0.2034 -0.3029
 1414TIP3    H125801   1.519   5.404   1.890 -0.0971  0.9098 -0.8944
 1414TIP3    H225802   1.485   5.482   2.015 -0.5223 -0.4338 -0.1553
 1415TIP3   OH225803   6.214   6.460   0.347  0.1973 -0.4800  0.0594
 1415TIP3    H125804   6.153   6.533   0.360 -0.6350 -0.9341 -1.1809
 1415TIP3    H225805   6.266   6.459   0.428 -0.3073  0.9679  0.4437
 1416TIP3   OH225806   1.737   5.520   2.261  0.4786 -0.0751 -0.0021
 1416TIP3    H125807   1.791   5.461   2.314 -1.4714 -1.3701  0.6767
 1416TIP3    H225808   1.670   5.551   2.322 -2.1195 -1.9707 -1.7178
 1417TIP3   OH225809   1.758   4.794   2.094  0.1105  0.1896  0.7609
 1417TIP3    H125810   1.701   4.871   2.101  0.0515  0.0118  2.5531
 1417TIP3    H225811   1.805   4.807   2.011 -0.6539  1.6208  0.5128
 1418TIP3   OH225812   5.747   0.660   4.071 -0.4568 -0.3037  0.2041
 1418TIP3    H125813   5.677   0.601   4.046 -1.0402  0.4885 -0.0847
 1418TIP3    H225814   5.809   0.657   3.998 -1.5717  1.0982 -0.8587
 1419TIP3   OH225815   1.189   4.667   0.472 -0.5081  0.4524 -0.3673
 1419TIP3    H125816   1.125   4.689   0.404  0.2129  0.4785 -1.0464
 1419TIP3    H225817   1.166   4.577   0.497 -0.5642  0.3182 -0.8895
 1420TIP3   OH225818   0.582   5.216   3.999 -0.4834 -0.0982 -0.0857
 1420TIP3    H125819   0.657   5.249   3.950 -0.3718  0.7946  0.6362
 1420TIP3    H225820   0.507   5.265   3.965 -0.2262  1.4412  1.4156
 1421TIP3   OH225821   2.485   3.708   0.027 -0.1917 -0.2112  0.1702
 1421TIP3    H125822   2.478   3.654  -0.051  0.1511  0.1779 -0.1389
 1421TIP3    H225823   2.543   3.780   0.001 -0.7808  0.3999  0.5150
 1422TIP3   OH225824   1.889   5.890   3.150  0.6077  0.6051  0.1836
 1422TIP3    H125825   1.925   5.834   3.219  0.9875 -0.9312 -1.2162
 1422TIP3    H225826   1.967   5.927   3.107  0.3978  0.8546  0.0193
 1423TIP3   OH225827   5.609   4.340   2.841 -0.5564  0.0309 -0.3798
 1423TIP3    H125828   5.517   4.342   2.865 -0.4960  1.6697 -0.1558
 1423TIP3    H225829   5.654   4.304   2.918 -0.7898  1.3897  0.4167
 1424TIP3   OH225830   3.491   0.366   3.316 -0.3430 -0.4924  0.1171
 1424TIP3    H125831   3.461   0.347   3.405  1.6027 -1.2556  0.6622
 1424TIP3    H225832   3.468   0.458   3.302  0.3352 -0.0106  1.8626
 1425TIP3   OH225833   0.941   6.244   1.465 -0.3047 -0.4327  0.4481
 1425TIP3    H125834   1.018   6.299   1.481  0.5753 -2.0704  2.3270
 1425TIP3    H225835   0.878   6.273   1.531 -0.3361 -0.7684  0.5662
 1426TIP3   OH225836   2.474   0.813   3.049  0.2551 -0.7817 -0.1649
 1426TIP3    H125837   2.552   0.758   3.056 -1.2437 -2.9908  0.2124
 1426TIP3    H225838   2.407   0.755   3.013 -1.0372  1.2755 -1.2792
 1427TIP3   OH225839   0.000   5.844   0.296 -0.5743  0.3425 -0.5367
 1427TIP3    H125840  -0.052   5.845   0.376 -1.0029 -0.0517 -0.8067
 1427TIP3    H225841  -0.029   5.766   0.249 -0.2609  0.5191 -1.0365
 1428TIP3   OH225842   3.283   3.683   3.803 -0.0831 -0.2465 -0.2180
 1428TIP3    H125843   3.191   3.706   3.788  0.0809  0.1617 -0.6145
 1428TIP3    H225844   3.328   3.767   3.812  0.0669 -0.4493  1.1710
 1429TIP3   OH225845   4.940   6.683   3.045 -0.3829 -0.3464 -0.7456
 1429TIP3    H125846   5.004   6.712   3.110 -2.4888  0.4604  1.0670
 1429TIP3    H225847   4.897   6.607   3.085 -1.0669 -0.4341 -1.6146
 1430TIP3   OH225848   2.696   3.891   8.731 -0.2272  0.3713  0.2595
 1430TIP3    H125849   2.676   3.924   8.643 -0.1447 -2.9201 -1.1307
 1430TIP3    H225850   2.647   3.949   8.790 -1.2615  1.9596 -1.9891
 1431TIP3   OH225851   6.707   2.898   0.344 -0.7387 -0.0034  1.0149
 1431TIP3    H125852   6.712   2.943   0.429 -3.3465  1.0559  0.6808
 1431TIP3    H225853   6.795   2.908   0.308 -0.1671  1.4976  2.6201
 1432TIP3   OH225854   0.836   2.221   1.877 -0.0348 -0.6877  0.8865
 1432TIP3    H125855   0.753   2.255   1.910  0.1280  0.3826  0.2352
 1432TIP3    H225856   0.876   2.180   1.953 -1.5244 -1.9831  1.0190
 1433TIP3   OH225857   5.952   3.665   8.660  0.6391  0.5494  0.4812
 1433TIP3    H125858   5.860   3.687   8.676  0.9670  1.9618  0.5680
 1433TIP3    H225859   5.949   3.595   8.594 -0.4816  1.1018 -0.0787
 1434TIP3   OH225860   3.775   1.964   2.398 -0.1470 -0.5381  0.3458
 1434TIP3    H125861   3.705   1.968   2.333 -0.1060  0.0549  0.3376
 1434TIP3    H225862   3.750   2.027   2.465 -0.0758 -0.9836  0.8001
 1435TIP3   OH225863   2.839   3.093   3.060 -0.4606 -0.3203  0.0342
 1435TIP3    H125864   2.823   3.183   3.031  0.6922  0.4260  1.5758
 1435TIP3    H225865   2.932   3.078   3.040 -0.5375 -1.0184  0.1881
 1436TIP3   OH225866   1.546   6.467   1.728 -0.0933  0.2985  1.0028
 1436TIP3    H125867   1.510   6.491   1.643 -1.3150 -0.0733  1.3934
 1436TIP3    H225868   1.522   6.539   1.786  1.7666  1.1288  0.8084
 1437TIP3   OH225869   2.830   1.163   3.542  0.1608  0.2354  0.0374
 1437TIP3    H125870   2.845   1.246   3.588 -1.9843  0.6417  0.1418
 1437TIP3    H225871   2.793   1.105   3.609 -0.4378 -0.0546 -0.5283
 1438TIP3   OH225872   1.441   1.436   0.672  0.0709  0.5443  0.0009
 1438TIP3    H125873   1.390   1.428   0.591 -1.9675 -0.2265  1.2726
 1438TIP3    H225874   1.487   1.352   0.679 -0.3832  0.2881  0.0081
 1439TIP3   OH225875   3.589   1.281   0.255  0.0097 -0.1643 -0.7138
 1439TIP3    H125876   3.638   1.361   0.234 -0.7777 -0.0439 -2.2206
 1439TIP3    H225877   3.629   1.214   0.199 -0.3996 -0.4568 -0.6571
 1440TIP3   OH225878   1.326   4.242   2.370  0.3369 -0.1716  0.3890
 1440TIP3    H125879   1.346   4.226   2.462  0.7187  0.8339  0.4972
 1440TIP3    H225880   1.239   4.282   2.372 -1.7285 -4.1339 -0.0462
 1441TIP3   OH225881   0.214   5.386   1.029  0.9955 -0.3157 -0.4006
 1441TIP3    H125882   0.248   5.460   1.079 -0.1307  0.4059 -0.6609
 1441TIP3    H225883   0.263   5.311   1.062  1.4584  0.3905  0.5911
 1442TIP3   OH225884   6.417   0.924   0.749 -0.0958  0.2638  0.0019
 1442TIP3    H125885   6.392   0.844   0.703 -0.6044 -0.4548  1.4736
 1442TIP3    H225886   6.396   0.907   0.841 -1.1875  2.4467  0.2298
 1443TIP3   OH225887   1.339   3.212   2.685 -0.2578 -0.0575  0.5964
 1443TIP3    H125888   1.262   3.269   2.687  0.1686  0.6449 -1.4816
 1443TIP3    H225889   1.343   3.179   2.596  0.4482 -2.0854  1.3262
 1444TIP3   OH225890   2.229   1.600   1.153 -0.1700  0.3962 -0.5063
 1444TIP3    H125891   2.293   1.551   1.102  0.0674  0.3842 -0.2025
 1444TIP3    H225892   2.253   1.582   1.244 -0.7172  0.2377 -0.3854
 1445TIP3   OH225893   4.020   2.826   2.042 -0.5466  0.1640 -0.3078
 1445TIP3    H125894   4.000   2.741   2.081 -0.3697 -0.2403 -1.0689
 1445TIP3    H225895   4.110   2.816   2.009 -1.4593 -0.3347 -2.8929
 1446TIP3   OH225896   2.713   1.025   1.627  0.3445 -0.4700 -0.0857
 1446TIP3    H125897   2.689   0.933   1.616 -1.5445 -0.1848  1.1661
 1446TIP3    H225898   2.778   1.041   1.558  1.2186 -2.8753  0.0668
 1447TIP3   OH225899   2.096   4.218   1.495  0.3002 -0.5025 -0.1816
 1447TIP3    H125900   2.080   4.163   1.419 -0.1933  0.1658 -0.5701
 1447TIP3    H225901   2.045   4.178   1.566  0.3117 -0.8017 -0.3429
 1448TIP3   OH225902   5.036   0.209   0.576 -0.0654 -0.3109 -0.0366
 1448TIP3    H125903   5.043   0.283   0.515 -0.1412  2.0425  2.6369
 1448TIP3    H225904   4.945   0.180   0.567 -0.0081 -0.1889 -1.1922
 1449TIP3   OH225905   0.536   6.445   3.347  0.4881  0.3647  0.1473
 1449TIP3    H125906   0.574   6.401   3.423 -2.9214 -0.3109  1.6857
 1449TIP3    H225907   0.505   6.529   3.381 -0.2084  0.4791 -0.7356
 1450TIP3   OH225908   1.123   4.397   0.950 -0.4553  0.3054  0.6247
 1450TIP3    H125909   1.083   4.395   1.037 -0.4929  2.5874  0.7061
 1450TIP3    H225910   1.217   4.402   0.967 -0.4372  0.3373  0.5139
 1451TIP3   OH225911   2.325   5.045   2.664  0.3797 -0.7326  0.0261
 1451TIP3    H125912   2.280   5.056   2.747 -0.0532  2.9535 -0.5211
 1451TIP3    H225913   2.256   5.049   2.598  1.0018 -0.4313 -0.6237
 1452TIP3   OH225914   5.728   5.276   2.851  0.3141 -0.5103  0.5369
 1452TIP3    H125915   5.725   5.186   2.821 -0.0855 -0.3431  0.0516
 1452TIP3    H225916   5.693   5.274   2.939  0.4976 -0.8571  0.6017
 1453TIP3   OH225917   5.473   0.403   0.190 -0.2927 -0.0967 -0.0950
 1453TIP3    H125918   5.560   0.365   0.190  0.0260  0.5808  0.8556
 1453TIP3    H225919   5.435   0.379   0.106  1.1959  0.4765 -0.9485
 1454TIP3   OH225920   6.174   1.079   3.173 -0.3300 -0.0719  0.6016
 1454TIP3    H125921   6.181   1.172   3.194  0.7522 -0.1004  0.4243
 1454TIP3    H225922   6.186   1.075   3.078 -0.2436 -0.4093  0.6261
 1455TIP3   OH225923   6.307   0.704   2.626  0.0091 -0.3683  0.1218
 1455TIP3    H125924   6.286   0.792   2.657 -0.3048 -0.5834  0.5341
 1455TIP3    H225925   6.398   0.690   2.655  0.1498 -0.0814 -0.1775
 1456TIP3   OH225926   3.873   5.137   0.334 -0.2445  0.2002 -0.0307
 1456TIP3    H125927   3.850   5.081   0.408  0.8060  0.5573  0.5828
 1456TIP3    H225928   3.946   5.092   0.291 -0.7962  0.0310 -0.8167
 1457TIP3   OH225929   5.473   4.735   1.191 -0.0387  0.0307 -0.0114
 1457TIP3    H125930   5.564   4.725   1.163  0.0132 -0.4462  0.3234
 1457TIP3    H225931   5.422   4.696   1.121  0.0419 -0.2110  0.0645
 1458TIP3   OH225932   4.237   2.999   0.740  0.0913 -0.0086  0.3387
 1458TIP3    H125933   4.236   2.906   0.717 -0.8510  0.2218 -0.6414
 1458TIP3    H225934   4.329   3.021   0.751  0.4857 -0.5352 -1.6822
 1459TIP3   OH225935   4.136   4.512   1.616 -0.4594  0.4645  0.1706
 1459TIP3    H125936   4.132   4.579   1.684  0.4986  1.6701 -0.9112
 1459TIP3    H225937   4.072   4.541   1.551 -1.3528 -0.6641  0.5221
 1460TIP3   OH225938   3.621   4.390   2.480 -0.1522  0.7919 -0.0799
 1460TIP3    H125939   3.692   4.347   2.528 -0.6093  1.5350  1.3338
 1460TIP3    H225940   3.654   4.399   2.391  1.3448  0.6816  0.4350
 1461TIP3   OH225941   1.464   4.692   2.590  0.0426  0.0251  0.0420
 1461TIP3    H125942   1.491   4.784   2.597  0.9862 -0.3194  1.6338
 1461TIP3    H225943   1.491   4.654   2.673 -1.5559 -1.4017 -0.0512
 1462TIP3   OH225944   6.785   4.906   2.946 -0.1863 -0.2143 -0.1555
 1462TIP3    H125945   6.878   4.885   2.941 -0.0005  0.8095 -2.0138
 1462TIP3    H225946   6.757   4.914   2.854 -2.1712 -0.7354  0.3469
 1463TIP3   OH225947   5.760   5.242   1.832 -0.3265  0.5412 -0.5879
 1463TIP3    H125948   5.750   5.186   1.908 -0.1511  2.2043  0.7333
 1463TIP3    H225949   5.683   5.225   1.778 -0.5812 -0.4718  0.0801
 1464TIP3   OH225950   3.617   1.796   7.996 -0.3925  0.6367 -0.3797
 1464TIP3    H125951   3.626   1.710   7.956  1.7223  0.5554  0.1634
 1464TIP3    H225952   3.661   1.788   8.081  0.2640  2.3582 -0.5159
 1465TIP3   OH225953   4.402   5.140   2.484 -0.3418 -0.1540  0.1746
 1465TIP3    H125954   4.399   5.210   2.550 -0.0112  0.0071  0.0244
 1465TIP3    H225955   4.311   5.121   2.465 -0.4370 -0.0332  0.5065
 1466TIP3   OH225956   3.091   1.351   2.476 -0.2708 -0.9291 -0.2151
 1466TIP3    H125957   3.020   1.407   2.506  1.2141  0.9033  0.0372
 1466TIP3    H225958   3.076   1.343   2.381  1.3456  2.9351 -0.9938
 1467TIP3   OH225959   5.504   1.200   0.285 -0.6207 -0.3113  0.9226
 1467TIP3    H125960   5.575   1.159   0.235 -0.2361  1.8598 -0.4315
 1467TIP3    H225961   5.432   1.137   0.279 -0.1845 -0.6915 -1.3478
 1468TIP3   OH225962   6.583   2.159   1.939 -0.0097  1.0722  0.0718
 1468TIP3    H125963   6.514   2.142   2.003 -0.7589  0.2077 -0.9276
 1468TIP3    H225964   6.559   2.243   1.900 -0.1071  1.1145  0.2219
 1469TIP3   OH225965   2.506   0.305   4.203  0.0382  0.0174  0.3693
 1469TIP3    H125966   2.472   0.223   4.238  0.0495 -1.5498 -2.9504
 1469TIP3    H225967   2.600   0.291   4.194  0.0069  0.2799 -0.4610
 1470TIP3   OH225968   3.249   0.019   0.249 -0.1181 -0.3629  0.4858
 1470TIP3    H125969   3.260   0.042   0.157  2.5940  0.6605  0.9818
 1470TIP3    H225970   3.186   0.083   0.282  0.4820  0.6257 -0.2215
 1471TIP3   OH225971   5.280   3.285   8.148  0.0495  0.4805 -0.3222
 1471TIP3    H125972   5.369   3.254   8.128 -0.4794 -1.3108 -0.0296
 1471TIP3    H225973   5.225   3.246   8.080 -0.6223  1.0569 -0.1253
 1472TIP3   OH225974   6.235   5.664   2.473  0.2404 -0.0238  0.4784
 1472TIP3    H125975   6.279   5.723   2.411 -2.8166 -0.8537 -2.8469
 1472TIP3    H225976   6.239   5.579   2.431 -0.5883 -1.0128  2.2963
 1473TIP3   OH225977   6.821   4.008   1.341  0.1388  0.4202  0.2825
 1473TIP3    H125978   6.743   3.975   1.296  1.8232  0.4900 -2.9682
 1473TIP3    H225979   6.858   3.932   1.384 -0.5525 -0.0914  0.0024
 1474TIP3   OH225980   4.445   2.477   2.785  0.4909 -0.4315  0.0941
 1474TIP3    H125981   4.367   2.480   2.730  0.9012 -0.2890 -0.4948
 1474TIP3    H225982   4.493   2.557   2.762 -0.2950  0.6980  2.1343
 1475TIP3   OH225983   5.540   2.298   1.197  0.2729  0.3067 -0.2056
 1475TIP3    H125984   5.497   2.213   1.187 -1.2358  0.7278  2.0764
 1475TIP3    H225985   5.514   2.347   1.119 -0.4536 -0.6527 -0.5947
 1476TIP3   OH225986   1.357   5.556   2.142  0.5565 -0.2352  0.5650
 1476TIP3    H125987   1.263   5.564   2.153  0.3217  0.3482 -1.4692
 1476TIP3    H225988   1.382   5.482   2.198 -1.4521 -1.8438 -0.5704
 1477TIP3   OH225989   5.013   1.499   0.663  0.0785  0.1157 -0.4036
 1477TIP3    H125990   4.949   1.430   0.679 -0.2155  0.7777  1.4411
 1477TIP3    H225991   5.011   1.554   0.741  0.6229  1.9909 -1.6272
 1478TIP3   OH225992   1.509   6.220   2.592 -0.3550 -0.1297 -0.2607
 1478TIP3    H125993   1.533   6.209   2.500  1.1791  3.2603 -0.4034
 1478TIP3    H225994   1.580   6.272   2.629 -0.8958 -1.4598  2.9278
 1479TIP3   OH225995   1.215   3.705   0.345 -0.0908 -0.2084  0.3571
 1479TIP3    H125996   1.141   3.759   0.320 -0.5313 -1.5156 -1.3158
 1479TIP3    H225997   1.289   3.740   0.295  0.0370 -0.0471  0.6509
 1480TIP3   OH225998   2.782   3.933   3.220 -0.2005 -0.6696  0.0161
 1480TIP3    H125999   2.872   3.902   3.225 -0.7218 -2.1455  0.8709
 1480TIP3    H226000   2.772   3.992   3.294  0.2967  0.2010 -0.5938
 1481TIP3   OH226001   6.052   0.576   2.193  0.4799 -0.0085  0.2597
 1481TIP3    H126002   6.134   0.603   2.153  0.9809 -0.8993  0.6457
 1481TIP3    H226003   6.078   0.511   2.258 -0.5399 -0.3265  0.3641
 1482TIP3   OH226004   6.128   2.411   3.090 -0.1914  0.0033 -0.5593
 1482TIP3    H126005   6.209   2.395   3.140 -0.9658  0.5466  0.9331
 1482TIP3    H226006   6.083   2.327   3.091 -1.6493  0.6816  2.4529
 1483TIP3   OH226007   0.116   5.194   2.606 -0.2168 -0.3388  0.6202
 1483TIP3    H126008   0.145   5.283   2.590  0.4345 -0.7789 -0.7980
 1483TIP3    H226009   0.134   5.179   2.699 -0.7993  1.1557  0.9849
 1484TIP3   OH226010   3.891   1.682   2.715 -0.7484  0.1864  0.2274
 1484TIP3    H126011   3.833   1.727   2.777 -1.5299 -0.5865  0.0743
 1484TIP3    H226012   3.963   1.649   2.770 -1.7443 -1.0308  0.8660
 1485TIP3   OH226013   2.172   6.597   3.010 -0.5418 -0.1444 -0.3122
 1485TIP3    H126014   2.093   6.545   3.020 -0.0282 -0.6398  1.4929
 1485TIP3    H226015   2.243   6.532   3.013 -0.0347  0.3424 -1.3829
 1486TIP3   OH226016   1.347   0.835   1.636  0.2233  0.0703  0.1910
 1486TIP3    H126017   1.356   0.748   1.596  0.0248  1.6060 -3.6576
 1486TIP3    H226018   1.436   0.858   1.664  0.5984 -0.7062 -0.3228
 1487TIP3   OH226019   1.750   2.365   1.597  0.6995  0.2266 -0.2183
 1487TIP3    H126020   1.771   2.355   1.690  0.6557 -0.6165 -0.2959
 1487TIP3    H226021   1.683   2.434   1.595 -0.9814 -1.2956  0.5933
 1488TIP3   OH226022   2.014   1.768   2.980  0.2011  0.0947  0.3063
 1488TIP3    H126023   1.951   1.790   3.049  2.4247  0.1227  2.4718
 1488TIP3    H226024   2.080   1.837   2.985  0.6180 -0.1094 -1.6582
 1489TIP3   OH226025   1.294   2.676   2.446  0.5407  0.6989 -0.3370
 1489TIP3    H126026   1.265   2.595   2.488  1.0012  0.7527  0.0946
 1489TIP3    H226027   1.213   2.725   2.429  0.4104  1.3641  1.8865
 1490TIP3   OH226028   5.673   2.488   8.283 -0.2532 -0.0137 -0.1984
 1490TIP3    H126029   5.671   2.515   8.192 -0.7653 -1.2912 -0.5925
 1490TIP3    H226030   5.644   2.396   8.282  0.7678 -0.3911  1.1178
 1491TIP3   OH226031   6.342   5.642   1.123  0.2745  0.1476  0.1063
 1491TIP3    H126032   6.396   5.718   1.104  1.9970 -0.2167  2.8734
 1491TIP3    H226033   6.312   5.656   1.213 -1.5773 -1.2058 -0.2512
 1492TIP3   OH226034   3.212   2.265   3.673  0.4731  0.4321  0.4573
 1492TIP3    H126035   3.162   2.302   3.600  0.3099 -0.6415  0.0052
 1492TIP3    H226036   3.154   2.274   3.749 -0.3214 -0.5134 -0.0004
 1493TIP3   OH226037   1.246   2.021   2.323  0.2523 -0.3993 -0.1123
 1493TIP3    H126038   1.318   2.059   2.374 -0.2201 -1.3006  1.2863
 1493TIP3    H226039   1.169   2.035   2.378 -0.4338 -0.5652 -1.0312
 1494TIP3   OH226040   1.590   3.342   2.708 -0.6332 -0.3786  0.5194
 1494TIP3    H126041   1.621   3.254   2.727 -0.3423 -0.1318  1.2458
 1494TIP3    H226042   1.506   3.330   2.665  0.5768 -1.0812 -1.7848
 1495TIP3   OH226043   2.131   0.542   3.124 -0.0936  0.1682  0.0792
 1495TIP3    H126044   2.060   0.596   3.157  0.0493  0.9103 -0.8142
 1495TIP3    H226045   2.208   0.570   3.174  0.1985  1.5504 -1.0969
 1496TIP3   OH226046   6.761   5.220   8.069 -0.5894  0.1723 -0.0212
 1496TIP3    H126047   6.796   5.142   8.113  0.4592  1.2024  1.0564
 1496TIP3    H226048   6.775   5.204   7.976 -0.5964 -1.0204  0.1705
 1497TIP3   OH226049   4.879   4.315   3.476 -0.2905  0.6451 -0.0103
 1497TIP3    H126050   4.957   4.354   3.516  0.3286 -0.7340  0.1659
 1497TIP3    H226051   4.832   4.277   3.550  1.4916 -3.0531 -0.5460
 1498TIP3   OH226052   3.815   0.288   1.497  0.1185  0.0281 -0.0243
 1498TIP3    H126053   3.731   0.260   1.461 -0.2409  0.9249  0.0892
 1498TIP3    H226054   3.823   0.380   1.471  0.0304  0.6002  1.7855
 1499TIP3   OH226055   3.096   5.842   0.090 -0.4913 -0.2822 -0.0601
 1499TIP3    H126056   3.028   5.908   0.105 -1.7808 -1.5454 -0.1493
 1499TIP3    H226057   3.130   5.862   0.003  0.0903  1.0633  0.4443
 1500TIP3   OH226058   0.663   1.840   1.423 -0.8337 -0.0796  0.9889
 1500TIP3    H126059   0.611   1.918   1.444 -0.5603 -0.3264  2.6898
 1500TIP3    H226060   0.672   1.795   1.506 -0.3844 -1.5787  0.1509
 1501TIP3   OH226061   3.274   2.363   8.282 -0.4265 -0.1241 -0.1859
 1501TIP3    H126062   3.333   2.330   8.214  1.2349  0.9520  0.6591
 1501TIP3    H226063   3.333   2.401   8.348 -2.1019  1.7395  0.3211
 1502TIP3   OH226064   4.869   1.169   8.746 -0.3524 -0.1380  0.2431
 1502TIP3    H126065   4.836   1.235   8.686  1.1700 -1.1168 -1.7974
 1502TIP3    H226066   4.868   1.088   8.695  0.4635 -1.1284  1.7335
 1503TIP3   OH226067   1.362   3.499   0.497 -0.0739 -0.3024 -0.5852
 1503TIP3    H126068   1.349   3.522   0.589 -3.3545 -2.2683 -0.3598
 1503TIP3    H226069   1.306   3.561   0.449  0.7733  0.0258 -1.1620
 1504TIP3   OH226070   4.675   5.728   2.570  0.4337 -0.0260 -0.2072
 1504TIP3    H126071   4.619   5.704   2.644  2.4480 -0.3405  1.3036
 1504TIP3    H226072   4.652   5.818   2.550 -0.5040 -0.1047  0.4707
 1505TIP3   OH226073   4.302   3.272   3.081 -0.2732  0.3290  0.5093
 1505TIP3    H126074   4.229   3.216   3.055  0.1302 -0.0927  0.2716
 1505TIP3    H226075   4.365   3.213   3.121  1.3263  0.1299 -2.0869
 1506TIP3   OH226076   6.738   5.125   0.249  0.1225 -0.4557 -0.5412
 1506TIP3    H126077   6.756   5.068   0.324 -2.1639  1.2969  1.5293
 1506TIP3    H226078   6.703   5.066   0.182 -0.9321 -1.7055  1.0289
 1507TIP3   OH226079   5.687   6.375   3.697 -0.6646  0.4806  0.2350
 1507TIP3    H126080   5.762   6.433   3.714 -0.2166 -0.0137 -0.0200
 1507TIP3    H226081   5.723   6.287   3.704 -1.3220  0.2303  0.5340
 1508TIP3   OH226082   5.619   6.648   0.267 -0.2542  0.3331 -0.3480
 1508TIP3    H126083   5.571   6.633   0.185 -0.4787  0.4957 -0.2483
 1508TIP3    H226084   5.627   6.561   0.306  0.5696  0.1397 -0.9323
 1509TIP3   OH226085   6.098   2.693   3.115 -0.0296  0.0513 -0.2167
 1509TIP3    H126086   6.017   2.711   3.163  1.5677  0.2318  2.6116
 1509TIP3    H226087   6.092   2.600   3.093 -1.5845  0.3733 -1.3587
 1510TIP3   OH226088   3.359   0.447   0.616 -0.1714  0.1077 -0.7888
 1510TIP3    H126089   3.374   0.541   0.605  1.8921 -0.0082  0.6260
 1510TIP3    H226090   3.288   0.441   0.680  0.0094  0.6977 -0.5313
 1511TIP3   OH226091   5.086   6.079   0.659 -0.2534  0.1695 -0.2792
 1511TIP3    H126092   5.066   6.171   0.675  0.0574  0.6105 -2.2681
 1511TIP3    H226093   5.175   6.068   0.693  0.0754  0.8495 -0.9044
 1512TIP3   OH226094   0.223   5.599   3.399 -0.3034 -0.3724  0.6428
 1512TIP3    H126095   0.229   5.695   3.398 -2.6153 -0.1814  0.0491
 1512TIP3    H226096   0.244   5.575   3.490  1.0529  0.6042  0.6136
 1513TIP3   OH226097   3.141   5.914   8.032 -0.1933  0.1197  0.1350
 1513TIP3    H126098   3.127   5.848   8.100  1.3280 -1.6814 -1.1926
 1513TIP3    H226099   3.159   5.995   8.081 -0.6557 -0.7532  1.8311
 1514TIP3   OH226100   0.080   1.961   2.907  0.1699 -0.1213 -0.3450
 1514TIP3    H126101   0.144   1.890   2.908 -0.9761 -1.1999 -0.8004
 1514TIP3    H226102   0.044   1.961   2.996 -0.9038 -1.1500 -0.7577
 1515TIP3   OH226103   2.794   5.318   2.641  0.2805 -0.1843 -0.1629
 1515TIP3    H126104   2.868   5.371   2.669 -0.5844  1.9136 -1.6329
 1515TIP3    H226105   2.735   5.317   2.716  1.6273 -1.7236  0.9611
 1516TIP3   OH226106   5.158   1.876   0.742  0.2157  0.2403 -0.5164
 1516TIP3    H126107   5.203   1.796   0.714  0.4059  0.2877 -0.3466
 1516TIP3    H226108   5.137   1.921   0.660  0.4773  0.2175 -0.5989
 1517TIP3   OH226109   3.590   2.098   1.238 -0.5703 -0.5886  0.2022
 1517TIP3    H126110   3.528   2.164   1.207  1.2954  0.7048 -1.0224
 1517TIP3    H226111   3.612   2.125   1.327  1.2215  1.3568 -0.7537
 1518TIP3   OH226112   2.286   3.867   3.280 -0.2490 -0.8500 -0.3465
 1518TIP3    H126113   2.255   3.834   3.364  0.7044 -1.2862 -0.1625
 1518TIP3    H226114   2.206   3.877   3.228 -0.6836 -2.2705  0.0115
 1519TIP3   OH226115   4.039   1.322   7.697 -0.1042  0.3594  0.2947
 1519TIP3    H126116   4.128   1.314   7.661 -0.9810 -0.1691 -1.9735
 1519TIP3    H226117   4.020   1.236   7.733  0.0805  0.2674  0.1755
 1520TIP3   OH226118   0.738   0.003   0.003 -0.0262 -0.0734 -0.2638
 1520TIP3    H126119   0.756   0.062   0.076 -2.2109  0.6285 -0.2268
 1520TIP3    H226120   0.726   0.060  -0.073  0.9097 -0.7141 -0.9260
 1521TIP3   OH226121   2.378   1.816   4.021 -0.0034 -0.1879  0.3781
 1521TIP3    H126122   2.353   1.880   4.088 -0.3900  0.3618 -0.2720
 1521TIP3    H226123   2.474   1.822   4.017  0.1199 -1.0405  1.6571
 1522TIP3   OH226124   1.063   0.183   7.904  0.4029  0.0136 -0.0888
 1522TIP3    H126125   0.999   0.139   7.960  1.1659 -1.8764 -0.6534
 1522TIP3    H226126   1.132   0.210   7.964  0.3911 -0.4468  0.1366
 1523TIP3   OH226127   2.359   0.979   2.717  0.0363  0.1873 -0.3851
 1523TIP3    H126128   2.386   1.003   2.628 -1.5228  2.3906 -0.3235
 1523TIP3    H226129   2.263   0.977   2.713 -0.0255 -1.9441  0.7431
 1524TIP3   OH226130   5.129   1.299   0.157 -0.1252  0.5169 -0.0063
 1524TIP3    H126131   5.094   1.388   0.163 -1.8954 -0.1726  0.4166
 1524TIP3    H226132   5.132   1.269   0.248  0.9255  0.3042 -0.1052
 1525TIP3   OH226133   6.461   2.830   0.970  0.0394  0.6788  0.6007
 1525TIP3    H126134   6.510   2.854   1.049  1.9088  2.3192 -0.9488
 1525TIP3    H226135   6.494   2.743   0.947  0.1793  0.5943  1.1059
 1526TIP3   OH226136   6.587   6.549   0.250  0.4891 -0.5153 -0.0385
 1526TIP3    H126137   6.682   6.542   0.238  0.6683  1.4207 -0.1581
 1526TIP3    H226138   6.556   6.459   0.254  2.3000 -1.1873 -0.2768
 1527TIP3   OH226139   1.908   6.627   8.163  0.2748  0.1185  0.0976
 1527TIP3    H126140   1.978   6.685   8.194 -0.4300  0.3534  1.3048
 1527TIP3    H226141   1.846   6.686   8.120 -0.0808  0.1727  0.6740
 1528TIP3   OH226142   5.860   5.209   1.034 -0.4804 -0.2512 -0.5684
 1528TIP3    H126143   5.842   5.275   0.967  3.2065  1.1447 -0.3944
 1528TIP3    H226144   5.774   5.171   1.053 -2.0074  0.5910 -4.6369
 1529TIP3   OH226145   4.739   2.566   3.109  0.0321 -0.0399 -0.1317
 1529TIP3    H126146   4.713   2.479   3.139 -0.1557 -0.1858 -0.7123
 1529TIP3    H226147   4.829   2.576   3.139 -0.9090  0.8274  2.7284
 1530TIP3   OH226148   1.255   4.339   1.642 -0.2701  0.1657 -0.6369
 1530TIP3    H126149   1.194   4.267   1.656 -0.6041  0.5439 -0.1229
 1530TIP3    H226150   1.291   4.323   1.554 -2.1943  0.7222 -1.5892
 1531TIP3   OH226151   3.529   0.146   8.441 -0.2314 -0.2338  0.3153
 1531TIP3    H126152   3.617   0.144   8.478  0.6354 -0.7862 -1.6540
 1531TIP3    H226153   3.496   0.057   8.452 -0.4698 -0.0900  0.8226
 1532TIP3   OH226154   0.937   3.773   8.494  0.0749 -0.2807  0.3684
 1532TIP3    H126155   1.030   3.766   8.512  0.2818 -2.3898 -1.1213
 1532TIP3    H226156   0.895   3.765   8.579  1.2280  0.3693  1.0204
 1533TIP3   OH226157   2.698   2.010   0.103 -0.9032  0.4285  0.3440
 1533TIP3    H126158   2.793   2.009   0.117 -0.7804  0.8775 -0.3664
 1533TIP3    H226159   2.660   1.992   0.189 -0.1448 -2.3765  0.1994
 1534TIP3   OH226160   2.657   3.090   0.742  0.0673 -0.0847 -0.2277
 1534TIP3    H126161   2.658   3.174   0.787 -1.0083  0.4044 -1.0588
 1534TIP3    H226162   2.620   3.029   0.805  0.4488  0.1540  0.2322
 1535TIP3   OH226163   2.363   6.653   8.737  0.1877 -0.4427 -0.1463
 1535TIP3    H126164   2.339   6.634   8.828 -0.0917  0.5201 -0.0039
 1535TIP3    H226165   2.458   6.664   8.739  0.1002  0.2949  0.1748
 1536TIP3   OH226166   2.317   2.576   1.113  0.0056 -0.5463  0.6782
 1536TIP3    H126167   2.319   2.481   1.104  1.2166 -0.3762 -1.8820
 1536TIP3    H226168   2.408   2.602   1.121 -0.4012  0.3526  3.1125
 1537TIP3   OH226169   3.664   4.824   0.169  0.0161 -0.6205  0.7390
 1537TIP3    H126170   3.682   4.776   0.251 -0.2756 -0.0075  1.1635
 1537TIP3    H226171   3.670   4.757   0.101  1.6001 -0.9038  1.1104
 1538TIP3   OH226172   0.753   0.847   1.150  0.1044  0.0495 -0.1314
 1538TIP3    H126173   0.718   0.922   1.199  1.5957  1.5657 -1.2843
 1538TIP3    H226174   0.677   0.812   1.103 -0.5574  1.0756  0.1443
 1539TIP3   OH226175   3.508   3.238   2.808  0.1003  0.0240  0.2299
 1539TIP3    H126176   3.462   3.261   2.727  1.6661  0.4568 -0.5833
 1539TIP3    H226177   3.459   3.164   2.843 -0.9652  0.2097 -0.8000
 1540TIP3   OH226178   2.356   0.029   0.783 -0.7914 -0.2055 -0.1207
 1540TIP3    H126179   2.349  -0.062   0.812  0.4442 -0.3950 -0.3691
 1540TIP3    H226180   2.367   0.023   0.688 -1.1365  0.2367 -0.1912
 1541TIP3   OH226181   6.593   6.183   1.344 -0.0994 -0.1182  0.0212
 1541TIP3    H126182   6.669   6.162   1.289 -0.8839  0.6919 -1.4515
 1541TIP3    H226183   6.630   6.223   1.422  1.1071 -1.9973  0.4746
 1542TIP3   OH226184   0.175   3.708   3.401 -0.3820 -0.6380  0.6239
 1542TIP3    H126185   0.120   3.632   3.380 -3.4984  1.9695 -1.8209
 1542TIP3    H226186   0.140   3.740   3.485 -1.1295 -0.3121  0.2061
 1543TIP3   OH226187   6.379   3.261   3.379 -0.3265 -0.1654 -0.2001
 1543TIP3    H126188   6.340   3.301   3.457 -0.0055  0.6477 -0.4515
 1543TIP3    H226189   6.378   3.167   3.398  0.6750  0.0715  1.2286
 1544TIP3   OH226190   1.134   6.465   3.385 -0.2765 -0.4709 -0.4174
 1544TIP3    H126191   1.152   6.373   3.362  0.7772 -0.4350  0.2188
 1544TIP3    H226192   1.039   6.472   3.381 -0.3846 -1.6462 -0.3040
 1545TIP3   OH226193   1.010   6.044   8.667 -0.0650 -0.2519  0.3236
 1545TIP3    H126194   0.923   6.012   8.645 -0.0537  0.7885 -1.4216
 1545TIP3    H226195   1.070   5.983   8.625  0.0109  0.1133 -0.1034
 1546TIP3   OH226196   0.684   1.042   0.015 -0.2702 -0.3014  0.1127
 1546TIP3    H126197   0.637   1.023  -0.066  0.7398 -1.2693 -0.2803
 1546TIP3    H226198   0.766   0.994   0.006  0.3430  0.4911  1.2269
 1547TIP3   OH226199   6.585   3.284   3.022  0.0474 -0.0158 -0.5823
 1547TIP3    H126200   6.672   3.260   3.054  0.4597 -0.1873 -1.7691
 1547TIP3    H226201   6.597   3.296   2.927 -1.3404 -0.6317 -0.8639
 1548TIP3   OH226202   3.028   0.874   0.893  0.0585  0.0515 -0.6190
 1548TIP3    H126203   2.940   0.890   0.929  0.4018 -1.6892  1.1215
 1548TIP3    H226204   3.084   0.864   0.970  1.6514  0.3091 -1.7012
 1549TIP3   OH226205   6.455   0.703   8.279 -0.7752  0.3334  0.2767
 1549TIP3    H126206   6.386   0.640   8.262  0.4793 -0.6626 -1.4699
 1549TIP3    H226207   6.462   0.754   8.198 -0.4478  1.4279  0.9638
 1550TIP3   OH226208   1.861   5.727   1.781  0.1211  0.2945  0.2255
 1550TIP3    H126209   1.870   5.810   1.827  0.3457 -0.6029  1.8961
 1550TIP3    H226210   1.767   5.707   1.784  0.1327  0.2471  0.2785
 1551TIP3   OH226211   6.460   3.457   1.771 -0.1275  0.3748  0.2217
 1551TIP3    H126212   6.436   3.380   1.720 -0.3684  1.2574 -1.0533
 1551TIP3    H226213   6.397   3.524   1.745  1.6242  1.7627 -0.6613
 1552TIP3   OH226214   0.751   5.449   2.494  0.0135  0.8477  0.6547
 1552TIP3    H126215   0.681   5.454   2.429 -1.2506 -0.8189  1.7705
 1552TIP3    H226216   0.744   5.359   2.528  3.5238  0.1936 -0.0288
 1553TIP3   OH226217   3.000   0.975   8.240 -0.8888  0.4002 -0.0546
 1553TIP3    H126218   2.966   1.046   8.186  0.7759  1.9268  0.7814
 1553TIP3    H226219   3.090   0.963   8.210  0.2642  1.6491  2.5852
 1554TIP3   OH226220   6.545   5.474   3.315 -0.5604 -0.2842 -0.2468
 1554TIP3    H126221   6.450   5.463   3.313 -0.6061  0.1464 -1.9474
 1554TIP3    H226222   6.573   5.453   3.226  0.7534  1.1909 -0.2160
 1555TIP3   OH226223   2.688   1.514   0.428  0.2751  0.2008  0.3066
 1555TIP3    H126224   2.766   1.555   0.392  0.5232 -0.8942 -0.4677
 1555TIP3    H226225   2.670   1.562   0.509  1.8879  0.3155  0.6283
 1556TIP3   OH226226   2.044   3.792   1.079 -0.1369  0.9811 -0.0381
 1556TIP3    H126227   2.132   3.796   1.116  0.0209 -1.0615 -0.0727
 1556TIP3    H226228   2.058   3.759   0.990 -0.9314  0.5368 -0.0046
 1557TIP3   OH226229   4.596   0.076   2.680 -0.7420 -0.4122 -0.2099
 1557TIP3    H126230   4.624   0.061   2.770 -2.6030  0.4557  0.5688
 1557TIP3    H226231   4.546  -0.002   2.656  0.2517 -0.9074 -0.7373
 1558TIP3   OH226232   1.012   0.080   3.963 -0.1923 -0.8586  0.1620
 1558TIP3    H126233   1.087   0.032   3.996  0.0834  0.3088  1.3439
 1558TIP3    H226234   1.046   0.168   3.944 -1.0231 -0.6322 -0.3433
 1559TIP3   OH226235   1.092   6.445   0.471 -0.1247 -0.5576 -0.2314
 1559TIP3    H126236   0.997   6.447   0.487  0.1078 -0.0356  1.2097
 1559TIP3    H226237   1.125   6.381   0.535  0.6966  0.5867  0.5226
 1560TIP3   OH226238   4.742   6.043   8.527  0.2490 -0.0695 -0.0462
 1560TIP3    H126239   4.696   5.959   8.521 -0.3216  0.2596 -0.3902
 1560TIP3    H226240   4.680   6.101   8.572  0.3606  0.3463 -0.4188
 1561TIP3   OH226241   6.042   0.840   1.209 -0.1148  0.0473  0.2514
 1561TIP3    H126242   6.121   0.793   1.185  0.0312  1.6495 -2.8131
 1561TIP3    H226243   6.045   0.843   1.305  4.8844  2.1416  0.3461
 1562TIP3   OH226244   4.687   3.813   2.682 -0.0750 -0.5003 -0.6337
 1562TIP3    H126245   4.660   3.770   2.601  1.9031 -0.1551 -1.5458
 1562TIP3    H226246   4.779   3.836   2.668 -0.1127  1.0116  1.1118
 1563TIP3   OH226247   2.212   2.283   2.312  0.3516  0.6189  0.4564
 1563TIP3    H126248   2.207   2.203   2.364  0.3533  0.0504 -0.4020
 1563TIP3    H226249   2.291   2.273   2.259 -0.8227  0.1176 -1.3254
 1564TIP3   OH226250   6.724   5.738   0.678 -0.7289  0.1219  0.0636
 1564TIP3    H126251   6.770   5.678   0.620 -0.3735  0.6560 -0.2177
 1564TIP3    H226252   6.657   5.684   0.721  0.1830 -0.6750  0.5098
 1565TIP3   OH226253   3.818   5.246   8.332 -0.3203  0.1283 -0.1996
 1565TIP3    H126254   3.871   5.240   8.253 -0.3455  2.6187 -0.4652
 1565TIP3    H226255   3.752   5.312   8.312 -1.9092 -0.9915  1.0533
 1566TIP3   OH226256   4.380   4.803   2.186  0.4858  0.7732  0.3203
 1566TIP3    H126257   4.312   4.849   2.136  1.5814  1.1931 -0.8503
 1566TIP3    H226258   4.430   4.755   2.120  1.4028  0.5705  1.1331
 1567TIP3   OH226259   3.053   3.901   2.303 -0.5698 -0.2657 -0.2263
 1567TIP3    H126260   3.039   3.911   2.397 -0.7925 -0.3059 -0.2559
 1567TIP3    H226261   3.025   3.811   2.284 -2.1145  0.2668 -0.6254
 1568TIP3   OH226262   3.725   1.304   1.919  0.2816 -0.3297 -0.1769
 1568TIP3    H126263   3.775   1.325   1.998 -0.4081 -1.3427  0.5680
 1568TIP3    H226264   3.664   1.236   1.948 -0.1898 -0.5001 -1.5236
 1569TIP3   OH226265   3.613   2.827   0.645  0.4271 -0.1626 -0.0015
 1569TIP3    H126266   3.700   2.787   0.645  0.4853 -0.0771 -1.2821
 1569TIP3    H226267   3.604   2.864   0.733  2.2974  1.1351 -0.2978
 1570TIP3   OH226268   1.896   2.793   2.858  0.1188  0.3039  0.4118
 1570TIP3    H126269   1.806   2.766   2.876  0.9789 -3.2626  0.1458
 1570TIP3    H226270   1.899   2.803   2.763 -0.1939  1.4092  0.5069
 1571TIP3   OH226271   3.781   3.241   0.294  0.3024  0.1626 -0.3221
 1571TIP3    H126272   3.713   3.251   0.227  2.3799 -0.8061 -2.7594
 1571TIP3    H226273   3.754   3.164   0.344 -0.0327 -0.7235 -1.8060
 1572TIP3   OH226274   2.235   3.472   0.582 -0.1449 -0.0010  0.1683
 1572TIP3    H126275   2.303   3.485   0.516 -1.1839  0.1589 -0.8971
 1572TIP3    H226276   2.283   3.464   0.665  1.3277 -2.0009 -0.7963
 1573TIP3   OH226277   6.340   1.173   8.345  0.1624  0.1459 -0.0033
 1573TIP3    H126278   6.318   1.265   8.336  1.7610  0.5565  0.0304
 1573TIP3    H226279   6.290   1.129   8.275  0.3085  1.1868 -0.7761
 1574TIP3   OH226280   1.225   4.583   2.603  0.0738  0.5433  0.4415
 1574TIP3    H126281   1.197   4.529   2.529  0.9049 -0.3674  0.7689
 1574TIP3    H226282   1.312   4.613   2.578  1.3060 -1.5429  1.9090
 1575TIP3   OH226283   3.711   5.202   3.143 -0.7748  0.1152 -0.0390
 1575TIP3    H126284   3.667   5.284   3.123  0.7929  0.7062 -1.2238
 1575TIP3    H226285   3.731   5.208   3.237  2.8623  3.0055 -0.7429
 1576TIP3   OH226286   6.333   3.037   1.378  0.4553  0.1917  0.4800
 1576TIP3    H126287   6.300   3.114   1.330 -1.3684 -1.0917 -0.4599
 1576TIP3    H226288   6.326   2.965   1.316  1.7703 -0.8400  1.4625
 1577TIP3   OH226289   2.553   0.826   0.223 -0.5271 -0.2555  0.0647
 1577TIP3    H126290   2.609   0.750   0.235 -1.2811 -0.9266 -0.5908
 1577TIP3    H226291   2.578   0.862   0.138  1.3705  1.5791  1.3039
 1578TIP3   OH226292   5.131   2.125   2.128 -0.4066 -0.4964 -0.4024
 1578TIP3    H126293   5.134   2.210   2.171  0.9420 -0.7178 -0.0200
 1578TIP3    H226294   5.037   2.110   2.112 -0.7139  0.7913  0.0182
 1579TIP3   OH226295   3.856   3.146   1.081 -0.2186  0.5737 -0.2867
 1579TIP3    H126296   3.781   3.192   1.041 -0.9852 -0.2565  0.1568
 1579TIP3    H226297   3.905   3.112   1.007 -0.5828  0.6568 -0.5717
 1580TIP3   OH226298   6.435   6.160   2.487 -0.5268 -0.2084 -0.0793
 1580TIP3    H126299   6.453   6.117   2.570 -0.1691  2.9535  1.6405
 1580TIP3    H226300   6.339   6.171   2.486 -0.4513  0.5801  0.4117
 1581TIP3   OH226301   6.525   4.404   8.455 -1.0449 -0.0790  0.1805
 1581TIP3    H126302   6.545   4.329   8.512  1.1380  0.4263  0.1446
 1581TIP3    H226303   6.440   4.435   8.487 -1.6359 -2.0632  0.7126
 1582TIP3   OH226304   6.094   6.632   4.239 -0.1431 -0.4369  0.2774
 1582TIP3    H126305   6.108   6.537   4.244  1.3367 -0.2566  0.2218
 1582TIP3    H226306   6.079   6.649   4.146 -0.7711 -0.6550  0.3363
 1583TIP3   OH226307   0.228   1.009   2.997  0.4099  0.0730 -0.3141
 1583TIP3    H126308   0.148   0.957   2.988  1.0235 -1.1529  1.0128
 1583TIP3    H226309   0.208   1.072   3.066  0.0324  0.9248 -1.1776
 1584TIP3   OH226310   5.072   6.799   0.441  0.3169 -0.4771 -0.3098
 1584TIP3    H126311   5.095   6.886   0.471  0.8379 -1.1024  1.1729
 1584TIP3    H226312   5.145   6.772   0.384 -0.0097  0.1650 -1.0482
 1585TIP3   OH226313   3.409   4.886   0.273  0.1803  0.9368 -0.0263
 1585TIP3    H126314   3.344   4.835   0.224  0.8998  0.8254 -0.8744
 1585TIP3    H226315   3.492   4.843   0.255  0.7715  2.2513 -0.5296
 1586TIP3   OH226316   1.490   4.448   1.828  0.0275  0.8773  0.1869
 1586TIP3    H126317   1.565   4.418   1.776 -1.3084 -1.5403 -0.5148
 1586TIP3    H226318   1.414   4.408   1.786 -1.7352  3.3491  0.7788
 1587TIP3   OH226319   6.734   3.787   8.133 -0.0085  0.1895  0.0912
 1587TIP3    H126320   6.806   3.728   8.113  1.4172  1.3101  1.6127
 1587TIP3    H226321   6.765   3.873   8.105 -1.0077  0.5922  0.1978
 1588TIP3   OH226322   2.585   5.083   2.649 -0.0787  0.5854  0.3936
 1588TIP3    H126323   2.591   5.147   2.577  0.6394  0.5324  0.3945
 1588TIP3    H226324   2.492   5.074   2.665 -0.6353 -2.2715 -3.1128
 1589TIP3   OH226325   2.501   4.524   2.693  0.8158 -0.2766 -0.0246
 1589TIP3    H126326   2.476   4.432   2.703  2.2802 -0.9130 -1.6944
 1589TIP3    H226327   2.555   4.542   2.770 -0.1345 -0.5575  0.7233
 1590TIP3   OH226328   2.811   2.354   8.661  0.1505 -0.3049 -0.0831
 1590TIP3    H126329   2.844   2.430   8.709 -1.1378 -0.6452  1.4385
 1590TIP3    H226330   2.886   2.295   8.657  0.9377  0.6904 -0.5680
 1591TIP3   OH226331   6.378   0.104   0.990  0.0716  0.0490  0.0448
 1591TIP3    H126332   6.407   0.058   0.912 -0.9789 -0.0852 -0.2777
 1591TIP3    H226333   6.300   0.152   0.962 -0.1758  0.1915  0.9482
 1592TIP3   OH226334   4.202   5.587   8.191  0.3409  0.4480  0.3236
 1592TIP3    H126335   4.243   5.526   8.130 -1.1010 -1.5161  1.1861
 1592TIP3    H226336   4.115   5.604   8.154  1.3437  3.6355 -0.8951
 1593TIP3   OH226337   5.496   1.484   2.331  0.8514 -0.4366  0.0727
 1593TIP3    H126338   5.560   1.464   2.262  1.3585 -1.3802  0.7874
 1593TIP3    H226339   5.433   1.413   2.326 -0.6531  0.9158 -1.1637
 1594TIP3   OH226340   4.923   2.083   0.841  0.0806  0.1786 -0.0457
 1594TIP3    H126341   4.974   2.002   0.835 -1.9008 -1.1098 -0.3460
 1594TIP3    H226342   4.949   2.120   0.925  2.1610  0.0845 -0.5682
 1595TIP3   OH226343   1.140   3.124   3.771  0.1108  0.0428  0.0071
 1595TIP3    H126344   1.130   3.071   3.850 -1.0071  0.1208 -0.0626
 1595TIP3    H226345   1.074   3.194   3.780 -0.5970 -0.4049 -1.3457
 1596TIP3   OH226346   3.381   2.580   0.760 -0.2336 -0.0069  0.2780
 1596TIP3    H126347   3.433   2.584   0.679 -1.6577 -1.0692 -0.7366
 1596TIP3    H226348   3.293   2.557   0.731 -0.5134 -1.6945  2.2553
 1597TIP3   OH226349   4.576   1.016   2.466 -1.3772 -0.0684 -0.5515
 1597TIP3    H126350   4.639   1.019   2.394 -0.9521 -1.0079 -0.2335
 1597TIP3    H226351   4.586   1.101   2.509 -1.1240  0.2237 -1.1704
 1598TIP3   OH226352   1.137   1.909   0.151 -0.3863  0.5210 -0.0948
 1598TIP3    H126353   1.214   1.953   0.189  0.2889  0.6811 -1.6000
 1598TIP3    H226354   1.171   1.826   0.117 -0.4209  1.4756 -2.6022
 1599TIP3   OH226355   4.539   3.374   1.683  0.4679 -0.1464 -0.0697
 1599TIP3    H126356   4.585   3.311   1.629  2.6034  1.2052  0.0637
 1599TIP3    H226357   4.579   3.367   1.769  1.7664  2.2429 -0.3725
 1600TIP3   OH226358   5.285   2.798   2.680  1.2608 -0.1230  0.3755
 1600TIP3    H126359   5.308   2.888   2.704  3.1811 -0.1319 -1.2576
 1600TIP3    H226360   5.191   2.803   2.661  1.5546  1.8232 -0.8698
 1601TIP3   OH226361   3.328   0.013   0.680  0.3679  0.1345  0.2082
 1601TIP3    H126362   3.282  -0.044   0.742  1.0870  1.0375  1.6145
 1601TIP3    H226363   3.281   0.096   0.684 -0.1282 -0.0639 -1.1579
 1602TIP3   OH226364   1.296   6.174   3.497 -0.4276 -0.1371  0.5482
 1602TIP3    H126365   1.341   6.093   3.472 -0.7059 -0.4138  0.9333
 1602TIP3    H226366   1.305   6.178   3.592  0.9768  1.1212  0.4016
 1603TIP3   OH226367   6.774   6.314   2.600  0.3260  0.4705  0.1479
 1603TIP3    H126368   6.789   6.301   2.694 -2.1660  2.6571  0.9770
 1603TIP3    H226369   6.822   6.394   2.579  0.5761  0.1919 -0.3573
 1604TIP3   OH226370   2.890   1.012   1.944 -0.2194  0.0694  0.4514
 1604TIP3    H126371   2.830   0.939   1.927 -3.1109  1.6940  2.7869
 1604TIP3    H226372   2.838   1.090   1.926  1.1437  1.5971  2.7160
 1605TIP3   OH226373   5.917   0.833   1.695  0.5155 -0.6055  0.1963
 1605TIP3    H126374   5.912   0.923   1.727  0.6354 -0.5293  0.0035
 1605TIP3    H226375   5.947   0.782   1.770 -3.4512 -1.1883  1.6444
 1606TIP3   OH226376   6.137   3.569   3.053  0.1152  0.0471 -0.2730
 1606TIP3    H126377   6.107   3.538   3.139  1.6841 -0.5472  0.0794
 1606TIP3    H226378   6.119   3.663   3.055 -0.1108 -0.0018  0.6041
 1607TIP3   OH226379   5.982   6.282   1.799 -0.1568 -0.1248  0.0350
 1607TIP3    H126380   5.888   6.281   1.782 -0.5099 -2.2444  1.6842
 1607TIP3    H226381   5.992   6.349   1.867 -1.0119 -1.9141  2.0409
 1608TIP3   OH226382   0.013   2.472   8.534 -0.3323  0.2511 -0.5190
 1608TIP3    H126383  -0.056   2.427   8.485 -1.2626 -0.6316  1.4901
 1608TIP3    H226384   0.062   2.401   8.577 -0.8565  1.0048  1.4593
 1609TIP3   OH226385   3.788   2.493   7.628  0.1283  0.0167  0.5393
 1609TIP3    H126386   3.742   2.547   7.692  0.1794  0.0330  0.5630
 1609TIP3    H226387   3.780   2.403   7.661  1.7638  0.2064  1.6008
 1610TIP3   OH226388   3.256   1.049   8.079 -0.2161 -0.7058  0.2575
 1610TIP3    H126389   3.228   1.104   8.006  0.2369 -0.6640  0.1122
 1610TIP3    H226390   3.342   1.016   8.053  1.1991  1.4402  1.8527
 1611TIP3   OH226391   0.555   2.956   1.525 -0.3773  0.2410  0.4467
 1611TIP3    H126392   0.634   2.924   1.568  0.1095  0.2397 -0.4335
 1611TIP3    H226393   0.564   3.052   1.526 -0.4109  0.2441  0.4360
 1612TIP3   OH226394   1.879   2.812   2.497 -0.0637 -0.1137 -0.1152
 1612TIP3    H126395   1.889   2.841   2.406 -0.5850  1.1439  0.1967
 1612TIP3    H226396   1.813   2.742   2.493 -0.3503  0.1763 -0.6696
 1613TIP3   OH226397   5.970   0.514   2.648  0.0613 -0.2727  0.2581
 1613TIP3    H126398   5.971   0.588   2.708  0.8605  0.2067 -0.3254
 1613TIP3    H226399   5.884   0.475   2.660 -0.7717  1.3440 -0.1423
 1614TIP3   OH226400   6.490   4.022   0.169  0.0078 -0.6973  0.4107
 1614TIP3    H126401   6.481   4.031   0.264 -0.8480 -2.9472  0.6086
 1614TIP3    H226402   6.438   4.094   0.134  0.9316  0.6219  1.6068
 1615TIP3   OH226403   2.247   2.171   5.956 -0.0586  0.2086  0.1528
 1615TIP3    H126404   2.166   2.219   5.971  0.3783  0.5074  1.6516
 1615TIP3    H226405   2.295   2.224   5.892 -1.0328  0.0240 -0.7467
 1616TIP3   OH226406   1.117   4.869   1.060  0.2037 -0.7673 -0.3393
 1616TIP3    H126407   1.212   4.866   1.048  0.1705  1.1531 -1.4957
 1616TIP3    H226408   1.083   4.803   0.999  0.7669 -1.5644  0.1794
 1617TIP3   OH226409   0.769   2.869   1.705 -0.4811  0.1471 -0.4693
 1617TIP3    H126410   0.764   2.848   1.799  0.8175 -0.1122 -0.4361
 1617TIP3    H226411   0.861   2.892   1.691  0.1997 -3.1668 -2.3471
 1618TIP3   OH226412   1.499   6.198   3.208  0.3908  0.1591  0.1841
 1618TIP3    H126413   1.490   6.109   3.242 -1.2202  0.6508  1.1949
 1618TIP3    H226414   1.586   6.227   3.236 -0.2084 -0.0808  2.4783
 1619TIP3   OH226415   2.184   3.535   1.602  0.1398  0.1950  0.0619
 1619TIP3    H126416   2.199   3.508   1.512  0.6534 -0.4817  0.3464
 1619TIP3    H226417   2.089   3.545   1.608  0.0938  0.1580 -0.5273
 1620TIP3   OH226418   6.453   0.758   8.713  0.1001 -0.1284 -0.4483
 1620TIP3    H126419   6.505   0.778   8.635  0.5484 -0.5249 -0.2616
 1620TIP3    H226420   6.506   0.792   8.786  0.2435 -0.7835 -0.2344
 1621TIP3   OH226421   0.034   6.430   0.215 -0.2865  0.1441 -0.3637
 1621TIP3    H126422   0.022   6.348   0.167  2.9599  0.1065 -1.3805
 1621TIP3    H226423   0.047   6.403   0.306  0.7366 -0.5314 -0.6889
 1622TIP3   OH226424   3.619   3.461   3.814  0.3786 -0.3820 -0.2327
 1622TIP3    H126425   3.578   3.376   3.826 -0.4824 -0.9194 -4.8063
 1622TIP3    H226426   3.666   3.453   3.731  1.1793  3.2703 -0.3158
 1623TIP3   OH226427   4.395   4.475   0.020 -0.2652 -0.4460 -0.1511
 1623TIP3    H126428   4.313   4.439  -0.014 -0.0375  0.3036 -1.5794
 1623TIP3    H226429   4.387   4.570   0.005  0.3899 -0.2412  0.7359
 1624TIP3   OH226430   5.701   5.601   3.167  0.1103 -0.1728  0.5023
 1624TIP3    H126431   5.718   5.509   3.183  0.4082  0.0150  1.2885
 1624TIP3    H226432   5.764   5.648   3.222 -0.3478  0.5033  0.4716
 1625TIP3   OH226433   6.326   5.330   3.498  0.4724 -0.0268 -0.2331
 1625TIP3    H126434   6.232   5.349   3.498  0.3334 -0.6995 -0.4871
 1625TIP3    H226435   6.337   5.258   3.560  0.6787 -0.5852 -0.8994
 1626TIP3   OH226436   5.801   0.456   3.045 -0.1687 -0.0246  0.1789
 1626TIP3    H126437   5.819   0.546   3.074 -0.5731  0.3856 -0.8044
 1626TIP3    H226438   5.843   0.401   3.111 -0.2015  0.8832  0.9815
 1627TIP3   OH226439   1.290   0.206   1.953 -0.2378  0.2495 -0.3388
 1627TIP3    H126440   1.277   0.137   2.018  1.6124 -0.1119 -0.2834
 1627TIP3    H226441   1.317   0.283   2.004 -0.6975  0.5420 -0.5315
 1628TIP3   OH226442   4.385   3.654   8.375  0.0021  0.1993 -0.0210
 1628TIP3    H126443   4.397   3.734   8.323  2.3266 -0.4375 -0.5808
 1628TIP3    H226444   4.369   3.585   8.311 -2.5759  0.2218  0.4896
 1629TIP3   OH226445   4.662   4.143   0.798 -0.3173 -0.3687  0.0814
 1629TIP3    H126446   4.573   4.176   0.811 -0.2432  0.1503 -0.6167
 1629TIP3    H226447   4.713   4.179   0.871 -0.2833  0.9405 -0.5563
 1630TIP3   OH226448   2.687   5.665   2.785  0.3862  0.1661 -0.1228
 1630TIP3    H126449   2.645   5.694   2.704  1.8061  0.4317 -0.7891
 1630TIP3    H226450   2.759   5.610   2.756  0.8586  0.1864  0.9687
 1631TIP3   OH226451   3.419   2.759   1.714 -0.1892 -0.0559  0.2573
 1631TIP3    H126452   3.430   2.727   1.803  4.2533  1.2855  0.4313
 1631TIP3    H226453   3.452   2.688   1.659  0.5309  0.5004 -0.0377
 1632TIP3   OH226454   0.306   2.420   1.001  0.1114 -0.3206 -0.0653
 1632TIP3    H126455   0.335   2.448   1.088  3.0396 -1.6430 -0.4971
 1632TIP3    H226456   0.360   2.472   0.941 -0.7010 -0.6169 -1.0690
 1633TIP3   OH226457   1.161   4.638   3.701 -0.0592 -0.0469  0.0775
 1633TIP3    H126458   1.100   4.670   3.767 -1.7562 -2.3419 -0.2727
 1633TIP3    H226459   1.130   4.677   3.619  0.6039  0.8676  0.2305
 1634TIP3   OH226460   0.556   2.467   2.524  0.0666 -0.1558 -0.0830
 1634TIP3    H126461   0.560   2.390   2.468 -2.1096  1.0048 -2.0270
 1634TIP3    H226462   0.612   2.531   2.481 -2.8823  1.3083 -2.1460
 1635TIP3   OH226463   4.491   6.235   0.688  0.3980 -0.1278  0.3648
 1635TIP3    H126464   4.477   6.168   0.620  1.0603  0.4033 -0.3162
 1635TIP3    H226465   4.558   6.293   0.651 -1.3371  1.8998  0.2270
 1636TIP3   OH226466   6.454   6.118   0.450 -0.3699 -0.0175 -0.0655
 1636TIP3    H126467   6.502   6.149   0.526 -0.2495 -0.3967  0.0191
 1636TIP3    H226468   6.494   6.033   0.430 -0.1175  0.2700 -0.8083
 1637TIP3   OH226469   0.972   1.082   1.280 -0.3193  0.5953  0.4176
 1637TIP3    H126470   1.017   1.143   1.222 -1.4307  1.3437  0.2960
 1637TIP3    H226471   0.881   1.112   1.280 -0.7654 -0.6739  0.8816
 1638TIP3   OH226472   1.803   3.148   3.028 -0.7560 -0.2193  0.0708
 1638TIP3    H126473   1.818   3.138   3.122 -2.1527 -1.3940  0.1935
 1638TIP3    H226474   1.882   3.192   2.996  0.1804 -0.7025  1.6246
 1639TIP3   OH226475   3.124   0.972   3.473 -0.0810  0.6116 -0.2999
 1639TIP3    H126476   3.041   0.970   3.521 -0.7391  1.1531 -1.3697
 1639TIP3    H226477   3.135   0.882   3.442  0.8079  0.0293  1.5539
 1640TIP3   OH226478   5.077   6.487   2.926 -0.7731 -0.0810 -0.3177
 1640TIP3    H126479   5.046   6.578   2.930 -0.0921  0.2421 -1.7550
 1640TIP3    H226480   4.997   6.435   2.921 -1.1985  0.7022 -3.3712
 1641TIP3   OH226481   0.481   5.216   1.031  0.1747  0.6400  0.2928
 1641TIP3    H126482   0.494   5.234   0.937 -1.7551  0.4943 -0.0377
 1641TIP3    H226483   0.494   5.121   1.038 -0.6841  0.4846 -0.0435
 1642TIP3   OH226484   5.316   2.254   1.757  0.2075 -0.0712  1.0946
 1642TIP3    H126485   5.382   2.228   1.821 -0.5477 -1.5376  1.3060
 1642TIP3    H226486   5.340   2.344   1.734  2.0517 -0.4464  1.4247
 1643TIP3   OH226487   4.770   6.109   0.192 -0.3875 -0.5345  0.2157
 1643TIP3    H126488   4.800   6.089   0.280 -0.8081  1.1827  0.7912
 1643TIP3    H226489   4.695   6.051   0.177 -0.2318 -0.9228  0.9405
 1644TIP3   OH226490   1.656   3.910   3.577  0.8712 -0.3788 -0.4771
 1644TIP3    H126491   1.608   3.953   3.506  0.6470  0.7140  0.3120
 1644TIP3    H226492   1.612   3.826   3.589 -1.2467  0.8182  0.6062
 1645TIP3   OH226493   1.670   3.784   8.108 -0.1122 -0.2064 -0.2854
 1645TIP3    H126494   1.691   3.857   8.165 -0.9801 -0.5589  0.5250
 1645TIP3    H226495   1.732   3.715   8.133  0.0288 -0.0879 -0.3151
 1646TIP3   OH226496   5.984   3.566   2.804 -0.1975 -0.1172  0.1541
 1646TIP3    H126497   6.038   3.572   2.883 -2.3539  0.3597  1.6767
 1646TIP3    H226498   6.007   3.482   2.765  1.0386 -0.2806  1.1839
 1647TIP3   OH226499   3.835   4.990   1.664  0.0088 -0.0542  0.5013
 1647TIP3    H126500   3.776   5.026   1.598 -0.4939  1.1204  1.5433
 1647TIP3    H226501   3.899   4.940   1.614 -0.5195  0.5547 -0.8435
 1648TIP3   OH226502   3.269   0.420   2.260  0.2748 -0.1335 -0.1695
 1648TIP3    H126503   3.196   0.464   2.216 -0.0326 -0.9474 -0.4950
 1648TIP3    H226504   3.331   0.400   2.189  0.0001 -1.0217 -0.1600
 1649TIP3   OH226505   4.950   5.610   1.656 -0.1269 -0.0864 -0.8033
 1649TIP3    H126506   4.968   5.516   1.642  0.8516 -0.0596  0.1069
 1649TIP3    H226507   4.860   5.612   1.687 -0.0401 -0.7715 -0.4707
 1650TIP3   OH226508   1.125   3.937   2.397 -0.1500 -0.1254  0.0315
 1650TIP3    H126509   1.193   3.950   2.463 -2.0449  1.0754  1.9029
 1650TIP3    H226510   1.080   3.856   2.425 -1.9974  1.2448  1.3385
 1651TIP3   OH226511   1.799   1.884   3.181  0.4556  0.4839 -0.2412
 1651TIP3    H126512   1.808   1.978   3.165 -0.1471  0.8219  1.3142
 1651TIP3    H226513   1.719   1.860   3.134 -1.1238  1.4099  1.8064
 1652TIP3   OH226514   4.464   0.752   3.553  0.0818  0.1729  0.3093
 1652TIP3    H126515   4.526   0.690   3.590  0.8769 -0.8581 -2.5023
 1652TIP3    H226516   4.490   0.837   3.590 -0.0424 -0.8526  2.9943
 1653TIP3   OH226517   5.467   1.377   8.736 -0.1882 -0.4238 -0.6609
 1653TIP3    H126518   5.466   1.286   8.767 -3.6481 -0.2421  0.1578
 1653TIP3    H226519   5.382   1.389   8.694  0.5284  2.2266 -1.5643
 1654TIP3   OH226520   5.396   5.405   2.382  0.0698 -0.3989 -0.0339
 1654TIP3    H126521   5.437   5.403   2.469 -0.4699 -2.6962  0.2286
 1654TIP3    H226522   5.452   5.464   2.331 -0.7403  2.7198  2.3519
 1655TIP3   OH226523   2.924   4.288   0.467  0.5074 -0.3275  0.0790
 1655TIP3    H126524   2.926   4.237   0.548 -0.3930  0.6600  0.7286
 1655TIP3    H226525   2.926   4.379   0.495 -1.2963  0.0651 -0.9264
 1656TIP3   OH226526   2.683   4.568   0.835 -0.4650  0.3849 -0.7653
 1656TIP3    H126527   2.749   4.519   0.884 -0.3797  1.5427  0.3179
 1656TIP3    H226528   2.600   4.546   0.878 -0.4747  0.8782 -0.5282
 1657TIP3   OH226529   5.158   2.102   8.108  0.0940  0.1465  0.8074
 1657TIP3    H126530   5.116   2.017   8.123 -1.3873  0.5271 -0.8549
 1657TIP3    H226531   5.108   2.141   8.036  1.9044  1.6529  0.3029
 1658TIP3   OH226532   2.978   3.730   2.689  0.5824 -0.4302 -0.4154
 1658TIP3    H126533   2.953   3.791   2.758 -0.6220  0.4415 -1.5939
 1658TIP3    H226534   3.010   3.653   2.737 -1.2441 -0.3050  1.1540
 1659TIP3   OH226535   5.456   4.731   1.560 -0.2389  0.2857  0.5256
 1659TIP3    H126536   5.489   4.785   1.632  2.3659  0.9517 -1.0237
 1659TIP3    H226537   5.514   4.655   1.558 -1.1069 -0.3822 -0.0632
 1660TIP3   OH226538   5.765   0.089   1.917 -0.6302 -0.1580 -0.4750
 1660TIP3    H126539   5.681   0.047   1.896 -0.0683 -0.7153 -1.7123
 1660TIP3    H226540   5.830   0.022   1.896  0.1215  0.2253  0.5953
 1661TIP3   OH226541   2.713   6.136   0.656  0.2670 -0.1278  0.6820
 1661TIP3    H126542   2.710   6.051   0.700  2.0602  0.4433  2.0230
 1661TIP3    H226543   2.696   6.199   0.725  4.6914  0.8910  1.1326
 1662TIP3   OH226544   4.916   4.284   3.064 -0.1177  0.0348 -0.1567
 1662TIP3    H126545   4.995   4.310   3.112 -1.5458  1.1394  1.7488
 1662TIP3    H226546   4.946   4.268   2.975  2.1755  0.8495  0.4002
 1663TIP3   OH226547   3.350   6.660   0.888 -0.3512 -0.4295  0.3143
 1663TIP3    H126548   3.441   6.685   0.907 -1.0912  1.8717  1.1861
 1663TIP3    H226549   3.311   6.647   0.975 -1.6397  1.9384  0.1964
 1664TIP3   OH226550   4.669   4.278   0.071 -0.7428 -0.6539  0.3163
 1664TIP3    H126551   4.753   4.317   0.047 -0.1569 -1.8211  0.3852
 1664TIP3    H226552   4.623   4.346   0.120 -0.2232  0.3167 -0.4986
 1665TIP3   OH226553   0.644   6.236   2.073 -0.6051 -0.4344  0.6287
 1665TIP3    H126554   0.563   6.192   2.045 -1.2197  0.3146  1.1797
 1665TIP3    H226555   0.627   6.261   2.164 -0.4060  1.1991  0.2511
 1666TIP3   OH226556   6.362   0.370   3.010 -0.4150 -0.8786  0.3483
 1666TIP3    H126557   6.308   0.422   2.950  0.2579 -0.8060 -0.2085
 1666TIP3    H226558   6.389   0.295   2.958 -0.5165 -1.2561  0.8320
 1667TIP3   OH226559   6.711   0.610   1.668  0.1989  0.6550 -0.3329
 1667TIP3    H126560   6.649   0.653   1.610  0.0977  2.4643  1.0316
 1667TIP3    H226561   6.787   0.668   1.669  1.4921 -0.9453 -1.0747
 1668TIP3   OH226562   0.539   5.359   0.527 -0.5107 -0.5755 -0.1427
 1668TIP3    H126563   0.484   5.433   0.551  0.9765  1.4723 -2.5724
 1668TIP3    H226564   0.479   5.298   0.484 -1.1782  1.1086 -1.7538
 1669TIP3   OH226565   4.510   0.780   2.640  0.3480  0.1923 -0.1624
 1669TIP3    H126566   4.568   0.711   2.672  2.4653  1.1828 -1.5761
 1669TIP3    H226567   4.563   0.860   2.647 -2.0033  1.7532  1.4241
 1670TIP3   OH226568   2.717   5.271   0.640  0.1436  0.4726  0.1336
 1670TIP3    H126569   2.728   5.365   0.655  0.7847  0.3109  0.7218
 1670TIP3    H226570   2.801   5.242   0.606 -0.3944  0.2988 -1.0728
 1671TIP3   OH226571   4.896   2.921   1.800  0.1510  0.2861 -0.7382
 1671TIP3    H126572   4.839   2.960   1.733 -1.2424 -3.1356 -1.7750
 1671TIP3    H226573   4.923   2.838   1.762  3.5608  0.4722  0.9931
 1672TIP3   OH226574   4.359   1.756   1.919 -0.1295 -0.7542 -0.1658
 1672TIP3    H126575   4.316   1.727   1.999 -1.4116 -0.1181 -0.5941
 1672TIP3    H226576   4.288   1.760   1.854  0.3492  1.3870 -0.6202
 1673TIP3   OH226577   2.563   3.784   3.325  0.7037 -0.2341 -0.2024
 1673TIP3    H126578   2.494   3.754   3.266 -1.3875  1.9064  0.9858
 1673TIP3    H226579   2.613   3.848   3.274  0.7746 -0.5514 -0.5340
 1674TIP3   OH226580   6.228   3.688   8.344  0.1687 -0.3947  0.5528
 1674TIP3    H126581   6.205   3.600   8.374  1.8622 -0.7250  0.9895
 1674TIP3    H226582   6.168   3.746   8.390  0.2240 -1.2007  1.6698
 1675TIP3   OH226583   6.326   6.489   2.987 -0.4147 -0.2756 -0.2460
 1675TIP3    H126584   6.388   6.416   2.996  0.7333  0.7686  0.5428
 1675TIP3    H226585   6.279   6.469   2.906  1.9319 -0.4110 -1.6891
 1676TIP3   OH226586   3.300   2.728   0.026  0.0690 -0.4292 -0.5521
 1676TIP3    H126587   3.284   2.763  -0.061 -0.3448 -0.7564 -0.6158
 1676TIP3    H226588   3.214   2.732   0.069  0.4224  0.4454  0.1090
 1677TIP3   OH226589   5.592   5.634   2.381 -0.4293 -0.0466  0.0173
 1677TIP3    H126590   5.601   5.584   2.462 -1.0276 -0.2794 -0.0548
 1677TIP3    H226591   5.619   5.723   2.404 -1.3584  0.0772  0.6894
 1678TIP3   OH226592   3.243   1.248   7.861 -0.6126  0.2472 -0.0480
 1678TIP3    H126593   3.333   1.265   7.888  0.1090 -1.4773 -1.1710
 1678TIP3    H226594   3.208   1.333   7.835  0.0646  1.2400  2.1194
 1679TIP3   OH226595   0.827   4.321   2.473  0.6051 -0.1080  0.1248
 1679TIP3    H126596   0.806   4.363   2.390  0.1299 -0.6709 -0.0477
 1679TIP3    H226597   0.774   4.366   2.538 -1.5112 -1.7526 -0.3554
 1680TIP3   OH226598   1.782   3.974   8.291 -0.9822 -0.1766  0.5087
 1680TIP3    H126599   1.728   4.004   8.364  0.3053  0.5563  1.2028
 1680TIP3    H226600   1.774   4.043   8.225 -0.9735 -0.1104  0.5770
 1681TIP3   OH226601   1.584   0.778   1.270  0.2443  0.3213 -0.5455
 1681TIP3    H126602   1.624   0.717   1.332 -1.0231 -0.3468 -0.3635
 1681TIP3    H226603   1.562   0.855   1.324 -1.1023 -0.3665 -0.0771
 1682TIP3   OH226604   1.676   1.290   0.910 -0.2587 -1.0333  0.4404
 1682TIP3    H126605   1.744   1.357   0.904  0.9053 -2.0645  1.5098
 1682TIP3    H226606   1.594   1.339   0.920  0.5814  0.2437  1.4017
 1683TIP3   OH226607   6.216   3.348   3.595 -0.1378  0.1179  0.5147
 1683TIP3    H126608   6.128   3.385   3.584 -0.1384  0.1627  0.6713
 1683TIP3    H226609   6.260   3.408   3.655  0.3616  0.6988 -0.4094
 1684TIP3   OH226610   5.150   1.796   0.039  0.0428  0.4361  0.0091
 1684TIP3    H126611   5.060   1.791   0.072  0.3747 -0.2008  0.8572
 1684TIP3    H226612   5.182   1.707   0.044  1.1444  0.8608  0.9358
 1685TIP3   OH226613   5.075   1.669   8.216 -0.6147 -0.2268 -0.2822
 1685TIP3    H126614   5.046   1.582   8.188  0.4954 -0.1037 -1.9638
 1685TIP3    H226615   5.047   1.728   8.145 -2.2075  0.9926  1.2661
 1686TIP3   OH226616   0.545   5.871   0.424  0.3549  0.0313  0.0971
 1686TIP3    H126617   0.460   5.875   0.380  0.2349 -0.0153  0.3238
 1686TIP3    H226618   0.536   5.930   0.499 -0.0991 -1.3743  1.1818
 1687TIP3   OH226619   5.755   4.137   0.839  0.1135  0.0751  0.0239
 1687TIP3    H126620   5.781   4.050   0.870  0.3770  0.0366 -0.2998
 1687TIP3    H226621   5.739   4.125   0.745  0.5772  0.4667 -0.1074
 1688TIP3   OH226622   6.559   1.708   1.130  0.1083  0.3104 -0.2180
 1688TIP3    H126623   6.503   1.700   1.207  0.6822  0.6502  0.2398
 1688TIP3    H226624   6.612   1.629   1.131  0.9072  0.8365  0.3854
 1689TIP3   OH226625   5.882   1.636   3.077 -0.2667 -0.5386  0.7647
 1689TIP3    H126626   5.853   1.676   3.158  1.8692 -0.1188  1.3858
 1689TIP3    H226627   5.901   1.545   3.100  1.1332 -0.2137  0.9773
 1690TIP3   OH226628   0.855   0.321   3.234  0.8487 -0.3184 -0.3602
 1690TIP3    H126629   0.893   0.256   3.174 -0.0308 -2.6576  1.4687
 1690TIP3    H226630   0.924   0.386   3.244  2.5167 -1.8987 -0.8931
 1691TIP3   OH226631   1.205   3.859   2.131 -0.2104  0.2977  0.3323
 1691TIP3    H126632   1.163   3.856   2.218  0.2854  1.6001  0.6271
 1691TIP3    H226633   1.297   3.876   2.149  0.3395 -1.6231 -0.3692
 1692TIP3   OH226634   1.139   0.548   3.863 -0.1187  0.0209 -0.2808
 1692TIP3    H126635   1.134   0.641   3.838 -2.3303  0.1254  0.2931
 1692TIP3    H226636   1.140   0.550   3.959  0.9044 -0.5284 -0.2787
 1693TIP3   OH226637   6.630   0.497   3.452 -0.7409  0.0356  0.3476
 1693TIP3    H126638   6.599   0.480   3.363 -0.2067 -0.0129  0.1703
 1693TIP3    H226639   6.657   0.412   3.485 -1.4051 -0.0298  0.7425
 1694TIP3   OH226640   0.558   4.294   3.510 -0.0875 -0.6627  0.0338
 1694TIP3    H126641   0.497   4.222   3.495 -0.9270  0.1199 -0.4224
 1694TIP3    H226642   0.528   4.364   3.452  2.1774 -0.7568 -1.3806
 1695TIP3   OH226643   1.313   0.928   3.127 -0.0935 -0.9565  0.4467
 1695TIP3    H126644   1.380   0.940   3.059 -0.0120  0.7627  0.8003
 1695TIP3    H226645   1.358   0.947   3.209 -0.6766 -1.1427  0.8142
 1696TIP3   OH226646   4.855   6.571   2.718 -0.2900 -0.4508  0.0874
 1696TIP3    H126647   4.828   6.501   2.778  1.5278 -1.7479 -0.5187
 1696TIP3    H226648   4.773   6.602   2.679 -1.3641 -0.5906  2.1132
 1697TIP3   OH226649   6.172   6.158   2.656  0.5598 -0.0079 -0.0692
 1697TIP3    H126650   6.157   6.250   2.682 -2.4918 -0.8911  1.9411
 1697TIP3    H226651   6.084   6.125   2.637  1.2701 -3.0540  1.3988
 1698TIP3   OH226652   1.300   0.193   3.607  0.6562  0.0069  0.0377
 1698TIP3    H126653   1.350   0.259   3.559 -0.6647  0.3313 -0.9391
 1698TIP3    H226654   1.362   0.160   3.672  1.9278  0.8662 -0.6763
 1699TIP3   OH226655   2.002   5.384   0.849  0.0431  0.1440 -0.0494
 1699TIP3    H126656   1.950   5.399   0.770 -0.6055  1.0397  0.5303
 1699TIP3    H226657   1.985   5.460   0.904  2.4141  0.7867 -0.0584
 1700TIP3   OH226658   1.388   1.442   2.440  0.1170  0.4896  0.1902
 1700TIP3    H126659   1.447   1.495   2.493  2.2869 -0.6953 -0.8712
 1700TIP3    H226660   1.386   1.485   2.355 -0.3113  0.3461  0.1216
 1701TIP3   OH226661   0.732   0.821   0.694 -0.2481 -0.0683 -0.0743
 1701TIP3    H126662   0.677   0.879   0.747  1.1180  0.7571  0.4994
 1701TIP3    H226663   0.821   0.839   0.724  0.3455 -1.3432 -0.9981
 1702TIP3   OH226664   2.209   5.351   2.160  0.3348 -0.1406  0.1410
 1702TIP3    H126665   2.198   5.382   2.070  0.5265  0.0409  0.1810
 1702TIP3    H226666   2.140   5.396   2.210 -2.2679 -3.0064 -0.5642
 1703TIP3   OH226667   2.568   2.470   2.229 -0.0007  0.1532 -0.3255
 1703TIP3    H126668   2.484   2.461   2.184 -0.6732  0.4109  0.8405
 1703TIP3    H226669   2.606   2.550   2.192 -0.3493  0.1477 -0.7122
 1704TIP3   OH226670   2.204   4.440   0.623  0.3780 -0.2721 -0.0143
 1704TIP3    H126671   2.261   4.363   0.633 -0.5951 -1.1050 -0.5971
 1704TIP3    H226672   2.232   4.480   0.541  1.5539  0.5977  0.7901
 1705TIP3   OH226673   6.132   3.381   3.265  0.4281  0.5647  0.8495
 1705TIP3    H126674   6.190   3.327   3.211 -3.0777 -3.4425  0.5688
 1705TIP3    H226675   6.155   3.359   3.355  0.6333  0.4953  0.7793
 1706TIP3   OH226676   0.548   6.307   2.379  0.9428  0.4316  0.0944
 1706TIP3    H126677   0.601   6.386   2.365  2.0590 -0.7045 -2.8784
 1706TIP3    H226678   0.590   6.263   2.453  0.8432  2.1165  1.2229
 1707TIP3   OH226679   4.775   6.566   1.703 -0.3785  0.4395  0.3103
 1707TIP3    H126680   4.690   6.593   1.738 -1.1783 -0.0224 -1.1764
 1707TIP3    H226681   4.791   6.480   1.741 -1.3555 -0.1703 -0.6171
 1708TIP3   OH226682   6.568   0.576   7.828 -0.0857 -0.2590  0.1555
 1708TIP3    H126683   6.488   0.584   7.776 -0.0986 -1.2587 -0.0092
 1708TIP3    H226684   6.627   0.523   7.774  0.1301 -0.7856  0.8819
 1709TIP3   OH226685   4.188   4.314   8.676 -0.0191  0.0747  0.2674
 1709TIP3    H126686   4.253   4.244   8.668 -0.1928  0.0257 -0.7608
 1709TIP3    H226687   4.145   4.317   8.591 -0.2142  1.2423  0.3990
 1710TIP3   OH226688   1.685   0.555   4.009  0.1507 -0.7826  0.4123
 1710TIP3    H126689   1.680   0.639   3.963  2.4981 -0.4244  0.6765
 1710TIP3    H226690   1.613   0.557   4.072 -0.5888  0.4814 -0.4480
 1711TIP3   OH226691   3.059   3.402   2.040 -0.1551  0.1975  0.1610
 1711TIP3    H126692   3.148   3.375   2.017 -0.0518 -0.9648  1.7382
 1711TIP3    H226693   3.003   3.344   1.988 -0.1791  2.8385 -3.1271
 1712TIP3   OH226694   3.037   4.480   1.985 -0.4789 -0.4158  0.5404
 1712TIP3    H126695   3.054   4.482   2.079 -0.9607 -0.9532  0.6389
 1712TIP3    H226696   3.078   4.399   1.954  2.7127  1.3538 -0.3239
 1713TIP3   OH226697   5.824   2.216   1.621 -0.6742  0.4076  0.5336
 1713TIP3    H126698   5.800   2.127   1.593 -0.2382  0.9349 -1.6935
 1713TIP3    H226699   5.767   2.273   1.571 -0.3779  1.4238  1.3249
 1714TIP3   OH226700   4.875   5.349   3.608 -0.8211 -0.4472 -0.4063
 1714TIP3    H126701   4.926   5.269   3.588 -0.4216 -1.1593  2.8952
 1714TIP3    H226702   4.925   5.419   3.567  0.5873 -1.5907 -0.7597
 1715TIP3   OH226703   5.020   4.674   8.732 -0.0768  0.4607 -0.1155
 1715TIP3    H126704   5.033   4.584   8.701  1.9284  0.9164 -0.7511
 1715TIP3    H226705   4.930   4.675   8.764  0.7511 -2.6646  2.9581
 1716TIP3   OH226706   4.919   6.619   1.468 -0.0826 -0.2608 -0.0213
 1716TIP3    H126707   4.849   6.594   1.530  1.0267 -2.1808  0.5563
 1716TIP3    H226708   4.978   6.674   1.520 -0.4208  0.1878 -0.1049
 1717TIP3   OH226709   2.742   0.813   3.187 -0.4895  0.0878  0.6847
 1717TIP3    H126710   2.808   0.882   3.187  0.0209 -0.3556 -0.8690
 1717TIP3    H226711   2.721   0.800   3.280  2.3550 -0.4616  1.3411
 1718TIP3   OH226712   6.183   2.755   2.474 -0.0875 -0.1962 -0.1762
 1718TIP3    H126713   6.258   2.704   2.505  1.7758  1.4682 -1.7416
 1718TIP3    H226714   6.209   2.846   2.484 -1.3271  0.4282 -2.0736
 1719TIP3   OH226715   6.145   3.551   2.209 -0.3185 -0.0356 -0.0821
 1719TIP3    H126716   6.136   3.528   2.117  0.5309  0.2354 -0.2363
 1719TIP3    H226717   6.198   3.630   2.209  0.5143 -0.5737  0.6922
 1720TIP3   OH226718   1.705   5.093   3.198 -0.3614  0.1579 -0.0749
 1720TIP3    H126719   1.703   5.149   3.276  1.0273  0.0018  0.1084
 1720TIP3    H226720   1.730   5.007   3.231  0.6418  0.1841 -0.7171
 1721TIP3   OH226721   5.816   4.151   1.809 -0.4203 -0.2048 -0.3194
 1721TIP3    H126722   5.802   4.184   1.898  0.4437  0.5764 -0.4527
 1721TIP3    H226723   5.834   4.058   1.821  0.6482  0.0756  0.4403
 1722TIP3   OH226724   6.454   4.040   1.283 -0.0506 -0.1952 -0.3876
 1722TIP3    H126725   6.367   4.080   1.279 -0.0712 -0.0570  1.0848
 1722TIP3    H226726   6.443   3.954   1.243 -0.3056  0.7096 -2.4033
 1723TIP3   OH226727   3.386   2.212   3.304  0.0038  0.2387  0.1900
 1723TIP3    H126728   3.437   2.133   3.322 -1.6275 -0.5112  1.8503
 1723TIP3    H226729   3.299   2.179   3.283 -1.1839  1.5671  2.6091
 1724TIP3   OH226730   2.525   1.941   1.779 -0.1640 -0.3439 -0.8207
 1724TIP3    H126731   2.465   1.998   1.730 -1.0399 -1.5795 -1.2445
 1724TIP3    H226732   2.494   1.853   1.759  3.4007 -1.2534 -3.2631
 1725TIP3   OH226733   0.634   3.172   2.407 -0.2057  0.0616 -0.2033
 1725TIP3    H126734   0.622   3.225   2.486 -1.5850 -0.4631 -0.0287
 1725TIP3    H226735   0.707   3.114   2.428  0.0201  0.5309  0.3515
 1726TIP3   OH226736   3.934   2.721   1.179 -0.2143 -0.5219 -0.0176
 1726TIP3    H126737   3.989   2.645   1.201 -1.8568 -1.6099  0.5309
 1726TIP3    H226738   3.996   2.787   1.147  1.4101 -1.6401  0.6747
 1727TIP3   OH226739   0.864   4.576   8.053  0.1038  0.1279  0.3832
 1727TIP3    H126740   0.845   4.669   8.062  1.1815  0.2853  1.1632
 1727TIP3    H226741   0.783   4.532   8.080 -0.1007  0.8177  0.9097
 1728TIP3   OH226742   5.132   3.541   0.669  0.4492 -0.0389 -0.0958
 1728TIP3    H126743   5.087   3.549   0.584 -1.4741  1.9617  0.9868
 1728TIP3    H226744   5.080   3.477   0.718  0.1675  0.5064  0.3354
 1729TIP3   OH226745   6.544   0.491   0.038  0.0013  0.0081  0.1736
 1729TIP3    H126746   6.529   0.574  -0.007 -1.3842 -1.2692 -1.9079
 1729TIP3    H226747   6.462   0.475   0.085 -0.1400 -0.6601 -0.2934
 1730TIP3   OH226748   5.025   4.216   8.421 -0.1429  0.3535  0.5208
 1730TIP3    H126749   5.020   4.161   8.343 -0.5868  0.8051  0.2290
 1730TIP3    H226750   5.119   4.224   8.439 -0.0845 -1.1001  1.0014
 1731TIP3   OH226751   2.388   2.130   1.658 -0.3734 -0.1317  0.7505
 1731TIP3    H126752   2.385   2.127   1.562  2.1881 -0.8036  0.6284
 1731TIP3    H226753   2.401   2.223   1.678  0.4474 -0.1519  0.3606
 1732TIP3   OH226754   6.792   0.443   3.128 -0.0667 -0.1354 -0.0287
 1732TIP3    H126755   6.879   0.482   3.116 -0.9251  1.2428 -2.4469
 1732TIP3    H226756   6.799   0.356   3.089  0.6063 -0.6977  1.2562
 1733TIP3   OH226757   5.292   1.910   1.616  0.8006  0.6454  0.4175
 1733TIP3    H126758   5.360   1.842   1.617  1.6116  1.3339 -2.0359
 1733TIP3    H226759   5.331   1.983   1.568 -1.8442  0.8364 -1.6375
 1734TIP3   OH226760   5.034   4.075   8.073  0.0634  0.1645 -0.6498
 1734TIP3    H126761   5.074   4.039   7.994  0.4686 -2.2411  0.5406
 1734TIP3    H226762   5.096   4.055   8.143 -1.5567 -0.4131  0.7019
 1735TIP3   OH226763   3.792   4.198   2.569  0.1010 -0.3307  0.0168
 1735TIP3    H126764   3.881   4.164   2.578  0.1266 -0.6630 -1.2490
 1735TIP3    H226765   3.767   4.175   2.479 -1.1215  0.0918  0.2328
 1736TIP3   OH226766   2.339   4.172   3.742  0.1047 -0.5367  0.2050
 1736TIP3    H126767   2.381   4.147   3.659 -1.7378 -0.9768 -0.6467
 1736TIP3    H226768   2.412   4.200   3.798  1.4989 -1.0919 -1.2414
 1737TIP3   OH226769   2.335   1.379   1.924 -0.4348  0.1554  0.3787
 1737TIP3    H126770   2.303   1.398   1.836  1.2931 -0.6018 -0.4733
 1737TIP3    H226771   2.394   1.452   1.944 -2.6511  1.6283  1.9926
 1738TIP3   OH226772   5.566   2.818   0.932 -0.3334  0.1510  0.1047
 1738TIP3    H126773   5.491   2.858   0.975 -0.4796  0.8477 -0.7631
 1738TIP3    H226774   5.624   2.793   1.003 -1.1639  0.0413  0.7667
 1739TIP3   OH226775   6.264   6.201   1.832 -0.1668  0.9481 -0.7866
 1739TIP3    H126776   6.308   6.179   1.914 -1.6314 -1.5847 -0.6012
 1739TIP3    H226777   6.220   6.284   1.851 -1.1182  0.0390  1.2715
 1740TIP3   OH226778   3.889   2.852   2.772 -0.0913  0.5738  0.0716
 1740TIP3    H126779   3.901   2.763   2.738 -0.0449  0.8698 -0.7021
 1740TIP3    H226780   3.975   2.878   2.804 -0.1743  0.2268  0.5870
 1741TIP3   OH226781   6.525   5.167   3.343  0.7685  0.0249 -0.1033
 1741TIP3    H126782   6.497   5.257   3.361  1.6490  0.2075  0.4196
 1741TIP3    H226783   6.529   5.161   3.248 -0.1930  0.2537 -0.1613
 1742TIP3   OH226784   2.838   3.092   1.087  0.1342 -0.2593  0.1024
 1742TIP3    H126785   2.850   3.158   1.019 -0.3048  1.7365  1.8577
 1742TIP3    H226786   2.745   3.098   1.111 -0.3332 -2.7181 -0.8148
 1743TIP3   OH226787   1.537   1.260   8.155  0.6965 -0.1152  0.0185
 1743TIP3    H126788   1.496   1.183   8.194 -1.4714  1.2366  0.6017
 1743TIP3    H226789   1.576   1.228   8.073  2.7247 -2.4033  1.7598
 1744TIP3   OH226790   2.404   2.828   3.054 -0.7568  0.2494  0.2465
 1744TIP3    H126791   2.424   2.737   3.036 -1.7339 -0.5177  2.6543
 1744TIP3    H226792   2.467   2.855   3.120 -2.0838  0.4375  1.5072
 1745TIP3   OH226793   5.721   5.560   0.630  0.6025 -0.1293 -0.2265
 1745TIP3    H126794   5.707   5.645   0.589 -0.6729 -0.1065  0.2244
 1745TIP3    H226795   5.810   5.535   0.605  0.1201  0.1969 -2.4183
 1746TIP3   OH226796   5.362   1.154   1.907 -0.0856  0.1777 -0.2086
 1746TIP3    H126797   5.382   1.072   1.863 -0.8872 -1.3545  2.0854
 1746TIP3    H226798   5.289   1.191   1.857 -0.8662 -1.3941 -0.2848
 1747TIP3   OH226799   2.378   1.290   1.508 -0.1473 -0.0259 -0.7560
 1747TIP3    H126800   2.383   1.214   1.566 -1.1293  1.4084  1.3456
 1747TIP3    H226801   2.307   1.270   1.447 -0.4771 -0.7479 -0.1436
 1748TIP3   OH226802   3.857   5.596   2.240  0.0938  0.0731  0.3372
 1748TIP3    H126803   3.900   5.541   2.306 -0.1117 -0.3179  0.1474
 1748TIP3    H226804   3.793   5.648   2.290  0.9334  0.8295  0.6574
 1749TIP3   OH226805   0.331   4.534   8.549 -0.3428 -0.2487  0.1971
 1749TIP3    H126806   0.255   4.586   8.575 -1.0903 -0.3557 -1.5945
 1749TIP3    H226807   0.300   4.444   8.548 -0.2610 -0.2758 -0.6976
 1750TIP3   OH226808   2.666   0.163   2.196 -0.3098  0.1975 -0.1201
 1750TIP3    H126809   2.657   0.191   2.105 -1.9247  0.3951  0.0794
 1750TIP3    H226810   2.650   0.242   2.247  1.1039  0.2050  0.3489
 1751TIP3   OH226811   4.124   0.845   1.230  0.3793 -0.6135  0.7073
 1751TIP3    H126812   4.102   0.932   1.196 -0.1359 -1.3554 -1.0020
 1751TIP3    H226813   4.212   0.855   1.266  0.3395  0.6074  0.5263
 1752TIP3   OH226814   6.399   4.669   0.280  0.4001  0.1163 -0.0841
 1752TIP3    H126815   6.456   4.610   0.231  1.3668 -0.2490  1.4165
 1752TIP3    H226816   6.406   4.752   0.233  1.1720 -0.2538 -0.6651
 1753TIP3   OH226817   0.413   5.113   1.951  0.3738  0.2179 -0.4657
 1753TIP3    H126818   0.404   5.028   1.995 -0.7449  0.3829 -0.3610
 1753TIP3    H226819   0.382   5.098   1.862 -1.8761  0.9726  0.1179
 1754TIP3   OH226820   3.044   6.723   2.102  0.0071 -0.0386  0.4422
 1754TIP3    H126821   2.960   6.692   2.137  0.6917 -2.5649  0.0240
 1754TIP3    H226822   3.060   6.805   2.149 -1.6804 -0.5693  2.0818
 1755TIP3   OH226823   6.694   4.752   0.322  0.5416 -0.3830  0.2569
 1755TIP3    H126824   6.676   4.668   0.281  0.2324  0.4362 -1.3713
 1755TIP3    H226825   6.609   4.785   0.349  0.5290 -0.0731 -0.1627
 1756TIP3   OH226826   1.727   6.450   2.080 -0.3876  0.0597  0.1434
 1756TIP3    H126827   1.709   6.502   2.002  0.6458 -0.5720 -0.5465
 1756TIP3    H226828   1.711   6.360   2.052 -2.0618 -0.0419  1.2890
 1757TIP3   OH226829   2.669   6.615   8.223  0.5109 -0.9140  0.1432
 1757TIP3    H126830   2.726   6.684   8.188  0.1815 -0.0260  1.2996
 1757TIP3    H226831   2.585   6.630   8.181  0.4077 -0.5150  0.4785
 1758TIP3   OH226832   2.908   1.023   3.254 -0.3293 -0.0324  0.0811
 1758TIP3    H126833   2.986   1.006   3.306  0.0508 -0.5529 -0.6407
 1758TIP3    H226834   2.842   1.049   3.318  0.9787  2.5734  0.5064
 1759TIP3   OH226835   4.933   4.097   0.174 -0.6531  0.3024 -0.5338
 1759TIP3    H126836   4.938   4.153   0.251 -1.1675 -0.2855 -0.0634
 1759TIP3    H226837   4.938   4.158   0.100  1.6833  0.7448 -0.0970
 1760TIP3   OH226838   3.861   5.375   2.458 -0.0991 -0.0310  0.2991
 1760TIP3    H126839   3.789   5.319   2.488  1.9342 -1.5250  2.8589
 1760TIP3    H226840   3.850   5.457   2.506  0.9466 -1.0009  2.3055
 1761TIP3   OH226841   6.683   2.276   3.971 -0.2001 -0.0033 -0.2379
 1761TIP3    H126842   6.671   2.314   3.884 -2.8547 -0.9742 -0.3718
 1761TIP3    H226843   6.657   2.346   4.031 -2.1409 -0.5676 -0.3848
 1762TIP3   OH226844   6.671   0.796   0.970  0.4474  0.0907 -0.8586
 1762TIP3    H126845   6.647   0.870   0.914  1.0506 -0.4915 -1.9173
 1762TIP3    H226846   6.651   0.719   0.918  0.2304 -0.4926  0.0702
 1763TIP3   OH226847   5.534   5.186   0.812  0.1985  0.3938  0.4940
 1763TIP3    H126848   5.513   5.253   0.878 -1.1960 -0.5231  1.0384
 1763TIP3    H226849   5.488   5.215   0.733  0.9185  0.8987  0.2564
 1764TIP3   OH226850   0.161   5.594   8.595  0.0677  0.4096 -0.3835
 1764TIP3    H126851   0.135   5.622   8.507  0.9485  1.3762 -0.3608
 1764TIP3    H226852   0.085   5.613   8.650 -0.2203  0.4947 -0.8047
 1765TIP3   OH226853   6.334   4.183   1.616  0.1090 -0.2027  0.2591
 1765TIP3    H126854   6.319   4.229   1.533 -0.2252 -0.8894 -0.0654
 1765TIP3    H226855   6.352   4.253   1.678 -0.8987  0.4258 -0.1152
 1766TIP3   OH226856   0.063   6.272   8.566 -0.5381  0.5144 -0.4590
 1766TIP3    H126857   0.070   6.351   8.512  1.2946  1.3716  0.9143
 1766TIP3    H226858   0.148   6.229   8.555 -0.0778  0.7596  1.7627
 1767TIP3   OH226859   2.030   4.686   1.330  0.2103  0.0685  0.9050
 1767TIP3    H126860   1.960   4.620   1.332  1.2795 -1.1619 -0.5267
 1767TIP3    H226861   2.094   4.652   1.269  0.1279  3.1557 -1.1378
 1768TIP3   OH226862   3.976   0.982   2.527  0.4364  0.5545 -0.0827
 1768TIP3    H126863   3.940   1.045   2.465 -0.1636  1.2275  0.9263
 1768TIP3    H226864   4.063   1.016   2.549  0.3211  0.7451  0.0722
 1769TIP3   OH226865   5.867   1.899   2.599 -1.0854  0.0123 -0.3598
 1769TIP3    H126866   5.822   1.983   2.608 -1.8469 -0.4068 -0.1386
 1769TIP3    H226867   5.797   1.836   2.581 -0.7269 -0.8062  0.9079
 1770TIP3   OH226868   5.325   3.412   8.571  0.2166  0.0660  0.0762
 1770TIP3    H126869   5.332   3.469   8.647 -0.5937  0.6852 -0.2942
 1770TIP3    H226870   5.354   3.466   8.498 -0.9622  0.1703 -0.3396
 1771TIP3   OH226871   2.790   2.581   2.819 -0.0361 -0.2398 -0.3055
 1771TIP3    H126872   2.803   2.612   2.730  0.6097  0.0561 -0.1113
 1771TIP3    H226873   2.837   2.643   2.874 -0.8244 -0.1433  0.2860
 1772TIP3   OH226874   0.688   0.092   3.755 -0.3428  0.0991  0.1868
 1772TIP3    H126875   0.652   0.011   3.720  0.6274 -0.8706  1.3481
 1772TIP3    H226876   0.740   0.128   3.683 -1.5431  0.2093 -0.6506
 1773TIP3   OH226877   4.523   2.291   2.398  0.2574 -0.0199 -0.0868
 1773TIP3    H126878   4.449   2.253   2.445 -0.0796  0.3793 -0.2848
 1773TIP3    H226879   4.483   2.340   2.326  0.8521 -2.1476 -1.9536
 1774TIP3   OH226880   1.685   3.977   2.309  0.3239  0.6670  0.1019
 1774TIP3    H126881   1.644   3.912   2.367  3.4699 -0.6102  1.0954
 1774TIP3    H226882   1.674   4.060   2.356 -0.0735  0.1745  0.9054
 1775TIP3   OH226883   0.493   6.736   0.295  0.2603 -0.2108 -0.4347
 1775TIP3    H126884   0.504   6.787   0.215  3.2152 -1.1219 -0.7156
 1775TIP3    H226885   0.540   6.785   0.362 -0.0503 -0.7061  0.1563
 1776TIP3   OH226886   0.955   2.903   0.024  0.1424 -0.1480 -0.5846
 1776TIP3    H126887   0.896   2.889   0.098 -0.8948 -1.4680 -1.6182
 1776TIP3    H226888   0.947   2.996   0.004 -0.2637  0.0302  0.3754
 1777TIP3   OH226889   2.280   2.451   3.650  0.2433 -0.6620  0.2011
 1777TIP3    H126890   2.286   2.471   3.743  2.8113  1.1547 -0.2577
 1777TIP3    H226891   2.333   2.372   3.639  0.4376 -0.5323  0.2017
 1778TIP3   OH226892   0.800   3.376   0.630 -0.0116 -0.4247  0.4995
 1778TIP3    H126893   0.706   3.382   0.617  0.0752  0.2216  0.1431
 1778TIP3    H226894   0.826   3.462   0.662  0.9652  0.5894 -2.6658
 1779TIP3   OH226895   0.938   0.094   1.697  0.1154 -0.1581  0.1409
 1779TIP3    H126896   0.935   0.072   1.790  0.5897  0.6116  0.3450
 1779TIP3    H226897   0.889   0.176   1.690  0.5410  0.0725 -0.2005
 1780TIP3   OH226898   0.206   2.128   8.322  0.1450  0.0875 -0.3159
 1780TIP3    H126899   0.209   2.164   8.233 -0.0467 -1.1635 -0.8440
 1780TIP3    H226900   0.295   2.138   8.355  0.6254 -0.8815 -1.2563
 1781TIP3   OH226901   4.222   4.875   8.092  0.5697  0.6718  0.1931
 1781TIP3    H126902   4.253   4.937   8.026  0.8413 -1.0556 -1.3854
 1781TIP3    H226903   4.126   4.884   8.089  0.6386  1.6523  0.6539
 1782TIP3   OH226904   3.874   2.164   2.984 -0.1768 -0.4387 -0.1243
 1782TIP3    H126905   3.800   2.167   3.044 -0.5498 -2.4360 -0.4045
 1782TIP3    H226906   3.858   2.236   2.922 -2.3862 -1.3265 -0.7070
 1783TIP3   OH226907   0.913   6.648   1.651 -0.2657  0.1854 -0.5152
 1783TIP3    H126908   0.970   6.579   1.685 -0.5797  0.2730  0.2157
 1783TIP3    H226909   0.951   6.729   1.685  1.2748  0.6115 -2.9869
 1784TIP3   OH226910   1.627   3.738   1.225  0.0713 -0.6186 -0.1717
 1784TIP3    H126911   1.630   3.807   1.159  2.2180 -0.6062 -0.1254
 1784TIP3    H226912   1.561   3.767   1.288  0.9187  1.3844 -0.1619
 1785TIP3   OH226913   2.016   1.583   3.392  0.3015 -0.5243  0.3977
 1785TIP3    H126914   2.010   1.668   3.347  1.3950 -1.5178 -1.8001
 1785TIP3    H226915   1.968   1.595   3.474  0.0014  2.0524 -0.0840
 1786TIP3   OH226916   3.664   4.181   8.698 -0.1518 -0.5225 -0.6203
 1786TIP3    H126917   3.678   4.124   8.622  1.7477  0.9861 -1.4787
 1786TIP3    H226918   3.751   4.195   8.734 -0.8604 -0.0455  1.0214
 1787TIP3   OH226919   4.472   4.868   2.763  0.0863 -0.5122  0.5693
 1787TIP3    H126920   4.510   4.943   2.717 -0.3782 -2.0529 -2.6676
 1787TIP3    H226921   4.466   4.895   2.854 -0.9699  3.7523 -0.5548
 1788TIP3   OH226922   0.832   3.988   1.398 -0.4584 -0.1694  0.2577
 1788TIP3    H126923   0.743   3.972   1.367 -0.0196 -1.6638 -0.3350
 1788TIP3    H226924   0.856   3.906   1.443  0.1369  0.7118  1.6186
 1789TIP3   OH226925   4.432   5.123   1.972  0.3499  0.3269  0.2521
 1789TIP3    H126926   4.496   5.067   1.929  1.3358  2.0477 -0.6535
 1789TIP3    H226927   4.484   5.196   2.007 -0.8402  0.5701  1.5660
 1790TIP3   OH226928   1.139   0.415   0.625 -0.4134  0.1769  0.2276
 1790TIP3    H126929   1.201   0.468   0.674  0.8572 -0.6900 -0.3708
 1790TIP3    H226930   1.133   0.457   0.539 -0.8466  0.3889  0.3581
 1791TIP3   OH226931   4.983   1.407   1.556  0.2576 -0.2007 -0.9821
 1791TIP3    H126932   4.945   1.421   1.469  2.4185  2.6525 -1.6119
 1791TIP3    H226933   4.969   1.489   1.602 -0.8923 -1.6673  1.5304
 1792TIP3   OH226934   2.369   0.363   0.310  0.7629 -0.2441 -0.1043
 1792TIP3    H126935   2.312   0.395   0.380  2.6149  0.1690  1.2995
 1792TIP3    H226936   2.448   0.334   0.355  2.2577  0.5527 -2.0477
 1793TIP3   OH226937   5.123   3.024   2.464 -0.0887  0.2500  0.6628
 1793TIP3    H126938   5.064   2.974   2.519  0.2692  0.3810  1.1743
 1793TIP3    H226939   5.087   3.113   2.464  0.1982  0.3727  1.1237
 1794TIP3   OH226940   5.535   4.985   0.160  0.8837 -0.1722 -0.4476
 1794TIP3    H126941   5.477   4.912   0.181  0.8157 -0.3023 -1.0707
 1794TIP3    H226942   5.568   5.014   0.245  1.7167 -1.5954 -0.2450
 1795TIP3   OH226943   1.925   4.512   2.408  0.3333 -0.7680 -0.4504
 1795TIP3    H126944   1.948   4.489   2.317  0.7542 -2.0089 -0.0528
 1795TIP3    H226945   1.837   4.475   2.420  0.0091 -0.0358 -0.5485
 1796TIP3   OH226946   3.924   5.021   1.932  0.2527 -0.6882 -0.4194
 1796TIP3    H126947   4.007   5.058   1.902  0.9135 -0.7798  1.2079
 1796TIP3    H226948   3.867   5.026   1.855  1.5885 -0.1387 -1.4226
 1797TIP3   OH226949   5.357   1.686   0.643  0.1125  0.2123 -0.2172
 1797TIP3    H126950   5.426   1.717   0.584  0.1174  1.7916  0.5495
 1797TIP3    H226951   5.404   1.656   0.722 -0.0229  0.5820  0.0079
 1798TIP3   OH226952   3.546   5.024   0.055 -0.0038  0.1915  0.0700
 1798TIP3    H126953   3.595   4.952   0.095 -0.8368  0.0511  0.8505
 1798TIP3    H226954   3.537   5.089   0.124 -0.1217  0.6212 -0.3423
 1799TIP3   OH226955   0.418   1.461   1.483 -0.2956  0.2128  0.0304
 1799TIP3    H126956   0.506   1.473   1.519  0.0133 -1.6268  0.0195
 1799TIP3    H226957   0.391   1.548   1.457  1.4489  0.8679  0.2339
 1800TIP3   OH226958   1.429   2.570   8.009  0.3828  0.3979  0.5320
 1800TIP3    H126959   1.377   2.625   7.950 -1.1175 -0.2685  1.1729
 1800TIP3    H226960   1.381   2.488   8.014 -0.4134  0.9153  3.8125
 1801TIP3   OH226961   2.336   0.000   4.126 -0.4557 -0.5026 -0.6289
 1801TIP3    H126962   2.424   0.006   4.163 -0.3053 -1.2146 -0.8514
 1801TIP3    H226963   2.279  -0.013   4.201 -0.2755 -0.8560 -0.5509
 1802TIP3   OH226964   0.863   4.649   1.071  0.2538 -0.2753 -0.2307
 1802TIP3    H126965   0.918   4.682   1.000  0.2937 -0.8893 -0.4950
 1802TIP3    H226966   0.914   4.665   1.150  0.3432  0.1329 -0.3681
 1803TIP3   OH226967   1.808   5.802   2.653  0.1654  0.1820 -0.2900
 1803TIP3    H126968   1.741   5.843   2.708  0.6239 -0.9657  1.1984
 1803TIP3    H226969   1.838   5.727   2.705  3.4788  1.3380 -0.3067
 1804TIP3   OH226970   1.297   2.549   1.419 -0.0230  0.5258 -0.4976
 1804TIP3    H126971   1.287   2.597   1.337  0.7161 -0.8380 -1.4226
 1804TIP3    H226972   1.288   2.457   1.394 -1.0832  0.1293  1.1669
 1805TIP3   OH226973   3.233   1.154   0.260 -0.3975  0.4550  0.1975
 1805TIP3    H126974   3.210   1.151   0.352 -1.2201 -1.8231 -0.0255
 1805TIP3    H226975   3.150   1.140   0.214  0.4088 -1.6020 -0.7669
 1806TIP3   OH226976   2.482   5.945   1.662 -0.2866 -0.0164 -0.0858
 1806TIP3    H126977   2.524   5.991   1.735 -2.8652  0.1738  1.4075
 1806TIP3    H226978   2.527   5.977   1.584  1.9149  0.5369  1.3402
 1807TIP3   OH226979   6.558   1.029   1.527 -0.0960  0.2235 -0.6040
 1807TIP3    H126980   6.571   1.092   1.598 -0.1393  0.6916 -1.0052
 1807TIP3    H226981   6.464   1.027   1.514 -0.1809 -0.6801  0.0759
 1808TIP3   OH226982   0.271   6.664   2.676 -0.0092 -0.4711  0.4799
 1808TIP3    H126983   0.309   6.747   2.647 -1.6527  0.5208  1.0306
 1808TIP3    H226984   0.305   6.651   2.765  2.0823 -1.6246 -0.4158
 1809TIP3   OH226985   1.502   4.837   0.038  0.3743 -0.5100 -0.4916
 1809TIP3    H126986   1.493   4.865  -0.053  0.9774 -0.5344 -0.5678
 1809TIP3    H226987   1.556   4.758   0.033  0.1392 -0.6930 -0.1366
 1810TIP3   OH226988   5.389   0.043   1.257  0.0663 -0.1901 -0.2637
 1810TIP3    H126989   5.455   0.112   1.264  0.8935 -1.0901  1.4080
 1810TIP3    H226990   5.435  -0.029   1.214  0.1349 -0.7598  0.7502
 1811TIP3   OH226991   3.954   5.562   8.098 -0.4846  0.6139  0.2565
 1811TIP3    H126992   3.867   5.597   8.119 -0.5628  0.7716 -0.3327
 1811TIP3    H226993   3.937   5.472   8.072 -0.6074  0.9726 -0.9481
 1812TIP3   OH226994   2.555   5.404   3.946 -0.6405  0.0121  0.0846
 1812TIP3    H126995   2.494   5.470   3.981 -1.1492 -1.2178  1.6690
 1812TIP3    H226996   2.642   5.438   3.966 -0.7197  1.8534 -2.3201
 1813TIP3   OH226997   5.090   0.468   0.032  0.4077 -0.3904  0.6465
 1813TIP3    H126998   5.043   0.437   0.109 -1.8893  1.9955  0.3682
 1813TIP3    H226999   5.139   0.544   0.063 -0.8237  0.8086 -0.2508
 1814TIP3   OH227000   1.729   0.389   1.559 -0.7976  0.1495 -0.1134
 1814TIP3    H127001   1.672   0.354   1.491  0.1964 -0.1250 -0.8288
 1814TIP3    H227002   1.813   0.404   1.514 -0.9332  2.6666  0.3493
 1815TIP3   OH227003   0.885   5.660   1.918  0.1134  0.7324  0.2358
 1815TIP3    H127004   0.850   5.571   1.924 -0.7693  1.0574  0.1840
 1815TIP3    H227005   0.971   5.649   1.878 -0.2726 -0.0429 -0.4364
 1816TIP3   OH227006   0.464   5.401   1.961 -0.1206 -0.2005 -0.3896
 1816TIP3    H127007   0.457   5.307   1.979 -1.4062  0.0251  0.4966
 1816TIP3    H227008   0.473   5.441   2.048  1.3430  0.4416 -0.8166
 1817TIP3   OH227009   4.351   0.828   1.544 -0.1982 -0.2920  0.5291
 1817TIP3    H127010   4.397   0.895   1.594 -1.5521 -0.4591  2.0788
 1817TIP3    H227011   4.266   0.819   1.588 -0.1691 -2.8168  0.2104
 1818TIP3   OH227012   3.370   4.594   0.951  0.4850 -0.1850 -0.6100
 1818TIP3    H127013   3.371   4.504   0.984  1.7304  0.0934  0.1714
 1818TIP3    H227014   3.370   4.649   1.029  0.7810  0.4987 -1.0767
 1819TIP3   OH227015   2.418   3.357   1.627  0.4479  0.1428  1.0836
 1819TIP3    H127016   2.412   3.326   1.537  1.0769 -0.8166  1.3613
 1819TIP3    H227017   2.348   3.423   1.634 -0.5540 -0.7940  0.3046
 1820TIP3   OH227018   5.980   1.851   2.129  0.0349  0.4773 -0.5003
 1820TIP3    H127019   5.907   1.798   2.098  0.4971 -0.1538 -0.5355
 1820TIP3    H227020   5.943   1.902   2.202 -0.5894  0.6267 -0.9163
 1821TIP3   OH227021   1.366   5.630   1.657 -0.1506  0.4598  0.0607
 1821TIP3    H127022   1.363   5.625   1.561 -2.0680  2.2132 -0.0498
 1821TIP3    H227023   1.451   5.667   1.677  0.6410 -0.7741 -0.8915
 1822TIP3   OH227024   4.369   6.677   2.800  0.0919 -0.1780  0.3226
 1822TIP3    H127025   4.461   6.662   2.823 -0.0200  0.6101  1.3364
 1822TIP3    H227026   4.356   6.624   2.721  2.1461  1.7523 -1.4759
 1823TIP3   OH227027   5.454   5.707   3.264 -0.2561  0.2111 -0.2480
 1823TIP3    H127028   5.415   5.626   3.297 -1.4020  1.3371  1.3305
 1823TIP3    H227029   5.533   5.680   3.217 -0.2969 -1.7452  0.7597
 1824TIP3   OH227030   4.226   2.346   0.446 -0.1244 -0.2222 -0.0652
 1824TIP3    H127031   4.194   2.435   0.430 -0.4727  0.5303  3.7455
 1824TIP3    H227032   4.321   2.356   0.452 -0.0254 -0.4345 -1.2227
 1825TIP3   OH227033   4.610   4.583   3.355  0.4510 -0.5519  0.4122
 1825TIP3    H127034   4.659   4.513   3.312 -1.5230 -2.9872  1.8415
 1825TIP3    H227035   4.554   4.618   3.285  0.2999 -1.5387  0.0166
 1826TIP3   OH227036   4.716   3.234   0.795 -0.1916  0.5898 -0.7440
 1826TIP3    H127037   4.690   3.300   0.859 -0.2548 -0.8246  0.7565
 1826TIP3    H227038   4.683   3.267   0.712 -0.2807  2.3939 -0.0362
 1827TIP3   OH227039   4.621   3.697   2.940 -0.1989  0.3277  0.1088
 1827TIP3    H127040   4.687   3.629   2.949  1.8873  2.3621  1.0430
 1827TIP3    H227041   4.651   3.749   2.865 -0.7547  1.2726  0.5343
 1828TIP3   OH227042   2.816   5.231   1.090  0.0783 -0.2703  0.8318
 1828TIP3    H127043   2.812   5.313   1.040  0.9918  0.4039  1.8135
 1828TIP3    H227044   2.817   5.163   1.024 -0.9636  0.4888 -0.0070
 1829TIP3   OH227045   5.942   6.759   3.517 -1.2867  0.0784  0.1962
 1829TIP3    H127046   6.027   6.757   3.472 -1.4106 -1.3903 -0.0311
 1829TIP3    H227047   5.951   6.696   3.588 -2.5788 -1.1101 -0.6240
 1830TIP3   OH227048   5.526   6.091   2.500  0.0805  0.1297 -0.4456
 1830TIP3    H127049   5.529   6.003   2.538 -1.0955  0.1644 -0.2121
 1830TIP3    H227050   5.463   6.138   2.554  0.6416  1.1044 -0.6141
 1831TIP3   OH227051   1.810   2.566   1.188  0.2447  0.2381 -0.4195
 1831TIP3    H127052   1.792   2.480   1.225  0.4991  1.7355  3.6295
 1831TIP3    H227053   1.725   2.597   1.156 -0.1231 -0.8919 -0.5748
 1832TIP3   OH227054   2.870   0.653   2.796 -0.1309 -0.3476  0.2546
 1832TIP3    H127055   2.834   0.738   2.771 -0.9713 -1.0425 -1.0029
 1832TIP3    H227056   2.794   0.594   2.799  0.8136 -1.9192 -2.7765
 1833TIP3   OH227057   5.201   6.054   0.352 -0.3717 -0.5381  0.0523
 1833TIP3    H127058   5.161   6.141   0.360 -1.0621 -0.7836 -0.5333
 1833TIP3    H227059   5.268   6.064   0.284  0.3328 -0.2085  0.7816
 1834TIP3   OH227060   1.498   3.773   2.418 -0.1829  0.5111  0.7887
 1834TIP3    H127061   1.542   3.700   2.463  1.5633  0.9221 -0.1679
 1834TIP3    H227062   1.444   3.731   2.351  1.1807  0.0844 -0.0744
 1835TIP3   OH227063   3.329   1.546   2.314  1.3193  0.2995  0.5645
 1835TIP3    H127064   3.323   1.473   2.253 -1.0801  0.4615  0.5136
 1835TIP3    H227065   3.270   1.523   2.386  0.1089  2.3192  0.3193
 1836TIP3   OH227066   5.463   2.812   0.123  0.0318  0.0571  0.5862
 1836TIP3    H127067   5.517   2.744   0.084  0.3170  1.4644 -1.6008
 1836TIP3    H227068   5.502   2.895   0.094 -2.6603  1.1490 -0.2500
 1837TIP3   OH227069   5.842   5.002   7.905 -0.1946 -0.6680 -0.6111
 1837TIP3    H127070   5.857   5.076   7.964 -3.0918 -0.3581 -0.1349
 1837TIP3    H227071   5.798   5.041   7.829 -0.8058 -1.7560 -0.8282
 1838TIP3   OH227072   1.516   4.338   1.424  0.0260 -0.2001  0.0710
 1838TIP3    H127073   1.568   4.341   1.504  0.7389 -0.3536 -0.3809
 1838TIP3    H227074   1.579   4.350   1.353 -0.7538  1.2715 -0.4299
 1839TIP3   OH227075   4.972   3.315   0.787  0.6509  0.4422  0.4217
 1839TIP3    H127076   5.029   3.238   0.781  0.4818  0.4224 -1.4154
 1839TIP3    H227077   4.884   3.279   0.790  0.5895  0.5591 -0.0276
 1840TIP3   OH227078   3.019   4.518   2.888  0.4419  0.0384  0.1814
 1840TIP3    H127079   3.077   4.454   2.848 -0.7580 -0.4186 -0.9223
 1840TIP3    H227080   3.042   4.601   2.847 -0.3945 -0.3309 -1.0808
 1841TIP3   OH227081   3.412   3.703   2.001 -0.3337 -0.4181 -0.3394
 1841TIP3    H127082   3.350   3.668   1.938 -1.9833 -0.8355  1.4048
 1841TIP3    H227083   3.424   3.795   1.975 -1.6405 -0.3488 -0.7780
 1842TIP3   OH227084   4.054   0.518   2.776  0.0750  0.0563 -0.5880
 1842TIP3    H127085   3.994   0.445   2.761  0.4537 -0.7062  1.2473
 1842TIP3    H227086   4.131   0.497   2.724 -0.7593  0.4315 -2.0163
 1843TIP3   OH227087   2.052   5.246   3.473 -0.1282  0.5027 -0.6107
 1843TIP3    H127088   2.115   5.184   3.510 -0.1283  1.1379  0.4899
 1843TIP3    H227089   2.094   5.331   3.482 -0.4875  0.7618 -1.3303
 1844TIP3   OH227090   1.924   1.392   3.009 -0.3442  0.0560  0.3888
 1844TIP3    H127091   1.838   1.375   3.046 -0.4331 -0.1974  0.0704
 1844TIP3    H227092   1.915   1.370   2.916  0.4483 -1.3664  0.6240
 1845TIP3   OH227093   4.780   1.715   1.400 -0.7194 -0.3412  0.1075
 1845TIP3    H127094   4.847   1.755   1.454  0.1998  0.5441 -1.6141
 1845TIP3    H227095   4.758   1.633   1.445  2.0832 -1.0507  0.3269
 1846TIP3   OH227096   4.026   0.363   8.040  0.3012  0.1991 -0.7512
 1846TIP3    H127097   3.975   0.282   8.040  1.0755 -0.3113  0.5024
 1846TIP3    H227098   4.102   0.344   7.985 -0.0186  0.4247 -1.2831
 1847TIP3   OH227099   6.644   1.904   2.783 -0.2590  0.1383 -0.7796
 1847TIP3    H127100   6.667   1.987   2.825 -0.2643 -0.1899 -0.1115
 1847TIP3    H227101   6.553   1.889   2.809  0.2928 -0.9676  0.6169
 1848TIP3   OH227102   0.165   2.402   3.723  0.2525 -0.2682 -0.0167
 1848TIP3    H127103   0.146   2.322   3.771 -2.5090  1.1968  1.5523
 1848TIP3    H227104   0.242   2.438   3.767 -0.5130 -0.4014  1.5036
 1849TIP3   OH227105   3.032   2.310   8.130  0.3070 -0.1575  0.7500
 1849TIP3    H127106   2.957   2.268   8.171  0.7792 -0.0888  1.7043
 1849TIP3    H227107   3.105   2.290   8.188  1.1443 -0.7001 -0.4631
 1850TIP3   OH227108   1.604   3.002   3.887  0.1182 -0.7785  0.2134
 1850TIP3    H127109   1.615   3.034   3.798 -1.4309  0.1796  0.3353
 1850TIP3    H227110   1.595   3.081   3.940  1.4587 -1.3163  1.3124
 1851TIP3   OH227111   5.642   3.729   1.879  0.7589 -0.0060  0.3967
 1851TIP3    H127112   5.616   3.804   1.825 -0.0624 -1.2233 -0.9684
 1851TIP3    H227113   5.705   3.682   1.825 -0.7757 -1.7567  0.0302
 1852TIP3   OH227114   3.510   6.476   3.471 -0.1455  0.1854  0.6400
 1852TIP3    H127115   3.443   6.470   3.539 -1.2787 -1.1501 -0.5243
 1852TIP3    H227116   3.549   6.388   3.468 -0.2725  0.1429 -0.5425
 1853TIP3   OH227117   0.683   2.969   1.234  0.2047 -0.0754  0.0608
 1853TIP3    H127118   0.767   3.013   1.219  0.2077 -0.7020 -1.9829
 1853TIP3    H227119   0.630   3.036   1.277  1.4958  0.5765  0.7273
 1854TIP3   OH227120   0.393   2.177   2.987  0.4237  0.4991  0.2789
 1854TIP3    H127121   0.455   2.238   3.027  0.3960  1.5707 -1.2532
 1854TIP3    H227122   0.363   2.221   2.908 -0.9552 -0.7606  0.0520
 1855TIP3   OH227123   6.272   3.621   1.146 -0.1550  0.4164  0.1718
 1855TIP3    H127124   6.308   3.609   1.059  0.9626  0.1895  0.6511
 1855TIP3    H227125   6.247   3.714   1.150  1.2055  0.8021  0.1190
 1856TIP3   OH227126   4.618   4.099   2.772 -0.2964 -0.2925  0.5956
 1856TIP3    H127127   4.585   4.029   2.716 -1.7133  0.9836 -0.2422
 1856TIP3    H227128   4.705   4.119   2.737 -0.2670 -0.9797  0.2507
 1857TIP3   OH227129   3.806   4.666   3.053 -0.5811  0.1288  0.7378
 1857TIP3    H127130   3.739   4.718   3.097 -0.9860  1.0487 -0.8838
 1857TIP3    H227131   3.824   4.714   2.972 -1.5427 -2.6346 -1.2452
 1858TIP3   OH227132   6.374   4.149   2.934 -0.2537  0.4460  0.0535
 1858TIP3    H127133   6.319   4.136   3.011 -0.6463  0.2707 -0.2593
 1858TIP3    H227134   6.352   4.237   2.903  1.7518  1.5963  1.6359
 1859TIP3   OH227135   0.579   3.702   0.150  0.8543 -0.4516 -0.3572
 1859TIP3    H127136   0.632   3.735   0.077  0.7862 -0.7601 -0.5480
 1859TIP3    H227137   0.493   3.685   0.112  0.9941 -1.2100 -0.3554
 1860TIP3   OH227138   3.126   4.873   0.461  0.2636  0.5785  0.4631
 1860TIP3    H127139   3.180   4.825   0.523  0.5280  0.5745  0.2306
 1860TIP3    H227140   3.186   4.901   0.392  0.0302  0.8565  0.3680
 1861TIP3   OH227141   5.808   5.621   0.252 -0.1369  0.5807  0.5275
 1861TIP3    H127142   5.764   5.680   0.314 -0.5730  0.6240  0.1778
 1861TIP3    H227143   5.849   5.679   0.188 -1.2937  0.4900 -0.3112
 1862TIP3   OH227144   5.299   3.527   0.957 -0.3883 -0.4397 -0.4108
 1862TIP3    H127145   5.246   3.523   1.037  1.7340 -0.4365  1.0650
 1862TIP3    H227146   5.310   3.435   0.931  0.1115 -0.5489  0.1584
 1863TIP3   OH227147   2.071   3.930   3.105  0.5234  0.2665 -0.3997
 1863TIP3    H127148   2.036   3.923   3.194  0.5346 -0.9393 -0.4810
 1863TIP3    H227149   2.075   4.024   3.088  0.6416  0.5144  0.9259
 1864TIP3   OH227150   2.431   5.727   0.777  0.3938  0.4691  0.1415
 1864TIP3    H127151   2.520   5.764   0.772  0.8107 -0.5144 -0.0326
 1864TIP3    H227152   2.377   5.799   0.808  1.3418  0.9595  0.7161
 1865TIP3   OH227153   0.814   5.315   1.064  0.3395  0.8489 -0.3325
 1865TIP3    H127154   0.794   5.374   1.137 -2.1510 -1.3928  0.9508
 1865TIP3    H227155   0.819   5.228   1.104 -0.9533 -0.4433 -2.7815
 1866TIP3   OH227156   5.784   5.354   3.314 -0.3196 -0.4958  0.1407
 1866TIP3    H127157   5.864   5.396   3.345 -1.0936  1.9023 -0.8735
 1866TIP3    H227158   5.761   5.292   3.383  3.0257 -2.1913 -0.1075
 1867TIP3   OH227159   4.802   1.702   3.165  0.0486  0.0301 -0.1946
 1867TIP3    H127160   4.719   1.737   3.132  0.5248  0.8928 -0.5159
 1867TIP3    H227161   4.776   1.637   3.230 -0.9019 -0.9300 -1.4824
 1868TIP3   OH227162   4.775   3.777   1.491  0.1812 -0.0579 -0.0982
 1868TIP3    H127163   4.696   3.730   1.464  0.1436 -0.7935  1.2287
 1868TIP3    H227164   4.829   3.711   1.534  1.1167  0.6430 -0.1599
 1869TIP3   OH227165   2.491   1.049   1.216 -0.1166 -0.4278  0.3475
 1869TIP3    H127166   2.448   0.973   1.178  2.1356 -1.3499 -0.5309
 1869TIP3    H227167   2.500   1.111   1.143 -0.2337 -0.1173  0.5933
 1870TIP3   OH227168   2.755   5.591   8.436  0.5887 -0.3942  0.3294
 1870TIP3    H127169   2.723   5.515   8.386  0.1994 -0.2364  0.3372
 1870TIP3    H227170   2.676   5.638   8.462  0.7786 -0.5151  1.1633
 1871TIP3   OH227171   1.679   3.669   0.341 -0.1003  0.2346 -0.3588
 1871TIP3    H127172   1.630   3.631   0.414 -0.8675 -2.8376 -2.2657
 1871TIP3    H227173   1.739   3.731   0.382  0.2118 -2.0123  2.9991
 1872TIP3   OH227174   5.227   6.671   1.003 -0.3960  0.2784 -0.2020
 1872TIP3    H127175   5.279   6.604   1.047  1.3277  1.5498 -0.1899
 1872TIP3    H227176   5.136   6.642   1.014  0.1974 -1.2711  1.0651
 1873TIP3   OH227177   2.721   0.427   1.621  0.3917 -0.1513 -0.2405
 1873TIP3    H127178   2.759   0.401   1.537  0.1335 -0.2515 -0.3300
 1873TIP3    H227179   2.652   0.489   1.597 -0.9859 -1.6193 -0.2766
 1874TIP3   OH227180   2.000   0.519   0.849 -0.2147  0.1813  0.6512
 1874TIP3    H127181   2.053   0.556   0.920  1.6307  0.8608 -0.9811
 1874TIP3    H227182   2.063   0.476   0.792 -1.4748  0.5623 -1.1286
 1875TIP3   OH227183   6.133   4.325   2.584  0.8002  0.0184 -0.3896
 1875TIP3    H127184   6.070   4.318   2.512 -0.1111  0.4442  0.3438
 1875TIP3    H227185   6.079   4.331   2.663  1.7513  1.1089  0.2116
 1876TIP3   OH227186   6.434   4.836   2.020 -0.1104 -0.3128  0.4737
 1876TIP3    H127187   6.361   4.775   2.008 -0.1434 -0.2717  0.4696
 1876TIP3    H227188   6.423   4.901   1.951 -1.9546  1.5577  2.3639
 1877TIP3   OH227189   6.752   2.055   8.330 -0.2479  0.4609  0.3747
 1877TIP3    H127190   6.845   2.033   8.328 -0.2475  0.1239  2.2941
 1877TIP3    H227191   6.733   2.087   8.242  1.1968 -1.3705 -0.6608
 1878TIP3   OH227192   2.858   5.779   0.565  0.3202  0.2108  0.0579
 1878TIP3    H127193   2.800   5.772   0.488 -0.0851 -0.7407  0.4352
 1878TIP3    H227194   2.945   5.762   0.530  0.0158 -1.3460 -0.0373
 1879TIP3   OH227195   3.365   4.979   0.827  0.1340  0.3067 -0.4611
 1879TIP3    H127196   3.283   5.019   0.798  0.7328  1.2730 -0.8491
 1879TIP3    H227197   3.353   4.885   0.810 -1.4616  0.2221  0.8800
 1880TIP3   OH227198   3.111   4.536   8.600 -0.0279  0.2107  0.5465
 1880TIP3    H127199   3.182   4.527   8.664 -0.3241  0.9112  0.9868
 1880TIP3    H227200   3.155   4.564   8.520  0.2235  0.4274  0.7576
 1881TIP3   OH227201   6.591   2.984   2.504 -0.1688  0.3344 -0.1773
 1881TIP3    H127202   6.616   3.020   2.419 -1.3733 -1.0093 -1.1453
 1881TIP3    H227203   6.648   2.909   2.516  1.7601  1.9379  1.4524
 1882TIP3   OH227204   1.387   4.396   8.441 -0.4961  1.1131 -0.4969
 1882TIP3    H127205   1.380   4.491   8.439 -0.3903  1.1644  0.6713
 1882TIP3    H227206   1.472   4.379   8.483 -0.3488  0.5029 -1.0260
 1883TIP3   OH227207   6.020   1.370   1.458  0.2180  0.6006 -0.3906
 1883TIP3    H127208   6.113   1.350   1.449  0.3855  0.8611  0.6108
 1883TIP3    H227209   6.014   1.416   1.542 -0.8955  0.0517 -0.1553
 1884TIP3   OH227210   1.477   5.256   1.765  0.2831  0.5765  0.7677
 1884TIP3    H127211   1.412   5.206   1.715 -1.4293  2.0997  1.3431
 1884TIP3    H227212   1.561   5.223   1.735 -0.7337 -0.7337 -0.8259
 1885TIP3   OH227213   3.282   0.706   2.038  0.3646 -0.0963 -0.7090
 1885TIP3    H127214   3.261   0.683   2.128  1.5569 -0.9113 -0.6069
 1885TIP3    H227215   3.357   0.765   2.045  1.0044 -0.8322 -1.1751
 1886TIP3   OH227216   3.146   6.270   1.843 -0.3240  0.1035 -0.8963
 1886TIP3    H127217   3.180   6.182   1.828 -0.5965  0.0348 -1.1173
 1886TIP3    H227218   3.190   6.299   1.922  0.5120  0.1555 -1.3739
 1887TIP3   OH227219   6.486   0.515   0.384 -0.2183 -0.0173  0.5763
 1887TIP3    H127220   6.579   0.536   0.372 -0.1104 -0.1344  1.1752
 1887TIP3    H227221   6.482   0.420   0.376 -0.4735  0.0792 -0.6163
 1888TIP3   OH227222   3.767   1.168   8.226 -0.0881 -0.4273  0.0131
 1888TIP3    H127223   3.692   1.223   8.250  0.3639  0.3856 -0.3937
 1888TIP3    H227224   3.745   1.134   8.139 -0.0290 -0.2645 -0.0656
 1889TIP3   OH227225   6.607   4.899   3.422  0.0839 -0.2277 -0.3624
 1889TIP3    H127226   6.702   4.893   3.412 -0.0344 -1.0065 -1.1249
 1889TIP3    H227227   6.589   4.993   3.419  0.7074 -0.1220 -1.5294
 1890TIP3   OH227228   2.754   6.327   2.601  0.5197  0.4498 -0.3918
 1890TIP3    H127229   2.815   6.255   2.619  0.5058  0.1070 -1.6404
 1890TIP3    H227230   2.679   6.309   2.658  2.3973  2.0890  2.9070
 1891TIP3   OH227231   3.520   3.201   0.402 -0.5305 -0.3310  0.4474
 1891TIP3    H127232   3.462   3.211   0.326  1.6706 -3.0271 -1.7868
 1891TIP3    H227233   3.554   3.289   0.416 -1.9396  0.4881 -0.8630
 1892TIP3   OH227234   5.625   6.402   0.356  0.0725 -0.1945  0.0043
 1892TIP3    H127235   5.672   6.320   0.341  1.4103  0.6161 -0.3995
 1892TIP3    H227236   5.588   6.391   0.444 -0.0461 -1.3530 -0.1676
 1893TIP3   OH227237   5.159   0.558   3.010 -0.3747 -0.0942 -0.3367
 1893TIP3    H127238   5.126   0.476   3.046 -0.8054 -0.3963 -1.3553
 1893TIP3    H227239   5.253   0.543   3.000 -0.4591 -0.5060 -0.5842
 1894TIP3   OH227240   5.603   1.633   8.644  0.8070  0.6107  0.4220
 1894TIP3    H127241   5.557   1.550   8.657  2.4125 -0.0979  2.1107
 1894TIP3    H227242   5.534   1.700   8.647 -0.5970 -0.6377 -1.6045
 1895TIP3   OH227243   3.658   5.489   3.747 -0.1618  0.0059 -0.8410
 1895TIP3    H127244   3.569   5.496   3.713  0.1331  0.1670 -1.5859
 1895TIP3    H227245   3.680   5.579   3.772 -0.5662 -0.1884  0.2934
 1896TIP3   OH227246   3.241   0.596   1.608  0.0750  0.3844 -0.1593
 1896TIP3    H127247   3.173   0.536   1.577 -0.6685  1.3861 -0.4967
 1896TIP3    H227248   3.289   0.621   1.528 -0.6017  1.4305 -0.2611
 1897TIP3   OH227249   6.078   4.781   1.414 -0.4903 -0.3928 -0.4234
 1897TIP3    H127250   6.052   4.860   1.367 -0.9344 -0.2167  0.0988
 1897TIP3    H227251   6.022   4.712   1.379 -1.3559 -0.1103  0.3604
 1898TIP3   OH227252   5.190   3.238   8.411  0.1885 -0.3194  0.6060
 1898TIP3    H127253   5.209   3.319   8.459 -0.0044  0.1481 -0.0930
 1898TIP3    H227254   5.224   3.254   8.323  0.5548 -1.1741  0.5828
 1899TIP3   OH227255   4.168   4.663   1.877  0.5524 -0.1125  0.0975
 1899TIP3    H127256   4.155   4.744   1.926  0.3131  1.0095 -1.7196
 1899TIP3    H227257   4.256   4.634   1.901  0.3271  0.2326  1.3763
 1900TIP3   OH227258   3.197   4.885   3.395  0.1690 -0.0994  0.2491
 1900TIP3    H127259   3.167   4.797   3.418  1.5470 -0.7406 -0.2717
 1900TIP3    H227260   3.243   4.915   3.473 -0.7548  0.3834  0.6141
 1901TIP3   OH227261   4.491   3.059   0.781 -0.0208 -0.9218 -0.2767
 1901TIP3    H127262   4.560   3.116   0.812 -0.2898 -1.0806  0.6342
 1901TIP3    H227263   4.533   3.002   0.716  0.0690  0.8317 -1.8280
 1902TIP3   OH227264   5.597   2.611   0.742  0.4487  0.3446 -0.3363
 1902TIP3    H127265   5.598   2.667   0.820  0.9688 -0.0306 -0.0676
 1902TIP3    H227266   5.567   2.526   0.774 -0.1006  0.3919 -0.7000
 1903TIP3   OH227267   4.040   0.326   2.280 -0.0162 -0.1065  0.4264
 1903TIP3    H127268   3.989   0.247   2.266  0.7860 -0.2597 -2.1240
 1903TIP3    H227269   4.074   0.317   2.369 -0.2569 -2.4514  0.3516
 1904TIP3   OH227270   3.885   1.155   2.314  0.2280  0.0473 -0.1973
 1904TIP3    H127271   3.820   1.218   2.342 -0.9746 -1.2984  0.1635
 1904TIP3    H227272   3.920   1.191   2.232  0.4810  1.7578  0.6305
 1905TIP3   OH227273   6.280   6.780   0.049 -0.2491  0.3836 -0.0071
 1905TIP3    H127274   6.308   6.806  -0.039 -0.4260 -0.9554 -0.4766
 1905TIP3    H227275   6.186   6.797   0.050 -0.6995 -1.7030 -0.9132
 1906TIP3   OH227276   0.871   0.203   3.596  0.5563 -0.0828  0.1897
 1906TIP3    H127277   0.909   0.279   3.640  0.8283 -0.2310  0.2172
 1906TIP3    H227278   0.947   0.152   3.569  0.3892 -0.0823 -0.2937
 1907TIP3   OH227279   1.127   0.828   2.920 -0.8298  0.2272 -0.1818
 1907TIP3    H127280   1.120   0.832   2.824 -0.7214 -0.4210 -0.2238
 1907TIP3    H227281   1.196   0.764   2.936 -0.7243  0.4641  0.3316
 1908TIP3   OH227282   1.375   5.459   0.642 -0.1368 -0.1638 -0.2720
 1908TIP3    H127283   1.432   5.433   0.714  1.0362  1.0824 -0.7088
 1908TIP3    H227284   1.419   5.426   0.563 -1.7948 -2.2067 -0.4483
 1909TIP3   OH227285   6.245   5.288   0.015  0.4287  0.1924  0.0492
 1909TIP3    H127286   6.208   5.377   0.009  1.3920  0.6261  0.2702
 1909TIP3    H227287   6.169   5.232   0.029 -0.0979  1.1589  1.4191
 1910TIP3   OH227288   6.121   6.748   8.347 -0.0601 -0.1969  0.3690
 1910TIP3    H127289   6.152   6.819   8.404 -3.1461  0.5191  1.3648
 1910TIP3    H227290   6.098   6.792   8.265  1.7778 -0.7829 -0.5095
 1911TIP3   OH227291   6.225   0.575   0.073  0.3230  0.1715 -0.1264
 1911TIP3    H127292   6.199   0.597   0.163 -3.0266  1.5336 -1.2525
 1911TIP3    H227293   6.289   0.642   0.049  0.0005  0.8133  0.7413
 1912TIP3   OH227294   3.255   3.635   0.817 -0.3325  0.6693 -0.1705
 1912TIP3    H127295   3.290   3.658   0.903 -0.4892  0.8685 -0.1598
 1912TIP3    H227296   3.288   3.546   0.801 -0.5884  0.4966  0.2469
 1913TIP3   OH227297   0.309   3.216   2.275  0.3551 -0.1363 -0.0746
 1913TIP3    H127298   0.365   3.251   2.345 -1.8482 -0.8653  2.2430
 1913TIP3    H227299   0.285   3.293   2.223 -1.1008  1.2524  2.4405
 1914TIP3   OH227300   4.160   1.121   1.465  0.0536 -0.2900 -0.0801
 1914TIP3    H127301   4.120   1.038   1.492  2.0696 -1.2329  0.2416
 1914TIP3    H227302   4.236   1.095   1.412  2.5487  1.1474  2.4931
 1915TIP3   OH227303   5.424   4.684   3.115 -0.7801 -0.0439  0.3314
 1915TIP3    H127304   5.452   4.721   3.031  0.7949 -0.0668  0.8031
 1915TIP3    H227305   5.498   4.631   3.143 -1.4367 -0.3540  1.5555
 1916TIP3   OH227306   3.138   6.285   1.498 -0.0733  0.5621 -0.2620
 1916TIP3    H127307   3.206   6.319   1.556 -0.5379 -0.6058  1.0245
 1916TIP3    H227308   3.086   6.361   1.474 -0.4311  0.9825  1.6523
 1917TIP3   OH227309   5.059   1.685   1.190 -0.1106  0.0710 -0.2852
 1917TIP3    H127310   5.129   1.729   1.238 -0.8847 -1.1938  2.1606
 1917TIP3    H227311   4.979   1.731   1.215 -0.4467 -0.0034 -1.1637
 1918TIP3   OH227312   2.418   6.473   3.006  0.3417  0.3259 -0.6066
 1918TIP3    H127313   2.489   6.468   3.070 -0.6386 -1.5147  0.4405
 1918TIP3    H227314   2.373   6.389   3.014 -1.9210  1.3861 -1.2499
 1919TIP3   OH227315   5.040   2.012   1.348  0.4690 -0.4342 -0.2455
 1919TIP3    H127316   5.109   2.069   1.382  0.2023 -0.6615  0.6900
 1919TIP3    H227317   4.967   2.024   1.408  0.8667 -2.8238  0.8329
 1920TIP3   OH227318   4.750   4.996   0.128  0.4192 -0.2044 -0.4068
 1920TIP3    H127319   4.719   5.059   0.193  0.8454 -0.6020  0.1962
 1920TIP3    H227320   4.731   4.910   0.167 -0.4036 -0.4595 -1.3357
 1921TIP3   OH227321   0.538   6.303   8.236 -0.5888 -0.9198  0.8853
 1921TIP3    H127322   0.531   6.246   8.160  0.5744 -0.6095  0.5283
 1921TIP3    H227323   0.574   6.246   8.305  1.0599 -0.5525  0.3885
 1922TIP3   OH227324   0.640   2.701   1.315  0.2816  0.2987 -0.2461
 1922TIP3    H127325   0.649   2.795   1.301 -1.9012  0.4947 -0.8445
 1922TIP3    H227326   0.554   2.680   1.279 -0.5199 -1.4219  2.3347
 1923TIP3   OH227327   4.195   0.116   1.648 -0.1428  0.1823 -0.3584
 1923TIP3    H127328   4.141   0.144   1.722 -0.5232  1.5596 -1.1094
 1923TIP3    H227329   4.175   0.179   1.579  1.2182 -0.2450 -1.1897
 1924TIP3   OH227330   4.074   4.041   2.560  0.1408 -0.3148  0.5591
 1924TIP3    H127331   4.068   3.995   2.643 -2.3941 -1.6235 -0.2470
 1924TIP3    H227332   4.159   4.014   2.524  0.6578 -0.8249  2.0987
 1925TIP3   OH227333   1.895   1.199   1.436 -0.6559 -0.9301 -0.0100
 1925TIP3    H127334   1.945   1.226   1.514 -1.3793 -0.4741  0.3093
 1925TIP3    H227335   1.810   1.243   1.446 -0.2034  0.5030 -1.8926
 1926TIP3   OH227336   2.857   5.036   7.893 -0.1112  0.1663  0.3886
 1926TIP3    H127337   2.790   4.996   7.838 -1.6691 -1.8361  3.4635
 1926TIP3    H227338   2.814   5.113   7.931  0.3896  0.5811  0.1361
 1927TIP3   OH227339   5.815   6.652   2.796 -0.3263  0.2965  0.2767
 1927TIP3    H127340   5.755   6.714   2.838  1.1626  1.3429  0.9232
 1927TIP3    H227341   5.885   6.638   2.859  0.9031  0.2855 -1.0231
 1928TIP3   OH227342   0.427   3.757   8.535  0.6234 -0.5751 -0.1365
 1928TIP3    H127343   0.351   3.743   8.478  0.4661 -0.5291  0.0607
 1928TIP3    H227344   0.397   3.822   8.599  1.0489 -0.0360 -0.4785
 1929TIP3   OH227345   4.992   4.088   1.173 -0.4452 -0.3550  0.2167
 1929TIP3    H127346   4.933   4.022   1.211  0.1613 -0.7399  0.5082
 1929TIP3    H227347   5.079   4.048   1.179 -0.1604  0.1854 -0.2621
 1930TIP3   OH227348   0.486   5.022   0.253 -0.1719  0.5672  0.2876
 1930TIP3    H127349   0.547   5.094   0.238  0.2713  0.2519  0.5551
 1930TIP3    H227350   0.415   5.036   0.190 -0.1421  1.2928  0.4085
 1931TIP3   OH227351   5.693   2.325   8.740 -0.4342  0.5650  0.2850
 1931TIP3    H127352   5.653   2.380   8.673 -2.2891 -0.5218  0.4355
 1931TIP3    H227353   5.659   2.237   8.724  0.5109 -0.0769  1.5466
 1932TIP3   OH227354   3.714   2.272   1.952 -0.4609  0.2909  0.3351
 1932TIP3    H127355   3.645   2.336   1.971 -1.7582 -1.2624  1.1683
 1932TIP3    H227356   3.695   2.242   1.864  1.5821  2.6746 -1.0521
 1933TIP3   OH227357   4.930   2.389   0.463  0.1239  0.5454 -0.0750
 1933TIP3    H127358   4.851   2.396   0.410 -0.3045  0.4604  0.5412
 1933TIP3    H227359   4.975   2.311   0.428 -1.2192 -0.7975  1.0499
 1934TIP3   OH227360   5.231   2.248   1.156  0.1627  0.5717 -0.6031
 1934TIP3    H127361   5.227   2.228   1.250 -0.7421 -0.1116 -0.7706
 1934TIP3    H227362   5.267   2.169   1.117 -0.2984  0.5168 -0.9233
 1935TIP3   OH227363   3.729   1.865   2.867  0.4013 -0.0185 -0.9669
 1935TIP3    H127364   3.648   1.824   2.837 -0.9646  0.7415  1.3632
 1935TIP3    H227365   3.727   1.953   2.830 -0.6463  0.4952  0.2199
 1936TIP3   OH227366   3.308   3.733   3.358  0.8849  0.1495  0.4799
 1936TIP3    H127367   3.349   3.664   3.412  1.5818 -0.2267 -0.5103
 1936TIP3    H227368   3.351   3.814   3.387  3.4986 -0.3861 -1.5338
 1937TIP3   OH227369   0.983   0.944   2.397 -0.1763  0.2125  0.6558
 1937TIP3    H127370   0.911   0.970   2.339  0.4306  0.8909  0.1753
 1937TIP3    H227371   1.025   1.027   2.420 -0.9035  0.0471  2.7653
 1938TIP3   OH227372   4.342   6.473   2.628  0.2009 -0.0439 -0.6968
 1938TIP3    H127373   4.410   6.409   2.647  1.5968  1.4807 -0.2655
 1938TIP3    H227374   4.320   6.459   2.536 -0.5583 -2.0250 -0.2564
 1939TIP3   OH227375   1.504   2.996   1.999  0.0053  0.1014 -0.0091
 1939TIP3    H127376   1.470   2.955   2.079  0.3933 -1.9412 -0.8312
 1939TIP3    H227377   1.587   2.952   1.983  0.3528  1.1117 -1.0690
 1940TIP3   OH227378   5.014   3.504   0.416  0.5566  0.5642 -0.7292
 1940TIP3    H127379   4.980   3.571   0.357  0.9838  0.3836 -1.1903
 1940TIP3    H227380   4.953   3.431   0.407 -0.3134  1.1352  0.3093
 1941TIP3   OH227381   4.379   4.470   0.801  0.0502  0.5477  0.4592
 1941TIP3    H127382   4.429   4.544   0.768  0.4968 -0.4132 -1.1626
 1941TIP3    H227383   4.298   4.470   0.749  0.3657 -0.4820 -0.0684
 1942TIP3   OH227384   3.990   6.160   0.437  0.6637  0.1567  0.0585
 1942TIP3    H127385   4.034   6.075   0.438  0.6193  0.0454 -2.1579
 1942TIP3    H227386   4.023   6.203   0.358 -0.7246  1.4466  0.1378
 1943TIP3   OH227387   0.840   4.952   2.529  0.0310 -0.2790  0.5797
 1943TIP3    H127388   0.930   4.930   2.552  0.5791  1.2145  0.0077
 1943TIP3    H227389   0.788   4.882   2.568  1.4407 -1.2954  0.7497
 1944TIP3   OH227390   2.366   4.123   1.268 -0.4497  0.1633  0.6461
 1944TIP3    H127391   2.300   4.054   1.277 -0.3062  0.0950  1.1881
 1944TIP3    H227392   2.436   4.097   1.328  1.8768 -1.8435 -2.5612
 1945TIP3   OH227393   3.355   3.080   8.708  0.0260 -0.5272  0.2537
 1945TIP3    H127394   3.352   3.008   8.645  0.7316 -0.0163 -0.3858
 1945TIP3    H227395   3.281   3.136   8.685  0.2615 -0.3612 -0.1055
 1946TIP3   OH227396   0.795   2.518   2.702  0.6875 -0.4179 -0.0460
 1946TIP3    H127397   0.701   2.521   2.685  0.6538  1.2930  0.2591
 1946TIP3    H227398   0.803   2.518   2.797  0.9985 -2.3202 -0.0370
 1947TIP3   OH227399   0.334   3.048   3.361 -0.2300  0.4783 -0.1280
 1947TIP3    H127400   0.397   3.055   3.433 -1.3504  2.0173  0.7630
 1947TIP3    H227401   0.284   2.968   3.381 -0.2923  0.6937  0.6180
 1948TIP3   OH227402   5.228   5.280   0.696 -0.1747  0.1632 -0.3281
 1948TIP3    H127403   5.263   5.320   0.775  0.1667 -0.2189 -0.2797
 1948TIP3    H227404   5.295   5.216   0.670 -0.4303  0.0592 -0.7412
 1949TIP3   OH227405   3.981   6.627   2.610  0.0305  0.4287 -0.1018
 1949TIP3    H127406   3.973   6.680   2.688 -0.8805 -0.2791  0.3133
 1949TIP3    H227407   4.073   6.632   2.586  0.5197 -0.0703  1.5477
 1950TIP3   OH227408   1.802   6.518   1.074  0.1375 -0.4734 -0.1230
 1950TIP3    H127409   1.862   6.547   1.005  1.9789 -1.1276  1.1323
 1950TIP3    H227410   1.767   6.600   1.111 -2.8975 -0.0737 -3.3463
 1951TIP3   OH227411   5.069   6.345   0.694  0.4506  0.2402  0.1571
 1951TIP3    H127412   5.021   6.425   0.675  0.0804  0.5317  2.1302
 1951TIP3    H227413   5.160   6.366   0.675  0.2265  0.7515 -0.3898
 1952TIP3   OH227414   3.661   3.106   1.857 -0.8434 -0.1759 -0.8899
 1952TIP3    H127415   3.644   3.200   1.869 -0.1271 -0.0478 -0.8278
 1952TIP3    H227416   3.620   3.085   1.773 -0.8602  0.2356 -0.9906
 1953TIP3   OH227417   4.583   1.900   3.115 -0.3468 -0.5195 -0.4022
 1953TIP3    H127418   4.500   1.948   3.119 -0.6370 -0.9849 -0.7649
 1953TIP3    H227419   4.629   1.939   3.041 -1.0097 -1.4603 -1.3352
 1954TIP3   OH227420   2.810   2.075   2.189 -0.3770  0.0094  0.4255
 1954TIP3    H127421   2.778   2.136   2.256 -1.9497 -2.1153  1.7800
 1954TIP3    H227422   2.759   2.096   2.111 -1.3906  0.0304  1.0727
 1955TIP3   OH227423   6.494   0.509   1.321 -0.1081  0.2707 -1.0490
 1955TIP3    H127424   6.556   0.517   1.249  0.9288  1.3941 -0.0606
 1955TIP3    H227425   6.500   0.592   1.368 -2.1909  0.3256 -0.7628
 1956TIP3   OH227426   5.435   6.716   0.801  0.6542  0.1715 -0.0578
 1956TIP3    H127427   5.461   6.799   0.760 -1.2904 -0.0767 -1.9571
 1956TIP3    H227428   5.368   6.741   0.864  1.6177  0.2286  0.9843
 1957TIP3   OH227429   0.554   0.806   2.167  0.1751 -0.0446  0.7868
 1957TIP3    H127430   0.606   0.726   2.179  1.2673  0.5898  0.4413
 1957TIP3    H227431   0.589   0.867   2.232  1.1592  1.0066 -0.6737
 1958TIP3   OH227432   6.045   0.760   3.417 -0.4902  0.5431  0.1424
 1958TIP3    H127433   6.125   0.718   3.385 -1.1584  0.3380 -1.3569
 1958TIP3    H227434   6.071   0.851   3.433 -0.0036  0.5345 -0.5324
 1959TIP3   OH227435   3.887   0.726   1.129  0.2861  0.0206 -0.5972
 1959TIP3    H127436   3.881   0.759   1.039  0.4530  2.1545  0.1321
 1959TIP3    H227437   3.957   0.777   1.169 -0.2838 -0.3696  0.9687
 1960TIP3   OH227438   5.735   3.075   0.253 -0.5799  0.2342 -0.2540
 1960TIP3    H127439   5.670   3.094   0.320  0.2250 -0.8725  0.8835
 1960TIP3    H227440   5.804   3.140   0.268 -0.8876  0.6870 -0.7409
 1961TIP3   OH227441   2.603   0.538   1.331 -0.1182 -0.2306  0.0766
 1961TIP3    H127442   2.616   0.521   1.238  1.3630  0.7308  0.0883
 1961TIP3    H227443   2.519   0.496   1.351 -0.6775 -0.0824 -1.7802
 1962TIP3   OH227444   4.216   2.748   0.662  0.5937  0.1325 -0.0636
 1962TIP3    H127445   4.124   2.756   0.635  0.1915  0.0591  1.2109
 1962TIP3    H227446   4.265   2.745   0.580 -0.5955 -0.4485 -0.7788
 1963TIP3   OH227447   5.209   5.573   2.547  0.4961 -0.2140 -0.5753
 1963TIP3    H127448   5.195   5.660   2.511  0.9307  1.3473  2.6762
 1963TIP3    H227449   5.293   5.545   2.511  1.1921  1.4948 -0.3623
 1964TIP3   OH227450   2.550   1.018   2.911 -0.7301 -0.1626  0.2448
 1964TIP3    H127451   2.515   0.980   2.830 -0.1550 -2.4576  0.9872
 1964TIP3    H227452   2.524   0.956   2.979 -1.4521  1.8654  1.9071
 1965TIP3   OH227453   3.040   3.483   3.235 -0.0589 -0.1484 -0.1518
 1965TIP3    H127454   3.068   3.564   3.191  2.0595  0.2946  1.8734
 1965TIP3    H227455   2.986   3.513   3.308  0.7876 -0.5302  0.6471
 1966TIP3   OH227456   6.346   5.651   3.449 -0.0645 -0.2615  0.3624
 1966TIP3    H127457   6.340   5.581   3.514 -2.0055 -1.4802 -1.0180
 1966TIP3    H227458   6.307   5.614   3.370 -0.1320  2.0194 -0.7653
 1967TIP3   OH227459   1.876   3.270   0.607 -0.1556 -0.1188  0.2457
 1967TIP3    H127460   1.819   3.284   0.682  3.3147  0.0202  3.0871
 1967TIP3    H227461   1.908   3.357   0.584 -1.0189 -0.1840 -1.3660
 1968TIP3   OH227462   3.386   0.680   0.490 -0.2775 -0.2792  0.5320
 1968TIP3    H127463   3.365   0.773   0.506  3.0900  0.5978  0.4597
 1968TIP3    H227464   3.349   0.662   0.404  1.2003  1.8235 -0.6236
 1969TIP3   OH227465   2.053   6.323   0.763  0.0900 -0.3780 -1.4528
 1969TIP3    H127466   1.972   6.366   0.791  0.4768  0.5936 -1.7570
 1969TIP3    H227467   2.071   6.258   0.831  0.9444  1.8307  0.5730
 1970TIP3   OH227468   2.261   4.560   0.377 -0.1890  0.3303  0.2683
 1970TIP3    H127469   2.214   4.578   0.296 -2.6692  0.0666  1.5531
 1970TIP3    H227470   2.302   4.643   0.400 -1.1680  0.9599 -0.2167
 1971TIP3   OH227471   5.851   0.033   0.786 -1.4099  0.2011  0.2819
 1971TIP3    H127472   5.904   0.025   0.865 -2.4421 -0.4516  0.9307
 1971TIP3    H227473   5.825  -0.057   0.765  0.3407  0.1092 -1.8946
 1972TIP3   OH227474   6.189   3.103   8.125 -0.1130  0.0433  0.6983
 1972TIP3    H127475   6.240   3.127   8.203  0.2501  0.6481  0.2780
 1972TIP3    H227476   6.199   3.008   8.118  0.9384  0.1558  0.6269
 1973TIP3   OH227477   0.499   6.046   3.373 -0.1267  0.2686 -0.4315
 1973TIP3    H127478   0.497   6.111   3.303 -1.5107 -0.2972 -0.9305
 1973TIP3    H227479   0.592   6.025   3.383  0.3579  2.2461 -0.3120
 1974TIP3   OH227480   1.680   4.629   1.109  0.7505 -0.3602 -0.0609
 1974TIP3    H127481   1.651   4.598   1.023  1.9512 -1.4246 -0.1184
 1974TIP3    H227482   1.738   4.702   1.090 -0.1150  0.3491 -0.0561
 1975TIP3   OH227483   5.399   1.026   1.566  0.0371 -0.4983 -0.1538
 1975TIP3    H127484   5.333   0.990   1.626 -0.6527 -0.2119 -0.7345
 1975TIP3    H227485   5.351   1.047   1.486  0.3811  1.8147  0.1732
 1976TIP3   OH227486   6.604   3.296   0.378  0.2802 -0.0887 -0.3875
 1976TIP3    H127487   6.519   3.253   0.367 -1.3197  2.8644 -0.5555
 1976TIP3    H227488   6.596   3.378   0.330  2.6085  1.0985  1.0561
 1977TIP3   OH227489   5.230   2.189   1.459 -0.1695  0.0803  0.0288
 1977TIP3    H127490   5.211   2.257   1.524  1.0305  0.1619  0.3243
 1977TIP3    H227491   5.319   2.160   1.481 -0.7770 -1.8495  0.1352
 1978TIP3   OH227492   4.419   5.182   8.605 -0.3578 -0.1827  0.2365
 1978TIP3    H127493   4.486   5.114   8.601  0.8892  0.8982  1.5054
 1978TIP3    H227494   4.443   5.244   8.536 -1.2807 -0.7947 -0.6721
 1979TIP3   OH227495   4.893   2.214   1.817  0.1271  0.1824  0.4281
 1979TIP3    H127496   4.964   2.150   1.819 -1.8384 -2.2043  3.3098
 1979TIP3    H227497   4.936   2.298   1.829  2.5438 -1.0446  0.9637
 1980TIP3   OH227498   1.976   3.791   3.325  0.1489 -0.4781 -0.1845
 1980TIP3    H127499   2.014   3.753   3.405  0.4173  0.2813  0.0535
 1980TIP3    H227500   1.901   3.734   3.305 -0.5200 -0.1151  1.1664
 1981TIP3   OH227501   4.465   4.639   0.982  0.2870 -0.1514  0.9007
 1981TIP3    H127502   4.407   4.570   0.948  1.3157 -0.8098  0.4292
 1981TIP3    H227503   4.472   4.702   0.910 -1.2480  0.8732  1.5914
 1982TIP3   OH227504   3.590   5.873   1.187  0.4240 -0.1257  0.1016
 1982TIP3    H127505   3.577   5.961   1.222  2.3874  0.8116 -1.3403
 1982TIP3    H227506   3.531   5.869   1.111 -0.1451 -0.3352  0.5401
 1983TIP3   OH227507   2.834   5.427   8.692 -0.3270  0.4564 -0.4162
 1983TIP3    H127508   2.786   5.448   8.612 -1.8871  2.2302  0.8880
 1983TIP3    H227509   2.926   5.429   8.666 -0.8012  0.6562 -2.2188
 1984TIP3   OH227510   4.745   2.958   2.100  0.0772  0.2348 -0.2655
 1984TIP3    H127511   4.656   2.971   2.067 -0.8621  1.2301  2.3744
 1984TIP3    H227512   4.771   2.872   2.065 -2.4092 -0.6588 -0.1550
 1985TIP3   OH227513   0.829   2.039   0.335 -0.8145  0.4860  0.4764
 1985TIP3    H127514   0.861   2.091   0.410  0.6806 -2.3793  1.9888
 1985TIP3    H227515   0.881   2.071   0.261  1.1366  0.2303  1.6517
 1986TIP3   OH227516   0.043   3.806   2.367 -0.1606  0.0003 -0.1425
 1986TIP3    H127517  -0.021   3.871   2.394 -1.2998 -1.2155  0.1652
 1986TIP3    H227518   0.037   3.738   2.434  2.2702  0.3419  0.5321
 1987TIP3   OH227519   5.102   6.274   1.852  0.7810 -0.2861  0.0835
 1987TIP3    H127520   5.092   6.330   1.775  2.9333  0.8401  0.5255
 1987TIP3    H227521   5.033   6.304   1.912  0.6765  0.5642 -0.4426
 1988TIP3   OH227522   5.500   0.744   1.804  0.0757 -0.5390  0.3095
 1988TIP3    H127523   5.563   0.742   1.732 -0.0107 -2.7361  0.2533
 1988TIP3    H227524   5.554   0.758   1.882  0.2114  1.3926 -0.0796
 1989TIP3   OH227525   3.193   3.675   1.082  0.3028 -0.6682 -0.1687
 1989TIP3    H127526   3.245   3.702   1.158 -1.9937 -1.0604  1.7004
 1989TIP3    H227527   3.192   3.579   1.086 -0.5978 -0.6689 -0.0750
 1990TIP3   OH227528   6.306   5.604   2.730 -0.3397 -0.0837  0.6081
 1990TIP3    H127529   6.382   5.661   2.744  0.5232 -1.2256  0.6851
 1990TIP3    H227530   6.286   5.613   2.637  1.4641 -1.6497  0.0204
 1991TIP3   OH227531   2.495   5.240   1.211 -0.0589 -0.0910  0.6342
 1991TIP3    H127532   2.502   5.189   1.130 -0.9049  0.9134 -0.1052
 1991TIP3    H227533   2.517   5.179   1.281  0.9939 -0.9078 -0.3731
 1992TIP3   OH227534   6.115   6.096   3.567  0.2525  0.2636  0.4571
 1992TIP3    H127535   6.081   6.087   3.656  0.5012  3.3591  0.9783
 1992TIP3    H227536   6.168   6.017   3.554  2.1766  0.7199  4.0254
 1993TIP3   OH227537   1.117   4.014   0.586 -0.0386 -0.7144 -0.4909
 1993TIP3    H127538   1.121   4.051   0.498  0.0004  0.5167  0.0102
 1993TIP3    H227539   1.048   4.064   0.630 -0.1290 -1.3793  0.1512
 1994TIP3   OH227540   1.688   4.334   1.663  0.0570  0.4051  0.1841
 1994TIP3    H127541   1.723   4.286   1.738 -0.2551  1.5468  1.0816
 1994TIP3    H227542   1.760   4.334   1.599 -0.4399 -2.5817 -0.5314
 1995TIP3   OH227543   0.267   3.829   2.953 -0.2155  0.1355 -0.4176
 1995TIP3    H127544   0.317   3.760   2.995  0.0144  0.6474  0.1593
 1995TIP3    H227545   0.321   3.856   2.878 -0.7363 -0.9382 -1.2046
 1996TIP3   OH227546   6.003   5.859   1.442 -0.1981  0.2812  0.1765
 1996TIP3    H127547   6.027   5.766   1.441 -2.3075 -0.3121  0.2631
 1996TIP3    H227548   6.050   5.895   1.518  1.5356 -0.4122 -0.5077
 1997TIP3   OH227549   1.724   2.767   3.592  0.0846 -0.4523 -0.0093
 1997TIP3    H127550   1.813   2.764   3.558  0.2205 -0.4731  0.3366
 1997TIP3    H227551   1.729   2.717   3.674 -0.0492  0.2663  0.4477
 1998TIP3   OH227552   1.178   0.620   0.989  0.1950  0.2704  0.4735
 1998TIP3    H127553   1.235   0.669   1.049  0.0980  0.8528  0.0970
 1998TIP3    H227554   1.236   0.558   0.945  0.3974  0.3480  0.6306
 1999TIP3   OH227555   0.630   3.870   1.260 -0.3452  0.1643  0.4614
 1999TIP3    H127556   0.679   3.788   1.248 -0.8533 -0.0475 -0.1820
 1999TIP3    H227557   0.542   3.841   1.285 -0.6024  0.5081 -0.0416
 2000TIP3   OH227558   2.905   6.807   2.569  0.6220  0.0271  0.2613
 2000TIP3    H127559   2.955   6.742   2.618  0.7743  0.6544  0.9636
 2000TIP3    H227560   2.813   6.790   2.592  0.6150 -0.3192 -0.0267
 2001TIP3   OH227561   6.062   3.681   3.362  0.0389  0.0510  0.1722
 2001TIP3    H127562   6.035   3.737   3.434  1.0089  0.4484  0.2381
 2001TIP3    H227563   6.114   3.738   3.305 -0.0544 -0.4525 -0.4284
 2002TIP3   OH227564   5.596   0.389   0.557 -1.0433 -0.3264  0.3209
 2002TIP3    H127565   5.651   0.378   0.480 -0.7614  0.8619  0.3398
 2002TIP3    H227566   5.588   0.484   0.568 -0.4170 -0.4467  2.2050
 2003TIP3   OH227567   3.563   1.329   8.021 -0.4965 -0.6985  0.2680
 2003TIP3    H127568   3.532   1.397   8.081  1.3370 -0.3102  0.8644
 2003TIP3    H227569   3.577   1.375   7.938  0.2126 -0.4364  0.5193
 2004TIP3   OH227570   0.696   3.465   8.640 -0.1494  0.1071  0.3037
 2004TIP3    H127571   0.687   3.383   8.689  2.6989 -0.1931  0.5073
 2004TIP3    H227572   0.673   3.441   8.550 -0.7856 -0.5396  0.6239
 2005TIP3   OH227573   1.517   2.455   3.123 -0.2377 -0.6175 -0.5751
 2005TIP3    H127574   1.484   2.392   3.060  0.6617 -0.4923 -1.1904
 2005TIP3    H227575   1.502   2.414   3.208  0.4139 -1.7136 -0.9672
 2006TIP3   OH227576   4.963   4.982   8.742 -0.1784  0.4168 -0.4053
 2006TIP3    H127577   5.024   4.992   8.815 -0.0748  0.5767 -0.5144
 2006TIP3    H227578   4.877   4.978   8.784  0.0031 -1.1976 -0.1506
 2007TIP3   OH227579   3.774   6.301   3.500 -0.1483  0.1239 -0.3253
 2007TIP3    H127580   3.801   6.378   3.450  1.0658 -0.3427 -0.4297
 2007TIP3    H227581   3.838   6.295   3.571 -0.4572 -0.5769 -0.0960
 2008TIP3   OH227582   5.377   5.199   1.435 -0.8701  0.7473  0.4387
 2008TIP3    H127583   5.328   5.159   1.507  1.5313 -0.1133  1.6990
 2008TIP3    H227584   5.419   5.126   1.390 -0.8470  1.4361 -0.7176
 2009TIP3   OH227585   2.178   2.323   8.701  0.1227  0.0512 -0.3424
 2009TIP3    H127586   2.178   2.232   8.733 -0.7760  0.5426  1.1528
 2009TIP3    H227587   2.154   2.315   8.609  0.5318 -1.2620 -0.3652
 2010TIP3   OH227588   0.037   3.968   2.990  0.5584 -0.1037 -0.0856
 2010TIP3    H127589   0.087   4.022   2.929  0.5725  0.0675  0.0738
 2010TIP3    H227590   0.070   3.880   2.977 -0.4101 -0.3107 -1.3140
 2011TIP3   OH227591   5.656   5.081   0.398 -0.6728 -0.1995  0.7828
 2011TIP3    H127592   5.733   5.107   0.347 -1.0617  0.5527  0.5654
 2011TIP3    H227593   5.684   5.087   0.489 -0.9268  1.7047  0.7893
 2012TIP3   OH227594   4.228   5.213   0.634  0.0283  0.2189  0.5704
 2012TIP3    H127595   4.282   5.240   0.708 -0.1254 -0.0686  0.7875
 2012TIP3    H227596   4.236   5.118   0.631  0.1378  0.2395  0.1354
 2013TIP3   OH227597   1.285   4.207   8.760  0.0060  0.7074 -0.7351
 2013TIP3    H127598   1.230   4.259   8.703 -1.3129 -0.1074 -0.2460
 2013TIP3    H227599   1.324   4.141   8.702  1.4385  1.9962 -1.2948
 2014TIP3   OH227600   4.196   1.069   8.419 -0.0453 -0.0851 -0.2779
 2014TIP3    H127601   4.155   1.139   8.368  1.3329  0.5928 -0.5160
 2014TIP3    H227602   4.260   1.030   8.359  1.2153  0.3650  0.7288
 2015TIP3   OH227603   4.019   2.405   8.227  0.3101 -0.6832 -0.5752
 2015TIP3    H127604   4.092   2.344   8.217 -0.8423 -1.9186 -1.9123
 2015TIP3    H227605   4.056   2.479   8.275  1.2772 -3.3365  3.3091
 2016TIP3   OH227606   1.371   2.014   1.419 -0.1064  0.3386  0.1257
 2016TIP3    H127607   1.362   1.978   1.507  1.4362 -1.9501 -0.5787
 2016TIP3    H227608   1.281   2.038   1.394 -1.0335 -1.7741  1.1883
 2017TIP3   OH227609   3.569   0.187   1.431 -0.3789  0.2475  0.0268
 2017TIP3    H127610   3.552   0.113   1.489  0.2222  0.7845  0.9181
 2017TIP3    H227611   3.482   0.218   1.406 -0.6368 -1.1866 -0.9422
 2018TIP3   OH227612   0.603   4.131   2.470 -0.4623 -0.7791 -0.1438
 2018TIP3    H127613   0.682   4.172   2.435 -0.5443 -1.0524 -0.6491
 2018TIP3    H227614   0.622   4.037   2.470 -0.7451 -0.8373 -0.1567
 2019TIP3   OH227615   0.813   4.745   1.864  0.1752  0.3046 -0.0403
 2019TIP3    H127616   0.725   4.713   1.881 -0.1608  1.6758  0.9515
 2019TIP3    H227617   0.852   4.678   1.808 -0.1767 -2.3295  2.5762
 2020TIP3   OH227618   0.523   4.269   3.199 -0.3116 -0.4910 -0.4899
 2020TIP3    H127619   0.462   4.200   3.172  0.5188 -1.9969  1.3188
 2020TIP3    H227620   0.477   4.316   3.268 -1.2478  1.4702 -2.3192
 2021TIP3   OH227621   1.626   5.185   2.121  0.1054 -0.3429 -0.3044
 2021TIP3    H127622   1.633   5.139   2.205  1.3325  0.7499  0.2145
 2021TIP3    H227623   1.554   5.140   2.076  0.2211 -1.7376  0.8174
 2022TIP3   OH227624   1.244   4.070   2.895 -0.5026 -0.3369 -0.4717
 2022TIP3    H127625   1.207   3.989   2.929 -0.3030 -1.4184 -2.5926
 2022TIP3    H227626   1.328   4.079   2.940 -0.3403 -1.5657 -0.4924
 2023TIP3   OH227627   3.368   0.773   0.797 -0.4226 -0.5025 -0.4181
 2023TIP3    H127628   3.338   0.828   0.869  0.3245 -1.7639  0.9142
 2023TIP3    H227629   3.321   0.805   0.720  0.4550  2.3919  0.1384
 2024TIP3   OH227630   5.275   6.099   8.615 -0.0069 -0.0690  0.4560
 2024TIP3    H127631   5.294   6.192   8.623 -0.4543  0.2063 -1.3034
 2024TIP3    H227632   5.180   6.095   8.602 -0.4861 -1.0226  3.3879
 2025TIP3   OH227633   1.274   3.512   3.464  0.1073 -0.1657 -0.1213
 2025TIP3    H127634   1.303   3.571   3.533 -1.2989 -0.0618  0.3963
 2025TIP3    H227635   1.230   3.568   3.400 -1.8284 -0.6845  0.6931
 2026TIP3   OH227636   0.556   3.421   3.116 -0.7249 -0.2754 -0.2063
 2026TIP3    H127637   0.597   3.409   3.201  0.9338 -2.0462 -1.1591
 2026TIP3    H227638   0.627   3.407   3.053 -1.6300  2.0683 -1.9079
 2027TIP3   OH227639   6.817   3.524   3.372  0.2169 -1.0114 -0.3613
 2027TIP3    H127640   6.805   3.435   3.404  0.1155 -0.6506  0.6420
 2027TIP3    H227641   6.729   3.562   3.371  0.3297 -0.7455 -0.2617
 2028TIP3   OH227642   2.210   3.012   2.679  0.0235 -0.0521  0.1371
 2028TIP3    H127643   2.198   2.931   2.629  1.2573 -0.2575  0.1320
 2028TIP3    H227644   2.137   3.068   2.652 -0.7019 -1.0673 -0.0478
 2029TIP3   OH227645   6.808   3.076   4.018  0.0326  0.3087 -0.1841
 2029TIP3    H127646   6.849   3.110   3.939 -0.6924  1.7793  0.0397
 2029TIP3    H227647   6.856   2.995   4.038  0.6676  0.2835 -1.7198
 2030TIP3   OH227648   2.424   4.777   2.597  0.0406  0.5723  0.0709
 2030TIP3    H127649   2.429   4.683   2.616 -2.6605 -0.2068 -2.2952
 2030TIP3    H227650   2.432   4.819   2.682  0.7410 -1.8341  1.2898
 2031TIP3   OH227651   2.935   1.711   2.660 -0.6329 -0.2246  0.0008
 2031TIP3    H127652   2.987   1.663   2.725 -2.3356 -2.1363  0.0414
 2031TIP3    H227653   2.892   1.643   2.609 -2.3739  1.2675 -0.6114
 2032TIP3   OH227654   1.461   2.829   0.833 -0.1158 -0.3193  0.5692
 2032TIP3    H127655   1.377   2.866   0.860 -1.6093 -1.1824 -2.5155
 2032TIP3    H227656   1.438   2.752   0.781  2.4924  0.2036 -1.5791
 2033TIP3   OH227657   6.518   5.695   2.935  0.1128 -0.0643  0.1443
 2033TIP3    H127658   6.462   5.764   2.900 -2.1570 -2.1975 -0.8027
 2033TIP3    H227659   6.515   5.707   3.030  0.3780  1.5201 -0.0239
 2034TIP3   OH227660   2.483   4.204   1.615 -0.3934 -0.0484  0.2731
 2034TIP3    H127661   2.455   4.277   1.669 -1.1241 -0.1722  0.0731
 2034TIP3    H227662   2.467   4.126   1.668 -0.0521 -0.0956  0.3094
 2035TIP3   OH227663   4.170   3.273   0.971 -0.1119 -0.8424 -0.5180
 2035TIP3    H127664   4.091   3.326   0.986 -0.3136 -1.1121 -0.6291
 2035TIP3    H227665   4.140   3.199   0.919  0.5246 -0.0420 -2.0932
 2036TIP3   OH227666   6.705   6.351   1.585 -0.2300 -0.2284 -0.0860
 2036TIP3    H127667   6.747   6.436   1.600  1.2348 -1.0011  0.2895
 2036TIP3    H227668   6.710   6.307   1.670 -2.7339  0.0123  0.2755
 2037TIP3   OH227669   0.424   6.571   1.586 -0.3404  0.1891  0.4773
 2037TIP3    H127670   0.372   6.571   1.506  0.2178  0.0030  0.1098
 2037TIP3    H227671   0.513   6.550   1.557 -0.1960 -0.2094  1.1865
 2038TIP3   OH227672   1.345   4.943   1.607 -0.2160  0.2359  0.6473
 2038TIP3    H127673   1.407   4.900   1.549 -1.8578 -0.9431 -0.3383
 2038TIP3    H227674   1.365   5.037   1.599 -0.3791  0.1333 -1.8992
 2039TIP3   OH227675   4.174   1.425   1.820  0.2253  0.2954 -0.1836
 2039TIP3    H127676   4.163   1.331   1.806  1.0365  0.2711 -0.7003
 2039TIP3    H227677   4.211   1.432   1.908  0.4267  0.1153 -0.2537
 2040TIP3   OH227678   5.745   1.676   1.751  0.5197 -0.3443  0.0440
 2040TIP3    H127679   5.761   1.708   1.839  0.1371 -1.1178  0.4023
 2040TIP3    H227680   5.778   1.586   1.752 -0.7375 -0.8288 -0.1942
 2041TIP3   OH227681   4.435   4.370   2.545 -0.7244  0.4769  0.4264
 2041TIP3    H127682   4.424   4.342   2.636  2.6587 -0.0050  0.8130
 2041TIP3    H227683   4.470   4.458   2.551  1.1250 -0.1677 -0.2790
 2042TIP3   OH227684   5.331   2.000   2.345 -0.0315  0.6103 -0.1269
 2042TIP3    H127685   5.383   1.993   2.266 -1.4131  1.1831 -1.1360
 2042TIP3    H227686   5.267   2.068   2.326 -1.3384 -0.2544  0.9301
 2043TIP3   OH227687   1.731   1.831   8.729 -0.3567 -0.2119  0.1552
 2043TIP3    H127688   1.708   1.846   8.637 -0.7475 -1.4469  0.0428
 2043TIP3    H227689   1.825   1.852   8.734 -0.6150  1.1784 -0.2059
 2044TIP3   OH227690   3.734   3.265   2.639  0.0047 -0.0367 -0.1774
 2044TIP3    H127691   3.653   3.243   2.685  0.0159  1.1774  0.4813
 2044TIP3    H227692   3.803   3.229   2.695 -0.0713 -1.1521 -0.7862
 2045TIP3   OH227693   4.866   0.939   8.603 -1.2451 -0.0640  0.0558
 2045TIP3    H127694   4.843   0.951   8.511  0.8242 -2.1432 -0.8424
 2045TIP3    H227695   4.839   0.849   8.622  0.6475 -0.5526  0.6425
 2046TIP3   OH227696   4.006   4.470   1.290 -0.6591 -0.3576 -0.5641
 2046TIP3    H127697   4.031   4.555   1.326 -1.3062 -0.1667 -0.5539
 2046TIP3    H227698   4.047   4.467   1.204  0.7806 -0.7569  0.0919
 2047TIP3   OH227699   1.302   4.747   0.210  0.0921  0.1349  0.8010
 2047TIP3    H127700   1.370   4.783   0.153 -0.0791  0.5254  0.8384
 2047TIP3    H227701   1.270   4.822   0.260 -1.0802  0.1647  0.0512
 2048TIP3   OH227702   3.273   5.164   1.036  0.1192 -0.1972 -0.1638
 2048TIP3    H127703   3.215   5.237   1.012  1.0766  1.0265  1.0544
 2048TIP3    H227704   3.279   5.111   0.957 -0.8302  0.9117 -1.0113
 2049TIP3   OH227705   2.649   2.162   1.419 -0.9478  0.4330 -0.2696
 2049TIP3    H127706   2.560   2.196   1.426 -0.6248  1.4035 -0.6610
 2049TIP3    H227707   2.702   2.225   1.466 -0.5091 -0.3916  0.3729
 2050TIP3   OH227708   4.656   2.093   4.144  0.0177 -0.2076 -0.0354
 2050TIP3    H127709   4.571   2.135   4.158 -1.0723 -2.2294 -0.1432
 2050TIP3    H227710   4.712   2.163   4.111 -1.9164  0.9509 -1.0829
 2051TIP3   OH227711   0.682   2.964   2.693  0.1542 -0.5368 -0.3320
 2051TIP3    H127712   0.746   2.898   2.668 -1.1781 -1.4240 -1.5168
 2051TIP3    H227713   0.734   3.043   2.709  1.5613 -1.3068 -0.9402
 2052TIP3   OH227714   0.139   1.070   1.524 -0.3422  0.2330 -0.5554
 2052TIP3    H127715   0.098   1.086   1.439 -0.9751 -1.0057 -0.5006
 2052TIP3    H227716   0.137   0.975   1.534  0.6619  0.2952  0.3933
 2053TIP3   OH227717   2.414   0.039   2.234 -0.2025  0.1561 -0.2176
 2053TIP3    H127718   2.504   0.056   2.204 -0.5349 -0.2163 -1.4786
 2053TIP3    H227719   2.376   0.126   2.247  0.5089  0.3236  0.9202
 2054TIP3   OH227720   3.293   4.876   3.020  0.4819 -0.0909 -0.5651
 2054TIP3    H127721   3.282   4.808   3.086 -0.9402 -0.0547 -0.7274
 2054TIP3    H227722   3.360   4.842   2.961 -1.9039 -2.5920 -2.1155
 2055TIP3   OH227723   4.104   4.737   0.279  0.2158 -0.2573 -1.1425
 2055TIP3    H127724   4.193   4.716   0.307  0.1477  2.8385  1.9811
 2055TIP3    H227725   4.109   4.827   0.249 -1.8262 -0.1166 -1.1945
 2056TIP3   OH227726   6.611   6.261   2.148 -0.2384  0.2414  0.9126
 2056TIP3    H127727   6.580   6.171   2.140 -1.3000  0.5412  1.5472
 2056TIP3    H227728   6.607   6.281   2.241 -0.3550  1.0694  0.7409
 2057TIP3   OH227729   2.446   6.779   0.514  0.6061 -0.3723 -0.2785
 2057TIP3    H127730   2.412   6.700   0.472  0.3029 -0.3357 -0.1041
 2057TIP3    H227731   2.466   6.838   0.442 -1.3066  0.2712 -0.3346
 2058TIP3   OH227732   2.554   0.210   3.116 -0.8587 -0.7119  0.1793
 2058TIP3    H127733   2.649   0.210   3.122 -0.8881 -0.7713  0.6757
 2058TIP3    H227734   2.535   0.160   3.037 -0.5026 -1.6123  0.6488
 2059TIP3   OH227735   4.465   5.768   1.772  0.2497 -0.3789  0.1648
 2059TIP3    H127736   4.514   5.823   1.834  0.2279  1.2938 -1.2075
 2059TIP3    H227737   4.407   5.830   1.727 -0.6088 -1.7535 -0.6710
 2060TIP3   OH227738   2.002   6.468   2.094 -0.3721  0.0173  0.0085
 2060TIP3    H127739   1.916   6.435   2.121  0.4040 -0.6032  1.8435
 2060TIP3    H227740   1.984   6.519   2.014 -2.4177 -0.1782  0.2965
 2061TIP3   OH227741   2.271   5.399   1.761 -0.3388 -0.1529  0.5533
 2061TIP3    H127742   2.201   5.445   1.715  0.3279 -0.1559 -0.4913
 2061TIP3    H227743   2.347   5.457   1.753 -0.2755 -0.0189  1.9178
 2062TIP3   OH227744   2.355   0.639   3.326 -0.2200  0.2965  0.4071
 2062TIP3    H127745   2.427   0.701   3.340 -0.1227  0.0351  1.1077
 2062TIP3    H227746   2.294   0.656   3.398 -0.1095 -0.5289  0.7072
 2063TIP3   OH227747   2.113   0.003   1.778 -0.1720  0.1101  0.1470
 2063TIP3    H127748   2.111   0.018   1.872 -0.9158 -0.9740  0.3243
 2063TIP3    H227749   2.196   0.041   1.749  0.6182 -0.5907  1.4363
 2064TIP3   OH227750   0.501   3.349   0.565 -0.2914 -0.3858 -0.5167
 2064TIP3    H127751   0.478   3.431   0.609  2.2764 -0.3166  0.9591
 2064TIP3    H227752   0.426   3.292   0.580 -2.0124  1.5421 -1.2904
 2065TIP3   OH227753   2.786   2.183   8.217 -0.0967  0.5929  0.2232
 2065TIP3    H127754   2.743   2.265   8.240 -1.5513 -0.0874  0.0319
 2065TIP3    H227755   2.715   2.119   8.211  1.1163 -0.9692  1.5346
 2066TIP3   OH227756   2.877   6.633   3.451 -0.6235 -0.1321 -0.4656
 2066TIP3    H127757   2.881   6.682   3.369  1.7981 -0.6098 -0.6980
 2066TIP3    H227758   2.860   6.699   3.518  0.0586  0.6775 -1.0645
 2067TIP3   OH227759   2.680   1.958   8.598  0.0273 -0.0996 -0.1703
 2067TIP3    H127760   2.765   1.974   8.556  0.6997 -1.4413  0.6074
 2067TIP3    H227761   2.692   1.986   8.689 -0.9272  1.3036 -0.4421
 2068TIP3   OH227762   5.499   4.054   0.075  0.5404 -0.6114 -0.2322
 2068TIP3    H127763   5.412   4.074   0.039  1.0625  0.9193 -0.7357
 2068TIP3    H227764   5.552   4.035  -0.002  0.8359 -0.7625  0.0081
 2069TIP3   OH227765   4.911   1.770   0.144 -0.3624  0.1655 -0.2859
 2069TIP3    H127766   4.853   1.816   0.205 -0.9933 -0.3963 -0.4510
 2069TIP3    H227767   4.884   1.679   0.149 -0.2600  0.0734 -1.2305
 2070TIP3   OH227768   5.726   1.324   2.177 -0.1327  0.0143 -0.3064
 2070TIP3    H127769   5.806   1.313   2.228  0.1534 -0.2417 -0.7984
 2070TIP3    H227770   5.756   1.319   2.086 -0.8843 -1.3591 -0.5014
 2071TIP3   OH227771   2.965   0.686   3.841 -0.5430  0.1848 -0.9222
 2071TIP3    H127772   2.998   0.775   3.831  2.2321 -0.1527  2.8581
 2071TIP3    H227773   3.022   0.632   3.787 -0.2931  0.4150 -0.8884
 2072TIP3   OH227774   6.160   0.674   0.866 -0.0767  0.2561  0.4443
 2072TIP3    H127775   6.193   0.585   0.856  1.3168  0.8838 -0.8817
 2072TIP3    H227776   6.078   0.663   0.915 -0.4105 -1.8242 -0.4696
 2073TIP3   OH227777   3.446   6.765   2.457 -0.0899  0.1623 -0.0164
 2073TIP3    H127778   3.472   6.857   2.467  1.5984 -0.4309  1.9217
 2073TIP3    H227779   3.527   6.716   2.470 -1.3873 -1.6871  1.9243
 2074TIP3   OH227780   1.018   1.877   1.909  0.6174  0.2526  0.1629
 2074TIP3    H127781   1.052   1.928   1.835  0.8632 -1.8192 -1.2432
 2074TIP3    H227782   0.958   1.815   1.869 -0.7563  0.3369  1.9894
 2075TIP3   OH227783   2.086   2.794   0.488  0.4600 -0.4720  0.3222
 2075TIP3    H127784   2.038   2.877   0.492 -1.7472 -1.6873  1.6642
 2075TIP3    H227785   2.151   2.800   0.558  2.6567  1.3307 -1.7209
 2076TIP3   OH227786   5.068   3.464   1.333 -0.1966  0.5677  0.1037
 2076TIP3    H127787   5.104   3.549   1.358  0.7354  0.8272 -1.9579
 2076TIP3    H227788   5.143   3.411   1.307 -0.8898 -0.4390  0.0537
 2077TIP3   OH227789   0.691   4.875   8.725  0.4232  0.0131  0.0943
 2077TIP3    H127790   0.599   4.862   8.746 -0.1586  0.7977 -1.7348
 2077TIP3    H227791   0.693   4.882   8.630  2.4461 -0.4296  0.0517
 2078TIP3   OH227792   1.291   2.344   0.988  0.1048 -0.0797 -0.1791
 2078TIP3    H127793   1.315   2.307   1.074  0.3429  2.6324  1.0223
 2078TIP3    H227794   1.375   2.359   0.945  0.1198  0.6533  0.0886
 2079TIP3   OH227795   5.234   5.851   1.244  0.2562 -0.3666 -0.1757
 2079TIP3    H127796   5.250   5.897   1.326  0.6727 -0.5736 -0.1332
 2079TIP3    H227797   5.212   5.919   1.181  1.6055 -0.0125 -0.2990
 2080TIP3   OH227798   2.811   6.663   0.886 -0.1352 -0.0002  0.0841
 2080TIP3    H127799   2.755   6.654   0.964 -0.2841  1.3465  0.1526
 2080TIP3    H227800   2.754   6.705   0.822 -0.0841 -1.3134 -0.8605
 2081TIP3   OH227801   6.332   2.417   2.814 -0.2397  0.1334  0.1109
 2081TIP3    H127802   6.320   2.490   2.876  0.7936  0.5591 -0.1689
 2081TIP3    H227803   6.268   2.352   2.841 -0.2102  0.5599  1.2652
 2082TIP3   OH227804   5.724   3.832   0.734 -0.1055  0.1079 -0.4309
 2082TIP3    H127805   5.705   3.799   0.646 -1.1032  2.8790 -1.3563
 2082TIP3    H227806   5.655   3.795   0.789 -2.1162  1.7648 -1.7290
 2083TIP3   OH227807   0.922   0.435   1.308 -0.3734 -0.0048  0.0212
 2083TIP3    H127808   0.860   0.473   1.370  0.8210 -0.1732  1.3626
 2083TIP3    H227809   0.950   0.508   1.254  0.1662  0.5790  1.0713
 2084TIP3   OH227810   0.374   5.974   2.449 -0.3090  0.5564  0.1042
 2084TIP3    H127811   0.338   6.062   2.436  0.7054  1.2668  1.7573
 2084TIP3    H227812   0.416   5.978   2.535  1.1807 -1.0916 -0.4971
 2085TIP3   OH227813   4.162   6.184   2.143  0.5073  0.1590 -0.1018
 2085TIP3    H127814   4.242   6.165   2.095 -0.3206 -1.0844 -1.0547
 2085TIP3    H227815   4.141   6.103   2.190 -0.3807  0.3394 -0.1595
 2086TIP3   OH227816   4.917   1.901   8.113  0.0972  0.1818  0.5360
 2086TIP3    H127817   4.910   1.978   8.056  0.6472 -0.5639 -0.5726
 2086TIP3    H227818   4.891   1.933   8.200 -1.6296  1.1364 -0.2802
 2087TIP3   OH227819   4.743   4.391   3.248 -0.4585  0.0924 -0.2505
 2087TIP3    H127820   4.779   4.362   3.164  0.2606  1.5005 -0.4560
 2087TIP3    H227821   4.808   4.366   3.313 -0.2534  0.4619 -0.3151
 2088TIP3   OH227822   0.420   1.322   0.120  0.2161 -0.7248  0.5232
 2088TIP3    H127823   0.336   1.366   0.136  0.6595  0.0613  0.7215
 2088TIP3    H227824   0.395   1.236   0.087 -0.6878  0.0933 -1.0895
 2089TIP3   OH227825   2.175   0.309   0.755  0.3134  0.1287 -0.3108
 2089TIP3    H127826   2.138   0.236   0.706  1.0979 -0.3872 -0.1618
 2089TIP3    H227827   2.172   0.280   0.846 -0.1069  0.6187 -0.1647
 2090TIP3   OH227828   4.887   4.928   1.645 -0.0321  0.0523  0.2418
 2090TIP3    H127829   4.888   4.981   1.565 -0.4745 -0.9892 -0.4736
 2090TIP3    H227830   4.941   4.852   1.624 -1.3333 -0.9499  0.4112
 2091TIP3   OH227831   5.035   0.681   0.365  0.4727  0.2850  0.1318
 2091TIP3    H127832   5.097   0.733   0.417  0.2154  0.1497  0.5818
 2091TIP3    H227833   4.959   0.671   0.422  0.4746 -0.4885  0.0063
 2092TIP3   OH227834   4.850   0.768   0.575 -0.3235 -0.1344 -0.6493
 2092TIP3    H127835   4.853   0.688   0.627 -0.7066 -0.6280 -1.3686
 2092TIP3    H227836   4.760   0.801   0.586 -0.3391 -0.1179 -0.8200
 2093TIP3   OH227837   6.445   4.731   0.972 -0.2668 -0.0760 -0.0477
 2093TIP3    H127838   6.424   4.805   1.029 -3.8506  0.6719 -2.0231
 2093TIP3    H227839   6.480   4.772   0.893  0.1556 -0.7346 -0.2104
 2094TIP3   OH227840   6.096   1.531   2.862 -0.0547 -0.0388  0.0382
 2094TIP3    H127841   6.045   1.610   2.878 -0.9864 -0.6006 -0.1096
 2094TIP3    H227842   6.074   1.472   2.935 -0.3739 -0.6444 -0.5326
 2095TIP3   OH227843   2.568   0.820   0.846  0.4611 -0.1411  0.1142
 2095TIP3    H127844   2.537   0.773   0.769 -0.7189  2.1630 -0.9404
 2095TIP3    H227845   2.638   0.877   0.814  0.3070  0.4805  0.8262
 2096TIP3   OH227846   6.567   3.147   3.840  0.6206  0.2857 -0.9131
 2096TIP3    H127847   6.499   3.124   3.776 -0.0383  1.1835 -0.5492
 2096TIP3    H227848   6.546   3.094   3.917  0.2171  0.7077 -0.7329
 2097TIP3   OH227849   5.426   3.265   3.082 -0.1645  0.2236 -0.4367
 2097TIP3    H127850   5.442   3.171   3.080 -0.9198  0.0338  0.8182
 2097TIP3    H227851   5.433   3.288   3.175 -0.5193  1.3007 -0.6609
 2098TIP3   OH227852   3.860   6.818   1.526  0.1403  0.4754  0.5107
 2098TIP3    H127853   3.841   6.911   1.522 -0.8898  0.3727  2.2640
 2098TIP3    H227854   3.774   6.776   1.536  0.3447 -0.8670 -2.2150
 2099TIP3   OH227855   0.588   2.822   1.031 -0.0442 -0.9108 -0.3250
 2099TIP3    H127856   0.503   2.802   1.070 -0.2622 -1.5506 -1.0975
 2099TIP3    H227857   0.639   2.860   1.102 -1.2199  0.1969 -0.0402
 2100TIP3   OH227858   5.621   5.549   2.093  0.0448 -0.1324  0.1405
 2100TIP3    H127859   5.592   5.589   2.176  0.1933 -3.0245  1.7262
 2100TIP3    H227860   5.712   5.526   2.109  0.5612  0.6883 -1.4750
 2101TIP3   OH227861   5.694   5.006   2.801  0.4150 -0.6098 -0.3329
 2101TIP3    H127862   5.655   5.035   2.719 -0.8416 -0.3651  0.3119
 2101TIP3    H227863   5.621   4.964   2.848  1.4064 -1.9309  0.1112
 2102TIP3   OH227864   3.461   4.142   8.365 -0.0771  0.3281 -0.2864
 2102TIP3    H127865   3.534   4.082   8.378 -0.4998 -0.4614 -1.4680
 2102TIP3    H227866   3.391   4.088   8.331 -0.8306  1.3040 -0.3262
 2103TIP3   OH227867   3.171   4.289   8.343  0.2652  0.0547  0.4487
 2103TIP3    H127868   3.132   4.238   8.271 -0.4731  0.2670  0.6979
 2103TIP3    H227869   3.180   4.377   8.307  1.1263 -0.1340  0.1736
 2104TIP3   OH227870   5.169   6.723   2.326 -0.1154  0.5842 -0.2727
 2104TIP3    H127871   5.199   6.642   2.284  1.0352 -0.9468  3.1668
 2104TIP3    H227872   5.074   6.714   2.329  0.0060 -0.7274  0.1835
 2105TIP3   OH227873   2.540   0.105   2.870  0.2246  0.1850 -0.8294
 2105TIP3    H127874   2.547   0.019   2.827  0.4839 -0.1931 -0.0486
 2105TIP3    H227875   2.579   0.166   2.807  1.6330 -0.5142 -0.6735
 2106TIP3   OH227876   0.552   2.382   3.439 -0.2005  0.0491  0.0798
 2106TIP3    H127877   0.482   2.439   3.469  0.4652  2.5306 -2.6027
 2106TIP3    H227878   0.626   2.404   3.495 -0.0382  1.7300 -0.7188
 2107TIP3   OH227879   0.490   6.027   2.865 -0.3628  0.1953 -0.2531
 2107TIP3    H127880   0.450   5.940   2.872 -1.5378  0.5246 -2.1233
 2107TIP3    H227881   0.428   6.077   2.812  1.5431  1.3807 -1.4681
 2108TIP3   OH227882   6.611   1.925   0.784 -0.0100 -0.4730 -0.5080
 2108TIP3    H127883   6.632   2.018   0.777 -0.5661 -0.1616  1.4627
 2108TIP3    H227884   6.556   1.918   0.862  0.3770 -2.5237 -0.3611
 2109TIP3   OH227885   2.958   4.832   3.640 -0.2875  0.1037  0.2545
 2109TIP3    H127886   3.002   4.760   3.684 -2.5769 -0.6884  1.4443
 2109TIP3    H227887   2.885   4.790   3.594 -1.0543  1.5414  0.1047
 2110TIP3   OH227888   3.342   0.375   1.368 -0.0692  0.0018 -0.3756
 2110TIP3    H127889   3.251   0.352   1.349 -0.4258  0.3810  0.8151
 2110TIP3    H227890   3.362   0.446   1.306 -0.7114  0.1722 -0.3927
 2111TIP3   OH227891   6.568   4.695   8.687 -0.6538  0.0262 -0.5015
 2111TIP3    H127892   6.519   4.771   8.658  1.8241  2.2712  0.7817
 2111TIP3    H227893   6.624   4.672   8.613 -1.3684 -0.5718 -0.8717
 2112TIP3   OH227894   1.572   5.645   0.585 -0.1768 -0.2519  0.3284
 2112TIP3    H127895   1.555   5.739   0.583  0.4494 -0.1440 -0.0840
 2112TIP3    H227896   1.498   5.608   0.633 -1.4202  0.2283 -1.1769
 2113TIP3   OH227897   3.210   5.230   0.518 -0.3910 -0.0220 -0.0566
 2113TIP3    H127898   3.281   5.249   0.580  0.2973 -0.9424 -0.5456
 2113TIP3    H227899   3.219   5.297   0.450  0.6401 -0.7154 -0.6259
 2114TIP3   OH227900   6.181   5.037   1.198  0.5924  0.0934  0.3232
 2114TIP3    H127901   6.203   5.114   1.146  2.5298 -0.5086  0.1842
 2114TIP3    H227902   6.085   5.033   1.196  0.5354  1.4937 -1.1006
 2115TIP3   OH227903   1.735   6.180   1.681  0.2842  0.2661 -0.0894
 2115TIP3    H127904   1.825   6.150   1.668  0.5190  1.3780 -1.2325
 2115TIP3    H227905   1.745   6.264   1.726 -0.1314  0.8427 -1.0578
 2116TIP3   OH227906   0.712   1.901   3.107 -0.3713 -0.0552 -0.1276
 2116TIP3    H127907   0.771   1.920   3.034 -0.7349 -1.3825 -0.7846
 2116TIP3    H227908   0.763   1.923   3.185  0.8812 -0.8753 -0.6861
 2117TIP3   OH227909   0.083   5.818   2.744  0.1903 -0.6042  0.2222
 2117TIP3    H127910   0.064   5.904   2.706  0.6362 -1.0588 -1.0752
 2117TIP3    H227911   0.036   5.818   2.827 -1.0990  0.3001 -0.4762
 2118TIP3   OH227912   6.044   5.041   0.911 -0.9671  0.1698  0.4244
 2118TIP3    H127913   5.970   5.092   0.943  0.1520  2.2917 -0.1527
 2118TIP3    H227914   6.121   5.087   0.945  0.1205 -0.6328 -0.8438
 2119TIP3   OH227915   3.716   2.658   1.812 -0.2859 -0.4171 -0.1726
 2119TIP3    H127916   3.661   2.731   1.842  1.0345  0.3388  0.5105
 2119TIP3    H227917   3.670   2.622   1.737 -1.2275  0.8042 -0.2068
 2120TIP3   OH227918   4.459   0.594   3.885  0.1156  0.5169 -0.1924
 2120TIP3    H127919   4.492   0.652   3.954  0.6146 -1.2318  1.1107
 2120TIP3    H227920   4.521   0.605   3.813  1.6671 -0.2019  0.9734
 2121TIP3   OH227921   3.269   0.726   3.596 -0.0854  0.0035  0.2386
 2121TIP3    H127922   3.245   0.801   3.649 -1.2593 -0.9664  1.1570
 2121TIP3    H227923   3.207   0.658   3.622  0.7388 -1.1868 -0.7824
 2122TIP3   OH227924   1.941   4.245   1.126 -0.0558  0.3324 -0.0823
 2122TIP3    H127925   1.985   4.307   1.184  0.0354  0.5582 -0.3911
 2122TIP3    H227926   1.940   4.163   1.174  0.8869  0.2668 -0.1554
 2123TIP3   OH227927   5.279   3.771   8.679  0.4868 -0.5868  0.0672
 2123TIP3    H127928   5.198   3.814   8.707 -0.0844 -1.7376  0.2262
 2123TIP3    H227929   5.309   3.823   8.604 -1.3383 -1.1133 -1.1041
 2124TIP3   OH227930   3.429   2.319   2.946  0.6646 -0.2934 -0.4015
 2124TIP3    H127931   3.355   2.266   2.917  1.2994 -0.6560 -1.4128
 2124TIP3    H227932   3.390   2.395   2.989 -0.2757 -0.6802 -0.5629
 2125TIP3   OH227933   1.771   4.525   1.340 -0.1664 -0.0026  0.1564
 2125TIP3    H127934   1.725   4.562   1.265  0.1327  0.7832  0.3433
 2125TIP3    H227935   1.763   4.430   1.330 -1.7226  0.1027  0.1163
 2126TIP3   OH227936   4.974   3.482   8.575  0.0332 -0.1536 -0.2004
 2126TIP3    H127937   4.925   3.401   8.564 -1.0958  0.4114  0.4619
 2126TIP3    H227938   4.957   3.531   8.494 -0.1096 -0.1566 -0.1724
 2127TIP3   OH227939   3.491   2.940   2.656 -0.4088  0.8012 -0.1338
 2127TIP3    H127940   3.413   2.989   2.680 -0.4639  1.3992 -1.4353
 2127TIP3    H227941   3.504   2.878   2.728 -1.2057  1.6997  0.8157
 2128TIP3   OH227942   2.041   1.230   1.093  0.0824  0.3444 -0.5794
 2128TIP3    H127943   2.100   1.219   1.019  0.1316 -0.2795 -0.4539
 2128TIP3    H227944   2.019   1.141   1.120 -0.6082  0.5639 -0.3814
 2129TIP3   OH227945   4.420   3.141   1.367  0.4457 -0.4005 -0.8647
 2129TIP3    H127946   4.357   3.127   1.296  2.0996 -1.3782 -2.2269
 2129TIP3    H227947   4.469   3.059   1.372 -0.7908 -1.0966  2.7384
 2130TIP3   OH227948   4.416   3.296   2.580 -0.0826 -0.2228  0.0095
 2130TIP3    H127949   4.485   3.238   2.612  0.8464  0.6598 -0.3710
 2130TIP3    H227950   4.339   3.271   2.632  0.6644 -0.7821  0.8911
 2131TIP3   OH227951   4.467   1.277   8.510 -0.2532  0.7878 -0.3763
 2131TIP3    H127952   4.485   1.366   8.480 -0.0941  1.1439  0.7376
 2131TIP3    H227953   4.450   1.286   8.604  0.7616 -0.4941 -0.0483
 2132TIP3   OH227954   2.244   5.609   0.075  0.1584  0.7059  0.1909
 2132TIP3    H127955   2.204   5.679   0.024  0.2914 -0.5023 -1.6819
 2132TIP3    H227956   2.308   5.653   0.130 -0.6546  2.1810  0.0125
 2133TIP3   OH227957   1.357   2.441   4.266  0.3663  0.1690 -0.5344
 2133TIP3    H127958   1.284   2.503   4.269 -1.0561 -1.4881  0.5275
 2133TIP3    H227959   1.428   2.485   4.312 -0.4190  1.2235 -0.2951
 2134TIP3   OH227960   1.115   5.920   3.755 -0.0118 -0.0288  0.1095
 2134TIP3    H127961   1.136   5.828   3.770  0.9167  0.3502  1.2575
 2134TIP3    H227962   1.198   5.967   3.769 -1.1159  1.3253  2.9171
 2135TIP3   OH227963   6.516   1.290   3.278 -0.0908  0.7269 -0.7098
 2135TIP3    H127964   6.455   1.324   3.213 -1.1867  1.4356  0.6540
 2135TIP3    H227965   6.485   1.324   3.361  1.5008  0.1524  0.1697
 2136TIP3   OH227966   2.259   1.827   1.953  0.0409  0.2169  0.4558
 2136TIP3    H127967   2.334   1.854   2.005 -1.0144  0.3735  1.9741
 2136TIP3    H227968   2.229   1.746   1.995  0.8634 -1.2856 -1.7019
 2137TIP3   OH227969   3.039   3.662   2.434 -0.1519  0.4826 -0.7002
 2137TIP3    H127970   3.131   3.676   2.412 -0.4814  1.7038 -1.4307
 2137TIP3    H227971   3.035   3.671   2.529  0.8040 -1.7778 -0.3947
 2138TIP3   OH227972   5.742   5.603   8.599  0.1337 -0.0214 -0.5784
 2138TIP3    H127973   5.660   5.637   8.634  0.3291 -1.3987  1.4190
 2138TIP3    H227974   5.716   5.554   8.520 -1.0646 -0.7838  0.2469
 2139TIP3   OH227975   6.702   5.649   0.981 -0.5053  0.0732  0.8660
 2139TIP3    H127976   6.612   5.648   0.949 -0.3587  2.7540  0.1021
 2139TIP3    H227977   6.754   5.628   0.903 -0.3580  2.6061  0.1704
 2140TIP3   OH227978   4.377   1.746   3.992 -0.0021  0.1413 -0.3868
 2140TIP3    H127979   4.367   1.833   4.031  2.1665  0.3914 -0.2461
 2140TIP3    H227980   4.466   1.720   4.015 -0.4796 -1.9724 -0.7611
 2141TIP3   OH227981   0.392   2.413   8.334  0.1484 -0.4456  0.0799
 2141TIP3    H127982   0.470   2.383   8.380 -0.3798  0.3943  1.5782
 2141TIP3    H227983   0.343   2.464   8.399 -1.1383 -0.0781 -1.1196
 2142TIP3   OH227984   4.811   2.044   1.513  0.5153  0.3508 -0.1187
 2142TIP3    H127985   4.762   2.125   1.501  0.3600  0.1640 -0.7935
 2142TIP3    H227986   4.758   1.977   1.469 -0.7474 -0.6667  2.7101
 2143TIP3   OH227987   1.756   6.404   3.014  0.1330 -0.1167 -0.1836
 2143TIP3    H127988   1.696   6.450   3.074  1.0763  0.0666  0.6434
 2143TIP3    H227989   1.755   6.313   3.045 -1.0831 -0.5149 -1.2977
 2144TIP3   OH227990   2.002   3.587   2.877  0.2780  0.3048 -0.2077
 2144TIP3    H127991   1.929   3.584   2.940 -1.1309  1.7645 -1.6572
 2144TIP3    H227992   1.984   3.515   2.816  0.8739 -0.2419  0.2528
 2145TIP3   OH227993   3.286   3.437   1.384 -0.0103 -0.1610  0.3297
 2145TIP3    H127994   3.327   3.503   1.440  0.6958 -0.1911 -0.1440
 2145TIP3    H227995   3.320   3.456   1.297  1.7766 -2.3489  0.4599
 2146TIP3   OH227996   6.484   5.050   1.803  0.1871  0.0589  0.8082
 2146TIP3    H127997   6.485   5.084   1.714  1.5468 -0.7202  0.4963
 2146TIP3    H227998   6.575   5.057   1.832  0.2211 -1.8719  1.2773
 2147TIP3   OH227999   4.883   4.653   1.278  0.1708  0.0247  0.2983
 2147TIP3    H128000   4.939   4.649   1.201  0.8389  0.2968  0.7544
 2147TIP3    H228001   4.860   4.746   1.286 -1.5664 -0.2845 -0.7209
 2148TIP3   OH228002   2.309   6.460   0.990 -0.1369 -0.7177  0.0556
 2148TIP3    H128003   2.241   6.418   1.044 -0.4553 -1.5607 -0.9680
 2148TIP3    H228004   2.368   6.389   0.967 -0.7236 -0.6720 -1.7838
 2149TIP3   OH228005   5.431   2.480   1.629 -0.2872  0.2723  0.0055
 2149TIP3    H128006   5.391   2.535   1.562 -0.3279  2.6689  1.8505
 2149TIP3    H228007   5.522   2.468   1.600 -0.6023  0.2644 -1.0160
 2150TIP3   OH228008   4.736   0.466   0.491  0.0132  0.4662 -0.0290
 2150TIP3    H128009   4.781   0.491   0.572 -0.4915  1.6931 -0.1012
 2150TIP3    H228010   4.664   0.410   0.520 -0.3545  1.1536  0.4243
 2151TIP3   OH228011   4.044   4.325   2.508 -0.1179  0.0388 -0.1978
 2151TIP3    H128012   4.011   4.355   2.593 -3.1780 -0.3841 -1.1138
 2151TIP3    H228013   4.073   4.235   2.524 -0.3959  0.0657  0.4736
 2152TIP3   OH228014   4.296   2.215   2.548  0.3319 -0.8135 -0.0773
 2152TIP3    H128015   4.304   2.120   2.559  1.1254 -0.5619  1.9146
 2152TIP3    H228016   4.224   2.240   2.606 -0.8718 -0.3143 -1.6758
 2153TIP3   OH228017   5.601   2.561   2.039  0.3170  0.5802  0.3086
 2153TIP3    H128018   5.557   2.579   2.122 -1.6763  2.4111 -1.0521
 2153TIP3    H228019   5.628   2.647   2.007 -1.2701  0.2766 -2.0980
 2154TIP3   OH228020   4.626   1.737   8.302 -0.8640  0.0606  0.2936
 2154TIP3    H128021   4.603   1.830   8.292  0.7358  0.3925 -0.6386
 2154TIP3    H228022   4.713   1.737   8.342 -1.2206 -1.0802  1.1344
 2155TIP3   OH228023   6.258   5.844   3.639  0.0087 -0.2966 -0.1089
 2155TIP3    H128024   6.312   5.786   3.585 -1.7568  0.2625 -2.6476
 2155TIP3    H228025   6.180   5.793   3.659 -1.4611  0.9911 -2.1759
 2156TIP3   OH228026   0.858   0.662   3.852  0.5170 -0.4561  0.4512
 2156TIP3    H128027   0.937   0.715   3.842  1.3458 -1.8064 -0.2881
 2156TIP3    H228028   0.889   0.572   3.861 -0.8534 -0.8547  1.8497
 2157TIP3   OH228029   0.812   1.943   2.298  0.2760  0.2122  0.1212
 2157TIP3    H128030   0.754   1.931   2.373  1.7707  1.3578  1.5509
 2157TIP3    H228031   0.828   1.855   2.265 -1.5412 -0.1923  0.2224
 2158TIP3   OH228032   5.294   4.800   0.884  0.5759 -0.1672 -0.6592
 2158TIP3    H128033   5.265   4.738   0.951 -1.2916  0.4732 -0.7998
 2158TIP3    H228034   5.378   4.833   0.916  1.2358 -2.1534 -0.1960
 2159TIP3   OH228035   0.147   3.545   0.379 -1.2602  0.2050 -0.3445
 2159TIP3    H128036   0.128   3.452   0.368 -0.6175  0.0908 -0.5511
 2159TIP3    H228037   0.181   3.572   0.294 -0.8740  0.4863 -0.1031
 2160TIP3   OH228038   3.283   1.416   2.651 -0.3715  0.5346  0.8038
 2160TIP3    H128039   3.203   1.405   2.600 -0.1789  0.0124  0.6019
 2160TIP3    H228040   3.333   1.336   2.634  0.7241  1.3752 -0.0192
 2161TIP3   OH228041   1.676   0.701   4.427  0.0742 -0.0961  0.1184
 2161TIP3    H128042   1.712   0.782   4.462  3.1683 -0.9265 -0.8823
 2161TIP3    H228043   1.682   0.639   4.499 -0.4835  0.0376  0.2888
 2162TIP3   OH228044   3.001   0.380   2.709 -0.1407 -0.2282  0.2913
 2162TIP3    H128045   3.043   0.418   2.632 -0.1048 -0.3235  0.2627
 2162TIP3    H228046   3.013   0.445   2.778  0.4373 -0.4351  0.3981
 2163TIP3   OH228047   2.422   3.162   2.509 -0.0175  0.2307  0.0882
 2163TIP3    H128048   2.338   3.126   2.536 -0.5025  0.3982 -1.1757
 2163TIP3    H228049   2.410   3.257   2.512  0.2525  0.2624  0.2705
 2164TIP3   OH228050   2.831   6.378   8.256 -0.2414 -0.0551  0.1931
 2164TIP3    H128051   2.910   6.329   8.234 -1.0707 -1.6237  0.5381
 2164TIP3    H228052   2.817   6.437   8.182  0.2984 -0.9872 -0.6781
 2165TIP3   OH228053   0.412   4.170   8.405 -0.1133  0.2145 -0.4814
 2165TIP3    H128054   0.440   4.090   8.361 -0.6928  0.2252 -0.8874
 2165TIP3    H228055   0.464   4.240   8.364 -1.3176  0.3564 -1.8713
 2166TIP3   OH228056   2.695   4.971   0.404  0.1584 -0.0570  0.1994
 2166TIP3    H128057   2.676   5.034   0.335  1.6873 -0.4700 -0.6453
 2166TIP3    H228058   2.754   5.018   0.464  0.3041 -0.2815  0.2343
 2167TIP3   OH228059   4.181   6.650   1.602  0.1650 -0.5050 -0.2935
 2167TIP3    H128060   4.179   6.745   1.617 -0.5368 -0.4181 -0.8722
 2167TIP3    H228061   4.117   6.615   1.664  0.7589 -0.6630  0.2469
 2168TIP3   OH228062   3.086   2.790   8.377 -0.3551  0.0008  0.4078
 2168TIP3    H128063   3.063   2.801   8.285  0.9675  1.0916  0.1608
 2168TIP3    H228064   3.065   2.699   8.397  0.1466 -0.5106 -1.2365
 2169TIP3   OH228065   6.425   1.186   0.668 -0.1697 -0.4867  0.5448
 2169TIP3    H128066   6.436   1.109   0.725  0.5630 -0.4987  0.3983
 2169TIP3    H228067   6.346   1.168   0.618 -0.5435 -0.7082  1.1987
 2170TIP3   OH228068   2.285   2.517   2.506  0.6038 -0.0096 -0.5377
 2170TIP3    H128069   2.318   2.483   2.589 -1.3441 -0.6973 -0.0114
 2170TIP3    H228070   2.265   2.439   2.454 -1.1279  0.3296 -0.4354
 2171TIP3   OH228071   0.477   0.540   8.725 -0.1833  0.0112 -0.4820
 2171TIP3    H128072   0.540   0.594   8.772  0.4009 -0.6704 -0.4564
 2171TIP3    H228073   0.394   0.557   8.769  0.7657 -2.8977  2.9909
 2172TIP3   OH228074   1.480   6.784   3.354  0.0012 -0.0682 -0.2669
 2172TIP3    H128075   1.529   6.811   3.432  1.1633 -0.0712 -0.9688
 2172TIP3    H228076   1.476   6.863   3.300 -0.8117 -0.0598 -0.1942
 2173TIP3   OH228077   0.867   2.846   8.473  0.5092  0.2714 -0.1177
 2173TIP3    H128078   0.815   2.830   8.552  1.4002 -0.6186  0.3161
 2173TIP3    H228079   0.899   2.936   8.483  0.4699  0.2269  0.4572
 2174TIP3   OH228080   6.576   1.055   2.879  0.1651 -1.1118 -0.3657
 2174TIP3    H128081   6.603   1.045   2.970  1.0610  0.7122 -0.3735
 2174TIP3    H228082   6.639   1.004   2.829  1.5716  0.3064 -0.1279
 2175TIP3   OH228083   4.787   3.017   3.829 -0.2047 -0.4044  0.6410
 2175TIP3    H128084   4.701   3.042   3.795  0.7409  1.6544 -0.4045
 2175TIP3    H228085   4.820   2.951   3.768 -0.0290  0.6234 -0.3929
 2176TIP3   OH228086   0.759   0.392   4.318 -0.0067 -0.2584  0.4497
 2176TIP3    H128087   0.800   0.390   4.405 -0.9673 -1.0938  0.9157
 2176TIP3    H228088   0.775   0.480   4.285  0.7085 -0.0509  1.3154
 2177TIP3   OH228089   2.967   6.349   1.019 -0.2829 -0.1096 -0.7319
 2177TIP3    H128090   3.054   6.325   0.987 -0.1559 -0.1546 -0.3675
 2177TIP3    H228091   2.918   6.267   1.018  0.0303 -0.3257  0.1353
 2178TIP3   OH228092   3.561   3.345   3.468  0.4051  0.4128  0.7025
 2178TIP3    H128093   3.586   3.255   3.488  0.2136  0.7015  2.3991
 2178TIP3    H228094   3.487   3.337   3.408 -0.1990 -0.5955  1.5512
 2179TIP3   OH228095   3.657   3.612   0.643 -0.0750  0.5683  0.1581
 2179TIP3    H128096   3.737   3.559   0.639 -0.8026 -0.5625  0.3498
 2179TIP3    H228097   3.617   3.600   0.557 -0.5072  0.3872  0.3833
 2180TIP3   OH228098   6.430   5.259   3.045  0.4412  0.2853 -0.7652
 2180TIP3    H128099   6.490   5.301   2.983 -0.1631 -0.3845 -1.8348
 2180TIP3    H228100   6.347   5.303   3.032  0.4640  0.5788  0.0489
 2181TIP3   OH228101   0.203   1.897   1.195  0.6641  0.4544  1.2174
 2181TIP3    H128102   0.217   1.988   1.219 -0.8631  1.1609 -0.4129
 2181TIP3    H228103   0.123   1.871   1.241  0.5794  0.2395  0.9574
 2182TIP3   OH228104   1.633   1.464   1.704  0.0069  0.2538  0.2887
 2182TIP3    H128105   1.694   1.536   1.718 -0.9997  1.2155 -0.1134
 2182TIP3    H228106   1.573   1.468   1.778  1.0377 -1.3731  1.2682
 2183TIP3   OH228107   4.061   5.815   2.881  0.0700 -0.6393  0.6295
 2183TIP3    H128108   4.015   5.823   2.798 -1.0224 -0.7399  1.2036
 2183TIP3    H228109   4.045   5.899   2.925 -1.2617 -1.3864  1.6549
 2184TIP3   OH228110   1.406   3.620   2.228 -0.2232 -0.0517 -0.0094
 2184TIP3    H128111   1.462   3.542   2.236  0.3009  0.3998  0.8481
 2184TIP3    H228112   1.317   3.584   2.223 -0.0750 -0.6958  1.3666
 2185TIP3   OH228113   0.686   5.664   8.524  0.6458 -0.2572 -0.4152
 2185TIP3    H128114   0.632   5.586   8.520  2.5500 -1.6097 -1.1869
 2185TIP3    H228115   0.656   5.718   8.452 -0.6773 -0.2492  0.1127
 2186TIP3   OH228116   2.941   5.971   8.360 -0.2507 -0.0896  0.2278
 2186TIP3    H128117   2.961   5.906   8.292 -1.9909 -1.3607  0.8487
 2186TIP3    H228118   3.019   5.974   8.414  0.9312  0.4742 -1.4346
 2187TIP3   OH228119   3.596   5.186   0.244 -0.4976  0.1545  0.3527
 2187TIP3    H128120   3.688   5.164   0.262 -0.4125 -0.1856 -0.4703
 2187TIP3    H228121   3.599   5.275   0.210 -0.3635 -0.2130 -0.6126
 2188TIP3   OH228122   1.477   2.141   2.484 -0.3554  0.3961  0.4995
 2188TIP3    H128123   1.571   2.155   2.495 -0.6596  2.3926  0.7606
 2188TIP3    H228124   1.448   2.104   2.568  0.2406 -0.6786  0.2552
 2189TIP3   OH228125   5.207   1.981   3.019 -0.0144 -0.2666  0.2359
 2189TIP3    H128126   5.147   1.993   2.945 -0.6723 -1.3503  0.5715
 2189TIP3    H228127   5.287   2.025   2.991 -0.5933  0.2506 -0.6883
 2190TIP3   OH228128   0.516   0.039   2.777 -0.0270 -0.0644 -0.0710
 2190TIP3    H128129   0.483   0.035   2.867  2.2314 -1.6763  0.7983
 2190TIP3    H228130   0.447   0.082   2.728 -0.7390  2.2914  2.7135
 2191TIP3   OH228131   0.925   1.893   1.619  0.4772 -0.1455  1.1790
 2191TIP3    H128132   0.860   1.825   1.637  0.4131 -0.6949 -0.8958
 2191TIP3    H228133   0.873   1.972   1.605  0.4813  0.1030  2.4370
 2192TIP3   OH228134   4.604   1.552   2.071 -0.6436  0.2607  0.0572
 2192TIP3    H128135   4.677   1.521   2.017  0.2023  1.6779  0.3598
 2192TIP3    H228136   4.644   1.610   2.136 -2.0511  1.2097  0.1164
 2193TIP3   OH228137   4.932   6.707   0.222 -0.4071 -0.6503  0.1948
 2193TIP3    H128138   4.947   6.735   0.312 -2.3134  0.7031  0.1561
 2193TIP3    H228139   4.964   6.780   0.169  1.8730 -1.9553 -0.3631
 2194TIP3   OH228140   0.945   6.788   8.368  0.2623 -0.1331 -0.4878
 2194TIP3    H128141   0.905   6.801   8.454  1.1796  2.5155 -0.3715
 2194TIP3    H228142   0.873   6.761   8.312 -1.4625  2.9512  0.0608
 2195TIP3   OH228143   4.060   1.024   1.059  0.1170  0.6005  0.2701
 2195TIP3    H128144   3.968   1.043   1.044 -0.4037  0.6341  2.9830
 2195TIP3    H228145   4.104   1.109   1.046  0.0965  0.2788 -2.5731
 2196TIP3   OH228146   2.544   3.614   1.103  0.8735 -0.0680  0.0697
 2196TIP3    H128147   2.495   3.564   1.037  1.2135 -2.1606  1.3283
 2196TIP3    H228148   2.541   3.704   1.071 -1.3189 -0.5737 -1.3813
 2197TIP3   OH228149   0.993   2.434   1.768 -0.1625  0.0823 -0.4729
 2197TIP3    H128150   0.931   2.498   1.733  1.4351  1.4047 -1.0433
 2197TIP3    H228151   0.938   2.365   1.805 -2.1017  2.7725  2.2361
 2198TIP3   OH228152   2.291   2.887   0.082 -0.2298 -0.2412  0.2348
 2198TIP3    H128153   2.345   2.858   0.156  0.7408 -0.0449 -0.3893
 2198TIP3    H228154   2.270   2.978   0.102 -0.2141 -0.2727  0.3995
 2199TIP3   OH228155   5.146   3.066   0.520  0.5750 -0.4683  0.5409
 2199TIP3    H128156   5.153   2.992   0.580 -0.2032 -1.1154 -0.1430
 2199TIP3    H228157   5.178   3.141   0.571  0.5577 -1.1116  1.5331
 2200TIP3   OH228158   5.861   2.930   2.611  0.1133 -0.4079 -0.1530
 2200TIP3    H128159   5.942   2.945   2.660 -0.9043  3.7306  0.5581
 2200TIP3    H228160   5.802   2.891   2.675  0.4897 -0.2644  0.2901
 2201TIP3   OH228161   6.786   6.386   3.736 -0.0936 -0.2375 -0.3220
 2201TIP3    H128162   6.740   6.335   3.803 -0.1466 -0.5519 -0.6007
 2201TIP3    H228163   6.816   6.464   3.783 -3.6706  1.6246 -0.7741
 2202TIP3   OH228164   4.629   2.110   2.217 -0.1680 -0.3828 -0.0349
 2202TIP3    H128165   4.550   2.061   2.194  0.1384 -1.0736  0.3886
 2202TIP3    H228166   4.603   2.164   2.292  0.5724 -2.9314  2.1836
 2203TIP3   OH228167   1.932   2.656   1.446 -0.3322  0.1542 -0.1916
 2203TIP3    H128168   1.929   2.589   1.378 -2.2767 -0.8066  0.7390
 2203TIP3    H228169   1.840   2.679   1.461  0.2015  2.1235  0.4298
 2204TIP3   OH228170   0.414   1.001   2.449  0.0832 -0.2396 -0.0378
 2204TIP3    H128171   0.503   1.028   2.471 -0.3330 -0.4438  2.2352
 2204TIP3    H228172   0.360   1.075   2.477 -0.5477 -0.5760 -0.3572
 2205TIP3   OH228173   0.012   0.854   2.981  0.5999  0.5477 -0.1163
 2205TIP3    H128174  -0.067   0.807   3.007 -0.6403  1.8964 -1.2258
 2205TIP3    H228175  -0.003   0.876   2.889  2.2699  0.8680 -0.3405
 2206TIP3   OH228176   4.741   1.741   8.640 -0.3011 -0.4052 -0.1152
 2206TIP3    H128177   4.812   1.745   8.704  0.5890 -0.0560 -1.0892
 2206TIP3    H228178   4.786   1.738   8.555 -1.4595 -0.1452 -0.7542
 2207TIP3   OH228179   1.023   3.201   8.669  0.0406  0.6519 -0.4186
 2207TIP3    H128180   1.077   3.277   8.645  1.8603 -0.0443  1.1467
 2207TIP3    H228181   1.050   3.133   8.608  1.1929  0.2390  0.5015
 2208TIP3   OH228182   2.997   5.963   2.950 -0.0524 -0.4044  0.0542
 2208TIP3    H128183   3.082   5.923   2.971  0.6316  0.1416 -1.5309
 2208TIP3    H228184   2.937   5.889   2.942  0.4734 -0.8593  0.2713
 2209TIP3   OH228185   0.735   4.976   2.813 -0.1250 -0.3180  0.0290
 2209TIP3    H128186   0.694   4.931   2.739  0.4635 -0.3620 -0.2708
 2209TIP3    H228187   0.807   4.919   2.839  1.8507  1.3240 -1.5759
 2210TIP3   OH228188   4.855   6.330   2.925  0.0265 -0.0191 -0.3324
 2210TIP3    H128189   4.905   6.249   2.937 -0.6512 -0.0976  3.1644
 2210TIP3    H228190   4.764   6.300   2.915 -0.2088  0.2349  0.8474
 2211TIP3   OH228191   4.057   6.815   0.754  0.5158 -0.2365 -0.6807
 2211TIP3    H128192   4.029   6.739   0.806 -2.6629  0.8824 -0.5133
 2211TIP3    H228193   4.147   6.832   0.783  1.0198 -3.3069 -0.0577
 2212TIP3   OH228194   0.878   6.659   2.833  0.1472  0.0825 -0.3509
 2212TIP3    H128195   0.925   6.638   2.914 -0.3176  0.8240  0.1278
 2212TIP3    H228196   0.789   6.629   2.849  0.2180 -0.4044 -0.8628
 2213TIP3   OH228197   0.329   0.177   1.234 -0.4306  0.1872 -0.1024
 2213TIP3    H128198   0.422   0.159   1.219 -0.5282 -0.4855  0.0727
 2213TIP3    H228199   0.283   0.115   1.178 -0.7825 -1.4769  1.8911
 2214TIP3   OH228200   2.102   2.665   1.886  1.0130  0.0070 -1.0746
 2214TIP3    H128201   2.036   2.659   1.817  0.1605  0.6391 -0.3404
 2214TIP3    H228202   2.159   2.737   1.859 -0.5974  1.7265 -0.1062
 2215TIP3   OH228203   5.166   6.760   1.577  0.5798 -0.5307 -0.8515
 2215TIP3    H128204   5.152   6.754   1.482 -1.8413  2.4117 -0.8194
 2215TIP3    H228205   5.224   6.835   1.587  0.3218 -0.4512  0.0525
 2216TIP3   OH228206   1.531   6.308   0.053  0.7719  0.6767  0.6003
 2216TIP3    H128207   1.498   6.319  -0.036 -1.3646 -1.7563  0.9545
 2216TIP3    H228208   1.490   6.377   0.104 -2.5461 -1.1253  0.6344
 2217TIP3   OH228209   4.243   3.977   1.902  0.2388 -0.3145  0.4204
 2217TIP3    H128210   4.273   4.045   1.963  0.0691  0.1165  0.0319
 2217TIP3    H228211   4.158   3.950   1.936 -1.5602  2.4075 -1.4706
 2218TIP3   OH228212   0.505   5.043   8.440 -0.1662 -0.8324  0.2535
 2218TIP3    H128213   0.550   5.127   8.451  1.3232 -1.6256  0.5444
 2218TIP3    H228214   0.506   5.029   8.345 -0.9034 -0.2777  0.1593
 2219TIP3   OH228215   0.646   4.751   2.627  0.2664 -0.3880  0.0755
 2219TIP3    H128216   0.639   4.657   2.617  0.4861 -0.4146  0.1742
 2219TIP3    H228217   0.564   4.776   2.670 -0.0522 -0.4520 -0.4897
 2220TIP3   OH228218   4.640   2.246   1.415 -0.1821 -0.4271 -0.5191
 2220TIP3    H128219   4.546   2.226   1.411 -0.0862 -0.7868 -1.0909
 2220TIP3    H228220   4.651   2.292   1.498 -1.0884  0.7848 -1.0300
 2221TIP3   OH228221   4.173   4.433   1.033  0.1743 -0.0077  0.5673
 2221TIP3    H128222   4.130   4.381   0.965 -0.0309  1.2725 -0.3271
 2221TIP3    H228223   4.249   4.382   1.058 -0.5190 -1.1660  0.3935
 2222TIP3   OH228224   6.034   4.336   1.251  0.0079  0.4939 -0.1882
 2222TIP3    H128225   6.046   4.363   1.342  1.8715 -0.9348  0.0549
 2222TIP3    H228226   5.945   4.301   1.248  0.5052 -1.0932  1.5782
 2223TIP3   OH228227   3.758   3.149   0.626  0.6690  0.2714  0.2980
 2223TIP3    H128228   3.776   3.232   0.582  0.2161  0.2956  0.1539
 2223TIP3    H228229   3.776   3.082   0.561  0.2670  0.2934  0.1669
 2224TIP3   OH228230   1.990   2.479   2.431  0.3502  0.1170  0.0964
 2224TIP3    H128231   1.960   2.418   2.364 -0.9852 -0.0599  0.8229
 2224TIP3    H228232   2.021   2.424   2.503  1.5969  0.3085 -0.2579
 2225TIP3   OH228233   3.167   3.243   0.548 -0.6458 -0.6169 -0.6735
 2225TIP3    H128234   3.077   3.211   0.548 -0.5220 -1.0987  1.2367
 2225TIP3    H228235   3.165   3.319   0.490 -1.7410 -1.9152 -2.4861
 2226TIP3   OH228236   4.058   4.476   2.952 -0.1062  0.1182 -0.4973
 2226TIP3    H128237   4.145   4.513   2.936 -1.0478  3.3010  0.8080
 2226TIP3    H228238   4.029   4.445   2.866  2.0799 -0.5766 -1.0466
 2227TIP3   OH228239   0.391   3.634   3.055 -0.9657  0.2668 -0.4826
 2227TIP3    H128240   0.391   3.675   3.142  2.7814  2.1006 -1.1403
 2227TIP3    H228241   0.458   3.566   3.061 -0.6012  0.4762 -1.9439
 2228TIP3   OH228242   3.041   5.502   3.665 -0.3816 -0.0104  0.1857
 2228TIP3    H128243   3.057   5.594   3.644  1.7748  0.2200  2.4370
 2228TIP3    H228244   3.077   5.454   3.591  1.8844  0.9074  0.6103
 2229TIP3   OH228245   6.727   3.342   1.867  0.0236 -0.2131 -0.4854
 2229TIP3    H128246   6.637   3.374   1.856 -0.0574 -1.0298 -2.6892
 2229TIP3    H228247   6.781   3.405   1.821  0.3072 -0.9617 -1.2042
 2230TIP3   OH228248   2.095   2.667   3.184 -0.5626 -0.1553 -0.1983
 2230TIP3    H128249   2.190   2.677   3.189 -0.6743  0.9864 -0.1307
 2230TIP3    H228250   2.082   2.577   3.155  0.5030 -0.7304  1.0151
 2231TIP3   OH228251   6.213   1.287   0.798  0.5706  0.0826 -0.2586
 2231TIP3    H128252   6.261   1.291   0.715  0.8207  1.2948 -0.0798
 2231TIP3    H228253   6.204   1.194   0.816 -0.5729 -0.2583 -2.2747
 2232TIP3   OH228254   4.054   4.917   0.573  0.1573 -0.3026 -0.7871
 2232TIP3    H128255   4.003   4.889   0.498 -0.7313  2.7229 -1.4731
 2232TIP3    H228256   3.989   4.953   0.634  1.2036  2.7691 -1.2761
 2233TIP3   OH228257   5.175   1.092   2.230 -0.4208 -0.0225  0.0743
 2233TIP3    H128258   5.124   1.047   2.297  1.3471  0.3711  1.7885
 2233TIP3    H228259   5.218   1.022   2.181 -2.6403 -0.3701 -1.5375
 2234TIP3   OH228260   5.215   6.215   1.276 -0.2239 -0.0779  0.8031
 2234TIP3    H128261   5.144   6.277   1.292  1.1091  1.0376  2.8104
 2234TIP3    H228262   5.259   6.207   1.360  0.8704 -2.2453  0.0837
 2235TIP3   OH228263   5.037   1.614   2.946  0.0862  0.4788 -0.6683
 2235TIP3    H128264   5.030   1.692   2.892  1.0871  2.9675  2.5020
 2235TIP3    H228265   4.948   1.580   2.949 -0.4570  1.6858 -1.8235
 2236TIP3   OH228266   3.470   2.424   8.458  0.1641  0.1023 -0.0914
 2236TIP3    H128267   3.524   2.349   8.434  0.8294  1.0622 -1.7968
 2236TIP3    H228268   3.531   2.487   8.496 -0.4350 -0.2988  1.6031
 2237TIP3   OH228269   3.970   5.209   7.836  0.1081 -0.0146 -0.0069
 2237TIP3    H128270   4.020   5.232   7.758  0.7031  1.8868  0.8908
 2237TIP3    H228271   3.942   5.118   7.820  1.3537 -0.1373 -1.8058
 2238TIP3   OH228272   2.133   4.378   1.281 -0.4171 -0.7684 -0.4973
 2238TIP3    H128273   2.132   4.338   1.368 -0.4577 -0.7823 -0.5039
 2238TIP3    H228274   2.225   4.401   1.266 -0.5074 -0.1854 -0.1869
 2239TIP3   OH228275   2.103   4.753   2.052 -0.0375 -0.5397 -0.4926
 2239TIP3    H128276   2.056   4.670   2.054 -0.4895 -0.3897 -2.5738
 2239TIP3    H228277   2.045   4.812   2.004  0.7979  0.6355 -0.0901
 2240TIP3   OH228278   5.085   6.621   7.911 -0.1704 -1.1160 -0.9647
 2240TIP3    H128279   5.011   6.599   7.854 -0.1699 -1.8443 -0.6975
 2240TIP3    H228280   5.162   6.591   7.862  0.0541  0.5118 -1.6766
 2241TIP3   OH228281   2.524   4.324   2.270 -0.1750 -0.1149  0.4497
 2241TIP3    H128282   2.544   4.344   2.178  2.6027  1.7503  1.3063
 2241TIP3    H228283   2.547   4.232   2.281 -2.5158 -0.9867 -1.0938
 2242TIP3   OH228284   4.835   6.504   2.359  0.2164 -0.0494 -0.5037
 2242TIP3    H128285   4.898   6.468   2.421  0.0291  0.8597  0.2253
 2242TIP3    H228286   4.839   6.598   2.372 -1.9550 -0.0164  0.2295
 2243TIP3   OH228287   1.901   0.360   2.298  0.3595 -0.2784 -0.0077
 2243TIP3    H128288   1.927   0.445   2.260  0.1738 -0.3256 -0.2397
 2243TIP3    H228289   1.984   0.314   2.310  0.4041 -0.3360 -0.5304
 2244TIP3   OH228290   0.610   0.579   2.636  0.0675  0.0259  0.3823
 2244TIP3    H128291   0.662   0.524   2.694  0.1973 -0.0255  0.2198
 2244TIP3    H228292   0.584   0.521   2.565 -0.3523  0.0104  0.5457
 2245TIP3   OH228293   4.309   0.165   3.780 -0.7084 -0.2105  1.0748
 2245TIP3    H128294   4.357   0.083   3.793  0.2001 -0.0050 -0.7012
 2245TIP3    H228295   4.227   0.139   3.737 -0.2811 -0.1836  0.2217
 2246TIP3   OH228296   2.764   5.107   1.776 -0.2791  0.0961  0.1286
 2246TIP3    H128297   2.705   5.154   1.836 -0.2023 -2.4312  2.4021
 2246TIP3    H228298   2.831   5.170   1.753 -1.2855  1.6783  1.3465
 2247TIP3   OH228299   6.726   2.679   2.484  0.5100 -0.4965 -0.0830
 2247TIP3    H128300   6.685   2.597   2.514  2.8561 -2.0823 -0.9393
 2247TIP3    H228301   6.756   2.659   2.395  0.2004  1.6954 -0.7278
 2248TIP3   OH228302   1.823   4.760   2.366  0.3265 -0.3153 -0.5025
 2248TIP3    H128303   1.830   4.770   2.271 -0.0663 -0.0231 -0.5010
 2248TIP3    H228304   1.852   4.670   2.382 -0.2656 -0.6024 -0.9771
 2249TIP3   OH228305   2.198   0.511   3.761 -0.0670  0.0277 -0.0577
 2249TIP3    H128306   2.229   0.600   3.776 -1.2470  0.3508  0.4971
 2249TIP3    H228307   2.258   0.456   3.812 -1.1945  0.7557  2.1646
 2250TIP3   OH228308   3.653   1.649   1.770  0.2322  0.0476 -0.5311
 2250TIP3    H128309   3.610   1.577   1.725  2.1442 -0.0368 -2.4114
 2250TIP3    H228310   3.746   1.634   1.756  0.9485  0.5991  2.7127
 2251TIP3   OH228311   2.901   1.185   1.014 -0.1055 -0.2172  0.6641
 2251TIP3    H128312   2.941   1.242   0.949 -0.0224 -1.9880 -0.9495
 2251TIP3    H228313   2.970   1.169   1.078  0.6306 -0.4166 -0.1705
 2252TIP3   OH228314   1.682   5.632   1.067  0.5214 -0.1593  0.1339
 2252TIP3    H128315   1.635   5.697   1.119 -1.1811 -1.1891 -0.0524
 2252TIP3    H228316   1.732   5.683   1.003 -1.0954  0.9729 -0.2689
 2253TIP3   OH228317   2.652   1.244   1.411  0.0959 -0.5292  0.3622
 2253TIP3    H128318   2.573   1.270   1.459 -0.2521  1.3492 -1.1273
 2253TIP3    H228319   2.620   1.198   1.334  0.2427  2.1552 -1.4104
 2254TIP3   OH228320   1.521   1.792   0.861 -0.0919  0.3895 -0.2073
 2254TIP3    H128321   1.598   1.786   0.918 -2.0583 -0.0766  2.6162
 2254TIP3    H228322   1.508   1.886   0.847 -1.3598  0.8019  2.9531
 2255TIP3   OH228323   4.768   4.492   0.486  0.2400  1.0101 -0.5043
 2255TIP3    H128324   4.844   4.457   0.532  0.6355  0.4486 -1.5583
 2255TIP3    H228325   4.731   4.417   0.440 -1.5522  1.0488  0.7668
 2256TIP3   OH228326   5.362   4.290   2.965  0.6392  0.0345 -0.1000
 2256TIP3    H128327   5.337   4.245   3.046 -1.2803  1.6156  0.2449
 2256TIP3    H228328   5.348   4.226   2.896  1.7800 -1.1609  0.7261
 2257TIP3   OH228329   1.719   0.180   8.612  0.3360 -0.3834 -0.4356
 2257TIP3    H128330   1.782   0.252   8.620  0.0302 -0.2544  1.1907
 2257TIP3    H228331   1.750   0.128   8.538  2.5714 -0.5272  0.5326
 2258TIP3   OH228332   0.269   3.333   2.865  0.2205  0.0976 -0.4321
 2258TIP3    H128333   0.258   3.335   2.960 -0.5470  1.2260 -0.5238
 2258TIP3    H228334   0.192   3.286   2.833  0.8950 -1.0328 -0.4708
 2259TIP3   OH228335   5.393   4.128   3.213 -0.1014  0.0365 -0.0678
 2259TIP3    H128336   5.463   4.111   3.276 -1.1034  0.3231  1.1816
 2259TIP3    H228337   5.352   4.043   3.199 -1.6937  0.3454  1.9921
 2260TIP3   OH228338   1.885   2.155   1.406 -0.7516  0.1996 -0.5010
 2260TIP3    H128339   1.968   2.167   1.451 -0.3345 -1.9902 -0.5964
 2260TIP3    H228340   1.819   2.185   1.469  0.0083  0.2158  0.3002
 2261TIP3   OH228341   0.834   0.182   1.384  0.4218  0.3215  0.3180
 2261TIP3    H128342   0.868   0.267   1.355 -1.7705  0.9098 -0.7851
 2261TIP3    H228343   0.822   0.193   1.478  0.9815  0.9407  0.3264
 2262TIP3   OH228344   4.458   4.702   3.161 -0.2004 -0.6480 -0.9651
 2262TIP3    H128345   4.470   4.793   3.132  0.9006 -0.7596 -0.8967
 2262TIP3    H228346   4.372   4.702   3.203 -0.9525 -0.0219 -2.4298
 2263TIP3   OH228347   1.695   6.093   2.940 -0.2991  0.0600 -0.1276
 2263TIP3    H128348   1.670   6.001   2.931  1.7983 -1.0699  3.6574
 2263TIP3    H228349   1.760   6.107   2.871  0.3757 -1.7252  0.1102
 2264TIP3   OH228350   5.672   3.657   0.499  0.1792  0.1606  0.8833
 2264TIP3    H128351   5.578   3.660   0.520 -0.7799  0.8913 -2.7515
 2264TIP3    H228352   5.685   3.569   0.463 -0.4537  1.4749 -3.0822
 2265TIP3   OH228353   1.050   2.596   7.928  0.0724 -0.4296  0.8101
 2265TIP3    H128354   0.995   2.673   7.937  2.0783  1.0046  1.6701
 2265TIP3    H228355   1.132   2.629   7.891  0.7530 -2.2816  0.5342
 2266TIP3   OH228356   5.525   6.662   1.095  0.3578 -0.1156 -0.5687
 2266TIP3    H128357   5.493   6.695   1.012  0.4841  1.1665 -0.1263
 2266TIP3    H228358   5.483   6.576   1.105 -0.8952  0.4011 -1.2040
 2267TIP3   OH228359   2.794   4.675   8.343  0.4287  0.3072 -0.0191
 2267TIP3    H128360   2.776   4.731   8.418 -2.8134 -1.5745  0.7987
 2267TIP3    H228361   2.708   4.639   8.319  1.8620 -1.7803 -2.5091
 2268TIP3   OH228362   5.915   2.986   3.658  0.3721 -0.6614  0.2366
 2268TIP3    H128363   5.883   3.062   3.705 -1.3046 -1.4840  0.4943
 2268TIP3    H228364   5.969   2.938   3.721  1.4086  0.2505  0.0799
 2269TIP3   OH228365   2.692   2.043   2.876  0.1738 -0.6524  0.1024
 2269TIP3    H128366   2.713   2.136   2.876 -0.4582 -0.5046  0.4812
 2269TIP3    H228367   2.711   2.014   2.965 -1.1370 -0.5245  0.4461
 2270TIP3   OH228368   4.022   4.231   2.788 -0.0668 -0.1424 -0.0709
 2270TIP3    H128369   3.942   4.256   2.835 -1.1983 -0.9825 -1.4501
 2270TIP3    H228370   4.001   4.147   2.748  1.6722 -0.5752 -0.1435
 2271TIP3   OH228371   2.529   4.809   3.081 -0.9028  0.3253  0.2346
 2271TIP3    H128372   2.467   4.798   3.009 -0.3052  1.1018 -0.4138
 2271TIP3    H228373   2.601   4.859   3.043  0.2488 -0.7821  0.9082
 2272TIP3   OH228374   5.262   6.459   2.729  0.0602 -0.3388 -0.2054
 2272TIP3    H128375   5.207   6.483   2.804 -0.3353  0.6751 -0.8054
 2272TIP3    H228376   5.345   6.506   2.744 -0.4424  0.8608 -0.9859
 2273TIP3   OH228377   3.433   4.950   7.815 -0.8152  0.5324 -0.0959
 2273TIP3    H128378   3.397   4.916   7.897  0.3042 -0.0634  0.1564
 2273TIP3    H228379   3.492   4.881   7.784 -0.4983  1.1574 -0.9133
 2274TIP3   OH228380   6.156   1.049   8.517  0.0829 -0.0026  0.2846
 2274TIP3    H128381   6.219   1.063   8.588 -0.5165 -0.2374  0.8759
 2274TIP3    H228382   6.197   0.983   8.462  0.2852 -0.2875  0.7670
 2275TIP3   OH228383   2.076   6.369   8.531 -0.2278 -0.0007  0.2454
 2275TIP3    H128384   2.095   6.321   8.451  1.4133 -0.8507  1.0840
 2275TIP3    H228385   2.049   6.301   8.594 -1.3136  0.6242  0.4717
 2276TIP3   OH228386   2.741   4.510   1.599 -0.1356  0.1460 -0.4226
 2276TIP3    H128387   2.825   4.557   1.602  0.1215 -0.2530 -1.0986
 2276TIP3    H228388   2.694   4.541   1.676  0.6919  0.2699  0.0549
 2277TIP3   OH228389   3.866   4.366   0.758 -0.1567 -0.7218 -0.4367
 2277TIP3    H128390   3.946   4.343   0.805 -1.2057 -0.3974  1.6105
 2277TIP3    H228391   3.804   4.296   0.778 -0.6511 -0.5540 -1.3199
 2278TIP3   OH228392   4.369   0.562   1.968 -0.4558  0.3996 -0.0042
 2278TIP3    H128393   4.432   0.596   2.031 -0.4086  0.3054  0.0011
 2278TIP3    H228394   4.284   0.587   2.002 -0.4754 -0.3560  0.5284
 2279TIP3   OH228395   1.609   0.799   0.991  0.0495 -0.1706  0.1293
 2279TIP3    H128396   1.603   0.785   1.086 -0.8282 -0.1494  0.0857
 2279TIP3    H228397   1.652   0.884   0.983  0.4414 -0.3265  0.4970
 2280TIP3   OH228398   6.371   2.059   1.788  0.0828  0.3063  0.7990
 2280TIP3    H128399   6.393   2.092   1.701  0.0831  0.1430  0.7372
 2280TIP3    H228400   6.449   2.078   1.841  1.2157 -2.0354  0.1144
 2281TIP3   OH228401   5.011   3.868   2.003  0.0118  0.1539 -0.0440
 2281TIP3    H128402   5.033   3.883   1.911  2.1828 -2.1718 -0.0017
 2281TIP3    H228403   5.017   3.773   2.014  2.1102  0.5099  3.0138
 2282TIP3   OH228404   5.646   1.236   3.634 -0.5813 -0.4803 -0.3276
 2282TIP3    H128405   5.625   1.274   3.720 -0.3851 -0.2803 -0.3682
 2282TIP3    H228406   5.577   1.172   3.619  0.0943 -1.4501  0.5677
 2283TIP3   OH228407   4.126   3.437   1.375 -0.1795  0.6397 -0.3097
 2283TIP3    H128408   4.208   3.450   1.326  1.2731 -3.7170  0.5244
 2283TIP3    H228409   4.063   3.407   1.310  0.5732 -1.2156 -0.2509
 2284TIP3   OH228410   1.795   5.434   2.761 -0.3372  0.0131 -0.4163
 2284TIP3    H128411   1.835   5.363   2.812  0.5451  1.0911  0.4364
 2284TIP3    H228412   1.847   5.511   2.783 -2.5073  1.3571  0.2629
 2285TIP3   OH228413   4.980   2.609   2.534 -0.5642  0.0253 -0.1172
 2285TIP3    H128414   4.923   2.537   2.507 -1.7556  0.9710 -0.2189
 2285TIP3    H228415   5.025   2.576   2.612  1.2208 -1.9166 -1.8533
 2286TIP3   OH228416   1.559   4.027   1.667 -0.5131 -0.4364  0.5301
 2286TIP3    H128417   1.630   4.081   1.631  0.9956 -3.7657 -2.0212
 2286TIP3    H228418   1.567   4.039   1.762  0.6454  2.5401  0.1767
 2287TIP3   OH228419   3.061   2.640   1.784 -0.6545 -0.2670  0.4877
 2287TIP3    H128420   3.112   2.581   1.728 -0.6569  1.4077 -1.3891
 2287TIP3    H228421   2.972   2.603   1.782 -0.7540 -0.0416 -1.0211
 2288TIP3   OH228422   0.859   1.533   2.913  0.3029  0.1553 -0.5431
 2288TIP3    H128423   0.797   1.472   2.872 -0.9976  0.4807  0.8881
 2288TIP3    H228424   0.833   1.537   3.004 -0.0491  3.3296 -0.6675
 2289TIP3   OH228425   5.746   2.226   7.970  0.1251 -0.1088 -0.1344
 2289TIP3    H128426   5.691   2.288   7.921  2.2318  1.9878 -0.0018
 2289TIP3    H228427   5.712   2.230   8.059 -0.4321  0.0104 -0.3407
 2290TIP3   OH228428   3.876   0.826   0.882 -0.0367 -0.1292  1.1950
 2290TIP3    H128429   3.802   0.871   0.841  0.6240  0.2312  0.3516
 2290TIP3    H228430   3.902   0.761   0.817  0.6174 -0.0017  1.3256
 2291TIP3   OH228431   1.100   3.182   2.978 -0.1750 -0.1920 -0.2530
 2291TIP3    H128432   1.040   3.172   3.052 -0.2049 -0.2296 -0.2824
 2291TIP3    H228433   1.059   3.133   2.907 -0.1601 -0.1330 -0.3023
 2292TIP3   OH228434   6.296   1.157   2.914 -0.5800 -0.4258  0.1658
 2292TIP3    H128435   6.372   1.121   2.869 -1.5123 -1.8152 -0.3675
 2292TIP3    H228436   6.332   1.218   2.978  0.9502 -0.8006 -0.3033
 2293TIP3   OH228437   0.237   5.052   0.054 -0.1375 -0.2014 -0.6032
 2293TIP3    H128438   0.169   5.010   0.108 -0.9392  0.8939 -0.7197
 2293TIP3    H228439   0.189   5.085  -0.023  0.5135  0.6335 -0.6624
 2294TIP3   OH228440   4.831   1.256   2.151  0.0457  0.1591 -0.6238
 2294TIP3    H128441   4.920   1.286   2.173  0.0679 -0.9325  0.8342
 2294TIP3    H228442   4.842   1.164   2.128 -0.7890 -0.1123  0.0589
 2295TIP3   OH228443   6.374   2.347   7.772 -0.1448  0.7958 -0.2418
 2295TIP3    H128444   6.393   2.356   7.865 -1.8282  0.4998  0.1651
 2295TIP3    H228445   6.346   2.256   7.762  3.1920 -0.2414 -1.7050
 2296TIP3   OH228446   3.685   6.067   0.874 -0.2331  0.3351 -0.1212
 2296TIP3    H128447   3.690   6.102   0.963 -1.0325 -2.4924  1.1695
 2296TIP3    H228448   3.591   6.058   0.857 -0.0814 -1.0601 -0.3650
 2297TIP3   OH228449   1.919   1.121   0.350 -0.1399  0.3257 -0.1320
 2297TIP3    H128450   1.908   1.215   0.336 -0.2257  0.2869 -0.3229
 2297TIP3    H228451   1.879   1.081   0.273 -1.1495  0.1007  0.4877
 2298TIP3   OH228452   6.687   0.341   0.759  0.4098  1.1533 -0.2339
 2298TIP3    H128453   6.603   0.365   0.799 -0.3136 -0.2673 -0.8119
 2298TIP3    H228454   6.748   0.341   0.833 -0.9592 -1.7142  1.0970
 2299TIP3   OH228455   2.816   6.125   0.965  0.0515  0.0041  0.3575
 2299TIP3    H128456   2.726   6.133   0.997 -0.5254 -0.5603 -1.0440
 2299TIP3    H228457   2.832   6.031   0.962  0.4887  0.0857  0.0541
 2300TIP3   OH228458   3.476   1.818   1.879  0.5638 -0.2622 -0.0911
 2300TIP3    H128459   3.540   1.778   1.820  0.9242 -0.2704  0.3037
 2300TIP3    H228460   3.483   1.768   1.960  2.1608  1.5387  0.9737
 2301TIP3   OH228461   1.076   0.322   3.739  0.7857 -0.0108 -0.4317
 2301TIP3    H128462   1.159   0.303   3.695  1.2207  1.2755 -0.1951
 2301TIP3    H228463   1.083   0.413   3.767 -0.8502  0.2533 -0.7321
 2302TIP3   OH228464   2.546   2.978   1.724  0.1731  0.2687 -0.3956
 2302TIP3    H128465   2.523   3.068   1.748 -2.8428 -0.5263  0.0314
 2302TIP3    H228466   2.496   2.960   1.644  0.9139 -0.9829 -0.6136
 2303TIP3   OH228467   3.763   4.683   1.262  0.0694 -0.4067 -0.3755
 2303TIP3    H128468   3.827   4.657   1.195  0.5286 -1.8342  0.5615
 2303TIP3    H228469   3.815   4.723   1.331 -0.1945 -0.4835 -0.1298
 2304TIP3   OH228470   5.723   0.410   2.630 -0.5790  0.1006 -0.2764
 2304TIP3    H128471   5.663   0.416   2.556  0.2640  1.6720 -0.8820
 2304TIP3    H228472   5.669   0.377   2.702 -1.5491 -0.9249 -1.4164
 2305TIP3   OH228473   5.179   6.716   1.864 -0.3547  0.0594 -0.0964
 2305TIP3    H128474   5.174   6.698   1.770 -0.7019 -0.9320  0.1028
 2305TIP3    H228475   5.091   6.742   1.889 -0.2278  0.4686 -0.0747
 2306TIP3   OH228476   3.845   1.637   1.080  0.1789 -0.3985 -0.4628
 2306TIP3    H128477   3.806   1.691   1.011  0.5167 -0.1284 -0.4480
 2306TIP3    H228478   3.934   1.671   1.088 -0.0782  0.0592  0.6120
 2307TIP3   OH228479   0.974   6.765   2.605 -0.6509 -0.3624  0.3147
 2307TIP3    H128480   1.061   6.725   2.603  0.3663  1.3115  3.3082
 2307TIP3    H228481   0.936   6.737   2.689 -1.4686  1.7000  0.7176
 2308TIP3   OH228482   3.898   2.048   3.367 -0.3622  0.2883  0.4084
 2308TIP3    H128483   3.834   2.100   3.415  0.7411  0.4623  1.7711
 2308TIP3    H228484   3.886   1.959   3.400 -1.1994 -0.0621 -0.7802
 2309TIP3   OH228485   4.918   1.336   3.287 -0.2200 -0.3558  0.0740
 2309TIP3    H128486   5.003   1.376   3.265 -0.0303 -0.9287 -0.2552
 2309TIP3    H228487   4.855   1.407   3.278 -0.0003 -0.3055 -1.2823
 2310TIP3   OH228488   6.816   1.521   2.141  0.0625 -0.0797  0.3971
 2310TIP3    H128489   6.853   1.531   2.054  1.4683  0.0948  0.9835
 2310TIP3    H228490   6.830   1.606   2.183 -0.3965 -0.2287  0.8656
 2311TIP3   OH228491   4.167   6.462   0.734 -0.4528  0.7114  0.2880
 2311TIP3    H128492   4.154   6.523   0.807 -1.1157 -0.2800  1.0334
 2311TIP3    H228493   4.082   6.420   0.723  0.2637 -0.9090  0.5820
 2312TIP3   OH228494   2.788   3.999   1.793 -0.2228 -0.2262  0.2419
 2312TIP3    H128495   2.694   4.019   1.797  0.1024  1.6339 -0.6934
 2312TIP3    H228496   2.807   3.993   1.700  1.1743  2.6457  0.2427
 2313TIP3   OH228497   3.732   2.656   8.057 -0.5320 -0.5551  0.7098
 2313TIP3    H128498   3.677   2.734   8.050  0.0650 -0.1344  0.6898
 2313TIP3    H228499   3.816   2.688   8.087  0.8113 -0.6885 -2.4798
 2314TIP3   OH228500   1.322   3.195   4.054 -0.6202  0.2913 -0.3617
 2314TIP3    H128501   1.279   3.112   4.075 -1.4417  1.2415  2.0242
 2314TIP3    H228502   1.252   3.251   4.020 -0.2269  0.2741 -1.2233
 2315TIP3   OH228503   5.290   4.144   3.704 -0.0131 -0.3102  0.5661
 2315TIP3    H128504   5.263   4.054   3.687  0.7136 -0.7319  1.5463
 2315TIP3    H228505   5.384   4.146   3.685  0.4517 -0.3479  2.6163
 2316TIP3   OH228506   1.915   5.023   2.327  0.2178 -0.5710 -0.1542
 2316TIP3    H128507   1.870   4.938   2.325  0.7433 -0.8722  0.3355
 2316TIP3    H228508   1.956   5.025   2.414  2.1425 -0.8406 -1.0035
 2317TIP3   OH228509   3.836   2.570   4.259 -0.2812 -0.0133 -0.4040
 2317TIP3    H128510   3.835   2.551   4.165 -2.3194 -0.3162 -0.3545
 2317TIP3    H228511   3.929   2.580   4.279  0.1632  0.9632 -2.6094
 2318TIP3   OH228512   1.496   5.121   1.453 -0.0079  0.1574 -0.0914
 2318TIP3    H128513   1.479   5.106   1.360 -3.2778  2.2445  0.0072
 2318TIP3    H228514   1.518   5.214   1.458  1.0668 -0.1441  1.1566
 2319TIP3   OH228515   5.573   3.558   2.098 -0.2905 -0.2218  0.5123
 2319TIP3    H128516   5.605   3.614   2.028 -2.6372 -0.4978 -0.8802
 2319TIP3    H228517   5.636   3.485   2.101  1.8529  1.5483  1.2250
 2320TIP3   OH228518   2.171   1.082   2.472  0.3078  0.1263 -0.1493
 2320TIP3    H128519   2.138   1.057   2.386  0.7010 -0.1077 -0.2367
 2320TIP3    H228520   2.093   1.098   2.524  0.0257 -1.1255 -0.1406
 2321TIP3   OH228521   6.026   6.333   0.856  0.1665 -0.2024 -0.4658
 2321TIP3    H128522   6.026   6.356   0.949  0.5635 -1.5135 -0.1295
 2321TIP3    H228523   6.064   6.409   0.812 -0.6014  0.6889  0.3609
 2322TIP3   OH228524   3.678   4.417   0.525 -0.3885 -0.1164 -0.6539
 2322TIP3    H128525   3.698   4.324   0.532  0.6688  0.1614  0.4460
 2322TIP3    H228526   3.618   4.434   0.598  0.1517  0.2287 -0.2786
 2323TIP3   OH228527   1.471   5.321   0.431 -0.0302 -0.0402 -0.2232
 2323TIP3    H128528   1.502   5.233   0.409  0.7173 -0.0875  0.9387
 2323TIP3    H228529   1.526   5.380   0.379 -1.3260 -0.2518 -1.9316
 2324TIP3   OH228530   2.160   6.671   1.233 -0.0422 -0.1378  0.0855
 2324TIP3    H128531   2.156   6.691   1.327 -0.4285 -0.4267  0.1321
 2324TIP3    H228532   2.143   6.577   1.228 -1.4688  0.1296 -0.3917
 2325TIP3   OH228533   6.310   1.546   0.151 -0.3659 -0.1506 -0.0595
 2325TIP3    H128534   6.315   1.601   0.229  0.6284 -0.8873  0.4307
 2325TIP3    H228535   6.309   1.456   0.186  0.3342 -0.5000 -0.8891
 2326TIP3   OH228536   1.432   3.819   1.418  0.0658 -0.6709  0.7733
 2326TIP3    H128537   1.427   3.913   1.436 -1.2089 -0.6028  0.2297
 2326TIP3    H228538   1.433   3.778   1.504  0.5771 -0.1611  1.0155
 2327TIP3   OH228539   4.660   2.670   1.360  0.0862  0.2843 -0.3703
 2327TIP3    H128540   4.584   2.727   1.344  0.0193 -0.1936 -1.8298
 2327TIP3    H228541   4.653   2.601   1.294  1.4393 -0.1358 -0.0973
 2328TIP3   OH228542   2.725   1.887   3.110 -0.7173 -0.1839  0.6877
 2328TIP3    H128543   2.743   1.878   3.203 -1.6430  2.5914  1.2505
 2328TIP3    H228544   2.630   1.879   3.103 -0.4897 -3.0482 -0.5047
 2329TIP3   OH228545   1.549   3.669   1.958  0.3196  0.3364  0.4309
 2329TIP3    H128546   1.614   3.721   2.005  0.0867  1.8060 -0.8131
 2329TIP3    H228547   1.486   3.644   2.026  0.6879  1.2827  1.1481
 2330TIP3   OH228548   3.513   4.493   2.705 -0.4068 -0.1355  0.2411
 2330TIP3    H128549   3.560   4.464   2.627 -1.4813 -0.0812 -0.4495
 2330TIP3    H228550   3.487   4.412   2.749 -2.1945 -0.2770 -0.9505
 2331TIP3   OH228551   4.720   3.212   1.573  0.0810  0.3115 -0.0196
 2331TIP3    H128552   4.705   3.121   1.599 -1.5578  0.7692  0.7661
 2331TIP3    H228553   4.812   3.227   1.591  0.4839 -1.3064 -0.5544
 2332TIP3   OH228554   4.897   5.342   0.385  0.7343  0.1840 -0.1678
 2332TIP3    H128555   4.916   5.430   0.419  2.7974 -0.3284  0.1292
 2332TIP3    H228556   4.948   5.336   0.304 -1.8506  0.3325 -1.9268
 2333TIP3   OH228557   1.935   0.609   3.799  0.1475  0.7515 -0.2095
 2333TIP3    H128558   1.941   0.600   3.894  0.8060  2.3190 -0.0654
 2333TIP3    H228559   2.016   0.570   3.766  1.1946  2.5622  0.1055
 2334TIP3   OH228560   5.235   5.605   3.103  0.3027 -0.2200 -0.0027
 2334TIP3    H128561   5.302   5.665   3.134 -0.4140  0.7121 -0.2132
 2334TIP3    H228562   5.282   5.545   3.045  0.9137  0.5656 -0.3457
 2335TIP3   OH228563   6.513   1.623   0.792 -0.1631 -0.0892 -0.4172
 2335TIP3    H128564   6.586   1.669   0.750 -2.4743  2.3136 -2.1029
 2335TIP3    H228565   6.495   1.673   0.871 -1.4673  0.7850 -1.2507
 2336TIP3   OH228566   4.379   1.109   0.735  0.0026  0.2643  0.1812
 2336TIP3    H128567   4.366   1.142   0.646 -0.2232  2.3043  0.9244
 2336TIP3    H228568   4.299   1.060   0.754  0.5505 -1.2229 -1.1236
 2337TIP3   OH228569   0.863   6.048   1.710 -0.0477  0.1585  0.4448
 2337TIP3    H128570   0.782   6.000   1.700 -0.3746  0.7841  0.0310
 2337TIP3    H228571   0.929   5.993   1.668 -0.2302 -0.3889  0.8553
 2338TIP3   OH228572   6.712   5.967   0.525 -0.2287  0.1675 -0.7246
 2338TIP3    H128573   6.772   6.029   0.567  0.2256 -1.4083  1.1129
 2338TIP3    H228574   6.716   5.889   0.581 -0.4627 -1.6734 -3.1233
 2339TIP3   OH228575   5.831   4.068   1.550 -0.0813 -0.0819  0.1076
 2339TIP3    H128576   5.815   4.088   1.643  2.1708  0.1481  0.4873
 2339TIP3    H228577   5.773   4.129   1.503 -1.6400 -0.5513  1.3270
 2340TIP3   OH228578   0.199   1.541   8.757 -0.2374  0.5908 -0.6015
 2340TIP3    H128579   0.128   1.521   8.696 -0.9501 -0.9046  0.6434
 2340TIP3    H228580   0.156   1.549   8.842  1.1141 -0.8569  0.2782
 2341TIP3   OH228581   1.533   3.140   8.698 -0.0377  0.0299 -0.0872
 2341TIP3    H128582   1.550   3.164   8.789 -1.0966  0.4389  0.0077
 2341TIP3    H228583   1.614   3.164   8.651  0.8963 -1.0721  0.8819
 2342TIP3   OH228584   3.719   3.843   1.137  0.0225 -0.0315  0.3381
 2342TIP3    H128585   3.762   3.927   1.120 -0.5957  0.6270  1.8885
 2342TIP3    H228586   3.777   3.799   1.200  0.3152 -0.7570 -0.4231
 2343TIP3   OH228587   5.607   6.606   3.220 -0.3786 -0.1797 -0.1225
 2343TIP3    H128588   5.611   6.578   3.128 -1.0339 -1.8278  0.3162
 2343TIP3    H228589   5.551   6.541   3.262 -0.5030  0.8437  1.3582
 2344TIP3   OH228590   4.119   3.908   0.278 -0.1321  0.0330 -0.3336
 2344TIP3    H128591   4.191   3.969   0.259  0.1094 -0.6709 -1.8518
 2344TIP3    H228592   4.159   3.839   0.331  0.1934 -0.0724 -0.7121
 2345TIP3   OH228593   3.516   4.638   3.496 -0.3039 -0.0988 -0.0291
 2345TIP3    H128594   3.597   4.648   3.547 -1.1922 -1.1609  1.7031
 2345TIP3    H228595   3.447   4.667   3.556 -1.3172 -0.3209 -1.0499
 2346TIP3   OH228596   6.618   6.214   3.874  0.1510 -0.0660  0.3768
 2346TIP3    H128597   6.589   6.143   3.816 -0.1506  0.7882 -0.5535
 2346TIP3    H228598   6.536   6.254   3.905  0.3138  0.4304  0.1777
 2347TIP3   OH228599   2.631   2.126   1.949  0.0674 -0.1398 -0.2143
 2347TIP3    H128600   2.592   2.048   1.911  0.8900 -0.4407 -0.4652
 2347TIP3    H228601   2.582   2.199   1.910  0.1585 -0.4882 -1.0024
 2348TIP3   OH228602   2.467   0.200   2.579  0.0173  0.4281  0.0693
 2348TIP3    H128603   2.492   0.108   2.579 -2.2271 -0.2541 -0.0762
 2348TIP3    H228604   2.475   0.227   2.487 -1.6919 -0.3896 -0.3579
 2349TIP3   OH228605   3.729   3.073   8.653 -0.1359  0.3008  0.4306
 2349TIP3    H128606   3.678   3.074   8.571 -0.9853  0.6692  0.9454
 2349TIP3    H228607   3.711   2.987   8.690 -0.1458  0.3170  0.4630
 2350TIP3   OH228608   0.158   4.172   0.168 -0.0225  0.2809  0.2098
 2350TIP3    H128609   0.200   4.245   0.213  0.7805  0.5706 -0.9494
 2350TIP3    H228610   0.125   4.116   0.238 -0.3468  1.5667  1.1347
 2351TIP3   OH228611   3.534   2.527   1.613  0.3049 -0.4106 -0.2437
 2351TIP3    H128612   3.516   2.435   1.628  0.7882 -0.4915 -0.1319
 2351TIP3    H228613   3.543   2.535   1.518  0.2185 -0.4722 -0.2564
 2352TIP3   OH228614   2.045   1.800   0.041 -0.1995  0.1401  0.3479
 2352TIP3    H128615   2.103   1.734   0.078  2.6479  3.2125  1.8939
 2352TIP3    H228616   1.973   1.806   0.105 -0.2265 -1.0369  0.4517
 2353TIP3   OH228617   1.180   6.804   1.645  0.7697 -0.4933 -0.8186
 2353TIP3    H128618   1.203   6.835   1.557  1.7227  0.9772 -0.0926
 2353TIP3    H228619   1.113   6.866   1.675 -0.0862 -1.4141 -0.7526
 2354TIP3   OH228620   4.861   1.789   0.871 -0.1351  0.4846 -0.1241
 2354TIP3    H128621   4.946   1.756   0.842 -0.0407 -0.1489  0.8384
 2354TIP3    H228622   4.877   1.827   0.957 -1.3001 -2.2366  1.4302
 2355TIP3   OH228623   5.860   1.401   3.214  0.3705  0.4916 -0.3912
 2355TIP3    H128624   5.942   1.360   3.242  0.4974  0.4680 -0.7946
 2355TIP3    H228625   5.792   1.349   3.257  0.5969  1.4858  1.2526
 2356TIP3   OH228626   3.769   6.555   0.263  1.0669  0.1114 -0.0101
 2356TIP3    H128627   3.752   6.483   0.324 -2.8534 -0.9031 -1.9605
 2356TIP3    H228628   3.698   6.617   0.279  2.3917  1.8799 -0.7165
 2357TIP3   OH228629   1.290   2.573   0.009 -0.0244  0.2998 -0.0129
 2357TIP3    H128630   1.292   2.493  -0.044  0.0620  0.1601  0.2015
 2357TIP3    H228631   1.289   2.542   0.100 -1.1897  0.5174  0.0660
 2358TIP3   OH228632   4.226   3.117   1.178 -0.1566 -0.0592 -0.4159
 2358TIP3    H128633   4.212   3.033   1.135  1.8592  0.2386 -1.7786
 2358TIP3    H228634   4.221   3.181   1.107  1.5941  0.6236  0.0404
 2359TIP3   OH228635   1.398   2.623   1.862 -0.1842 -0.0435 -0.0427
 2359TIP3    H128636   1.329   2.585   1.916  0.0015  0.3216  0.4538
 2359TIP3    H228637   1.422   2.553   1.802 -0.1860 -0.5564  0.5434
 2360TIP3   OH228638   0.099   4.687   8.661 -0.1571 -0.4904  0.6902
 2360TIP3    H128639   0.048   4.608   8.645  1.4679 -1.7716  1.4683
 2360TIP3    H228640   0.078   4.745   8.589 -1.6401 -1.5062  0.2663
 2361TIP3   OH228641   4.282   4.283   1.589  0.0854 -0.1873  0.3267
 2361TIP3    H128642   4.369   4.281   1.630 -0.3952 -1.4974  1.3444
 2361TIP3    H228643   4.256   4.375   1.593  1.1404  0.1136  0.6389
 2362TIP3   OH228644   0.704   1.576   0.334 -0.2319 -0.2972 -0.2374
 2362TIP3    H128645   0.619   1.535   0.322 -1.9506  2.1820  2.2738
 2362TIP3    H228646   0.707   1.646   0.268  0.2324 -0.8483 -0.8158
 2363TIP3   OH228647   5.837   3.709   2.084  0.4288 -0.4610 -0.0126
 2363TIP3    H128648   5.879   3.633   2.044  0.7282 -0.3095  0.0143
 2363TIP3    H228649   5.771   3.736   2.020  0.0736 -0.9561  0.1322
 2364TIP3   OH228650   3.748   6.056   1.363  0.3797 -0.0390 -0.2021
 2364TIP3    H128651   3.708   5.972   1.383  0.0113  0.0574 -0.5228
 2364TIP3    H228652   3.759   6.099   1.448 -1.3798  0.4645 -0.1970
 2365TIP3   OH228653   2.218   4.629   1.141 -0.4773 -0.2914  0.0167
 2365TIP3    H128654   2.184   4.570   1.074  1.5280 -1.1915 -0.2742
 2365TIP3    H228655   2.251   4.705   1.093  0.3484 -0.6378  0.0105
 2366TIP3   OH228656   5.849   5.890   1.204  0.7715 -0.2537 -0.4066
 2366TIP3    H128657   5.898   5.883   1.286  0.4923 -0.6042 -0.2633
 2366TIP3    H228658   5.757   5.895   1.232  0.5996 -1.4326 -0.7329
 2367TIP3   OH228659   4.285   0.454   1.056 -0.6084  0.1152 -0.0651
 2367TIP3    H128660   4.285   0.469   1.151 -0.5324 -1.1238  0.1456
 2367TIP3    H228661   4.372   0.419   1.037 -1.3074 -1.5979 -0.2421
 2368TIP3   OH228662   1.850   6.758   2.446 -0.1921  0.1707  0.3286
 2368TIP3    H128663   1.779   6.820   2.461 -0.0203  0.3759  0.2959
 2368TIP3    H228664   1.815   6.674   2.475 -0.5037  0.2423  0.1665
 2369TIP3   OH228665   6.625   3.199   1.356  0.1911  0.4995 -0.1549
 2369TIP3    H128666   6.543   3.226   1.398 -1.7984 -1.1767 -2.6737
 2369TIP3    H228667   6.628   3.249   1.275  1.8688  0.7334  0.0141
 2370TIP3   OH228668   0.371   2.736   1.203  0.1153  0.5862 -0.4089
 2370TIP3    H128669   0.340   2.800   1.266  0.7467 -0.3323  0.8977
 2370TIP3    H228670   0.313   2.660   1.215  0.9343 -0.0143 -0.0849
 2371TIP3   OH228671   1.544   1.634   3.814  0.2219  0.1369  0.0079
 2371TIP3    H128672   1.460   1.624   3.859  0.3024  0.8374  0.3324
 2371TIP3    H228673   1.609   1.630   3.883  0.4000  0.4247 -0.1382
 2372TIP3   OH228674   0.089   1.491   1.856  0.1214  0.7842 -0.2933
 2372TIP3    H128675   0.162   1.547   1.829  0.7474  0.1695  0.0673
 2372TIP3    H228676   0.103   1.410   1.807  0.1042  0.3962  0.3377
 2373TIP3   OH228677   0.167   5.372   2.198 -0.2076 -0.2433  0.0680
 2373TIP3    H128678   0.190   5.288   2.238 -1.3475 -0.7504 -0.2857
 2373TIP3    H228679   0.250   5.406   2.165  0.1155 -1.8769 -0.9657
 2374TIP3   OH228680   5.429   0.422   1.817  0.4345  0.2405  0.1843
 2374TIP3    H128681   5.404   0.461   1.901  1.2638  0.7847  0.1924
 2374TIP3    H228682   5.524   0.410   1.823  0.3440 -0.7723 -0.2509
 2375TIP3   OH228683   5.448   5.402   1.936  0.3170  0.2592  0.4842
 2375TIP3    H128684   5.486   5.383   1.850  1.0289 -1.3960  1.1240
 2375TIP3    H228685   5.518   5.446   1.984  0.2015  0.4354  0.4914
 2376TIP3   OH228686   3.276   5.410   0.325  0.3608  0.3701  0.2231
 2376TIP3    H128687   3.294   5.482   0.386  0.9073  1.9819 -1.7301
 2376TIP3    H228688   3.280   5.451   0.238  1.8601 -2.2512 -1.0648
 2377TIP3   OH228689   0.808   0.166   0.726  0.4215 -0.7403  0.2260
 2377TIP3    H128690   0.843   0.243   0.771 -0.0886  0.4678 -1.3861
 2377TIP3    H228691   0.747   0.127   0.789  0.4367  0.3518  0.9435
 2378TIP3   OH228692   5.517   5.036   3.135  0.0567 -0.0642  0.4095
 2378TIP3    H128693   5.493   4.988   3.055  1.7479 -0.1246 -0.0884
 2378TIP3    H228694   5.508   4.971   3.205 -0.8688 -0.1737  0.2081
 2379TIP3   OH228695   4.392   5.610   1.549 -0.7625 -0.0991 -0.2095
 2379TIP3    H128696   4.414   5.656   1.630 -1.0088  0.5413 -0.4977
 2379TIP3    H228697   4.435   5.661   1.480  0.4671 -1.3329 -0.3871
 2380TIP3   OH228698   1.358   3.294   2.950 -0.1020  0.1336  0.2559
 2380TIP3    H128699   1.272   3.257   2.971 -0.9466  1.7344 -0.1968
 2380TIP3    H228700   1.380   3.258   2.865  0.0328 -0.8490  0.6939
 2381TIP3   OH228701   1.249   5.186   2.089 -0.1407 -0.1756 -0.1373
 2381TIP3    H128702   1.305   5.233   2.151 -0.8634 -1.4848  1.5958
 2381TIP3    H228703   1.303   5.115   2.057 -0.4372 -0.7958  0.7042
 2382TIP3   OH228704   0.439   2.486   0.761  0.8334 -0.4264 -0.9438
 2382TIP3    H128705   0.445   2.449   0.672  0.3770  0.1124 -1.2060
 2382TIP3    H228706   0.507   2.553   0.764  0.3741  0.0519 -1.1353
 2383TIP3   OH228707   3.242   6.709   2.677 -0.6344 -0.3897  0.3617
 2383TIP3    H128708   3.320   6.729   2.626 -0.7546 -0.8546 -0.0056
 2383TIP3    H228709   3.189   6.789   2.672 -0.5307 -0.3444 -0.0282
 2384TIP3   OH228710   0.574   3.317   0.952  0.1660 -0.1376  0.5564
 2384TIP3    H128711   0.599   3.234   0.912 -0.3914 -0.5210  0.9889
 2384TIP3    H228712   0.657   3.359   0.974  0.4822 -0.0952 -0.6166
 2385TIP3   OH228713   4.294   2.967   0.291  0.0489 -0.4721 -0.2431
 2385TIP3    H128714   4.232   2.979   0.219  0.2689  1.1917 -0.2009
 2385TIP3    H228715   4.352   3.042   0.285 -0.1994 -0.0374  1.9361
 2386TIP3   OH228716   6.522   4.904   1.505  0.4794 -1.2063 -0.2145
 2386TIP3    H128717   6.506   4.997   1.524 -1.0266 -1.4830  0.0195
 2386TIP3    H228718   6.615   4.899   1.484  0.7272  0.2452  0.4461
 2387TIP3   OH228719   5.043   1.031   3.037 -0.1383 -0.1758 -0.5819
 2387TIP3    H128720   5.119   1.067   3.083  0.1463  0.3429 -1.4359
 2387TIP3    H228721   5.003   1.107   2.994  0.3501 -0.8380 -2.2577
 2388TIP3   OH228722   1.839   4.523   0.772  0.4265  0.0409  0.5759
 2388TIP3    H128723   1.812   4.434   0.795 -2.7981  0.4286 -0.9910
 2388TIP3    H228724   1.778   4.580   0.820  4.7297  1.8940  4.6465
 2389TIP3   OH228725   0.096   5.263   1.574  0.3917  0.4222 -0.4771
 2389TIP3    H128726   0.191   5.256   1.565  0.3247 -1.0387 -0.2561
 2389TIP3    H228727   0.070   5.326   1.507  1.2568 -0.9583 -2.1606
 2390TIP3   OH228728   2.562   4.041   2.282  0.1832 -0.4870 -0.1872
 2390TIP3    H128729   2.594   3.954   2.304  0.0775 -0.2659  0.8759
 2390TIP3    H228730   2.474   4.026   2.248  0.1031 -0.7828  0.1449
 2391TIP3   OH228731   4.171   1.793   2.731 -0.0107  0.7935 -0.1510
 2391TIP3    H128732   4.146   1.873   2.778 -2.1886  0.4513 -0.6185
 2391TIP3    H228733   4.254   1.767   2.771  0.0784  2.5466  0.9247
 2392TIP3   OH228734   2.936   4.732   8.660 -0.3129 -0.5436  0.2802
 2392TIP3    H128735   3.011   4.691   8.616  0.0522  0.1697  0.2202
 2392TIP3    H228736   2.913   4.672   8.730  0.4517 -0.6682  0.4294
 2393TIP3   OH228737   5.230   0.260   1.724 -0.2691  0.4311 -0.1369
 2393TIP3    H128738   5.296   0.315   1.767  0.2794 -1.0068  0.9268
 2393TIP3    H228739   5.281   0.202   1.668 -0.7575  0.2466 -0.3920
 2394TIP3   OH228740   3.598   2.755   2.840  0.3664 -0.3525 -0.4522
 2394TIP3    H128741   3.595   2.756   2.935  2.4363 -0.3989 -0.3536
 2394TIP3    H228742   3.682   2.795   2.817  0.6728 -1.8169 -2.1926
 2395TIP3   OH228743   3.865   1.572   0.678 -0.3528 -1.0038 -0.2661
 2395TIP3    H128744   3.915   1.497   0.644 -1.1071 -2.3492  1.4439
 2395TIP3    H228745   3.928   1.620   0.732 -0.3552 -1.5626  0.2502
 2396TIP3   OH228746   4.735   1.998   3.335 -0.0970 -0.0604  0.3918
 2396TIP3    H128747   4.681   1.972   3.260  1.3801 -3.2087  0.2322
 2396TIP3    H228748   4.750   1.916   3.382  3.4308  0.8333  1.1152
 2397TIP3   OH228749   4.411   6.200   2.702  0.5999 -0.1977 -0.3943
 2397TIP3    H128750   4.365   6.179   2.620 -1.4941  0.1529  0.6180
 2397TIP3    H228751   4.436   6.115   2.738 -1.0673 -0.5650 -0.0220
 2398TIP3   OH228752   1.463   2.899   1.733  0.6992  0.1479  0.5118
 2398TIP3    H128753   1.474   2.928   1.823  0.4122 -0.4284  0.7366
 2398TIP3    H228754   1.411   2.818   1.740  1.6199 -0.5139 -0.0855
 2399TIP3   OH228755   0.497   0.396   3.565  0.4908 -0.6565  0.0394
 2399TIP3    H128756   0.438   0.321   3.556  0.4787 -0.7042  0.4934
 2399TIP3    H228757   0.501   0.412   3.659  0.2437  0.1127 -0.0755
 2400TIP3   OH228758   6.553   3.730   2.341 -0.5782  0.2121  0.0618
 2400TIP3    H128759   6.563   3.825   2.351 -0.0609  0.0027  2.0657
 2400TIP3    H228760   6.535   3.699   2.430  0.5506 -1.7036 -0.3341
 2401TIP3   OH228761   6.234   1.888   1.068  0.0869  0.6497  0.0888
 2401TIP3    H128762   6.269   1.906   1.155 -1.1180  1.0030  0.5160
 2401TIP3    H228763   6.303   1.916   1.008  2.4931 -2.8614  0.8919
 2402TIP3   OH228764   2.429   1.597   1.427 -0.1683  0.7041 -0.1890
 2402TIP3    H128765   2.433   1.635   1.515  1.7685 -0.5169  0.3061
 2402TIP3    H228766   2.411   1.504   1.441  1.1744  0.2897 -0.9874
 2403TIP3   OH228767   4.154   5.152   2.143  0.3148  0.2929  0.2063
 2403TIP3    H128768   4.194   5.185   2.062 -1.1831  2.6608  0.3361
 2403TIP3    H228769   4.128   5.062   2.122  3.1714 -0.4242 -0.7032
 2404TIP3   OH228770   3.090   3.409   2.630 -0.5213  0.0491 -0.8686
 2404TIP3    H128771   3.170   3.357   2.618 -0.3832  0.6066 -2.5302
 2404TIP3    H228772   3.088   3.427   2.724  3.2175  2.8962 -1.0689
 2405TIP3   OH228773   0.902   5.203   3.069  0.0339 -0.4491  0.1601
 2405TIP3    H128774   0.816   5.176   3.102  0.0461 -1.0241 -0.2568
 2405TIP3    H228775   0.943   5.122   3.038  1.6304 -0.5592  2.3320
 2406TIP3   OH228776   5.111   6.807   8.110 -0.1005 -0.4419  1.1768
 2406TIP3    H128777   5.114   6.726   8.058  1.8132  0.5129 -0.3012
 2406TIP3    H228778   5.020   6.811   8.141 -0.8212 -2.0709 -0.4708
 2407TIP3   OH228779   4.035   0.341   8.669  0.0921 -0.0587 -0.3976
 2407TIP3    H128780   3.973   0.372   8.735 -0.8830  0.7037 -1.6127
 2407TIP3    H228781   3.983   0.338   8.588  1.3251 -0.6661 -1.1890
 2408TIP3   OH228782   1.616   0.130   2.210  0.2097  0.1669  0.1491
 2408TIP3    H128783   1.626   0.175   2.294 -0.1397 -0.1551  0.3693
 2408TIP3    H228784   1.565   0.052   2.232  1.3459 -0.6671 -0.1028
 2409TIP3   OH228785   2.846   4.706   2.220  0.1335 -0.2811 -0.0812
 2409TIP3    H128786   2.898   4.771   2.266  0.7817 -0.6670 -0.2607
 2409TIP3    H228787   2.832   4.743   2.133  1.9650 -1.1163 -0.7635
 2410TIP3   OH228788   0.180   1.441   2.763 -0.1392  0.6029 -0.3742
 2410TIP3    H128789   0.191   1.346   2.771 -0.1344  0.3787 -2.6053
 2410TIP3    H228790   0.086   1.454   2.751 -0.1456  0.9138 -0.0342
 2411TIP3   OH228791   0.016   4.684   8.360  0.4348 -0.0730  0.0470
 2411TIP3    H128792   0.078   4.612   8.371  0.7883 -0.1816 -2.2437
 2411TIP3    H228793   0.015   4.701   8.266  0.9954  3.4759  0.5338
 2412TIP3   OH228794   5.482   2.039   3.640 -0.1286 -0.7197 -0.2295
 2412TIP3    H128795   5.547   2.099   3.603 -0.6133 -0.1446 -0.1515
 2412TIP3    H228796   5.532   1.959   3.658  0.8868  0.1695  1.1249
 2413TIP3   OH228797   3.044   5.917   2.425 -0.8544 -0.3389 -0.2867
 2413TIP3    H128798   2.972   5.915   2.488 -0.8000  1.1028 -0.1363
 2413TIP3    H228799   3.079   5.828   2.425  0.3623 -0.0225  3.1647
 2414TIP3   OH228800   2.980   1.731   2.301 -0.1002  0.3219  0.0303
 2414TIP3    H128801   3.032   1.673   2.357  0.5185 -1.6913 -2.4659
 2414TIP3    H228802   3.019   1.818   2.315  0.1640 -0.1177  2.4726
 2415TIP3   OH228803   6.794   3.949   3.366  0.1987 -0.1335 -0.1438
 2415TIP3    H128804   6.885   3.921   3.375 -0.0626 -0.4024  2.2009
 2415TIP3    H228805   6.746   3.898   3.432 -0.6803  4.0870  2.8715
 2416TIP3   OH228806   6.006   3.600   0.466  0.2695 -0.2150  0.0235
 2416TIP3    H128807   6.094   3.589   0.429  0.3382  3.8089 -1.4972
 2416TIP3    H228808   5.966   3.669   0.414 -3.0534 -0.3811  2.0441
 2417TIP3   OH228809   1.952   0.814   0.450 -0.2397 -0.1280 -0.1066
 2417TIP3    H128810   1.996   0.779   0.373 -1.4094 -0.0770 -0.8295
 2417TIP3    H228811   1.913   0.896   0.420  0.9213  0.9042  1.0774
 2418TIP3   OH228812   1.010   2.158   0.171 -0.0832  0.1496 -0.4775
 2418TIP3    H128813   1.070   2.085   0.156  0.2835  0.2036  0.7034
 2418TIP3    H228814   1.012   2.207   0.088  1.1051 -0.1284 -0.6322
 2419TIP3   OH228815   5.599   3.022   3.419  0.4036  0.3943 -0.6526
 2419TIP3    H128816   5.617   2.965   3.494  1.8011  0.1614 -1.1343
 2419TIP3    H228817   5.637   3.106   3.443  0.8058  0.3347 -1.0658
 2420TIP3   OH228818   0.669   2.341   1.442 -0.8459  0.0252  0.0472
 2420TIP3    H128819   0.734   2.410   1.458 -2.5504  1.2207  2.4254
 2420TIP3    H228820   0.626   2.328   1.526 -1.3898 -3.2122 -0.5975
 2421TIP3   OH228821   4.723   5.379   2.654  0.0155 -0.1884  0.0678
 2421TIP3    H128822   4.805   5.379   2.703  0.5496  0.4301 -0.8106
 2421TIP3    H228823   4.658   5.412   2.716  1.1866  3.4429 -0.4070
 2422TIP3   OH228824   5.188   4.778   2.847  0.5459  0.0939  0.2364
 2422TIP3    H128825   5.191   4.685   2.869  2.3980  0.0105 -0.1817
 2422TIP3    H228826   5.207   4.781   2.754  0.4844  0.8873  0.2458
 2423TIP3   OH228827   3.787   2.577   1.477  0.0072  0.2487 -0.4534
 2423TIP3    H128828   3.723   2.528   1.425 -1.0063 -0.6671  1.5398
 2423TIP3    H228829   3.750   2.665   1.483 -1.2485 -0.3170  0.8365
 2424TIP3   OH228830   5.711   4.269   2.056  0.1116  0.1319  0.1879
 2424TIP3    H128831   5.674   4.198   2.108  0.2674  0.3478  0.5972
 2424TIP3    H228832   5.719   4.342   2.117 -0.2891  0.5843 -0.2953
 2425TIP3   OH228833   4.702   5.063   0.940 -0.4041 -0.2498  0.1384
 2425TIP3    H128834   4.790   5.029   0.952 -0.3224  0.4623  1.8628
 2425TIP3    H228835   4.714   5.156   0.921 -0.7329 -0.5655 -1.8211
 2426TIP3   OH228836   1.307   0.672   0.620  0.4164 -0.1425 -0.3804
 2426TIP3    H128837   1.334   0.713   0.538  0.1679  0.7960 -0.0006
 2426TIP3    H228838   1.378   0.612   0.641  0.2929 -0.7170 -1.4908
 2427TIP3   OH228839   5.307   1.968   2.015 -0.4096  0.3071 -0.1688
 2427TIP3    H128840   5.247   2.029   2.058  0.6001  1.7064 -0.6614
 2427TIP3    H228841   5.355   2.023   1.952  1.3123 -0.7694  0.1501
 2428TIP3   OH228842   5.904   5.540   1.575  0.4813  0.3343 -0.7157
 2428TIP3    H128843   5.833   5.565   1.635 -0.0448  0.6038 -1.4377
 2428TIP3    H228844   5.981   5.533   1.631 -0.4899 -1.9211  0.4511
 2429TIP3   OH228845   0.707   1.361   8.111  0.3515  1.1882  0.5075
 2429TIP3    H128846   0.650   1.438   8.121 -0.3363  0.8548 -0.6584
 2429TIP3    H228847   0.793   1.397   8.092 -0.1203  1.6980 -0.7929
 2430TIP3   OH228848   5.959   2.230   0.371  0.5559 -0.4063 -0.3844
 2430TIP3    H128849   6.050   2.244   0.398  0.3390  3.1115 -0.9953
 2430TIP3    H228850   5.909   2.292   0.424 -1.5322 -2.1436 -0.1935
 2431TIP3   OH228851   2.916   4.922   0.113  0.2223 -0.2468  0.1626
 2431TIP3    H128852   2.949   4.890   0.029  0.4805 -1.7287  0.7989
 2431TIP3    H228853   2.884   4.844   0.158 -0.2117  0.5649  1.3205
 2432TIP3   OH228854   0.179   0.932   1.954 -0.9660 -0.8315  0.1481
 2432TIP3    H128855   0.196   0.930   2.048 -1.1611 -0.7405  0.1844
 2432TIP3    H228856   0.220   0.852   1.921  1.0060  0.1521  0.0054
 2433TIP3   OH228857   0.273   1.904   3.960  0.1443  0.4577  0.5236
 2433TIP3    H128858   0.253   1.871   3.872  0.1419 -0.0100  0.6987
 2433TIP3    H228859   0.289   1.825   4.012  1.4082  0.7646  0.6340
 2434TIP3   OH228860   5.542   0.415   0.851  0.3260 -0.3819  0.0199
 2434TIP3    H128861   5.541   0.320   0.860  1.0995 -0.6062 -1.7899
 2434TIP3    H228862   5.557   0.430   0.758 -1.6677  1.5284 -0.0875
 2435TIP3   OH228863   3.078   1.331   3.227  0.3859 -0.2795  0.4738
 2435TIP3    H128864   3.138   1.259   3.244  1.2489 -0.0434 -1.2920
 2435TIP3    H228865   3.135   1.408   3.217 -0.3246  0.2345  0.2253
 2436TIP3   OH228866   6.031   3.028   1.224 -0.0631  0.2734  0.4569
 2436TIP3    H128867   6.080   2.949   1.202  0.1277 -0.1382  2.2079
 2436TIP3    H228868   6.056   3.091   1.156  0.0325 -1.0402 -0.7785
 2437TIP3   OH228869   4.497   5.930   0.134  1.2353  0.0852  0.0654
 2437TIP3    H128870   4.418   5.885   0.165  0.6486 -1.2107 -2.8733
 2437TIP3    H228871   4.569   5.874   0.164  0.8902  0.0722  0.9049
 2438TIP3   OH228872   3.720   2.157   1.691  0.0912  0.2206  0.2462
 2438TIP3    H128873   3.757   2.121   1.611 -0.9192 -1.6754  0.5598
 2438TIP3    H228874   3.625   2.146   1.681 -0.0326 -0.6331  1.9283
 2439TIP3   OH228875   2.350   3.254   1.397 -0.1201  0.1269  0.0592
 2439TIP3    H128876   2.351   3.294   1.309 -0.2792 -1.4476 -0.6923
 2439TIP3    H228877   2.258   3.236   1.414  0.0017 -0.4838  0.1060
 2440TIP3   OH228878   4.453   0.017   1.295 -0.1315 -0.1580 -0.2664
 2440TIP3    H128879   4.504   0.088   1.334  0.6232 -1.4188  1.1458
 2440TIP3    H228880   4.510  -0.060   1.302 -1.9269 -1.4614  0.7247
 2441TIP3   OH228881   3.139   0.971   2.387 -0.8746 -0.4317  0.2098
 2441TIP3    H128882   3.192   1.040   2.427 -1.9793 -0.0090  0.9916
 2441TIP3    H228883   3.096   1.013   2.313 -1.9163 -0.1178  0.9646
 2442TIP3   OH228884   4.881   1.041   0.466 -0.0187  0.6849 -0.2779
 2442TIP3    H128885   4.830   1.039   0.385  1.1355 -1.8615 -1.0194
 2442TIP3    H228886   4.863   0.958   0.509  1.6130  0.7531  0.6385
 2443TIP3   OH228887   4.441   1.828   3.392  0.0339 -0.0054 -0.1764
 2443TIP3    H128888   4.520   1.828   3.447 -0.8688 -0.6156  1.1698
 2443TIP3    H228889   4.404   1.915   3.405  0.2373  0.1255 -0.4562
 2444TIP3   OH228890   1.424   5.087   8.357  0.5305 -0.4237 -0.5403
 2444TIP3    H128891   1.348   5.130   8.318 -0.6562 -3.1482 -1.4566
 2444TIP3    H228892   1.499   5.136   8.322 -0.7237  1.2127 -1.0565
 2445TIP3   OH228893   3.030   3.744   3.576  0.0579  0.2040  0.5490
 2445TIP3    H128894   2.962   3.788   3.627 -0.7050 -0.7095  0.3235
 2445TIP3    H228895   3.101   3.809   3.572 -0.9839  1.3837  0.3202
 2446TIP3   OH228896   0.910   5.713   0.838 -0.1557  0.5054 -0.5506
 2446TIP3    H128897   0.910   5.619   0.821 -0.4307 -0.0591  2.1100
 2446TIP3    H228898   0.962   5.751   0.766  1.1863 -1.8214 -0.9066
 2447TIP3   OH228899   4.802   6.323   1.814 -0.4802  0.1364 -0.7930
 2447TIP3    H128900   4.790   6.271   1.894  0.4680 -0.0231 -0.7365
 2447TIP3    H228901   4.777   6.263   1.744  0.8766 -0.5482 -0.7486
 2448TIP3   OH228902   5.341   1.519   8.148 -0.3982  0.9407 -0.2722
 2448TIP3    H128903   5.409   1.569   8.192 -1.3306  1.4713  0.6212
 2448TIP3    H228904   5.280   1.585   8.114 -1.1702  0.4613  0.1362
 2449TIP3   OH228905   0.834   6.091   0.591  0.6035 -0.1077  0.2680
 2449TIP3    H128906   0.772   6.021   0.569  1.3064 -0.0932 -2.0781
 2449TIP3    H228907   0.819   6.109   0.684 -1.5405 -1.4367  0.2425
 2450TIP3   OH228908   6.004   2.627   0.161  0.2605 -0.4120  0.6119
 2450TIP3    H128909   6.099   2.619   0.171  0.3991 -0.0365 -0.3147
 2450TIP3    H228910   5.971   2.538   0.171  0.8623 -0.7758 -0.4786
 2451TIP3   OH228911   0.618   1.874   0.475  0.0685  0.2885  0.0514
 2451TIP3    H128912   0.678   1.815   0.429 -1.1477  0.0255 -1.2856
 2451TIP3    H228913   0.618   1.954   0.422 -0.5624  0.3670  0.1575
 2452TIP3   OH228914   2.822   0.011   0.531  0.2219  0.2054  0.0656
 2452TIP3    H128915   2.810   0.026   0.437 -2.2030 -0.2611  0.2357
 2452TIP3    H228916   2.906  -0.033   0.538  1.4447  2.1057 -1.6498
 2453TIP3   OH228917   3.023   1.032   1.440 -0.1249  0.1579  0.1519
 2453TIP3    H128918   3.034   1.018   1.534 -1.8979  3.5417  1.0127
 2453TIP3    H228919   2.930   1.021   1.424 -0.0004  0.6022 -1.0009
 2454TIP3   OH228920   0.124   0.038   1.115  0.2441 -0.6899  0.8302
 2454TIP3    H128921   0.069  -0.020   1.167  0.5106 -1.7042 -0.0047
 2454TIP3    H228922   0.093   0.027   1.025  0.5870  0.1321  0.5995
 2455TIP3   OH228923   2.936   4.998   1.504 -0.0890  0.2971 -0.1309
 2455TIP3    H128924   2.917   4.909   1.533  2.1043 -0.2101 -0.0875
 2455TIP3    H228925   2.893   5.004   1.418 -1.1312 -0.4353  0.3195
 2456TIP3   OH228926   1.106   1.430   2.504 -0.0729  0.2269  0.4956
 2456TIP3    H128927   1.017   1.404   2.528  0.4263 -0.0580  2.1631
 2456TIP3    H228928   1.109   1.524   2.523 -0.1368  0.3235  0.0367
 2457TIP3   OH228929   6.416   4.251   2.360 -0.0416  0.3933  0.2568
 2457TIP3    H128930   6.420   4.156   2.349 -2.5179  0.2782 -0.2799
 2457TIP3    H228931   6.442   4.267   2.450  0.0083 -0.8487  0.4654
 2458TIP3   OH228932   5.814   0.671   3.265  0.5629 -0.8627 -0.2191
 2458TIP3    H128933   5.798   0.646   3.356  1.0121 -0.3374  0.0076
 2458TIP3    H228934   5.895   0.720   3.268 -0.8453  1.6530 -0.4537
 2459TIP3   OH228935   3.352   6.583   8.231  0.0349  0.1596 -0.1893
 2459TIP3    H128936   3.442   6.603   8.203 -0.2744  1.2025 -0.4931
 2459TIP3    H228937   3.299   6.599   8.153 -0.4825  0.0744  0.1436
 2460TIP3   OH228938   4.627   0.035   0.295  0.4293  0.0675 -0.2298
 2460TIP3    H128939   4.541   0.068   0.270  0.1264 -1.7248 -1.7764
 2460TIP3    H228940   4.614  -0.057   0.314  2.0149 -0.2880 -0.6524
 2461TIP3   OH228941   5.570   3.024   2.711 -0.0356 -0.0031  0.9177
 2461TIP3    H128942   5.479   3.042   2.688 -0.1464 -1.6878 -0.1876
 2461TIP3    H228943   5.584   2.933   2.684  1.9874  0.2224  1.0079
 2462TIP3   OH228944   0.281   2.219   7.805 -0.0347  0.5327 -0.5940
 2462TIP3    H128945   0.336   2.143   7.785 -1.3060 -1.0707  1.5353
 2462TIP3    H228946   0.296   2.235   7.899 -1.6191  1.3451 -0.4530
 2463TIP3   OH228947   0.475   0.618   1.314  0.2053 -0.1626  0.0556
 2463TIP3    H128948   0.497   0.681   1.245  1.5049 -0.4788  0.1494
 2463TIP3    H228949   0.406   0.661   1.365  1.4179  1.4344  0.4348
 2464TIP3   OH228950   2.966   5.727   8.221 -0.0097 -0.1592 -0.2650
 2464TIP3    H128951   2.995   5.708   8.311  1.3206  0.0112 -0.6280
 2464TIP3    H228952   2.978   5.645   8.174  2.1396  0.4852 -0.9498
 2465TIP3   OH228953   3.831   1.944   0.305  0.2533 -0.1594 -0.0189
 2465TIP3    H128954   3.872   1.892   0.236  2.5197 -0.3105  1.3306
 2465TIP3    H228955   3.825   1.883   0.379  1.2361  0.9414  1.0145
 2466TIP3   OH228956   4.597   3.236   1.942  0.0207 -0.2503  0.1163
 2466TIP3    H128957   4.554   3.152   1.961 -0.7826 -0.2109 -1.3504
 2466TIP3    H228958   4.661   3.246   2.012 -1.9574 -0.5996  2.1279
 2467TIP3   OH228959   1.387   6.319   1.422  0.9196  0.3779  0.2587
 2467TIP3    H128960   1.481   6.308   1.405  0.6648  0.0744 -0.9771
 2467TIP3    H228961   1.378   6.296   1.515  1.4895 -3.2835 -0.4425
 2468TIP3   OH228962   0.169   4.635   1.925 -0.2508 -1.0140 -0.3386
 2468TIP3    H128963   0.096   4.613   1.868  0.3738 -0.5417 -1.3491
 2468TIP3    H228964   0.242   4.582   1.893  0.8436  1.2386 -1.7923
 2469TIP3   OH228965   0.374   1.161   1.412 -0.6778  0.0307 -0.1103
 2469TIP3    H128966   0.293   1.131   1.455 -0.3397  1.8845  1.9872
 2469TIP3    H228967   0.412   1.223   1.474  2.2519 -0.5773 -1.1586
 2470TIP3   OH228968   2.146   3.675   0.847 -0.1218 -0.0232  0.4971
 2470TIP3    H128969   2.218   3.613   0.836 -1.0406 -1.1138  0.4986
 2470TIP3    H228970   2.143   3.724   0.765 -0.8024 -1.5155 -0.3982
 2471TIP3   OH228971   0.246   2.364   1.458  0.2545  0.0954  0.3540
 2471TIP3    H128972   0.278   2.379   1.547  0.8560  1.2283 -0.0320
 2471TIP3    H228973   0.316   2.398   1.402  0.1511 -1.1379 -0.5730
 2472TIP3   OH228974   3.136   2.866   0.410 -0.5641 -0.2961 -0.6064
 2472TIP3    H128975   3.156   2.865   0.503  0.1400  1.8138 -0.6809
 2472TIP3    H228976   3.214   2.831   0.368 -1.2306 -2.1354 -0.4143
 2473TIP3   OH228977   0.638   2.056   7.613  0.6020 -0.2293 -0.0544
 2473TIP3    H128978   0.673   2.114   7.681 -0.2540 -0.0209  0.2351
 2473TIP3    H228979   0.624   2.113   7.538  1.8650 -0.5271 -0.5397
 2474TIP3   OH228980   3.270   0.804   1.100  0.1065  0.0256 -0.1673
 2474TIP3    H128981   3.286   0.711   1.120  1.5877  0.2699 -0.1241
 2474TIP3    H228982   3.352   0.848   1.122 -0.8993  1.5238  0.7438
 2475TIP3   OH228983   6.595   5.453   2.805 -0.2960 -0.0091 -0.6938
 2475TIP3    H128984   6.631   5.486   2.723 -1.5119  0.3533 -1.1023
 2475TIP3    H228985   6.587   5.530   2.861  1.3276 -0.3771  0.1121
 2476TIP3   OH228986   4.921   0.993   2.035 -0.4376 -0.0756  0.1563
 2476TIP3    H128987   4.959   0.992   1.947 -2.1385  0.6372 -0.6380
 2476TIP3    H228988   4.863   0.917   2.037 -3.2623  1.8864 -0.7664
 2477TIP3   OH228989   4.767   4.987   2.825 -0.3768 -0.0430  0.1520
 2477TIP3    H128990   4.776   5.044   2.749  2.6245  1.0149  1.1558
 2477TIP3    H228991   4.731   5.043   2.894  2.0485  0.6222  0.9786
 2478TIP3   OH228992   5.228   0.004   2.560 -0.0068  0.6098 -0.3464
 2478TIP3    H128993   5.317   0.030   2.582  0.7924 -1.5281 -0.8497
 2478TIP3    H228994   5.237  -0.049   2.481 -1.7538  0.4749 -0.5019
 2479TIP3   OH228995   4.359   0.191   0.249 -0.2761  0.2099  0.1144
 2479TIP3    H128996   4.374   0.284   0.231 -3.1026  0.8176  0.4883
 2479TIP3    H228997   4.281   0.169   0.199 -2.0962 -0.8308  3.1665
 2480TIP3   OH228998   5.399   0.386   2.967  0.1258 -0.3544 -0.6355
 2480TIP3    H128999   5.481   0.361   2.924 -0.9618 -1.9946 -1.8759
 2480TIP3    H229000   5.340   0.313   2.949 -1.4487  0.5410  0.7066
 2481TIP3   OH229001   1.472   6.435   3.437 -0.3164  0.2841  0.4517
 2481TIP3    H129002   1.462   6.469   3.526  2.1146 -1.4924  1.5506
 2481TIP3    H229003   1.400   6.373   3.427 -1.1705  1.1890  0.7766
 2482TIP3   OH229004   4.066   1.902   1.351 -0.3191 -0.0104 -0.0106
 2482TIP3    H129005   4.080   1.904   1.256  2.1503  2.8760  0.2582
 2482TIP3    H229006   4.143   1.946   1.387 -2.0423  0.6248  3.2174
 2483TIP3   OH229007   1.999   3.635   2.493 -0.2291  0.2909  0.0913
 2483TIP3    H129008   1.953   3.653   2.575  2.6281 -0.8843  2.1051
 2483TIP3    H229009   2.057   3.710   2.481  0.3796 -0.1945 -0.0500
 2484TIP3   OH229010   6.137   0.842   0.359  0.1984  0.0458 -0.1916
 2484TIP3    H129011   6.179   0.758   0.374 -0.9660 -0.5229  0.0066
 2484TIP3    H229012   6.161   0.865   0.269  0.8627 -0.2885 -0.1034
 2485TIP3   OH229013   3.162   6.099   0.005 -0.0479  0.0308 -0.3290
 2485TIP3    H129014   3.084   6.098  -0.050  0.5156  1.6268 -1.2357
 2485TIP3    H229015   3.224   6.042  -0.040  0.1102  0.6384 -0.8942
 2486TIP3   OH229016   2.148   4.148   3.376 -0.0352 -1.0318  0.0842
 2486TIP3    H129017   2.058   4.116   3.379 -0.7814  0.7161 -1.9138
 2486TIP3    H229018   2.156   4.204   3.453 -1.2070  0.0762 -0.5680
 2487TIP3   OH229019   0.808   6.372   0.494 -0.4316  0.4496  0.0483
 2487TIP3    H129020   0.788   6.280   0.507  0.3528 -0.0145 -1.6979
 2487TIP3    H229021   0.744   6.402   0.430 -0.2050  0.9090  0.0319
 2488TIP3   OH229022   3.815   3.713   2.562  0.1937  0.0157 -0.1478
 2488TIP3    H129023   3.743   3.769   2.531 -2.1067 -2.0170  1.1204
 2488TIP3    H229024   3.836   3.748   2.649  1.0166  0.8021 -0.6442
 2489TIP3   OH229025   3.567   0.764   1.868 -0.7230  0.1189  0.0888
 2489TIP3    H129026   3.577   0.827   1.798  0.8127 -0.3128 -0.1121
 2489TIP3    H229027   3.599   0.682   1.832  0.3150 -0.0686  1.3468
 2490TIP3   OH229028   1.146   3.409   2.614  0.2501 -0.1953 -0.5008
 2490TIP3    H129029   1.077   3.381   2.553 -0.1789  0.0370 -0.1309
 2490TIP3    H229030   1.124   3.499   2.635 -1.5574 -1.2035  2.5460
 2491TIP3   OH229031   1.881   3.210   0.048 -0.1873  0.5001  0.0973
 2491TIP3    H129032   1.954   3.263   0.079  1.1999 -1.4867  0.4195
 2491TIP3    H229033   1.899   3.195  -0.045 -0.2164  0.0748  0.1557
 2492TIP3   OH229034   3.081   0.556   2.942 -0.2092  0.0312 -0.3467
 2492TIP3    H129035   3.028   0.620   2.894 -0.7109 -0.6580 -0.7282
 2492TIP3    H229036   3.025   0.529   3.015 -0.2990 -0.5192 -0.6124
 2493TIP3   OH229037   1.558   5.737   0.087  0.0787 -0.2795 -0.2531
 2493TIP3    H129038   1.471   5.699   0.083  0.1143 -0.2792 -1.3388
 2493TIP3    H229039   1.550   5.822   0.043  0.5615 -0.1413 -0.0868
 2494TIP3   OH229040   1.375   4.895   1.057 -0.3375 -0.1072  0.1172
 2494TIP3    H129041   1.405   4.982   1.084 -0.2324  0.1369 -0.7490
 2494TIP3    H229042   1.438   4.867   0.991 -1.1875 -0.2114 -0.6692
 2495TIP3   OH229043   3.584   3.499   0.368  0.1694 -0.1350 -0.2692
 2495TIP3    H129044   3.644   3.483   0.295 -0.3058 -2.2703 -0.2582
 2495TIP3    H229045   3.571   3.594   0.368  2.8836  0.3192 -0.7582
 2496TIP3   OH229046   2.651   2.552   2.484  0.8837 -0.5136 -0.0812
 2496TIP3    H129047   2.726   2.608   2.504  0.7258 -0.5477  0.6342
 2496TIP3    H229048   2.644   2.554   2.389 -0.2034  2.0661 -0.0151
 2497TIP3   OH229049   4.261   3.519   2.119  0.4103  0.0935 -0.2979
 2497TIP3    H129050   4.237   3.462   2.192 -1.1624  0.5630 -0.4096
 2497TIP3    H229051   4.214   3.601   2.136  1.0050  0.6480 -1.1999
 2498TIP3   OH229052   2.761   6.721   1.922 -0.3865 -0.0063  0.0075
 2498TIP3    H129053   2.707   6.702   1.999 -1.8365  0.4512 -0.8589
 2498TIP3    H229054   2.708   6.691   1.848  1.2092 -0.9414 -0.8066
 2499TIP3   OH229055   1.277   0.391   3.391  0.1720 -0.7303 -0.4183
 2499TIP3    H129056   1.340   0.463   3.395 -0.1946 -0.2835 -1.8738
 2499TIP3    H229057   1.294   0.350   3.306 -0.5790 -1.4619 -0.2242
 2500TIP3   OH229058   5.019   5.512   1.000  0.4098 -0.1781  0.1348
 2500TIP3    H129059   5.001   5.561   0.920 -0.1848  1.6210  1.2974
 2500TIP3    H229060   5.101   5.550   1.033  0.5572 -0.7775  0.4790
 2501TIP3   OH229061   1.519   5.336   3.382 -0.3407  0.2114  0.4020
 2501TIP3    H129062   1.533   5.416   3.432 -1.8438  0.6520  0.1568
 2501TIP3    H229063   1.517   5.365   3.291 -1.2461 -0.0357  0.3338
 2502TIP3   OH229064   4.622   4.959   8.226 -0.0046 -0.1700  0.3011
 2502TIP3    H129065   4.669   4.882   8.196 -0.6227 -1.1158  1.6480
 2502TIP3    H229066   4.690   5.016   8.263  0.3309 -0.5216  0.2270
 2503TIP3   OH229067   1.776   3.127   1.183  0.1799  0.3138  0.1301
 2503TIP3    H129068   1.837   3.054   1.190  1.4744  1.4211  0.8140
 2503TIP3    H229069   1.753   3.131   1.090  0.1328 -0.9108  0.0825
 2504TIP3   OH229070   4.436   5.799   3.017  0.5923 -0.3066 -0.6126
 2504TIP3    H129071   4.437   5.893   3.000 -0.9660  0.0229  0.8822
 2504TIP3    H229072   4.485   5.788   3.098 -0.4224 -0.5772 -0.0131
 2505TIP3   OH229073   3.952   6.777   2.822 -0.0675 -0.0837 -0.1302
 2505TIP3    H129074   3.931   6.866   2.795 -1.3637 -0.3955 -0.2085
 2505TIP3    H229075   3.943   6.778   2.917  1.0035  0.1259 -0.0160
 2506TIP3   OH229076   4.559   0.908   2.928  0.0645  0.0151  0.4448
 2506TIP3    H129077   4.597   0.994   2.946 -0.0036 -0.0794  1.0463
 2506TIP3    H229078   4.575   0.894   2.835  0.1643  0.6356  0.3664
 2507TIP3   OH229079   2.602   3.273   3.255 -0.2967  0.1152  0.2593
 2507TIP3    H129080   2.600   3.274   3.159 -1.8031  0.8545  0.2661
 2507TIP3    H229081   2.643   3.357   3.278  0.5788 -0.3083  0.2718
 2508TIP3   OH229082   5.368   0.603   1.560 -0.3094 -0.0788 -0.0011
 2508TIP3    H129083   5.437   0.549   1.519  0.0589  1.1020 -0.9914
 2508TIP3    H229084   5.383   0.594   1.654  0.9642 -0.1560 -0.1951
 2509TIP3   OH229085   6.186   5.034   1.855 -0.2481 -0.7726 -0.8879
 2509TIP3    H129086   6.164   5.124   1.833 -0.4997 -0.2293  1.3661
 2509TIP3    H229087   6.135   5.015   1.933  1.0813 -2.2944 -0.3398
 2510TIP3   OH229088   4.630   0.558   0.266 -0.0025  0.0964  0.3552
 2510TIP3    H129089   4.672   0.529   0.348  0.3137  1.0630  0.5453
 2510TIP3    H229090   4.588   0.640   0.288  0.4172  0.5682 -0.5475
 2511TIP3   OH229091   4.122   2.299   2.744  0.2399 -0.2237  0.9207
 2511TIP3    H129092   4.132   2.367   2.810  1.2452  1.0683 -0.4970
 2511TIP3    H229093   4.048   2.328   2.690 -0.6773 -1.3445  1.5420
 2512TIP3   OH229094   4.075   0.762   8.666  0.7796 -0.6142 -0.2734
 2512TIP3    H129095   3.999   0.713   8.638  1.7253 -1.3376 -1.7208
 2512TIP3    H229096   4.040   0.835   8.716 -0.8859 -0.7201 -1.2189
 2513TIP3   OH229097   5.970   6.615   8.534 -0.1519 -0.4438  0.2604
 2513TIP3    H129098   5.957   6.523   8.510  0.3794 -0.4696  0.0706
 2513TIP3    H229099   6.044   6.644   8.481  0.3383 -0.1892  1.0735
 2514TIP3   OH229100   5.272   6.062   2.354 -0.0230 -0.5883 -0.1219
 2514TIP3    H129101   5.260   6.154   2.329 -2.3383 -0.8253 -0.1674
 2514TIP3    H229102   5.366   6.051   2.362  0.3090  1.8476  0.1043
 2515TIP3   OH229103   4.158   5.313   8.600  0.4736 -0.5384 -0.0692
 2515TIP3    H129104   4.183   5.319   8.508  2.0975  0.6621  0.4012
 2515TIP3    H229105   4.233   5.270   8.642  0.1611 -0.2102  0.8509
 2516TIP3   OH229106   1.517   2.656   4.370 -0.1314 -0.2352 -0.5996
 2516TIP3    H129107   1.551   2.716   4.436  0.2399  0.0008 -1.0022
 2516TIP3    H229108   1.569   2.674   4.292 -0.2789 -0.8157 -0.8330
 2517TIP3   OH229109   0.076   0.081   2.415 -0.0939 -1.0435 -0.5468
 2517TIP3    H129110  -0.006   0.127   2.435  0.3958 -0.8689  1.2126
 2517TIP3    H229111   0.049   0.009   2.358 -1.7348 -1.8533  1.1439
 2518TIP3   OH229112   1.320   2.739   2.101 -0.3194  0.3184  0.2617
 2518TIP3    H129113   1.387   2.737   2.033 -0.8404  0.6202 -0.2596
 2518TIP3    H229114   1.365   2.776   2.177 -0.0209  0.9613 -0.2223
 2519TIP3   OH229115   2.164   3.871   0.626 -0.5887 -0.2592 -0.0097
 2519TIP3    H129116   2.129   3.932   0.560 -1.5461  0.0308  0.7561
 2519TIP3    H229117   2.222   3.925   0.680 -1.0307 -0.1430  0.3493
 2520TIP3   OH229118   1.923   1.310   2.311  0.0590  0.0890  0.2763
 2520TIP3    H129119   1.961   1.394   2.338  0.5073 -0.0510  0.0922
 2520TIP3    H229120   1.911   1.262   2.393 -1.3348  0.7812  0.5209
 2521TIP3   OH229121   1.162   1.066   1.709 -0.1918  0.1151  0.0559
 2521TIP3    H129122   1.207   0.986   1.684 -0.9322 -0.5683  0.8615
 2521TIP3    H229123   1.113   1.092   1.631 -0.2977 -0.4604 -0.0693
 2522TIP3   OH229124   4.259   4.806   2.470 -0.4548  0.3242  0.0935
 2522TIP3    H129125   4.233   4.896   2.453  1.4128  1.0859  1.0312
 2522TIP3    H229126   4.318   4.783   2.398 -2.6712 -1.0082 -1.4174
 2523TIP3   OH229127   4.578   5.039   2.261  0.2832 -0.0220 -0.0473
 2523TIP3    H129128   4.591   4.989   2.342 -1.1762  1.6265  1.2856
 2523TIP3    H229129   4.491   5.013   2.231 -0.2234  1.1714  0.3119
 2524TIP3   OH229130   0.119   1.377   1.551 -0.1662  0.5390  0.0425
 2524TIP3    H129131   0.124   1.300   1.609  0.0365  0.5647  0.0606
 2524TIP3    H229132   0.207   1.414   1.554 -0.5006  1.3092  0.7582
 2525TIP3   OH229133   0.058   2.790   1.470  0.3579 -0.0172 -0.2177
 2525TIP3    H129134   0.059   2.817   1.378 -0.8567 -0.8073 -0.4731
 2525TIP3    H229135  -0.027   2.818   1.503  0.6686  0.0008  0.6083
 2526TIP3   OH229136   3.372   3.519   4.030  0.2419  0.3495 -0.5620
 2526TIP3    H129137   3.350   3.598   4.080  0.1524  0.1642 -0.3034
 2526TIP3    H229138   3.339   3.536   3.942  3.2728  2.0798 -1.5443
 2527TIP3   OH229139   2.636   5.934   0.339 -0.4570 -0.0350  0.2556
 2527TIP3    H129140   2.673   5.846   0.339  1.7422  0.7446  3.0343
 2527TIP3    H229141   2.544   5.921   0.364 -0.1824 -1.5331  0.5714
 2528TIP3   OH229142   4.594   4.529   3.717  0.3789  0.6614  0.3511
 2528TIP3    H129143   4.629   4.443   3.693 -1.1874 -0.5739  2.1961
 2528TIP3    H229144   4.670   4.587   3.715  1.3512 -0.5765 -1.6325
 2529TIP3   OH229145   1.898   6.392   1.408  0.5549 -0.4403 -0.0055
 2529TIP3    H129146   1.839   6.432   1.472  0.8108  0.6211 -0.4152
 2529TIP3    H229147   1.978   6.373   1.457  0.2765 -0.8581  0.2921
 2530TIP3   OH229148   6.691   0.140   0.553 -0.0350 -0.7391  0.3595
 2530TIP3    H129149   6.762   0.081   0.526 -0.3283 -0.4555 -1.1269
 2530TIP3    H229150   6.732   0.201   0.614  1.3235  0.1126 -1.3105
 2531TIP3   OH229151   1.073   1.708   0.711  0.5372 -0.6561  0.2103
 2531TIP3    H129152   1.026   1.687   0.630 -0.1699 -0.9589  0.6833
 2531TIP3    H229153   1.103   1.798   0.700 -0.3523 -0.3826 -0.0260
 2532TIP3   OH229154   0.957   4.736   1.593 -0.4160 -0.2364 -0.2563
 2532TIP3    H129155   0.983   4.650   1.626  2.0305  0.2092 -0.8079
 2532TIP3    H229156   1.025   4.795   1.625 -1.2492  1.2527 -1.1149
 2533TIP3   OH229157   1.339   3.364   0.134 -0.0844  0.6804  0.2104
 2533TIP3    H129158   1.348   3.367   0.229  0.6345 -0.0081  0.1812
 2533TIP3    H229159   1.338   3.270   0.113  0.4242  0.8210 -0.5054
 2534TIP3   OH229160   3.762   1.275   3.093 -0.0027 -0.0321  0.0533
 2534TIP3    H129161   3.802   1.287   3.179 -0.8183  1.9257  0.2230
 2534TIP3    H229162   3.811   1.204   3.052  1.9067  0.5352  1.2527
 2535TIP3   OH229163   5.773   0.925   8.604  0.2077 -0.1692 -0.0964
 2535TIP3    H129164   5.772   0.833   8.631  0.7327 -0.3510 -0.6531
 2535TIP3    H229165   5.822   0.970   8.673 -1.8416  0.0797  1.2686
 2536TIP3   OH229166   3.666   2.231   2.225 -0.0347  0.0016  0.3045
 2536TIP3    H129167   3.685   2.219   2.132  0.4002 -0.5650  0.4557
 2536TIP3    H229168   3.711   2.312   2.249  0.0815  0.0043  0.0806
 2537TIP3   OH229169   5.148   5.976   3.461 -0.4605  0.2105  0.1460
 2537TIP3    H129170   5.123   5.927   3.539  0.3647  0.3898  0.5377
 2537TIP3    H229171   5.152   6.067   3.490  0.7221  0.1761  0.1398
 2538TIP3   OH229172   2.437   2.177   2.139  0.6681 -0.1499  0.1088
 2538TIP3    H129173   2.520   2.185   2.092 -0.1230  0.8168 -1.2045
 2538TIP3    H229174   2.426   2.083   2.154  1.5185 -0.3731 -0.5915
 2539TIP3   OH229175   1.587   5.959   2.721 -0.1216 -0.3959  0.7470
 2539TIP3    H129176   1.523   5.974   2.790 -0.1975  1.6547  0.2838
 2539TIP3    H229177   1.553   6.008   2.646 -0.4441 -3.1494 -1.0655
 2540TIP3   OH229178   5.744   2.534   1.542  0.2046 -0.3923  0.2599
 2540TIP3    H129179   5.832   2.559   1.514  0.4026 -1.2363  0.1265
 2540TIP3    H229180   5.756   2.497   1.630  0.1135 -1.3777 -0.1378
 2541TIP3   OH229181   3.420   5.936   0.979  0.2066 -0.0973 -0.2286
 2541TIP3    H129182   3.340   5.884   0.992  0.0408  0.5823  1.7564
 2541TIP3    H229183   3.389   6.026   0.975  0.8604  0.1598  0.4297
 2542TIP3   OH229184   0.730   5.737   1.681 -0.1674 -0.0084  0.2190
 2542TIP3    H129185   0.770   5.710   1.763 -0.7253 -2.0348 -0.1237
 2542TIP3    H229186   0.804   5.761   1.625  0.2822  0.3255  0.9403
 2543TIP3   OH229187   1.221   1.871   1.612 -0.1780  0.1347  0.0356
 2543TIP3    H129188   1.242   1.785   1.577  1.5492  0.0559  1.1721
 2543TIP3    H229189   1.125   1.870   1.622 -0.3973 -0.9423 -1.6647
 2544TIP3   OH229190   4.187   2.885   0.981  0.6423 -0.1522 -0.1170
 2544TIP3    H129191   4.273   2.843   0.980  1.2224  1.0050 -0.2269
 2544TIP3    H229192   4.187   2.941   0.903  0.1609  0.5622  0.3852
 2545TIP3   OH229193   6.728   0.469   8.076  0.1242 -0.1610  0.0299
 2545TIP3    H129194   6.720   0.564   8.065  0.2046 -0.1291  0.2274
 2545TIP3    H229195   6.776   0.459   8.159  0.4225 -0.3693 -0.1674
 2546TIP3   OH229196   5.144   3.130   7.931 -0.1382 -0.1661 -0.0134
 2546TIP3    H129197   5.198   3.057   7.902 -0.8825 -1.5549  1.9205
 2546TIP3    H229198   5.054   3.097   7.928 -0.4336  0.4020  1.4981
 2547TIP3   OH229199   0.545   5.327   0.124  0.0263  0.2646 -0.1322
 2547TIP3    H129200   0.460   5.332   0.168 -0.6003 -1.9222 -0.9222
 2547TIP3    H229201   0.524   5.296   0.035  1.6379 -0.4843 -0.2878
 2548TIP3   OH229202   1.965   2.542   0.532  0.0854 -0.1519  0.3448
 2548TIP3    H129203   1.957   2.637   0.537 -1.2510 -0.2047 -0.1616
 2548TIP3    H229204   2.059   2.525   0.533  0.3508  0.9758  3.4060
 2549TIP3   OH229205   5.800   2.123   1.891  0.5929 -0.0606 -0.3796
 2549TIP3    H129206   5.800   2.198   1.832 -2.9064 -1.2455 -2.1985
 2549TIP3    H229207   5.878   2.073   1.867  1.4536  1.5454 -1.0691
 2550TIP3   OH229208   6.046   1.706   0.958  0.5690  0.0650 -0.2796
 2550TIP3    H129209   6.068   1.776   1.019  0.9404  0.4061 -0.8027
 2550TIP3    H229210   6.129   1.661   0.942  0.4844  0.0127 -0.5782
 2551TIP3   OH229211   0.247   4.695   2.198 -0.1108  0.5178  0.2444
 2551TIP3    H129212   0.314   4.627   2.208  0.9886  1.5567  0.2407
 2551TIP3    H229213   0.204   4.675   2.115 -0.4439 -0.6945  0.6887
 2552TIP3   OH229214   5.208   1.679   2.228 -1.0585 -0.4218 -0.1695
 2552TIP3    H129215   5.155   1.756   2.248  1.3208  1.5120 -0.8229
 2552TIP3    H229216   5.258   1.662   2.308  0.5772  0.6316 -0.9084
 2553TIP3   OH229217   1.804   2.216   2.215 -0.3629  0.0762 -0.1374
 2553TIP3    H129218   1.871   2.243   2.153 -2.0328  0.3733 -1.9080
 2553TIP3    H229219   1.761   2.141   2.174 -0.6393 -0.5981  1.3065
 2554TIP3   OH229220   6.573   6.021   2.992 -0.4774  0.2479 -0.2524
 2554TIP3    H129221   6.635   6.073   2.941  1.9567 -1.7676  0.4314
 2554TIP3    H229222   6.596   6.039   3.083 -2.2591  0.9309  0.0997
 2555TIP3   OH229223   3.361   1.421   2.919  0.1436 -0.1746 -0.5090
 2555TIP3    H129224   3.385   1.506   2.958  3.3166 -0.5062 -1.4480
 2555TIP3    H229225   3.340   1.441   2.828  0.6126 -0.3228 -0.6556
 2556TIP3   OH229226   1.448   0.730   8.342  0.6725  0.0307  0.4295
 2556TIP3    H129227   1.379   0.768   8.288  1.4137  1.0934  0.2006
 2556TIP3    H229228   1.489   0.664   8.285  0.1887 -0.2485  0.3950
 2557TIP3   OH229229   3.220   2.733   2.801 -0.4557 -0.8663 -0.0377
 2557TIP3    H129230   3.143   2.676   2.795 -0.3510 -0.8101 -2.6453
 2557TIP3    H229231   3.292   2.680   2.766  0.7860 -0.8968  2.3049
 2558TIP3   OH229232   6.035   0.893   0.757  0.0674 -0.1283 -0.3204
 2558TIP3    H129233   6.085   0.824   0.801  0.6956  0.8815  0.6073
 2558TIP3    H229234   6.043   0.968   0.815 -2.0935  0.2352 -0.4376
 2559TIP3   OH229235   5.724   1.445   2.642  0.4601  0.9661  0.2467
 2559TIP3    H129236   5.805   1.496   2.638  0.8651  0.2805 -0.4454
 2559TIP3    H229237   5.712   1.427   2.736  1.3797  0.6405  0.3115
 2560TIP3   OH229238   0.993   6.330   0.745 -0.0183 -0.0725  0.0196
 2560TIP3    H129239   0.937   6.306   0.819  1.2047 -0.1827  0.9458
 2560TIP3    H229240   1.082   6.311   0.775  0.5892  0.8132 -1.1251
 2561TIP3   OH229241   0.865   1.508   3.720 -0.8216  0.7372 -0.2658
 2561TIP3    H129242   0.863   1.589   3.771 -0.2795  0.8280 -0.3856
 2561TIP3    H229243   0.893   1.535   3.633  1.2523  0.1853  0.1718
 2562TIP3   OH229244   5.822   2.709   2.234  0.0166 -0.0624  0.0953
 2562TIP3    H129245   5.853   2.624   2.203  1.3742  0.0781  1.0021
 2562TIP3    H229246   5.794   2.754   2.154 -1.1571 -1.4847 -0.3560
 2563TIP3   OH229247   1.965   1.214   1.720  0.1864  0.5686  0.3223
 2563TIP3    H129248   1.885   1.216   1.772  0.0736 -0.4140  0.2033
 2563TIP3    H229249   2.027   1.166   1.775 -0.2898 -1.5727 -0.9007
 2564TIP3   OH229250   6.786   5.968   1.243 -0.3182  0.0208 -0.0330
 2564TIP3    H129251   6.863   5.912   1.238  0.8499  1.5967 -0.4691
 2564TIP3    H229252   6.753   5.956   1.332 -0.4134 -1.7047 -0.2681
 2565TIP3   OH229253   5.198   5.624   1.380 -0.2422 -0.0162  0.1350
 2565TIP3    H129254   5.202   5.702   1.326  0.3478 -0.4643 -0.4795
 2565TIP3    H229255   5.249   5.646   1.458 -1.2968  0.7150  0.6507
 2566TIP3   OH229256   4.182   3.696   0.755 -0.1573  0.3809  0.0914
 2566TIP3    H129257   4.207   3.649   0.835 -1.2002 -1.0260 -0.3822
 2566TIP3    H229258   4.263   3.702   0.704  0.7960  2.2742  1.6825
 2567TIP3   OH229259   1.428   3.708   1.676  0.6799  0.3515  0.2208
 2567TIP3    H129260   1.333   3.722   1.679  0.5612  0.1379 -1.3125
 2567TIP3    H229261   1.456   3.708   1.767 -1.2031 -2.3799  0.9315
 2568TIP3   OH229262   2.513   2.124   0.638 -0.0753 -0.1869  0.2665
 2568TIP3    H129263   2.441   2.061   0.637  0.2145 -0.5356  0.5735
 2568TIP3    H229264   2.591   2.070   0.653  0.0011  0.3967  2.3759
 2569TIP3   OH229265   6.474   3.051   1.910 -0.0068 -0.4659 -0.6592
 2569TIP3    H129266   6.485   3.109   1.834 -2.7126 -1.1083 -1.6540
 2569TIP3    H229267   6.436   3.107   1.978  1.5585 -0.1102 -0.0249
 2570TIP3   OH229268   2.768   3.092   4.056  0.2519  0.6725  0.2988
 2570TIP3    H129269   2.752   3.169   4.001 -0.2763  0.3347 -0.0332
 2570TIP3    H229270   2.686   3.043   4.051  0.7290 -0.1233  0.1645
 2571TIP3   OH229271   2.628   5.715   2.255  0.5086 -0.4660 -0.0266
 2571TIP3    H129272   2.723   5.708   2.246  0.4062 -2.1240 -0.2502
 2571TIP3    H229273   2.593   5.651   2.192 -0.8054  0.9321 -0.7844
 2572TIP3   OH229274   0.986   0.786   3.529  0.3006  0.4040  0.5291
 2572TIP3    H129275   0.992   0.794   3.624 -0.1630 -0.1958  0.6112
 2572TIP3    H229276   0.929   0.711   3.514  2.1349 -0.9327 -0.2126
 2573TIP3   OH229277   2.427   5.432   7.837 -0.2072  0.6465 -0.2264
 2573TIP3    H129278   2.337   5.455   7.813  0.0259 -0.5027 -2.4597
 2573TIP3    H229279   2.482   5.475   7.772  0.8733  1.0802  0.9212
 2574TIP3   OH229280   2.834   3.576   2.058 -0.2264  0.0540  0.4573
 2574TIP3    H129281   2.920   3.534   2.067 -0.3182 -0.2255  0.0356
 2574TIP3    H229282   2.772   3.503   2.060 -0.2996 -0.0364 -1.9406
 2575TIP3   OH229283   2.362   1.557   3.904  0.5284 -1.0214  0.4722
 2575TIP3    H129284   2.382   1.650   3.915  1.3409 -1.3266  1.9010
 2575TIP3    H229285   2.448   1.514   3.902  0.3071 -1.5749 -2.7196
 2576TIP3   OH229286   5.137   6.364   1.579 -0.3660  0.3391  0.6591
 2576TIP3    H129287   5.142   6.426   1.506  0.5125 -0.9141 -0.3826
 2576TIP3    H229288   5.218   6.376   1.628 -0.7609  0.8760  1.1975
 2577TIP3   OH229289   2.967   3.329   0.110 -0.0920 -0.3740  0.4182
 2577TIP3    H129290   3.042   3.388   0.113  1.1319 -1.6056 -2.1142
 2577TIP3    H229291   3.004   3.243   0.134 -0.3494 -1.1864 -1.8273
 2578TIP3   OH229292   5.488   6.119   2.862  0.2668 -0.3572  0.0106
 2578TIP3    H129293   5.511   6.183   2.929  0.3437  0.3190 -0.6500
 2578TIP3    H229294   5.494   6.034   2.907  0.5409  0.0656  0.7918
 2579TIP3   OH229295   2.572   0.638   2.202  0.0629 -0.2894  0.3242
 2579TIP3    H129296   2.638   0.573   2.228  1.4784  0.2273 -1.6632
 2579TIP3    H229297   2.548   0.613   2.113 -0.0502  1.3451 -0.1436
 2580TIP3   OH229298   4.821   3.526   0.926  0.5727  0.2029 -0.8139
 2580TIP3    H129299   4.810   3.588   0.854  0.6809 -0.5789 -1.5090
 2580TIP3    H229300   4.897   3.473   0.901  2.5981  1.8787  1.2768
 2581TIP3   OH229301   0.769   6.430   3.784 -0.5053 -0.0661  0.5882
 2581TIP3    H129302   0.725   6.387   3.711 -0.3809 -0.1773  0.5770
 2581TIP3    H229303   0.699   6.459   3.842 -0.5574 -1.9648  1.5662
 2582TIP3   OH229304   1.018   2.560   2.321 -0.0944 -0.1217  0.4287
 2582TIP3    H129305   1.016   2.467   2.296  1.7241  0.0879 -0.6838
 2582TIP3    H229306   1.022   2.559   2.417  0.3202 -1.2078  0.4107
 2583TIP3   OH229307   2.603   3.160   1.498 -0.3690 -0.5908 -0.2752
 2583TIP3    H129308   2.577   3.090   1.438  0.4838  0.3350 -1.8038
 2583TIP3    H229309   2.538   3.229   1.485 -0.4690 -0.5763  0.2589
 2584TIP3   OH229310   2.102   6.060   1.236 -0.0519 -0.1114 -0.4695
 2584TIP3    H129311   2.193   6.061   1.266 -0.6638  1.0108  1.5660
 2584TIP3    H229312   2.109   6.059   1.140  2.0512 -2.4023 -0.3946
 2585TIP3   OH229313   4.466   0.101   1.699 -0.1554  0.0318  0.1862
 2585TIP3    H129314   4.533   0.123   1.634  0.5335  0.1704  0.9388
 2585TIP3    H229315   4.383   0.126   1.657  0.4378  2.2596  0.2407
 2586TIP3   OH229316   1.302   5.798   2.682 -0.1124 -0.0696 -0.4113
 2586TIP3    H129317   1.391   5.765   2.698 -0.7496 -1.9329 -0.4940
 2586TIP3    H229318   1.313   5.893   2.676  1.3738  0.1584  3.1767
 2587TIP3   OH229319   3.509   3.188   3.852 -0.1968 -0.3482  0.3788
 2587TIP3    H129320   3.572   3.222   3.916 -2.2921  2.0036  1.3531
 2587TIP3    H229321   3.447   3.137   3.903 -1.0674  0.3108 -0.0066
 2588TIP3   OH229322   3.260   4.869   1.442 -0.4329  0.3169 -0.2052
 2588TIP3    H129323   3.348   4.903   1.460 -0.7243  0.5518  0.8839
 2588TIP3    H229324   3.205   4.947   1.431 -0.3207  0.1827 -2.0417
 2589TIP3   OH229325   6.100   2.918   2.777 -0.4295  0.0747  0.2722
 2589TIP3    H129326   6.122   2.974   2.851 -0.3690 -0.1814  0.4497
 2589TIP3    H229327   6.167   2.936   2.711 -2.2717  2.7430 -1.0640
 2590TIP3   OH229328   2.685   3.059   2.459 -0.2021 -0.4445  0.3806
 2590TIP3    H129329   2.596   3.086   2.437 -0.0238  0.6639  0.9532
 2590TIP3    H229330   2.739   3.096   2.388  0.0952  1.1750  1.3923
 2591TIP3   OH229331   1.025   5.284   2.310  0.5807 -0.2950 -0.6899
 2591TIP3    H129332   1.069   5.312   2.390  0.2379 -0.7424 -0.3390
 2591TIP3    H229333   0.966   5.356   2.288 -1.2784 -1.2258  0.9430
 2592TIP3   OH229334   1.682   5.509   0.374  0.2003 -0.2076 -0.3445
 2592TIP3    H129335   1.757   5.559   0.342  1.3146 -1.4100  0.3135
 2592TIP3    H229336   1.635   5.571   0.431  2.3074 -0.2520  1.5649
 2593TIP3   OH229337   1.349   0.064   0.281 -0.9334  0.3682  0.3501
 2593TIP3    H129338   1.352  -0.012   0.222 -0.9751  0.6439 -0.0117
 2593TIP3    H229339   1.314   0.029   0.363  2.3769 -0.8353  1.4287
 2594TIP3   OH229340   1.457   1.469   1.910  0.5644  0.1543  0.3451
 2594TIP3    H129341   1.507   1.412   1.969  1.2118  0.3005 -0.0554
 2594TIP3    H229342   1.372   1.426   1.902  0.4005  0.2195  1.5218
 2595TIP3   OH229343   4.865   2.967   2.346  0.5775  1.0078 -0.0998
 2595TIP3    H129344   4.824   2.904   2.405  1.8406 -0.3462 -0.6034
 2595TIP3    H229345   4.801   2.981   2.276  0.2554  0.3249  0.0597
 2596TIP3   OH229346   6.779   5.042   1.432 -0.6197 -0.0039  0.4178
 2596TIP3    H129347   6.746   5.039   1.342 -0.2224  1.9189  0.1614
 2596TIP3    H229348   6.772   5.134   1.457  0.5109 -0.2810  1.8972
 2597TIP3   OH229349   1.729   2.971   0.148  0.3462 -0.0023  0.9124
 2597TIP3    H129350   1.704   2.924   0.069  0.5439 -1.4490  1.6855
 2597TIP3    H229351   1.780   3.046   0.115 -0.3153 -0.0804 -0.3582
 2598TIP3   OH229352   2.109   0.009   3.632  0.5557  0.4997 -0.6244
 2598TIP3    H129353   2.051   0.084   3.621  0.2892  0.4419  0.2859
 2598TIP3    H229354   2.147   0.021   3.719 -0.4298 -1.0489  0.0660
 2599TIP3   OH229355   6.185   3.073   2.292 -0.0737 -0.1096 -0.1695
 2599TIP3    H129356   6.180   3.137   2.363  0.8930  1.2059 -1.2259
 2599TIP3    H229357   6.118   3.008   2.313 -1.1024  1.2521  0.9599
 2600TIP3   OH229358   1.108   3.474   2.899  0.2033 -0.2249  0.2231
 2600TIP3    H129359   1.190   3.447   2.940 -0.1110  1.4476  2.0989
 2600TIP3    H229360   1.127   3.559   2.859 -0.0000 -0.9809 -1.5798
 2601TIP3   OH229361   5.450   4.398   7.856 -0.1175 -0.6576  0.2914
 2601TIP3    H129362   5.531   4.415   7.807  0.5944  0.2396  1.7160
 2601TIP3    H229363   5.409   4.484   7.864 -0.1358 -0.7569  1.3767
 2602TIP3   OH229364   6.178   4.914   0.147 -0.1412 -0.0051 -0.1943
 2602TIP3    H129365   6.162   4.860   0.070  0.7644 -0.8661  0.2040
 2602TIP3    H229366   6.124   4.992   0.133  0.8968  0.4036 -2.2540
 2603TIP3   OH229367   2.977   5.565   1.148 -0.2655 -0.3649 -0.4545
 2603TIP3    H129368   2.974   5.519   1.232  0.8371  1.4248  0.6036
 2603TIP3    H229369   2.888   5.556   1.113 -0.7414 -1.1307  0.8941
 2604TIP3   OH229370   0.897   0.638   1.060 -0.3498  0.2865  0.3872
 2604TIP3    H129371   0.869   0.730   1.066 -1.1902  0.1113 -0.6116
 2604TIP3    H229372   0.980   0.642   1.013 -0.2221  0.5590  0.6307
 2605TIP3   OH229373   6.318   5.403   1.988 -0.0711  0.0673  0.4495
 2605TIP3    H129374   6.405   5.440   1.978 -0.6073  2.2193  2.8440
 2605TIP3    H229375   6.333   5.313   2.018  1.3320  0.4153  0.8482
 2606TIP3   OH229376   4.231   0.310   3.458  0.6006 -0.3227 -0.3886
 2606TIP3    H129377   4.295   0.300   3.387  1.7400  0.2576  0.5225
 2606TIP3    H229378   4.278   0.361   3.524 -1.1733  1.0881 -0.1610
 2607TIP3   OH229379   2.619   6.616   1.687  0.2475  0.4939 -0.2405
 2607TIP3    H129380   2.618   6.526   1.656  0.8271 -0.1534  1.4933
 2607TIP3    H229381   2.669   6.664   1.621  0.1879 -0.4994 -1.0310
 2608TIP3   OH229382   6.060   3.233   1.012  0.0044 -0.5463 -0.2397
 2608TIP3    H129383   6.018   3.318   0.998 -1.5912 -1.2434  0.1025
 2608TIP3    H229384   6.089   3.205   0.925  0.6820  0.3856 -0.3359
 2609TIP3   OH229385   2.418   3.975   3.568  0.1335 -0.4755  0.3062
 2609TIP3    H129386   2.342   3.919   3.554 -0.7803  0.9533 -0.8345
 2609TIP3    H229387   2.465   3.973   3.485  0.5217 -0.1843  0.5162
 2610TIP3   OH229388   2.483   1.559   8.531 -0.2656 -0.7276  0.7809
 2610TIP3    H129389   2.407   1.601   8.491  1.6852 -0.2610 -2.8922
 2610TIP3    H229390   2.520   1.627   8.588 -1.5522 -0.3224  1.1544
 2611TIP3   OH229391   4.730   5.492   3.132  0.0695  0.2636  0.2713
 2611TIP3    H129392   4.706   5.560   3.194 -0.0154  0.0300  0.4967
 2611TIP3    H229393   4.789   5.434   3.181 -0.1135 -0.0027  0.1780
 2612TIP3   OH229394   6.673   1.293   2.207  0.0490 -0.2264 -0.7190
 2612TIP3    H129395   6.722   1.365   2.167  1.1440  0.2017  1.2880
 2612TIP3    H229396   6.607   1.336   2.262  0.8919 -0.7024  0.7118
 2613TIP3   OH229397   4.592   2.964   2.481 -0.1932  0.4367  0.2524
 2613TIP3    H129398   4.507   2.968   2.436 -0.4334 -0.5095  0.5922
 2613TIP3    H229399   4.604   2.871   2.501  0.4647  0.6911  1.0964
 2614TIP3   OH229400   5.480   1.921   0.315  0.8214  0.2806  0.1776
 2614TIP3    H129401   5.525   2.002   0.339  2.0827  0.3226 -2.0836
 2614TIP3    H229402   5.397   1.950   0.278  1.3053  0.5712 -0.7027
 2615TIP3   OH229403   3.108   1.093   0.720  0.4722 -0.0869  0.7677
 2615TIP3    H129404   3.093   1.024   0.784 -1.3008 -0.1288  0.3516
 2615TIP3    H229405   3.133   1.170   0.772 -1.7760  0.1128  1.6333
 2616TIP3   OH229406   4.621   4.151   8.523  0.0507  0.5755 -0.1206
 2616TIP3    H129407   4.539   4.101   8.514  0.5974  0.0127 -2.5399
 2616TIP3    H229408   4.592   4.237   8.554 -1.3183 -0.0011  0.3083
 2617TIP3   OH229409   6.346   2.029   2.573 -0.3125 -0.9849  0.5407
 2617TIP3    H129410   6.330   1.986   2.657 -1.2583  0.8135  1.3217
 2617TIP3    H229411   6.409   2.098   2.592  1.3822 -2.1063 -0.7519
 2618TIP3   OH229412   5.331   4.551   8.126 -0.3805 -0.1501 -0.2487
 2618TIP3    H129413   5.344   4.607   8.049 -0.3289 -0.5551 -0.5347
 2618TIP3    H229414   5.403   4.575   8.185 -0.3134  0.0323 -0.4030
 2619TIP3   OH229415   1.478   3.870   0.902  0.2601  0.5057 -0.0502
 2619TIP3    H129416   1.482   3.781   0.937 -1.4202  0.6290  0.5476
 2619TIP3    H229417   1.428   3.862   0.821  4.5037  0.1519 -2.9736
 2620TIP3   OH229418   0.911   1.566   0.513 -0.2558 -1.2218 -0.7700
 2620TIP3    H129419   0.859   1.549   0.592  0.3254  0.5023  0.0499
 2620TIP3    H229420   0.846   1.584   0.445 -0.8037  0.9164  0.2450
 2621TIP3   OH229421   2.262   0.776   3.736  0.3622  0.2979  0.3634
 2621TIP3    H129422   2.265   0.833   3.813  0.7003  0.7619  0.0178
 2621TIP3    H229423   2.344   0.794   3.690  0.9892 -1.2831  0.8077
 2622TIP3   OH229424   0.482   2.329   0.528  0.2529 -0.1498  0.0192
 2622TIP3    H129425   0.514   2.275   0.456  1.0701  0.9630 -0.4863
 2622TIP3    H229426   0.445   2.267   0.591 -1.8687 -1.1061 -1.9979
 2623TIP3   OH229427   1.540   3.049   4.304  0.5178  0.4669 -0.1749
 2623TIP3    H129428   1.595   3.108   4.253 -0.7604  0.0335 -2.1599
 2623TIP3    H229429   1.478   3.013   4.240  0.8081 -2.4980  1.0463
 2624TIP3   OH229430   0.492   5.008   2.264 -0.1143  0.1432 -0.0679
 2624TIP3    H129431   0.474   4.948   2.192 -0.0791  0.5304 -0.4031
 2624TIP3    H229432   0.408   5.049   2.283 -0.1575 -0.0821  0.2228
 2625TIP3   OH229433   3.302   6.426   3.641  0.4185  0.6243  0.3215
 2625TIP3    H129434   3.223   6.480   3.635  0.3395  0.3772 -1.2389
 2625TIP3    H229435   3.270   6.337   3.655  0.5399  0.8547  2.4928
 2626TIP3   OH229436   4.196   1.806   2.215 -0.1444 -0.8355  0.5470
 2626TIP3    H129437   4.133   1.738   2.191  0.0078 -0.4581 -1.0197
 2626TIP3    H229438   4.273   1.758   2.247  0.3093 -1.4798 -1.3930
 2627TIP3   OH229439   5.426   5.513   7.594  0.7495 -0.6268 -0.4861
 2627TIP3    H129440   5.453   5.544   7.680  1.4271 -2.1767 -0.1132
 2627TIP3    H229441   5.460   5.578   7.533  1.7989 -0.4288  0.2892
 2628TIP3   OH229442   0.344   3.036   1.083 -0.3040 -0.3722  0.4188
 2628TIP3    H129443   0.363   2.990   1.166 -0.4457  0.2633  0.8108
 2628TIP3    H229444   0.356   3.129   1.105  0.7882 -0.2554 -0.5683
 2629TIP3   OH229445   5.618   4.120   8.557  0.1424 -0.1323  0.4466
 2629TIP3    H129446   5.627   4.208   8.593  1.1568  0.2208 -0.5962
 2629TIP3    H229447   5.533   4.120   8.514  0.0040  0.2367  0.7156
 2630TIP3   OH229448   0.694   6.210   2.727 -0.6342 -0.6946 -0.6565
 2630TIP3    H129449   0.640   6.134   2.749 -0.2667 -1.0812 -1.0653
 2630TIP3    H229450   0.783   6.184   2.749 -0.3343 -0.8817 -2.0296
 2631TIP3   OH229451   5.573   6.219   1.039  0.0219  0.1721 -0.1819
 2631TIP3    H129452   5.602   6.163   0.967  2.2074 -0.5452  1.1553
 2631TIP3    H229453   5.540   6.159   1.105  1.1694  0.5390  0.7461
 2632TIP3   OH229454   3.517   2.159   0.475  0.0216  0.0232  0.2672
 2632TIP3    H129455   3.442   2.196   0.430 -1.3596  1.8660  3.7087
 2632TIP3    H229456   3.592   2.185   0.422 -1.5197  0.9494 -1.5866
 2633TIP3   OH229457   6.216   4.156   1.184  0.5299  0.4375 -0.3157
 2633TIP3    H129458   6.156   4.220   1.221  0.7995  0.4647  0.0882
 2633TIP3    H229459   6.237   4.189   1.096 -3.1297 -1.5611 -2.1420
 2634TIP3   OH229460   6.482   0.432   1.987 -0.2908 -0.0559 -0.5125
 2634TIP3    H129461   6.537   0.404   1.914  0.2614  1.5158 -0.7292
 2634TIP3    H229462   6.541   0.479   2.045 -0.8143 -0.9079  0.7620
 2635TIP3   OH229463   5.251   5.818   2.442 -0.0859  0.5490  0.3582
 2635TIP3    H129464   5.231   5.909   2.420 -2.2636  0.6005  2.1078
 2635TIP3    H229465   5.341   5.820   2.472  0.0163  2.0834  0.0529
 2636TIP3   OH229466   5.503   1.786   3.384 -0.0983  0.1373 -0.2689
 2636TIP3    H129467   5.550   1.793   3.467  1.3527 -0.9036 -0.9660
 2636TIP3    H229468   5.430   1.726   3.402  0.1676 -0.0321  0.2572
 2637TIP3   OH229469   0.711   5.463   3.088  0.2959 -0.0880  0.2684
 2637TIP3    H129470   0.753   5.436   3.170  0.4484 -0.0685  0.1981
 2637TIP3    H229471   0.641   5.399   3.075 -0.8273  0.8876  1.2847
 2638TIP3   OH229472   4.909   0.374   2.514  0.7514  0.0007 -0.3673
 2638TIP3    H129473   4.831   0.367   2.459  1.7250  0.1780 -1.8201
 2638TIP3    H229474   4.910   0.293   2.565 -0.7843  0.3471  0.2747
 2639TIP3   OH229475   3.426   5.942   8.215 -0.7009  0.1067 -0.0652
 2639TIP3    H129476   3.405   5.855   8.249 -0.3241 -0.7462 -1.8673
 2639TIP3    H229477   3.341   5.983   8.197 -0.8885 -0.4225 -0.4190
 2640TIP3   OH229478   1.926   0.154   8.047  0.0048 -0.4282  0.3085
 2640TIP3    H129479   1.978   0.147   7.967 -0.2252  0.4216  0.0727
 2640TIP3    H229480   1.970   0.096   8.110  0.1623 -1.1380 -0.4385
 2641TIP3   OH229481   4.914   0.298   1.423 -0.6074 -0.4489 -0.1782
 2641TIP3    H129482   4.936   0.280   1.332 -1.6092 -1.3575 -0.2573
 2641TIP3    H229483   4.910   0.394   1.428  1.4665 -0.2869 -0.5727
 2642TIP3   OH229484   4.494   1.005   3.644  0.5465 -0.0985 -0.2024
 2642TIP3    H129485   4.448   1.078   3.603  1.1867  0.1301 -0.5286
 2642TIP3    H229486   4.475   1.014   3.738  3.3078  2.5316  0.2680
 2643TIP3   OH229487   3.705   5.888   1.859  0.3268 -0.4354  0.5479
 2643TIP3    H129488   3.670   5.837   1.932  1.0542  0.2716  1.4241
 2643TIP3    H229489   3.643   5.961   1.849 -1.0772 -1.7825 -1.1394
 2644TIP3   OH229490   1.530   2.540   1.536  0.0571  0.1898 -0.4922
 2644TIP3    H129491   1.505   2.476   1.603  1.1459  0.5661  0.3126
 2644TIP3    H229492   1.453   2.546   1.479 -0.5438 -0.8637  0.1557
 2645TIP3   OH229493   4.525   2.080   1.054  0.6741  0.5596 -0.3376
 2645TIP3    H129494   4.572   2.158   1.023  1.1920  0.4901  0.2517
 2645TIP3    H229495   4.593   2.024   1.092  0.5129 -0.7793 -1.8949
 2646TIP3   OH229496   0.434   3.519   2.712  0.0668 -0.3116 -0.9813
 2646TIP3    H129497   0.424   3.503   2.806  0.8280 -0.3482 -0.8963
 2646TIP3    H229498   0.401   3.439   2.671 -0.8776 -0.0360 -0.7820
 2647TIP3   OH229499   0.470   6.645   8.189  0.1189 -0.0804  0.4880
 2647TIP3    H129500   0.434   6.733   8.181  2.7507  1.1294  1.0170
 2647TIP3    H229501   0.395   6.591   8.213 -1.7071  1.8519 -0.5096
 2648TIP3   OH229502   6.322   2.739   3.261  0.0590  0.8249  0.0747
 2648TIP3    H129503   6.370   2.752   3.180  2.4840 -1.2819  1.0283
 2648TIP3    H229504   6.236   2.707   3.234  0.5423  0.9392 -1.6678
 2649TIP3   OH229505   3.712   5.107   2.907  0.1188  0.5136 -0.3245
 2649TIP3    H129506   3.789   5.144   2.864 -0.7989  1.7365 -0.9544
 2649TIP3    H229507   3.713   5.145   2.995  0.6753 -0.1296 -0.0399
 2650TIP3   OH229508   1.627   2.588   8.756 -0.0917 -0.5218 -0.0518
 2650TIP3    H129509   1.614   2.607   8.849 -1.8820 -1.2176 -0.1242
 2650TIP3    H229510   1.634   2.675   8.715  3.6140 -0.1648  0.9938
 2651TIP3   OH229511   5.069   3.316   1.918 -0.0796  0.2146 -0.1909
 2651TIP3    H129512   5.158   3.281   1.906 -0.5977 -0.8086 -1.2646
 2651TIP3    H229513   5.021   3.245   1.960 -0.7084  0.2448 -0.8292
 2652TIP3   OH229514   2.159   1.196   1.361 -0.1781  0.2342  0.0436
 2652TIP3    H129515   2.075   1.153   1.378 -0.1674  0.0790 -0.2867
 2652TIP3    H229516   2.162   1.206   1.266  0.0074  0.5893  0.0849
 2653TIP3   OH229517   4.588   5.043   1.390  0.6093 -0.1095 -0.0896
 2653TIP3    H129518   4.594   5.070   1.482  1.6888 -1.5124  0.2771
 2653TIP3    H229519   4.496   5.021   1.378  0.6150 -0.7796  0.9343
 2654TIP3   OH229520   0.204   3.638   1.550 -0.5993 -0.7361  0.0723
 2654TIP3    H129521   0.264   3.576   1.592 -3.0039 -2.2040  1.5736
 2654TIP3    H229522   0.194   3.605   1.461  1.2592 -0.0658 -0.4363
 2655TIP3   OH229523   4.356   3.647   2.812 -0.3302 -0.1687  0.1633
 2655TIP3    H129524   4.412   3.618   2.740 -1.6597  1.8260 -1.8210
 2655TIP3    H229525   4.415   3.696   2.870  0.6563 -1.3274  0.1834
 2656TIP3   OH229526   5.459   0.798   1.023 -0.2011  0.1650 -0.1191
 2656TIP3    H129527   5.405   0.864   0.978 -0.0903  0.9265  0.8232
 2656TIP3    H229528   5.454   0.823   1.115 -0.3059 -1.2811  0.2807
 2657TIP3   OH229529   0.076   2.639   0.138 -0.3748 -0.2479  0.0812
 2657TIP3    H129530   0.020   2.626   0.062  0.1886 -0.9913 -0.2262
 2657TIP3    H229531   0.024   2.606   0.212 -0.4902 -0.5709 -0.1424
 2658TIP3   OH229532   0.283   0.585   2.790 -0.1794  0.3215 -0.6537
 2658TIP3    H129533   0.314   0.494   2.791  3.1288  1.1924  3.0171
 2658TIP3    H229534   0.294   0.613   2.700  1.1970 -2.2103 -1.3707
 2659TIP3   OH229535   2.361   0.350   8.283  0.1291  0.5507  0.7054
 2659TIP3    H129536   2.276   0.387   8.305  0.3950  0.7431  1.4131
 2659TIP3    H229537   2.340   0.263   8.247 -0.3556  0.5502  0.9796
 2660TIP3   OH229538   6.522   2.206   2.696  0.7109  0.1793  0.1968
 2660TIP3    H129539   6.459   2.270   2.730  0.8631  0.8828 -0.7977
 2660TIP3    H229540   6.588   2.199   2.765  1.3434  2.0529 -0.1376
 2661TIP3   OH229541   1.586   0.270   3.523  0.1835  0.0315  0.5533
 2661TIP3    H129542   1.608   0.183   3.556  1.5714 -0.7458 -2.0552
 2661TIP3    H229543   1.631   0.330   3.581  1.9170 -1.1989  0.5643
 2662TIP3   OH229544   2.326   0.165   1.686 -0.0498  0.1751  0.9860
 2662TIP3    H129545   2.323   0.127   1.598  1.4386  2.4198 -0.1363
 2662TIP3    H229546   2.419   0.171   1.706 -0.3169  1.2362  1.9880
 2663TIP3   OH229547   3.872   5.848   1.630 -0.0792 -0.5165  0.1679
 2663TIP3    H129548   3.825   5.879   1.707  3.6095  1.4041  1.8773
 2663TIP3    H229549   3.803   5.815   1.571 -3.6460  3.3250  1.7133
 2664TIP3   OH229550   4.666   1.016   0.808 -0.1279  0.6249  0.2155
 2664TIP3    H129551   4.573   1.023   0.831  0.3513  0.5932  2.2824
 2664TIP3    H229552   4.667   0.950   0.738 -1.5252 -0.4270  1.1280
 2665TIP3   OH229553   4.696   3.664   0.032  0.1059 -0.6879 -0.2795
 2665TIP3    H129554   4.637   3.658   0.107  1.4708  0.5390  0.9568
 2665TIP3    H229555   4.673   3.746  -0.011  2.2573  0.9779  1.5170
 2666TIP3   OH229556   4.777   5.901   2.154  0.1355  0.0459 -0.1172
 2666TIP3    H129557   4.696   5.951   2.166 -0.2444 -0.4601 -0.5275
 2666TIP3    H229558   4.840   5.944   2.212 -0.2039  0.9417 -0.4008
 2667TIP3   OH229559   2.427   2.018   2.802 -0.0037 -0.0763 -0.1731
 2667TIP3    H129560   2.518   2.034   2.826  0.1999 -1.6875  0.2694
 2667TIP3    H229561   2.425   1.927   2.774 -1.5630 -0.2001  0.2451
 2668TIP3   OH229562   1.291   4.037   0.222  0.0012  0.0571  0.7354
 2668TIP3    H129563   1.362   3.978   0.247  0.9324 -0.4869 -2.7277
 2668TIP3    H229564   1.334   4.107   0.174 -1.7171 -0.1274 -1.2053
 2669TIP3   OH229565   6.768   5.285   2.064 -0.3405 -0.1605  0.1138
 2669TIP3    H129566   6.856   5.306   2.094  1.0296 -2.7968 -1.7243
 2669TIP3    H229567   6.754   5.195   2.091 -2.3167  0.0305 -0.1004
 2670TIP3   OH229568   3.587   1.394   1.627  0.2031 -0.3865 -0.0265
 2670TIP3    H129569   3.641   1.390   1.548  1.3903 -0.8049  0.7792
 2670TIP3    H229570   3.637   1.345   1.692 -1.2223 -0.8944  0.7236
 2671TIP3   OH229571   1.764   2.526   0.818 -0.6923  0.3747  0.1482
 2671TIP3    H129572   1.814   2.484   0.748  0.2442  0.1265  0.9465
 2671TIP3    H229573   1.760   2.618   0.794  2.2110  0.8862  1.1810
 2672TIP3   OH229574   2.011   3.223   2.817 -0.0652 -0.2885  0.7783
 2672TIP3    H129575   2.058   3.285   2.761  1.2043 -0.6732  1.3767
 2672TIP3    H229576   1.931   3.203   2.769  0.8088 -0.3150 -0.7262
 2673TIP3   OH229577   4.700   3.772   0.562 -0.0843 -0.4359  0.2129
 2673TIP3    H129578   4.717   3.863   0.586  1.8878 -0.3404 -1.2790
 2673TIP3    H229579   4.754   3.721   0.622  0.1625 -0.5078 -0.0647
 2674TIP3   OH229580   0.943   4.109   2.608  0.3823 -0.0406  0.2237
 2674TIP3    H129581   0.924   4.167   2.534  0.2584 -0.3872 -0.0199
 2674TIP3    H229582   0.892   4.145   2.681  1.1686  0.7936  0.3633
 2675TIP3   OH229583   0.211   1.687   1.712 -0.5645 -0.5630  0.3740
 2675TIP3    H129584   0.150   1.759   1.726  1.6107  1.0554  2.3831
 2675TIP3    H229585   0.216   1.677   1.617 -0.5160  2.3510 -0.0108
 2676TIP3   OH229586   4.347   3.672   2.403 -0.7806  0.2917 -0.8175
 2676TIP3    H129587   4.424   3.651   2.455 -0.6973  0.4988 -0.8562
 2676TIP3    H229588   4.339   3.600   2.341 -0.6460  0.2452 -0.7804
 2677TIP3   OH229589   2.705   4.419   3.283  0.2661 -0.3229  0.5813
 2677TIP3    H129590   2.742   4.366   3.213  1.4858  1.5120 -0.2370
 2677TIP3    H229591   2.780   4.442   3.338  0.0681  1.6975  0.0930
 2678TIP3   OH229592   6.698   1.013   0.610 -0.0648  0.3080  0.3224
 2678TIP3    H129593   6.606   0.990   0.628 -0.0348 -0.5031 -0.4703
 2678TIP3    H229594   6.748   0.941   0.648  0.1452 -0.0429 -0.5898
 2679TIP3   OH229595   5.305   4.864   2.581 -0.6152 -0.1443 -0.4030
 2679TIP3    H129596   5.399   4.876   2.591 -0.5271  1.6646 -2.6088
 2679TIP3    H229597   5.297   4.792   2.518 -0.8682 -2.3023  1.9225
 2680TIP3   OH229598   5.070   2.947   0.081  0.0073 -0.1008 -0.3634
 2680TIP3    H129599   5.107   2.870   0.038 -1.3041 -0.3272 -1.1311
 2680TIP3    H229600   5.099   3.021   0.028 -0.2495 -0.2374 -0.6983
 2681TIP3   OH229601   2.737   2.463   3.400  0.0120  0.0080  0.3312
 2681TIP3    H129602   2.746   2.549   3.358 -1.0347  0.7249  1.4906
 2681TIP3    H229603   2.787   2.471   3.481 -1.0680 -0.0564  1.0205
 2682TIP3   OH229604   5.138   1.983   2.539  0.0904 -0.1515 -0.5769
 2682TIP3    H129605   5.185   1.973   2.622  1.1617  1.0028 -1.0098
 2682TIP3    H229606   5.203   1.963   2.472 -0.5560 -0.3247 -1.1696
 2683TIP3   OH229607   3.560   2.491   7.949 -0.2697  0.5914  0.5581
 2683TIP3    H129608   3.642   2.529   7.980 -0.2548  1.9478 -0.9925
 2683TIP3    H229609   3.501   2.565   7.942 -0.9126 -0.0093 -0.5614
 2684TIP3   OH229610   0.447   0.361   1.561  0.2567  0.0134 -0.9095
 2684TIP3    H129611   0.515   0.382   1.497  0.4842  0.7210 -0.4418
 2684TIP3    H229612   0.477   0.280   1.602  2.2156  1.6397  1.1558
 2685TIP3   OH229613   1.807   5.349   2.481  0.6874  0.0284 -0.0276
 2685TIP3    H129614   1.843   5.261   2.493  0.7241  0.0742  0.2195
 2685TIP3    H229615   1.790   5.379   2.570 -2.4521 -1.0009 -0.1744
 2686TIP3   OH229616   1.480   0.407   8.430  0.4498 -0.0504 -0.6405
 2686TIP3    H129617   1.509   0.458   8.506 -0.1348  0.2444 -0.6161
 2686TIP3    H229618   1.539   0.435   8.360  0.5759  0.1528 -0.4563
 2687TIP3   OH229619   3.369   2.742   0.314  0.0600  0.1789 -0.1897
 2687TIP3    H129620   3.427   2.808   0.351 -0.1027  0.9224 -1.2144
 2687TIP3    H229621   3.411   2.717   0.232  0.4451 -1.4764  0.4624
 2688TIP3   OH229622   5.317   5.235   3.160  0.3768  0.4229  0.0910
 2688TIP3    H129623   5.341   5.282   3.080  0.2234 -2.5289 -1.8576
 2688TIP3    H229624   5.400   5.201   3.193  0.3391  0.9441  0.7328
 2689TIP3   OH229625   0.346   3.395   8.273  0.7810 -0.0923  0.1163
 2689TIP3    H129626   0.424   3.386   8.219  1.2198  0.1823  0.6860
 2689TIP3    H229627   0.274   3.364   8.218  1.2290  0.0725 -0.5728
 2690TIP3   OH229628   5.028   1.610   3.270  0.0292  0.3662  0.1223
 2690TIP3    H129629   5.109   1.598   3.220 -0.6044 -0.2130 -0.7952
 2690TIP3    H229630   4.964   1.640   3.205 -1.0806 -1.3990  0.3360
 2691TIP3   OH229631   4.260   0.300   8.287  0.6071 -0.1924 -0.6248
 2691TIP3    H129632   4.335   0.287   8.228  1.0798  0.7301 -0.2554
 2691TIP3    H229633   4.217   0.378   8.253  0.6772  0.1374  0.0339
 2692TIP3   OH229634   3.917   6.807   3.096  0.0840  0.0140 -0.2168
 2692TIP3    H129635   3.849   6.870   3.075 -0.6662 -1.2116 -1.6129
 2692TIP3    H229636   3.957   6.841   3.176 -0.0218  2.4530 -1.1193
 2693TIP3   OH229637   2.518   6.242   3.515  0.1507  0.0877  0.3823
 2693TIP3    H129638   2.440   6.293   3.540 -0.3875 -0.4910 -0.0821
 2693TIP3    H229639   2.591   6.300   3.534 -0.4896  1.3933 -0.9344
 2694TIP3   OH229640   2.347   0.501   1.484 -0.3096  0.5139  0.1866
 2694TIP3    H129641   2.257   0.532   1.478  0.5595  3.5851  1.3362
 2694TIP3    H229642   2.379   0.533   1.568  1.3119 -2.2190  0.7386
 2695TIP3   OH229643   5.641   6.583   1.836 -0.4565 -0.4168  0.9606
 2695TIP3    H129644   5.648   6.622   1.749  0.5810 -1.0147  0.7544
 2695TIP3    H229645   5.588   6.644   1.886  0.2570  0.7250  0.3564
 2696TIP3   OH229646   6.401   3.444   2.715 -0.7148 -0.3693 -0.1681
 2696TIP3    H129647   6.403   3.521   2.657  2.0073  0.7389  1.2123
 2696TIP3    H229648   6.458   3.380   2.672 -0.9554 -0.6552 -0.0652
 2697TIP3   OH229649   4.898   1.763   8.388  0.4204 -0.3988 -0.1953
 2697TIP3    H129650   4.944   1.843   8.414  0.4147  0.2910 -2.1447
 2697TIP3    H229651   4.959   1.717   8.331  0.2637 -1.6227  0.5791
 2698TIP3   OH229652   0.626   4.245   8.150 -0.2731 -0.1195 -0.1534
 2698TIP3    H129653   0.710   4.228   8.107  0.4803  0.2083  1.1403
 2698TIP3    H229654   0.632   4.335   8.182 -1.1089 -0.1008 -0.0080
 2699TIP3   OH229655   2.909   0.225   2.418  0.8992  0.2775  0.3727
 2699TIP3    H129656   2.951   0.201   2.335  0.1710  1.0775 -0.2551
 2699TIP3    H229657   2.912   0.145   2.470  1.9195 -0.0690 -0.1850
 2700TIP3   OH229658   5.591   1.155   0.558  0.0292 -0.4631 -0.0656
 2700TIP3    H129659   5.546   1.071   0.551  0.8488 -0.9943  0.7838
 2700TIP3    H229660   5.606   1.183   0.468  0.2181 -1.4880 -0.3592
 2701TIP3   OH229661   1.401   3.020   0.375 -0.3240 -0.1400 -0.3327
 2701TIP3    H129662   1.371   3.104   0.410 -0.5029  0.1246 -1.0906
 2701TIP3    H229663   1.339   3.000   0.305 -0.0650 -0.7225 -0.3979
 2702TIP3   OH229664   6.216   1.128   0.039 -0.0713 -0.2336  0.6928
 2702TIP3    H129665   6.280   1.147   0.108  0.0409  0.2260  0.4670
 2702TIP3    H229666   6.214   1.208  -0.014 -2.2485  0.5324  1.8061
 2703TIP3   OH229667   2.323   3.003   2.141 -0.6210  0.4192  0.6360
 2703TIP3    H129668   2.367   2.918   2.136  1.4014  1.4163  0.1984
 2703TIP3    H229669   2.248   2.995   2.083  1.2006 -0.1978 -1.7898
 2704TIP3   OH229670   5.853   4.166   0.045  0.6203 -0.6604  0.5979
 2704TIP3    H129671   5.776   4.220   0.030 -1.0695 -2.7414  1.2938
 2704TIP3    H229672   5.924   4.229   0.058 -0.7396  1.3228 -0.9232
 2705TIP3   OH229673   6.215   3.917   0.539 -0.1319  0.3021 -0.5745
 2705TIP3    H129674   6.207   3.875   0.453 -1.7197  0.0492 -0.3437
 2705TIP3    H229675   6.196   4.009   0.522  0.3799  0.4007 -0.6187
 2706TIP3   OH229676   1.207   0.914   1.391  0.3177 -0.3469 -0.4179
 2706TIP3    H129677   1.259   0.980   1.344  0.3766 -0.3911 -0.4147
 2706TIP3    H229678   1.253   0.902   1.474 -0.5137  0.7154  0.2248
 2707TIP3   OH229679   0.477   0.255   8.710 -0.0414  0.2523  0.2235
 2707TIP3    H129680   0.492   0.349   8.705  1.5956  0.1117  1.6311
 2707TIP3    H229681   0.550   0.217   8.659 -0.8123 -0.2735 -0.5251
 2708TIP3   OH229682   5.879   6.130   0.760 -0.4130 -0.5091  0.1100
 2708TIP3    H129683   5.905   6.218   0.734  0.5589 -1.2203 -1.4701
 2708TIP3    H229684   5.885   6.131   0.856  2.6960  0.2773  0.0120
 2709TIP3   OH229685   5.233   2.925   1.829 -0.1786  0.0438 -0.3553
 2709TIP3    H129686   5.221   2.831   1.816 -1.4726  0.1477 -0.1070
 2709TIP3    H229687   5.206   2.964   1.746 -0.5020  0.2335 -0.1647
 2710TIP3   OH229688   3.675   1.680   1.291  0.0443 -0.0876  0.0271
 2710TIP3    H129689   3.745   1.678   1.225 -0.3550  0.8469 -0.4357
 2710TIP3    H229690   3.716   1.716   1.369  1.0338 -2.9280  0.9589
 2711TIP3   OH229691   1.886   6.030   1.420 -0.1807 -0.0748  0.2813
 2711TIP3    H129692   1.907   6.000   1.508 -1.0895 -0.4340  0.3918
 2711TIP3    H229693   1.965   6.015   1.369  0.0538 -0.7101  0.8312
 2712TIP3   OH229694   0.867   3.493   0.235 -0.4730  0.5375  0.2319
 2712TIP3    H129695   0.795   3.520   0.291 -1.2320  1.9494 -1.3391
 2712TIP3    H229696   0.881   3.567   0.176  2.0396  0.1536  0.2525
 2713TIP3   OH229697   5.681   4.742   8.476  0.1056  1.0374 -0.1483
 2713TIP3    H129698   5.752   4.684   8.503 -1.0862  0.8486  3.0380
 2713TIP3    H229699   5.680   4.812   8.541 -3.0080  0.6089  0.4675
 2714TIP3   OH229700   6.060   2.728   1.982  0.4212  0.2630  0.3168
 2714TIP3    H129701   6.106   2.645   1.992  0.6502  0.3094 -0.2955
 2714TIP3    H229702   6.118   2.781   1.927 -0.1593  0.4723 -0.1047
 2715TIP3   OH229703   5.370   5.860   1.965  0.0063  0.1740 -0.4596
 2715TIP3    H129704   5.340   5.812   2.042 -0.5752 -0.0768 -0.8367
 2715TIP3    H229705   5.294   5.861   1.906  0.4843  0.2466 -1.0852
 2716TIP3   OH229706   4.302   6.322   0.918 -0.8428  0.2948  0.1170
 2716TIP3    H129707   4.257   6.241   0.896  1.0381 -0.5256 -0.9019
 2716TIP3    H229708   4.308   6.369   0.835 -0.5551  0.7739  0.4043
 2717TIP3   OH229709   5.244   1.762   1.385  0.4199  0.5868 -0.1096
 2717TIP3    H129710   5.269   1.689   1.442 -3.4273 -1.5601 -0.8732
 2717TIP3    H229711   5.204   1.825   1.445 -0.5549 -0.1355  0.0241
 2718TIP3   OH229712   3.538   0.261   2.164  0.0938  0.5031  0.0050
 2718TIP3    H129713   3.550   0.302   2.078 -2.0042  0.5353 -0.3127
 2718TIP3    H229714   3.447   0.232   2.165  0.4027 -0.5607  1.7836
 2719TIP3   OH229715   0.414   1.803   2.265  0.2738  0.0618 -0.0595
 2719TIP3    H129716   0.443   1.765   2.182 -1.6362 -1.5248 -0.0710
 2719TIP3    H229717   0.452   1.747   2.333  1.9197  1.4184  0.1902
 2720TIP3   OH229718   0.288   3.505   3.760 -1.0200 -0.3683  0.0994
 2720TIP3    H129719   0.283   3.445   3.834 -1.3749  1.6806  1.8340
 2720TIP3    H229720   0.293   3.449   3.683  2.1440 -2.6726  1.7617
 2721TIP3   OH229721   4.135   5.947   1.733  0.1233  0.8661  0.1727
 2721TIP3    H129722   4.092   5.963   1.816  1.2026  1.5508  0.6279
 2721TIP3    H229723   4.065   5.918   1.674 -0.7582  0.9879  1.1366
 2722TIP3   OH229724   6.451   1.887   3.888 -0.0911  0.1643 -0.0221
 2722TIP3    H129725   6.404   1.948   3.830 -0.6464 -0.6870 -0.4836
 2722TIP3    H229726   6.418   1.801   3.863  0.3906 -0.2934  0.9068
 2723TIP3   OH229727   3.414   0.541   1.814  0.2248 -0.1309 -0.5727
 2723TIP3    H129728   3.357   0.532   1.738 -0.1753 -1.6641 -0.1263
 2723TIP3    H229729   3.360   0.585   1.879 -0.1817 -0.8243 -0.4333
 2724TIP3   OH229730   3.029   4.192   1.054 -0.5317 -0.0276 -0.0485
 2724TIP3    H129731   3.072   4.132   0.994  0.3999 -0.4422  0.9997
 2724TIP3    H229732   3.100   4.232   1.104 -1.2853 -0.0036  1.0528
 2725TIP3   OH229733   2.703   0.313   8.268  0.0940  0.2463 -0.0364
 2725TIP3    H129734   2.639   0.379   8.240  0.4289 -0.0264 -1.5465
 2725TIP3    H229735   2.786   0.344   8.233  0.6503  0.1303  1.1381
 2726TIP3   OH229736   4.332   2.846   2.650  0.3691 -0.0361  0.2742
 2726TIP3    H129737   4.401   2.779   2.654  1.1641  0.7300 -0.4033
 2726TIP3    H229738   4.350   2.895   2.570 -0.0890  1.1113  0.8489
 2727TIP3   OH229739   2.383   2.204   3.587 -0.1162 -0.1544 -0.0588
 2727TIP3    H129740   2.458   2.155   3.554  0.0680  0.4280 -0.5216
 2727TIP3    H229741   2.312   2.183   3.527  0.1665  0.7490 -0.7200
 2728TIP3   OH229742   4.983   5.596   2.949 -0.0148  0.2842 -0.5281
 2728TIP3    H129743   5.056   5.616   3.008  1.2342 -3.0853 -0.6606
 2728TIP3    H229744   4.928   5.536   2.998  0.9725 -2.4914 -2.5299
 2729TIP3   OH229745   4.098   6.112   0.820  0.7299  0.0464 -0.0155
 2729TIP3    H129746   4.077   6.052   0.892  0.6028  0.0101 -0.0823
 2729TIP3    H229747   4.180   6.079   0.784  0.7375  0.0010  0.0431
 2730TIP3   OH229748   2.539   6.376   2.164 -0.0260  0.5448 -0.0365
 2730TIP3    H129749   2.550   6.467   2.136  1.1714  0.8672  1.3588
 2730TIP3    H229750   2.492   6.334   2.092 -2.8078  2.8117  0.2635
 2731TIP3   OH229751   5.101   0.479   1.134 -0.8436  0.2164  0.3108
 2731TIP3    H129752   5.135   0.484   1.223  1.0023 -2.5649 -0.1031
 2731TIP3    H229753   5.171   0.514   1.079 -1.8068  1.5316 -0.1302
 2732TIP3   OH229754   3.771   2.348   1.268 -0.5150  0.0322 -0.4239
 2732TIP3    H129755   3.678   2.368   1.280 -0.2632  0.6728  0.5695
 2732TIP3    H229756   3.774   2.298   1.187 -1.9763 -1.7371  0.5270
 2733TIP3   OH229757   1.086   3.319   4.044 -0.0860  0.4400 -0.1340
 2733TIP3    H129758   1.017   3.300   4.107  0.4821 -0.9473  0.0847
 2733TIP3    H229759   1.039   3.332   3.961 -0.6293 -0.4121  0.0279
 2734TIP3   OH229760   4.068   6.060   3.052  0.4405  0.1428  0.0856
 2734TIP3    H129761   4.028   6.079   3.137 -0.8695  1.5205 -0.7794
 2734TIP3    H229762   4.088   6.146   3.015  0.9570 -0.4290 -1.0157
 2735TIP3   OH229763   0.609   0.992   3.783  0.0379  0.1270  0.1293
 2735TIP3    H129764   0.661   0.911   3.781  2.5741  1.6582 -0.4842
 2735TIP3    H229765   0.557   0.985   3.863  1.5027 -1.3433  1.0227
 2736TIP3   OH229766   5.285   6.576   0.101  0.3756  0.3299  0.3204
 2736TIP3    H129767   5.366   6.544   0.061 -0.9083 -0.3538 -1.9044
 2736TIP3    H229768   5.304   6.667   0.124  1.7348  0.2263 -0.2773
 2737TIP3   OH229769   6.182   1.099   0.485  0.1636 -0.0850 -0.0976
 2737TIP3    H129770   6.123   1.024   0.485 -0.8450  0.5771 -2.9185
 2737TIP3    H229771   6.253   1.075   0.426  1.4977  0.0433  1.4037
 2738TIP3   OH229772   3.971   1.402   8.532 -0.1491  0.0146  0.0603
 2738TIP3    H129773   4.050   1.404   8.478  1.5610  0.0744  2.4054
 2738TIP3    H229774   3.908   1.456   8.485  0.7537 -0.9985 -2.4787
 2739TIP3   OH229775   4.780   3.637   1.855 -0.1339 -0.0298 -0.3536
 2739TIP3    H129776   4.766   3.728   1.829  0.6398 -0.0104 -0.7436
 2739TIP3    H229777   4.693   3.604   1.875 -0.2414  1.4204  1.9407
 2740TIP3   OH229778   4.278   5.931   8.486  0.7785 -0.2170 -0.1011
 2740TIP3    H129779   4.228   5.911   8.406 -0.7355  0.6699  0.5708
 2740TIP3    H229780   4.260   5.857   8.544 -0.9399  0.7042  0.6318
 2741TIP3   OH229781   0.026   4.979   0.437 -0.1581  1.1054 -0.0453
 2741TIP3    H129782   0.096   4.957   0.375 -0.0496  1.6382 -0.1122
 2741TIP3    H229783  -0.025   4.898   0.445 -0.3568  1.1118 -1.0765
 2742TIP3   OH229784   0.426   5.930   0.004  0.8880 -0.4133  0.0368
 2742TIP3    H129785   0.373   6.008   0.019  1.2306  0.0036 -0.8828
 2742TIP3    H229786   0.458   5.939  -0.085  0.3478 -1.9715 -0.3383
 2743TIP3   OH229787   0.179   1.942   0.479 -0.2153  0.5319 -0.1602
 2743TIP3    H129788   0.132   2.002   0.421 -0.3821 -0.1238 -0.7084
 2743TIP3    H229789   0.252   1.911   0.426 -0.0693  0.3309  0.1609
 2744TIP3   OH229790   4.333   5.012   1.311 -0.0437  0.0970  0.1261
 2744TIP3    H129791   4.245   5.019   1.347  0.8875 -1.2066  2.9810
 2744TIP3    H229792   4.342   4.919   1.288  0.8924  0.0048  0.8109
 2745TIP3   OH229793   2.634   6.381   1.887 -0.6007  0.3122 -0.2885
 2745TIP3    H129794   2.598   6.470   1.893 -1.3807  0.0785 -1.3016
 2745TIP3    H229795   2.722   6.394   1.849  0.0293  0.7900  1.2556
 2746TIP3   OH229796   1.281   3.240   0.463 -0.2284 -0.0214 -0.2254
 2746TIP3    H129797   1.186   3.236   0.463 -0.3383  1.1565 -1.9548
 2746TIP3    H229798   1.301   3.334   0.461  0.9868 -0.2378  0.5664
 2747TIP3   OH229799   5.798   1.279   7.846 -0.0540 -0.1427 -0.0037
 2747TIP3    H129800   5.855   1.273   7.770 -1.1092 -0.6600 -0.7949
 2747TIP3    H229801   5.776   1.188   7.867 -0.5379  0.0389  0.3080
 2748TIP3   OH229802   2.083   3.376   0.144 -0.1987 -0.3141  0.0478
 2748TIP3    H129803   2.083   3.424   0.061  0.0360  0.5334  0.5286
 2748TIP3    H229804   2.095   3.443   0.211  0.1217 -1.0434  0.7414
 2749TIP3   OH229805   6.676   5.598   2.600  0.1024  0.1617 -0.3670
 2749TIP3    H129806   6.675   5.526   2.537  1.9973  0.4795 -0.8291
 2749TIP3    H229807   6.765   5.634   2.594  0.5848 -0.1714  2.9346
 2750TIP3   OH229808   4.129   2.361   2.354 -0.6527  0.4042 -0.5835
 2750TIP3    H129809   4.180   2.312   2.419 -0.7647  0.1453 -0.6894
 2750TIP3    H229810   4.104   2.295   2.289 -1.2042  0.5086 -0.4785
 2751TIP3   OH229811   1.365   5.837   2.057  0.0367 -0.1740  0.6593
 2751TIP3    H129812   1.320   5.754   2.073  0.5293 -0.3486  1.1684
 2751TIP3    H229813   1.359   5.849   1.962 -2.0019  0.3393  0.8142
 2752TIP3   OH229814   2.405   3.624   0.313 -0.2229  0.2528 -0.2855
 2752TIP3    H129815   2.429   3.533   0.334  1.3909  0.8956  0.8015
 2752TIP3    H229816   2.416   3.630   0.218 -1.2182 -0.9123 -0.5001
 2753TIP3   OH229817   5.269   2.543   3.644 -0.0944  0.3759 -0.1290
 2753TIP3    H129818   5.333   2.498   3.700 -0.5509  0.0590  0.1492
 2753TIP3    H229819   5.186   2.501   3.666 -0.7370  2.1561  1.0143
 2754TIP3   OH229820   4.379   4.747   0.304 -0.0636  0.3803 -0.1867
 2754TIP3    H129821   4.352   4.787   0.387 -2.6394 -1.5672  0.0124
 2754TIP3    H229822   4.452   4.690   0.328  0.4542  1.2566  0.3715
 2755TIP3   OH229823   6.110   6.119   2.284  0.4926 -0.0842  0.1368
 2755TIP3    H129824   6.089   6.156   2.199 -0.4496 -1.3795 -0.2214
 2755TIP3    H229825   6.082   6.186   2.347 -0.1834  0.2607 -0.5162
 2756TIP3   OH229826   6.808   6.335   2.862  0.0210  0.0170 -0.6932
 2756TIP3    H129827   6.734   6.351   2.921  1.1424 -0.8982  1.0367
 2756TIP3    H229828   6.876   6.396   2.891  0.3797  0.0063 -1.4774
 2757TIP3   OH229829   5.144   5.855   8.269  0.1453  0.5141  0.2688
 2757TIP3    H129830   5.063   5.884   8.228 -0.2064  0.4184  0.8879
 2757TIP3    H229831   5.213   5.896   8.216 -0.3252  2.0249  0.7602
 2758TIP3   OH229832   5.400   3.633   0.358 -0.2332  0.5540  0.0688
 2758TIP3    H129833   5.366   3.715   0.323 -1.6947 -0.3566 -0.7567
 2758TIP3    H229834   5.447   3.593   0.285 -1.5996 -0.4406 -0.2936
 2759TIP3   OH229835   1.861   0.446   1.819  0.0321  0.2822 -0.6679
 2759TIP3    H129836   1.805   0.425   1.743 -1.0928 -0.7982  0.4099
 2759TIP3    H229837   1.950   0.432   1.787 -0.3796  0.3791 -1.9472
 2760TIP3   OH229838   1.144   4.039   1.308 -0.4726  0.0714 -0.2504
 2760TIP3    H129839   1.217   4.074   1.359  0.5595 -2.8048  0.4208
 2760TIP3    H229840   1.147   3.944   1.322 -4.6317 -0.1961  0.1514
 2761TIP3   OH229841   0.252   2.836   0.921  0.3614 -0.3122  0.1214
 2761TIP3    H129842   0.236   2.746   0.948 -0.0588 -0.6332 -1.1383
 2761TIP3    H229843   0.313   2.871   0.987  0.9019 -1.6552  0.3563
 2762TIP3   OH229844   6.205   1.957   7.940 -0.9313  0.5253  0.3557
 2762TIP3    H129845   6.267   1.993   8.004 -0.6921  1.5305 -0.4259
 2762TIP3    H229846   6.251   1.961   7.856 -1.4834 -0.1787  0.0091
 2763TIP3   OH229847   2.022   5.496   0.244 -0.1465  0.6400  0.6551
 2763TIP3    H129848   1.940   5.537   0.217  0.1923  0.0096 -1.5121
 2763TIP3    H229849   2.086   5.526   0.180  0.6000 -1.3490  0.4075
 2764TIP3   OH229850   6.633   3.054   3.356  0.6589 -0.3332 -0.5876
 2764TIP3    H129851   6.631   3.104   3.275 -0.6548  0.9250  0.1776
 2764TIP3    H229852   6.543   3.025   3.369  0.8507 -0.5252  0.4138
 2765TIP3   OH229853   2.114   6.668   1.507 -0.7380 -0.5298  0.1461
 2765TIP3    H129854   2.175   6.701   1.573 -2.0777 -1.2147  1.7978
 2765TIP3    H229855   2.103   6.576   1.528 -0.1327 -1.1330 -1.9360
 2766TIP3   OH229856   0.635   0.078   0.490 -0.3053  0.1547 -1.0439
 2766TIP3    H129857   0.697   0.086   0.562 -1.5487 -2.8749  0.5587
 2766TIP3    H229858   0.579   0.156   0.497  0.5063  0.6353  0.3514
 2767TIP3   OH229859   6.530   6.807   0.190  0.1132  0.8391 -0.2161
 2767TIP3    H129860   6.446   6.808   0.144 -0.1627  0.9118  0.2796
 2767TIP3    H229861   6.543   6.715   0.215 -0.7653  1.1078  1.3835
 2768TIP3   OH229862   6.220   6.626   1.646 -0.6361  0.0848 -0.4031
 2768TIP3    H129863   6.142   6.669   1.611 -0.2922  0.6931 -0.4344
 2768TIP3    H229864   6.229   6.546   1.594 -0.9311  0.2818 -0.7593
 2769TIP3   OH229865   0.632   0.709   0.133 -0.3666  0.0375 -0.2053
 2769TIP3    H129866   0.563   0.770   0.157  0.4268  0.8720 -0.0034
 2769TIP3    H229867   0.702   0.724   0.197 -0.0821 -0.9593 -0.2573
 2770TIP3   OH229868   1.984   5.644   2.827 -0.5793 -0.0130  0.3992
 2770TIP3    H129869   2.012   5.659   2.917 -0.5989 -1.7763  0.7280
 2770TIP3    H229870   2.064   5.649   2.775 -0.4918  0.4574  0.5734
 2771TIP3   OH229871   6.678   4.839   3.748 -0.0585 -0.2281 -0.1425
 2771TIP3    H129872   6.636   4.925   3.751  0.7360  0.1718 -0.2377
 2771TIP3    H229873   6.770   4.858   3.732  0.5772 -0.9549  2.1786
 2772TIP3   OH229874   4.801   3.267   3.457  0.1529  0.5348 -0.5295
 2772TIP3    H129875   4.876   3.307   3.501  1.1713  0.2093 -1.9154
 2772TIP3    H229876   4.735   3.336   3.453  0.7861  1.1610 -0.2669
 2773TIP3   OH229877   4.169   3.386   2.324  0.1311  0.3519  0.6112
 2773TIP3    H129878   4.120   3.411   2.402 -1.5266  0.1266 -0.3108
 2773TIP3    H229879   4.136   3.299   2.302  2.2987 -0.6096  0.9823
 2774TIP3   OH229880   4.125   3.396   7.772 -0.0944  0.2391 -0.0082
 2774TIP3    H129881   4.031   3.386   7.759  0.1071  0.4467 -1.8230
 2774TIP3    H229882   4.162   3.309   7.755  0.2713  0.7350 -2.0244
 2775TIP3   OH229883   2.541   2.944   4.497 -0.3725  0.0011  0.1001
 2775TIP3    H129884   2.613   3.005   4.512  0.3548 -0.4919 -1.1754
 2775TIP3    H229885   2.502   2.973   4.414 -1.9171  0.4996  0.9817
 2776TIP3   OH229886   3.318   2.531   3.117  0.7252 -0.4323 -1.0062
 2776TIP3    H129887   3.285   2.500   3.202 -1.1937 -0.0010 -1.5348
 2776TIP3    H229888   3.262   2.606   3.096  1.2918 -0.4103 -2.5719
 2777TIP3   OH229889   4.421   4.435   7.868 -0.1578 -0.3022 -0.6029
 2777TIP3    H129890   4.384   4.372   7.929 -0.0219  0.0467 -0.1496
 2777TIP3    H229891   4.512   4.408   7.857 -0.0005  0.0217 -0.1239
 2778TIP3   OH229892   4.084   0.273   1.410  0.0625 -0.1245  0.6076
 2778TIP3    H129893   4.001   0.258   1.457 -0.2180 -0.0324  0.1411
 2778TIP3    H229894   4.076   0.361   1.375  0.8375  0.3289  1.5259
 2779TIP3   OH229895   1.086   5.888   1.697  0.2812 -0.7830  0.2514
 2779TIP3    H129896   1.063   5.795   1.688  0.3006 -0.8870  1.1682
 2779TIP3    H229897   1.069   5.908   1.789  2.4933 -0.4963  0.6653
 2780TIP3   OH229898   3.275   4.698   3.226  0.5074 -0.2051 -0.6668
 2780TIP3    H129899   3.209   4.642   3.268  1.1669 -0.5922 -0.1270
 2780TIP3    H229900   3.265   4.782   3.269  0.5312 -0.3339 -0.4064
 2781TIP3   OH229901   0.289   5.076   3.222 -0.0946  0.7086 -0.0099
 2781TIP3    H129902   0.198   5.060   3.197  0.3148 -0.3034 -0.9404
 2781TIP3    H229903   0.332   4.991   3.213  0.9692  1.1870  0.3282
 2782TIP3   OH229904   0.558   1.003   0.817 -0.0595  0.3129 -0.5841
 2782TIP3    H129905   0.555   1.083   0.870 -0.7440 -1.0423  1.5502
 2782TIP3    H229906   0.498   1.020   0.745 -0.3820  1.6272 -0.0471
 2783TIP3   OH229907   1.905   6.334   2.547  0.0602 -0.0362 -0.4143
 2783TIP3    H129908   1.873   6.345   2.637 -1.0989 -0.1669 -0.7998
 2783TIP3    H229909   1.847   6.388   2.494 -0.8824 -1.9201 -1.3939
 2784TIP3   OH229910   6.325   4.006   3.759 -0.3104 -0.1341 -0.0150
 2784TIP3    H129911   6.402   4.002   3.816 -0.2190  2.9891  0.2290
 2784TIP3    H229912   6.323   4.096   3.728 -3.2439 -0.4392 -0.9645
 2785TIP3   OH229913   0.655   5.458   7.820  0.0605 -0.7272  0.3665
 2785TIP3    H129914   0.572   5.449   7.866  0.8656 -2.6895  1.5570
 2785TIP3    H229915   0.716   5.401   7.867  1.9742  0.2334 -0.7704
 2786TIP3   OH229916   1.096   2.950   1.715  0.4643 -0.3087 -0.4675
 2786TIP3    H129917   1.162   3.002   1.669  0.6971 -0.2783 -0.0999
 2786TIP3    H229918   1.083   2.874   1.659  1.2011 -0.5752 -0.2884
 2787TIP3   OH229919   1.584   5.541   3.613 -0.0590  0.3411 -0.5945
 2787TIP3    H129920   1.537   5.469   3.657 -0.5444  0.5040 -0.8373
 2787TIP3    H229921   1.520   5.612   3.611  0.3005  0.6608 -0.6801
 2788TIP3   OH229922   0.690   5.037   0.547  0.3727 -0.0409  0.2935
 2788TIP3    H129923   0.774   5.002   0.515 -0.2312 -1.0363 -0.2426
 2788TIP3    H229924   0.668   5.106   0.484  1.2658  0.9463  1.0102
 2789TIP3   OH229925   3.955   0.896   2.006 -0.3841  0.3755 -0.3023
 2789TIP3    H129926   3.910   0.812   1.997 -2.2572  1.2714  0.1748
 2789TIP3    H229927   3.929   0.928   2.092 -0.0961  1.6715 -0.6720
 2790TIP3   OH229928   4.985   2.095   3.252  0.0471 -0.2741  0.0566
 2790TIP3    H129929   5.001   2.182   3.290  0.2860 -0.2542 -0.0830
 2790TIP3    H229930   4.893   2.078   3.268  0.1650 -0.3129  0.7490
 2791TIP3   OH229931   4.017   6.607   0.927  0.6656 -0.0120  0.2690
 2791TIP3    H129932   3.947   6.543   0.913  0.0184  0.6879  0.2341
 2791TIP3    H229933   4.032   6.606   1.021 -0.9551  1.4125  0.5889
 2792TIP3   OH229934   2.270   3.948   1.617  0.5250 -0.0411  0.2446
 2792TIP3    H129935   2.197   3.919   1.563  0.0688  0.8782  0.3569
 2792TIP3    H229936   2.238   4.026   1.662  0.9122 -0.7620  1.8131
 2793TIP3   OH229937   0.555   5.309   8.417  0.4275  0.1971 -0.3232
 2793TIP3    H129938   0.499   5.387   8.411  1.7528  1.2050  0.0519
 2793TIP3    H229939   0.639   5.337   8.382  1.1835 -0.8197  0.6275
 2794TIP3   OH229940   4.957   3.863   2.598 -0.2546  0.2325 -0.0758
 2794TIP3    H129941   4.988   3.811   2.524 -1.8326  0.2634 -0.7924
 2794TIP3    H229942   5.028   3.859   2.662  0.0608 -2.0145 -0.5026
 2795TIP3   OH229943   2.123   4.349   3.547 -0.2561  0.3491  0.3136
 2795TIP3    H129944   2.060   4.292   3.590 -0.2141 -0.6181 -0.8331
 2795TIP3    H229945   2.087   4.437   3.555 -1.1540 -0.0496  0.7031
 2796TIP3   OH229946   0.209   1.986   0.934  0.0122 -0.4928  0.5772
 2796TIP3    H129947   0.207   2.077   0.902 -0.1366 -0.6925  0.0025
 2796TIP3    H229948   0.232   1.994   1.026 -0.3459  0.1571  0.6208
 2797TIP3   OH229949   0.498   0.779   1.878  0.1256  0.0503  0.1198
 2797TIP3    H129950   0.469   0.693   1.850  2.2078 -0.7227  0.1743
 2797TIP3    H229951   0.519   0.768   1.971  3.0298 -0.2046 -0.4718
 2798TIP3   OH229952   3.324   6.497   2.343  0.7118 -0.2362  0.9287
 2798TIP3    H129953   3.418   6.490   2.327  0.6814  1.0734  0.0439
 2798TIP3    H229954   3.306   6.590   2.337 -0.5540 -0.4199  1.6676
 2799TIP3   OH229955   6.229   0.463   1.417  0.1006  0.2225 -0.5112
 2799TIP3    H129956   6.315   0.450   1.377 -0.5994 -1.2422 -1.6171
 2799TIP3    H229957   6.215   0.384   1.469 -1.3797 -0.4913 -1.9136
 2800TIP3   OH229958   5.275   4.103   8.676  0.1955  0.2774  0.2988
 2800TIP3    H129959   5.199   4.045   8.685  0.6452 -0.0566  2.7455
 2800TIP3    H229960   5.264   4.145   8.591 -2.1695 -0.5477  0.1293
 2801TIP3   OH229961   6.297   4.545   2.653 -0.2136 -0.5093  0.7528
 2801TIP3    H129962   6.247   4.464   2.655 -1.0327 -0.0710 -0.6065
 2801TIP3    H229963   6.384   4.521   2.686 -1.5493 -1.0571  4.3562
 2802TIP3   OH229964   3.195   2.798   3.099 -0.2196  0.0274 -0.3191
 2802TIP3    H129965   3.277   2.807   3.147 -0.4633  0.6462 -0.0054
 2802TIP3    H229966   3.207   2.853   3.021 -0.4618  0.4196 -0.0884
 2803TIP3   OH229967   2.600   3.100   8.081  0.0220 -0.1356  0.1505
 2803TIP3    H129968   2.624   3.191   8.099  0.2156 -0.2761  0.6160
 2803TIP3    H229969   2.517   3.087   8.127  0.5968 -0.5427  1.0953
 2804TIP3   OH229970   3.111   1.358   0.838  0.3632 -0.4640 -1.0311
 2804TIP3    H129971   3.126   1.440   0.885 -0.0657 -1.5078  1.0260
 2804TIP3    H229972   3.052   1.383   0.766 -2.1772  0.6145  1.2359
 2805TIP3   OH229973   0.992   6.233   0.105  0.5723 -0.0822 -0.0989
 2805TIP3    H129974   0.983   6.169   0.035  0.6071  0.1040 -0.2753
 2805TIP3    H229975   1.062   6.292   0.075  0.3985  0.1590 -0.0336
 2806TIP3   OH229976   0.586   2.982   8.685  0.4497 -0.0468  0.8453
 2806TIP3    H129977   0.631   3.000   8.603 -0.6466 -1.1453 -0.0352
 2806TIP3    H229978   0.494   2.973   8.660  0.2534 -1.6130  1.9767
 2807TIP3   OH229979   6.254   4.486   0.415 -0.0928  0.4758  0.2449
 2807TIP3    H129980   6.175   4.515   0.369  0.2900  0.7093 -0.2730
 2807TIP3    H229981   6.320   4.552   0.394  0.4750 -0.1630 -0.0093
 2808TIP3   OH229982   4.633   4.532   2.042  0.7241  0.7372  0.1586
 2808TIP3    H129983   4.600   4.443   2.058  0.5008  0.3277 -2.2818
 2808TIP3    H229984   4.631   4.574   2.128 -3.4149 -0.1891  0.7183
 2809TIP3   OH229985   4.361   4.330   8.415  0.1436  0.6311 -0.2919
 2809TIP3    H129986   4.431   4.361   8.474 -0.0895  0.8827 -0.1444
 2809TIP3    H229987   4.332   4.248   8.454  1.7592 -0.5640 -1.4769
 2810TIP3   OH229988   1.684   5.841   2.327  0.3835  0.6160 -0.6798
 2810TIP3    H129989   1.733   5.848   2.409  0.9363 -0.4072 -0.9149
 2810TIP3    H229990   1.743   5.797   2.267 -0.9610 -1.0130 -0.8676
 2811TIP3   OH229991   1.220   1.956   3.589  0.2239  0.4692  0.0608
 2811TIP3    H129992   1.143   1.930   3.640  0.2173  0.5238  0.0786
 2811TIP3    H229993   1.285   1.888   3.607 -0.2541 -0.3027 -0.9830
 2812TIP3   OH229994   1.763   4.764   2.706  0.4254  0.1447 -0.3476
 2812TIP3    H129995   1.833   4.803   2.758 -0.3488  1.4520 -0.2478
 2812TIP3    H229996   1.753   4.822   2.631 -2.0046  1.2564  0.7273
 2813TIP3   OH229997   0.633   1.699   8.278 -0.1175  0.0331  0.6360
 2813TIP3    H129998   0.547   1.696   8.235 -0.4127 -0.0760  1.2302
 2813TIP3    H229999   0.641   1.790   8.307 -0.9703 -0.4322  2.4534
 2814TIP3   OH230000   2.320   0.373   2.068  0.0978  0.2721 -0.2540
 2814TIP3    H130001   2.335   0.372   2.162 -1.4593  2.3282  0.0981
 2814TIP3    H230002   2.226   0.357   2.058  0.1870  0.3695 -1.4224
 2815TIP3   OH230003   3.468   1.137   8.403  0.4631  0.0440  0.1360
 2815TIP3    H130004   3.408   1.143   8.478 -0.8014  2.4549 -0.9835
 2815TIP3    H230005   3.518   1.218   8.405  2.9659 -1.3842  0.3149
 2816TIP3   OH230006   3.884   2.934   1.793 -0.7364  0.4210  0.3869
 2816TIP3    H130007   3.803   2.976   1.823  0.3014  1.8168  1.3604
 2816TIP3    H230008   3.919   2.892   1.872 -0.4131 -0.0059  0.0181
 2817TIP3   OH230009   0.262   3.642   2.260  0.1240 -0.0185  0.0979
 2817TIP3    H130010   0.330   3.706   2.238  0.7239 -0.9677 -0.9099
 2817TIP3    H230011   0.182   3.694   2.267  0.5015  0.7885 -1.1943
 2818TIP3   OH230012   4.056   5.394   2.249  0.0651 -0.4891  0.0748
 2818TIP3    H130013   3.970   5.381   2.290 -0.1518 -0.7465 -0.4575
 2818TIP3    H230014   4.077   5.309   2.210  0.4049 -0.3270 -0.1008
 2819TIP3   OH230015   2.658   0.460   2.868  0.4675  0.0623 -0.0881
 2819TIP3    H130016   2.676   0.375   2.828  1.5815 -0.0269  0.5444
 2819TIP3    H230017   2.632   0.440   2.958  1.6354  0.3931  0.3523
 2820TIP3   OH230018   6.647   4.490   0.447 -0.4770 -0.5583  0.0125
 2820TIP3    H130019   6.720   4.437   0.478  0.5317  0.1590 -1.0258
 2820TIP3    H230020   6.602   4.434   0.383  0.5523 -0.2109 -1.0440
 2821TIP3   OH230021   0.751   3.444   3.395 -0.1457  0.1105 -0.1089
 2821TIP3    H130022   0.840   3.427   3.365 -0.2383 -0.4568 -0.0800
 2821TIP3    H230023   0.740   3.388   3.472 -0.6575 -0.1391 -0.3511
 2822TIP3   OH230024   5.855   6.231   0.493 -0.6574  0.2350 -0.0181
 2822TIP3    H130025   5.827   6.212   0.403 -2.6376  0.6047  0.4729
 2822TIP3    H230026   5.917   6.161   0.514 -2.5554 -1.7327 -0.6257
 2823TIP3   OH230027   0.435   0.463   8.452 -0.1435 -0.0912 -0.0560
 2823TIP3    H130028   0.470   0.470   8.541 -1.5868  0.0157  0.5332
 2823TIP3    H230029   0.478   0.386   8.415  3.0095  1.6867 -0.5114
 2824TIP3   OH230030   0.943   0.853   2.721 -0.3377  0.0769 -0.3531
 2824TIP3    H130031   0.971   0.944   2.733  0.0013  0.1072 -1.2704
 2824TIP3    H230032   0.903   0.829   2.805 -0.6717  1.1545 -0.1780
 2825TIP3   OH230033   3.056   4.023   3.843  0.1652  0.1260 -0.3379
 2825TIP3    H130034   3.031   4.049   3.931 -0.0935  2.7558 -1.1135
 2825TIP3    H230035   3.152   4.026   3.844  0.1639  2.5961 -0.7165
 2826TIP3   OH230036   5.596   4.001   2.472 -0.0637 -0.2546 -0.3828
 2826TIP3    H130037   5.666   3.941   2.498  0.6393 -0.1334 -1.8879
 2826TIP3    H230038   5.628   4.088   2.498 -0.4034 -0.3644  0.4200
 2827TIP3   OH230039   0.554   0.438   0.737  0.2588 -0.2980 -0.1016
 2827TIP3    H130040   0.631   0.438   0.793  0.6853 -0.5853 -0.6856
 2827TIP3    H230041   0.517   0.350   0.746  0.4314 -0.4009 -0.4199
 2828TIP3   OH230042   1.232   5.876   8.582  0.0989  0.1632  0.3672
 2828TIP3    H130043   1.188   5.875   8.497  1.0760  3.1106 -0.2898
 2828TIP3    H230044   1.325   5.870   8.562  0.2782 -0.6960  1.3577
 2829TIP3   OH230045   0.894   0.138   3.044 -0.4509 -0.1032 -0.6392
 2829TIP3    H130046   0.859   0.095   2.966 -0.9848  0.6505 -0.8305
 2829TIP3    H230047   0.917   0.067   3.103  0.4777 -0.7088 -1.6990
 2830TIP3   OH230048   2.151   3.810   1.373 -0.4294 -0.2675  0.0868
 2830TIP3    H130049   2.223   3.813   1.310 -1.0555  1.1090 -0.6179
 2830TIP3    H230050   2.150   3.720   1.404 -0.2777 -1.0828 -2.0951
 2831TIP3   OH230051   6.129   1.041   0.978  0.6784  0.2607  0.2114
 2831TIP3    H130052   6.174   0.965   1.014 -0.1426 -0.6425 -0.5977
 2831TIP3    H230053   6.106   1.094   1.055  1.7485 -0.0204  0.7398
 2832TIP3   OH230054   2.098   0.078   4.279  0.0020  0.7966 -0.3136
 2832TIP3    H130055   2.013   0.067   4.236 -0.1646  2.3268 -0.4480
 2832TIP3    H230056   2.153   0.119   4.213  0.0539  2.1960  0.5519
 2833TIP3   OH230057   0.379   2.840   8.504 -0.0843 -0.2104  0.3408
 2833TIP3    H130058   0.468   2.809   8.491 -0.4650 -0.7352 -1.2787
 2833TIP3    H230059   0.346   2.857   8.415 -0.9016  2.0005  0.9867
 2834TIP3   OH230060   0.237   6.457   1.311 -0.2138  0.3738 -0.1008
 2834TIP3    H130061   0.325   6.470   1.276  0.4956 -0.4069  1.3132
 2834TIP3    H230062   0.186   6.430   1.235  0.6647  1.2211 -1.0215
 2835TIP3   OH230063   3.548   5.199   2.217 -0.0621  0.1394 -0.3126
 2835TIP3    H130064   3.505   5.146   2.150  0.2068 -0.8441  0.2646
 2835TIP3    H230065   3.635   5.216   2.181  0.9919 -2.4788  0.7433
 2836TIP3   OH230066   5.520   0.559   1.338  0.0139  0.1932 -0.2534
 2836TIP3    H130067   5.573   0.529   1.265  0.1316  1.2538 -0.6314
 2836TIP3    H230068   5.480   0.640   1.307 -0.6333  0.2039  0.5530
 2837TIP3   OH230069   0.373   2.628   3.102 -0.0302  0.2262  0.0431
 2837TIP3    H130070   0.342   2.709   3.142  2.0109  0.8064  0.5818
 2837TIP3    H230071   0.457   2.652   3.062  0.6304 -1.6294  0.2188
 2838TIP3   OH230072   1.411   0.967   2.297  0.3621 -0.2994  0.5023
 2838TIP3    H130073   1.439   1.051   2.333 -1.4013  0.2911  0.5865
 2838TIP3    H230074   1.416   0.979   2.202  1.0208 -0.4492  0.5090
 2839TIP3   OH230075   0.190   6.647   0.425  0.0584 -0.4113  0.0208
 2839TIP3    H130076   0.125   6.716   0.413  0.0141 -0.7152 -1.7719
 2839TIP3    H230077   0.138   6.569   0.446 -0.0553 -0.3497 -0.0281
 2840TIP3   OH230078   0.133   2.146   3.851 -0.0808  0.0176  0.7310
 2840TIP3    H130079   0.178   2.062   3.848 -0.5393 -0.2680 -3.2036
 2840TIP3    H230080   0.122   2.164   3.945  1.3647 -3.5195  1.7448
 2841TIP3   OH230081   0.054   6.671   2.262  0.2257  0.0542 -0.3586
 2841TIP3    H130082   0.148   6.651   2.263  0.4017  0.8867  0.0454
 2841TIP3    H230083   0.017   6.605   2.203  1.3082  0.8172 -1.9851
 2842TIP3   OH230084   4.586   5.406   0.610 -0.0094 -0.4873  0.1923
 2842TIP3    H130085   4.673   5.421   0.646  0.0054  0.0634 -0.0590
 2842TIP3    H230086   4.529   5.402   0.687 -0.1359  1.7286  0.2901
 2843TIP3   OH230087   5.114   5.824   0.449 -0.0734 -0.0082  0.0440
 2843TIP3    H130088   5.022   5.836   0.426  0.2210 -0.4924 -1.5282
 2843TIP3    H230089   5.157   5.903   0.419  0.3146 -0.6335 -1.1162
 2844TIP3   OH230090   6.242   5.534   8.026  0.4376  0.0817 -0.2114
 2844TIP3    H130091   6.174   5.600   8.012  0.0198 -0.5000 -0.9777
 2844TIP3    H230092   6.194   5.456   8.054  0.8830 -0.0537  0.1957
 2845TIP3   OH230093   4.472   2.845   1.199  0.1143 -0.0444 -0.0370
 2845TIP3    H130094   4.477   2.931   1.159  2.4002 -1.1787 -2.4171
 2845TIP3    H230095   4.397   2.852   1.259 -0.8153  3.0477 -1.3339
 2846TIP3   OH230096   1.794   4.214   3.737  0.0521  0.2374 -0.4480
 2846TIP3    H130097   1.889   4.205   3.731  0.3739  1.4413  1.7368
 2846TIP3    H230098   1.774   4.298   3.696 -0.1485 -0.2013 -1.2742
 2847TIP3   OH230099   1.746   1.695   2.257 -0.0189 -0.5972  0.5219
 2847TIP3    H130100   1.801   1.773   2.257 -0.5477 -0.1823 -1.4498
 2847TIP3    H230101   1.657   1.728   2.271 -0.1983 -0.8797  0.0669
 2848TIP3   OH230102   5.944   2.492   0.821  0.5893 -0.0052  0.6313
 2848TIP3    H130103   5.949   2.398   0.802  1.4220 -0.4050  2.5602
 2848TIP3    H230104   5.918   2.497   0.913  0.1954  1.6826  0.4694
 2849TIP3   OH230105   4.003   3.865   1.960 -0.3814 -0.1368  0.6476
 2849TIP3    H130106   3.968   3.801   1.897 -0.1838  0.1749  0.2175
 2849TIP3    H230107   3.927   3.916   1.986 -0.3803  0.0601  0.2748
 2850TIP3   OH230108   5.425   5.218   3.483 -0.6026  0.0577 -0.0596
 2850TIP3    H130109   5.389   5.130   3.489 -0.6070  0.1654  1.7707
 2850TIP3    H230110   5.519   5.207   3.493 -0.2686  0.0385 -2.4463
 2851TIP3   OH230111   4.680   2.479   0.040 -0.3276  0.3491  0.1628
 2851TIP3    H130112   4.664   2.466  -0.054 -0.5622  0.3191  0.2065
 2851TIP3    H230113   4.768   2.516   0.044 -0.6122  1.0693 -0.1163
 2852TIP3   OH230114   3.698   2.117   2.623 -0.1824 -0.1271  0.4972
 2852TIP3    H130115   3.604   2.100   2.635 -0.2031  0.6993  1.5366
 2852TIP3    H230116   3.722   2.175   2.695  1.2553 -0.7547  0.5507
 2853TIP3   OH230117   0.027   2.955   3.107 -0.1707 -0.3603  0.0313
 2853TIP3    H130118   0.118   2.934   3.086 -0.8266 -1.9142 -1.5341
 2853TIP3    H230119   0.020   3.049   3.090  0.5354 -0.6891 -2.4734
 2854TIP3   OH230120   2.461   1.625   3.078  0.2442  0.4481  0.0543
 2854TIP3    H130121   2.372   1.594   3.096  0.4319 -0.4111 -0.4334
 2854TIP3    H230122   2.455   1.668   2.993  0.4968 -0.5712 -0.4965
 2855TIP3   OH230123   6.483   1.791   0.375  0.0767 -0.5698 -0.2806
 2855TIP3    H130124   6.395   1.820   0.399 -0.1488 -2.0019  0.7165
 2855TIP3    H230125   6.518   1.753   0.455  1.2768 -0.8180 -0.9082
 2856TIP3   OH230126   6.212   2.340   2.528 -0.1334 -0.2822 -0.0196
 2856TIP3    H130127   6.124   2.375   2.545  0.7639  1.9565  0.3556
 2856TIP3    H230128   6.236   2.296   2.610 -0.6268 -0.3414  0.1019
 2857TIP3   OH230129   5.529   1.586   1.986 -0.0808  0.2595 -0.0299
 2857TIP3    H130130   5.511   1.497   2.014 -0.3830  0.7033  1.2600
 2857TIP3    H230131   5.496   1.590   1.896 -0.7940 -0.7038  0.1708
 2858TIP3   OH230132   2.298   0.337   2.342  1.0024 -0.1350 -0.2478
 2858TIP3    H130133   2.209   0.319   2.371  1.9187 -1.0571  2.2000
 2858TIP3    H230134   2.325   0.412   2.394  2.0250 -0.5801 -0.1171
 2859TIP3   OH230135   3.115   5.690   2.991  0.0641  0.7913  0.0446
 2859TIP3    H130136   3.203   5.660   2.970 -0.3918  0.2013 -1.1221
 2859TIP3    H230137   3.084   5.629   3.058  0.1354  0.2871 -0.3710
 2860TIP3   OH230138   3.027   0.171   2.152  0.4415  0.2406  0.0062
 2860TIP3    H130139   3.085   0.240   2.122 -0.3237  0.8660 -0.0748
 2860TIP3    H230140   2.941   0.193   2.114 -0.0361 -0.2018  0.7924
 2861TIP3   OH230141   0.463   6.730   8.705 -0.1247  0.0354  0.1011
 2861TIP3    H130142   0.413   6.750   8.626  0.1109  0.5071  0.0669
 2861TIP3    H230143   0.440   6.800   8.766  0.4662  0.2373  0.0965
 2862TIP3   OH230144   0.795   0.552   3.487 -0.0759 -0.5264  0.9687
 2862TIP3    H130145   0.725   0.554   3.422 -0.8290 -0.7161  1.7493
 2862TIP3    H230146   0.752   0.580   3.568  0.4122 -2.0387  1.7753
 2863TIP3   OH230147   3.992   6.036   7.999  0.2568  0.5815 -1.0763
 2863TIP3    H130148   3.897   6.043   8.003  0.1346 -1.0759 -0.1544
 2863TIP3    H230149   4.021   6.121   7.964 -1.4674  1.4898 -0.4196
 2864TIP3   OH230150   2.804   5.023   1.257 -0.4928 -0.3617  0.1035
 2864TIP3    H130151   2.788   5.102   1.205 -3.6748 -1.1093 -0.2395
 2864TIP3    H230152   2.830   4.958   1.192 -0.5099 -0.2790  0.0119
 2865TIP3   OH230153   0.541   1.311   0.707 -0.5088  0.2331  0.1897
 2865TIP3    H130154   0.602   1.245   0.673  2.9192  2.9833  0.3885
 2865TIP3    H230155   0.512   1.276   0.791  0.1419 -1.5703 -0.2979
 2866TIP3   OH230156   1.995   1.904   2.089  0.1211  0.2182  0.4780
 2866TIP3    H130157   2.019   1.813   2.073 -0.0182  0.0365  1.2652
 2866TIP3    H230158   2.049   1.954   2.027 -0.2049 -0.4260 -0.3431
 2867TIP3   OH230159   6.239   5.052   1.468  0.4101 -0.1554  0.2779
 2867TIP3    H130160   6.247   5.133   1.517 -1.8095 -1.1166  2.4445
 2867TIP3    H230161   6.163   5.066   1.411  1.9524  0.3418 -1.7778
 2868TIP3   OH230162   0.835   5.870   0.342 -0.0041  0.6837 -1.0261
 2868TIP3    H130163   0.752   5.896   0.301  0.0633  0.9283 -1.0097
 2868TIP3    H230164   0.896   5.941   0.321 -0.2663  1.3876  0.4477
 2869TIP3   OH230165   4.376   6.399   1.161  0.5341  0.5189 -0.3186
 2869TIP3    H130166   4.298   6.382   1.214  0.5731  0.1554 -0.3816
 2869TIP3    H230167   4.355   6.365   1.074  0.3113  1.4831 -0.6579
 2870TIP3   OH230168   6.658   2.439   0.535 -0.3041 -0.1027 -0.0974
 2870TIP3    H130169   6.728   2.395   0.583 -0.7833 -0.8875 -0.0950
 2870TIP3    H230170   6.701   2.514   0.493  0.9032 -1.4544 -1.4183
 2871TIP3   OH230171   3.451   5.260   1.448 -0.3719  0.5840  0.2408
 2871TIP3    H130172   3.519   5.253   1.381  1.3215  0.2655  1.9164
 2871TIP3    H230173   3.398   5.336   1.420 -0.0680  0.1354 -1.7004
 2872TIP3   OH230174   0.712   1.614   1.254 -0.3066  0.0630  0.0175
 2872TIP3    H130175   0.721   1.675   1.327 -0.1236  0.9721 -0.7565
 2872TIP3    H230176   0.650   1.656   1.194 -2.0359 -1.5640  0.5498
 2873TIP3   OH230177   5.297   3.911   3.379 -0.6321 -0.9584  0.1424
 2873TIP3    H130178   5.274   3.890   3.470 -0.3652 -0.5310  0.3142
 2873TIP3    H230179   5.380   3.960   3.386 -0.7541 -0.6824 -0.3088
 2874TIP3   OH230180   5.639   1.088   1.680  0.2612  0.1523 -0.0465
 2874TIP3    H130181   5.554   1.063   1.645 -0.4043  0.7099  1.1166
 2874TIP3    H230182   5.632   1.182   1.696  1.2949  0.3179 -0.4479
 2875TIP3   OH230183   1.266   6.123   1.133 -0.6120  0.5355 -0.1182
 2875TIP3    H130184   1.312   6.091   1.210 -0.3018 -0.9771 -0.8939
 2875TIP3    H230185   1.176   6.138   1.163 -0.4496  0.1558  0.5832
 2876TIP3   OH230186   6.635   1.826   2.185  0.1466 -0.4751  0.6386
 2876TIP3    H130187   6.597   1.795   2.268  0.3597  1.1879  1.3947
 2876TIP3    H230188   6.675   1.910   2.207 -1.0896  0.7470 -1.4797
 2877TIP3   OH230189   1.195   3.397   1.200  0.2737  0.2667 -0.2418
 2877TIP3    H130190   1.260   3.351   1.254 -1.1294  0.3898  1.6853
 2877TIP3    H230191   1.190   3.484   1.239  0.5542  0.9953 -1.7924
 2878TIP3   OH230192   5.379   4.792   8.473  0.1188  0.0323 -0.1583
 2878TIP3    H130193   5.392   4.837   8.557 -1.6102 -0.6503  0.5108
 2878TIP3    H230194   5.468   4.775   8.442  0.8040  0.2768  1.5470
 2879TIP3   OH230195   5.850   4.563   1.573  0.3051  0.0300 -0.1173
 2879TIP3    H130196   5.768   4.521   1.599  0.0260  0.4438 -0.3252
 2879TIP3    H230197   5.834   4.595   1.485  1.0811 -0.9174 -0.6219
 2880TIP3   OH230198   1.079   0.283   1.103 -0.2148 -0.2562 -0.1783
 2880TIP3    H130199   1.068   0.335   1.182 -1.0565 -1.0083  0.2201
 2880TIP3    H230200   1.166   0.244   1.111  0.3418  0.9160 -0.3896
 2881TIP3   OH230201   3.966   1.189   3.593 -0.1711  0.1197 -0.3467
 2881TIP3    H130202   3.954   1.143   3.677 -0.0306 -0.0714 -0.4293
 2881TIP3    H230203   4.052   1.229   3.600  0.6570 -1.4521 -1.1178
 2882TIP3   OH230204   4.865   4.426   1.884  0.2940  0.0038  0.4985
 2882TIP3    H130205   4.877   4.387   1.971  0.8100  0.7529  0.7758
 2882TIP3    H230206   4.793   4.488   1.894  1.4223  1.3137  0.8352
 2883TIP3   OH230207   6.473   0.109   1.734  0.3728 -0.1041 -0.1948
 2883TIP3    H130208   6.535   0.042   1.706 -1.0436 -2.3593  1.6454
 2883TIP3    H230209   6.496   0.186   1.684  2.2506 -1.9016 -2.2981
 2884TIP3   OH230210   3.253   3.419   1.062  0.4606 -0.0604 -0.1769
 2884TIP3    H130211   3.209   3.383   0.985 -0.1381 -2.3788  1.1631
 2884TIP3    H230212   3.346   3.421   1.038  0.0787  1.3166 -1.6902
 2885TIP3   OH230213   3.409   2.793   1.122  0.3817  0.8179 -0.1944
 2885TIP3    H130214   3.498   2.798   1.157  0.0719 -0.2591  0.8357
 2885TIP3    H230215   3.361   2.741   1.187 -0.6114  0.0341 -1.5072
 2886TIP3   OH230216   0.516   0.097   1.566  0.1037  0.3877 -0.3862
 2886TIP3    H130217   0.571   0.055   1.501  1.1406  1.1300 -0.0074
 2886TIP3    H230218   0.570   0.102   1.645 -0.4348  1.2828 -0.0517
 2887TIP3   OH230219   6.386   6.353   1.245 -0.0599 -0.5530 -0.4801
 2887TIP3    H130220   6.476   6.323   1.258  0.0997  0.6003  1.5258
 2887TIP3    H230221   6.395   6.440   1.205 -0.3805 -1.1211 -1.8669
 2888TIP3   OH230222   5.674   2.691   0.384 -0.4563 -0.1672 -0.2172
 2888TIP3    H130223   5.665   2.689   0.288  2.9892 -1.0691 -0.6624
 2888TIP3    H230224   5.686   2.783   0.405 -3.0192  0.2601 -0.3395
 2889TIP3   OH230225   0.127   3.652   1.259 -0.2581  0.2579 -0.3031
 2889TIP3    H130226   0.042   3.689   1.237 -1.5609 -1.5935  1.2533
 2889TIP3    H230227   0.148   3.595   1.184  0.3715  1.8314 -1.3647
 2890TIP3   OH230228   6.118   5.326   0.718  0.0466 -0.1168  0.4089
 2890TIP3    H130229   6.101   5.309   0.811  2.4410 -0.4284  0.8713
 2890TIP3    H230230   6.080   5.412   0.701 -0.9373 -0.3143  1.5137
 2891TIP3   OH230231   6.049   1.534   0.315 -0.0373  0.0061  0.3118
 2891TIP3    H130232   6.105   1.465   0.279  1.3246  1.2369 -0.0593
 2891TIP3    H230233   6.012   1.497   0.395 -1.1930 -1.9497 -1.0404
 2892TIP3   OH230234   0.943   2.110   1.063  0.3917  0.1249  0.0766
 2892TIP3    H130235   0.873   2.122   1.127  1.3922  0.6761  1.0949
 2892TIP3    H230236   0.932   2.020   1.031  0.0339 -0.2385  1.2006
 2893TIP3   OH230237   4.676   5.634   2.253 -0.4955 -0.4819  0.4017
 2893TIP3    H130238   4.724   5.716   2.239 -0.2056 -0.6666  0.3153
 2893TIP3    H230239   4.691   5.584   2.173 -0.0161 -0.9487  0.7764
 2894TIP3   OH230240   3.433   6.114   2.921 -0.0166  0.1074  0.0859
 2894TIP3    H130241   3.447   6.204   2.949 -0.8441  0.1747  0.3113
 2894TIP3    H230242   3.517   6.087   2.884  0.2104  0.9973 -0.0670
 2895TIP3   OH230243   0.745   2.920   0.342 -0.2920  0.2273 -0.3766
 2895TIP3    H130244   0.688   2.899   0.268  0.6917 -0.7600 -0.8951
 2895TIP3    H230245   0.726   2.852   0.406 -0.4261  0.4984 -0.1281
 2896TIP3   OH230246   6.121   4.753   2.599  0.0988  0.0475 -0.2147
 2896TIP3    H130247   6.150   4.665   2.623 -0.9517  0.1432  1.6635
 2896TIP3    H230248   6.180   4.811   2.647 -1.0569  0.2834  0.9726
 2897TIP3   OH230249   6.248   5.766   1.348 -0.2260 -0.3717 -0.4391
 2897TIP3    H130250   6.262   5.765   1.442  1.8086  0.3710 -0.6737
 2897TIP3    H230251   6.248   5.859   1.324 -0.5591 -0.5528 -1.1857
 2898TIP3   OH230252   4.220   1.196   2.628 -0.2024  0.5845 -0.6449
 2898TIP3    H130253   4.254   1.197   2.718 -0.0171  0.5421 -0.7132
 2898TIP3    H230254   4.136   1.240   2.633 -0.7056 -0.4022 -0.2382
 2899TIP3   OH230255   5.066   1.507   7.867  0.0216 -0.1139 -0.3812
 2899TIP3    H130256   5.111   1.590   7.880 -2.0265  1.1278 -0.7227
 2899TIP3    H230257   5.065   1.466   7.953 -0.1498  0.8862  0.1094
 2900TIP3   OH230258   6.501   4.276   2.615 -0.4206  0.1441 -0.1466
 2900TIP3    H130259   6.528   4.194   2.657  0.6039  0.3586 -0.3497
 2900TIP3    H230260   6.537   4.345   2.671  0.0531  0.4380 -0.8030
 2901TIP3   OH230261   4.031   4.982   1.323 -0.0993  0.4122 -0.4284
 2901TIP3    H130262   4.013   4.965   1.231  1.0717 -1.7307 -0.3329
 2901TIP3    H230263   4.013   4.898   1.367 -1.4092  1.5845  1.4479
 2902TIP3   OH230264   0.298   3.054   0.691  0.2218  0.9170  0.2066
 2902TIP3    H130265   0.290   2.992   0.763 -1.5158  1.0128  0.1285
 2902TIP3    H230266   0.325   3.136   0.732 -1.1271  1.0765  0.8399
 2903TIP3   OH230267   5.626   1.252   2.465 -0.1113  0.7591 -0.1029
 2903TIP3    H130268   5.627   1.287   2.376  1.2226  0.0941 -0.3663
 2903TIP3    H230269   5.648   1.327   2.520 -0.0970  0.9776 -0.3998
 2904TIP3   OH230270   6.614   6.586   1.463  0.0405 -0.2083  0.0789
 2904TIP3    H130271   6.619   6.494   1.488 -1.1019 -0.2066  0.3569
 2904TIP3    H230272   6.702   6.607   1.432  0.4233 -1.2790  0.3950
 2905TIP3   OH230273   1.379   0.695   4.010 -0.4155  0.0166 -0.0196
 2905TIP3    H130274   1.329   0.777   4.009 -2.2558 -1.0536 -0.3063
 2905TIP3    H230275   1.406   0.683   3.919  2.2965  1.6373  0.4535
 2906TIP3   OH230276   5.952   2.446   3.494  0.4947  0.0021  0.4318
 2906TIP3    H130277   5.946   2.351   3.505  1.6726  0.1092  2.5651
 2906TIP3    H230278   5.867   2.479   3.521  0.4937 -0.3969  0.9384
 2907TIP3   OH230279   0.596   1.500   0.012  0.2453 -0.3187 -0.2739
 2907TIP3    H130280   0.685   1.467   0.022  0.5721 -0.0753 -2.1663
 2907TIP3    H230281   0.541   1.433   0.053  1.1409 -1.6329 -1.1654
 2908TIP3   OH230282   5.415   5.440   1.295 -0.4713 -0.0066  0.3179
 2908TIP3    H130283   5.339   5.495   1.309 -1.0048 -0.6335 -0.0474
 2908TIP3    H230284   5.398   5.362   1.349 -0.1704 -0.2223  0.1041
 2909TIP3   OH230285   4.152   2.473   3.006  0.2275  0.4625 -0.2100
 2909TIP3    H130286   4.114   2.561   3.009 -1.4162 -0.2437  1.8657
 2909TIP3    H230287   4.140   2.438   3.094  0.8193 -1.8673 -0.9760
 2910TIP3   OH230288   0.321   4.469   1.780 -0.0098 -0.1979  0.1609
 2910TIP3    H130289   0.254   4.485   1.714  0.6057  0.3280 -0.3465
 2910TIP3    H230290   0.401   4.453   1.730 -0.1578 -3.1146  0.6437
 2911TIP3   OH230291   5.086   2.330   2.988 -0.2202 -0.8131  0.0807
 2911TIP3    H130292   5.130   2.280   2.919  1.3371  1.0435 -0.3712
 2911TIP3    H230293   4.996   2.299   2.987  0.5644 -3.3027 -0.3963
 2912TIP3   OH230294   6.220   3.990   2.172 -0.0484 -0.0660  0.3173
 2912TIP3    H130295   6.205   4.078   2.209  0.4017 -0.1744  0.7743
 2912TIP3    H230296   6.290   4.003   2.108  2.5004 -0.6130  2.7846
 2913TIP3   OH230297   6.315   5.310   2.295 -0.4665 -0.7001  0.0279
 2913TIP3    H130298   6.350   5.258   2.223 -0.1186  1.3564 -1.3860
 2913TIP3    H230299   6.386   5.312   2.359  0.6642  0.3389 -1.1766
 2914TIP3   OH230300   3.934   2.055   1.120 -0.0491  0.1064  0.8395
 2914TIP3    H130301   3.854   2.054   1.067  0.2994 -1.0310  0.2877
 2914TIP3    H230302   4.004   2.037   1.057  0.7493  1.8183  1.1952
 2915TIP3   OH230303   1.761   5.053   1.514  1.0439  0.1700  0.8132
 2915TIP3    H130304   1.801   5.028   1.431  1.6668  1.8678  0.5567
 2915TIP3    H230305   1.667   5.043   1.500  1.1357  0.6315 -0.1790
 2916TIP3   OH230306   1.021   5.134   0.085 -0.3336 -0.1136  0.4996
 2916TIP3    H130307   1.109   5.096   0.084 -0.5511 -0.7349  2.2153
 2916TIP3    H230308   0.966   5.067   0.124 -1.0229  1.3337  2.1819
 2917TIP3   OH230309   0.560   3.875   2.446  0.0387  0.4061 -0.4570
 2917TIP3    H130310   0.573   3.871   2.352  0.1243  0.7600 -0.4598
 2917TIP3    H230311   0.466   3.866   2.458 -0.4919  4.0042 -0.8108
 2918TIP3   OH230312   6.601   3.017   0.098  0.4006 -0.0457  0.9134
 2918TIP3    H130313   6.673   3.004   0.161  1.2318 -0.3330 -0.0755
 2918TIP3    H230314   6.601   3.112   0.081  3.8452 -0.4219 -2.7480
 2919TIP3   OH230315   4.897   3.219   8.588  0.2893 -0.0722 -0.5887
 2919TIP3    H130316   4.990   3.201   8.604 -0.0898 -1.8441 -0.1138
 2919TIP3    H230317   4.852   3.139   8.617 -1.4995  1.2124  0.3422
 2920TIP3   OH230318   2.295   3.603   2.295  0.5025  0.9081  0.1182
 2920TIP3    H130319   2.366   3.625   2.234  0.4445  1.0897  0.1177
 2920TIP3    H230320   2.276   3.684   2.341  0.6417  0.7375  0.4837
 2921TIP3   OH230321   6.462   5.387   1.113  0.7363  0.4826  0.0945
 2921TIP3    H130322   6.552   5.414   1.130 -0.0831  3.6049  0.2113
 2921TIP3    H230323   6.415   5.470   1.100 -1.6722 -1.1094 -2.2891
 2922TIP3   OH230324   0.513   1.233   3.342  0.3970 -0.7671  0.2044
 2922TIP3    H130325   0.465   1.151   3.344  1.5596 -1.4687  0.5447
 2922TIP3    H230326   0.506   1.267   3.431  0.8173 -1.0491  0.3480
 2923TIP3   OH230327   3.850   0.727   2.579  0.1357  0.1470 -0.2333
 2923TIP3    H130328   3.775   0.763   2.532  0.1729  0.5138 -0.0181
 2923TIP3    H230329   3.923   0.784   2.554 -0.0078  0.8636  0.9124
 2924TIP3   OH230330   4.613   0.494   3.214 -0.0204  0.9008 -0.3911
 2924TIP3    H130331   4.548   0.485   3.145  0.2107  0.6640 -0.5814
 2924TIP3    H230332   4.632   0.588   3.218 -0.1611  0.9345 -0.5332
 2925TIP3   OH230333   0.146   3.017   1.689  0.3723 -1.3044  0.5843
 2925TIP3    H130334   0.067   3.053   1.729  0.5699  1.0947 -0.9692
 2925TIP3    H230335   0.113   2.961   1.619 -0.1127  1.2403 -1.3830
 2926TIP3   OH230336   1.286   3.081   0.087 -0.2710  0.1421 -0.1381
 2926TIP3    H130337   1.305   2.988   0.094 -1.3010 -0.0653 -0.0072
 2926TIP3    H230338   1.245   3.091   0.001 -1.8576  0.1563  0.5913
 2927TIP3   OH230339   1.238   5.052   3.126  0.4004  0.1409 -0.3346
 2927TIP3    H130340   1.327   5.018   3.137 -0.3555 -1.3971  1.7576
 2927TIP3    H230341   1.237   5.134   3.175  0.3471 -0.5542  0.8825
 2928TIP3   OH230342   2.578   4.725   1.462 -0.2012 -0.1729  0.1456
 2928TIP3    H130343   2.497   4.693   1.423  0.0304 -1.2258  0.5149
 2928TIP3    H230344   2.619   4.648   1.500  1.8612 -0.0121 -1.5525
 2929TIP3   OH230345   4.726   0.596   1.373  0.2774  0.1223 -0.6081
 2929TIP3    H130346   4.790   0.593   1.301  0.2641  0.5126 -0.6369
 2929TIP3    H230347   4.761   0.661   1.434 -0.0995  0.3507 -0.6317
 2930TIP3   OH230348   6.628   4.776   1.755 -0.8392  0.0682  0.1041
 2930TIP3    H130349   6.563   4.808   1.692  0.5057 -0.3655 -1.5839
 2930TIP3    H230350   6.662   4.856   1.796  1.2610  0.8819 -2.8321
 2931TIP3   OH230351   3.788   2.019   8.139  0.3591 -0.2681  0.8424
 2931TIP3    H130352   3.775   2.100   8.090  2.2627  0.4708  1.4391
 2931TIP3    H230353   3.837   1.962   8.079  1.4292  0.0958  1.3408
 2932TIP3   OH230354   6.229   1.921   8.289 -0.6174  0.2589  0.1618
 2932TIP3    H130355   6.302   1.948   8.234  1.7243  0.6007  3.1963
 2932TIP3    H230356   6.221   1.826   8.274 -0.2223  0.3774 -0.8906
 2933TIP3   OH230357   1.340   4.163   1.127 -0.4787 -0.2961  0.1982
 2933TIP3    H130358   1.282   4.156   1.051 -0.6241 -0.5985  0.3331
 2933TIP3    H230359   1.285   4.137   1.201 -0.7472  1.3341  0.6059
 2934TIP3   OH230360   0.904   3.087   1.261  0.2952 -0.1589 -0.1460
 2934TIP3    H130361   0.931   3.179   1.252  1.2086 -0.3795  0.2543
 2934TIP3    H230362   0.973   3.047   1.313 -0.2835 -0.9996 -0.0117
 2935TIP3   OH230363   3.101   3.973   1.958 -1.3206  0.3358  0.1534
 2935TIP3    H130364   3.165   3.968   1.887 -0.6520  0.6154  0.7232
 2935TIP3    H230365   3.031   3.914   1.932 -0.6045 -0.3401 -0.2604
 2936TIP3   OH230366   0.066   3.608   8.613  0.0866 -0.4049  0.4718
 2936TIP3    H130367   0.138   3.553   8.581  1.4349  1.6971 -0.3399
 2936TIP3    H230368   0.108   3.691   8.637 -1.7587  0.0924  2.2547
 2937TIP3   OH230369   2.085   6.650   0.626 -0.0307  0.4515  0.4847
 2937TIP3    H130370   2.174   6.622   0.648  0.0940  0.7208  0.3163
 2937TIP3    H230371   2.064   6.603   0.546  0.8749  2.2384 -0.8470
 2938TIP3   OH230372   0.454   3.066   1.815  0.4328  0.2266 -0.1867
 2938TIP3    H130373   0.377   3.070   1.758 -0.3099 -2.6091  0.4749
 2938TIP3    H230374   0.511   3.000   1.774  1.7392  1.0142  0.2821
 2939TIP3   OH230375   4.669   0.717   2.416 -0.3384  0.5664  0.3518
 2939TIP3    H130376   4.681   0.656   2.489 -1.2519  0.4507  0.4133
 2939TIP3    H230377   4.601   0.778   2.445  0.2373  1.3435  0.1109
 2940TIP3   OH230378   4.705   0.570   2.647 -0.3347  0.0761 -0.0881
 2940TIP3    H130379   4.665   0.487   2.669  0.4936 -0.5378 -0.8159
 2940TIP3    H230380   4.790   0.569   2.692 -0.4864  0.6903  0.2163
 2941TIP3   OH230381   3.041   1.318   2.195 -0.3927 -0.1083  0.0454
 2941TIP3    H130382   2.992   1.384   2.146  0.4092  0.6059  0.1710
 2941TIP3    H230383   3.105   1.285   2.133  0.4207  0.5752  0.4827
 2942TIP3   OH230384   0.259   4.257   8.622 -0.0148  0.5404 -0.0464
 2942TIP3    H130385   0.320   4.253   8.547 -0.9794 -1.0422 -0.7884
 2942TIP3    H230386   0.201   4.182   8.610 -0.6214  0.6351  1.9605
 2943TIP3   OH230387   2.353   6.728   1.040 -0.0305 -0.0146  0.2695
 2943TIP3    H130388   2.340   6.637   1.014 -1.7634  0.4511 -0.6318
 2943TIP3    H230389   2.301   6.737   1.120  2.2108 -0.4363  1.8628
 2944TIP3   OH230390   3.467   0.148   8.757  0.1811  0.2130 -0.2518
 2944TIP3    H130391   3.543   0.127   8.811 -0.3101  1.0537  0.8023
 2944TIP3    H230392   3.503   0.196   8.683  0.8963 -1.1743 -0.8466
 2945TIP3   OH230393   4.152   5.064   2.412  0.0490  0.1321  0.9053
 2945TIP3    H130394   4.059   5.081   2.404  0.0170 -0.3096  0.3112
 2945TIP3    H230395   4.189   5.094   2.329  0.5952  1.3225  1.5515
 2946TIP3   OH230396   2.714   2.749   3.427 -0.9415 -0.5719  0.3770
 2946TIP3    H130397   2.704   2.764   3.521  0.3457 -0.1340  0.4763
 2946TIP3    H230398   2.658   2.815   3.386 -0.9471 -0.2816  0.8408
 2947TIP3   OH230399   6.416   3.611   0.936 -0.1518 -0.3583  0.0852
 2947TIP3    H130400   6.358   3.611   0.860 -0.0125  1.6342 -0.0835
 2947TIP3    H230401   6.485   3.548   0.914 -0.9125 -0.9207 -0.7646
 2948TIP3   OH230402   6.712   6.673   3.175 -0.1318  0.2685 -0.2911
 2948TIP3    H130403   6.654   6.749   3.170 -0.9879 -0.3853 -0.7588
 2948TIP3    H230404   6.662   6.608   3.225 -0.6829 -1.0111 -2.3764
 2949TIP3   OH230405   0.646   0.353   4.070  0.3693  0.8407 -0.2294
 2949TIP3    H130406   0.602   0.268   4.065  0.6561  0.6510  0.4184
 2949TIP3    H230407   0.685   0.355   4.157  1.8883  0.8894 -0.8811
 2950TIP3   OH230408   1.726   0.888   1.982 -0.1827 -0.6378  0.1551
 2950TIP3    H130409   1.706   0.797   2.003 -0.0578 -0.9433 -1.0401
 2950TIP3    H230410   1.813   0.903   2.018  0.0432 -1.1640 -0.1708
 2951TIP3   OH230411   1.345   1.204   2.937  0.3530  0.1508 -0.7143
 2951TIP3    H130412   1.275   1.256   2.975 -0.5498 -1.5413  0.0670
 2951TIP3    H230413   1.372   1.253   2.859 -0.8210  1.4685 -0.3291
 2952TIP3   OH230414   2.592   2.594   8.673 -0.6863 -0.7630  0.1697
 2952TIP3    H130415   2.554   2.534   8.738 -0.3568 -0.4065  0.6967
 2952TIP3    H230416   2.528   2.664   8.665  0.3948  0.5404  2.0584
 2953TIP3   OH230417   5.449   0.084   2.793 -0.0925 -0.6813 -0.2274
 2953TIP3    H130418   5.451   0.180   2.790  0.8936 -0.6835 -0.0641
 2953TIP3    H230419   5.461   0.063   2.886  0.8008 -0.9600 -0.3917
 2954TIP3   OH230420   0.748   6.442   1.936  0.7269  0.1390 -0.5202
 2954TIP3    H130421   0.706   6.527   1.953  0.7053  0.0245  0.0098
 2954TIP3    H230422   0.704   6.381   1.996  1.8801  0.0808  0.3055
 2955TIP3   OH230423   3.517   3.015   1.650 -0.0779  0.1340 -0.1119
 2955TIP3    H130424   3.456   2.951   1.687  1.2384 -1.4188 -0.4966
 2955TIP3    H230425   3.461   3.087   1.621 -1.4626 -0.0978  1.7805
 2956TIP3   OH230426   0.341   1.551   1.017 -0.2419 -0.3421 -0.5128
 2956TIP3    H130427   0.374   1.462   1.031 -1.6038 -0.9622 -0.9869
 2956TIP3    H230428   0.413   1.608   1.043  0.6072 -1.5799 -0.0357
 2957TIP3   OH230429   2.523   2.575   2.795  0.0605  0.5116  0.5894
 2957TIP3    H130430   2.519   2.669   2.779  0.0866  0.3436 -0.4243
 2957TIP3    H230431   2.615   2.559   2.817 -0.0378  0.7877  1.2253
 2958TIP3   OH230432   0.387   3.206   8.695  0.2390 -0.7350 -0.2442
 2958TIP3    H130433   0.321   3.252   8.747  1.2408 -0.1998  0.5734
 2958TIP3    H230434   0.445   3.165   8.759  2.2824  1.0516 -0.8455
 2959TIP3   OH230435   2.251   6.279   0.127 -1.0921  0.0971  0.7643
 2959TIP3    H130436   2.276   6.221   0.055 -0.3186 -0.6517  1.6211
 2959TIP3    H230437   2.214   6.222   0.194 -0.3493  0.5825  1.6105
 2960TIP3   OH230438   2.661   3.318   0.901 -0.1847  0.4577  0.6168
 2960TIP3    H130439   2.740   3.368   0.923 -0.5944  1.0660  0.7499
 2960TIP3    H230440   2.589   3.371   0.935 -0.7002  0.3240 -0.2205
 2961TIP3   OH230441   1.464   4.132   3.037  0.6824 -0.3036  0.0880
 2961TIP3    H130442   1.514   4.064   2.991  0.7424 -0.0364 -0.2423
 2961TIP3    H230443   1.531   4.189   3.075  0.7205 -1.8820  2.6374
 2962TIP3   OH230444   4.730   4.745   2.960 -0.3833 -0.4649 -0.1597
 2962TIP3    H130445   4.708   4.815   2.899  1.3390  0.8070  0.5848
 2962TIP3    H230446   4.653   4.735   3.015 -0.4999  1.2029  0.0246
 2963TIP3   OH230447   0.780   1.651   8.579 -0.2852 -0.0404 -0.3811
 2963TIP3    H130448   0.789   1.610   8.493  1.1249 -0.1757 -0.2003
 2963TIP3    H230449   0.706   1.605   8.619 -0.1995 -0.8107 -1.0658
 2964TIP3   OH230450   0.701   0.851   2.551  0.2094 -0.0053 -0.3938
 2964TIP3    H130451   0.652   0.771   2.573  0.5279 -0.4744 -1.3005
 2964TIP3    H230452   0.785   0.840   2.594  0.3564 -0.3063 -0.7462
 2965TIP3   OH230453   5.400   4.661   7.874 -0.7829  0.1104  0.1773
 2965TIP3    H130454   5.354   4.741   7.848  0.5400  1.2282  1.1204
 2965TIP3    H230455   5.492   4.680   7.857 -0.5880 -2.0802 -1.6895
 2966TIP3   OH230456   2.173   3.813   0.213  0.9656  0.2420  0.3971
 2966TIP3    H130457   2.221   3.894   0.199  1.7817 -0.0722  1.2710
 2966TIP3    H230458   2.241   3.747   0.230  0.3358 -0.6681 -0.4754
 2967TIP3   OH230459   3.655   0.107   2.378 -0.6878  0.2514 -0.1276
 2967TIP3    H130460   3.582   0.151   2.334 -1.1030  1.0624  1.3029
 2967TIP3    H230461   3.729   0.120   2.320 -1.0595  1.8848 -0.3053
 2968TIP3   OH230462   6.416   1.448   1.239 -0.0008 -0.4313 -0.1965
 2968TIP3    H130463   6.510   1.452   1.255 -0.0257  1.6585 -0.3544
 2968TIP3    H230464   6.405   1.479   1.149 -0.8018 -1.4069 -0.4600
 2969TIP3   OH230465   2.324   4.160   0.760 -0.3026  0.4862 -0.4403
 2969TIP3    H130466   2.249   4.150   0.819 -0.5579 -0.9945 -0.9651
 2969TIP3    H230467   2.400   4.169   0.818 -0.4419 -1.7516  0.1814
 2970TIP3   OH230468   4.395   0.642   1.340 -0.2026  0.2678 -0.5548
 2970TIP3    H130469   4.440   0.571   1.387  0.9967  0.0587 -1.9630
 2970TIP3    H230470   4.367   0.702   1.410  1.8969  0.1884  0.4220
 2971TIP3   OH230471   2.318   1.939   0.612 -0.1493  0.5794  0.2454
 2971TIP3    H130472   2.368   1.875   0.561 -0.5018 -0.1403  0.8013
 2971TIP3    H230473   2.234   1.945   0.567 -0.5539 -0.2456  0.8764
 2972TIP3   OH230474   2.947   1.169   3.008 -0.3430  0.5158  0.1614
 2972TIP3    H130475   2.918   1.141   3.095  0.4186  0.7841  0.5105
 2972TIP3    H230476   3.035   1.132   2.999 -1.3380 -1.6507 -1.5377
 2973TIP3   OH230477   5.051   3.970   8.717  0.2350 -0.2760 -0.6491
 2973TIP3    H130478   5.016   3.882   8.728  1.0609 -0.8507 -2.3333
 2973TIP3    H230479   4.973   4.026   8.706 -0.3752 -0.4739  2.0378
 2974TIP3   OH230480   3.919   3.301   2.124  1.2795  0.5276  0.1783
 2974TIP3    H130481   3.869   3.299   2.205  0.0778 -2.3971 -0.5044
 2974TIP3    H230482   3.924   3.394   2.101  0.2270  1.2927  2.7056
 2975TIP3   OH230483   6.604   0.752   2.449  0.0294 -0.0506 -0.5520
 2975TIP3    H130484   6.600   0.692   2.524  1.7360  0.0332 -0.3536
 2975TIP3    H230485   6.544   0.823   2.472 -1.4881 -1.3006 -0.4752
 2976TIP3   OH230486   1.964   1.601   1.152  0.0798 -0.6403 -0.0348
 2976TIP3    H130487   1.948   1.594   1.246  3.2545  3.8671  1.1726
 2976TIP3    H230488   2.059   1.602   1.144 -0.0420  1.4590 -2.9290
 2977TIP3   OH230489   6.427   4.943   0.244  0.0802 -0.3112 -0.0468
 2977TIP3    H130490   6.333   4.957   0.243  0.0840 -0.2368  0.5117
 2977TIP3    H230491   6.461   4.998   0.173 -0.1699  0.5539  0.4980
 2978TIP3   OH230492   2.176   4.710   8.611 -0.2819  0.7740 -0.6392
 2978TIP3    H130493   2.154   4.737   8.522 -2.3017  1.9949  0.1606
 2978TIP3    H230494   2.104   4.743   8.665  0.2750 -0.9526  1.3067
 2979TIP3   OH230495   2.006   5.637   0.980  0.2642 -0.5120  0.2423
 2979TIP3    H130496   2.066   5.601   1.044 -0.5960 -1.1673  0.7130
 2979TIP3    H230497   1.954   5.701   1.029  1.4817  1.0921 -0.4852
 2980TIP3   OH230498   0.136   5.517   7.833 -0.2083  0.5644  0.2158
 2980TIP3    H130499   0.132   5.424   7.809  0.1594  1.0444 -1.9267
 2980TIP3    H230500   0.200   5.520   7.904  0.3219 -0.7626 -0.1588
 2981TIP3   OH230501   2.610   3.700   3.624 -0.0884  0.3496  0.4148
 2981TIP3    H130502   2.646   3.783   3.594  0.7460 -0.4608 -0.9110
 2981TIP3    H230503   2.520   3.699   3.593  0.9656 -0.8556 -3.1719
 2982TIP3   OH230504   6.586   1.243   0.194  0.2621 -0.1502  0.3116
 2982TIP3    H130505   6.598   1.338   0.203 -1.9889  0.0066  2.4664
 2982TIP3    H230506   6.650   1.205   0.255 -0.1707  0.0686  0.9073
 2983TIP3   OH230507   3.916   4.271   1.929  0.4417  0.9343 -0.3984
 2983TIP3    H130508   3.925   4.238   1.839 -0.9373 -0.0360 -0.2136
 2983TIP3    H230509   4.004   4.303   1.951  1.4749 -1.1105 -1.2099
 2984TIP3   OH230510   2.594   2.822   8.034  0.3532  0.0352 -0.5768
 2984TIP3    H130511   2.660   2.803   7.968  0.4388  0.5549 -0.6480
 2984TIP3    H230512   2.593   2.918   8.041  2.2972 -0.0236  2.1130
 2985TIP3   OH230513   2.511   3.780   1.939  0.4098  0.1789 -0.6032
 2985TIP3    H130514   2.525   3.730   2.019 -1.5467  0.6087  0.0512
 2985TIP3    H230515   2.545   3.723   1.869  1.9936 -0.2632  0.4918
 2986TIP3   OH230516   4.076   3.486   3.337  0.1459  0.0828  0.4880
 2986TIP3    H130517   4.027   3.422   3.390 -0.4812  0.9284  0.9616
 2986TIP3    H230518   4.131   3.532   3.400  0.6609 -0.0390  0.1347
 2987TIP3   OH230519   6.275   0.022   7.707 -0.5884 -0.2246 -0.5838
 2987TIP3    H130520   6.238  -0.044   7.765 -1.5954 -1.2514 -2.3187
 2987TIP3    H230521   6.231   0.008   7.623  1.6478  0.4404 -1.9469
 2988TIP3   OH230522   0.493   3.757   2.175  0.2517  0.1259  0.2881
 2988TIP3    H130523   0.559   3.822   2.153  0.8922 -1.0016 -1.3780
 2988TIP3    H230524   0.543   3.684   2.212  0.1922 -1.2566 -2.1521
 2989TIP3   OH230525   5.814   6.577   8.200 -0.2523 -0.4954 -0.3211
 2989TIP3    H130526   5.783   6.492   8.170  1.0031 -0.6718 -1.1935
 2989TIP3    H230527   5.817   6.632   8.122 -0.4126  0.1534  0.1125
 2990TIP3   OH230528   5.165   5.546   8.259  0.6378 -0.2929 -0.4985
 2990TIP3    H130529   5.239   5.522   8.315 -1.1880 -3.4122  0.8164
 2990TIP3    H230530   5.148   5.638   8.280  2.1259 -0.4263  1.5622
 2991TIP3   OH230531   6.012   5.666   7.979 -0.1098  0.0817 -0.5981
 2991TIP3    H130532   5.970   5.744   7.941 -1.4725  1.2289  2.8687
 2991TIP3    H230533   5.953   5.594   7.956 -0.3736  0.5334 -1.4063
 2992TIP3   OH230534   1.419   5.627   2.954  0.4350 -0.2491 -0.5187
 2992TIP3    H130535   1.441   5.680   3.030  0.3014 -0.3428 -0.4126
 2992TIP3    H230536   1.333   5.659   2.926 -1.8489 -3.2637  2.2381
 2993TIP3   OH230537   3.481   2.260   1.511  0.4069  0.3385  0.4269
 2993TIP3    H130538   3.403   2.286   1.461  0.7635 -0.1830 -0.4307
 2993TIP3    H230539   3.454   2.183   1.561  0.2757  0.3612  0.3910
 2994TIP3   OH230540   2.631   6.763   2.564  0.3561 -0.1031  0.2092
 2994TIP3    H130541   2.633   6.704   2.640 -0.7793 -0.6936 -0.2001
 2994TIP3    H230542   2.618   6.705   2.489  3.0586  0.2970 -0.6646
 2995TIP3   OH230543   4.177   2.306   2.064  0.4797 -0.5405 -0.4810
 2995TIP3    H130544   4.154   2.222   2.025  0.5167 -0.5557 -0.4706
 2995TIP3    H230545   4.195   2.363   1.989  2.1747 -1.0252 -0.4967
 2996TIP3   OH230546   0.391   1.804   0.330 -0.1076  0.0096 -0.2723
 2996TIP3    H130547   0.440   1.804   0.413  1.1332 -1.0223 -0.9496
 2996TIP3    H230548   0.390   1.712   0.304 -1.5700  0.1544 -0.8077
 2997TIP3   OH230549   1.556   0.218   3.251  0.1891 -0.6726 -0.4971
 2997TIP3    H130550   1.565   0.245   3.342  0.0849  0.3187 -0.7695
 2997TIP3    H230551   1.484   0.271   3.217 -0.2505 -1.5353 -0.9763
 2998TIP3   OH230552   4.910   6.472   0.433  0.1607 -0.5263  0.1445
 2998TIP3    H130553   4.878   6.524   0.506  0.9881 -1.1770  1.0055
 2998TIP3    H230554   4.839   6.473   0.369  0.7461  3.0261 -0.6646
 2999TIP3   OH230555   3.518   1.706   3.419 -1.0440  0.4860 -0.4963
 2999TIP3    H130556   3.593   1.681   3.365 -0.4665 -0.3628  0.6566
 2999TIP3    H230557   3.531   1.659   3.501 -1.8047  1.8708  0.4659
 3000TIP3   OH230558   2.909   3.247   0.644  0.2056 -0.2047 -0.0480
 3000TIP3    H130559   2.949   3.331   0.664 -2.3040  0.9184  0.5817
 3000TIP3    H230560   2.864   3.261   0.560  0.8213 -1.3352 -0.5953
 3001TIP3   OH230561   5.052   5.348   0.154  0.3412  0.6422  0.5203
 3001TIP3    H130562   5.120   5.295   0.197  0.9205  0.5103 -0.5361
 3001TIP3    H230563   5.052   5.318   0.063 -0.4549  1.3378  0.2791
 3002TIP3   OH230564   0.609   4.579   1.028  0.4683  0.1001  0.6186
 3002TIP3    H130565   0.705   4.573   1.034  0.5918 -1.2598 -1.5588
 3002TIP3    H230566   0.593   4.648   0.964  0.1007 -0.9889 -0.5073
 3003TIP3   OH230567   2.869   3.091   8.201 -0.2059 -0.0272  0.0879
 3003TIP3    H130568   2.848   3.082   8.108 -1.5700  1.1230  0.2392
 3003TIP3    H230569   2.835   3.012   8.242  0.3016 -0.4853 -0.3589
 3004TIP3   OH230570   6.173   1.723   8.722 -0.3120 -0.0227 -0.2008
 3004TIP3    H130571   6.214   1.768   8.649  1.4273  0.6011  1.0859
 3004TIP3    H230572   6.246   1.692   8.775 -1.5067 -0.4790  1.2641
 3005TIP3   OH230573   3.666   6.633   8.585 -0.5592 -0.0128  0.6824
 3005TIP3    H130574   3.694   6.699   8.521 -0.9959 -0.8996 -0.4441
 3005TIP3    H230575   3.720   6.651   8.663 -1.2057  2.1520  0.6937
 3006TIP3   OH230576   2.677   2.327   1.622  0.0737  0.0245 -0.3730
 3006TIP3    H130577   2.687   2.299   1.713  0.6413 -0.5577 -0.6117
 3006TIP3    H230578   2.766   2.343   1.591 -0.1189  0.2807 -0.8126
 3007TIP3   OH230579   0.682   5.970   0.103  0.9405 -0.7394 -0.1556
 3007TIP3    H130580   0.601   5.947   0.057  0.2023  0.6469  0.4149
 3007TIP3    H230581   0.743   5.901   0.078 -0.5680 -2.1404 -0.1564
 3008TIP3   OH230582   0.636   2.682   0.792  0.3162 -0.0789  0.3642
 3008TIP3    H130583   0.707   2.623   0.818  1.7834  1.2187 -0.5153
 3008TIP3    H230584   0.612   2.727   0.873  1.0236  0.0058  0.5356
 3009TIP3   OH230585   2.050   4.867   2.700 -0.6474 -0.0674  0.3123
 3009TIP3    H130586   2.122   4.811   2.728 -0.0556  0.6361  0.2134
 3009TIP3    H230587   2.069   4.953   2.738 -2.2988 -0.2545  1.6798
 3010TIP3   OH230588   5.671   4.481   0.640  0.1292  0.3182 -0.5899
 3010TIP3    H130589   5.690   4.388   0.626 -0.9957  0.0951 -0.7353
 3010TIP3    H230590   5.753   4.526   0.618  1.7437 -0.8315  2.4033
 3011TIP3   OH230591   5.720   1.749   2.305 -0.2579 -0.5756 -0.4456
 3011TIP3    H130592   5.756   1.701   2.231  1.4690  0.7297 -0.5192
 3011TIP3    H230593   5.655   1.808   2.267  0.0984 -0.4274 -0.8269
 3012TIP3   OH230594   2.840   2.748   8.558  0.0679  0.0932  0.9023
 3012TIP3    H130595   2.794   2.702   8.628 -1.2934  1.3678  0.9055
 3012TIP3    H230596   2.931   2.723   8.569 -0.2296 -0.3745  2.6325
 3013TIP3   OH230597   3.334   2.755   2.471 -0.3707 -0.5238 -0.2727
 3013TIP3    H130598   3.305   2.799   2.391 -2.0547 -1.2031 -0.0697
 3013TIP3    H230599   3.404   2.811   2.505 -2.0565  1.7631 -0.2992
 3014TIP3   OH230600   0.042   2.175   1.433 -0.4606  0.2056 -0.3695
 3014TIP3    H130601   0.128   2.216   1.423 -1.2976  2.2472  0.3540
 3014TIP3    H230602   0.008   2.169   1.343  0.1895 -0.1055 -0.6042
 3015TIP3   OH230603   0.424   5.512   8.248 -0.4201  0.5831 -0.6012
 3015TIP3    H130604   0.329   5.505   8.239 -0.4241  1.9973 -1.8347
 3015TIP3    H230605   0.439   5.601   8.278  0.6439  1.2605 -2.9446
 3016TIP3   OH230606   2.135   2.323   3.941  0.2903  0.0688 -0.7065
 3016TIP3    H130607   2.045   2.355   3.932  0.3429  0.3771 -0.1501
 3016TIP3    H230608   2.189   2.396   3.910  0.3443 -0.2370 -1.3546
 3017TIP3   OH230609   4.904   6.280   1.445  0.0616 -0.3930 -0.0116
 3017TIP3    H130610   4.857   6.229   1.511 -0.5584  0.9251  0.6165
 3017TIP3    H230611   4.971   6.327   1.495 -0.0385  0.1739 -0.4007
 3018TIP3   OH230612   5.985   0.257   1.743  0.0227  0.0251 -0.3824
 3018TIP3    H130613   5.896   0.291   1.738 -1.1038 -2.6291  0.2566
 3018TIP3    H230614   6.003   0.251   1.837  0.5474 -0.2922 -0.5019
 3019TIP3   OH230615   4.092   2.586   4.322  0.3411  0.3568 -0.2272
 3019TIP3    H130616   4.139   2.503   4.327  0.2258  0.3022 -0.0643
 3019TIP3    H230617   4.153   2.645   4.278 -0.2489 -0.3045 -2.0194
 3020TIP3   OH230618   1.217   1.812   3.044 -0.3134  0.2123 -0.4350
 3020TIP3    H130619   1.287   1.769   2.996 -0.1215  1.8748 -1.7261
 3020TIP3    H230620   1.180   1.743   3.099  1.6089 -0.9613 -0.5202
 3021TIP3   OH230621   1.687   0.948   0.530 -0.0925  0.1325  0.0184
 3021TIP3    H130622   1.703   0.872   0.586  0.3111 -0.6185 -1.0685
 3021TIP3    H230623   1.675   0.911   0.443 -0.4799  1.2840 -0.4382
 3022TIP3   OH230624   1.343   2.390   3.367  0.0930  0.1757 -0.2571
 3022TIP3    H130625   1.334   2.485   3.359  2.1622  0.3839 -0.5998
 3022TIP3    H230626   1.301   2.369   3.451  1.5280  1.7290  0.9248
 3023TIP3   OH230627   0.517   0.139   3.976  0.0347  0.3403 -0.1614
 3023TIP3    H130628   0.529   0.144   3.881  0.0184 -1.6627 -0.3237
 3023TIP3    H230629   0.428   0.105   3.987  0.4441 -0.5768  0.5007
 3024TIP3   OH230630   0.163   2.188   2.750 -0.0030  0.6932  1.0316
 3024TIP3    H130631   0.134   2.100   2.776 -0.3683  0.5634  0.2142
 3024TIP3    H230632   0.193   2.177   2.660  0.5970  1.2720  1.1613
 3025TIP3   OH230633   3.456   3.744   3.101 -0.4166  0.2623 -0.0198
 3025TIP3    H130634   3.531   3.784   3.145  0.4496 -0.9917 -0.2908
 3025TIP3    H230635   3.384   3.756   3.162  0.4624 -0.2681  1.1647
 3026TIP3   OH230636   4.341   0.098   0.537  0.2270 -0.6138 -0.0837
 3026TIP3    H130637   4.253   0.124   0.564  0.3928 -0.8873  0.7384
 3026TIP3    H230638   4.345   0.122   0.444 -0.3683  0.3056  0.1135
 3027TIP3   OH230639   1.162   1.007   8.519 -0.1627 -0.5007 -0.5155
 3027TIP3    H130640   1.134   0.922   8.552 -0.5731  0.5734  2.1201
 3027TIP3    H230641   1.085   1.063   8.527  0.1847  0.2266 -1.9414
 3028TIP3   OH230642   4.599   2.172   0.608 -0.1728 -0.5701 -0.5458
 3028TIP3    H130643   4.607   2.173   0.513 -0.3015  0.4163 -0.5546
 3028TIP3    H230644   4.651   2.096   0.636 -1.2928 -1.7236 -1.4841
 3029TIP3   OH230645   1.241   5.110   0.693  0.0193  0.1114 -0.1180
 3029TIP3    H130646   1.214   5.197   0.720 -0.6139  0.2027 -0.9830
 3029TIP3    H230647   1.336   5.108   0.706  0.0641  1.0070 -0.2917
 3030TIP3   OH230648   0.232   3.905   1.465  0.0030 -0.2127 -0.7433
 3030TIP3    H130649   0.211   3.811   1.464  0.4605 -0.3223 -1.6861
 3030TIP3    H230650   0.240   3.926   1.558 -1.6878 -0.7267 -0.4333
 3031TIP3   OH230651   2.618   1.204   0.188 -0.2331 -0.4695 -0.4512
 3031TIP3    H130652   2.629   1.158   0.104 -2.5434  1.2206 -1.7750
 3031TIP3    H230653   2.693   1.263   0.193  0.2718 -1.0470 -0.9718
 3032TIP3   OH230654   1.099   4.221   2.150 -0.3242 -0.2171  0.0199
 3032TIP3    H130655   1.185   4.186   2.175  0.0006  0.3954 -0.2134
 3032TIP3    H230656   1.090   4.201   2.057  0.5390  1.5867 -0.5191
 3033TIP3   OH230657   3.269   0.416   0.959 -0.0283 -0.6938  0.1840
 3033TIP3    H130658   3.348   0.442   1.007  0.6779 -0.7652 -0.8964
 3033TIP3    H230659   3.199   0.467   0.999  0.9040  0.9679 -0.2020
 3034TIP3   OH230660   0.996   4.694   2.221  0.5980  0.1500  0.2504
 3034TIP3    H130661   1.062   4.743   2.270  0.3348  1.7596 -0.9021
 3034TIP3    H230662   0.941   4.762   2.182 -1.0601 -1.1390  0.2602
 3035TIP3   OH230663   3.702   5.782   8.367 -0.0405 -0.1867  0.1986
 3035TIP3    H130664   3.692   5.774   8.273  0.8781 -1.1633  0.1635
 3035TIP3    H230665   3.730   5.695   8.396  0.9124  0.4249  1.1993
 3036TIP3   OH230666   0.709   1.487   2.183  0.9160  0.1370 -0.5894
 3036TIP3    H130667   0.723   1.420   2.116 -0.1383 -0.8274  0.1212
 3036TIP3    H230668   0.732   1.443   2.265  3.0021  1.5541 -0.3467
 3037TIP3   OH230669   5.396   6.681   3.610 -0.1386 -0.0315 -0.7169
 3037TIP3    H130670   5.421   6.590   3.598  0.9964  0.5041 -2.9466
 3037TIP3    H230671   5.304   6.685   3.586 -0.0024 -0.4835 -1.3389
 3038TIP3   OH230672   4.126   1.979   0.232 -0.0141  0.6979 -0.3344
 3038TIP3    H130673   4.098   1.888   0.228  0.9813  0.4273 -1.5929
 3038TIP3    H230674   4.076   2.016   0.305  1.4408 -1.5053  1.9464
 3039TIP3   OH230675   0.019   0.051   0.270 -0.4113  0.2479 -0.4609
 3039TIP3    H130676   0.033   0.107   0.194 -1.5955 -0.1534 -1.0040
 3039TIP3    H230677  -0.064   0.081   0.307 -0.9437 -0.9647 -0.6199
 3040TIP3   OH230678   4.197   0.526   1.596  0.0338 -0.2704  0.2204
 3040TIP3    H130679   4.270   0.465   1.589 -0.0853 -0.6027  1.6015
 3040TIP3    H230680   4.224   0.589   1.663  0.3896  1.5781 -1.5426
 3041TIP3   OH230681   4.000   3.124   1.625  0.7238 -0.9258  0.1133
 3041TIP3    H130682   3.988   3.033   1.650 -2.2413 -0.8342 -0.5690
 3041TIP3    H230683   4.001   3.123   1.529 -0.5001 -0.1686  0.0745
 3042TIP3   OH230684   3.708   5.668   0.805  0.3078 -0.1709  0.4987
 3042TIP3    H130685   3.691   5.613   0.729  2.1337 -0.5775  0.3496
 3042TIP3    H230686   3.711   5.608   0.879  0.2243 -0.0040  0.6394
 3043TIP3   OH230687   3.486   2.875   4.095 -0.0942 -0.5014 -0.1884
 3043TIP3    H130688   3.429   2.897   4.021 -0.3868 -0.8908 -0.0810
 3043TIP3    H230689   3.468   2.942   4.161 -0.4478 -0.6381 -0.1448
 3044TIP3   OH230690   5.794   2.959   1.310  0.4650  1.0657  0.8754
 3044TIP3    H130691   5.889   2.972   1.307  0.5671  0.2014  0.0101
 3044TIP3    H230692   5.759   3.045   1.331  1.5021  1.1407  2.4454
 3045TIP3   OH230693   2.568   1.727   3.728 -0.3263  0.4749 -0.5561
 3045TIP3    H130694   2.649   1.691   3.693 -0.3329  0.7099 -0.8264
 3045TIP3    H230695   2.588   1.750   3.818  0.3057  1.7163 -0.9742
 3046TIP3   OH230696   4.741   6.079   2.829 -0.5459 -0.5567  0.6270
 3046TIP3    H130697   4.686   6.073   2.907 -0.6881  0.6831  0.6382
 3046TIP3    H230698   4.742   5.990   2.794 -1.6379 -0.8364  1.2503
 3047TIP3   OH230699   6.434   0.161   2.816 -0.1137  0.2039  0.4989
 3047TIP3    H130700   6.374   0.187   2.746  0.4125  1.0737  0.3514
 3047TIP3    H230701   6.416   0.069   2.831 -1.4759  0.4443  0.4464
 3048TIP3   OH230702   1.835   4.269   2.711  0.3476 -0.1764 -0.1667
 3048TIP3    H130703   1.806   4.226   2.792 -0.4638  0.2720 -0.2119
 3048TIP3    H230704   1.761   4.325   2.685  1.2646  1.0329 -0.2646
 3049TIP3   OH230705   1.137   6.360   2.306  0.0577  0.1067 -0.0448
 3049TIP3    H130706   1.173   6.365   2.395  0.4410 -0.7356 -0.1445
 3049TIP3    H230707   1.206   6.317   2.255 -0.3176  0.2378 -0.6706
 3050TIP3   OH230708   5.463   1.313   0.995 -0.0024  0.1807 -0.0243
 3050TIP3    H130709   5.449   1.406   0.977  0.0751 -0.0977 -1.7035
 3050TIP3    H230710   5.547   1.309   1.041  0.5052  0.8807 -0.8582
 3051TIP3   OH230711   0.426   4.802   1.742 -0.8228 -0.7042  0.2705
 3051TIP3    H130712   0.512   4.799   1.702 -0.5133 -0.3014  0.8913
 3051TIP3    H230713   0.367   4.765   1.676 -0.4305  0.5294 -0.8153
 3052TIP3   OH230714   5.580   0.069   3.721 -0.8220 -0.0494 -0.1038
 3052TIP3    H130715   5.523   0.009   3.672 -1.1698  1.6924 -1.9358
 3052TIP3    H230716   5.531   0.087   3.802 -2.1021  0.0636 -0.8658
 3053TIP3   OH230717   6.651   4.088   2.852 -0.4280 -0.0140  0.3089
 3053TIP3    H130718   6.688   4.012   2.897 -0.2980 -0.9377 -1.2980
 3053TIP3    H230719   6.570   4.107   2.900 -0.8138 -1.6039  0.3203
 3054TIP3   OH230720   6.279   2.141   8.461  0.2764 -0.3938 -0.4321
 3054TIP3    H130721   6.211   2.095   8.411 -2.3224  1.8988  0.7283
 3054TIP3    H230722   6.332   2.185   8.394 -3.2407  2.7755 -1.4889
 3055TIP3   OH230723   6.129   1.228   1.970 -0.2167  0.4338  0.6268
 3055TIP3    H130724   6.049   1.276   1.948  0.0169  0.1553 -0.9674
 3055TIP3    H230725   6.098   1.141   1.997 -0.4628  0.1681 -0.4486
 3056TIP3   OH230726   5.341   1.287   7.990 -0.6366 -0.0939 -0.0270
 3056TIP3    H130727   5.345   1.304   7.896 -0.4891 -0.9173 -0.1833
 3056TIP3    H230728   5.320   1.371   8.030 -1.4764  0.1039 -0.8609
 3057TIP3   OH230729   2.517   5.279   0.427  0.7324  0.6971  0.8230
 3057TIP3    H130730   2.609   5.288   0.452  1.0854 -0.8273  0.1483
 3057TIP3    H230731   2.519   5.240   0.340 -0.5286 -2.5197  2.0875
 3058TIP3   OH230732   0.884   1.008   0.310  0.1891  0.1417 -0.0741
 3058TIP3    H130733   0.892   0.914   0.331 -3.4981 -0.3696 -0.2869
 3058TIP3    H230734   0.894   1.012   0.215 -1.2459 -0.3700 -0.2808
 3059TIP3   OH230735   0.643   4.998   1.037  0.4315 -0.7869  0.1339
 3059TIP3    H130736   0.690   5.005   0.954  0.5217 -1.2090  0.1459
 3059TIP3    H230737   0.708   5.023   1.103 -0.1878  1.4921 -0.0395
 3060TIP3   OH230738   5.532   1.287   8.442 -0.5724 -0.4126 -0.0246
 3060TIP3    H130739   5.567   1.284   8.353 -1.4710 -0.9640 -0.3737
 3060TIP3    H230740   5.579   1.359   8.484  1.6581 -1.7263 -0.1464
 3061TIP3   OH230741   6.346   1.255   7.997  0.6212  0.4284 -0.0680
 3061TIP3    H130742   6.311   1.344   8.001 -0.4833  0.0532 -1.0023
 3061TIP3    H230743   6.289   1.204   8.055  0.6296  0.1265 -0.3255
 3062TIP3   OH230744   5.647   2.000   8.415 -0.4712  0.1081  0.1484
 3062TIP3    H130745   5.552   2.005   8.407 -0.3195  1.4533 -1.3724
 3062TIP3    H230746   5.670   1.914   8.381 -1.1154 -0.0821  0.1833
 3063TIP3   OH230747   5.286   1.743   2.824 -0.1556  0.3282  0.0247
 3063TIP3    H130748   5.322   1.719   2.910  1.7991 -1.4184 -1.1768
 3063TIP3    H230749   5.343   1.814   2.794  0.4115 -0.3632 -0.5877
 3064TIP3   OH230750   3.807   6.758   0.077  0.0339 -0.1884 -0.9844
 3064TIP3    H130751   3.776   6.848   0.079 -0.6348 -0.4003  1.1946
 3064TIP3    H230752   3.753   6.713   0.143  2.9416 -1.2346  0.8796
 3065TIP3   OH230753   0.354   5.156   0.475 -0.3369 -0.4122 -0.7652
 3065TIP3    H130754   0.400   5.082   0.435 -0.9972 -0.7170 -0.9848
 3065TIP3    H230755   0.319   5.121   0.557  2.2571  0.6050  0.8767
 3066TIP3   OH230756   2.225   5.036   1.749  0.5978 -0.6086 -0.4408
 3066TIP3    H130757   2.180   5.058   1.668  1.3743  1.2055 -0.4340
 3066TIP3    H230758   2.171   5.077   1.818  1.3793  0.2246 -0.3045
 3067TIP3   OH230759   0.269   6.553   1.812  0.4507  0.0809  0.1633
 3067TIP3    H130760   0.322   6.532   1.735  1.3262 -0.8891  0.9976
 3067TIP3    H230761   0.313   6.629   1.851  0.0047  0.5751 -0.2802
 3068TIP3   OH230762   1.603   5.826   1.299  0.3070 -1.0153 -0.4071
 3068TIP3    H130763   1.582   5.784   1.382  2.2901 -0.0929  0.6118
 3068TIP3    H230764   1.541   5.899   1.292 -1.1390 -2.2180 -0.7314
 3069TIP3   OH230765   6.110   6.181   8.657  0.2268 -0.2280  0.2853
 3069TIP3    H130766   6.161   6.102   8.674  1.1351  0.1135 -0.7283
 3069TIP3    H230767   6.086   6.213   8.744  0.0097 -1.4895  0.7198
 3070TIP3   OH230768   5.242   5.091   2.433 -0.4662 -0.6520 -0.1957
 3070TIP3    H130769   5.256   5.024   2.501  0.5056 -0.3461 -0.0731
 3070TIP3    H230770   5.157   5.129   2.454 -0.6932 -1.3456  0.1764
 3071TIP3   OH230771   1.893   3.616   1.217 -0.0051  0.2728  0.1243
 3071TIP3    H130772   1.807   3.640   1.249 -1.1177 -0.4126 -2.1265
 3071TIP3    H230773   1.922   3.692   1.166 -1.4460 -1.0815 -3.0186
 3072TIP3   OH230774   2.960   6.614   0.354  0.6201 -0.4990  0.3645
 3072TIP3    H130775   2.955   6.669   0.276  4.1367 -0.7518 -0.2023
 3072TIP3    H230776   2.915   6.533   0.329  2.2738 -0.8587 -1.7235
 3073TIP3   OH230777   3.566   2.016   0.958 -0.5634  0.2228 -0.1830
 3073TIP3    H130778   3.546   2.018   1.051  0.7475  0.8178  0.1189
 3073TIP3    H230779   3.614   2.098   0.942  1.1706 -0.8562 -0.8798
 3074TIP3   OH230780   0.193   5.461   2.515 -0.1019  0.0173  0.1557
 3074TIP3    H130781   0.281   5.477   2.548 -0.9178  0.1701  2.4022
 3074TIP3    H230782   0.154   5.547   2.506 -0.2069 -0.0783 -0.3571
 3075TIP3   OH230783   4.450   6.550   1.564 -0.3249 -0.0848  0.2518
 3075TIP3    H130784   4.490   6.569   1.649  1.5108 -0.8051 -0.3777
 3075TIP3    H230785   4.359   6.579   1.572  0.1782  1.1836  1.9699
 3076TIP3   OH230786   2.485   4.465   0.064  0.0962  0.6003  0.1547
 3076TIP3    H130787   2.485   4.428   0.152 -0.6828 -0.4988 -0.2839
 3076TIP3    H230788   2.470   4.558   0.077  2.3962  0.8657  1.3084
 3077TIP3   OH230789   2.148   1.486   0.207  0.1554  0.3904  0.5139
 3077TIP3    H130790   2.147   1.483   0.303 -0.4707 -0.1730  0.4948
 3077TIP3    H230791   2.228   1.440   0.183  0.1177  0.1944  0.7568
 3078TIP3   OH230792   6.505   5.320   0.338  0.0469  0.0839  0.2149
 3078TIP3    H130793   6.455   5.268   0.400  0.3649 -1.9468 -1.1549
 3078TIP3    H230794   6.597   5.299   0.357  0.1967  0.3558 -0.1879
 3079TIP3   OH230795   6.542   3.041   8.411 -0.0342  0.5275  0.9134
 3079TIP3    H130796   6.619   2.985   8.400  1.0427  2.3142 -1.7488
 3079TIP3    H230797   6.476   3.004   8.352 -1.3753 -1.0930  3.3051
 3080TIP3   OH230798   5.013   2.296   2.334  0.0605 -0.1877  0.1309
 3080TIP3    H130799   4.936   2.350   2.353 -0.2652 -0.8015  0.6106
 3080TIP3    H230800   4.983   2.206   2.346  0.5440 -0.4943 -0.8472
 3081TIP3   OH230801   2.947   2.975   2.008  0.0988  0.0046  0.0235
 3081TIP3    H130802   3.009   2.903   1.995 -1.2195 -1.2119  0.1103
 3081TIP3    H230803   2.889   2.970   1.932  0.7147  1.8074 -0.6101
 3082TIP3   OH230804   5.635   0.279   2.874  0.3484  0.3239  0.0514
 3082TIP3    H130805   5.684   0.317   2.946  0.7559 -1.8311  0.9722
 3082TIP3    H230806   5.663   0.188   2.870 -0.0395  0.2305 -2.5260
 3083TIP3   OH230807   3.901   1.070   0.309  0.1553 -0.3189 -0.0690
 3083TIP3    H130808   3.984   1.052   0.352 -0.0450  2.3313  1.6692
 3083TIP3    H230809   3.835   1.026   0.362  0.1449  0.9325  1.0241
 3084TIP3   OH230810   4.967   5.998   1.406 -0.1559  0.1873 -0.2214
 3084TIP3    H130811   4.942   6.002   1.314 -1.7156  0.9057  0.1930
 3084TIP3    H230812   4.896   5.951   1.448 -0.5767  1.7658  0.9391
 3085TIP3   OH230813   2.800   3.920   1.511 -0.6474  0.0399  0.3193
 3085TIP3    H130814   2.870   3.924   1.446  0.0631 -1.0383  0.9893
 3085TIP3    H230815   2.745   3.847   1.482 -0.7322  0.0118  0.5521
 3086TIP3   OH230816   0.422   4.253   0.788  0.5302  0.1875  0.2060
 3086TIP3    H130817   0.419   4.338   0.743  1.0411  0.4489  0.6498
 3086TIP3    H230818   0.349   4.204   0.750  1.1820  0.2490 -1.1858
 3087TIP3   OH230819   4.554   2.093   3.787 -0.1381  0.0668 -0.0822
 3087TIP3    H130820   4.579   2.132   3.704 -0.2606 -0.3606 -0.3235
 3087TIP3    H230821   4.625   2.033   3.809 -0.3880 -0.2707 -0.1822
 3088TIP3   OH230822   5.552   5.044   8.573 -0.2359  0.1818 -0.3036
 3088TIP3    H130823   5.518   5.044   8.483 -1.8871 -0.2227  0.2793
 3088TIP3    H230824   5.491   5.101   8.621 -1.2436 -2.0251  1.1823
 3089TIP3   OH230825   6.406   3.635   1.430 -0.1435 -0.1158 -0.7441
 3089TIP3    H130826   6.363   3.641   1.344 -0.4730 -1.8964 -0.7456
 3089TIP3    H230827   6.448   3.720   1.442 -2.4507  1.2219 -1.3908
 3090TIP3   OH230828   0.738   2.428   0.602 -0.4338 -0.6696 -0.3843
 3090TIP3    H130829   0.664   2.379   0.566  0.6470 -1.8014 -1.1441
 3090TIP3    H230830   0.814   2.397   0.553  0.4957  0.8434  0.0123
 3091TIP3   OH230831   0.976   5.391   0.130  0.5466  0.0462 -0.2372
 3091TIP3    H130832   0.972   5.296   0.119  1.1251  0.0883 -0.8530
 3091TIP3    H230833   1.066   5.408   0.158 -0.4414  0.0862  3.3535
 3092TIP3   OH230834   3.216   4.566   8.323 -0.4618  0.1630  0.2102
 3092TIP3    H130835   3.132   4.596   8.287 -0.1565  0.3273 -0.3683
 3092TIP3    H230836   3.269   4.546   8.247 -0.0641 -0.2037  0.5805
 3093TIP3   OH230837   6.808   1.393   8.599  0.2025  0.1021 -0.5733
 3093TIP3    H130838   6.812   1.363   8.508 -2.5686  1.0200 -1.0731
 3093TIP3    H230839   6.782   1.315   8.648 -1.6508  0.3506 -1.0979
 3094TIP3   OH230840   5.928   3.957   2.141 -0.8236  0.4055  0.2407
 3094TIP3    H130841   5.910   3.865   2.121 -0.5509  0.5220 -0.5665
 3094TIP3    H230842   6.014   3.974   2.104 -0.9498  1.0374  0.2208
 3095TIP3   OH230843   5.614   2.787   1.541 -0.1200  0.3498 -0.8645
 3095TIP3    H130844   5.683   2.721   1.536 -0.4877 -0.3352  1.6810
 3095TIP3    H230845   5.651   2.864   1.498  1.7964 -0.3675 -0.5956
 3096TIP3   OH230846   1.755   1.445   1.282  0.2022  0.6293 -0.9794
 3096TIP3    H130847   1.704   1.407   1.354  1.0883 -0.6306 -0.9812
 3096TIP3    H230848   1.829   1.385   1.271  1.8724  2.5445 -0.7572
 3097TIP3   OH230849   4.467   0.265   8.707 -0.2060 -0.3023  0.4995
 3097TIP3    H130850   4.391   0.212   8.683 -1.3830  1.6167 -0.1758
 3097TIP3    H230851   4.446   0.298   8.794 -0.3918  0.6584  0.0942
 3098TIP3   OH230852   2.242   6.033   2.250 -0.0922  0.0122 -0.3016
 3098TIP3    H130853   2.184   6.089   2.301 -0.3009  0.4288 -0.9888
 3098TIP3    H230854   2.323   6.030   2.300 -0.0935  0.8923 -0.2403
 3099TIP3   OH230855   0.340   0.154   3.603 -0.2387  0.1435 -0.2644
 3099TIP3    H130856   0.329   0.112   3.518 -0.6148  0.0268 -0.1631
 3099TIP3    H230857   0.252   0.186   3.625 -0.0684  0.4984 -0.0895
 3100TIP3   OH230858   4.810   0.688   8.314  0.1001 -0.5597 -0.3191
 3100TIP3    H130859   4.905   0.702   8.305  0.0127 -0.2525 -0.7853
 3100TIP3    H230860   4.770   0.761   8.266 -0.3733 -0.7605 -0.2351
 3101TIP3   OH230861   2.676   2.701   3.127 -0.3449  0.3121 -0.2890
 3101TIP3    H130862   2.681   2.793   3.153 -2.6553  0.6317 -0.7437
 3101TIP3    H230863   2.629   2.659   3.198 -1.0577 -0.0859 -0.9755
 3102TIP3   OH230864   6.055   1.459   1.118  0.6516 -0.0615  0.1080
 3102TIP3    H130865   6.010   1.539   1.089 -1.4116 -1.3792 -0.6011
 3102TIP3    H230866   6.147   1.475   1.097  0.4334  2.3980  0.6747
 3103TIP3   OH230867   1.038   4.807   0.024  0.1958 -0.0150 -0.0553
 3103TIP3    H130868   1.125   4.803  -0.017  0.6017  0.5297  0.7383
 3103TIP3    H230869   0.982   4.845  -0.043  0.6240 -0.1258 -0.4826
 3104TIP3   OH230870   2.495   6.422   2.689  0.3852  0.0585  0.7921
 3104TIP3    H130871   2.531   6.480   2.757 -1.9673  0.0777  2.1321
 3104TIP3    H230872   2.406   6.456   2.674 -0.5955 -2.4053  0.6730
 3105TIP3   OH230873   3.485   0.951   3.532  0.0860 -0.5500 -0.4891
 3105TIP3    H130874   3.420   0.925   3.597  0.8993 -1.2929  0.0390
 3105TIP3    H230875   3.566   0.961   3.581  0.4705 -0.0165 -1.2124
 3106TIP3   OH230876   0.925   1.654   1.783 -0.1025  0.0816  0.3537
 3106TIP3    H130877   1.002   1.600   1.767  0.8289  0.7763  2.2122
 3106TIP3    H230878   0.851   1.592   1.778  0.7750 -1.0359  0.7992
 3107TIP3   OH230879   1.576   1.968   2.194  0.3145  0.4850  0.1131
 3107TIP3    H130880   1.483   1.969   2.171  0.1691 -2.5561  0.1628
 3107TIP3    H230881   1.578   1.934   2.283  1.4803  0.6872  0.1745
 3108TIP3   OH230882   4.888   1.103   1.478 -0.2137  0.2342 -0.2410
 3108TIP3    H130883   4.857   1.107   1.387 -0.2734 -0.2675 -0.2428
 3108TIP3    H230884   4.904   1.195   1.501 -0.0196  0.3559 -0.8200
 3109TIP3   OH230885   0.934   3.953   0.012 -0.1696  0.2933  0.4467
 3109TIP3    H130886   0.981   4.007  -0.053  0.3076  0.8278  1.2185
 3109TIP3    H230887   0.848   3.993   0.018 -0.3186  0.0624 -0.0691
 3110TIP3   OH230888   1.790   6.326   0.870  0.4483 -0.4496  0.2674
 3110TIP3    H130889   1.794   6.393   0.938 -2.3557 -2.0582  2.2441
 3110TIP3    H230890   1.716   6.353   0.815  0.3064 -1.0656  0.1451
 3111TIP3   OH230891   2.866   3.539   3.452  0.2059 -0.2901  0.5943
 3111TIP3    H130892   2.928   3.601   3.488  2.2924 -1.9497  0.0882
 3111TIP3    H230893   2.832   3.492   3.528 -1.0659  1.1088  0.9381
 3112TIP3   OH230894   6.482   3.820   8.501  0.5432 -0.5231  0.3721
 3112TIP3    H130895   6.443   3.733   8.490 -2.7869  0.9340 -0.8597
 3112TIP3    H230896   6.491   3.831   8.596  0.2005 -1.9080  0.5841
 3113TIP3   OH230897   1.703   6.312   4.047  0.0779  0.3965 -0.3083
 3113TIP3    H130898   1.733   6.253   4.115 -0.1827  0.6756  0.0534
 3113TIP3    H230899   1.630   6.266   4.005 -3.4230  2.2796  3.0827
 3114TIP3   OH230900   5.660   2.547   8.013 -0.1321 -0.4079  0.2422
 3114TIP3    H130901   5.597   2.618   8.000  0.6496  0.3574  0.5187
 3114TIP3    H230902   5.636   2.482   7.947 -1.6821 -0.4865  0.8465
 3115TIP3   OH230903   5.709   0.406   2.300  0.1031  0.2233  0.5894
 3115TIP3    H130904   5.790   0.446   2.332 -0.8476  2.3177  0.5737
 3115TIP3    H230905   5.736   0.322   2.264  1.9655 -0.0124  2.3495
 3116TIP3   OH230906   4.071   5.719   0.746 -0.2969 -0.1955 -0.2145
 3116TIP3    H130907   3.993   5.750   0.792 -1.1599  0.9545 -2.2862
 3116TIP3    H230908   4.130   5.795   0.745 -0.5531  0.0122 -1.4732
 3117TIP3   OH230909   5.429   4.231   0.652  0.2019 -0.1618  0.9727
 3117TIP3    H130910   5.515   4.193   0.637 -0.0429 -1.4446  2.5144
 3117TIP3    H230911   5.443   4.326   0.651  1.1788 -0.2861 -1.1040
 3118TIP3   OH230912   1.270   6.654   3.230 -0.3810  0.1067  0.0554
 3118TIP3    H130913   1.223   6.621   3.306  0.8760  0.0941  0.8455
 3118TIP3    H230914   1.342   6.707   3.266 -0.2689  0.8189 -1.1265
 3119TIP3   OH230915   5.107   0.880   0.630  0.2001  0.5109  0.4501
 3119TIP3    H130916   5.021   0.843   0.606  0.5348  0.9949 -1.6993
 3119TIP3    H230917   5.108   0.878   0.725 -2.8909  1.9790  0.6453
 3120TIP3   OH230918   2.163   2.084   1.859 -0.6484  0.2503  0.2073
 3120TIP3    H130919   2.182   1.999   1.899 -0.6570  0.1217 -0.0647
 3120TIP3    H230920   2.249   2.123   1.842 -0.5170 -1.0145 -2.5213
 3121TIP3   OH230921   1.954   4.056   1.666  0.2988  0.2789 -0.0535
 3121TIP3    H130922   1.947   3.963   1.690 -0.2347  0.1367 -0.7145
 3121TIP3    H230923   1.887   4.100   1.718 -1.5175 -0.1666 -1.8669
 3122TIP3   OH230924   5.886   6.261   1.420 -0.1042 -0.0969  0.3419
 3122TIP3    H130925   5.854   6.312   1.345 -0.8299 -1.3471 -0.2377
 3122TIP3    H230926   5.808   6.215   1.452  0.7237 -1.7375  0.1037
 3123TIP3   OH230927   2.468   5.267   0.800 -0.0415 -0.6161 -0.0123
 3123TIP3    H130928   2.551   5.280   0.756  0.4374  0.7756  1.2029
 3123TIP3    H230929   2.491   5.225   0.883 -0.9107 -3.0939 -0.9382
 3124TIP3   OH230930   1.552   0.361   0.009  0.1014 -0.4331  0.2568
 3124TIP3    H130931   1.621   0.423  -0.013  0.4263 -0.2607  1.6562
 3124TIP3    H230932   1.571   0.284  -0.044  1.7753 -0.6331  1.0577
 3125TIP3   OH230933   0.866   4.122   0.614  0.5716  0.6245  0.1159
 3125TIP3    H130934   0.829   4.193   0.562  0.1253  0.2153 -0.1370
 3125TIP3    H230935   0.800   4.105   0.682  2.6635  3.6154  3.1935
 3126TIP3   OH230936   5.966   0.538   8.134  0.5760  0.2022 -0.2921
 3126TIP3    H130937   6.003   0.451   8.116 -0.9479 -0.2352 -1.4887
 3126TIP3    H230938   6.019   0.598   8.081  0.2340 -0.3014 -1.2390
 3127TIP3   OH230939   2.371   1.322   8.586  0.0468  0.0847  1.0627
 3127TIP3    H130940   2.438   1.257   8.567 -1.8460 -1.6323 -0.2787
 3127TIP3    H230941   2.410   1.406   8.564  2.2038 -0.6779  1.7741
 3128TIP3   OH230942   3.930   6.352   2.814  0.3047  0.1840  0.9638
 3128TIP3    H130943   4.011   6.398   2.794 -0.6975  1.6139  0.0201
 3128TIP3    H230944   3.861   6.410   2.783 -1.0681 -1.3685  0.9629
 3129TIP3   OH230945   4.054   2.645   1.468 -0.1300 -0.2952 -0.1125
 3129TIP3    H130946   4.030   2.638   1.560 -2.6524 -2.9025 -0.8280
 3129TIP3    H230947   4.048   2.556   1.434  0.7081  0.5689 -2.8292
 3130TIP3   OH230948   5.332   5.286   2.653  0.4638 -0.6272 -0.5602
 3130TIP3    H130949   5.379   5.204   2.645 -0.9697 -1.5610  0.1628
 3130TIP3    H230950   5.261   5.280   2.589 -1.7794 -1.5506  1.8178
 3131TIP3   OH230951   5.927   2.018   2.892  0.6570 -0.1095  0.2382
 3131TIP3    H130952   5.836   2.023   2.919  0.0471 -2.7550 -1.0396
 3131TIP3    H230953   5.925   1.983   2.803  2.9293 -0.4992  0.2661
 3132TIP3   OH230954   1.676   4.738   1.691  0.1427  0.0822 -0.9129
 3132TIP3    H130955   1.663   4.750   1.596 -0.4576 -1.4574 -1.0542
 3132TIP3    H230956   1.744   4.672   1.698  0.6819  0.6931 -0.2403
 3133TIP3   OH230957   2.707   3.737   0.357 -0.3138  0.1771 -0.0059
 3133TIP3    H130958   2.707   3.820   0.308  0.7428 -0.1071 -0.5375
 3133TIP3    H230959   2.615   3.712   0.362 -0.4638  0.2448 -1.8287
 3134TIP3   OH230960   5.353   1.525   3.412  0.4194 -0.2618  0.1347
 3134TIP3    H130961   5.404   1.475   3.348  2.5091 -0.1963  1.6516
 3134TIP3    H230962   5.394   1.506   3.496 -1.3672  0.7571  1.3034
 3135TIP3   OH230963   4.664   3.492   1.387 -0.5858 -0.2461  0.9658
 3135TIP3    H130964   4.706   3.449   1.313 -1.1950 -0.4737  0.7451
 3135TIP3    H230965   4.701   3.449   1.464  0.6481  0.5444  0.8296
 3136TIP3   OH230966   3.816   0.591   3.853  0.0938  0.3253 -0.1600
 3136TIP3    H130967   3.796   0.553   3.767 -3.6827  1.8146 -0.0936
 3136TIP3    H230968   3.817   0.516   3.913  0.5664 -0.4709 -1.1259
 3137TIP3   OH230969   4.062   1.796   3.669  0.2271 -0.5207 -0.0858
 3137TIP3    H130970   4.022   1.819   3.585  0.8640  1.9071  0.1953
 3137TIP3    H230971   4.059   1.877   3.720  0.6920 -1.6874  1.9149
 3138TIP3   OH230972   4.107   2.040   2.868 -0.5254  0.1245  0.6260
 3138TIP3    H130973   4.147   2.124   2.844 -0.8944  1.0399  2.9490
 3138TIP3    H230974   4.023   2.064   2.906 -1.0516 -1.3991  0.4830
 3139TIP3   OH230975   6.707   5.079   1.155  0.4886  0.4873  0.0574
 3139TIP3    H130976   6.624   5.118   1.181  0.0496 -1.0338  1.0436
 3139TIP3    H230977   6.714   5.098   1.061 -1.6001 -0.4190 -0.3402
 3140TIP3   OH230978   3.928   4.057   1.043 -0.2510 -0.8058  0.7775
 3140TIP3    H130979   3.990   3.984   1.046 -0.1136 -0.6667  2.0846
 3140TIP3    H230980   3.923   4.087   1.134 -0.8021  0.3956  0.3646
 3141TIP3   OH230981   6.292   6.373   4.218 -0.1664  0.3158  0.1390
 3141TIP3    H130982   6.339   6.440   4.268  1.4223 -1.6028  1.3723
 3141TIP3    H230983   6.212   6.358   4.268 -1.0908  1.9552 -0.7284
 3142TIP3   OH230984   4.786   5.506   2.013  0.1560 -0.3866 -0.2857
 3142TIP3    H130985   4.845   5.432   2.001 -0.7699 -0.9812 -1.4628
 3142TIP3    H230986   4.783   5.548   1.926 -0.5131  0.1136 -0.0282
 3143TIP3   OH230987   2.961   3.867   0.768  0.4240 -0.6353  0.1857
 3143TIP3    H130988   3.049   3.833   0.750  1.4051  1.2013  1.1249
 3143TIP3    H230989   2.938   3.831   0.853  0.3975 -0.8757  0.0769
 3144TIP3   OH230990   5.681   5.886   3.003 -0.0784 -0.0104 -0.4175
 3144TIP3    H130991   5.715   5.873   3.092 -1.8134 -0.8609  0.1707
 3144TIP3    H230992   5.755   5.922   2.954  1.2818 -0.6496  1.0668
 3145TIP3   OH230993   3.257   2.993   0.615  0.4548 -0.3254 -0.1980
 3145TIP3    H130994   3.221   3.079   0.591 -2.2619 -0.3171  3.1503
 3145TIP3    H230995   3.345   3.011   0.646  1.8752  0.3904 -4.0377
 3146TIP3   OH230996   0.091   5.871   4.028 -0.1260 -0.4927  0.1043
 3146TIP3    H130997   0.039   5.941   4.068  1.7547  0.9066  0.2135
 3146TIP3    H230998   0.094   5.803   4.095 -0.0969  0.2764  0.9012
 3147TIP3   OH230999   3.547   1.073   1.929  0.0342  0.3294  0.0913
 3147TIP3    H131000   3.565   1.032   2.014  1.2562 -0.3008 -0.4514
 3147TIP3    H231001   3.476   1.021   1.891  1.0606 -0.8606 -0.2670
 3148TIP3   OH231002   1.825   6.316   0.328  0.5459 -0.6996 -0.0403
 3148TIP3    H131003   1.738   6.354   0.312 -0.7218 -2.5873  1.9134
 3148TIP3    H231004   1.838   6.256   0.255 -0.1885 -1.0079  0.0671
 3149TIP3   OH231005   0.383   5.291   3.364 -1.0676  0.0046 -0.4275
 3149TIP3    H131006   0.356   5.292   3.456  1.1723 -1.1873  0.3290
 3149TIP3    H231007   0.344   5.211   3.328 -1.8668  0.4228 -0.5154
 3150TIP3   OH231008   2.040   3.144   2.478  0.1024 -0.0049  0.3710
 3150TIP3    H131009   2.021   3.164   2.387 -0.2336  2.7275  0.9449
 3150TIP3    H231010   1.960   3.103   2.511  0.8756 -2.7995 -0.9306
 3151TIP3   OH231011   3.782   1.039   4.226  0.6464  0.3774 -0.3167
 3151TIP3    H131012   3.787   1.076   4.138  2.5661  0.2209 -0.3018
 3151TIP3    H231013   3.790   0.944   4.213  1.0795  0.3639  0.0232
 3152TIP3   OH231014   6.475   3.863   0.655  0.2205 -0.2105  0.0049
 3152TIP3    H131015   6.384   3.847   0.632 -0.1233  1.7028 -0.1188
 3152TIP3    H231016   6.499   3.943   0.608  2.4465 -1.4481 -1.1585
 3153TIP3   OH231017   3.601   4.967   2.033  0.1265  0.3306 -0.2374
 3153TIP3    H131018   3.633   4.880   2.009  0.2831  0.9769 -2.7083
 3153TIP3    H231019   3.558   4.999   1.953 -0.2950  2.3431  0.7373
 3154TIP3   OH231020   2.050   0.256   1.991  0.2051 -0.1336  0.5351
 3154TIP3    H131021   2.028   0.297   1.908  1.3812  0.0644  0.3051
 3154TIP3    H231022   1.967   0.251   2.039 -0.4055  0.1114 -0.4861
 3155TIP3   OH231023   4.293   0.648   0.498  0.0578 -0.4220 -0.3278
 3155TIP3    H131024   4.329   0.569   0.457  0.2698  0.0041 -0.9649
 3155TIP3    H231025   4.278   0.622   0.589  0.2182 -1.1702 -0.5075
 3156TIP3   OH231026   3.736   2.312   7.846 -0.1203 -0.2045 -0.4074
 3156TIP3    H131027   3.728   2.218   7.862 -0.9929 -0.0125  0.3542
 3156TIP3    H231028   3.652   2.349   7.874  0.1230  0.7781 -0.9164
 3157TIP3   OH231029   0.266   4.907   2.970 -0.0269  0.2777  0.3456
 3157TIP3    H131030   0.241   4.843   3.037 -2.0955  0.3610 -0.2762
 3157TIP3    H231031   0.342   4.869   2.927 -0.5566 -1.2653  0.7092
 3158TIP3   OH231032   0.215   0.400   0.545  0.4645 -0.3153  0.2134
 3158TIP3    H131033   0.301   0.358   0.536 -0.0411 -1.4065  0.2703
 3158TIP3    H231034   0.173   0.386   0.460  0.2268 -0.0578  0.2888
 3159TIP3   OH231035   2.857   1.125   2.272 -0.7665 -0.3604 -0.3341
 3159TIP3    H131036   2.779   1.180   2.268 -0.3199  1.5883  6.0173
 3159TIP3    H231037   2.930   1.186   2.269  0.3078 -1.6395 -1.5478
 3160TIP3   OH231038   6.140   5.849   0.329 -0.3345 -0.0438  0.5942
 3160TIP3    H131039   6.110   5.904   0.257 -1.2012  0.4757  1.3290
 3160TIP3    H231040   6.145   5.908   0.405 -1.5600 -1.0070  1.4709
 3161TIP3   OH231041   1.991   4.026   1.321 -0.2509 -0.3395 -0.0391
 3161TIP3    H131042   2.041   3.945   1.325 -1.2311 -0.9153  2.0412
 3161TIP3    H231043   1.900   3.998   1.329 -0.6610  0.9194 -0.0796
 3162TIP3   OH231044   0.391   4.019   1.168  0.3479 -0.5712  0.3007
 3162TIP3    H131045   0.481   4.047   1.153  0.0681  0.6220  0.7295
 3162TIP3    H231046   0.396   3.923   1.173  1.6147 -0.5145  0.4977
 3163TIP3   OH231047   4.326   4.917   7.799  0.3200  0.4299  0.4314
 3163TIP3    H131048   4.301   4.831   7.764  0.5320 -0.5279  2.4556
 3163TIP3    H231049   4.397   4.946   7.742  0.8334 -1.1624  0.1983
 3164TIP3   OH231050   0.909   1.860   0.926  0.4850 -0.8209 -0.7175
 3164TIP3    H131051   0.964   1.828   0.855  2.2126 -0.4200  0.3909
 3164TIP3    H231052   0.927   1.800   0.999 -1.3942 -1.3406 -0.6332
 3165TIP3   OH231053   1.322   3.244   8.526  0.8273  0.1185  0.5734
 3165TIP3    H131054   1.293   3.158   8.498  1.3437  0.3869 -0.8938
 3165TIP3    H231055   1.392   3.227   8.589  0.3107 -0.5161  0.9837
 3166TIP3   OH231056   5.367   3.235   0.300  0.1430 -0.4338  0.1213
 3166TIP3    H131057   5.286   3.277   0.269  1.2304  1.0079 -0.9318
 3166TIP3    H231058   5.364   3.243   0.395 -0.1269  1.2533 -0.0049
 3167TIP3   OH231059   0.846   0.693   0.299 -0.3056  0.0351 -0.3343
 3167TIP3    H131060   0.856   0.648   0.383 -0.3854 -2.3985 -1.5492
 3167TIP3    H231061   0.935   0.702   0.265 -0.4209 -1.0358 -0.9645
 3168TIP3   OH231062   0.803   5.978   2.371  0.0225  0.1036  0.4330
 3168TIP3    H131063   0.816   6.046   2.437  0.8815 -0.6376  1.0595
 3168TIP3    H231064   0.836   5.898   2.412  0.3671 -0.4203 -0.8089
 3169TIP3   OH231065   1.512   0.127   0.589 -0.5799 -0.2353 -0.2468
 3169TIP3    H131066   1.464   0.201   0.553  0.3790  0.3065 -0.4152
 3169TIP3    H231067   1.558   0.162   0.665 -1.5032 -1.0626  0.7342
 3170TIP3   OH231068   3.448   1.791   2.778  0.3502  0.2020 -0.0581
 3170TIP3    H131069   3.470   1.746   2.697  0.5944  1.5772 -0.7870
 3170TIP3    H231070   3.421   1.879   2.751 -1.0282  0.2332  1.2270
 3171TIP3   OH231071   0.058   6.569   2.518  0.3179 -0.4288 -0.0473
 3171TIP3    H131072   0.059   6.580   2.423 -2.2609  1.9278  0.0757
 3171TIP3    H231073   0.144   6.602   2.547  0.5599  0.2337 -1.4480
 3172TIP3   OH231074   5.379   6.213   1.818  0.1438  0.1532  0.2523
 3172TIP3    H131075   5.387   6.299   1.777  0.1220 -0.4883 -1.1239
 3172TIP3    H231076   5.285   6.204   1.837  0.1635  0.4724  0.5188
 3173TIP3   OH231077   3.470   5.881   2.529  0.1179  0.7177  0.2870
 3173TIP3    H131078   3.460   5.913   2.440  1.1242 -1.1337 -0.5554
 3173TIP3    H231079   3.382   5.886   2.567 -0.3782  1.2678 -0.8933
 3174TIP3   OH231080   2.225   0.741   1.150  0.5156 -0.2986  0.0939
 3174TIP3    H131081   2.280   0.799   1.097 -1.0928  1.6154  0.4151
 3174TIP3    H231082   2.247   0.763   1.240  0.0452 -0.3193  0.2162
 3175TIP3   OH231083   4.530   2.841   1.763 -0.2862  0.0010 -0.3624
 3175TIP3    H131084   4.444   2.845   1.722 -0.3063  0.5783 -0.2721
 3175TIP3    H231085   4.536   2.752   1.799 -1.3686  0.3659  0.7689
 3176TIP3   OH231086   3.173   2.953   1.204 -0.0860  0.3146  0.0911
 3176TIP3    H131087   3.260   2.913   1.201 -1.0014 -1.7437 -0.8732
 3176TIP3    H231088   3.131   2.925   1.123 -0.9952  2.9498 -0.4536
 3177TIP3   OH231089   5.134   5.900   2.859  0.5632  0.7221  0.1613
 3177TIP3    H131090   5.126   5.893   2.764 -0.1133  0.3884  0.2310
 3177TIP3    H231091   5.225   5.878   2.878  0.2848 -0.8983 -0.2684
 3178TIP3   OH231092   6.046   4.679   0.302  0.1777 -0.5274  0.1355
 3178TIP3    H131093   6.037   4.662   0.208 -0.4690 -0.1272  0.1239
 3178TIP3    H231094   6.120   4.740   0.308 -1.0391  1.0350 -0.2926
 3179TIP3   OH231095   2.874   0.531   0.902  0.3329 -0.3835  0.7595
 3179TIP3    H131096   2.849   0.447   0.865 -0.5341 -0.5971  1.7650
 3179TIP3    H231097   2.927   0.573   0.835 -0.2739 -1.2038 -0.2528
 3180TIP3   OH231098   0.066   3.760   3.647 -0.1074  0.0508 -0.0884
 3180TIP3    H131099  -0.030   3.766   3.640 -0.0362 -0.1216 -1.3930
 3180TIP3    H231100   0.080   3.703   3.722 -1.0132  0.6199  0.5409
 3181TIP3   OH231101   1.225   0.435   4.120 -0.3443 -0.6479 -0.3530
 3181TIP3    H131102   1.231   0.342   4.100  0.9113 -0.4391 -1.0173
 3181TIP3    H231103   1.304   0.474   4.082 -0.7475  0.6621  0.0742
 3182TIP3   OH231104   4.525   1.329   0.737 -0.1255  0.1479 -0.2221
 3182TIP3    H131105   4.494   1.242   0.762 -1.6973  1.2425  2.0278
 3182TIP3    H231106   4.481   1.348   0.654  0.1031 -1.1006 -0.6479
 3183TIP3   OH231107   2.696   4.833   8.569 -0.2013  0.4654  0.1877
 3183TIP3    H131108   2.766   4.805   8.628  0.3759  0.3671 -0.5237
 3183TIP3    H231109   2.726   4.916   8.533 -1.2037  1.2497  1.1060
 3184TIP3   OH231110   5.857   0.999   1.057 -0.6374 -0.3417  0.5396
 3184TIP3    H131111   5.902   1.083   1.057 -1.0565 -0.0634  2.3834
 3184TIP3    H231112   5.891   0.954   1.134 -2.8734 -0.4528  1.5438
 3185TIP3   OH231113   4.203   2.841   1.357 -0.3516 -0.4812  0.2206
 3185TIP3    H131114   4.159   2.771   1.404 -1.8921  0.2952 -0.0181
 3185TIP3    H231115   4.139   2.912   1.353  0.7806  0.5426 -0.4967
 3186TIP3   OH231116   2.223   4.440   1.595  0.6908  0.0515 -0.0251
 3186TIP3    H131117   2.165   4.372   1.560  1.1857  0.2238 -1.2491
 3186TIP3    H231118   2.287   4.454   1.526  0.2777  2.1815 -0.0496
 3187TIP3   OH231119   6.395   4.541   3.664  0.5226  0.1226 -0.2514
 3187TIP3    H131120   6.308   4.535   3.626  0.4423  0.4069 -0.1191
 3187TIP3    H231121   6.403   4.463   3.719  0.1665  0.3396  0.1115
 3188TIP3   OH231122   1.380   2.327   0.625 -0.1568  0.1387  0.2424
 3188TIP3    H131123   1.437   2.400   0.603 -0.5694  0.4107  0.0566
 3188TIP3    H231124   1.439   2.254   0.641  0.2455  0.4463  0.1681
 3189TIP3   OH231125   0.735   5.552   1.215  0.3135 -0.1214 -0.2117
 3189TIP3    H131126   0.795   5.623   1.192 -1.1266  1.2393  0.0565
 3189TIP3    H231127   0.730   5.555   1.310 -0.7321  0.2983 -0.2630
 3190TIP3   OH231128   0.538   0.184   2.411 -1.0018 -0.1124 -0.1689
 3190TIP3    H131129   0.560   0.113   2.349 -2.2341 -0.7136  0.0471
 3190TIP3    H231130   0.617   0.195   2.464 -0.3028 -0.3418 -1.1319
 3191TIP3   OH231131   5.930   3.743   0.186 -0.4588 -0.0707 -0.8282
 3191TIP3    H131132   5.926   3.831   0.221 -2.2936 -1.3057  2.5827
 3191TIP3    H231133   5.865   3.742   0.115 -1.2298  1.0352 -0.1579
 3192TIP3   OH231134   3.245   0.061   3.669 -0.5441 -0.3125 -0.4896
 3192TIP3    H131135   3.182   0.020   3.729  1.4521 -0.7890  1.3957
 3192TIP3    H231136   3.245   0.153   3.694 -0.7300 -0.2426 -0.7384
 3193TIP3   OH231137   0.367   2.811   2.424 -0.1745  1.1314 -0.5236
 3193TIP3    H131138   0.306   2.850   2.361 -0.8627  0.6748 -0.1507
 3193TIP3    H231139   0.369   2.718   2.401 -1.4912  0.6966  0.9498
 3194TIP3   OH231140   6.590   4.516   0.164  0.4343 -0.2664  0.5129
 3194TIP3    H131141   6.627   4.431   0.136 -0.3500 -0.1974 -0.7995
 3194TIP3    H231142   6.573   4.562   0.082 -0.5010  0.5908  1.1785
 3195TIP3   OH231143   5.871   4.691   2.345 -0.1186  0.3934 -0.2172
 3195TIP3    H131144   5.852   4.774   2.303  0.4999  0.8833  0.4432
 3195TIP3    H231145   5.964   4.676   2.328 -0.1865 -0.0782 -0.1833
 3196TIP3   OH231146   6.016   5.137   2.977 -0.0568  0.0007  0.9495
 3196TIP3    H131147   6.018   5.227   2.946 -2.6113  0.3103  1.4518
 3196TIP3    H231148   6.078   5.135   3.050  0.7388  1.0668  0.3306
 3197TIP3   OH231149   0.500   2.739   1.818 -0.2243  0.1203 -0.4432
 3197TIP3    H131150   0.562   2.721   1.889 -0.2341  0.1727 -0.4217
 3197TIP3    H231151   0.422   2.771   1.862 -1.8100 -3.7159 -0.0529
 3198TIP3   OH231152   3.839   1.811   3.471  0.0402  0.5182  0.3484
 3198TIP3    H131153   3.860   1.717   3.470 -0.4344  0.3778  1.7442
 3198TIP3    H231154   3.777   1.821   3.542 -1.9284  1.5085 -1.3891
 3199TIP3   OH231155   4.076   3.383   1.661 -0.3265 -1.0271  0.2747
 3199TIP3    H131156   4.051   3.292   1.673  0.0252 -1.1536  0.0649
 3199TIP3    H231157   4.089   3.392   1.566  1.7735 -1.3307  0.4895
 3200TIP3   OH231158   3.718   4.163   2.312  0.4934 -0.1077 -1.2075
 3200TIP3    H131159   3.772   4.136   2.238  0.9291 -2.3653 -0.1591
 3200TIP3    H231160   3.633   4.123   2.296  0.8595 -1.4011 -0.0885
 3201TIP3   OH231161   5.024   3.404   3.561  0.1966 -0.2549 -0.0728
 3201TIP3    H131162   5.053   3.391   3.651  0.5237 -0.8805 -0.2591
 3201TIP3    H231163   5.102   3.433   3.514 -0.0899  0.5621 -0.0565
 3202TIP3   OH231164   4.180   5.728   1.436  0.7008  0.3838 -0.3448
 3202TIP3    H131165   4.173   5.668   1.362 -1.7817 -0.3256  0.3852
 3202TIP3    H231166   4.261   5.702   1.481  1.0476 -0.6371 -1.5171
 3203TIP3   OH231167   0.043   6.064   2.910  0.7312 -0.1249 -0.2774
 3203TIP3    H131168   0.025   6.157   2.893  1.8016 -0.1374 -1.6995
 3203TIP3    H231169   0.135   6.062   2.937  0.8167 -0.7986 -0.5924
 3204TIP3   OH231170   4.775   4.526   1.015 -0.0571  0.0560 -0.5343
 3204TIP3    H131171   4.705   4.521   1.080  0.8846 -1.4122  0.4262
 3204TIP3    H231172   4.749   4.598   0.958 -1.2908  0.9110  1.0206
 3205TIP3   OH231173   3.629   0.712   1.118 -0.2944 -0.1893 -0.0180
 3205TIP3    H131174   3.650   0.680   1.030  1.0420  0.3052  0.0922
 3205TIP3    H231175   3.714   0.714   1.163 -0.7177  1.0742  0.7643
 3206TIP3   OH231176   6.490   2.701   2.208 -0.3964  0.1752  0.5225
 3206TIP3    H131177   6.550   2.723   2.280 -1.1502 -1.1309  1.6105
 3206TIP3    H231178   6.410   2.672   2.252 -0.6805 -1.2380 -0.8288
 3207TIP3   OH231179   1.419   2.906   1.325 -0.3246 -0.3058 -0.1186
 3207TIP3    H131180   1.371   2.877   1.402 -3.5710  0.4444 -1.7053
 3207TIP3    H231181   1.383   2.856   1.252  2.0853 -0.4333 -1.3450
 3208TIP3   OH231182   2.828   4.787   3.393  0.2160 -0.7152  0.0542
 3208TIP3    H131183   2.829   4.856   3.327 -1.4119  0.6880  1.4151
 3208TIP3    H231184   2.910   4.740   3.380 -0.4161 -1.1545 -3.5968
 3209TIP3   OH231185   3.479   4.052   0.834  0.4404  0.6720  0.1380
 3209TIP3    H131186   3.411   4.119   0.844 -0.8878 -0.5003 -0.6881
 3209TIP3    H231187   3.560   4.097   0.856 -0.7461  1.6836  2.8369
 3210TIP3   OH231188   2.943   5.547   2.750  0.0421 -0.3560  0.2867
 3210TIP3    H131189   2.998   5.625   2.763  0.5460 -0.8654  1.3446
 3210TIP3    H231190   2.973   5.485   2.817 -0.0875 -1.6147 -0.7734
 3211TIP3   OH231191   6.796   2.648   0.431  0.3892  0.2375  0.8505
 3211TIP3    H131192   6.760   2.735   0.414  1.1130  0.3252 -0.3633
 3211TIP3    H231193   6.867   2.663   0.493  3.0153  1.1379 -2.1160
 3212TIP3   OH231194   4.030   0.453   2.018  0.1711 -0.3526  0.7321
 3212TIP3    H131195   4.045   0.433   2.110  0.4740 -0.4802  0.6572
 3212TIP3    H231196   4.046   0.370   1.973 -1.0136 -0.5683  0.6682
 3213TIP3   OH231197   3.422   5.277   1.718 -0.5363 -0.3342 -0.2204
 3213TIP3    H131198   3.420   5.253   1.625 -1.1651 -1.3235  0.0375
 3213TIP3    H231199   3.493   5.341   1.724 -0.4362 -0.3109 -1.3689
 3214TIP3   OH231200   0.525   6.204   3.108  0.2524  0.0243  0.2895
 3214TIP3    H131201   0.532   6.299   3.102  3.9177 -0.1288 -0.7249
 3214TIP3    H231202   0.506   6.176   3.019  0.4893 -0.2379  0.3199
 3215TIP3   OH231203   3.060   4.730   7.959  0.1654 -0.4108  0.4656
 3215TIP3    H131204   3.009   4.683   7.893  1.6701  0.2700 -1.2858
 3215TIP3    H231205   3.088   4.662   8.021  1.3157 -1.6872 -1.3450
 3216TIP3   OH231206   3.411   5.131   2.698 -0.1908  0.5966  0.5249
 3216TIP3    H131207   3.400   5.117   2.792 -0.3399  0.8869  0.5527
 3216TIP3    H231208   3.328   5.171   2.670  0.4608  2.0366  0.5743
 3217TIP3   OH231209   3.537   1.064   2.708  0.3569 -0.4938  0.7265
 3217TIP3    H131210   3.514   1.090   2.797  2.8175  0.2870  1.2117
 3217TIP3    H231211   3.627   1.033   2.714  0.1781 -1.6341 -1.2965
 3218TIP3   OH231212   5.800   1.649   2.043 -0.3588  0.4659 -0.5624
 3218TIP3    H131213   5.707   1.627   2.036 -0.0593 -1.6221  1.0692
 3218TIP3    H231214   5.845   1.575   2.004  0.6629  0.8936 -0.2170
 3219TIP3   OH231215   1.823   5.246   1.860  0.4790  0.0651  0.3141
 3219TIP3    H131216   1.804   5.296   1.780  2.2863  1.1534  0.4961
 3219TIP3    H231217   1.789   5.158   1.842  0.3265  0.4336 -1.4321
 3220TIP3   OH231218   3.792   4.905   2.257 -0.0906  0.4626 -0.0008
 3220TIP3    H131219   3.739   4.954   2.194 -1.2828  0.7121  1.1534
 3220TIP3    H231220   3.800   4.818   2.219 -0.9652  0.5477 -0.4143
 3221TIP3   OH231221   3.801   1.006   2.747 -0.8316 -1.0303  0.7092
 3221TIP3    H131222   3.854   0.994   2.668 -2.8145  0.6860 -0.9921
 3221TIP3    H231223   3.862   1.045   2.811  0.2147  0.0762 -0.8833
 3222TIP3   OH231224   3.393   5.897   1.545 -0.3331  0.1501  0.7622
 3222TIP3    H131225   3.409   5.990   1.561 -1.1571  0.4398 -0.0492
 3222TIP3    H231226   3.481   5.859   1.537  0.0479  1.3920 -1.9573
 3223TIP3   OH231227   2.972   0.323   8.449 -0.1794  0.2492  0.7759
 3223TIP3    H131228   2.910   0.396   8.457  0.2663  0.5082  2.3831
 3223TIP3    H231229   3.056   0.366   8.433 -0.2989 -0.0790 -0.9210
 3224TIP3   OH231230   3.480   0.350   3.583 -0.2483  0.1565 -0.0036
 3224TIP3    H131231   3.519   0.329   3.668  0.0489  0.3480 -0.0910
 3224TIP3    H231232   3.394   0.309   3.585 -0.1507 -0.0330  0.3019
 3225TIP3   OH231233   1.560   2.537   0.537 -0.4013  0.2964 -0.0718
 3225TIP3    H131234   1.492   2.598   0.508 -2.0284  0.1658  3.0301
 3225TIP3    H231235   1.628   2.593   0.575 -0.3778  0.3087 -0.1325
 3226TIP3   OH231236   5.442   5.945   0.022  0.4720  0.2705  0.5100
 3226TIP3    H131237   5.386   5.994  -0.038  0.2653 -0.2245  0.2914
 3226TIP3    H231238   5.393   5.864   0.039  1.0347 -0.0821  0.4631
 3227TIP3   OH231239   2.383   6.009   3.170 -0.0585 -0.0434  0.3924
 3227TIP3    H131240   2.457   5.999   3.109  0.4614  0.8620  0.8483
 3227TIP3    H231241   2.334   5.928   3.161 -1.3355  0.8982 -2.9916
 3228TIP3   OH231242   2.418   4.270   3.311  0.2164 -0.1638 -0.0724
 3228TIP3    H131243   2.356   4.219   3.364 -2.4606  1.5760 -1.3384
 3228TIP3    H231244   2.401   4.244   3.221  0.0822  1.5892 -0.5965
 3229TIP3   OH231245   0.249   0.795   1.268  0.2588 -0.1004  0.1704
 3229TIP3    H131246   0.180   0.844   1.222  0.8340 -0.1229 -0.7529
 3229TIP3    H231247   0.205   0.716   1.299 -0.0210 -0.3958 -0.9197
 3230TIP3   OH231248   6.114   2.436   2.008 -0.4186 -0.6367 -0.1179
 3230TIP3    H131249   6.029   2.423   2.051  0.3256 -0.9067  1.3360
 3230TIP3    H231250   6.113   2.377   1.933 -1.2951 -1.0466  0.2077
 3231TIP3   OH231251   3.806   2.826   0.204 -0.3366 -0.6776 -0.5544
 3231TIP3    H131252   3.839   2.771   0.133 -0.1958 -1.4648  0.1126
 3231TIP3    H231253   3.729   2.869   0.166  0.6895  0.2096 -1.7186
 3232TIP3   OH231254   1.580   0.513   3.246 -0.1479 -0.2640 -0.8644
 3232TIP3    H131255   1.593   0.608   3.241  0.4911 -0.3602 -1.0678
 3232TIP3    H231256   1.576   0.485   3.154  0.1154 -0.4944 -0.8057
 3233TIP3   OH231257   3.909   0.621   0.689 -0.0679 -0.1603  0.2886
 3233TIP3    H131258   3.972   0.573   0.634 -0.2478 -0.1140  0.0438
 3233TIP3    H231259   3.826   0.613   0.643 -0.1850  0.0234  0.4691
 3234TIP3   OH231260   1.374   6.776   1.849 -0.1181  0.5725  0.4315
 3234TIP3    H131261   1.311   6.757   1.780  0.5531 -0.6596  0.1421
 3234TIP3    H231262   1.366   6.871   1.862 -0.6029  0.7524 -0.9730
 3235TIP3   OH231263   3.832   4.562   8.510 -0.3696  0.3199 -0.6501
 3235TIP3    H131264   3.879   4.478   8.508 -0.2918  0.3030  0.6827
 3235TIP3    H231265   3.866   4.611   8.436 -0.7563 -0.9989 -1.7451
 3236TIP3   OH231266   6.062   3.632   1.522 -0.4359 -0.4485  0.1878
 3236TIP3    H131267   5.975   3.596   1.503 -0.4688 -0.6313  0.6763
 3236TIP3    H231268   6.088   3.675   1.440 -0.6101 -1.1479 -0.2475
 3237TIP3   OH231269   0.745   4.407   1.809  0.1383  0.2606  0.6268
 3237TIP3    H131270   0.748   4.312   1.804  0.0520  0.2196 -5.5582
 3237TIP3    H231271   0.833   4.436   1.787 -0.4294  1.5371 -0.0950
 3238TIP3   OH231272   0.230   2.166   2.065 -0.0075 -0.5061  0.6944
 3238TIP3    H131273   0.238   2.131   1.976 -0.8423 -1.3232  0.9325
 3238TIP3    H231274   0.320   2.171   2.097  0.2702 -0.5488 -0.0640
 3239TIP3   OH231275   3.208   6.602   3.910 -0.3491  0.0999  0.1742
 3239TIP3    H131276   3.159   6.660   3.851 -2.3648  1.8597  3.2374
 3239TIP3    H231277   3.155   6.523   3.916  0.4297 -0.5434 -1.1311
 3240TIP3   OH231278   4.197   1.482   2.324 -0.2015 -0.0096  0.0855
 3240TIP3    H131279   4.186   1.558   2.381  1.5757  0.3528  0.0122
 3240TIP3    H231280   4.268   1.432   2.365 -0.0663 -0.6326 -0.8916
 3241TIP3   OH231281   1.921   1.632   2.046  0.2836 -0.5470 -0.1155
 3241TIP3    H131282   1.958   1.545   2.061  1.4232  0.0128  0.4894
 3241TIP3    H231283   1.858   1.644   2.118 -1.2149 -1.5392 -1.2010
 3242TIP3   OH231284   3.652   4.827   0.749  0.0942 -0.1299 -1.1068
 3242TIP3    H131285   3.655   4.891   0.820  0.6137 -0.2654 -1.0025
 3242TIP3    H231286   3.622   4.877   0.673 -0.6233 -0.0180 -0.7651
 3243TIP3   OH231287   1.252   6.658   0.874 -0.1745  0.4342  0.4177
 3243TIP3    H131288   1.156   6.653   0.871 -0.1756  0.2526  0.7507
 3243TIP3    H231289   1.271   6.700   0.958  0.0466  0.2687  0.4493
 3244TIP3   OH231290   4.797   4.511   2.486 -0.2802  0.0075  0.5177
 3244TIP3    H131291   4.785   4.604   2.469 -0.1092  0.0640  0.6903
 3244TIP3    H231292   4.882   4.490   2.448 -1.1230 -0.5169 -1.1978
 3245TIP3   OH231293   4.165   5.262   8.328  0.0013 -0.6780 -0.0729
 3245TIP3    H131294   4.252   5.233   8.301 -0.2131 -2.2582  0.8223
 3245TIP3    H231295   4.109   5.245   8.252  0.4155  0.1758 -0.5857
 3246TIP3   OH231296   2.748   0.252   2.687 -0.2096 -0.0765  0.0236
 3246TIP3    H131297   2.735   0.253   2.592 -0.9457  0.6371  0.1221
 3246TIP3    H231298   2.833   0.295   2.699 -0.3881  0.3804 -0.2838
 3247TIP3   OH231299   0.127   4.891   2.326  0.3409  0.1841  0.3010
 3247TIP3    H131300   0.172   4.820   2.279  1.8548  1.3570 -0.0968
 3247TIP3    H231301   0.041   4.854   2.349  0.4033 -1.1761 -1.4491
 3248TIP3   OH231302   4.881   6.794   0.752  1.1221  0.3007  0.1475
 3248TIP3    H131303   4.876   6.838   0.667 -1.6702  1.6249  0.8770
 3248TIP3    H231304   4.932   6.715   0.735 -0.2877 -0.0716 -3.0737
 3249TIP3   OH231305   6.304   3.607   0.449  0.6257 -0.3735 -0.3627
 3249TIP3    H131306   6.283   3.679   0.389  0.8144 -1.1847 -1.4467
 3249TIP3    H231307   6.381   3.566   0.409  1.7418  0.0131  1.3031
 3250TIP3   OH231308   2.986   1.483   1.177  0.0571 -0.3583  0.1889
 3250TIP3    H131309   3.049   1.519   1.239 -1.0882 -1.0761  1.8162
 3250TIP3    H231310   2.991   1.388   1.189 -1.2382 -0.4356  0.2667
 3251TIP3   OH231311   6.389   3.118   3.642 -0.2314  0.2412 -0.0937
 3251TIP3    H131312   6.378   3.025   3.622 -1.4876  0.5602 -1.0557
 3251TIP3    H231313   6.308   3.158   3.610 -0.3396  1.4707  1.5793
 3252TIP3   OH231314   3.902   3.973   0.621  0.7810  0.5088  0.0274
 3252TIP3    H131315   3.984   3.998   0.665  1.0720  0.5034 -0.5057
 3252TIP3    H231316   3.917   3.883   0.592  1.0527  0.9150 -1.1430
 3253TIP3   OH231317   1.489   2.936   8.339 -0.6843 -0.2081 -0.3282
 3253TIP3    H131318   1.490   2.842   8.320 -0.9366 -0.5045  1.0346
 3253TIP3    H231319   1.517   2.977   8.257  0.1485 -1.5049 -0.7309
 3254TIP3   OH231320   0.248   1.578   8.088 -0.1566 -0.0092 -0.5073
 3254TIP3    H131321   0.238   1.659   8.137  1.6326  0.3691 -0.7177
 3254TIP3    H231322   0.220   1.509   8.149  0.7489  0.5557  0.5707
 3255TIP3   OH231323   1.863   4.823   0.193  0.7943  0.1928 -0.4054
 3255TIP3    H131324   1.827   4.906   0.225  0.6774 -0.7083  2.0478
 3255TIP3    H231325   1.794   4.759   0.211  1.8215 -0.8155  0.0692
 3256TIP3   OH231326   3.229   5.133   1.326  0.1645  0.0607  0.0288
 3256TIP3    H131327   3.307   5.158   1.376  0.8558 -0.4207 -0.7660
 3256TIP3    H231328   3.261   5.124   1.236 -0.6283 -1.0302 -0.1616
 3257TIP3   OH231329   3.887   5.099   3.402 -0.2107  0.3115 -0.0116
 3257TIP3    H131330   3.831   5.137   3.470 -0.2762 -2.2010  1.4354
 3257TIP3    H231331   3.969   5.078   3.446  0.2314 -0.1914 -1.0256
 3258TIP3   OH231332   0.314   5.528   1.771  0.6488 -0.4889  0.4307
 3258TIP3    H131333   0.367   5.498   1.845  0.0448  0.5555  1.3214
 3258TIP3    H231334   0.343   5.475   1.697 -0.8213 -3.7499  1.9904
 3259TIP3   OH231335   0.368   6.820   1.925  0.8009  0.2524  0.1857
 3259TIP3    H131336   0.378   6.884   1.856 -0.0013 -0.3422 -0.4999
 3259TIP3    H231337   0.284   6.842   1.967  0.4629 -0.4012 -0.1288
 3260TIP3   OH231338   5.908   1.140   3.543 -0.1680 -0.4642  0.2965
 3260TIP3    H131339   5.877   1.057   3.507 -0.0185 -1.5543  2.5179
 3260TIP3    H231340   5.847   1.159   3.614 -0.2658  1.4236 -0.2348
 3261TIP3   OH231341   1.469   6.307   2.910  0.3887 -0.9210  0.4670
 3261TIP3    H131342   1.531   6.311   2.838 -0.8625 -1.7885 -0.7260
 3261TIP3    H231343   1.487   6.223   2.953  2.0459  0.1936  2.0972
 3262TIP3   OH231344   1.397   3.752   8.364 -0.3728  0.1068  0.1845
 3262TIP3    H131345   1.396   3.731   8.270 -1.9852 -0.9373  0.4078
 3262TIP3    H231346   1.444   3.680   8.404 -3.0135 -1.5379  0.5626
 3263TIP3   OH231347   3.501   3.959   2.208 -0.3797  0.2392  0.7380
 3263TIP3    H131348   3.415   3.986   2.239 -0.3598  3.2046 -1.3804
 3263TIP3    H231349   3.494   3.963   2.113  1.9317 -0.0686  0.5025
 3264TIP3   OH231350   5.829   3.869   2.490 -0.4431 -0.8722  0.4731
 3264TIP3    H131351   5.892   3.845   2.559 -1.2514 -0.4488  1.3815
 3264TIP3    H231352   5.844   3.804   2.421  0.2575 -1.4291  1.1260
 3265TIP3   OH231353   3.993   5.756   8.418  0.1830 -0.6425  0.3867
 3265TIP3    H131354   3.953   5.669   8.414 -0.6221 -0.3525  1.5594
 3265TIP3    H231355   3.951   5.798   8.493 -0.8986  1.5049 -1.3114
 3266TIP3   OH231356   2.540   3.345   2.985 -0.5776 -0.2370  0.0113
 3266TIP3    H131357   2.491   3.426   2.999  0.6483  0.4997  0.0904
 3266TIP3    H231358   2.588   3.360   2.903 -2.0117 -1.7275 -1.1788
 3267TIP3   OH231359   0.468   6.570   0.568 -0.0547 -0.1714  0.0287
 3267TIP3    H131360   0.562   6.587   0.580  0.6803 -1.9718 -2.3723
 3267TIP3    H231361   0.427   6.605   0.647  2.8176 -0.9371  2.0029
 3268TIP3   OH231362   2.930   5.993   0.278 -0.8294  0.3069 -0.6650
 3268TIP3    H131363   2.844   6.030   0.259 -0.7477  0.8817  0.0682
 3268TIP3    H231364   2.913   5.928   0.346 -0.6654  0.4824 -0.4584
 3269TIP3   OH231365   4.543   4.886   1.689 -0.0354  0.9408 -0.2534
 3269TIP3    H131366   4.576   4.971   1.719  0.6744  1.3850 -2.1132
 3269TIP3    H231367   4.479   4.908   1.621 -0.1003 -0.0088 -0.5144
 3270TIP3   OH231368   0.605   5.636   1.450 -0.2275 -0.0973  0.0460
 3270TIP3    H131369   0.646   5.654   1.534  0.2707 -1.3746  0.1038
 3270TIP3    H231370   0.534   5.574   1.470 -1.2905  0.9894 -0.2470
 3271TIP3   OH231371   4.988   3.266   2.457  0.2271  0.8105 -0.6169
 3271TIP3    H131372   4.898   3.232   2.454  0.7562 -1.2082  2.1761
 3271TIP3    H231373   4.978   3.361   2.466 -1.6392  0.6108 -0.2217
 3272TIP3   OH231374   6.656   1.762   0.584  0.4804  0.8129 -0.2886
 3272TIP3    H131375   6.744   1.724   0.582  0.6390  1.0915  0.7505
 3272TIP3    H231376   6.664   1.837   0.642 -0.2900  1.2571 -0.7516
 3273TIP3   OH231377   3.791   0.314   8.477  0.3077  0.1231 -0.3319
 3273TIP3    H131378   3.709   0.359   8.496 -0.7845 -1.6259 -0.7162
 3273TIP3    H231379   3.812   0.339   8.387  1.2814  2.1105  0.3866
 3274TIP3   OH231380   4.218   5.837   0.213  0.0902 -0.2755 -0.2998
 3274TIP3    H131381   4.201   5.743   0.205 -0.1859 -0.1658 -1.0443
 3274TIP3    H231382   4.165   5.877   0.144 -0.1772  0.4710  0.3259
 3275TIP3   OH231383   6.383   5.138   2.064 -0.2783 -0.1163 -0.2679
 3275TIP3    H131384   6.413   5.124   1.974  1.3455 -0.9709  0.3735
 3275TIP3    H231385   6.325   5.064   2.082 -0.0661 -0.3063 -0.3724
 3276TIP3   OH231386   0.821   4.981   2.229  0.6470 -0.0462 -0.0909
 3276TIP3    H131387   0.817   4.962   2.323 -0.5940 -0.1754 -0.1645
 3276TIP3    H231388   0.730   4.979   2.200  0.9549  0.7217 -1.1545
 3277TIP3   OH231389   3.057   0.507   1.109  0.4987 -0.0752 -0.8753
 3277TIP3    H131390   3.011   0.589   1.127  0.8607  0.2942 -1.5854
 3277TIP3    H231391   2.990   0.449   1.073  0.0186 -0.4448  0.5369
 3278TIP3   OH231392   2.355   5.797   2.459  0.0896  0.2029  0.1393
 3278TIP3    H131393   2.304   5.781   2.379 -0.7662  2.4975  0.1424
 3278TIP3    H231394   2.426   5.855   2.430 -0.6527  1.6623  1.1001
 3279TIP3   OH231395   5.437   0.924   0.549 -0.3200 -0.0956  0.2360
 3279TIP3    H131396   5.356   0.882   0.576  0.5558 -2.8633 -1.0228
 3279TIP3    H231397   5.441   0.910   0.454  1.2674  0.6501  0.1522
 3280TIP3   OH231398   0.971   3.927   0.986  0.5159 -0.2472 -0.2412
 3280TIP3    H131399   0.880   3.903   0.969  0.8637 -0.6534 -1.7272
 3280TIP3    H231400   0.967   4.016   1.022 -0.4482 -0.0017 -0.9151
 3281TIP3   OH231401   1.008   5.935   3.482  0.1679 -0.2818  0.6292
 3281TIP3    H131402   1.054   6.015   3.459  0.6527 -0.1764  1.8986
 3281TIP3    H231403   1.029   5.920   3.574 -1.1560 -1.0269  0.8448
 3282TIP3   OH231404   0.809   2.569   1.619  0.4189  0.1099 -0.5138
 3282TIP3    H131405   0.746   2.639   1.635  1.7825  1.1399  0.5290
 3282TIP3    H231406   0.839   2.584   1.529  0.5483  0.7453 -0.3676
 3283TIP3   OH231407   6.391   2.312   3.219  0.3223 -0.0032  0.3885
 3283TIP3    H131408   6.368   2.368   3.294  3.1731  1.1473  0.5538
 3283TIP3    H231409   6.454   2.364   3.169  0.7844 -1.9215 -1.1555
 3284TIP3   OH231410   2.217   4.362   2.756  0.2591  0.7566 -0.2015
 3284TIP3    H131411   2.161   4.439   2.765 -1.3591 -0.4224  0.2154
 3284TIP3    H231412   2.215   4.341   2.663 -0.8953  0.0983 -0.0441
 3285TIP3   OH231413   2.655   4.984   7.709  0.1518 -0.1438  0.3785
 3285TIP3    H131414   2.631   4.894   7.687  0.8444 -0.0547 -0.8104
 3285TIP3    H231415   2.574   5.024   7.740  0.1133 -1.5649  2.3309
 3286TIP3   OH231416   4.383   1.852   1.182 -0.3867  0.5306 -0.0136
 3286TIP3    H131417   4.464   1.895   1.155 -0.8593  1.1171 -0.5041
 3286TIP3    H231418   4.410   1.795   1.255  0.2350  1.6870  0.6891
 3287TIP3   OH231419   5.131   2.530   1.048 -0.0543 -0.1675 -0.0919
 3287TIP3    H131420   5.205   2.581   1.015 -1.6293  1.1369 -1.8395
 3287TIP3    H231421   5.167   2.443   1.064  2.0485  0.6568  0.0087
 3288TIP3   OH231422   0.772   1.005   2.242  0.2021 -0.5247  0.7610
 3288TIP3    H131423   0.714   1.080   2.258  1.5697  0.7266  0.0460
 3288TIP3    H231424   0.764   0.988   2.148 -0.8781 -1.9969  1.0671
 3289TIP3   OH231425   1.304   6.788   4.386 -0.6288 -0.1347  0.1538
 3289TIP3    H131426   1.392   6.810   4.414 -0.9966 -1.6898  2.8252
 3289TIP3    H231427   1.313   6.705   4.339 -0.7007 -0.6769  1.0637
 3290TIP3   OH231428   2.151   2.379   3.309  0.0348 -0.1797  0.3949
 3290TIP3    H131429   2.179   2.291   3.335  1.3067  0.1742  0.2893
 3290TIP3    H231430   2.076   2.397   3.365 -1.2410 -1.9281 -0.6563
 3291TIP3   OH231431   3.680   3.901   1.815  0.1192  0.0401  0.1751
 3291TIP3    H131432   3.738   3.825   1.818  0.4723  0.2305 -1.2318
 3291TIP3    H231433   3.705   3.947   1.736 -0.0810  1.6535  1.0125
 3292TIP3   OH231434   0.319   6.322   0.406  0.0599 -0.2822  0.1157
 3292TIP3    H131435   0.321   6.232   0.376  2.6683 -0.2449 -0.0522
 3292TIP3    H231436   0.322   6.315   0.502 -1.5857 -0.3468  0.1868
 3293TIP3   OH231437   5.549   1.599   1.080  0.1597  0.6685 -0.3206
 3293TIP3    H131438   5.534   1.627   0.990  2.1074  1.5069 -0.4234
 3293TIP3    H231439   5.606   1.523   1.073  1.5727  1.6456  0.2180
 3294TIP3   OH231440   2.656   5.356   2.859 -0.1841 -0.4168  0.0638
 3294TIP3    H131441   2.582   5.313   2.901 -1.3135 -0.6888 -2.0372
 3294TIP3    H231442   2.705   5.396   2.931 -3.0224  0.8388  1.4736
 3295TIP3   OH231443   2.122   2.020   2.749  0.1425  1.0350 -0.0709
 3295TIP3    H131444   2.214   2.035   2.724  0.2612  0.6654  0.1493
 3295TIP3    H231445   2.120   2.034   2.843  0.1830  0.0065  0.0869
 3296TIP3   OH231446   5.340   6.380   8.526 -0.2216  0.1134  0.3104
 3296TIP3    H131447   5.308   6.463   8.560 -1.4158  0.1439 -0.8067
 3296TIP3    H231448   5.413   6.404   8.468  1.4147  0.1048  2.2732
 3297TIP3   OH231449   4.608   1.214   1.498  0.3401  0.3915  0.3702
 3297TIP3    H131450   4.681   1.187   1.554  0.4282 -0.8691 -0.3255
 3297TIP3    H231451   4.629   1.178   1.412 -1.1513 -0.0716  0.1799
 3298TIP3   OH231452   3.384   3.562   3.563 -0.0631 -0.0801 -0.1512
 3298TIP3    H131453   3.460   3.620   3.567 -0.3256  0.1989  0.9248
 3298TIP3    H231454   3.345   3.566   3.650 -2.0703  0.7984 -1.0145
 3299TIP3   OH231455   5.986   1.419   0.628  0.8664  0.2140 -0.0348
 3299TIP3    H131456   5.954   1.349   0.685 -0.0026  1.7402  1.4770
 3299TIP3    H231457   5.917   1.431   0.563 -0.0992  1.1583  1.1100
 3300TIP3   OH231458   3.857   0.253   0.519 -0.2952  0.0670  0.0058
 3300TIP3    H131459   3.770   0.270   0.557  0.0753  1.0064  0.4602
 3300TIP3    H231460   3.917   0.260   0.593  0.1137 -1.2739 -0.1751
 3301TIP3   OH231461   1.874   0.104   1.686  0.1838  0.3424 -0.1067
 3301TIP3    H131462   1.927   0.032   1.721  0.9053  1.2417  0.7408
 3301TIP3    H231463   1.791   0.098   1.734 -0.2737 -0.7126 -1.0042
 3302TIP3   OH231464   4.604   0.005   1.073  0.4089  0.4935 -0.7613
 3302TIP3    H131465   4.521  -0.005   1.120 -0.0466 -3.3970 -2.0501
 3302TIP3    H231466   4.669  -0.036   1.130  0.9360  1.0169 -0.9768
 3303TIP3   OH231467   1.960   6.020   1.695  1.0143  0.1638 -0.5877
 3303TIP3    H131468   1.976   6.107   1.733  3.9745 -0.7241  0.5294
 3303TIP3    H231469   2.033   5.967   1.727 -1.5389 -3.2355  0.1533
 3304TIP3   OH231470   2.698   3.656   2.833  0.0993  0.0325 -0.2027
 3304TIP3    H131471   2.610   3.659   2.795  0.0292  0.6016  0.0063
 3304TIP3    H231472   2.723   3.747   2.846  0.2017 -0.1424  0.9441
 3305TIP3   OH231473   3.162   0.544   3.356 -0.4566 -0.0308 -0.3893
 3305TIP3    H131474   3.166   0.587   3.442  3.0404  0.7583 -0.7965
 3305TIP3    H231475   3.190   0.611   3.294  0.6420 -1.5774 -1.6566
 3306TIP3   OH231476   6.163   4.320   8.031 -0.6175 -0.4507 -0.0982
 3306TIP3    H131477   6.210   4.243   7.999 -1.5595 -1.0123 -0.1473
 3306TIP3    H231478   6.197   4.392   7.977 -0.1080 -0.9094 -0.4066
 3307TIP3   OH231479   3.629   1.364   8.370  0.6543  0.2968 -0.0132
 3307TIP3    H131480   3.702   1.422   8.386 -1.0510  2.0976  1.7413
 3307TIP3    H231481   3.573   1.411   8.308  0.6954 -0.8459 -0.9693
 3308TIP3   OH231482   2.636   4.054   3.717 -0.6164  0.4818  0.0191
 3308TIP3    H131483   2.593   4.100   3.789 -1.6818 -0.0612 -0.2401
 3308TIP3    H231484   2.566   4.003   3.676  0.0719  0.3772 -1.0809
 3309TIP3   OH231485   6.151   0.157   8.513  0.4841 -0.4104 -0.8986
 3309TIP3    H131486   6.166   0.236   8.564  0.4913 -0.8104 -0.2621
 3309TIP3    H231487   6.062   0.164   8.480  0.0306 -0.7301  0.2387
 3310TIP3   OH231488   1.519   5.389   1.515 -0.1845 -0.7058 -0.1877
 3310TIP3    H131489   1.566   5.458   1.468 -1.4764  0.6251  0.3903
 3310TIP3    H231490   1.500   5.427   1.601 -2.3301 -1.1390 -0.4111
 3311TIP3   OH231491   1.855   1.472   8.120  0.2248 -0.4372  0.3784
 3311TIP3    H131492   1.818   1.561   8.117  0.4790 -0.3533 -2.0275
 3311TIP3    H231493   1.827   1.438   8.205 -0.9577  1.4877  0.8338
 3312TIP3   OH231494   3.322   2.844   8.536 -0.1211 -0.5111 -0.6722
 3312TIP3    H131495   3.390   2.789   8.497 -0.0385 -1.5576  0.8710
 3312TIP3    H231496   3.250   2.841   8.473 -0.3569 -2.9208 -0.3818
 3313TIP3   OH231497   4.396   0.434   0.156 -0.1059  0.0482  0.2427
 3313TIP3    H131498   4.475   0.467   0.200 -0.7618 -0.5010  1.9145
 3313TIP3    H231499   4.353   0.513   0.122  1.6172  0.2806 -1.5774
 3314TIP3   OH231500   1.410   6.595   1.533  0.1044 -0.1667 -0.4879
 3314TIP3    H131501   1.377   6.669   1.583 -0.7428 -0.8317 -0.0425
 3314TIP3    H231502   1.413   6.627   1.442 -3.2103 -0.4618 -0.8318
 3315TIP3   OH231503   2.391   4.376   1.890 -0.4533  0.0186 -0.0829
 3315TIP3    H131504   2.422   4.460   1.855 -1.3719  0.1504 -0.6172
 3315TIP3    H231505   2.302   4.367   1.855 -0.8473 -0.5630  1.0149
 3316TIP3   OH231506   0.011   1.821   3.568  0.5513 -0.3233  0.2560
 3316TIP3    H131507   0.077   1.796   3.633  0.7532 -0.8398 -0.1430
 3316TIP3    H231508   0.061   1.842   3.489  0.3256  0.5581  0.3324
 3317TIP3   OH231509   6.807   6.417   3.408 -0.4675  0.1780 -0.6017
 3317TIP3    H131510   6.845   6.395   3.493 -0.7844 -1.8581 -0.9190
 3317TIP3    H231511   6.843   6.502   3.386  0.7197  0.1101  0.9395
 3318TIP3   OH231512   1.220   6.406   2.854 -0.4668 -0.3751  0.1518
 3318TIP3    H131513   1.309   6.372   2.859 -0.7225 -0.9295  1.3319
 3318TIP3    H231514   1.229   6.489   2.807  0.3933 -1.2876 -1.3840
 3319TIP3   OH231515   3.046   2.393   3.899 -0.1230 -0.2266 -0.1267
 3319TIP3    H131516   2.989   2.321   3.928 -1.0335  0.5999  0.1864
 3319TIP3    H231517   2.998   2.472   3.921  0.3330  0.4831 -1.5337
 3320TIP3   OH231518   4.195   4.040   0.704 -0.8200 -0.0742  0.4892
 3320TIP3    H131519   4.282   4.067   0.674 -0.7771  0.6428  1.2365
 3320TIP3    H231520   4.194   3.945   0.689 -0.5196  0.1344 -1.0239
 3321TIP3   OH231521   0.672   5.860   2.035 -0.0639  0.1433  0.6244
 3321TIP3    H131522   0.710   5.773   2.024  0.3001  0.5019 -1.3672
 3321TIP3    H231523   0.747   5.918   2.047 -0.0942  0.5091 -0.7650
 3322TIP3   OH231524   2.881   6.528   2.195 -0.1459  0.1598  0.1148
 3322TIP3    H131525   2.792   6.506   2.169 -0.5555  2.2311 -0.4587
 3322TIP3    H231526   2.935   6.502   2.120 -0.4847  0.3405 -0.1948
 3323TIP3   OH231527   0.113   5.571   0.846 -0.6574  0.9507  0.6632
 3323TIP3    H131528   0.096   5.499   0.785  3.8295  1.0911 -1.1432
 3323TIP3    H231529   0.133   5.528   0.929  0.3537  0.1557  0.0392
 3324TIP3   OH231530   2.376   2.171   1.372 -0.7019 -0.2696 -0.3525
 3324TIP3    H131531   2.314   2.106   1.339 -2.1729  0.4446  0.8520
 3324TIP3    H231532   2.335   2.255   1.353 -0.2971  0.2121  0.7918
 3325TIP3   OH231533   5.520   4.948   0.960 -0.0311  0.4156 -0.2194
 3325TIP3    H131534   5.568   4.968   1.041 -1.2251  1.5757  0.2260
 3325TIP3    H231535   5.503   5.033   0.921 -2.1387  0.0854 -0.1237
 3326TIP3   OH231536   5.469   3.086   0.101 -0.1607 -0.3672 -0.0300
 3326TIP3    H131537   5.563   3.103   0.109 -0.1497  0.4887 -1.6840
 3326TIP3    H231538   5.432   3.121   0.182  0.8497  0.0075  0.2886
 3327TIP3   OH231539   2.256   0.956   3.199 -0.1067 -0.3744 -0.1740
 3327TIP3    H131540   2.333   0.908   3.171 -0.7853 -2.2500  0.9813
 3327TIP3    H231541   2.223   0.908   3.275 -1.6289  1.1618  0.2252
 3328TIP3   OH231542   5.361   4.388   1.862 -0.3905  0.4413  0.0959
 3328TIP3    H131543   5.308   4.313   1.834 -1.2491  0.5886  1.2463
 3328TIP3    H231544   5.451   4.364   1.839 -0.9402  0.2929 -2.1556
 3329TIP3   OH231545   0.962   1.504   3.996 -0.0785  0.0827  0.5563
 3329TIP3    H131546   0.888   1.484   4.054 -0.9827  0.4694 -0.4314
 3329TIP3    H231547   0.936   1.584   3.950  0.6556 -0.1482 -0.3022
 3330TIP3   OH231548   4.497   0.784   0.308 -0.0348 -0.0395 -0.2232
 3330TIP3    H131549   4.469   0.854   0.250 -0.1505 -0.8161 -1.1303
 3330TIP3    H231550   4.415   0.746   0.340 -0.0849 -1.7500 -2.1939
 3331TIP3   OH231551   1.993   2.120   2.532 -0.0141 -0.1121 -0.0688
 3331TIP3    H131552   2.027   2.061   2.600 -0.0474 -1.0588 -0.8466
 3331TIP3    H231553   2.051   2.196   2.535  1.8875 -1.4355 -0.9658
 3332TIP3   OH231554   4.780   1.518   0.169 -0.0266 -0.1660  0.3583
 3332TIP3    H131555   4.846   1.486   0.231  1.9946  2.0125 -0.4916
 3332TIP3    H231556   4.700   1.526   0.221  1.4384  1.0859  2.6043
 3333TIP3   OH231557   2.862   1.261   1.584 -0.0823 -0.1327  0.5015
 3333TIP3    H131558   2.790   1.249   1.522  0.5214 -1.6824  0.0678
 3333TIP3    H231559   2.844   1.346   1.624 -0.7399  0.7252 -1.4619
 3334TIP3   OH231560   5.364   1.071   8.683 -0.0983  0.5081  0.5782
 3334TIP3    H131561   5.410   0.989   8.698 -1.1442 -0.5097 -1.3803
 3334TIP3    H231562   5.343   1.104   8.770  1.4526 -0.6323  1.4256
 3335TIP3   OH231563   3.050   3.783   1.523 -0.0193 -0.4412  0.5922
 3335TIP3    H131564   2.990   3.736   1.465 -0.9881  1.2412  0.1437
 3335TIP3    H231565   3.009   3.776   1.610  0.1331 -0.8670  0.6340
 3336TIP3   OH231566   2.202   5.560   2.676  0.1757  0.0432  0.0054
 3336TIP3    H131567   2.169   5.513   2.600  1.7935  0.5680 -1.0799
 3336TIP3    H231568   2.288   5.592   2.649  1.1331 -0.3728  2.3111
 3337TIP3   OH231569   2.266   2.317   1.031  0.6661 -0.1736 -0.0546
 3337TIP3    H131570   2.170   2.313   1.026  0.6109  0.3834  0.3959
 3337TIP3    H231571   2.293   2.344   0.943  0.2245  2.0891  0.4353
 3338TIP3   OH231572   0.220   1.725   0.855 -0.1038 -0.5353  0.0004
 3338TIP3    H131573   0.208   1.814   0.888 -0.2291 -0.4892 -0.1698
 3338TIP3    H231574   0.241   1.673   0.933 -2.8448 -0.9174  0.5933
 3339TIP3   OH231575   5.277   4.516   2.104  0.2249  0.3873 -0.3909
 3339TIP3    H131576   5.251   4.424   2.113  0.8246  0.3356  1.0700
 3339TIP3    H231577   5.350   4.513   2.041 -0.3501 -0.0134 -1.0518
 3340TIP3   OH231578   2.736   6.346   2.920 -0.3741  0.3781 -0.2551
 3340TIP3    H131579   2.683   6.267   2.918  0.8981 -0.5789  1.5091
 3340TIP3    H231580   2.826   6.315   2.920  0.1827  1.8890 -0.7885
 3341TIP3   OH231581   1.047   4.490   8.229  0.6122  0.0011  0.2869
 3341TIP3    H131582   0.998   4.512   8.149 -0.8228 -0.1783  1.0703
 3341TIP3    H231583   1.014   4.552   8.294  1.9555  0.3154  0.6983
 3342TIP3   OH231584   3.231   4.335   1.407  0.0969  0.2058  0.3238
 3342TIP3    H131585   3.193   4.415   1.442  0.5327 -0.0501  1.4048
 3342TIP3    H231586   3.168   4.266   1.430  0.1621  0.1004  0.1931
 3343TIP3   OH231587   2.784   2.374   0.634 -0.5442 -0.0154 -0.9256
 3343TIP3    H131588   2.844   2.436   0.592  1.6266 -1.1192  0.3604
 3343TIP3    H231589   2.722   2.429   0.682 -0.3640  1.1706 -1.9954
 3344TIP3   OH231590   1.812   2.628   1.774  0.1312  0.4864  0.3651
 3344TIP3    H131591   1.795   2.548   1.825  0.5000 -0.3947 -0.8598
 3344TIP3    H231592   1.853   2.597   1.694 -0.7614  1.8183 -0.6436
 3345TIP3   OH231593   6.270   5.316   1.590 -0.3173 -0.4704 -0.4318
 3345TIP3    H131594   6.216   5.312   1.670 -1.1776  0.0497 -0.9691
 3345TIP3    H231595   6.206   5.322   1.519  0.4587  1.3948 -1.0163
 3346TIP3   OH231596   0.451   6.145   1.207 -0.1177 -0.7985 -0.0691
 3346TIP3    H131597   0.519   6.092   1.165 -1.0009 -2.1959  0.2350
 3346TIP3    H231598   0.495   6.186   1.282  0.9048 -0.0180 -1.0559
 3347TIP3   OH231599   5.742   2.781   8.304 -0.3353 -0.1078  0.4877
 3347TIP3    H131600   5.725   2.687   8.304 -2.5391  0.1968 -1.3455
 3347TIP3    H231601   5.815   2.793   8.243  0.5554 -0.6723  1.4193
 3348TIP3   OH231602   6.094   3.327   0.493 -0.1251 -0.7559 -0.3237
 3348TIP3    H131603   6.045   3.408   0.505  2.2137  0.8942 -1.3816
 3348TIP3    H231604   6.056   3.288   0.414  0.0380  0.3408 -0.9554
 3349TIP3   OH231605   2.540   5.038   1.398  0.2334  0.3068  0.3428
 3349TIP3    H131606   2.543   4.946   1.421  0.1014  0.1559 -0.2209
 3349TIP3    H231607   2.630   5.060   1.374  0.4558  0.5707  1.3738
 3350TIP3   OH231608   3.004   2.946   1.460  0.1498  0.6107  0.5432
 3350TIP3    H131609   3.063   2.970   1.389  0.7160  0.7815  1.0699
 3350TIP3    H231610   3.059   2.942   1.538 -0.1187 -1.3120  0.6925
 3351TIP3   OH231611   3.133   4.397   4.401  0.0178 -0.3033 -0.3602
 3351TIP3    H131612   3.157   4.485   4.370 -0.0908  0.3000  1.1806
 3351TIP3    H231613   3.197   4.339   4.360  1.0162  0.6879 -0.2522
 3352TIP3   OH231614   6.570   0.062   2.508 -0.0323  0.2234 -0.7235
 3352TIP3    H131615   6.608   0.133   2.456  0.7696  0.1877 -0.1846
 3352TIP3    H231616   6.636   0.042   2.574 -0.2369 -1.0454 -0.8860
 3353TIP3   OH231617   1.476   5.931   3.196  0.0379  0.1235 -0.0310
 3353TIP3    H131618   1.534   5.874   3.145 -0.0423 -1.4623  1.5581
 3353TIP3    H231619   1.388   5.899   3.177 -0.0165 -0.2399  0.8129
 3354TIP3   OH231620   4.869   2.567   1.500 -0.3702 -0.0969  0.7128
 3354TIP3    H131621   4.805   2.589   1.432 -0.0530  0.4826  0.5955
 3354TIP3    H231622   4.843   2.480   1.530 -0.1988 -0.5819 -0.5168
 3355TIP3   OH231623   3.313   3.130   8.381  0.7676 -0.1207  0.4607
 3355TIP3    H131624   3.264   3.166   8.307  0.0580 -1.8565  0.0380
 3355TIP3    H231625   3.260   3.153   8.458  0.3129 -0.2967  0.2004
 3356TIP3   OH231626   2.265   4.880   1.036  0.2522  0.3786  0.2303
 3356TIP3    H131627   2.252   4.919   0.949 -0.9509  0.4434  0.4225
 3356TIP3    H231628   2.201   4.924   1.092 -1.6234 -2.2073  0.3289
 3357TIP3   OH231629   3.371   5.426   2.209 -0.1106 -0.1855  0.6880
 3357TIP3    H131630   3.445   5.365   2.206 -0.8492 -1.0857  0.0358
 3357TIP3    H231631   3.370   5.466   2.122  0.0716  0.4280  0.9553
 3358TIP3   OH231632   3.590   3.003   8.405  0.1019  0.0068  0.2043
 3358TIP3    H131633   3.589   2.907   8.398  1.1740  0.0703 -1.2791
 3358TIP3    H231634   3.499   3.026   8.422 -0.2172 -1.2525  0.3502
 3359TIP3   OH231635   0.042   3.365   0.772 -0.4361  0.5411  0.2651
 3359TIP3    H131636   0.108   3.427   0.741 -0.6886  0.4252 -0.5385
 3359TIP3    H231637   0.055   3.287   0.717 -0.3924  0.0326  0.9787
 3360TIP3   OH231638   4.471   2.591   1.599  0.1823  0.1786 -0.0277
 3360TIP3    H131639   4.538   2.599   1.667 -0.9051  0.9608  0.9865
 3360TIP3    H231640   4.440   2.501   1.605  1.8894 -0.5577 -1.2760
 3361TIP3   OH231641   1.316   3.092   2.409 -0.3364  0.3450 -0.0701
 3361TIP3    H131642   1.268   3.046   2.340  0.6311  1.0198 -1.2440
 3361TIP3    H231643   1.326   3.181   2.375  2.2452  0.0769 -0.1736
 3362TIP3   OH231644   2.842   5.749   1.964 -0.1523 -0.8654  0.0832
 3362TIP3    H131645   2.840   5.845   1.962  0.2358 -0.7904  1.5897
 3362TIP3    H231646   2.770   5.722   1.908  0.8975  0.2567 -1.9256
 3363TIP3   OH231647   5.356   3.814   3.117  0.2538 -0.0167  0.5748
 3363TIP3    H131648   5.278   3.762   3.100  1.1189 -0.9242 -0.8264
 3363TIP3    H231649   5.359   3.822   3.212 -0.6053 -1.4444  0.7514
 3364TIP3   OH231650   2.778   4.800   0.713 -0.7947  0.4995 -0.4334
 3364TIP3    H131651   2.697   4.849   0.724 -0.8392  0.5897 -1.0728
 3364TIP3    H231652   2.758   4.713   0.747 -0.9525  0.7105  0.0159
 3365TIP3   OH231653   5.562   3.986   2.935  0.1858  0.1659 -0.0312
 3365TIP3    H131654   5.489   4.027   2.982 -2.2798 -1.8312 -1.9093
 3365TIP3    H231655   5.522   3.946   2.858  3.5706  0.4900 -2.1567
 3366TIP3   OH231656   2.309   5.520   1.503  0.0641  0.1600 -0.1105
 3366TIP3    H131657   2.367   5.595   1.493  0.3808  0.0690  0.9488
 3366TIP3    H231658   2.367   5.444   1.499 -0.2739 -0.0594 -1.3531
 3367TIP3   OH231659   3.481   6.339   3.077 -0.5185  0.3355 -0.4781
 3367TIP3    H131660   3.451   6.428   3.094  0.4669  0.8439 -1.2795
 3367TIP3    H231661   3.572   6.338   3.107 -0.3560 -0.2468 -0.9665
 3368TIP3   OH231662   4.816   5.629   1.395  0.2389 -0.3428  0.2413
 3368TIP3    H131663   4.894   5.624   1.450  0.6401  0.1883 -0.2499
 3368TIP3    H231664   4.840   5.691   1.326 -0.6851 -0.0309  0.1817
 3369TIP3   OH231665   2.394   0.453   2.599 -0.4161  0.1156  0.0102
 3369TIP3    H131666   2.445   0.531   2.624 -0.2633 -0.5161  1.8302
 3369TIP3    H231667   2.443   0.380   2.638 -1.5536 -0.7020 -0.0703
 3370TIP3   OH231668   6.341   0.843   1.016 -0.0468 -0.1476 -0.0570
 3370TIP3    H131669   6.314   0.779   0.951  1.5875 -1.1680  0.2192
 3370TIP3    H231670   6.340   0.795   1.099 -1.4952  0.9637  0.6135
 3371TIP3   OH231671   5.075   4.599   1.839  0.3373 -0.1177  0.5290
 3371TIP3    H131672   4.983   4.572   1.832  0.1279  0.8302 -0.6864
 3371TIP3    H231673   5.117   4.528   1.886 -0.9266 -0.7897  0.6931
 3372TIP3   OH231674   2.830   3.200   0.372  0.0733 -0.0657  0.0182
 3372TIP3    H131675   2.838   3.272   0.310  1.5627 -0.4902 -0.3321
 3372TIP3    H231676   2.871   3.125   0.327 -0.5252 -0.8634  0.7725
 3373TIP3   OH231677   3.944   2.386   1.853 -0.2632  0.1899  0.0144
 3373TIP3    H131678   3.873   2.352   1.907 -1.2937  0.7623 -0.9608
 3373TIP3    H231679   3.950   2.325   1.780 -0.7837  0.9820 -0.7011
 3374TIP3   OH231680   2.249   3.158   0.128  0.0968 -0.3748 -0.1404
 3374TIP3    H131681   2.203   3.213   0.066  1.7893  2.1300  0.6437
 3374TIP3    H231682   2.239   3.203   0.212  0.7767 -1.7862  0.7373
 3375TIP3   OH231683   3.605   5.286   2.493  0.8497  0.0174  0.2707
 3375TIP3    H131684   3.592   5.278   2.398 -2.1509  1.1860  0.4639
 3375TIP3    H231685   3.558   5.211   2.530  1.7402 -0.2563  0.8660
 3376TIP3   OH231686   0.551   0.281   1.856 -0.1916  0.1825 -0.0542
 3376TIP3    H131687   0.458   0.261   1.866  0.4587 -2.4549  1.7328
 3376TIP3    H231688   0.573   0.330   1.936 -0.0693  1.0612 -0.6132
 3377TIP3   OH231689   0.921   0.036   2.344  0.3932  0.5503 -1.1933
 3377TIP3    H131690   0.948  -0.002   2.427 -1.7466 -1.4850 -1.3377
 3377TIP3    H231691   1.002   0.067   2.304  1.5273  1.1520  1.3895
 3378TIP3   OH231692   4.837   0.554   0.744  0.0888 -0.7045 -0.1762
 3378TIP3    H131693   4.794   0.603   0.814  1.5363  2.7836 -1.4837
 3378TIP3    H231694   4.897   0.495   0.789 -1.7402 -1.4054  1.5111
 3379TIP3   OH231695   3.190   5.005   2.076  0.3494  0.2422 -0.4905
 3379TIP3    H131696   3.211   5.080   2.020  1.1477  1.7527  1.6939
 3379TIP3    H231697   3.162   5.044   2.158  0.9475 -1.8652  0.7903
 3380TIP3   OH231698   4.763   2.301   0.957  0.6808  0.5985 -0.1843
 3380TIP3    H131699   4.748   2.257   0.873  0.3426 -0.0622  0.2173
 3380TIP3    H231700   4.789   2.390   0.932 -1.3941  1.0482 -0.9711
 3381TIP3   OH231701   2.150   5.084   2.858  0.1605 -0.3589  0.2068
 3381TIP3    H131702   2.099   5.056   2.933 -2.9392  0.4389 -1.4364
 3381TIP3    H231703   2.156   5.179   2.866  0.4239 -0.3383 -0.1774
 3382TIP3   OH231704   2.563   2.653   1.904 -0.0652 -0.5798 -0.2093
 3382TIP3    H131705   2.467   2.658   1.911 -0.0171  1.1660 -0.4303
 3382TIP3    H231706   2.595   2.702   1.980  0.6745 -1.5583  0.1256
 3383TIP3   OH231707   6.644   3.126   2.277  0.4027  0.3037 -0.7894
 3383TIP3    H131708   6.726   3.110   2.231  0.3268  1.2951 -1.3097
 3383TIP3    H231709   6.577   3.126   2.208 -0.2039 -1.5139 -0.2516
 3384TIP3   OH231710   2.772   3.413   1.614 -0.3973 -0.5566 -0.0797
 3384TIP3    H131711   2.805   3.328   1.586  2.5495  0.3377  0.2994
 3384TIP3    H231712   2.757   3.404   1.708  0.0812 -0.6198 -0.0077
 3385TIP3   OH231713   6.421   3.963   2.693  0.4031  0.2502 -0.7840
 3385TIP3    H131714   6.421   4.047   2.737  1.5353  0.8953 -1.9485
 3385TIP3    H231715   6.329   3.944   2.677 -0.1449 -0.3379  2.3278
 3386TIP3   OH231716   2.693   4.118   3.405  0.0329  0.2727  0.2573
 3386TIP3    H131717   2.663   4.198   3.360 -1.4243 -0.4907 -0.2215
 3386TIP3    H231718   2.716   4.147   3.493  0.8307  1.4430 -0.3129
 3387TIP3   OH231719   1.975   5.165   8.470  0.4551  0.0200 -0.3923
 3387TIP3    H131720   1.940   5.084   8.433 -0.5862 -0.6454  1.8322
 3387TIP3    H231721   2.065   5.145   8.494  0.0187 -0.7261  0.7052
 3388TIP3   OH231722   0.276   3.220   3.764 -0.5756 -0.0148  1.0426
 3388TIP3    H131723   0.222   3.142   3.775 -0.1753 -0.6000 -0.7487
 3388TIP3    H231724   0.364   3.186   3.749 -0.3645  0.7779  0.4243
 3389TIP3   OH231725   4.759   5.245   8.740  0.1962  0.3816 -0.6262
 3389TIP3    H131726   4.699   5.173   8.719 -0.3561  1.7070 -4.3046
 3389TIP3    H231727   4.735   5.272   8.828 -1.4686 -2.0977 -0.2283
 3390TIP3   OH231728   0.884   0.870   1.773  0.5750  0.0184  0.0162
 3390TIP3    H131729   0.856   0.814   1.701  1.0502 -0.0556 -0.1156
 3390TIP3    H231730   0.925   0.945   1.730 -4.8931  3.4181 -0.1639
 3391TIP3   OH231731   5.483   3.016   1.756 -0.0027 -0.0106 -0.1746
 3391TIP3    H131732   5.456   2.992   1.668 -1.3155  1.2036 -0.1370
 3391TIP3    H231733   5.408   2.993   1.812 -0.1393  1.4010  0.2589
 3392TIP3   OH231734   3.418   6.124   3.371 -0.9226 -0.1583  0.5368
 3392TIP3    H131735   3.329   6.090   3.373 -1.5882  1.5194  1.3982
 3392TIP3    H231736   3.419   6.187   3.299 -0.3370 -0.4003  0.3221
 3393TIP3   OH231737   5.816   0.669   1.375 -0.0657  0.3963 -0.0213
 3393TIP3    H131738   5.868   0.598   1.335  2.6547  1.7462  0.8551
 3393TIP3    H231739   5.797   0.728   1.303 -3.3681 -1.6088 -1.0094
 3394TIP3   OH231740   2.923   3.217   1.853  0.0539  0.0042  0.5756
 3394TIP3    H131741   2.930   3.133   1.898  0.2913 -1.2935 -1.7393
 3394TIP3    H231742   2.900   3.194   1.763 -0.5051  2.4740  0.0146
 3395TIP3   OH231743   0.410   6.042   3.626 -0.1953  0.0019  0.5855
 3395TIP3    H131744   0.416   6.058   3.532 -1.2989 -1.1201  0.2871
 3395TIP3    H231745   0.362   6.117   3.661 -1.2841 -0.3877 -0.0374
 3396TIP3   OH231746   4.873   3.377   0.089  0.0965  0.1298 -0.2931
 3396TIP3    H131747   4.891   3.471   0.088  0.5164  0.0665  0.6910
 3396TIP3    H231748   4.878   3.350  -0.003  0.4731  0.9703 -0.5205
 3397TIP3   OH231749   4.134   6.287   7.912  0.3621  0.1848 -0.2808
 3397TIP3    H131750   4.124   6.365   7.968  2.2227 -0.8397  1.6113
 3397TIP3    H231751   4.212   6.305   7.860  0.3455 -0.1047 -0.4054
 3398TIP3   OH231752   3.194   0.140   0.009 -0.1051 -0.1185  0.3262
 3398TIP3    H131753   3.288   0.118   0.005 -0.2950 -0.8705 -0.3345
 3398TIP3    H231754   3.166   0.137  -0.083 -0.6359  0.7518  0.4582
 3399TIP3   OH231755   1.623   4.334   0.458  0.2116 -0.3549  0.4085
 3399TIP3    H131756   1.535   4.355   0.429  0.9396  1.9103 -0.3497
 3399TIP3    H231757   1.657   4.416   0.495  1.3419 -1.6617  2.4774
 3400TIP3   OH231758   1.097   0.313   2.961 -0.9237  0.5902  0.1879
 3400TIP3    H131759   1.097   0.297   2.867 -1.9358 -0.3785  0.3321
 3400TIP3    H231760   1.038   0.247   2.997 -0.8655  1.1948  1.4629
 3401TIP3   OH231761   6.351   4.279   0.216 -0.1721  0.3245 -0.3407
 3401TIP3    H131762   6.265   4.288   0.176 -0.4854  1.6355  0.5609
 3401TIP3    H231763   6.347   4.334   0.294  1.1592 -0.3846  0.2626
 3402TIP3   OH231764   3.089   5.498   2.259  0.0829  0.7274 -0.3744
 3402TIP3    H131765   3.183   5.484   2.251 -0.2104 -0.5457 -2.4126
 3402TIP3    H231766   3.060   5.433   2.323  0.2663 -0.8662 -1.8171
 3403TIP3   OH231767   0.963   1.267   0.335 -0.1799 -0.3668  0.2056
 3403TIP3    H131768   0.931   1.181   0.362 -0.2424 -1.0107 -1.7592
 3403TIP3    H231769   0.916   1.286   0.254  1.6103  0.4043 -0.7187
 3404TIP3   OH231770   2.309   4.720   2.865 -0.5012  0.2095  0.3233
 3404TIP3    H131771   2.308   4.625   2.875 -2.7559 -0.0545 -1.3726
 3404TIP3    H231772   2.284   4.754   2.951 -0.0607 -0.7589  0.8455
 3405TIP3   OH231773   4.894   6.804   2.330 -0.3687 -0.5082 -0.3524
 3405TIP3    H131774   4.879   6.819   2.237 -2.6572  0.5516  0.1164
 3405TIP3    H231775   4.817   6.841   2.373  0.4841 -1.2330  1.9545
 3406TIP3   OH231776   6.082   4.145   0.408  1.0183  0.5825 -0.2092
 3406TIP3    H131777   6.142   4.158   0.335 -0.5462  1.9385 -1.3209
 3406TIP3    H231778   6.011   4.092   0.373  0.3006  1.1463  0.3618
 3407TIP3   OH231779   5.293   6.543   2.186  0.6298  0.2476  0.4118
 3407TIP3    H131780   5.380   6.540   2.227  1.3068 -1.8822 -0.9845
 3407TIP3    H231781   5.311   6.534   2.092 -1.0906 -0.7070  0.1349
 3408TIP3   OH231782   2.562   4.397   3.005  0.2979  0.0894  0.6810
 3408TIP3    H131783   2.609   4.315   3.016  0.6600  0.1054 -0.5455
 3408TIP3    H231784   2.630   4.465   3.008  0.2077  0.2110  0.1213
 3409TIP3   OH231785   5.989   1.210   3.002 -0.1981  0.1048  0.2052
 3409TIP3    H131786   5.903   1.197   3.040 -0.2379 -1.4444 -0.3560
 3409TIP3    H231787   6.039   1.254   3.071 -1.0721 -0.0970  0.9825
 3410TIP3   OH231788   0.696   5.195   2.557 -0.5755  0.2491  0.4697
 3410TIP3    H131789   0.625   5.160   2.611 -0.1154 -0.7686  0.4344
 3410TIP3    H231790   0.742   5.118   2.523 -0.1009  0.8785 -0.3823
 3411TIP3   OH231791   3.446   4.270   2.137 -0.5579 -0.1992  0.0145
 3411TIP3    H131792   3.537   4.246   2.121 -0.5317  0.3684 -0.7796
 3411TIP3    H231793   3.404   4.261   2.051 -2.0725 -3.7277  0.9558
 3412TIP3   OH231794   5.909   5.114   3.935  0.2452 -0.1944 -0.1180
 3412TIP3    H131795   5.834   5.096   3.878  0.2479  0.3624 -0.3063
 3412TIP3    H231796   5.984   5.077   3.889  0.4374  1.3201 -1.1011
 3413TIP3   OH231797   3.761   2.198   0.330  0.5568  0.4577  0.4427
 3413TIP3    H131798   3.785   2.107   0.348  0.8830  0.3928 -0.3022
 3413TIP3    H231799   3.835   2.249   0.363 -0.1918  0.5572  2.0463
 3414TIP3   OH231800   3.582   2.961   0.108 -0.2038 -0.5650  0.0837
 3414TIP3    H131801   3.593   3.056   0.102  0.0833 -0.4344  1.9185
 3414TIP3    H231802   3.489   2.946   0.093 -0.2043 -0.0220 -0.4735
 3415TIP3   OH231803   0.996   1.000   3.344 -0.4586 -0.0304 -0.0150
 3415TIP3    H131804   0.988   0.918   3.394 -0.8539 -0.0899 -0.1743
 3415TIP3    H231805   1.068   1.047   3.387 -2.6361  1.2644  2.5023
 3416TIP3   OH231806   2.591   0.062   1.008  0.0550  0.2321  0.1890
 3416TIP3    H131807   2.621   0.065   0.917  1.0953  0.5966  0.5314
 3416TIP3    H231808   2.509   0.013   1.004  0.9879 -1.3238 -0.6925
 3417TIP3   OH231809   2.183   3.244   0.413 -0.7460 -0.0547  0.2235
 3417TIP3    H131810   2.091   3.225   0.394 -0.5398 -0.7508 -0.1012
 3417TIP3    H231811   2.180   3.310   0.482 -1.4951 -0.3023  0.4364
 3418TIP3   OH231812   1.145   5.349   2.543  0.6540  1.2002  0.3046
 3418TIP3    H131813   1.081   5.290   2.582  0.5129 -0.1771 -1.8376
 3418TIP3    H231814   1.111   5.436   2.560 -2.1038  0.5157 -1.1743
 3419TIP3   OH231815   5.071   0.869   8.216  0.1313 -0.4550  0.0346
 3419TIP3    H131816   5.074   0.782   8.177  1.1002 -0.0212 -0.9184
 3419TIP3    H231817   5.123   0.924   8.156  2.1593  0.1385  2.1985
 3420TIP3   OH231818   4.166   0.052   1.227 -0.2713 -0.4985  0.4256
 3420TIP3    H131819   4.254   0.044   1.264  0.7172  1.8549 -1.1925
 3420TIP3    H231820   4.136   0.138   1.256 -0.0245  0.8345 -2.8709
 3421TIP3   OH231821   4.133   0.093   8.071  0.0459  0.2194  0.5225
 3421TIP3    H131822   4.192   0.066   7.999 -1.7571 -0.2867 -0.8467
 3421TIP3    H231823   4.114   0.011   8.117 -0.2750  0.2298  0.4098
 3422TIP3   OH231824   5.213   0.954   7.725  0.4973 -0.3827 -0.1200
 3422TIP3    H131825   5.188   1.046   7.725  1.2813 -0.1480 -1.3553
 3422TIP3    H231826   5.301   0.952   7.764  0.2940 -0.6736  0.3363
 3423TIP3   OH231827   3.093   3.164   2.248 -0.2962 -0.0539 -0.3193
 3423TIP3    H131828   3.033   3.238   2.255  0.4609  0.5610 -0.1784
 3423TIP3    H231829   3.173   3.202   2.212 -0.2865 -1.0266 -1.3631
 3424TIP3   OH231830   5.045   1.953   8.521 -0.1201 -0.0098 -0.1863
 3424TIP3    H131831   5.023   1.906   8.601 -0.6859  1.4615  0.5648
 3424TIP3    H231832   5.127   1.997   8.541  0.2983 -0.4912 -0.8076
 3425TIP3   OH231833   2.087   4.436   8.142 -0.2873 -0.1728  0.3192
 3425TIP3    H131834   2.132   4.493   8.080 -2.2403 -1.3737 -2.3876
 3425TIP3    H231835   2.154   4.375   8.172  0.7849  0.6496 -0.3469
 3426TIP3   OH231836   0.146   0.759   8.383 -0.4045 -0.3475 -0.1460
 3426TIP3    H131837   0.211   0.689   8.372  0.1136  0.1366 -0.1839
 3426TIP3    H231838   0.136   0.796   8.295 -2.2211 -1.7011 -0.5814
 3427TIP3   OH231839   3.708   1.332   2.455 -0.2162 -0.5663  0.2159
 3427TIP3    H131840   3.674   1.345   2.544 -1.5543  1.1752 -0.4861
 3427TIP3    H231841   3.630   1.314   2.402  0.3094  0.3039 -0.9090
 3428TIP3   OH231842   0.741   3.450   4.150  0.3138  0.0636 -0.6344
 3428TIP3    H131843   0.753   3.365   4.193  0.4894  0.9253  1.1163
 3428TIP3    H231844   0.750   3.431   4.057 -0.6919 -2.0139 -0.3724
 3429TIP3   OH231845   4.032   3.130   3.061  0.0426  0.2130 -0.2342
 3429TIP3    H131846   3.972   3.140   3.136 -0.1106  2.0372 -0.5623
 3429TIP3    H231847   4.076   3.046   3.077 -2.4773 -1.1481  0.0959
 3430TIP3   OH231848   5.518   0.617   2.518 -0.0185 -0.1293 -0.1536
 3430TIP3    H131849   5.463   0.627   2.440  0.3014 -1.9124 -0.6663
 3430TIP3    H231850   5.600   0.662   2.495  0.4818 -1.5581 -1.3279
 3431TIP3   OH231851   5.324   3.572   1.942 -0.8777  0.5370 -0.0327
 3431TIP3    H131852   5.345   3.484   1.911 -0.9805  0.1732  0.9042
 3431TIP3    H231853   5.386   3.589   2.013  0.2800  1.9184 -1.2942
 3432TIP3   OH231854   3.407   2.339   2.232 -0.0868  1.0557 -0.0449
 3432TIP3    H131855   3.465   2.264   2.245 -0.0193  0.8828 -1.2909
 3432TIP3    H231856   3.409   2.356   2.138 -5.8466 -2.0890 -1.2378
 3433TIP3   OH231857   5.214   1.704   7.953  0.2046  0.4679 -0.0043
 3433TIP3    H131858   5.297   1.692   7.908 -0.4517  0.0680 -1.1274
 3433TIP3    H231859   5.227   1.783   8.006  0.8927  1.1165 -1.1095
 3434TIP3   OH231860   3.040   2.500   8.447  0.2007  0.1946  0.5647
 3434TIP3    H131861   2.966   2.446   8.475 -0.2245  0.3932 -0.1651
 3434TIP3    H231862   3.100   2.439   8.403 -0.7905  0.4831 -1.2425
 3435TIP3   OH231863   1.018   3.059   0.896 -0.3391 -0.1849  0.5028
 3435TIP3    H131864   0.957   3.054   0.822  1.3073 -0.5093 -0.9113
 3435TIP3    H231865   1.004   2.977   0.944  0.5986 -1.4079 -1.1854
 3436TIP3   OH231866   3.689   0.537   2.175  0.3519  0.2436  0.6657
 3436TIP3    H131867   3.641   0.500   2.101 -1.9238  2.9088  0.6562
 3436TIP3    H231868   3.659   0.485   2.250 -0.3736  0.0490  0.2560
 3437TIP3   OH231869   2.784   2.672   8.154 -0.1166  0.7467 -0.1074
 3437TIP3    H131870   2.737   2.716   8.225  1.8899  0.3911  1.5001
 3437TIP3    H231871   2.751   2.716   8.075 -0.9453  2.5637  1.1550
 3438TIP3   OH231872   5.943   6.730   1.334  0.0815 -0.2767 -0.4675
 3438TIP3    H131873   5.995   6.651   1.348 -0.1450 -0.2323  0.7360
 3438TIP3    H231874   5.968   6.788   1.406 -1.6253 -0.2657  0.1559
 3439TIP3   OH231875   4.317   1.170   4.017  0.0705 -0.4534 -0.5574
 3439TIP3    H131876   4.389   1.218   4.058  0.3533  0.3517 -1.9213
 3439TIP3    H231877   4.256   1.238   3.988  0.8895 -0.7535 -3.2986
 3440TIP3   OH231878   2.572   0.547   3.853  0.2389  0.1569 -0.3322
 3440TIP3    H131879   2.625   0.593   3.919 -0.1699 -0.7801  0.6793
 3440TIP3    H231880   2.502   0.506   3.904  0.0266 -0.7535 -1.3359
 3441TIP3   OH231881   0.865   0.970   8.449 -0.0849  0.7796  0.6061
 3441TIP3    H131882   0.809   1.044   8.471  0.3493  0.5818  2.5573
 3441TIP3    H231883   0.824   0.895   8.494 -0.0131 -0.0090 -0.5890
 3442TIP3   OH231884   3.956   6.292   0.662 -0.2603  0.1839 -0.0458
 3442TIP3    H131885   3.987   6.217   0.712 -0.0169 -0.0561 -0.5503
 3442TIP3    H231886   3.965   6.266   0.570  0.0951  0.9291 -0.2343
 3443TIP3   OH231887   3.452   6.365   1.252 -0.0949 -0.4226  0.3893
 3443TIP3    H131888   3.424   6.434   1.313 -1.0025  0.4404 -0.9468
 3443TIP3    H231889   3.531   6.399   1.211  0.0283 -0.6231  0.4599
 3444TIP3   OH231890   1.629   0.458   2.264  0.1900  0.3118  0.1778
 3444TIP3    H131891   1.715   0.433   2.295  0.2217 -0.0507 -0.1830
 3444TIP3    H231892   1.568   0.413   2.323  0.2314 -1.6813 -1.1879
 3445TIP3   OH231893   5.736   6.334   8.719 -0.7663 -0.5444 -0.3947
 3445TIP3    H131894   5.740   6.281   8.640  1.5766 -0.5742 -0.3030
 3445TIP3    H231895   5.730   6.269   8.790  0.8643 -0.6839 -0.3568
 3446TIP3   OH231896   5.313   3.252   1.025  0.1712 -0.3575  0.3073
 3446TIP3    H131897   5.227   3.219   1.000  0.5336 -0.4170 -0.9343
 3446TIP3    H231898   5.373   3.179   1.007  0.7869  0.4518 -1.1360
 3447TIP3   OH231899   2.992   2.236   0.203 -0.1622  0.5412  0.6411
 3447TIP3    H131900   2.992   2.141   0.190  0.4403  0.5771  0.3772
 3447TIP3    H231901   2.917   2.252   0.262 -0.6804 -0.0166  0.1454
 3448TIP3   OH231902   1.489   5.904   0.659  0.1590  0.7163 -0.7559
 3448TIP3    H131903   1.475   5.969   0.727  1.4026 -0.5637  0.8049
 3448TIP3    H231904   1.436   5.934   0.585 -2.1177  1.5889  1.1199
 3449TIP3   OH231905   4.268   0.738   3.387  0.0821 -0.4797 -0.2064
 3449TIP3    H131906   4.251   0.645   3.376 -1.1956 -0.2203 -0.5505
 3449TIP3    H231907   4.342   0.742   3.449  1.5065 -1.7550 -1.7338
 3450TIP3   OH231908   3.031   1.086   0.065 -0.1073 -0.4541  0.0149
 3450TIP3    H131909   2.966   1.034   0.111 -2.3881  3.3534  1.5762
 3450TIP3    H231910   2.981   1.144   0.008  1.7572  2.6284  1.2383
 3451TIP3   OH231911   4.194   6.616   4.127 -0.1018  0.2309 -0.0759
 3451TIP3    H131912   4.123   6.602   4.190 -0.6473  0.8096 -0.5380
 3451TIP3    H231913   4.251   6.540   4.136 -1.6781 -1.1126 -0.8595
 3452TIP3   OH231914   2.192   1.586   3.085  0.6432 -0.4724  0.6031
 3452TIP3    H131915   2.137   1.636   3.025  1.7807  1.6755  1.2442
 3452TIP3    H231916   2.136   1.571   3.162  0.4925  0.4422  0.6811
 3453TIP3   OH231917   6.056   3.903   8.458  0.6624  0.3418  0.1752
 3453TIP3    H131918   6.033   3.976   8.401  0.9426  0.3708  0.0946
 3453TIP3    H231919   5.976   3.882   8.505  1.3775  2.9539  2.8113
 3454TIP3   OH231920   4.669   1.794   3.518  0.5090  0.5967  0.4939
 3454TIP3    H131921   4.638   1.765   3.604  1.7566 -0.3766  0.6556
 3454TIP3    H231922   4.746   1.739   3.501  0.4544  0.9685 -1.1230
 3455TIP3   OH231923   2.173   1.754   0.937  0.2334 -0.1510 -0.2191
 3455TIP3    H131924   2.200   1.698   1.010  1.8608  0.2889 -0.4330
 3455TIP3    H231925   2.159   1.840   0.977  2.3780  0.4157 -0.5384
 3456TIP3   OH231926   4.063   2.675   2.667 -0.0312  0.1132 -0.1311
 3456TIP3    H131927   4.021   2.589   2.664  0.0240  0.1019 -0.5894
 3456TIP3    H231928   4.157   2.656   2.672 -0.0251  0.1481 -0.1103
 3457TIP3   OH231929   2.217   4.860   0.168  0.2421 -0.3296 -0.4042
 3457TIP3    H131930   2.161   4.902   0.103  0.0819  0.5574  0.2938
 3457TIP3    H231931   2.166   4.862   0.249  0.9433 -0.2846  0.0435
 3458TIP3   OH231932   2.511   2.168   0.284 -0.1524 -0.0423 -0.0811
 3458TIP3    H131933   2.464   2.148   0.203  1.3035  0.5163 -1.1280
 3458TIP3    H231934   2.488   2.097   0.344 -2.9144  0.6416 -0.2251
 3459TIP3   OH231935   1.977   4.162   4.000 -0.2971  0.1065 -0.3060
 3459TIP3    H131936   2.003   4.161   3.908 -0.2041 -1.0413 -0.2847
 3459TIP3    H231937   2.053   4.127   4.047 -1.0462 -1.2350 -0.0232
 3460TIP3   OH231938   5.331   4.089   7.644 -0.4593  0.0457 -0.5212
 3460TIP3    H131939   5.361   4.024   7.580 -1.8527 -0.4396 -0.7146
 3460TIP3    H231940   5.373   4.170   7.617 -0.1136 -0.4002 -1.3622
 3461TIP3   OH231941   3.498   4.688   8.129  0.4054 -0.0899  0.2862
 3461TIP3    H131942   3.445   4.767   8.118 -0.5018 -0.5600  1.1042
 3461TIP3    H231943   3.585   4.720   8.152  0.4961  0.7026 -1.0887
 3462TIP3   OH231944   1.114   3.689   2.631 -0.4783 -0.0984 -0.0627
 3462TIP3    H131945   1.043   3.710   2.571  1.0398  2.0082 -1.2909
 3462TIP3    H231946   1.151   3.774   2.655  0.4756 -1.0247  1.9982
 3463TIP3   OH231947   5.059   6.015   2.029 -0.0945  0.0856  0.1525
 3463TIP3    H131948   5.045   6.000   1.935 -0.4342  0.6630  0.1082
 3463TIP3    H231949   5.084   5.929   2.063 -1.6590 -0.5231 -0.1640
 3464TIP3   OH231950   5.381   4.120   1.468 -0.2333  0.0407  0.0189
 3464TIP3    H131951   5.455   4.065   1.440  1.1366  0.9594  1.6378
 3464TIP3    H231952   5.347   4.076   1.546 -0.4833  0.3768  0.0972
 3465TIP3   OH231953   4.877   1.402   2.633  0.3610  0.3229  0.1091
 3465TIP3    H131954   4.799   1.449   2.662  0.0039 -0.1406 -0.0922
 3465TIP3    H231955   4.948   1.440   2.684 -0.2149 -0.3159  1.4275
 3466TIP3   OH231956   5.099   1.099   8.440  0.2814 -0.3624 -0.2385
 3466TIP3    H131957   5.074   1.154   8.366  0.8777 -0.5884 -0.6197
 3466TIP3    H231958   5.026   1.037   8.449 -0.2344  0.2647 -0.0204
 3467TIP3   OH231959   0.963   2.146   3.206 -0.8160 -0.5729 -0.3154
 3467TIP3    H131960   0.914   2.201   3.267 -0.4212 -1.2198  0.6239
 3467TIP3    H231961   0.954   2.057   3.241  1.8120 -0.6258  0.5051
 3468TIP3   OH231962   6.438   1.500   0.517 -0.3261  0.0902 -0.7675
 3468TIP3    H131963   6.461   1.492   0.610  0.0309  1.3204 -0.7244
 3468TIP3    H231964   6.521   1.494   0.471 -0.0858  2.4036 -0.7660
 3469TIP3   OH231965   2.276   4.973   2.382 -0.3073  0.2646 -0.0307
 3469TIP3    H131966   2.311   4.925   2.458 -0.6138 -0.3912 -0.2936
 3469TIP3    H231967   2.200   5.020   2.416  0.4331  1.1787  0.3984
 3470TIP3   OH231968   1.569   1.834   1.703  0.8704 -0.4371 -0.1373
 3470TIP3    H131969   1.632   1.769   1.734 -0.5268 -1.6509  0.2342
 3470TIP3    H231970   1.505   1.784   1.653  0.7287  0.9248 -1.3900
 3471TIP3   OH231971   1.211   2.320   1.888  0.1979  0.5360  0.7012
 3471TIP3    H131972   1.140   2.355   1.835  1.7481  1.0903 -1.1165
 3471TIP3    H231973   1.211   2.226   1.870  1.3151  0.8368 -1.1647
 3472TIP3   OH231974   1.465   5.403   3.086  0.4646  0.3858  0.0115
 3472TIP3    H131975   1.561   5.412   3.081  0.5009  0.3828  0.5618
 3472TIP3    H231976   1.432   5.476   3.035  0.7713  1.0094  0.6779
 3473TIP3   OH231977   1.914   3.014   0.486  0.0113 -0.3739  0.1574
 3473TIP3    H131978   1.898   3.099   0.526  0.0550  0.2753 -1.1554
 3473TIP3    H231979   1.828   2.976   0.474 -0.0255 -0.4002  0.4968
 3474TIP3   OH231980   5.164   3.541   8.150  0.6465  0.0641 -0.0955
 3474TIP3    H131981   5.225   3.473   8.180  1.0423  0.2469 -0.4794
 3474TIP3    H231982   5.102   3.494   8.094  0.3214 -0.1544  0.4390
 3475TIP3   OH231983   6.612   4.984   0.046 -0.0293  0.5391 -0.4425
 3475TIP3    H131984   6.681   4.919   0.036  0.7259  1.3895 -0.8086
 3475TIP3    H231985   6.545   4.956  -0.016  0.2384  0.0618 -0.5277
 3476TIP3   OH231986   2.878   1.709   0.314  0.1100  0.0653 -0.6396
 3476TIP3    H131987   2.971   1.728   0.329  0.1908 -0.4273 -0.4659
 3476TIP3    H231988   2.876   1.662   0.231 -0.1268  1.1459 -1.2522
 3477TIP3   OH231989   6.634   2.374   2.498  0.4514 -0.0702 -0.7884
 3477TIP3    H131990   6.728   2.382   2.510  0.3229  0.8287 -0.2299
 3477TIP3    H231991   6.608   2.304   2.558  0.4748  1.2205  0.8086
 3478TIP3   OH231992   5.845   6.427   3.321  0.1760 -0.0089 -0.1550
 3478TIP3    H131993   5.814   6.340   3.343 -2.0372  0.7558 -0.0458
 3478TIP3    H231994   5.785   6.486   3.365  0.5819  1.5774 -1.6076
 3479TIP3   OH231995   3.000   4.850   3.083  0.3247  0.2775  0.2412
 3479TIP3    H131996   3.066   4.919   3.094  0.9665  0.2358 -2.6233
 3479TIP3    H231997   3.029   4.801   3.007 -1.2953 -1.8554  0.8927
 3480TIP3   OH231998   5.118   5.547   3.404 -0.4656  0.4392 -0.2112
 3480TIP3    H131999   5.167   5.487   3.459 -0.1020  0.1277 -0.8597
 3480TIP3    H232000   5.185   5.592   3.352 -0.8012  0.6588 -0.4639
 3481TIP3   OH232001   5.688   0.440   1.130  0.8451  0.9701 -0.3261
 3481TIP3    H132002   5.777   0.417   1.157  0.8524  0.1699 -1.0127
 3481TIP3    H232003   5.689   0.432   1.035 -0.2195  0.0369 -0.2713
 3482TIP3   OH232004   5.181   3.886   3.634 -0.8508  0.0156 -0.3611
 3482TIP3    H132005   5.129   3.892   3.714  1.0888 -0.2252  0.9826
 3482TIP3    H232006   5.132   3.827   3.578 -1.3209 -1.4143  1.4593
 3483TIP3   OH232007   6.774   0.181   3.067 -0.3893 -0.1995 -0.4253
 3483TIP3    H132008   6.815   0.122   3.004 -0.2888 -0.0411 -0.5079
 3483TIP3    H232009   6.793   0.143   3.153 -0.3450 -0.2995 -0.4798
 3484TIP3   OH232010   4.677   2.602   8.415  0.1029  0.0298 -0.1989
 3484TIP3    H132011   4.740   2.622   8.346 -0.2020 -0.3053 -0.5796
 3484TIP3    H232012   4.624   2.681   8.422  1.5291  0.9236  1.2192
 3485TIP3   OH232013   0.599   6.688   1.953 -0.0037  0.4747 -0.0996
 3485TIP3    H132014   0.616   6.739   1.874 -0.8109  0.4798 -0.2756
 3485TIP3    H232015   0.512   6.716   1.982  0.1321  0.2138  0.5948
 3486TIP3   OH232016   3.324   2.963   3.910  0.0829 -0.1002 -0.6082
 3486TIP3    H132017   3.314   2.922   3.824 -1.1318  1.8729 -1.4736
 3486TIP3    H232018   3.234   2.985   3.937  0.5976  0.8870  0.3654
 3487TIP3   OH232019   1.896   1.909   0.888 -0.0531 -0.3443 -1.0408
 3487TIP3    H132020   1.985   1.875   0.880  0.9399  1.2998  1.6931
 3487TIP3    H232021   1.846   1.836   0.924  1.0322 -0.3298  0.6051
 3488TIP3   OH232022   6.390   1.202   2.014 -0.0756 -0.0124 -0.0244
 3488TIP3    H132023   6.294   1.206   2.013 -0.1130  1.0712  2.1242
 3488TIP3    H232024   6.418   1.288   1.982  0.1503  0.0548  0.3483
 3489TIP3   OH232025   3.048   1.397   0.387 -0.5663  0.3800 -0.3599
 3489TIP3    H132026   3.137   1.374   0.416 -0.1127  0.9337 -1.2782
 3489TIP3    H232027   3.006   1.431   0.466 -0.2669 -0.7273  0.2993
 3490TIP3   OH232028   4.175   4.673   3.231  0.7637  0.7813  0.4835
 3490TIP3    H132029   4.131   4.733   3.291 -0.8888 -0.1349  0.2579
 3490TIP3    H232030   4.172   4.588   3.274  1.2431  0.4687 -0.0794
 3491TIP3   OH232031   2.194   6.483   2.649 -0.3504 -0.0377 -0.1211
 3491TIP3    H132032   2.135   6.487   2.574  0.8181  0.8077 -1.0403
 3491TIP3    H232033   2.139   6.506   2.724 -0.9179  2.2850 -1.1502
 3492TIP3   OH232034   3.203   5.914   3.170  0.3279  0.3414  0.2664
 3492TIP3    H132035   3.177   5.849   3.235  2.5974  0.2514  1.1645
 3492TIP3    H232036   3.251   5.865   3.104  0.5604  0.8635  0.0422
 3493TIP3   OH232037   1.149   5.721   0.385  0.1160  0.3664 -0.1077
 3493TIP3    H132038   1.207   5.790   0.417  1.8497 -0.9989 -0.1322
 3493TIP3    H232039   1.131   5.746   0.294 -0.1143  1.2741  0.1691
 3494TIP3   OH232040   6.666   1.503   0.296  0.1730  0.1697 -0.2681
 3494TIP3    H132041   6.727   1.492   0.369  0.9211 -1.4538 -1.0867
 3494TIP3    H232042   6.719   1.539   0.225 -0.0680 -0.2688 -0.6718
 3495TIP3   OH232043   4.125   5.691   1.925  0.2060  0.5641  0.0632
 3495TIP3    H132044   4.120   5.669   1.832 -2.3162  0.2190  0.2031
 3495TIP3    H232045   4.056   5.756   1.938 -1.6022 -1.5765  2.1810
 3496TIP3   OH232046   5.230   2.641   2.161  0.8255 -0.3732  0.1586
 3496TIP3    H132047   5.166   2.688   2.215  0.2509 -1.4575  0.4472
 3496TIP3    H232048   5.275   2.583   2.223  1.1904 -0.5548 -0.2720
 3497TIP3   OH232049   1.611   2.162   0.600 -0.3600  0.1146 -0.3039
 3497TIP3    H132050   1.674   2.232   0.583 -0.0817  0.3238  1.4393
 3497TIP3    H232051   1.616   2.107   0.522  2.8757 -0.5319  0.1931
 3498TIP3   OH232052   3.457   3.017   2.938 -0.1536 -0.9886  0.5078
 3498TIP3    H132053   3.419   3.060   3.014 -1.5387  1.9841 -1.6575
 3498TIP3    H232054   3.551   3.033   2.946 -0.2187 -1.2128  1.8450
 3499TIP3   OH232055   5.316   0.298   8.730  0.1457 -0.2363 -0.5347
 3499TIP3    H132056   5.305   0.361   8.659  2.5318 -0.3188 -1.0557
 3499TIP3    H232057   5.244   0.316   8.790  0.1975  2.3124 -1.1558
 3500TIP3   OH232058   2.884   0.878   0.185 -0.2770  0.5930 -0.3337
 3500TIP3    H132059   2.831   0.892   0.263 -1.7155  1.3839 -1.3859
 3500TIP3    H232060   2.940   0.804   0.206 -1.9299 -0.3959  0.8188
 3501TIP3   OH232061   5.565   1.262   8.162 -0.3048 -0.6214 -0.0834
 3501TIP3    H132062   5.483   1.270   8.113  0.9106  0.4081 -2.0980
 3501TIP3    H232063   5.602   1.179   8.132  0.3260 -0.1083 -0.7595
 3502TIP3   OH232064   1.706   5.789   0.835 -0.4481 -0.4473 -0.5464
 3502TIP3    H132065   1.778   5.765   0.776 -0.3068 -0.2610 -0.4503
 3502TIP3    H232066   1.642   5.831   0.778 -0.1581  0.0492 -0.5138
 3503TIP3   OH232067   2.481   3.301   3.906 -0.0145  0.0513  0.0543
 3503TIP3    H132068   2.440   3.315   3.991 -2.0373  0.1488 -0.8898
 3503TIP3    H232069   2.575   3.307   3.924 -0.3282 -1.1007  2.4671
 3504TIP3   OH232070   1.413   4.312   2.113 -0.7962  0.3114  0.6108
 3504TIP3    H132071   1.413   4.355   2.199  0.6557  1.7750 -0.0765
 3504TIP3    H232072   1.493   4.343   2.071 -1.5992 -0.2175 -1.3827
 3505TIP3   OH232073   1.276   0.994   2.714 -0.9366 -0.0385  0.1643
 3505TIP3    H132074   1.351   0.968   2.662 -1.4069  2.3191 -1.8537
 3505TIP3    H232075   1.312   1.018   2.799 -0.0932 -3.4865  0.9220
 3506TIP3   OH232076   5.215   2.998   2.090 -0.4474  0.2848  0.1917
 3506TIP3    H132077   5.238   2.939   2.018 -0.4962 -0.1401  0.5269
 3506TIP3    H232078   5.136   3.042   2.059  1.2139  2.3986 -1.3400
 3507TIP3   OH232079   4.755   4.241   1.132 -0.7747  0.0756  0.0059
 3507TIP3    H132080   4.837   4.214   1.175  0.8635  1.3443 -2.1576
 3507TIP3    H232081   4.731   4.323   1.175 -0.0729  0.4602 -0.3168
 3508TIP3   OH232082   4.875   3.730   0.314  0.5094 -0.3124 -0.2411
 3508TIP3    H132083   4.823   3.799   0.354  1.9928 -0.1597  1.5444
 3508TIP3    H232084   4.831   3.712   0.231 -0.8563  1.6087 -0.0005
 3509TIP3   OH232085   3.538   0.015   8.054  0.0845 -0.1735 -0.2824
 3509TIP3    H132086   3.557  -0.026   7.969  1.4716  1.5705 -0.8729
 3509TIP3    H232087   3.479   0.087   8.033 -0.9691 -0.7714  0.5107
 3510TIP3   OH232088   1.727   5.452   3.136 -0.1675  0.0981  0.0185
 3510TIP3    H132089   1.797   5.393   3.108 -1.4948 -1.6627  0.2723
 3510TIP3    H232090   1.758   5.489   3.219  1.5076  1.3183 -1.0715
 3511TIP3   OH232091   1.157   6.773   2.920 -0.0809 -0.5310 -0.2384
 3511TIP3    H132092   1.123   6.709   2.982  0.7441 -0.3790  0.3990
 3511TIP3    H232093   1.176   6.723   2.841  0.0722 -0.9781  0.0799
 3512TIP3   OH232094   4.164   2.948   2.845 -0.0344 -0.1709  0.4391
 3512TIP3    H132095   4.227   2.914   2.781 -0.3819 -0.6757  0.3544
 3512TIP3    H232096   4.163   3.043   2.829  1.4997 -0.0041  1.1807
 3513TIP3   OH232097   2.832   5.082   3.616 -0.2010  0.4834  0.2978
 3513TIP3    H132098   2.925   5.093   3.636  0.6305  1.3364 -3.2663
 3513TIP3    H232099   2.811   4.994   3.647  1.6665  0.4102  1.5426
 3514TIP3   OH232100   5.198   3.795   0.861  0.2137  0.1314 -0.4525
 3514TIP3    H132101   5.190   3.700   0.860 -0.5231  0.1676  0.6041
 3514TIP3    H232102   5.167   3.823   0.774  0.7647 -0.6009 -0.8941
 3515TIP3   OH232103   6.610   0.704   3.058 -0.0832  0.4270 -0.0531
 3515TIP3    H132104   6.564   0.758   3.123 -0.0324  0.0460  0.3015
 3515TIP3    H232105   6.635   0.625   3.106 -0.1746  0.0783 -0.5734
 3516TIP3   OH232106   2.045   0.116   0.595  0.3647  0.5517 -0.6154
 3516TIP3    H132107   1.988   0.099   0.521  1.0536  0.7908 -1.2091
 3516TIP3    H232108   2.061   0.029   0.633 -2.7484  0.6977  1.3949
 3517TIP3   OH232109   0.506   3.391   1.963  0.1510 -0.0650  0.1656
 3517TIP3    H132110   0.427   3.375   2.015 -0.2575 -0.8130 -0.6628
 3517TIP3    H232111   0.579   3.372   2.022 -0.2764  0.4730  0.8893
 3518TIP3   OH232112   0.367   3.482   1.138  0.6598  0.2867  0.0830
 3518TIP3    H132113   0.361   3.395   1.177  1.4059  0.5933  0.8986
 3518TIP3    H232114   0.440   3.475   1.076  1.4382  0.6118  0.9383
 3519TIP3   OH232115   5.074   6.289   0.965 -0.7714  0.1502  0.1981
 3519TIP3    H132116   5.086   6.289   0.871 -0.3760 -2.6384  0.1677
 3519TIP3    H232117   4.988   6.330   0.978 -1.3406 -0.4136 -1.4937
 3520TIP3   OH232118   3.326   5.374   8.444  0.8746 -0.4036  0.0646
 3520TIP3    H132119   3.236   5.365   8.411  0.9214 -0.4220 -0.0576
 3520TIP3    H232120   3.370   5.428   8.379  0.2215  2.0013  1.4762
 3521TIP3   OH232121   6.294   0.667   2.118  0.0944  0.1174 -0.4012
 3521TIP3    H132122   6.316   0.732   2.185  0.8598 -0.7303  0.1941
 3521TIP3    H232123   6.318   0.708   2.035  1.2320  0.3234  0.0251
 3522TIP3   OH232124   5.123   1.306   0.888 -0.9792 -0.6309  0.4931
 3522TIP3    H132125   5.043   1.310   0.837 -1.4461  0.8803  1.2821
 3522TIP3    H232126   5.186   1.261   0.831 -1.8967 -0.3304 -0.8020
 3523TIP3   OH232127   1.337   3.869   0.659 -0.5007 -0.0487 -0.3090
 3523TIP3    H132128   1.398   3.906   0.595 -0.7294 -2.4601 -2.0325
 3523TIP3    H232129   1.256   3.918   0.644 -0.1871  0.2867 -0.9806
 3524TIP3   OH232130   4.678   5.212   0.273 -0.3893  0.4456  0.3115
 3524TIP3    H132131   4.617   5.219   0.347 -2.1958  2.5021 -1.2328
 3524TIP3    H232132   4.757   5.257   0.302 -1.1301  1.3722  0.9417
 3525TIP3   OH232133   0.989   2.287   1.541 -0.0035  0.1995  0.1309
 3525TIP3    H132134   0.990   2.349   1.614 -1.4388 -0.9574  1.2250
 3525TIP3    H232135   0.905   2.240   1.551  0.2392 -0.7031 -1.6634
 3526TIP3   OH232136   2.398   4.459   1.394 -0.1894 -0.5477 -0.0468
 3526TIP3    H132137   2.459   4.490   1.326 -0.3842 -0.2785 -0.0999
 3526TIP3    H232138   2.433   4.374   1.420  0.9923  0.1998  0.8957
 3527TIP3   OH232139   5.949   5.483   0.474 -0.9487  0.4072 -0.3392
 3527TIP3    H132140   5.901   5.533   0.409 -0.5944  1.4738  0.2026
 3527TIP3    H232141   6.019   5.440   0.425 -2.0134 -0.6305 -1.0234
 3528TIP3   OH232142   2.111   6.467   2.347  0.6606  0.2149 -0.2042
 3528TIP3    H132143   2.146   6.554   2.365  1.7382  0.0290 -1.2438
 3528TIP3    H232144   2.081   6.472   2.256  1.5968 -0.7431 -0.5849
 3529TIP3   OH232145   1.361   0.710   0.131 -0.2344 -0.5148  0.2110
 3529TIP3    H132146   1.379   0.795   0.172  0.7279 -1.0805  1.0230
 3529TIP3    H232147   1.416   0.709   0.053 -0.2771 -0.3816  0.1780
 3530TIP3   OH232148   0.523   4.667   0.542  0.3348  0.5081  0.0221
 3530TIP3    H132149   0.604   4.665   0.593 -0.3349 -1.6213  1.1176
 3530TIP3    H232150   0.545   4.718   0.464  2.3017  1.1810  0.9528
 3531TIP3   OH232151   2.998   6.474   2.671 -0.4770 -0.3141 -0.0700
 3531TIP3    H132152   2.981   6.541   2.736 -1.5166  0.1194 -0.7684
 3531TIP3    H232153   2.919   6.420   2.671 -1.7200  1.3370 -2.9126
 3532TIP3   OH232154   1.808   3.851   2.935 -0.3713  0.1614 -0.0570
 3532TIP3    H132155   1.789   3.889   3.021 -4.3134  0.4370 -0.8700
 3532TIP3    H232156   1.845   3.924   2.884 -0.2369  0.6492  0.7216
 3533TIP3   OH232157   1.555   4.410   0.927 -0.1503 -0.0193  0.0778
 3533TIP3    H132158   1.631   4.365   0.891  0.6674  2.3047 -1.2969
 3533TIP3    H232159   1.483   4.388   0.867  0.0374 -0.1674 -0.0939
 3534TIP3   OH232160   4.744   0.241   2.118  0.1241 -0.5998 -0.2189
 3534TIP3    H132161   4.657   0.279   2.127 -0.1831 -1.1335 -0.9020
 3534TIP3    H232162   4.803   0.311   2.146 -0.3019  1.2497 -3.3914
 3535TIP3   OH232163   5.482   4.953   1.366  0.2020  0.0158 -0.1767
 3535TIP3    H132164   5.497   4.887   1.299  0.9121 -0.4201  0.3931
 3535TIP3    H232165   5.436   4.907   1.436  0.4286  0.1973  0.0954
 3536TIP3   OH232166   0.711   3.536   2.356 -0.2159  0.1637  0.1779
 3536TIP3    H132167   0.628   3.522   2.402 -0.7898 -0.8755 -1.1135
 3536TIP3    H232168   0.710   3.472   2.284  1.3244  0.7131 -0.3754
 3537TIP3   OH232169   1.434   6.456   0.925 -0.0889 -0.5555  0.1701
 3537TIP3    H132170   1.378   6.529   0.896 -0.8804  0.0270  2.9133
 3537TIP3    H232171   1.453   6.407   0.845 -3.2636  0.1018 -1.1200
 3538TIP3   OH232172   2.223   4.691   7.788 -0.3340 -0.3425  0.7225
 3538TIP3    H132173   2.179   4.755   7.732 -1.4240 -2.1748 -0.6521
 3538TIP3    H232174   2.183   4.704   7.875 -0.9155  0.4630  0.3508
 3539TIP3   OH232175   6.315   3.384   1.498  0.6764  0.3179  0.0894
 3539TIP3    H132176   6.226   3.374   1.466  0.1876 -0.4714  1.5814
 3539TIP3    H232177   6.350   3.459   1.451 -0.8571  0.7742 -0.3554
 3540TIP3   OH232178   5.101   0.075   0.105  0.4079  0.0732 -0.5185
 3540TIP3    H132179   5.159   0.136   0.151 -0.6607  1.2140 -0.6378
 3540TIP3    H232180   5.153   0.041   0.033  2.1849 -1.8352  1.4860
 3541TIP3   OH232181   4.489   4.412   0.493  0.1659  0.3705 -0.1482
 3541TIP3    H132182   4.528   4.325   0.504 -0.6749 -0.0534 -0.4337
 3541TIP3    H232183   4.539   4.468   0.552  0.0866 -0.5019  0.7753
 3542TIP3   OH232184   1.491   4.229   4.467  0.0318  0.2690  0.1662
 3542TIP3    H132185   1.401   4.246   4.440  0.8159  2.1646 -1.5856
 3542TIP3    H232186   1.539   4.220   4.384  1.5235 -0.2831  1.0506
 3543TIP3   OH232187   5.320   2.426   8.594  0.2967  0.3040  0.5695
 3543TIP3    H132188   5.402   2.459   8.559  0.2745  0.2416  0.4583
 3543TIP3    H232189   5.326   2.442   8.688  0.0177  1.1950  0.4396
 3544TIP3   OH232190   0.531   3.135   0.178  0.4930  0.7379 -0.1504
 3544TIP3    H132191   0.579   3.203   0.225  1.9115 -1.0313  1.1213
 3544TIP3    H232192   0.592   3.104   0.111  1.0549 -1.1976  1.1642
 3545TIP3   OH232193   1.973   6.039   2.740 -0.0308 -0.6516 -0.2957
 3545TIP3    H132194   1.989   6.106   2.674 -0.9910 -0.6773 -0.5731
 3545TIP3    H232195   1.948   5.962   2.690 -0.9295 -0.6226  0.0972
 3546TIP3   OH232196   2.290   2.542   2.992  0.1791 -0.3475 -0.3966
 3546TIP3    H132197   2.258   2.622   2.950 -0.2551  0.3553  1.2009
 3546TIP3    H232198   2.298   2.479   2.920 -1.2115  0.5695 -1.4126
 3547TIP3   OH232199   1.824   0.605   2.998  0.0848 -0.0803  0.1123
 3547TIP3    H132200   1.781   0.677   2.952 -0.9703 -0.5685  0.2942
 3547TIP3    H232201   1.816   0.629   3.091 -0.3177 -0.4413  0.1760
 3548TIP3   OH232202   3.925   5.737   0.465  0.0317  0.0236 -0.2827
 3548TIP3    H132203   3.971   5.769   0.542 -0.9149 -0.6406  0.5905
 3548TIP3    H232204   3.905   5.816   0.414 -0.1643  0.5654  0.6205
 3549TIP3   OH232205   2.907   0.024   3.293  0.3727 -0.2533 -0.0776
 3549TIP3    H132206   3.000   0.043   3.306  0.4272 -0.2870 -0.4104
 3549TIP3    H232207   2.875   0.097   3.240  0.5221 -0.9403 -1.1358
 3550TIP3   OH232208   3.982   0.872   1.533  0.1557  1.4092  0.6175
 3550TIP3    H132209   4.019   0.802   1.587 -0.8636 -2.8840 -3.5322
 3550TIP3    H232210   3.892   0.883   1.565 -0.1501 -0.4020  0.4847
 3551TIP3   OH232211   3.343   4.167   7.704 -0.1541  0.0969  0.2271
 3551TIP3    H132212   3.263   4.144   7.657 -1.2749  1.0139  1.6397
 3551TIP3    H232213   3.343   4.111   7.781 -0.3920  1.3514  1.1627
 3552TIP3   OH232214   0.627   0.214   3.359  0.1454  0.2484 -0.5142
 3552TIP3    H132215   0.703   0.258   3.322  2.7224 -2.8301  0.6900
 3552TIP3    H232216   0.614   0.258   3.444  3.2446 -1.5590  1.0905
 3553TIP3   OH232217   2.251   0.196   1.010 -0.1804  0.0025  0.0110
 3553TIP3    H132218   2.316   0.251   1.054 -0.5247 -0.5532  1.2731
 3553TIP3    H232219   2.302   0.142   0.950  0.5705 -0.5891  1.1491
 3554TIP3   OH232220   5.572   5.102   2.571  0.1760  0.2168 -0.3687
 3554TIP3    H132221   5.545   5.034   2.509 -0.1681 -0.3068  0.3313
 3554TIP3    H232222   5.640   5.151   2.525  1.0804 -1.1546 -0.5696
 3555TIP3   OH232223   5.628   2.217   8.241 -0.0295  0.0293  0.4337
 3555TIP3    H132224   5.534   2.230   8.257 -0.1111  0.4414 -0.2870
 3555TIP3    H232225   5.653   2.146   8.300 -0.9939 -0.6844  0.0240
 3556TIP3   OH232226   4.343   5.270   1.201  0.1141  0.6435 -0.1875
 3556TIP3    H132227   4.360   5.261   1.294  2.7991  0.9490 -0.5726
 3556TIP3    H232228   4.384   5.193   1.161 -1.7823  0.0298 -1.0986
 3557TIP3   OH232229   1.754   2.253   2.503 -0.3962 -0.1469  0.3791
 3557TIP3    H132230   1.832   2.198   2.494  2.6078  3.4454  1.6073
 3557TIP3    H232231   1.725   2.267   2.413  1.1095 -0.6996 -0.2299
 3558TIP3   OH232232   4.475   3.928   0.945 -0.0184  0.5242  0.6235
 3558TIP3    H132233   4.518   3.954   1.026 -1.5693  2.7216  0.8196
 3558TIP3    H232234   4.446   4.010   0.906 -1.1473 -0.6437 -1.1137
 3559TIP3   OH232235   2.967   2.957   3.417  0.0195  0.7061  0.3892
 3559TIP3    H132236   2.887   2.906   3.426  0.9024 -0.4806  2.0622
 3559TIP3    H232237   2.937   3.047   3.405 -1.5596 -0.0474 -2.0446
 3560TIP3   OH232238   0.403   4.134   1.431  0.4917  0.0756 -0.3404
 3560TIP3    H132239   0.311   4.116   1.450  0.6831  0.3583  0.9759
 3560TIP3    H232240   0.417   4.099   1.343 -1.1309  0.9523 -0.9906
 3561TIP3   OH232241   1.062   4.770   3.486  0.3314  0.4024 -0.2954
 3561TIP3    H132242   1.057   4.780   3.391 -0.9621  1.5407 -0.1527
 3561TIP3    H232243   0.981   4.809   3.518  1.2121  0.9870  1.3509
 3562TIP3   OH232244   0.923   4.476   8.596  0.0984 -0.5300 -0.4501
 3562TIP3    H132245   0.957   4.538   8.531  0.3839 -0.1235  0.0773
 3562TIP3    H232246   0.985   4.404   8.597  0.8383  0.0950  0.3332
 3563TIP3   OH232247   4.075   3.022   0.119  0.1493  0.2027 -0.0702
 3563TIP3    H132248   3.996   2.969   0.131 -0.6809  1.5474  0.7057
 3563TIP3    H232249   4.054   3.106   0.160  1.9973  0.5977  0.1638
 3564TIP3   OH232250   4.585   0.860   1.338  0.3549  0.7231  0.1616
 3564TIP3    H132251   4.548   0.772   1.346  1.1957  0.2933 -0.5086
 3564TIP3    H232252   4.676   0.851   1.365  0.3743  1.4463  0.3508
 3565TIP3   OH232253   2.095   5.379   7.589 -0.2467  0.0299 -0.5472
 3565TIP3    H132254   2.006   5.350   7.569 -0.4354 -0.1684  0.5047
 3565TIP3    H232255   2.104   5.362   7.683  0.2168  1.8397 -0.2349
 3566TIP3   OH232256   1.450   6.084   0.936  0.9931 -0.7155 -0.3531
 3566TIP3    H132257   1.537   6.119   0.954  0.4841  1.2632 -1.4218
 3566TIP3    H232258   1.404   6.092   1.019  1.3326 -0.1615 -0.2108
 3567TIP3   OH232259   6.084   5.358   2.162  0.1357 -0.3731  0.1913
 3567TIP3    H132260   6.157   5.321   2.212  1.2046 -0.8396 -1.6024
 3567TIP3    H232261   6.126   5.409   2.093 -1.3087  1.5326  0.6515
 3568TIP3   OH232262   5.026   4.501   0.927  0.1431  0.1185  0.3689
 3568TIP3    H132263   4.941   4.461   0.944  0.3585 -1.0971 -1.1086
 3568TIP3    H232264   5.007   4.574   0.868 -0.0256  0.9215  1.3868
 3569TIP3   OH232265   1.756   1.043   0.993 -0.1312  0.5758 -0.2545
 3569TIP3    H132266   1.738   1.041   1.087 -0.4608 -0.9631 -0.3312
 3569TIP3    H232267   1.756   1.136   0.971 -0.2446  0.9521  1.2267
 3570TIP3   OH232268   4.030   3.795   2.379 -0.3652  0.0194  0.1108
 3570TIP3    H132269   4.067   3.827   2.461 -0.6531  1.7938 -0.4225
 3570TIP3    H232270   3.937   3.780   2.398 -0.5318  0.8795 -0.0030
 3571TIP3   OH232271   6.058   2.255   2.286 -0.1912  0.1583  0.6427
 3571TIP3    H132272   5.978   2.291   2.325  0.4077 -0.1070  2.2077
 3571TIP3    H232273   6.129   2.292   2.339  0.6702 -0.3616 -0.1129
 3572TIP3   OH232274   3.709   5.503   8.429  0.5643 -0.4733 -0.6534
 3572TIP3    H132275   3.696   5.473   8.340  0.4504  0.3116 -0.9100
 3572TIP3    H232276   3.793   5.464   8.456 -0.2804 -2.2163 -0.4269
 3573TIP3   OH232277   3.220   3.961   0.978 -0.2522  0.0021  0.2993
 3573TIP3    H132278   3.201   3.868   0.987 -1.6431  0.3330  1.0318
 3573TIP3    H232279   3.314   3.968   0.995 -0.2980 -1.1645  1.1230
 3574TIP3   OH232280   5.990   6.603   3.026  0.0873 -0.2836  0.3426
 3574TIP3    H132281   5.954   6.584   3.113 -0.0061 -0.2988  0.3011
 3574TIP3    H232282   6.074   6.645   3.043 -0.0757  0.0047  0.4453
 3575TIP3   OH232283   0.713   0.524   1.472 -0.0373  0.1030  0.0428
 3575TIP3    H132284   0.721   0.601   1.529  0.4191  0.5836 -0.6534
 3575TIP3    H232285   0.646   0.550   1.408  1.3783  0.6461 -1.2897
 3576TIP3   OH232286   5.205   0.195   2.918  0.6704 -0.3233 -0.0332
 3576TIP3    H132287   5.203   0.146   3.000  1.7719 -0.1778  0.0881
 3576TIP3    H232288   5.173   0.134   2.852  0.1358 -0.5578  0.4328
 3577TIP3   OH232289   6.688   0.276   2.753 -0.6641  0.1611 -0.8135
 3577TIP3    H132290   6.623   0.219   2.794 -0.9404 -0.0175 -1.4838
 3577TIP3    H232291   6.772   0.235   2.773 -0.8211 -0.1387 -0.7686
 3578TIP3   OH232292   0.965   4.380   3.173  0.1582 -0.6001  0.0514
 3578TIP3    H132293   0.950   4.468   3.140 -0.3899 -1.3328 -1.7857
 3578TIP3    H232294   1.039   4.347   3.122 -0.3175 -1.5530 -0.0480
 3579TIP3   OH232295   0.101   6.521   8.446  0.0074 -0.7758 -0.1265
 3579TIP3    H132296   0.195   6.516   8.432  0.1923 -0.6022  0.9361
 3579TIP3    H232297   0.065   6.551   8.362  1.0335  0.4992 -0.1399
 3580TIP3   OH232298   0.906   1.689   8.230  0.0365  0.3793 -0.8693
 3580TIP3    H132299   0.929   1.602   8.197  0.0033  0.3690 -0.8654
 3580TIP3    H232300   0.813   1.698   8.209 -0.1557  0.0996 -0.1775
 3581TIP3   OH232301   4.135   2.661   8.652  0.0424  0.3521 -0.5300
 3581TIP3    H132302   4.041   2.670   8.635  0.2024  0.8327 -1.1788
 3581TIP3    H232303   4.141   2.589   8.715 -0.7991  0.6205 -0.1213
 3582TIP3   OH232304   3.109   3.239   8.215 -0.6227 -0.9817  0.6220
 3582TIP3    H132305   3.015   3.220   8.220 -0.8724  0.4735  2.1212
 3582TIP3    H232306   3.118   3.296   8.139 -1.3266  0.6012  1.6624
 3583TIP3   OH232307   5.669   1.478   4.053 -0.4856  0.2622  0.0272
 3583TIP3    H132308   5.668   1.557   4.107  0.9616 -0.8751  1.8354
 3583TIP3    H232309   5.762   1.464   4.033 -0.7810 -0.6679 -0.7585
 3584TIP3   OH232310   5.852   1.564   1.390 -0.2487 -0.5126 -0.0768
 3584TIP3    H132311   5.891   1.478   1.404 -0.1519 -0.4526  0.0303
 3584TIP3    H232312   5.903   1.602   1.318 -1.5948 -1.3432 -1.5380
 3585TIP3   OH232313   4.368   6.638   0.154  0.0031 -0.0956 -0.3562
 3585TIP3    H132314   4.324   6.710   0.198  0.2026  1.6513 -2.8546
 3585TIP3    H232315   4.439   6.613   0.214 -0.8433  0.8819  1.1169
 3586TIP3   OH232316   6.719   1.110   1.971 -0.2473  0.0683  0.4404
 3586TIP3    H132317   6.716   1.109   2.067 -0.3729 -2.6063  0.4671
 3586TIP3    H232318   6.810   1.087   1.950  0.4415  2.9703 -0.1672
 3587TIP3   OH232319   6.773   5.634   1.485 -0.3120 -0.4540 -0.5975
 3587TIP3    H132320   6.742   5.610   1.572  0.2279 -1.9979 -0.7971
 3587TIP3    H232321   6.816   5.555   1.452  2.4601  1.0600 -0.9323
 3588TIP3   OH232322   6.277   5.833   8.485  0.3571  0.3080  0.0196
 3588TIP3    H132323   6.348   5.869   8.432 -0.3204  0.2066 -0.9788
 3588TIP3    H232324   6.266   5.744   8.453  0.0976  0.1642  0.5019
 3589TIP3   OH232325   0.064   0.603   1.396  0.2957 -0.5518  0.1409
 3589TIP3    H132326   0.000   0.633   1.331 -0.4675  0.5016  1.3296
 3589TIP3    H232327   0.041   0.511   1.411 -1.2306 -0.0995  0.8222
 3590TIP3   OH232328   3.593   1.954   3.344 -0.2854  0.2569  0.1717
 3590TIP3    H132329   3.689   1.961   3.352 -0.2387 -0.1381 -0.0142
 3590TIP3    H232330   3.573   1.867   3.379 -0.4290 -0.1998 -1.0167
 3591TIP3   OH232331   4.564   3.669   1.026 -0.1384  0.2947  0.6306
 3591TIP3    H132332   4.638   3.675   0.966 -1.0538 -1.6783 -0.7769
 3591TIP3    H232333   4.510   3.745   1.006 -1.7859 -1.6385 -3.0485
 3592TIP3   OH232334   4.873   4.165   8.649 -0.2831 -0.0013  0.0694
 3592TIP3    H132335   4.923   4.204   8.577  0.4803  0.8481  1.0335
 3592TIP3    H232336   4.782   4.167   8.618  0.0706 -0.0294 -1.0288
 3593TIP3   OH232337   1.834   5.386   1.636  0.3413  0.1394  0.0218
 3593TIP3    H132338   1.854   5.357   1.547  1.0740 -0.4394  0.3680
 3593TIP3    H232339   1.878   5.471   1.643  0.7982 -0.0944  0.0294
 3594TIP3   OH232340   5.032   0.629   2.176  0.0844 -0.1321 -0.6589
 3594TIP3    H132341   5.049   0.703   2.117  0.7129  0.5091  0.2919
 3594TIP3    H232342   5.036   0.667   2.263  0.4084 -1.3047 -0.1477
 3595TIP3   OH232343   6.693   1.713   2.591  0.6805 -0.5629  0.1349
 3595TIP3    H132344   6.705   1.780   2.658  0.1034 -0.7933  0.4813
 3595TIP3    H232345   6.624   1.749   2.534  1.2987 -0.2867 -0.4450
 3596TIP3   OH232346   4.127   1.315   0.390 -0.0497 -0.1091  0.1914
 3596TIP3    H132347   4.121   1.231   0.345 -0.8362  0.2414 -0.3820
 3596TIP3    H232348   4.051   1.316   0.448  0.5719 -0.2581  1.0323
 3597TIP3   OH232349   6.766   4.376   2.280 -0.4853 -0.2519 -0.3318
 3597TIP3    H132350   6.859   4.361   2.263 -0.5613  0.0504 -1.0666
 3597TIP3    H232351   6.761   4.466   2.312 -0.4049 -0.6400  0.7888
 3598TIP3   OH232352   3.097   4.192   3.166 -0.3963  0.3888 -0.1669
 3598TIP3    H132353   3.081   4.103   3.198  1.2536 -0.0753 -0.5642
 3598TIP3    H232354   3.137   4.237   3.241  0.5056  0.2359 -0.5487
 3599TIP3   OH232355   1.596   6.618   2.617 -0.9430  0.2342  0.1631
 3599TIP3    H132356   1.501   6.606   2.611 -0.9417  0.8202 -1.7095
 3599TIP3    H232357   1.608   6.713   2.619 -0.3454  0.2208 -1.4890
 3600TIP3   OH232358   2.107   5.545   3.070  0.2521 -0.1634  0.0547
 3600TIP3    H132359   2.171   5.527   3.140 -0.7433 -0.8933  0.8034
 3600TIP3    H232360   2.038   5.596   3.114  0.0800  0.2050 -0.6330
 3601TIP3   OH232361   0.041   6.455   0.550 -0.0549 -0.7529 -0.2161
 3601TIP3    H132362   0.009   6.506   0.624 -3.4034 -0.1025 -1.9563
 3601TIP3    H232363   0.039   6.364   0.580  1.0624 -0.3375  1.2282
 3602TIP3   OH232364   4.544   3.535   2.614 -0.0515  0.0269 -0.5043
 3602TIP3    H132365   4.632   3.518   2.649 -0.1564  0.3906 -0.0455
 3602TIP3    H232366   4.511   3.450   2.587 -0.1278 -0.3261  0.6716
 3603TIP3   OH232367   2.482   4.768   2.310 -0.0485  0.3029 -0.0577
 3603TIP3    H132368   2.528   4.686   2.331  0.3460  0.0869 -1.6315
 3603TIP3    H232369   2.463   4.807   2.395 -1.8497 -2.2728  0.8725
 3604TIP3   OH232370   2.683   3.655   8.495  0.5204 -0.2242  0.4084
 3604TIP3    H132371   2.594   3.642   8.527  1.0049  0.6826  2.2975
 3604TIP3    H232372   2.696   3.750   8.497  1.5168 -0.3376  0.1180
 3605TIP3   OH232373   6.173   0.887   0.099  0.5026  0.1723  0.6663
 3605TIP3    H132374   6.172   0.982   0.095  1.3080  0.2016  1.0406
 3605TIP3    H232375   6.243   0.861   0.039  1.0925 -0.1228  1.4672
 3606TIP3   OH232376   2.304   4.021   2.159 -0.1070 -1.1186 -0.3717
 3606TIP3    H132377   2.290   4.020   2.064 -0.9550  1.5936 -0.3452
 3606TIP3    H232378   2.256   4.097   2.190 -0.6432 -2.4651  2.4224
 3607TIP3   OH232379   3.345   5.483   2.498 -0.4004  0.3907  0.0787
 3607TIP3    H132380   3.423   5.533   2.524 -0.7402  0.0169  1.9530
 3607TIP3    H232381   3.364   5.455   2.409  2.1269 -0.5948  0.8114
 3608TIP3   OH232382   5.399   2.619   1.112 -0.0777  0.1503 -0.2885
 3608TIP3    H132383   5.361   2.672   1.042  0.6117  2.3805  0.9053
 3608TIP3    H232384   5.491   2.648   1.116  0.2631 -1.0032  0.5634
 3609TIP3   OH232385   3.615   4.387   2.999 -1.1638 -0.2251  0.1534
 3609TIP3    H132386   3.537   4.337   3.022 -0.3853  0.0448  4.1900
 3609TIP3    H232387   3.604   4.470   3.047  1.4258 -0.0797  0.5954
 3610TIP3   OH232388   5.788   0.517   3.503  0.3470  0.1757 -0.2067
 3610TIP3    H132389   5.875   0.515   3.543 -0.9667 -2.1754  2.9574
 3610TIP3    H232390   5.776   0.430   3.466 -0.6696  0.4429 -0.5408
 3611TIP3   OH232391   3.511   4.725   2.909  0.1003 -0.7122  0.2706
 3611TIP3    H132392   3.467   4.651   2.951 -3.1884  0.5482 -0.6326
 3611TIP3    H232393   3.536   4.693   2.823 -2.0634 -0.6703 -0.4399
 3612TIP3   OH232394   0.891   6.597   8.070  0.1264 -0.2345  0.2120
 3612TIP3    H132395   0.853   6.669   8.120  0.3287 -0.7075  1.0620
 3612TIP3    H232396   0.820   6.568   8.013 -0.4309 -0.3576  0.9609
 3613TIP3   OH232397   4.550   6.076   2.180 -0.2191  0.3907  0.2487
 3613TIP3    H132398   4.502   6.069   2.098  0.5052  1.0047 -0.2496
 3613TIP3    H232399   4.607   6.152   2.168  0.6349 -0.1140  0.9256
 3614TIP3   OH232400   5.561   1.330   1.799 -0.4440  0.1147  0.6840
 3614TIP3    H132401   5.519   1.277   1.866 -0.8614  0.3223  0.5882
 3614TIP3    H232402   5.648   1.348   1.834 -0.9216  0.8686  1.5316
 3615TIP3   OH232403   2.240   1.453   0.800 -0.1756 -0.2721 -0.2353
 3615TIP3    H132404   2.320   1.456   0.852  1.3080 -0.8130 -2.3607
 3615TIP3    H232405   2.198   1.538   0.817  1.7885  0.8197 -0.4602
 3616TIP3   OH232406   1.810   0.291   2.692  0.0135 -0.0974  0.1078
 3616TIP3    H132407   1.900   0.317   2.709 -0.5837  1.8747  0.6160
 3616TIP3    H232408   1.765   0.307   2.776 -0.6454 -1.9052  0.1363
 3617TIP3   OH232409   3.880   1.282   0.532 -0.0384  0.4455 -0.0180
 3617TIP3    H132410   3.854   1.206   0.481  1.9473 -0.0005 -0.4488
 3617TIP3    H232411   3.888   1.250   0.622 -2.3642  0.9572  0.4429
 3618TIP3   OH232412   1.158   4.917   2.250  0.2611 -0.3525  0.1086
 3618TIP3    H132413   1.166   4.877   2.337  1.7112 -1.0827 -0.3320
 3618TIP3    H232414   1.216   4.865   2.194 -0.8653 -0.0762 -1.3743
 3619TIP3   OH232415   1.673   6.197   1.983 -0.2711  0.2389  0.0285
 3619TIP3    H132416   1.588   6.160   2.008 -0.1580 -0.2743 -0.3304
 3619TIP3    H232417   1.666   6.211   1.888 -0.3367  1.2169  0.1691
 3620TIP3   OH232418   5.256   0.352   8.262 -0.0047 -0.7708 -0.7100
 3620TIP3    H132419   5.191   0.289   8.294 -1.2403  0.9762  0.4354
 3620TIP3    H232420   5.252   0.345   8.167  0.8313 -3.2675 -0.6234
 3621TIP3   OH232421   0.115   6.666   0.082 -0.1110  0.2660 -0.3850
 3621TIP3    H132422   0.093   6.725   0.154  0.8321  0.4556 -0.2485
 3621TIP3    H232423   0.092   6.579   0.114  1.6774  0.1649  0.7337
 3622TIP3   OH232424   0.519   6.611   2.295  0.4819  0.5803  0.4538
 3622TIP3    H132425   0.584   6.597   2.364  0.1244 -3.0318  0.2142
 3622TIP3    H232426   0.551   6.688   2.247  2.3983  1.2953  2.7067
 3623TIP3   OH232427   5.121   1.351   2.164 -0.0871 -0.7313  0.2926
 3623TIP3    H132428   5.096   1.383   2.250  0.7425 -2.4884  1.2336
 3623TIP3    H232429   5.135   1.257   2.176  0.9032 -0.8705 -1.5499
 3624TIP3   OH232430   5.705   3.381   0.476  0.1906  0.0381  0.4775
 3624TIP3    H132431   5.638   3.313   0.471  0.2514  0.0597 -1.1936
 3624TIP3    H232432   5.778   3.346   0.425  0.0727  1.5026 -0.7616
 3625TIP3   OH232433   6.236   2.610   1.741 -0.3336  0.3703 -0.3544
 3625TIP3    H132434   6.236   2.586   1.648 -2.0598  1.6301 -0.7434
 3625TIP3    H232435   6.147   2.594   1.770  0.4506 -1.0598  1.4309
 3626TIP3   OH232436   5.361   6.681   0.416 -0.0226  0.0864  0.2946
 3626TIP3    H132437   5.427   6.686   0.346  0.1595  0.1321  0.4683
 3626TIP3    H232438   5.351   6.588   0.433  0.6112  0.1114  0.8419
 3627TIP3   OH232439   4.339   5.259   1.573 -0.5227 -0.0470 -0.3861
 3627TIP3    H132440   4.376   5.183   1.617  1.2007  0.7632 -0.3781
 3627TIP3    H232441   4.325   5.323   1.644  2.9497  1.5426 -0.9101
 3628TIP3   OH232442   4.078   6.278   1.703 -0.3674  0.1939 -0.2482
 3628TIP3    H132443   4.151   6.300   1.760 -0.1815 -0.3274 -0.2772
 3628TIP3    H232444   4.117   6.269   1.616 -0.4333 -0.2545 -0.2353
 3629TIP3   OH232445   5.847   2.460   0.505 -0.5525 -0.4157 -0.1560
 3629TIP3    H132446   5.826   2.541   0.457 -0.7203 -1.0425 -1.1857
 3629TIP3    H232447   5.914   2.486   0.568 -0.2714  0.4413 -0.7885
 3630TIP3   OH232448   1.091   4.403   2.417 -0.4722 -0.3162  0.1822
 3630TIP3    H132449   1.016   4.356   2.454 -0.7028 -0.3793 -0.3571
 3630TIP3    H232450   1.052   4.471   2.362 -0.1440  0.4708  0.8856
 3631TIP3   OH232451   5.252   3.332   2.308 -0.2053  0.7247  0.4584
 3631TIP3    H132452   5.317   3.384   2.354 -1.7765  2.8457  0.4241
 3631TIP3    H232453   5.174   3.338   2.363 -0.7341 -0.7661 -0.0815
 3632TIP3   OH232454   2.059   2.343   6.041 -0.0279  0.0762  0.0355
 3632TIP3    H132455   1.978   2.363   6.088 -1.7251  0.9342 -2.9905
 3632TIP3    H232456   2.116   2.418   6.059  0.5930 -1.0004  3.0091
 3633TIP3   OH232457   0.639   5.059   3.053  0.2480  0.0362 -0.0196
 3633TIP3    H132458   0.671   5.051   2.963 -0.3884  1.3824 -0.4061
 3633TIP3    H232459   0.577   4.986   3.063 -0.1108  0.2044 -0.8904
 3634TIP3   OH232460   3.680   6.043   3.394  0.0374 -0.1762 -0.1515
 3634TIP3    H132461   3.708   6.134   3.406  0.1726 -0.3446  0.8971
 3634TIP3    H232462   3.585   6.047   3.389  0.0138 -0.0236  0.3927
 3635TIP3   OH232463   6.467   4.906   0.544  0.2964  0.7302 -0.4157
 3635TIP3    H132464   6.451   4.881   0.453 -1.2512 -1.5095  0.3768
 3635TIP3    H232465   6.481   4.823   0.589  0.0167  1.7116  1.5546
 3636TIP3   OH232466   1.220   0.817   2.429 -0.0905  0.6240  0.1770
 3636TIP3    H132467   1.138   0.865   2.414  0.3945  1.3467 -0.2440
 3636TIP3    H232468   1.288   0.883   2.415  0.6845 -0.5369 -2.0342
 3637TIP3   OH232469   2.575   4.545   2.426  0.0482  0.3724 -0.1780
 3637TIP3    H132470   2.562   4.507   2.513 -0.9583 -0.5840 -0.7188
 3637TIP3    H232471   2.554   4.474   2.366  1.7749  0.7087 -1.2116
 3638TIP3   OH232472   2.437   3.711   2.757  0.0369 -0.3807  0.3576
 3638TIP3    H132473   2.397   3.627   2.779 -0.8288  0.0024  0.2691
 3638TIP3    H232474   2.368   3.775   2.770  0.1797  0.1348 -1.1784
 3639TIP3   OH232475   0.332   6.020   1.492 -0.2473 -0.5434  0.1184
 3639TIP3    H132476   0.323   5.925   1.498  0.4003 -0.7012 -1.0911
 3639TIP3    H232477   0.410   6.033   1.438 -0.5593  0.6811 -0.0653
 3640TIP3   OH232478   6.105   2.910   3.850 -0.6755 -0.0215  0.0986
 3640TIP3    H132479   6.094   2.816   3.868  0.6481 -0.3123 -0.5198
 3640TIP3    H232480   6.196   2.928   3.872 -0.6188  0.8838 -0.8174
 3641TIP3   OH232481   5.486   4.464   0.227  0.1058  0.2483 -0.0955
 3641TIP3    H132482   5.514   4.552   0.206  0.3581 -0.1712 -1.6550
 3641TIP3    H232483   5.414   4.447   0.167 -0.9329 -0.0983  1.1924
 3642TIP3   OH232484   2.830   5.461   0.917  0.1080  0.6495 -0.4075
 3642TIP3    H132485   2.905   5.428   0.868 -0.6306 -0.4118 -0.8492
 3642TIP3    H232486   2.760   5.468   0.852 -0.6269  0.0931  0.3059
 3643TIP3   OH232487   4.207   6.746   2.459 -0.3515  0.4355 -0.0983
 3643TIP3    H132488   4.258   6.809   2.510  0.5985  0.7948 -1.4133
 3643TIP3    H232489   4.226   6.769   2.368 -0.9065 -1.0286 -0.6115
 3644TIP3   OH232490   1.803   1.159   8.445  0.6759  0.1050 -0.0582
 3644TIP3    H132491   1.788   1.118   8.360  2.4996  0.6340 -0.6725
 3644TIP3    H232492   1.765   1.247   8.436  0.1390 -0.1216 -0.0364
 3645TIP3   OH232493   1.308   6.006   0.484 -0.0974  0.1925  0.2311
 3645TIP3    H132494   1.367   6.055   0.426  0.0684 -1.1516 -0.7914
 3645TIP3    H232495   1.220   6.032   0.457 -0.0264  1.8890  1.4811
 3646TIP3   OH232496   2.408   6.819   3.659  0.0729  0.6610 -0.3290
 3646TIP3    H132497   2.348   6.814   3.734  1.7356  1.3315  1.1198
 3646TIP3    H232498   2.403   6.910   3.631  2.6767  1.6077  1.8692
 3647TIP3   OH232499   3.010   5.602   0.196  0.4208 -0.0628  0.1932
 3647TIP3    H132500   3.004   5.538   0.126 -1.7494  0.9414 -0.6392
 3647TIP3    H232501   3.039   5.683   0.153  0.9929  0.0953  0.8377
 3648TIP3   OH232502   1.400   0.338   2.394 -0.5428 -0.6162  0.1735
 3648TIP3    H132503   1.392   0.253   2.437 -1.2097  0.2735  1.8790
 3648TIP3    H232504   1.339   0.334   2.320 -0.2798 -1.7339 -0.0028
 3649TIP3   OH232505   2.524   2.845   3.715 -0.5610  0.9800 -0.2478
 3649TIP3    H132506   2.480   2.796   3.785 -0.3886 -1.7778 -1.9216
 3649TIP3    H232507   2.613   2.810   3.715 -0.3510  1.4890 -1.3540
 3650TIP3   OH232508   3.734   1.464   0.071  0.4266  0.4343  0.1659
 3650TIP3    H132509   3.798   1.534   0.072  0.0024  0.8262  0.0319
 3650TIP3    H232510   3.692   1.470  -0.015  0.5644 -0.1413  0.0515
 3651TIP3   OH232511   2.883   0.714   1.664  0.6145  0.1577 -0.2487
 3651TIP3    H132512   2.909   0.671   1.582  1.9307  0.8300 -0.2045
 3651TIP3    H232513   2.948   0.685   1.728  0.3390  0.6258  0.2498
 3652TIP3   OH232514   5.619   3.192   1.318 -0.4684  0.3940  0.0732
 3652TIP3    H132515   5.547   3.250   1.343  0.4766  1.1402  1.1276
 3652TIP3    H232516   5.642   3.220   1.229 -0.6099  1.0317  0.2335
 3653TIP3   OH232517   6.597   2.031   4.093 -0.1803  0.1901 -0.3237
 3653TIP3    H132518   6.610   2.097   4.025 -2.0669  1.1301  0.1659
 3653TIP3    H232519   6.524   1.978   4.062  1.6863 -2.1933 -1.0187
 3654TIP3   OH232520   0.860   3.983   7.739  0.1207 -0.5121 -0.6994
 3654TIP3    H132521   0.931   3.981   7.803  0.7547 -0.3615 -1.3951
 3654TIP3    H232522   0.893   4.035   7.666 -0.5837 -0.6954 -1.1668
 3655TIP3   OH232523   4.305   3.189   1.977 -0.0791 -0.1687  0.3129
 3655TIP3    H132524   4.388   3.141   1.972  0.7382  1.2454 -0.4206
 3655TIP3    H232525   4.248   3.134   2.030  0.7009 -2.0798 -0.7636
 3656TIP3   OH232526   0.627   3.958   8.449 -0.1666 -0.0194  0.1234
 3656TIP3    H132527   0.556   3.895   8.451  0.1102 -0.3307  1.1860
 3656TIP3    H232528   0.704   3.909   8.478  0.2914  0.5332 -0.1212
 3657TIP3   OH232529   0.713   5.738   3.116  0.1232  0.1131  0.4432
 3657TIP3    H132530   0.743   5.647   3.108 -1.1707 -0.8009  3.7927
 3657TIP3    H232531   0.787   5.785   3.154  0.3538  0.1376 -0.0353
 3658TIP3   OH232532   3.393   4.454   8.156 -0.2767 -0.1440 -0.6646
 3658TIP3    H132533   3.432   4.541   8.148 -0.8000  0.0300 -1.3880
 3658TIP3    H232534   3.413   4.411   8.073 -1.2905 -0.1871 -0.8920
 3659TIP3   OH232535   0.877   6.515   3.432 -0.1994 -0.7299  0.3976
 3659TIP3    H132536   0.815   6.585   3.453 -0.2405 -0.1735 -1.3457
 3659TIP3    H232537   0.829   6.458   3.372  0.9398 -0.2692 -1.0220
 3660TIP3   OH232538   0.741   6.749   3.459  0.0278 -0.0432  0.5363
 3660TIP3    H132539   0.737   6.845   3.462 -0.0919  0.0840 -1.7440
 3660TIP3    H232540   0.649   6.721   3.462 -0.0204  0.0113 -0.2320
 3661TIP3   OH232541   1.187   1.658   3.789  0.0670  0.7417  0.1816
 3661TIP3    H132542   1.128   1.724   3.751 -0.7663  0.1924  0.5056
 3661TIP3    H232543   1.220   1.699   3.869  1.0429  1.5019 -0.5702
 3662TIP3   OH232544   4.593   1.822   2.746 -0.2815  0.6019 -0.1513
 3662TIP3    H132545   4.530   1.850   2.680  0.1793  1.1618 -0.3678
 3662TIP3    H232546   4.540   1.802   2.823 -0.6446  2.2287  0.0632
 3663TIP3   OH232547   5.560   4.931   2.332  0.3248  0.4887  0.3857
 3663TIP3    H132548   5.622   4.941   2.259  0.2288  0.5758  0.3150
 3663TIP3    H232549   5.482   4.977   2.302 -0.0551 -0.3053  0.1358
 3664TIP3   OH232550   4.116   2.220   0.006 -0.2081 -0.0914  0.6597
 3664TIP3    H132551   4.076   2.213  -0.081 -1.8644 -1.0262  1.4465
 3664TIP3    H232552   4.091   2.139   0.051  2.6019 -0.7277  1.2640
 3665TIP3   OH232553   2.651   0.362   8.546  0.5760 -0.4662  0.0265
 3665TIP3    H132554   2.718   0.428   8.533 -1.0032  1.0212 -1.0577
 3665TIP3    H232555   2.631   0.330   8.458 -0.8132 -0.1348  0.1890
 3666TIP3   OH232556   4.648   2.571   1.817  0.7120 -0.3569 -0.7486
 3666TIP3    H132557   4.728   2.531   1.783 -0.5996 -2.0615 -1.9466
 3666TIP3    H232558   4.617   2.510   1.883  0.7744  0.6829  0.2746
 3667TIP3   OH232559   5.614   2.313   1.450 -0.7367 -0.1437  0.1249
 3667TIP3    H132560   5.654   2.400   1.458  0.1360 -0.6248  1.4323
 3667TIP3    H232561   5.562   2.318   1.370 -0.5589  1.5196  0.0602
 3668TIP3   OH232562   5.256   6.258   3.694 -0.6275  0.2737  0.3483
 3668TIP3    H132563   5.315   6.185   3.675 -0.5307  0.0195  1.5279
 3668TIP3    H232564   5.169   6.224   3.670 -0.3500  0.5748 -1.1828
 3669TIP3   OH232565   5.092   1.882   3.407  0.2034  0.5023 -0.0437
 3669TIP3    H132566   5.065   1.955   3.351 -2.2276  0.0035  0.3990
 3669TIP3    H232567   5.130   1.818   3.346  2.2429  1.9897 -0.4551
 3670TIP3   OH232568   4.020   3.812   3.044  0.2549  0.2179 -0.7841
 3670TIP3    H132569   4.109   3.816   3.079 -0.3233 -2.8168  1.4248
 3670TIP3    H232570   4.005   3.720   3.026 -2.3627  0.6774 -1.3799
 3671TIP3   OH232571   2.649   4.975   2.351  0.0159 -0.3452  0.2339
 3671TIP3    H132572   2.620   4.886   2.331  2.2147 -0.8602 -1.0364
 3671TIP3    H232573   2.610   5.030   2.283 -1.8166 -0.1810  1.3523
 3672TIP3   OH232574   1.297   4.587   3.113  0.4443 -0.0284  0.1019
 3672TIP3    H132575   1.389   4.562   3.126  0.1624 -2.1389 -1.4859
 3672TIP3    H232576   1.252   4.505   3.093 -1.7005  1.0483  0.2083
 3673TIP3   OH232577   4.626   3.480   8.234 -0.2567  0.1098  0.2142
 3673TIP3    H132578   4.567   3.539   8.187  0.8315  0.5828 -0.6070
 3673TIP3    H232579   4.682   3.539   8.286  0.3799 -0.2390 -0.0658
 3674TIP3   OH232580   1.357   0.409   0.925  0.1151  0.2193  0.1227
 3674TIP3    H132581   1.352   0.335   0.865 -3.5669 -0.0047  0.4401
 3674TIP3    H232582   1.423   0.466   0.888 -0.7109 -0.7553 -3.1635
 3675TIP3   OH232583   3.522   4.020   0.194 -0.3020  0.6816  0.7707
 3675TIP3    H132584   3.602   4.063   0.163  0.8797  0.4192  3.1499
 3675TIP3    H232585   3.483   4.083   0.255 -3.1342  1.6588 -1.8358
 3676TIP3   OH232586   1.425   2.696   8.541 -0.4745 -0.1397  0.3404
 3676TIP3    H132587   1.375   2.617   8.521  1.4429 -1.2694 -0.1831
 3676TIP3    H232588   1.513   2.678   8.508  0.2525  1.8646  1.0406
 3677TIP3   OH232589   2.942   3.890   2.978  0.2711 -0.0426  0.1570
 3677TIP3    H132590   2.848   3.907   2.986  0.1062 -0.5867 -0.5739
 3677TIP3    H232591   2.965   3.846   3.060  0.5370  2.7733  1.7389
 3678TIP3   OH232592   3.735   6.079   8.410  0.4630  0.2291  0.2849
 3678TIP3    H132593   3.720   6.142   8.340  2.3436  0.0286 -0.3359
 3678TIP3    H232594   3.727   5.994   8.368 -0.7398  0.0316  0.8495
 3679TIP3   OH232595   5.916   0.741   8.341  0.3549 -0.5838  0.2941
 3679TIP3    H132596   5.988   0.680   8.325  2.1069  1.4775 -0.0665
 3679TIP3    H232597   5.958   0.827   8.350 -2.0161  0.6326  0.5965
 3680TIP3   OH232598   3.328   1.854   1.537  0.5101  0.2973  0.7244
 3680TIP3    H132599   3.421   1.842   1.520  0.1969 -3.8202  0.9332
 3680TIP3    H232600   3.288   1.863   1.450  1.0708  2.5580  0.6573
 3681TIP3   OH232601   1.460   2.102   1.723  0.3375  0.2505 -0.6594
 3681TIP3    H132602   1.376   2.082   1.764  0.5120 -0.4598 -0.6307
 3681TIP3    H232603   1.494   2.016   1.697 -0.7628  0.7796 -4.3432
 3682TIP3   OH232604   6.606   4.815   8.419  0.4678 -0.5126  0.1173
 3682TIP3    H132605   6.688   4.781   8.382  0.6023  0.3343 -0.3820
 3682TIP3    H232606   6.628   4.902   8.450 -0.5081  0.1974 -1.0801
 3683TIP3   OH232607   4.808   0.270   3.154 -0.2692  0.1813 -0.5396
 3683TIP3    H132608   4.769   0.350   3.190  0.0547 -0.0161  0.2626
 3683TIP3    H232609   4.767   0.199   3.202  0.5246 -0.0664 -0.2141
 3684TIP3   OH232610   3.398   3.808   0.019  0.0484  0.1654 -0.4425
 3684TIP3    H132611   3.410   3.862   0.098  1.1687 -0.7553  0.0424
 3684TIP3    H232612   3.305   3.817  -0.001 -0.2649  0.4380  0.9775
 3685TIP3   OH232613   0.974   1.649   1.137  0.3341  0.2323 -0.2838
 3685TIP3    H132614   0.881   1.629   1.152  1.1088 -2.4765  1.5527
 3685TIP3    H232615   1.004   1.583   1.075  0.7261  2.1952 -2.3219
 3686TIP3   OH232616   3.699   3.899   3.586  0.0625  0.0509  0.0415
 3686TIP3    H132617   3.684   3.889   3.680  0.6654  1.5268  0.3201
 3686TIP3    H232618   3.699   3.809   3.552  1.1161 -0.5950  1.6455
 3687TIP3   OH232619   1.269   3.460   8.358 -0.3529  0.0846  0.1882
 3687TIP3    H132620   1.280   3.379   8.409  1.2783  1.4825  2.2388
 3687TIP3    H232621   1.356   3.499   8.357 -1.2611  2.2180 -0.0232
 3688TIP3   OH232622   4.638   2.585   0.729  0.1071  0.7874  0.0838
 3688TIP3    H132623   4.689   2.633   0.663  0.3980  1.8566  1.0537
 3688TIP3    H232624   4.692   2.589   0.808 -1.2878  1.6283  1.0362
 3689TIP3   OH232625   0.177   3.359   0.087  0.4327  0.1360  0.1983
 3689TIP3    H132626   0.174   3.326   0.176 -0.0496  0.4276  0.2926
 3689TIP3    H232627   0.094   3.406   0.075 -0.7663 -2.2053 -1.3135
 3690TIP3   OH232628   1.729   3.402   3.941  0.0880 -0.2806 -0.0520
 3690TIP3    H132629   1.687   3.482   3.910  1.6009  0.3067 -0.6774
 3690TIP3    H232630   1.822   3.423   3.946  0.2178 -1.0738  2.7207
 3691TIP3   OH232631   2.605   6.622   3.694 -0.4223  0.3623 -0.3774
 3691TIP3    H132632   2.525   6.673   3.682 -0.2613  0.5345 -0.7195
 3691TIP3    H232633   2.676   6.681   3.667 -0.0291  0.8321  1.5077
 3692TIP3   OH232634   6.216   2.218   0.825 -0.0271  0.2549  0.3273
 3692TIP3    H132635   6.157   2.147   0.850 -0.3003  0.3042 -0.1658
 3692TIP3    H232636   6.164   2.273   0.767  0.6807 -0.0117 -0.5828
 3693TIP3   OH232637   3.333   2.588   2.223  0.0598  0.2844  0.0998
 3693TIP3    H132638   3.332   2.495   2.243 -0.4150  0.1586 -0.4626
 3693TIP3    H232639   3.339   2.632   2.308  0.6606 -0.2571  0.3463
 3694TIP3   OH232640   2.500   4.795   0.953 -0.7557 -0.0738 -0.0147
 3694TIP3    H132641   2.419   4.821   0.997 -0.3082  0.8501  0.2906
 3694TIP3    H232642   2.473   4.769   0.865 -1.6236 -1.6371  0.6843
 3695TIP3   OH232643   6.351   2.516   3.405  0.0942  0.6134 -0.4049
 3695TIP3    H132644   6.337   2.600   3.362 -0.1056  0.4780 -0.6059
 3695TIP3    H232645   6.372   2.539   3.496 -0.4601  0.8607 -0.3321
 3696TIP3   OH232646   3.831   0.608   2.920 -0.2710  0.0199 -0.2565
 3696TIP3    H132647   3.918   0.605   2.879  0.0101  0.1696  0.3270
 3696TIP3    H232648   3.844   0.659   3.000 -1.4965  2.6468 -1.6160
 3697TIP3   OH232649   3.033   6.363   3.848 -0.4149 -0.2957  0.1438
 3697TIP3    H132650   3.041   6.399   3.759  1.6572 -0.9723 -0.0027
 3697TIP3    H232651   2.956   6.407   3.884 -1.3439 -0.0214 -1.9787
 3698TIP3   OH232652   2.402   5.260   1.552  0.4715 -0.5829  0.4326
 3698TIP3    H132653   2.456   5.181   1.546  0.2444 -0.7265  0.2804
 3698TIP3    H232654   2.378   5.266   1.644  1.6949  0.1134  0.7234
 3699TIP3   OH232655   5.954   3.281   2.743  0.6986 -0.2827  0.1460
 3699TIP3    H132656   5.914   3.284   2.829  0.5987 -1.1577  0.1397
 3699TIP3    H232657   6.048   3.273   2.760  0.6867 -0.3701  0.1708
 3700TIP3   OH232658   6.580   5.695   3.831 -0.3653 -0.4625 -0.1769
 3700TIP3    H132659   6.582   5.671   3.924 -0.9748 -1.6064 -0.4270
 3700TIP3    H232660   6.497   5.658   3.800 -0.9881  1.3723 -0.8196
 3701TIP3   OH232661   5.986   1.311   2.341  0.4768 -0.4666 -0.3319
 3701TIP3    H132662   6.010   1.347   2.427  1.5888  0.5519 -1.0276
 3701TIP3    H232663   5.979   1.217   2.356 -0.9891 -0.1601  1.2176
 3702TIP3   OH232664   2.963   1.765   0.705  0.0955 -0.3140  0.3228
 3702TIP3    H132665   2.964   1.839   0.645  0.8749 -0.2012  0.4755
 3702TIP3    H232666   2.986   1.802   0.791 -0.1519 -0.6229  0.5282
 3703TIP3   OH232667   3.603   4.873   3.379 -1.2585 -0.2089  0.1802
 3703TIP3    H132668   3.609   4.888   3.285 -1.2183 -2.3892 -0.2153
 3703TIP3    H232669   3.548   4.796   3.388  0.5007 -1.3772  1.7963
 3704TIP3   OH232670   0.196   4.140   2.845 -0.1652  0.0100  0.4032
 3704TIP3    H132671   0.287   4.168   2.844 -0.4038  0.8844  1.2844
 3704TIP3    H232672   0.196   4.056   2.800  0.8002  0.7753 -1.0978
 3705TIP3   OH232673   2.217   5.284   1.310 -0.2223  0.4348  0.0231
 3705TIP3    H132674   2.292   5.281   1.251  0.0250  1.6212  0.2633
 3705TIP3    H232675   2.255   5.287   1.398 -0.5861 -2.1689  0.3559
 3706TIP3   OH232676   3.327   3.812   7.771 -0.1098 -0.7631 -0.2173
 3706TIP3    H132677   3.418   3.836   7.792 -0.2758  0.5368 -0.8883
 3706TIP3    H232678   3.275   3.866   7.831 -0.4569 -2.0234  0.6634
 3707TIP3   OH232679   5.514   1.735   0.862  0.2503 -0.4799 -0.3030
 3707TIP3    H132680   5.506   1.772   0.774 -1.0661  1.3882  0.5280
 3707TIP3    H232681   5.608   1.736   0.881  0.4698 -0.1087 -1.3774
 3708TIP3   OH232682   4.144   0.225   2.925  0.9154 -0.1414  0.2185
 3708TIP3    H132683   4.192   0.307   2.913  0.4415  0.1079 -0.0176
 3708TIP3    H232684   4.065   0.250   2.973  0.3499 -0.3056 -0.5885
 3709TIP3   OH232685   4.425   0.413   3.627  0.1365 -0.8474 -1.0902
 3709TIP3    H132686   4.485   0.486   3.616 -0.9148  0.0663 -0.9875
 3709TIP3    H232687   4.481   0.336   3.638  1.3156  0.2347  1.0804
 3710TIP3   OH232688   3.844   0.756   3.148  0.3962 -0.2905 -0.3034
 3710TIP3    H132689   3.938   0.773   3.153  0.2676  1.5536 -2.3930
 3710TIP3    H232690   3.803   0.839   3.173 -0.6108 -0.6125 -0.8241
 3711TIP3   OH232691   3.822   0.091   0.899 -0.0350 -0.5852 -0.1133
 3711TIP3    H132692   3.746   0.060   0.851  0.3614 -0.2465 -0.9797
 3711TIP3    H232693   3.897   0.061   0.848  0.4011 -0.3053  0.3445
 3712TIP3   OH232694   6.776   3.277   3.453 -0.2268 -0.2796  0.3666
 3712TIP3    H132695   6.729   3.200   3.419  0.5525  0.1309 -1.7759
 3712TIP3    H232696   6.733   3.296   3.536 -2.2939 -1.3485 -0.3839
 3713TIP3   OH232697   2.914   0.785   3.540  0.7194 -0.3977  0.2470
 3713TIP3    H132698   2.917   0.767   3.634  0.2156  0.5884  0.4659
 3713TIP3    H232699   2.833   0.835   3.528  1.5970  0.9262 -0.4459
 3714TIP3   OH232700   1.739   0.250   3.768 -0.0638  0.3116  0.4618
 3714TIP3    H132701   1.822   0.240   3.722  0.1289 -0.3075  0.9338
 3714TIP3    H232702   1.744   0.189   3.842 -1.3596 -0.5404 -0.1074
 3715TIP3   OH232703   0.620   5.071   1.374 -0.0432 -0.5019  0.1796
 3715TIP3    H132704   0.620   5.070   1.470 -1.2338 -1.5808  0.1974
 3715TIP3    H232705   0.577   5.153   1.352 -0.6556 -0.7011  0.5977
 3716TIP3   OH232706   1.411   0.348   0.461 -1.2316  0.0803 -0.4171
 3716TIP3    H132707   1.473   0.420   0.444 -2.5043  1.2267 -0.3038
 3716TIP3    H232708   1.410   0.299   0.378  2.6299 -2.3016  0.6335
 3717TIP3   OH232709   0.018   5.325   0.106  0.4947  0.4864 -0.5719
 3717TIP3    H132710  -0.025   5.312   0.021 -0.1562  1.4048 -0.3926
 3717TIP3    H232711  -0.014   5.253   0.160 -0.0373  0.5821 -0.7484
 3718TIP3   OH232712   2.367   2.303   2.744  0.2026  0.3799 -0.2442
 3718TIP3    H132713   2.401   2.216   2.765 -1.1733 -0.7469 -2.3296
 3718TIP3    H232714   2.445   2.359   2.744  1.1796 -0.9102  0.7598
 3719TIP3   OH232715   1.064   0.703   8.328 -0.1171  0.1371 -0.1255
 3719TIP3    H132716   1.115   0.759   8.271 -2.7117  0.4851 -2.2896
 3719TIP3    H232717   1.094   0.614   8.308  0.2866  0.3915 -0.6704
 3720TIP3   OH232718   3.253   0.007   1.416  0.0338 -0.5264 -0.3521
 3720TIP3    H132719   3.185   0.032   1.478  0.8918 -0.1270  0.4627
 3720TIP3    H232720   3.247   0.073   1.346  0.2886  0.1617  0.2613
 3721TIP3   OH232721   4.983   0.650   2.447 -0.4904  0.0310  0.3443
 3721TIP3    H132722   5.063   0.669   2.496 -0.5838 -0.6250  0.7711
 3721TIP3    H232723   4.953   0.566   2.482 -1.5211  0.3966  0.3841
 3722TIP3   OH232724   2.289   3.379   1.143 -0.3262  0.2586  0.3745
 3722TIP3    H132725   2.299   3.425   1.059  0.4635 -2.2341 -1.0039
 3722TIP3    H232726   2.218   3.317   1.128 -0.5451  0.1369  1.7768
 3723TIP3   OH232727   1.131   1.380   2.930 -0.3281  0.2421  0.0051
 3723TIP3    H132728   1.061   1.445   2.936  0.5392  1.1314  0.8724
 3723TIP3    H232729   1.173   1.397   2.845 -1.3971 -0.5775 -0.7170
 3724TIP3   OH232730   5.027   0.867   2.803  0.2008  0.4249  0.0700
 3724TIP3    H132731   5.084   0.925   2.752  0.2037 -0.5970 -1.1617
 3724TIP3    H232732   5.002   0.918   2.880  1.6006  1.4163 -0.0982
 3725TIP3   OH232733   5.326   0.956   0.301 -0.0351 -0.1672 -0.3798
 3725TIP3    H132734   5.381   0.890   0.258 -1.1035 -0.4758 -1.3201
 3725TIP3    H232735   5.236   0.926   0.286 -0.4855  0.4954  0.8497
 3726TIP3   OH232736   3.337   6.752   8.450  0.0310 -0.0617 -0.0246
 3726TIP3    H132737   3.274   6.815   8.415  1.2718  0.4467 -1.4864
 3726TIP3    H232738   3.332   6.678   8.389 -0.8445 -1.0783  1.2300
 3727TIP3   OH232739   4.001   3.084   0.837 -0.2956 -0.2150  0.1520
 3727TIP3    H132740   4.078   3.055   0.788 -0.0037  0.8100 -0.0109
 3727TIP3    H232741   3.929   3.076   0.775  0.0091  0.7028 -0.3302
 3728TIP3   OH232742   6.287   5.275   8.292  0.2381 -0.2688  0.6525
 3728TIP3    H132743   6.380   5.277   8.269 -0.2797 -2.2702 -2.3092
 3728TIP3    H232744   6.245   5.238   8.214 -2.8085 -1.2192  2.5780
 3729TIP3   OH232745   2.881   4.262   8.125 -0.2889  0.0770  0.1394
 3729TIP3    H132746   2.955   4.203   8.111  0.3037  0.9422 -0.4920
 3729TIP3    H232747   2.825   4.217   8.188  1.0821 -0.3171  1.1065
 3730TIP3   OH232748   3.552   4.289   1.151  0.3410  0.2659  0.1726
 3730TIP3    H132749   3.608   4.309   1.077  1.8259 -2.3379  0.4504
 3730TIP3    H232750   3.585   4.344   1.222  0.2332  1.2791 -0.5434
 3731TIP3   OH232751   5.233   0.138   3.205 -0.2220 -0.2296  0.2451
 3731TIP3    H132752   5.187   0.057   3.228  1.0989 -1.8362 -2.2778
 3731TIP3    H232753   5.307   0.142   3.267  0.7257 -2.0031 -0.6871
 3732TIP3   OH232754   4.006   2.004   2.239 -0.1933 -0.0030 -0.3592
 3732TIP3    H132755   4.078   1.943   2.250 -0.5882 -0.4058  0.0237
 3732TIP3    H232756   3.949   1.988   2.314  0.8405  2.4273  1.0613
 3733TIP3   OH232757   5.036   2.579   0.207  0.6976  1.0990  0.2230
 3733TIP3    H132758   5.032   2.674   0.192 -0.4923  1.2924  1.6055
 3733TIP3    H232759   5.047   2.570   0.301  0.2100 -0.1395  0.1752
 3734TIP3   OH232760   5.574   6.555   0.018 -0.1022 -0.4930 -0.1739
 3734TIP3    H132761   5.631   6.479   0.003 -0.1013 -0.4000 -0.6275
 3734TIP3    H232762   5.602   6.620  -0.046 -0.7079 -0.4419 -0.3897
 3735TIP3   OH232763   2.074   5.245   3.186 -0.3890  0.6204 -0.6824
 3735TIP3    H132764   2.047   5.190   3.259 -0.6273 -2.5198 -2.9097
 3735TIP3    H232765   2.143   5.300   3.221 -0.4263 -0.8099  1.8587
 3736TIP3   OH232766   2.094   2.692   2.275  0.0351  0.0462 -0.0227
 3736TIP3    H132767   2.051   2.628   2.332  1.2149 -0.9589 -0.2054
 3736TIP3    H232768   2.030   2.762   2.264 -0.9010 -0.6105  1.0417
 3737TIP3   OH232769   0.640   3.692   2.667  0.4347 -0.2230 -0.2491
 3737TIP3    H132770   0.606   3.750   2.599  0.2845 -0.0229 -0.0035
 3737TIP3    H232771   0.567   3.635   2.689  0.8206 -1.0547 -1.0725
 3738TIP3   OH232772   2.130   1.483   1.387  0.6285 -0.8849  0.0602
 3738TIP3    H132773   2.072   1.517   1.455  0.4278 -0.0005 -0.5289
 3738TIP3    H232774   2.113   1.389   1.385 -0.7275 -0.6653 -0.0213
 3739TIP3   OH232775   6.107   1.708   1.301  0.5718  0.3378 -0.0340
 3739TIP3    H132776   6.180   1.766   1.280 -0.0803  1.6275  1.0409
 3739TIP3    H232777   6.146   1.637   1.352  1.0178  1.3586  1.1033
 3740TIP3   OH232778   2.133   6.343   1.528 -0.1685 -0.0463 -0.7864
 3740TIP3    H132779   2.192   6.345   1.603 -0.3392 -0.1482 -0.6471
 3740TIP3    H232780   2.183   6.300   1.459 -0.1752 -0.3755 -0.5872
 3741TIP3   OH232781   4.433   0.231   7.731 -0.2357  0.0503  0.5596
 3741TIP3    H132782   4.501   0.220   7.797 -0.3076 -0.2955  0.5794
 3741TIP3    H232783   4.393   0.144   7.723  2.2554 -0.9847 -2.7079
 3742TIP3   OH232784   2.790   4.595   1.923  0.1588 -0.1867  0.2500
 3742TIP3    H132785   2.796   4.682   1.963  2.6225 -0.7082  1.2197
 3742TIP3    H232786   2.881   4.567   1.915 -0.6090 -3.0085  0.6355
 3743TIP3   OH232787   6.546   2.783   1.949  0.6235  0.0597  0.2916
 3743TIP3    H132788   6.517   2.764   2.038  1.5434  1.3899  0.8953
 3743TIP3    H232789   6.529   2.876   1.937 -0.3744 -0.2988 -1.2802
 3744TIP3   OH232790   2.993   3.344   0.952  0.7575 -0.2783  0.0772
 3744TIP3    H132791   2.988   3.372   0.861 -3.3886  1.3366  0.5985
 3744TIP3    H232792   2.939   3.407   1.000 -1.4780 -3.9011  2.8665
 3745TIP3   OH232793   2.240   5.864   2.692 -0.2779  0.7319  0.1748
 3745TIP3    H132794   2.231   5.955   2.662 -1.1947  0.7830  0.5648
 3745TIP3    H232795   2.266   5.816   2.614 -1.0173  1.1370 -0.3360
 3746TIP3   OH232796   1.414   2.824   0.059  0.5098  0.3176  0.5006
 3746TIP3    H132797   1.373   2.739   0.042  2.0149 -0.2454 -0.5566
 3746TIP3    H232798   1.478   2.806   0.129  0.4273  0.7130  0.6824
 3747TIP3   OH232799   6.705   1.883   3.111 -0.5602 -0.0027  0.2365
 3747TIP3    H132800   6.623   1.929   3.128 -1.2930 -1.2692  0.3025
 3747TIP3    H232801   6.682   1.815   3.048  0.4955 -0.2396  0.0782
 3748TIP3   OH232802   2.568   4.813   3.615  0.0801 -0.7792 -0.6386
 3748TIP3    H132803   2.526   4.882   3.668  2.2121  0.3095 -0.2542
 3748TIP3    H232804   2.616   4.861   3.547  0.4515 -1.9809 -1.2553
 3749TIP3   OH232805   4.388   2.310   3.002  0.1438  0.1523  0.2525
 3749TIP3    H132806   4.309   2.365   3.000 -1.6461 -2.2469 -1.2420
 3749TIP3    H232807   4.443   2.344   2.932 -0.3216  0.8644  0.2201
 3750TIP3   OH232808   5.145   5.055   0.530  0.3181 -0.5358  0.1607
 3750TIP3    H132809   5.198   5.133   0.518  0.9265 -0.8524  0.7131
 3750TIP3    H232810   5.208   4.986   0.551 -0.2058 -1.1800 -0.3348
 3751TIP3   OH232811   2.658   6.312   0.435 -0.1317  0.3616  0.1633
 3751TIP3    H132812   2.738   6.338   0.390 -0.1256  0.1922  0.0775
 3751TIP3    H232813   2.686   6.246   0.499 -0.2431  0.0963 -0.0595
 3752TIP3   OH232814   5.027   5.699   8.761  0.1306 -0.1330  0.4214
 3752TIP3    H132815   5.036   5.636   8.688  2.1824 -1.4323  1.6779
 3752TIP3    H232816   5.063   5.780   8.726 -2.9097  0.6101 -1.3624
 3753TIP3   OH232817   3.955   4.055   1.331 -0.2058  0.1756  0.3003
 3753TIP3    H132818   3.979   3.969   1.367  0.3177  0.2835  0.2188
 3753TIP3    H232819   4.032   4.109   1.346 -0.2247  0.4033 -0.3918
 3754TIP3   OH232820   2.565   5.569   1.160 -0.6463 -0.6161 -0.2250
 3754TIP3    H132821   2.519   5.564   1.076 -1.1076 -0.7293  0.0296
 3754TIP3    H232822   2.578   5.478   1.185 -3.0545 -0.6689  1.1789
 3755TIP3   OH232823   5.562   6.480   0.696  0.0121  0.5929 -0.2359
 3755TIP3    H132824   5.505   6.543   0.740 -0.0576  0.2852  0.1229
 3755TIP3    H232825   5.644   6.484   0.745 -1.0325 -2.0350  2.0268
 3756TIP3   OH232826   4.411   1.391   2.459 -0.2508 -0.1488  0.4663
 3756TIP3    H132827   4.454   1.331   2.398 -2.3781 -0.2398 -1.0599
 3756TIP3    H232828   4.410   1.344   2.543  1.8372 -0.4374  0.3841
 3757TIP3   OH232829   1.806   2.382   1.869  0.2794 -0.0928  0.0809
 3757TIP3    H132830   1.738   2.382   1.936  0.2777  0.2370  0.0821
 3757TIP3    H232831   1.881   2.339   1.911 -0.2416 -1.3873 -0.2588
 3758TIP3   OH232832   3.280   1.173   8.682  0.3018  0.0378 -0.0571
 3758TIP3    H132833   3.213   1.149   8.746  0.7054 -2.0449 -0.3356
 3758TIP3    H232834   3.236   1.234   8.623 -0.4979  0.8928  1.3614
 3759TIP3   OH232835   0.687   6.084   3.670  0.9090 -0.0206  0.3392
 3759TIP3    H132836   0.745   6.037   3.730 -0.4931 -0.0656  1.7091
 3759TIP3    H232837   0.606   6.033   3.669  0.5766  0.4875 -0.8895
 3760TIP3   OH232838   3.182   6.128   1.248  0.2423 -0.4100  0.7096
 3760TIP3    H132839   3.177   6.036   1.277 -1.6383 -1.0651 -1.4224
 3760TIP3    H232840   3.162   6.178   1.327 -2.7766 -2.0338  1.1411
 3761TIP3   OH232841   1.401   0.571   1.644  0.1770 -0.6982 -0.0638
 3761TIP3    H132842   1.330   0.507   1.651 -0.7744  0.1882 -1.2185
 3761TIP3    H232843   1.429   0.586   1.735 -2.6624  0.5754  0.7282
 3762TIP3   OH232844   3.244   6.390   2.941  0.3741 -0.2408 -0.1375
 3762TIP3    H132845   3.328   6.360   2.974  0.0655 -1.4844 -0.4383
 3762TIP3    H232846   3.253   6.390   2.846 -0.2754 -1.3910 -0.2171
 3763TIP3   OH232847   4.000   1.563   3.000 -0.4624  0.1913 -0.3744
 3763TIP3    H132848   3.969   1.652   3.012  1.5005  0.7473  0.9165
 3763TIP3    H232849   4.066   1.550   3.068  2.0504 -0.9441 -2.8286
 3764TIP3   OH232850   1.035   3.621   2.265  0.1607 -0.0693  0.0218
 3764TIP3    H132851   1.010   3.535   2.297 -1.5649  0.1908 -0.5280
 3764TIP3    H232852   0.989   3.630   2.181 -1.3867  2.1570  1.0187
 3765TIP3   OH232853   5.270   5.742   8.533  0.1183 -0.1493  0.2848
 3765TIP3    H132854   5.338   5.742   8.466  1.4755  0.7090  1.5953
 3765TIP3    H232855   5.190   5.763   8.485  0.8503 -0.6324 -1.2193
 3766TIP3   OH232856   3.377   3.078   4.242 -0.2686  0.1513 -0.0037
 3766TIP3    H132857   3.303   3.019   4.253 -0.0990 -0.0100  0.2951
 3766TIP3    H232858   3.347   3.145   4.180  0.0356 -1.0596 -1.5100
 3767TIP3   OH232859   2.706   6.594   2.778 -0.3794  0.0620  0.1621
 3767TIP3    H132860   2.788   6.636   2.804 -1.0294  0.8856  0.9492
 3767TIP3    H232861   2.701   6.515   2.833  0.1393 -0.2958 -0.2873
 3768TIP3   OH232862   2.977   4.042   3.397  0.1777 -0.2247  0.1827
 3768TIP3    H132863   2.938   4.128   3.382 -2.5060 -1.2612  0.8370
 3768TIP3    H232864   2.951   4.018   3.486  2.4465 -0.9787  0.7101
 3769TIP3   OH232865   5.574   0.782   2.084 -0.0832  0.4696  0.1172
 3769TIP3    H132866   5.649   0.732   2.116 -0.3788 -0.0477  0.0137
 3769TIP3    H232867   5.588   0.871   2.117 -0.9931 -0.2902  2.7688
 3770TIP3   OH232868   0.655   6.278   1.363 -0.0024  0.3903  0.3734
 3770TIP3    H132869   0.680   6.193   1.397  0.0902  0.5093  0.6040
 3770TIP3    H232870   0.667   6.338   1.436 -1.1935  0.4161  0.5744
 3771TIP3   OH232871   2.660   0.580   1.081 -0.0349 -0.1368 -0.3478
 3771TIP3    H132872   2.589   0.609   1.025 -0.6807 -0.2004  0.4117
 3771TIP3    H232873   2.731   0.557   1.021 -0.2315  1.0532 -1.0540
 3772TIP3   OH232874   6.040   3.178   1.471 -0.6070 -0.1674 -0.7602
 3772TIP3    H132875   6.040   3.128   1.390 -0.8044 -1.1720 -0.1633
 3772TIP3    H232876   6.126   3.161   1.510 -1.1560 -1.1675  0.0884
 3773TIP3   OH232877   1.468   2.844   3.525  0.2754 -0.0443  0.1066
 3773TIP3    H132878   1.434   2.926   3.561  1.4654  1.4402 -1.9446
 3773TIP3    H232879   1.555   2.835   3.564  0.3363 -0.0730 -0.0351
 3774TIP3   OH232880   6.259   5.596   0.596 -0.3975  0.0975  0.2870
 3774TIP3    H132881   6.324   5.652   0.639 -0.2244 -0.1933  0.4129
 3774TIP3    H232882   6.290   5.588   0.506 -0.3954  0.1646  0.2818
 3775TIP3   OH232883   0.074   1.777   0.109 -0.4895  0.3056 -1.0668
 3775TIP3    H132884   0.015   1.784   0.184 -2.6029  2.3009 -2.7909
 3775TIP3    H232885   0.045   1.698   0.063 -0.4681  0.1693 -0.8487
 3776TIP3   OH232886   4.128   0.477   3.875 -0.6736 -0.1792 -0.2210
 3776TIP3    H132887   4.111   0.519   3.959  0.3295 -1.2074  0.5281
 3776TIP3    H232888   4.054   0.417   3.863 -0.3131 -0.7809  0.4498
 3777TIP3   OH232889   5.780   3.052   3.199 -0.5311 -0.2553 -0.7256
 3777TIP3    H132890   5.715   3.024   3.263 -0.4254 -0.4132 -0.6857
 3777TIP3    H232891   5.844   3.102   3.250 -0.6792 -0.0050 -0.7836
 3778TIP3   OH232892   1.490   1.215   3.191  0.0373 -0.2948  0.4941
 3778TIP3    H132893   1.437   1.295   3.196  0.4525  0.3300 -2.9347
 3778TIP3    H232894   1.470   1.178   3.105  1.9896 -2.3667  0.8406
 3779TIP3   OH232895   5.260   1.536   1.564  0.3205  0.3300  0.4874
 3779TIP3    H132896   5.314   1.462   1.536  0.1593  0.3833  0.0269
 3779TIP3    H232897   5.171   1.501   1.566  0.1828  0.6270 -0.1716
 3780TIP3   OH232898   1.425   1.596   2.177  0.1098  0.5646 -0.2215
 3780TIP3    H132899   1.469   1.553   2.105  1.4383 -1.4267  1.6527
 3780TIP3    H232900   1.477   1.674   2.195  1.7852 -0.6983  0.6593
 3781TIP3   OH232901   0.554   1.781   0.707 -0.1119 -0.0447 -0.5419
 3781TIP3    H132902   0.517   1.693   0.703 -0.9130  0.2284  0.3130
 3781TIP3    H232903   0.560   1.810   0.616  0.3940 -1.0686 -0.8419
 3782TIP3   OH232904   5.928   0.463   8.697  0.0926 -0.3302 -0.3576
 3782TIP3    H132905   5.999   0.527   8.692  0.7005 -0.8564  0.8742
 3782TIP3    H232906   5.937   0.425   8.785 -1.0803 -1.1426 -0.5642
 3783TIP3   OH232907   2.540   1.572   1.995 -0.9057  0.2034 -0.8427
 3783TIP3    H132908   2.571   1.520   2.070 -0.9089  1.7019  0.2280
 3783TIP3    H232909   2.596   1.650   1.996 -0.5451  0.0047 -2.7507
 3784TIP3   OH232910   3.792   2.434   0.763 -0.0062 -0.4173  0.3139
 3784TIP3    H132911   3.837   2.426   0.847 -1.5685  1.0645  1.3538
 3784TIP3    H232912   3.801   2.526   0.739 -0.3953 -0.6202 -0.6842
 3785TIP3   OH232913   3.249   3.093   3.369 -0.5145 -0.2270 -0.1732
 3785TIP3    H132914   3.332   3.074   3.414 -1.3543  0.3784  1.7448
 3785TIP3    H232915   3.273   3.155   3.300  0.8500 -1.2981 -0.7117
 3786TIP3   OH232916   2.591   3.847   0.702 -0.5378  1.0024  0.1419
 3786TIP3    H132917   2.521   3.864   0.639  1.2444  2.1615 -1.6480
 3786TIP3    H232918   2.618   3.757   0.684  0.3663  1.5149 -1.2634
 3787TIP3   OH232919   5.743   4.998   1.490 -0.2246  0.0344 -1.0565
 3787TIP3    H132920   5.787   4.951   1.561 -0.7650  1.1499  0.0375
 3787TIP3    H232921   5.652   4.969   1.495 -0.5350  1.0938 -0.4540
 3788TIP3   OH232922   6.702   0.670   1.983 -0.3047 -0.0882 -0.1811
 3788TIP3    H132923   6.658   0.676   1.898 -0.2358 -0.1112 -0.2184
 3788TIP3    H232924   6.639   0.706   2.045 -1.3962 -2.3817  0.1234
 3789TIP3   OH232925   4.835   0.228   0.281  0.3490 -0.1372 -0.0893
 3789TIP3    H132926   4.774   0.159   0.253  0.4032 -0.0187 -0.5101
 3789TIP3    H232927   4.781   0.289   0.331 -0.2608  0.8393 -1.8539
 3790TIP3   OH232928   3.442   2.612   4.232  0.2609 -0.0223 -0.4841
 3790TIP3    H132929   3.352   2.584   4.216  0.3010 -0.5567  0.2066
 3790TIP3    H232930   3.450   2.695   4.184 -0.9342  0.5990  0.3258
 3791TIP3   OH232931   2.485   0.533   3.602  0.2970 -0.6678  0.0553
 3791TIP3    H132932   2.473   0.614   3.553  1.6793 -0.7718 -0.5321
 3791TIP3    H232933   2.495   0.560   3.693 -3.6742 -0.5678  0.6317
 3792TIP3   OH232934   0.857   4.440   2.804  0.8087  0.5291  0.1394
 3792TIP3    H132935   0.809   4.368   2.845 -0.5477  2.8402  2.9744
 3792TIP3    H232936   0.948   4.411   2.805  0.1913 -1.6130  0.0512
 3793TIP3   OH232937   5.608   1.418   0.676 -0.0001  0.2469  0.6454
 3793TIP3    H132938   5.558   1.421   0.594  1.3899 -0.2276 -0.2767
 3793TIP3    H232939   5.606   1.326   0.702 -1.7197  0.6290  2.0286
 3794TIP3   OH232940   1.885   0.078   2.155 -0.1960 -0.1986  0.7418
 3794TIP3    H132941   1.939   0.047   2.229  0.1154 -0.7606  0.2841
 3794TIP3    H232942   1.798   0.089   2.192 -0.2736 -1.4386  0.9724
 3795TIP3   OH232943   5.720   0.093   1.559 -0.0110  0.2283 -0.0430
 3795TIP3    H132944   5.736   0.177   1.602  0.0798 -0.3280  1.0483
 3795TIP3    H232945   5.702   0.116   1.467 -0.9581  1.5208  0.4285
 3796TIP3   OH232946   1.400   6.015   2.941 -0.1262  0.4917 -0.2956
 3796TIP3    H132947   1.415   6.028   3.034  1.2866 -1.5764 -0.1673
 3796TIP3    H232948   1.304   6.017   2.932 -0.2710  1.1605  1.0995
 3797TIP3   OH232949   5.385   6.125   0.823  0.9453  0.8677  0.4300
 3797TIP3    H132950   5.325   6.134   0.897  0.3128  0.8261 -0.0709
 3797TIP3    H232951   5.356   6.190   0.759  0.5039 -0.1379 -0.4243
 3798TIP3   OH232952   1.133   6.058   2.925  0.3783 -0.7398 -0.4315
 3798TIP3    H132953   1.094   6.142   2.948  1.3772 -0.6727  1.2042
 3798TIP3    H232954   1.069   6.016   2.868 -0.3385  0.9302 -0.8996
 3799TIP3   OH232955   4.112   2.083   0.532  0.1417 -0.0348  0.6693
 3799TIP3    H132956   4.030   2.089   0.582  0.5602  1.3461  1.2318
 3799TIP3    H232957   4.104   2.151   0.465 -0.8358 -2.4903 -1.9095
 3800TIP3   OH232958   5.788   5.844   2.690  0.0387 -0.6847  0.3912
 3800TIP3    H132959   5.811   5.785   2.761  0.0985 -1.9194 -0.6122
 3800TIP3    H232960   5.837   5.924   2.708 -0.9989 -0.4627  2.4373
 3801TIP3   OH232961   6.011   1.194   1.169  0.0496 -0.0869  0.5340
 3801TIP3    H132962   6.034   1.209   1.261  0.4580  0.8049  0.2964
 3801TIP3    H232963   6.009   1.281   1.130  1.6362 -0.5565 -0.7168
 3802TIP3   OH232964   1.575   3.647   0.652  0.1670  0.2025  0.5271
 3802TIP3    H132965   1.502   3.608   0.700  1.3173  0.7103  2.8060
 3802TIP3    H232966   1.541   3.730   0.619 -0.8484 -0.4714 -0.1795
 3803TIP3   OH232967   0.611   0.862   0.445 -0.2479 -0.9245 -0.0032
 3803TIP3    H132968   0.576   0.774   0.439 -0.3576 -0.9324  0.6925
 3803TIP3    H232969   0.655   0.865   0.530 -0.2611 -0.3039 -0.0126
 3804TIP3   OH232970   5.907   3.253   3.406  0.1092  0.5899  0.6016
 3804TIP3    H132971   5.945   3.315   3.468  0.5806 -0.9885  1.9702
 3804TIP3    H232972   5.813   3.259   3.421  0.2604 -0.3464  2.0933
 3805TIP3   OH232973   3.346   5.617   0.531 -0.1646  0.4550 -0.2739
 3805TIP3    H132974   3.421   5.643   0.477 -0.9640  2.3667 -0.5248
 3805TIP3    H232975   3.379   5.620   0.620  0.8808 -1.7477 -0.5075
 3806TIP3   OH232976   3.957   6.173   3.273  0.9607 -0.7761 -0.1627
 3806TIP3    H132977   3.875   6.222   3.264  0.8581 -1.0439 -0.7110
 3806TIP3    H232978   3.975   6.175   3.367  1.3400  0.9330 -0.2364
 3807TIP3   OH232979   1.419   5.292   2.565  0.1436  0.4152 -0.2733
 3807TIP3    H132980   1.334   5.314   2.602  0.6869  1.5391  0.3543
 3807TIP3    H232981   1.477   5.363   2.592  1.1538 -0.0213 -1.1855
 3808TIP3   OH232982   3.623   0.416   1.011 -0.0311 -0.5444 -0.7967
 3808TIP3    H132983   3.570   0.337   1.002 -1.2650  0.3707 -1.8762
 3808TIP3    H232984   3.618   0.459   0.926 -0.7603  1.5269  0.2190
 3809TIP3   OH232985   4.101   0.848   2.297  0.4585 -0.8439 -0.1946
 3809TIP3    H132986   4.156   0.890   2.363  0.4091  1.1983 -1.3740
 3809TIP3    H232987   4.060   0.775   2.343  2.2102 -0.9214  1.3760
 3810TIP3   OH232988   4.039   6.251   3.954 -0.0770 -0.1400  0.0792
 3810TIP3    H132989   4.053   6.257   3.859  1.8119 -1.2869  0.2402
 3810TIP3    H232990   4.127   6.252   3.991 -0.6583 -1.8393  1.6575
 3811TIP3   OH232991   3.233   3.154   1.682  0.5241 -0.3100  0.1297
 3811TIP3    H132992   3.272   3.156   1.595  0.5848 -0.7115  0.1456
 3811TIP3    H232993   3.193   3.067   1.688 -0.5709  0.1737  0.0261
 3812TIP3   OH232994   3.429   1.650   3.916 -0.2075  0.0918  0.4472
 3812TIP3    H132995   3.388   1.574   3.959 -1.3415  1.5590  2.0921
 3812TIP3    H232996   3.398   1.725   3.967  0.9184  1.6649 -1.1121
 3813TIP3   OH232997   5.026   3.171   1.330 -0.0562 -0.1512 -0.3440
 3813TIP3    H132998   4.981   3.224   1.263 -1.7971 -0.7351  0.3178
 3813TIP3    H232999   5.027   3.227   1.408 -0.1960 -0.3757 -0.1804
 3814TIP3   OH233000   2.010   6.198   2.344 -0.5819  0.0242  0.1063
 3814TIP3    H133001   2.051   6.284   2.349  0.8075 -0.6879  2.6365
 3814TIP3    H233002   1.952   6.195   2.420  0.7022 -1.8611  1.0832
 3815TIP3   OH233003   6.748   1.092   0.328  0.0528  0.5603 -0.0322
 3815TIP3    H133004   6.764   1.054   0.415  1.4253  1.7095  0.2631
 3815TIP3    H233005   6.821   1.060   0.274 -0.6715  0.0320 -0.7173
 3816TIP3   OH233006   4.193   4.217   8.226 -0.0330  0.1278  0.0254
 3816TIP3    H133007   4.248   4.282   8.269 -2.0673  1.5085  0.7026
 3816TIP3    H233008   4.152   4.265   8.154  0.9633 -1.3435 -1.6049
 3817TIP3   OH233009   0.703   0.402   2.885  0.8512  0.1852 -0.1846
 3817TIP3    H133010   0.735   0.321   2.845  0.8545  0.9493 -1.8153
 3817TIP3    H233011   0.782   0.447   2.915  1.0769  0.6851 -1.4830
 3818TIP3   OH233012   5.696   5.793   3.905  0.4276 -0.0107 -0.1611
 3818TIP3    H133013   5.709   5.885   3.927  1.3421 -0.0190 -0.6422
 3818TIP3    H233014   5.709   5.747   3.987 -1.1042  0.3632  0.3226
 3819TIP3   OH233015   3.162   3.670   0.090 -0.4035 -0.0695  0.1361
 3819TIP3    H133016   3.116   3.669   0.174 -0.1719 -0.2821  0.2628
 3819TIP3    H233017   3.113   3.732   0.037 -1.6877 -1.3340 -0.2247
 3820TIP3   OH233018   0.995   4.723   0.294 -0.2756 -0.0859  0.4976
 3820TIP3    H133019   1.034   4.744   0.210  1.0137  1.1876  1.3638
 3820TIP3    H233020   0.938   4.797   0.314 -0.9880 -0.6286  0.5125
 3821TIP3   OH233021   4.496   0.330   2.195  0.4864  0.3347 -0.3987
 3821TIP3    H133022   4.479   0.420   2.166  0.2100 -0.5900 -3.5098
 3821TIP3    H233023   4.414   0.284   2.179  0.2810 -0.3425  2.1549
 3822TIP3   OH233024   2.799   2.578   1.782 -0.2422 -0.1974 -0.0935
 3822TIP3    H133025   2.716   2.620   1.803 -0.0275  0.7955 -1.1433
 3822TIP3    H233026   2.807   2.508   1.847 -1.2496  0.5332  0.8643
 3823TIP3   OH233027   5.315   0.527   2.094 -0.1328 -0.3312  0.1806
 3823TIP3    H133028   5.331   0.621   2.103  2.0876 -0.7359  0.9512
 3823TIP3    H233029   5.252   0.507   2.163  2.5295 -0.0616  2.9006
 3824TIP3   OH233030   1.666   4.241   2.429 -0.0427 -0.1349 -0.0930
 3824TIP3    H133031   1.665   4.242   2.525 -1.4982 -0.5769 -0.0761
 3824TIP3    H233032   1.610   4.314   2.404 -0.1224 -0.3678 -0.6032
 3825TIP3   OH233033   5.921   6.610   0.031  0.5937  0.2920 -0.2293
 3825TIP3    H133034   5.906   6.632  -0.061 -2.7061  0.1787  0.1681
 3825TIP3    H233035   5.921   6.515   0.034 -0.9217  0.2780  0.0424
 3826TIP3   OH233036   1.427   6.682   2.984  0.1549  0.1960 -0.3714
 3826TIP3    H133037   1.430   6.694   2.889 -1.4374 -0.5372 -0.5397
 3826TIP3    H233038   1.334   6.686   3.007  0.5082  0.4638  1.1823
 3827TIP3   OH233039   3.381   0.590   8.375  0.2386  0.4040  0.2732
 3827TIP3    H133040   3.465   0.572   8.333 -0.0781 -0.7397  0.0992
 3827TIP3    H233041   3.361   0.680   8.349  0.6136  0.1242 -1.0807
 3828TIP3   OH233042   6.098   4.789   8.698 -0.1917  0.6824 -0.5738
 3828TIP3    H133043   6.011   4.749   8.700 -0.2894  0.8208 -1.6329
 3828TIP3    H233044   6.139   4.752   8.620  0.9259  0.1705  0.2373
 3829TIP3   OH233045   3.133   3.083   0.240  0.0683 -0.3945  0.8423
 3829TIP3    H133046   3.143   3.019   0.311  1.5586 -1.9924 -0.7169
 3829TIP3    H233047   3.219   3.124   0.232 -0.4241  0.6749  0.7297
 3830TIP3   OH233048   0.271   5.681   0.076 -0.0030  0.2437  0.4075
 3830TIP3    H133049   0.354   5.726   0.088 -1.2450  2.5858  0.7315
 3830TIP3    H233050   0.246   5.698  -0.015  0.3574 -1.3882 -0.0276
 3831TIP3   OH233051   2.540   4.180   2.603  0.5265  1.1079  0.2820
 3831TIP3    H133052   2.458   4.197   2.557  1.5591  0.2902 -1.9988
 3831TIP3    H233053   2.512   4.141   2.686 -1.4540 -1.4669 -1.4017
 3832TIP3   OH233054   2.929   2.993   8.675 -0.0640 -0.1496 -0.2239
 3832TIP3    H133055   2.934   3.076   8.626  2.2055 -0.0682  0.0678
 3832TIP3    H233056   2.920   2.926   8.607  0.9900  0.1290 -0.6647
 3833TIP3   OH233057   6.781   5.491   2.355 -0.2051 -0.3540 -0.1029
 3833TIP3    H133058   6.863   5.446   2.374 -0.1610  0.1526  0.9919
 3833TIP3    H233059   6.776   5.492   2.260  2.4541  2.0042 -0.3738
 3834TIP3   OH233060   1.744   1.992   1.956  0.0938  0.0303  0.2783
 3834TIP3    H133061   1.673   2.004   2.019  1.4816  2.9052  1.4403
 3834TIP3    H233062   1.816   1.955   2.007  0.1698 -0.8688 -0.4393
 3835TIP3   OH233063   2.655   6.084   3.959 -0.1180  0.0258  0.4734
 3835TIP3    H133064   2.690   6.162   3.916 -0.8753  0.1480  0.0454
 3835TIP3    H233065   2.580   6.059   3.904  0.2034 -1.0801  0.5316
 3836TIP3   OH233066   2.364   2.540   3.303  0.2827 -0.0580 -0.6362
 3836TIP3    H133067   2.279   2.497   3.296 -0.0648  0.1263  1.7193
 3836TIP3    H233068   2.354   2.602   3.374  1.6968  1.7586 -1.9292
 3837TIP3   OH233069   3.967   3.426   8.747  0.0610  0.3731 -0.2994
 3837TIP3    H133070   3.963   3.359   8.679  2.4181  1.8422 -2.0692
 3837TIP3    H233071   4.032   3.489   8.714  0.3128  1.8709  2.7236
 3838TIP3   OH233072   6.386   1.417   2.651  0.2814  0.4014 -0.3877
 3838TIP3    H133073   6.349   1.504   2.640  2.4747  1.0593 -4.0402
 3838TIP3    H233074   6.309   1.360   2.662 -1.2580  2.5574  0.7890
 3839TIP3   OH233075   1.107   2.722   1.505 -0.0365  0.1024 -0.7456
 3839TIP3    H133076   1.048   2.682   1.440  1.1712 -1.9009 -0.7003
 3839TIP3    H233077   1.179   2.660   1.513  0.9562  1.3865  0.8892
 3840TIP3   OH233078   3.531   5.149   8.370  0.0272 -0.0552 -0.2048
 3840TIP3    H133079   3.480   5.069   8.387 -1.2640  0.2926 -2.1156
 3840TIP3    H233080   3.469   5.220   8.383  1.3960  0.7964  2.3785
 3841TIP3   OH233081   5.210   4.177   2.369 -0.0157  0.1183  0.3799
 3841TIP3    H133082   5.273   4.166   2.298  0.5793 -0.4924  0.9910
 3841TIP3    H233083   5.204   4.091   2.410 -0.7269  0.3441  0.7691
 3842TIP3   OH233084   5.796   0.039   0.266 -0.5425 -0.4385  0.2654
 3842TIP3    H133085   5.809   0.057   0.360  1.3576 -2.2575  0.4091
 3842TIP3    H233086   5.729  -0.029   0.264  1.5128 -2.5972  0.5823
 3843TIP3   OH233087   5.307   0.220   0.351  0.0213  0.8818 -0.3446
 3843TIP3    H133088   5.366   0.266   0.291 -0.2378  0.4701 -0.9236
 3843TIP3    H233089   5.359   0.207   0.430  0.1507  2.0210 -0.2208
 3844TIP3   OH233090   3.787   2.674   3.686 -0.2873  0.0170 -0.0548
 3844TIP3    H133091   3.811   2.671   3.778  0.5816 -0.2462 -0.2871
 3844TIP3    H233092   3.857   2.724   3.644 -0.9712  0.6522 -0.4911
 3845TIP3   OH233093   3.775   1.712   8.647  0.2129 -0.2458  0.3142
 3845TIP3    H133094   3.860   1.677   8.675  0.3056 -1.5527 -1.4393
 3845TIP3    H233095   3.764   1.679   8.558 -1.7619  0.6196  0.1984
 3846TIP3   OH233096   2.847   6.241   0.009  0.1605  0.1402  0.5612
 3846TIP3    H133097   2.873   6.293  -0.067 -3.4848 -0.5896 -1.3949
 3846TIP3    H233098   2.873   6.151  -0.013  0.9896  0.2213  1.1731
 3847TIP3   OH233099   1.668   3.170   3.654 -0.5372 -0.0855 -0.0425
 3847TIP3    H133100   1.763   3.169   3.662 -0.4450 -1.0718 -0.9198
 3847TIP3    H233101   1.640   3.250   3.697  0.6437 -0.0750  0.7406
 3848TIP3   OH233102   2.107   5.994   2.963  0.2286 -0.1406 -0.2197
 3848TIP3    H133103   2.165   5.932   2.919 -2.0367 -2.6752  0.1400
 3848TIP3    H233104   2.047   6.024   2.895 -0.5215 -0.6588  0.1998
 3849TIP3   OH233105   4.204   0.494   3.266  0.0525  0.0937 -0.5221
 3849TIP3    H133106   4.170   0.438   3.336  0.5054 -0.4697 -0.7437
 3849TIP3    H233107   4.192   0.442   3.187 -0.4757  0.7362 -0.8795
 3850TIP3   OH233108   4.986   0.497   8.424  0.0401  0.1750  0.0157
 3850TIP3    H133109   5.055   0.560   8.445 -0.5727  1.2423 -1.0271
 3850TIP3    H233110   5.014   0.416   8.464  1.2540  0.9206  0.7294
 3851TIP3   OH233111   1.626   1.523   3.364  0.8098  0.6232  0.1928
 3851TIP3    H133112   1.535   1.501   3.346  1.1377  1.0046 -2.2603
 3851TIP3    H233113   1.645   1.480   3.447 -1.0893 -0.9635 -0.1199
 3852TIP3   OH233114   6.024   2.323   8.481  0.5992 -0.3764 -0.1080
 3852TIP3    H133115   5.974   2.249   8.446  1.3695 -0.3703 -1.2907
 3852TIP3    H233116   6.103   2.284   8.518  0.2077 -0.2934  0.8375
 3853TIP3   OH233117   4.310   0.631   2.404 -0.4287 -0.1857  0.1930
 3853TIP3    H133118   4.314   0.695   2.474  2.1294  1.9902 -1.7302
 3853TIP3    H233119   4.226   0.647   2.360 -0.6478  0.5569  0.8752
 3854TIP3   OH233120   0.086   5.453   1.344  0.6667 -0.1802 -0.0145
 3854TIP3    H133121   0.171   5.453   1.300 -0.1759  0.8913 -1.7799
 3854TIP3    H233122   0.025   5.419   1.278 -0.2094 -1.4856  1.4058
 3855TIP3   OH233123   2.533   4.949   0.676  0.0286 -0.5158 -0.9474
 3855TIP3    H133124   2.507   5.026   0.626  0.5203  0.0645 -0.3387
 3855TIP3    H233125   2.451   4.912   0.707 -0.1575  0.8815  0.3653
 3856TIP3   OH233126   6.585   6.225   0.026 -0.1280 -0.1489  0.3525
 3856TIP3    H133127   6.665   6.180   0.055 -0.9313 -1.4947  0.5726
 3856TIP3    H233128   6.548   6.261   0.106 -0.3189 -0.4897  0.4183
 3857TIP3   OH233129   3.437   3.546   2.724  0.3305  0.3599 -0.1955
 3857TIP3    H133130   3.444   3.564   2.631 -1.2073  0.3198 -0.3473
 3857TIP3    H233131   3.423   3.451   2.729  0.6982  0.3182  0.1000
 3858TIP3   OH233132   4.849   1.680   7.971  0.2293  0.2653 -0.1962
 3858TIP3    H133133   4.927   1.638   7.934 -0.0469 -0.0118 -0.4655
 3858TIP3    H233134   4.883   1.757   8.017  0.7385 -0.2413  0.2861
 3859TIP3   OH233135   4.708   0.904   1.756 -0.8960 -0.3680 -0.1534
 3859TIP3    H133136   4.620   0.940   1.746 -0.6747  0.4480  0.7567
 3859TIP3    H233137   4.699   0.839   1.826 -1.0169 -1.1571 -0.8886
 3860TIP3   OH233138   1.720   0.826   3.625 -0.2314 -0.4802  0.6060
 3860TIP3    H133139   1.752   0.813   3.715  1.2317 -0.0641  0.1680
 3860TIP3    H233140   1.717   0.738   3.588  1.4560 -0.4724  0.3446
 3861TIP3   OH233141   1.021   5.858   0.633 -0.2676 -0.1729 -0.2856
 3861TIP3    H133142   1.109   5.822   0.624  0.0087  0.5986 -0.7908
 3861TIP3    H233143   1.033   5.953   0.630 -0.8603  0.0451  2.1035
 3862TIP3   OH233144   2.772   1.130   2.785 -0.2073  0.0932  0.2437
 3862TIP3    H133145   2.706   1.097   2.845  1.2222 -1.5506  1.0213
 3862TIP3    H233146   2.846   1.152   2.842  0.9125 -0.7986 -0.7991
 3863TIP3   OH233147   5.054   2.784   2.317 -0.0333  0.5312 -0.0145
 3863TIP3    H133148   5.011   2.869   2.317  2.9255  2.1255 -0.7302
 3863TIP3    H233149   5.023   2.742   2.398 -0.0774  3.0632  1.3636
 3864TIP3   OH233150   0.965   5.550   2.612 -0.4488 -0.6831 -0.6267
 3864TIP3    H133151   0.891   5.497   2.582 -0.4713 -2.2056  1.7803
 3864TIP3    H233152   0.959   5.546   2.708  2.5669 -0.6200 -0.3409
 3865TIP3   OH233153   0.412   5.727   8.432 -0.2260  0.1792  0.2835
 3865TIP3    H133154   0.435   5.813   8.468 -3.0671  1.3971 -0.5977
 3865TIP3    H233155   0.373   5.680   8.505 -0.5869  0.4354  0.2568
 3866TIP3   OH233156   4.854   4.032   3.171 -0.3134 -0.0261  0.2803
 3866TIP3    H133157   4.880   4.120   3.145  0.3882 -0.7971 -1.8307
 3866TIP3    H233158   4.932   3.995   3.213 -1.0852  0.8275  2.5802
 3867TIP3   OH233159   0.056   0.951   0.010  0.1475  0.4230  0.9360
 3867TIP3    H133160   0.125   1.008   0.046 -0.4844  2.1753 -0.4516
 3867TIP3    H233161  -0.020   1.008   0.002  0.3013  0.3615 -3.3282
 3868TIP3   OH233162   3.196   6.610   3.351 -0.0739 -0.7115 -0.3941
 3868TIP3    H133163   3.227   6.542   3.291  0.6820 -1.4942  0.8482
 3868TIP3    H233164   3.268   6.621   3.414 -0.9072 -0.0264  0.4580
 3869TIP3   OH233165   6.470   0.972   2.548 -0.1517 -0.2288 -0.0107
 3869TIP3    H133166   6.385   0.969   2.592  0.0036 -0.7032  0.2676
 3869TIP3    H233167   6.508   1.055   2.576  0.4350 -1.0340  1.7076
 3870TIP3   OH233168   0.313   4.495   2.685  0.3994 -0.0626 -0.0250
 3870TIP3    H133169   0.264   4.540   2.754  0.7030 -2.2750  1.7443
 3870TIP3    H233170   0.245   4.456   2.630  0.1589  0.0073  0.2194
 3871TIP3   OH233171   1.062   1.375   0.666  0.4844 -0.1301  0.4881
 3871TIP3    H133172   0.975   1.412   0.675  1.1228  1.7885 -0.7006
 3871TIP3    H233173   1.048   1.281   0.660 -1.7647  0.2583 -2.1340
 3872TIP3   OH233174   5.988   3.950   3.532 -0.0194 -0.5411 -0.0842
 3872TIP3    H133175   5.913   4.001   3.564  0.0428 -0.5893  0.1370
 3872TIP3    H233176   5.998   3.879   3.596  1.1814  0.3466  0.7518
 3873TIP3   OH233177   6.503   5.875   1.132  0.1966 -0.1017  0.5351
 3873TIP3    H133178   6.569   5.863   1.200  0.7548 -0.9852 -0.1481
 3873TIP3    H233179   6.549   5.923   1.062 -0.4086  0.9230  0.8156
 3874TIP3   OH233180   6.339   4.399   2.027  0.4347 -0.5405  0.0898
 3874TIP3    H133181   6.385   4.426   2.107 -0.1337 -0.7696  0.5000
 3874TIP3    H233182   6.337   4.303   2.032 -0.8903 -0.5136  0.5490
 3875TIP3   OH233183   0.267   4.163   2.510  0.4596  0.3923  0.3303
 3875TIP3    H133184   0.325   4.162   2.586 -0.3103  1.3839  0.9595
 3875TIP3    H233185   0.206   4.235   2.527  0.1546  0.5264 -1.1417
 3876TIP3   OH233186   6.565   0.707   3.675 -0.0335  0.2855 -0.5090
 3876TIP3    H133187   6.582   0.657   3.595 -1.3469 -0.6374 -0.2458
 3876TIP3    H233188   6.473   0.732   3.668 -0.0199  0.6520  0.4773
 3877TIP3   OH233189   1.030   1.101   2.766 -0.1595  0.1529  0.8285
 3877TIP3    H133190   1.056   1.154   2.841  4.4703  2.1002 -1.7066
 3877TIP3    H233191   1.112   1.083   2.720 -2.5027 -2.1333 -3.0155
 3878TIP3   OH233192   1.220   5.833   3.167  0.2747 -1.2087 -0.7778
 3878TIP3    H133193   1.174   5.916   3.180  1.0055 -0.5563 -2.2220
 3878TIP3    H233194   1.179   5.794   3.089  1.2765 -1.2398 -1.3028
 3879TIP3   OH233195   3.840   2.975   0.438 -0.5263 -0.7804  0.0610
 3879TIP3    H133196   3.883   2.917   0.500 -2.5912 -0.8063  1.5615
 3879TIP3    H233197   3.821   2.920   0.362 -0.9479 -1.6361  0.7729
 3880TIP3   OH233198   1.223   1.138   0.353 -0.5256  0.2868  0.2006
 3880TIP3    H133199   1.138   1.168   0.385 -1.3113 -1.5377 -0.0500
 3880TIP3    H233200   1.214   1.137   0.258 -0.7387 -1.1922  0.2055
 3881TIP3   OH233201   5.409   5.816   0.825 -0.1606  0.7805  0.1561
 3881TIP3    H133202   5.380   5.850   0.909 -2.0233 -1.2635  0.4237
 3881TIP3    H233203   5.412   5.892   0.767 -1.0097  1.8629  1.4912
 3882TIP3   OH233204   5.891   6.024   2.880  0.1068 -0.3182  0.1877
 3882TIP3    H133205   5.908   6.089   2.812 -1.3865  0.4276  0.4965
 3882TIP3    H233206   5.935   6.059   2.958 -0.2545  0.0803  0.2190
 3883TIP3   OH233207   5.560   4.139   1.687 -0.0063 -0.2419 -0.3197
 3883TIP3    H133208   5.552   4.221   1.638  0.6760  0.1836  0.2582
 3883TIP3    H233209   5.642   4.148   1.736 -0.7593 -0.5529  1.0721
 3884TIP3   OH233210   5.260   0.601   0.495 -0.0139  0.4423  0.1803
 3884TIP3    H133211   5.187   0.581   0.437 -1.4048 -0.3954  2.1173
 3884TIP3    H233212   5.278   0.519   0.541  0.1668  1.3750  1.8482
 3885TIP3   OH233213   5.232   4.622   1.063 -0.7303 -0.2923  0.2973
 3885TIP3    H133214   5.139   4.604   1.045 -0.4435  0.3869 -2.2674
 3885TIP3    H233215   5.272   4.535   1.067 -0.9424 -0.5900 -2.2715
 3886TIP3   OH233216   3.121   2.415   0.746 -0.4482 -0.2900  0.8249
 3886TIP3    H133217   3.156   2.346   0.803  0.0481 -0.4507  0.3357
 3886TIP3    H233218   3.110   2.373   0.661  1.3840  0.6054  0.0848
 3887TIP3   OH233219   4.340   1.499   2.057 -0.3532  0.3541  0.1553
 3887TIP3    H133220   4.307   1.472   2.143 -1.0220  0.2414 -0.1301
 3887TIP3    H233221   4.434   1.508   2.069 -0.2630 -0.9641  0.5597
 3888TIP3   OH233222   3.539   2.047   2.019 -0.0737 -0.1678  0.4406
 3888TIP3    H133223   3.513   1.989   1.948 -0.9251  0.5497  0.1465
 3888TIP3    H233224   3.625   2.016   2.046 -0.8074 -2.0024  0.7837
 3889TIP3   OH233225   2.819   6.251   1.537 -0.0557 -0.7524 -0.1884
 3889TIP3    H133226   2.896   6.214   1.580 -0.2905 -0.2280  0.6870
 3889TIP3    H233227   2.837   6.344   1.530 -0.8223 -0.5494  0.4722
 3890TIP3   OH233228   2.761   1.555   0.094 -0.1451  0.4250 -0.5831
 3890TIP3    H133229   2.750   1.472   0.141 -1.5453  1.6617  1.4267
 3890TIP3    H233230   2.845   1.546   0.049  1.4064 -0.8455  2.2863
 3891TIP3   OH233231   1.319   1.830   0.500  0.2223 -0.5065 -0.2195
 3891TIP3    H133232   1.251   1.880   0.454  0.3242  1.1048  1.2582
 3891TIP3    H233233   1.371   1.897   0.545 -0.2405 -1.9552  2.7105
 3892TIP3   OH233234   4.003   5.463   3.535 -0.5821  0.2536 -0.2119
 3892TIP3    H133235   3.946   5.499   3.467  1.1100  0.2663 -1.6959
 3892TIP3    H233236   3.951   5.395   3.577 -1.7030  0.2825 -1.5038
 3893TIP3   OH233237   3.029   2.214   8.586 -0.2399 -0.4178 -0.0718
 3893TIP3    H133238   3.038   2.128   8.545 -0.1297 -1.1713  1.4865
 3893TIP3    H233239   3.112   2.227   8.632 -1.0122 -0.4043  1.3797
 3894TIP3   OH233240   4.328   4.739   0.021 -0.0999  0.5497  0.5670
 3894TIP3    H133241   4.275   4.798  -0.032 -0.6150 -0.0835  0.3680
 3894TIP3    H233242   4.343   4.787   0.102  1.2467  1.7897 -0.3781
 3895TIP3   OH233243   0.767   4.152   2.803  0.2134 -0.0518  0.2715
 3895TIP3    H133244   0.786   4.187   2.890  1.9659  0.9197 -0.4557
 3895TIP3    H233245   0.736   4.063   2.819  1.0862 -0.1018  1.8696
 3896TIP3   OH233246   6.809   5.711   3.290  0.0037  0.2217  0.3083
 3896TIP3    H133247   6.843   5.763   3.217  1.9988  0.3964  1.2969
 3896TIP3    H233248   6.870   5.638   3.298 -0.4566 -0.0534  1.5021
 3897TIP3   OH233249   3.723   0.003   1.989  0.0064  0.5046  0.0178
 3897TIP3    H133250   3.801  -0.018   1.937 -0.6556 -2.6179  0.0783
 3897TIP3    H233251   3.753   0.067   2.053  2.0087  0.8910 -1.2150
 3898TIP3   OH233252   1.969   3.178   1.656  0.1509 -0.0286  0.0931
 3898TIP3    H133253   2.023   3.230   1.597  0.2867 -0.5569 -0.2589
 3898TIP3    H233254   1.931   3.110   1.600  0.9901 -1.0861  0.7627
 3899TIP3   OH233255   5.302   4.330   2.579 -0.2083  0.0755  0.1954
 3899TIP3    H133256   5.302   4.267   2.507 -2.4905 -1.4135  1.3919
 3899TIP3    H233257   5.358   4.401   2.548  0.9268 -1.6515 -1.9870
 3900TIP3   OH233258   1.707   3.731   1.561  0.1235  0.0526 -0.3030
 3900TIP3    H133259   1.719   3.637   1.576  0.5924  0.0153 -0.8734
 3900TIP3    H233260   1.629   3.754   1.612  0.2335 -0.5649  0.1478
 3901TIP3   OH233261   3.744   5.217   1.028 -0.5475 -0.4166  0.0249
 3901TIP3    H133262   3.694   5.150   0.981 -1.0727  1.9862 -3.1919
 3901TIP3    H233263   3.834   5.182   1.031 -0.8518 -1.3969 -1.3061
 3902TIP3   OH233264   5.247   0.403   3.811  0.5655  0.1022 -0.0291
 3902TIP3    H133265   5.234   0.494   3.838 -0.3823  0.2753 -1.0182
 3902TIP3    H233266   5.174   0.355   3.849  0.4020 -0.0297 -0.5004
 3903TIP3   OH233267   2.843   0.245   3.121 -0.1760  0.4303  0.4392
 3903TIP3    H133268   2.896   0.216   3.046  0.7882  2.4999  0.2488
 3903TIP3    H233269   2.871   0.335   3.137 -0.9550  0.3262  2.7993
 3904TIP3   OH233270   3.079   1.893   2.856 -0.0005  0.3679 -0.1292
 3904TIP3    H133271   3.075   1.820   2.917  2.2594 -0.6350 -1.0860
 3904TIP3    H233272   3.005   1.878   2.796 -2.0590  1.2080  2.0535
 3905TIP3   OH233273   1.191   1.079   3.486  0.0182  0.3638 -0.3296
 3905TIP3    H133274   1.172   1.017   3.557  0.7074  1.0664  0.5066
 3905TIP3    H233275   1.262   1.134   3.521 -0.9205  1.9697 -0.8142
 3906TIP3   OH233276   4.954   4.214   1.708 -0.3502  0.0096 -0.2542
 3906TIP3    H133277   4.888   4.147   1.688 -1.5016  0.0991  2.6806
 3906TIP3    H233278   4.913   4.268   1.777  2.0274  1.3362  0.2290
 3907TIP3   OH233279   5.485   2.980   0.721  0.6845 -0.0130  0.5138
 3907TIP3    H133280   5.532   2.943   0.795  0.0206 -0.0409  0.9246
 3907TIP3    H233281   5.451   2.904   0.673  1.3477 -0.0078  0.0094
 3908TIP3   OH233282   3.142   2.553   0.321 -0.6344  0.5371 -0.3460
 3908TIP3    H133283   3.132   2.508   0.237 -2.6154  2.7189 -1.3995
 3908TIP3    H233284   3.225   2.601   0.313  1.1799 -2.2037  0.5575
 3909TIP3   OH233285   5.003   1.405   8.484  0.2132 -0.6316  0.0313
 3909TIP3    H133286   4.922   1.426   8.529  0.0131  0.6677 -0.8647
 3909TIP3    H233287   4.976   1.360   8.404  0.4526 -1.3523  0.3534
 3910TIP3   OH233288   3.030   5.323   1.305 -0.1070 -0.1406  0.2327
 3910TIP3    H133289   2.968   5.286   1.243 -0.9025 -0.5342  1.2505
 3910TIP3    H233290   3.095   5.253   1.319  0.2789  0.0784 -0.4148
 3911TIP3   OH233291   4.467   1.444   1.002  0.0074 -0.2682 -0.2096
 3911TIP3    H133292   4.508   1.423   0.918 -0.6543 -1.1762 -0.3209
 3911TIP3    H233293   4.514   1.521   1.033  0.7431 -0.3527 -1.0711
 3912TIP3   OH233294   6.161   2.031   3.933  0.0514 -0.2704  0.4339
 3912TIP3    H133295   6.188   2.099   3.995  2.5144 -0.2140 -0.5859
 3912TIP3    H233296   6.087   1.988   3.975 -1.3719  2.7527  1.3168
 3913TIP3   OH233297   4.107   5.958   2.286  0.7069  0.3409  0.2433
 3913TIP3    H133298   4.112   5.862   2.281  2.5024  0.4554 -1.7542
 3913TIP3    H233299   4.016   5.979   2.264  0.4822 -0.8808 -0.0856
 3914TIP3   OH233300   4.232   4.590   8.540  0.1643 -0.2060 -0.6938
 3914TIP3    H133301   4.304   4.527   8.532  1.1404  1.0234 -2.1338
 3914TIP3    H233302   4.269   4.673   8.508 -1.2279  0.9964  0.6828
 3915TIP3   OH233303   2.767   5.698   0.310 -0.1376 -0.5326 -0.0294
 3915TIP3    H133304   2.858   5.681   0.286 -0.2551 -2.2547  0.5775
 3915TIP3    H233305   2.718   5.625   0.271 -1.3863  0.8159 -1.0486
 3916TIP3   OH233306   6.812   5.848   1.900  0.0572  0.4815  0.7277
 3916TIP3    H133307   6.881   5.782   1.901  1.5003  1.9057  0.5427
 3916TIP3    H233308   6.748   5.817   1.964 -0.0598 -1.7856 -0.3790
 3917TIP3   OH233309   1.062   0.397   8.266 -0.3621  0.3505 -0.1857
 3917TIP3    H133310   0.979   0.380   8.222 -1.6279  3.0778  0.9124
 3917TIP3    H233311   1.053   0.357   8.352 -0.5302  0.6126 -0.0811
 3918TIP3   OH233312   3.990   1.320   3.330 -0.0463  0.2523 -0.5210
 3918TIP3    H133313   3.993   1.258   3.403  1.7582  0.9317  0.0569
 3918TIP3    H233314   4.033   1.274   3.258 -0.4657  0.1381 -0.7030
 3919TIP3   OH233315   1.901   3.806   1.770 -0.1436 -0.5004 -0.2150
 3919TIP3    H133316   1.903   3.711   1.761 -1.5226 -0.5425 -0.2904
 3919TIP3    H233317   1.849   3.836   1.695  0.6842  0.3547 -0.4598
 3920TIP3   OH233318   3.876   2.678   3.947  0.1499  0.2420 -0.2311
 3920TIP3    H133319   3.964   2.696   3.979 -0.3891 -0.1312  1.5738
 3920TIP3    H233320   3.875   2.583   3.931  0.0879  0.2521 -0.2903
 3921TIP3   OH233321   4.363   4.197   3.463  0.4583  0.2411 -0.1560
 3921TIP3    H133322   4.390   4.186   3.554 -0.6487 -1.4454  0.0030
 3921TIP3    H233323   4.442   4.177   3.412  0.6812 -0.3003  0.3940
 3922TIP3   OH233324   4.400   2.642   3.084 -0.6828 -0.6084  0.4837
 3922TIP3    H133325   4.314   2.614   3.052 -0.4193  0.1278 -0.9886
 3922TIP3    H233326   4.381   2.705   3.154 -1.3756 -0.1192 -0.1228
 3923TIP3   OH233327   5.193   3.868   8.315 -0.1933  0.1693 -0.3496
 3923TIP3    H133328   5.200   3.962   8.297  0.2050 -0.0896 -1.6098
 3923TIP3    H233329   5.274   3.847   8.361 -0.1174  0.3738 -0.3874
 3924TIP3   OH233330   3.586   6.718   1.525  0.1577  0.5751  0.6837
 3924TIP3    H133331   3.546   6.721   1.612 -1.4725 -2.1078  0.1566
 3924TIP3    H233332   3.513   6.696   1.466  1.5937  0.2120 -1.0322
 3925TIP3   OH233333   4.837   2.198   8.234  0.0922  0.2935  0.9105
 3925TIP3    H133334   4.906   2.264   8.231 -0.1700  0.5172 -0.7066
 3925TIP3    H233335   4.832   2.174   8.327 -0.4635  3.2705  1.7904
 3926TIP3   OH233336   6.263   5.746   1.634 -0.0668 -1.1732 -0.1900
 3926TIP3    H133337   6.244   5.667   1.684  0.1427 -1.1438 -0.0617
 3926TIP3    H233338   6.358   5.752   1.635 -0.0634 -1.1606 -0.5778
 3927TIP3   OH233339   5.733   2.051   0.878 -0.0721  0.0789  0.0347
 3927TIP3    H133340   5.757   1.969   0.921  0.5141 -0.1063 -0.6500
 3927TIP3    H233341   5.678   2.025   0.804 -0.3593  0.3486  0.1468
 3928TIP3   OH233342   4.068   5.842   2.588 -0.2135  0.0053  0.1721
 3928TIP3    H133343   4.046   5.933   2.607  1.6177  0.5736 -0.2189
 3928TIP3    H233344   4.156   5.846   2.549  0.8271 -2.0940  2.0512
 3929TIP3   OH233345   2.498   0.562   1.910  0.3429  0.2518 -0.0447
 3929TIP3    H133346   2.546   0.582   1.830 -1.1053  0.8305 -0.7999
 3929TIP3    H233347   2.419   0.517   1.881  0.3618 -0.6308  1.1605
 3930TIP3   OH233348   6.477   5.601   0.833 -0.7083  0.4155 -0.6718
 3930TIP3    H133349   6.406   5.661   0.854 -0.7136 -0.0723  0.8280
 3930TIP3    H233350   6.435   5.515   0.830 -0.3892  0.2676 -0.9697
 3931TIP3   OH233351   6.143   5.529   1.793 -0.6245 -0.0982  0.4963
 3931TIP3    H133352   6.081   5.557   1.860  0.0886  0.1061  1.0827
 3931TIP3    H233353   6.212   5.484   1.841 -0.8960 -1.3925 -0.2658
 3932TIP3   OH233354   5.176   4.282   3.212  0.2745  0.1506  0.9311
 3932TIP3    H133355   5.204   4.372   3.197 -1.2311  0.5684  0.4431
 3932TIP3    H233356   5.257   4.233   3.223  1.3176  1.0079 -1.9863
 3933TIP3   OH233357   2.394   2.351   0.664 -0.3534  0.1957 -0.0581
 3933TIP3    H133358   2.302   2.328   0.674 -0.9406  2.5109  0.4409
 3933TIP3    H233359   2.439   2.267   0.652 -2.4502 -1.0129  0.1338
 3934TIP3   OH233360   6.664   3.672   0.698  0.1685 -0.0565  0.1112
 3934TIP3    H133361   6.581   3.721   0.696  0.5287  0.5547 -0.7782
 3934TIP3    H233362   6.647   3.597   0.755 -0.4536  1.0063  1.3634
 3935TIP3   OH233363   4.389   6.037   1.697 -0.1795  0.0047  0.1028
 3935TIP3    H133364   4.389   6.110   1.635  0.7712 -0.1144 -0.0507
 3935TIP3    H233365   4.296   6.019   1.713 -0.4268  0.3698 -0.8815
 3936TIP3   OH233366   0.189   4.667   1.035 -0.4969  0.3994 -0.1339
 3936TIP3    H133367   0.117   4.703   1.086  0.3638  0.6815  0.9292
 3936TIP3    H233368   0.228   4.743   0.991 -1.3034  0.1440 -1.3506
 3937TIP3   OH233369   2.575   6.519   2.406 -0.3598  0.0140 -0.6122
 3937TIP3    H133370   2.578   6.464   2.328 -0.2224 -0.6858 -0.1199
 3937TIP3    H233371   2.532   6.465   2.472  0.6063  0.1386  0.1476
 3938TIP3   OH233372   3.037   5.203   3.880 -0.7562 -0.1007 -0.7502
 3938TIP3    H133373   3.047   5.168   3.792  0.8341 -0.3125 -0.5236
 3938TIP3    H233374   3.127   5.206   3.915 -1.1310  1.7084  0.1956
 3939TIP3   OH233375   6.381   4.928   8.701  0.4021  0.2155 -0.2751
 3939TIP3    H133376   6.335   4.954   8.621 -1.8387 -2.4261  0.0204
 3939TIP3    H233377   6.313   4.926   8.769  1.4833 -1.1652  0.8395
 3940TIP3   OH233378   5.101   4.254   2.757 -0.4835 -0.3158  0.0615
 3940TIP3    H133379   5.149   4.290   2.682  0.1073 -0.5306  0.3393
 3940TIP3    H233380   5.015   4.231   2.721  0.9241 -3.8002 -1.4614
 3941TIP3   OH233381   0.576   1.709   1.009  0.1461  0.3508 -0.5567
 3941TIP3    H133382   0.582   1.719   0.914  0.6496 -0.1700 -0.5850
 3941TIP3    H233383   0.530   1.788   1.039 -0.8110  0.0970 -1.3166
 3942TIP3   OH233384   2.599   1.257   0.684 -0.2733  0.1532  0.2026
 3942TIP3    H133385   2.634   1.345   0.694 -0.3730  0.1630  0.4992
 3942TIP3    H233386   2.545   1.261   0.605 -0.3664  0.3882  0.2772
 3943TIP3   OH233387   3.954   0.617   2.336  0.1925 -0.0028  0.1924
 3943TIP3    H133388   3.974   0.524   2.321  0.8505  0.2580 -0.6237
 3943TIP3    H233389   3.877   0.616   2.393  0.8863 -1.0511  1.1704
 3944TIP3   OH233390   5.931   5.620   1.960 -0.0799  0.2384 -0.0466
 3944TIP3    H133391   5.928   5.586   2.050  0.4837 -0.1934 -0.1923
 3944TIP3    H233392   5.921   5.715   1.971  1.9695  0.4194  0.6233
 3945TIP3   OH233393   4.289   0.425   7.891 -0.0658 -0.2613  0.3165
 3945TIP3    H133394   4.303   0.384   7.806 -0.0193 -0.1708  0.2800
 3945TIP3    H233395   4.339   0.371   7.952 -0.2438 -0.4303  0.3148
 3946TIP3   OH233396   6.809   4.199   0.477 -0.0169  0.0202 -0.0196
 3946TIP3    H133397   6.798   4.188   0.571 -0.9782 -0.1901 -0.1506
 3946TIP3    H233398   6.845   4.115   0.447  3.0253  0.9859  0.5276
 3947TIP3   OH233399   3.106   5.069   3.654 -0.3121 -0.1346  0.0442
 3947TIP3    H133400   3.077   4.977   3.654 -0.9441  0.0605 -0.0260
 3947TIP3    H233401   3.200   5.064   3.641 -0.3852 -0.7678 -0.2967
 3948TIP3   OH233402   1.920   0.981   0.102  0.0439 -0.6248  0.4151
 3948TIP3    H133403   1.965   0.897   0.108  1.2649  0.1068  2.5522
 3948TIP3    H233404   1.975   1.034   0.045  0.0980 -0.7602  0.3396
 3949TIP3   OH233405   4.235   3.820   2.596 -0.1285 -0.1930  0.1496
 3949TIP3    H133406   4.267   3.765   2.524 -1.6558 -1.1380  0.1551
 3949TIP3    H233407   4.245   3.767   2.674 -1.9823 -0.6686  0.1038
 3950TIP3   OH233408   1.729   5.332   1.090  0.0157 -0.3064 -0.0442
 3950TIP3    H133409   1.788   5.291   1.153  0.5966 -0.5010 -0.6979
 3950TIP3    H233410   1.746   5.426   1.098 -2.6036  0.0853  2.7574
 3951TIP3   OH233411   1.588   3.836   0.001 -0.1675  0.0269  0.0594
 3951TIP3    H133412   1.623   3.747  -0.009 -0.2871  0.1238 -1.4063
 3951TIP3    H233413   1.659   3.893  -0.025 -0.4233  0.3334  0.0293
 3952TIP3   OH233414   4.105   5.233   7.600 -0.3234 -0.5934  0.3929
 3952TIP3    H133415   4.200   5.225   7.609 -0.3570 -0.6526  0.7311
 3952TIP3    H233416   4.092   5.291   7.526 -0.0106  0.0499  0.8309
 3953TIP3   OH233417   3.337   1.529   0.633  0.4877 -0.4955  0.1128
 3953TIP3    H133418   3.279   1.567   0.699  0.7510 -0.8661  0.5614
 3953TIP3    H233419   3.420   1.575   0.645  1.2216 -2.1335  1.5751
 3954TIP3   OH233420   4.396   3.580   1.569  0.0635  0.9584  0.6774
 3954TIP3    H133421   4.386   3.569   1.474  0.6320  2.9021  0.3538
 3954TIP3    H233422   4.448   3.505   1.597  0.3549  0.6561 -0.6360
 3955TIP3   OH233423   6.706   5.238   0.565 -0.2207 -0.1489  0.4216
 3955TIP3    H133424   6.736   5.276   0.482  0.0377  0.4171  0.7658
 3955TIP3    H233425   6.713   5.144   0.552 -1.0982 -0.1025 -0.5464
 3956TIP3   OH233426   5.798   3.510   1.563 -0.1016  0.2340  0.5297
 3956TIP3    H133427   5.829   3.496   1.652  1.6298 -1.1013 -0.2177
 3956TIP3    H233428   5.760   3.427   1.536  1.5473 -0.1678 -0.7363
 3957TIP3   OH233429   0.426   0.082   3.219  0.2523  0.1305 -0.2048
 3957TIP3    H133430   0.422  -0.001   3.268  0.4435  0.2757  0.0565
 3957TIP3    H233431   0.504   0.126   3.252 -0.1171  0.6383  0.0071
 3958TIP3   OH233432   3.206   5.835   1.332 -0.5234  0.4617  0.3171
 3958TIP3    H133433   3.279   5.830   1.393 -1.2972 -1.2192  1.1905
 3958TIP3    H233434   3.240   5.799   1.250  0.2658  1.8832  0.0024
 3959TIP3   OH233435   6.581   0.388   1.084 -0.2440  0.3296  0.8940
 3959TIP3    H133436   6.554   0.300   1.112 -0.3099  0.9790  3.0849
 3959TIP3    H233437   6.671   0.377   1.055 -1.2910 -1.0381 -2.1958
 3960TIP3   OH233438   1.108   4.408   0.522  0.6500 -0.1749  0.0644
 3960TIP3    H133439   1.099   4.367   0.608 -0.6621  0.4251  0.2418
 3960TIP3    H233440   1.085   4.338   0.460  1.4005 -0.5492  0.1896
 3961TIP3   OH233441   4.149   2.487   1.066 -0.0808  0.2821 -0.2604
 3961TIP3    H133442   4.241   2.461   1.071  0.5398  2.3196 -0.1279
 3961TIP3    H233443   4.132   2.498   0.972 -0.3753 -0.6542 -0.3240
 3962TIP3   OH233444   0.140   4.760   3.689  0.1302 -0.1216  0.1984
 3962TIP3    H133445   0.198   4.832   3.666 -0.8094  0.1121 -1.5847
 3962TIP3    H233446   0.168   4.735   3.777  3.3669 -0.4788 -0.7802
 3963TIP3   OH233447   0.132   1.555   7.828  0.9318  0.2432 -0.5178
 3963TIP3    H133448   0.045   1.515   7.826 -0.5494  3.0904  0.5520
 3963TIP3    H233449   0.173   1.518   7.906  0.3658 -0.5717 -0.5972
 3964TIP3   OH233450   0.605   6.329   3.587  0.3089 -0.4170  0.1636
 3964TIP3    H133451   0.538   6.360   3.648  1.0573  0.2280  0.6802
 3964TIP3    H233452   0.609   6.234   3.600  1.0349 -0.1938  1.7367
 3965TIP3   OH233453   6.424   6.725   2.799  0.4275  0.4132  0.2056
 3965TIP3    H133454   6.387   6.652   2.849 -0.4033  0.5684 -0.1718
 3965TIP3    H233455   6.506   6.690   2.763 -0.2305 -0.5248 -0.4329
 3966TIP3   OH233456   5.367   3.127   3.336  0.1283  0.0328 -0.1666
 3966TIP3    H133457   5.400   3.217   3.337  0.8557 -0.1843 -1.8827
 3966TIP3    H233458   5.445   3.072   3.333 -0.3306 -0.6310 -0.1411
 3967TIP3   OH233459   3.863   0.642   1.689  0.0774  0.0970 -0.4258
 3967TIP3    H133460   3.879   0.676   1.777 -0.2504 -0.3420 -0.1946
 3967TIP3    H233461   3.879   0.548   1.695 -1.8600 -0.2799 -0.3301
 3968TIP3   OH233462   1.947   1.603   2.733  0.1749 -0.4593 -0.0923
 3968TIP3    H133463   1.970   1.632   2.821  3.2769  2.1694 -1.5691
 3968TIP3    H233464   1.903   1.678   2.694 -0.0250 -1.1214 -1.1823
 3969TIP3   OH233465   0.923   4.240   3.412  0.0516 -0.1613 -0.4776
 3969TIP3    H133466   0.838   4.198   3.401 -1.3671  2.2249  0.6845
 3969TIP3    H233467   0.925   4.309   3.345  0.7762  0.2364 -0.0608
 3970TIP3   OH233468   0.985   1.938   2.991  0.1071 -0.5153 -0.3094
 3970TIP3    H133469   0.988   2.007   3.057 -0.7104  0.2270 -1.0094
 3970TIP3    H233470   1.074   1.904   2.987  0.7281  1.0223 -0.4792
 3971TIP3   OH233471   6.743   5.025   1.760 -0.2560  0.0569  0.6707
 3971TIP3    H133472   6.760   5.101   1.704 -2.7649 -1.4477 -2.4191
 3971TIP3    H233473   6.830   4.996   1.788  1.5090 -0.2619 -4.2115
 3972TIP3   OH233474   6.502   2.324   2.221  0.2879 -0.1251  0.1385
 3972TIP3    H133475   6.446   2.401   2.233 -0.4003 -0.6579  0.4171
 3972TIP3    H233476   6.548   2.315   2.305  1.3609  0.7379 -0.3315
 3973TIP3   OH233477   0.374   3.473   1.724  0.3478  0.2073 -0.5922
 3973TIP3    H133478   0.338   3.389   1.698 -0.8817  0.2265  0.8721
 3973TIP3    H233479   0.443   3.451   1.786  0.9931  0.2504 -1.2867
 3974TIP3   OH233480   6.724   3.965   0.058  0.1160  0.2813 -0.0521
 3974TIP3    H133481   6.741   4.052   0.021 -0.6853  0.4305 -0.0832
 3974TIP3    H233482   6.631   3.965   0.079 -0.6129 -1.5990 -2.7802
 3975TIP3   OH233483   5.270   0.773   2.386  0.3151  0.1736 -0.0877
 3975TIP3    H133484   5.191   0.824   2.365  0.0922  0.0142  0.3404
 3975TIP3    H233485   5.256   0.744   2.476  0.9879  0.3734  0.0888
 3976TIP3   OH233486   1.718   6.466   2.357 -0.4363 -0.3767  0.4276
 3976TIP3    H133487   1.735   6.483   2.264 -1.7066  0.3251  0.3043
 3976TIP3    H233488   1.666   6.385   2.357  0.0388 -0.6850  0.5717
 3977TIP3   OH233489   6.587   2.160   0.277 -0.1334 -0.7747  0.5780
 3977TIP3    H133490   6.564   2.157   0.184  0.2432  0.1610  0.4481
 3977TIP3    H233491   6.680   2.140   0.279  0.3912  1.4026  0.5116
 3978TIP3   OH233492   4.730   6.645   2.066  0.1783 -0.1317  0.2631
 3978TIP3    H133493   4.815   6.635   2.023  0.0549 -0.4826  0.0844
 3978TIP3    H233494   4.688   6.718   2.020  0.6635  0.5117  0.8328
 3979TIP3   OH233495   4.372   1.024   1.297  0.1338 -0.3859 -0.0833
 3979TIP3    H133496   4.446   0.970   1.326  0.7335  0.6805  0.4160
 3979TIP3    H233497   4.399   1.057   1.211 -0.0870 -0.5794 -0.2311
 3980TIP3   OH233498   4.685   6.184   1.624 -0.2506  0.3345  0.4919
 3980TIP3    H133499   4.593   6.203   1.603 -0.3931 -0.4568  0.3480
 3980TIP3    H233500   4.703   6.102   1.578  0.7230  0.8028  0.0201
 3981TIP3   OH233501   1.546   1.823   1.348  0.1710 -0.5023 -0.0119
 3981TIP3    H133502   1.492   1.897   1.376 -0.8103 -0.8097 -1.0415
 3981TIP3    H233503   1.601   1.858   1.279 -1.4707 -1.0876 -1.6809
 3982TIP3   OH233504   1.015   3.821   4.505  0.3820  0.1039 -0.6821
 3982TIP3    H133505   0.962   3.782   4.436 -0.7335 -0.8839  0.7015
 3982TIP3    H233506   1.105   3.797   4.482  0.0086 -0.3911 -1.6781
 3983TIP3   OH233507   4.731   0.685   1.921 -0.1856  0.1325 -0.4937
 3983TIP3    H133508   4.674   0.643   1.857  0.5309 -0.8740 -0.4884
 3983TIP3    H233509   4.806   0.627   1.929 -0.6570 -0.2619  1.9231
 3984TIP3   OH233510   4.759   3.706   3.398 -0.4869  0.2607 -0.4082
 3984TIP3    H133511   4.677   3.656   3.397 -1.9311  2.3535  1.5207
 3984TIP3    H233512   4.789   3.705   3.307 -3.4560  0.5587 -1.5169
 3985TIP3   OH233513   4.451   4.710   1.911  0.0810 -0.1110  0.1251
 3985TIP3    H133514   4.515   4.642   1.932  0.2712 -0.6196 -1.9192
 3985TIP3    H233515   4.484   4.750   1.830 -2.1012 -0.2973 -0.9235
 3986TIP3   OH233516   0.229   4.642   3.092  0.0132  0.1910 -0.9145
 3986TIP3    H133517   0.168   4.623   3.164  0.1732  1.0370 -0.5405
 3986TIP3    H233518   0.312   4.604   3.121 -0.1445 -0.2895 -1.0800
 3987TIP3   OH233519   0.981   6.748   1.393 -0.2128 -0.4978 -0.4891
 3987TIP3    H133520   0.971   6.843   1.389  0.0604 -0.4903 -1.1133
 3987TIP3    H233521   0.971   6.726   1.486  2.8223  0.4951  0.1808
 3988TIP3   OH233522   2.067   1.409   2.096  0.1744  0.4652  0.4602
 3988TIP3    H133523   2.128   1.364   2.037 -1.1448  0.6232 -1.1112
 3988TIP3    H233524   2.032   1.340   2.152 -0.8279 -0.3188 -1.0349
 3989TIP3   OH233525   3.599   5.514   2.612  0.1023  0.0011 -0.3738
 3989TIP3    H133526   3.631   5.436   2.567 -1.1058 -0.8770  0.2323
 3989TIP3    H233527   3.588   5.487   2.703 -1.1445  0.6113 -0.3268
 3990TIP3   OH233528   3.663   4.587   8.731 -0.3506 -0.0496 -0.4636
 3990TIP3    H133529   3.660   4.500   8.770  2.4373  0.7299  1.8125
 3990TIP3    H233530   3.689   4.573   8.640  0.5468 -1.5672  0.0060
 3991TIP3   OH233531   1.775   4.277   0.878  0.1346  0.0478 -0.4425
 3991TIP3    H133532   1.718   4.211   0.839  0.7305 -0.4920 -0.4222
 3991TIP3    H233533   1.811   4.235   0.956  0.1160  0.5871 -0.1350
 3992TIP3   OH233534   1.840   5.098   2.594 -0.4215  0.1976 -0.3163
 3992TIP3    H133535   1.746   5.098   2.579 -0.3571 -0.4396 -0.7805
 3992TIP3    H233536   1.851   5.064   2.682 -0.4691 -3.9190 -1.7030
 3993TIP3   OH233537   6.649   4.562   1.927 -0.3126  0.1664  0.2732
 3993TIP3    H133538   6.651   4.649   1.887 -1.1155 -1.1658 -2.9383
 3993TIP3    H233539   6.594   4.572   2.005  0.6210  2.7426  0.6796
 3994TIP3   OH233540   1.268   5.266   3.276  0.3331  0.6394  0.4505
 3994TIP3    H133541   1.253   5.349   3.231  0.2131  0.2600 -0.2214
 3994TIP3    H233542   1.339   5.284   3.337 -0.2170  1.4417  0.8779
 3995TIP3   OH233543   4.990   2.849   3.071 -0.1601 -0.6822 -0.1415
 3995TIP3    H133544   4.956   2.832   2.984  1.9020 -0.9042 -0.9477
 3995TIP3    H233545   5.029   2.766   3.099  2.3936  0.2789 -0.5725
 3996TIP3   OH233546   4.407   5.714   2.294 -0.2135  0.7465 -0.0079
 3996TIP3    H133547   4.492   5.685   2.263  0.6401  2.8234  0.2230
 3996TIP3    H233548   4.351   5.714   2.216  0.5762  1.3208 -0.5873
 3997TIP3   OH233549   4.113   0.002   3.617 -0.3971 -0.3931  0.1773
 3997TIP3    H133550   4.101  -0.056   3.693  0.7629 -0.7805  0.0753
 3997TIP3    H233551   4.119  -0.057   3.542 -1.3123 -0.0213 -0.2080
 3998TIP3   OH233552   5.432   6.455   1.307 -0.8158 -0.4393  0.0727
 3998TIP3    H133553   5.366   6.448   1.238 -1.8243  0.4455  0.9232
 3998TIP3    H233554   5.405   6.391   1.373 -0.0637 -1.0145 -0.1567
 3999TIP3   OH233555   6.139   5.547   0.006  0.1445  0.7502  0.2200
 3999TIP3    H133556   6.208   5.607  -0.019  0.7804  0.4142  1.1172
 3999TIP3    H233557   6.062   5.602   0.019  0.3930  1.1982 -0.1940
 4000TIP3   OH233558   3.072   4.453   0.274  0.2374  0.1831  0.0544
 4000TIP3    H133559   3.160   4.468   0.308  0.3536  0.9887 -0.5578
 4000TIP3    H233560   3.036   4.385   0.330  1.3811 -0.4284  0.0851
 4001TIP3   OH233561   0.215   6.234   1.097 -0.1520 -0.2234 -0.2133
 4001TIP3    H133562   0.148   6.167   1.084 -0.0932 -0.3395  0.0977
 4001TIP3    H233563   0.281   6.193   1.152 -0.0163  0.0236 -0.1893
 4002TIP3   OH233564   0.243   2.760   3.757  0.5613 -0.6287 -0.0386
 4002TIP3    H133565   0.222   2.791   3.669 -3.3690 -1.2460  0.5013
 4002TIP3    H233566   0.242   2.665   3.750 -2.4045 -0.7833  1.0019
 4003TIP3   OH233567   6.519   1.396   2.884  0.2065 -0.1717 -0.1692
 4003TIP3    H133568   6.483   1.359   2.803 -0.7048  3.1898 -1.4530
 4003TIP3    H233569   6.445   1.395   2.945  0.3714 -1.0056  0.0264
 4004TIP3   OH233570   3.068   2.791   7.915 -0.5898  0.1723 -0.2229
 4004TIP3    H133571   3.098   2.716   7.966  1.7633 -0.2706 -2.1333
 4004TIP3    H233572   3.086   2.866   7.971  0.1825 -0.4434  0.3818
 4005TIP3   OH233573   1.334   6.210   0.713  0.3506  0.6342 -0.2574
 4005TIP3    H133574   1.366   6.179   0.798  1.4429  2.1071 -0.0935
 4005TIP3    H233575   1.288   6.135   0.676 -0.5222  0.0777  1.8007
 4006TIP3   OH233576   2.673   1.179   1.855  0.4628  0.1478  0.1829
 4006TIP3    H133577   2.613   1.113   1.890 -0.8191  1.3549  0.3614
 4006TIP3    H233578   2.689   1.152   1.765 -0.0696 -0.3861  0.2452
 4007TIP3   OH233579   3.003   2.040   0.511 -0.5633  0.7096 -0.2104
 4007TIP3    H133580   2.989   2.113   0.451 -3.0864 -0.4128 -1.1230
 4007TIP3    H233581   3.059   1.979   0.464 -2.4343 -0.1101 -1.5017
 4008TIP3   OH233582   4.047   3.669   1.533  0.5601 -0.5850  0.4416
 4008TIP3    H133583   4.075   3.637   1.619 -0.3692 -0.5811  0.7561
 4008TIP3    H233584   4.066   3.596   1.473  2.1354 -0.2203  0.4541
 4009TIP3   OH233585   0.310   0.094   2.555 -0.1428  0.3594 -0.1467
 4009TIP3    H133586   0.240   0.085   2.490 -0.5388  0.6824  0.2340
 4009TIP3    H233587   0.380   0.141   2.509 -0.5434  0.8639 -0.2479
 4010TIP3   OH233588   4.945   2.443   2.059  0.2898  0.5840  0.3120
 4010TIP3    H133589   5.003   2.438   2.136  0.8497 -2.2390 -0.1875
 4010TIP3    H233590   4.868   2.392   2.084  0.6375 -0.6990 -1.0617
 4011TIP3   OH233591   2.236   1.352   2.921  0.0283 -0.2318 -0.4293
 4011TIP3    H133592   2.249   1.352   3.015 -0.0914  1.9749 -0.3650
 4011TIP3    H233593   2.149   1.313   2.908 -0.6267  0.8792  0.5119
 4012TIP3   OH233594   1.472   2.382   4.001  0.3397 -0.0030 -0.3357
 4012TIP3    H133595   1.501   2.400   4.091 -1.5168  1.4013  0.0289
 4012TIP3    H233596   1.554   2.372   3.952  1.4120  0.2286  1.3010
 4013TIP3   OH233597   6.579   4.498   2.725  0.1041  0.5429  0.1852
 4013TIP3    H133598   6.653   4.547   2.690  2.3212 -1.0482  2.2973
 4013TIP3    H233599   6.581   4.514   2.820 -1.0691 -1.0312  0.5427
 4014TIP3   OH233600   5.322   2.552   8.099 -0.1036 -0.4998 -0.1477
 4014TIP3    H133601   5.352   2.640   8.076  0.6768 -0.7641 -0.1625
 4014TIP3    H233602   5.227   2.557   8.089  0.0011  0.0803 -1.0657
 4015TIP3   OH233603   4.973   3.685   8.749 -0.3890 -0.1952  0.1451
 4015TIP3    H133604   4.990   3.620   8.681 -1.4523 -0.1378 -0.2063
 4015TIP3    H233605   4.878   3.700   8.743 -0.3303  0.5509  0.9749
 4016TIP3   OH233606   6.810   1.464   0.515  0.3950 -0.2491  0.2210
 4016TIP3    H133607   6.783   1.400   0.582  3.2016 -0.3280  1.4028
 4016TIP3    H233608   6.845   1.538   0.565  1.5321  0.1933 -1.1706
 4017TIP3   OH233609   3.277   3.268   4.051  0.0688 -0.0209  0.2612
 4017TIP3    H133610   3.354   3.324   4.048  0.2526 -0.2141  1.1544
 4017TIP3    H233611   3.203   3.329   4.058  0.2399  0.1331  0.7938
 4018TIP3   OH233612   6.565   1.621   8.568  0.0707  0.1981  0.2821
 4018TIP3    H133613   6.485   1.670   8.585 -0.4391 -0.1970 -0.9077
 4018TIP3    H233614   6.536   1.530   8.558  0.6410  0.0641 -0.2519
 4019TIP3   OH233615   0.040   1.934   1.734 -0.6258 -0.0379 -0.0140
 4019TIP3    H133616  -0.040   1.931   1.683 -0.6362  1.6112 -0.1605
 4019TIP3    H233617   0.012   1.921   1.825 -1.2223  1.4414  0.0450
 4020TIP3   OH233618   6.708   1.501   1.218  0.2654 -0.4989  0.1939
 4020TIP3    H133619   6.733   1.530   1.306  0.1438 -0.6879  0.2904
 4020TIP3    H233620   6.787   1.458   1.184  1.2466  1.9445 -0.8416
 4021TIP3   OH233621   2.186   4.546   0.119 -0.3041 -0.3085 -0.3978
 4021TIP3    H133622   2.165   4.611   0.052  1.2153 -0.2838 -0.8985
 4021TIP3    H233623   2.178   4.461   0.074 -0.1483 -0.3407 -0.3662
 4022TIP3   OH233624   3.363   4.993   3.607 -0.1731  0.1618 -0.2388
 4022TIP3    H133625   3.454   5.005   3.580 -0.5191 -2.4026 -2.9722
 4022TIP3    H233626   3.358   4.901   3.634 -1.6852  0.6501  1.3534
 4023TIP3   OH233627   6.614   3.076   0.983 -0.0051 -0.4086 -0.3218
 4023TIP3    H133628   6.704   3.050   0.964  0.2567 -0.1860  0.6037
 4023TIP3    H233629   6.591   3.027   1.062 -0.6705 -0.3951 -0.5001
 4024TIP3   OH233630   1.137   2.968   2.206  0.2822 -0.4927  0.6713
 4024TIP3    H133631   1.148   3.024   2.129 -0.1658 -0.6431  0.4967
 4024TIP3    H233632   1.139   2.879   2.171 -0.9136 -0.5425  0.7013
 4025TIP3   OH233633   3.987   6.480   0.089  0.5448  0.4367  0.2314
 4025TIP3    H133634   3.898   6.494   0.122  0.5375  0.0956  0.3684
 4025TIP3    H233635   4.014   6.398   0.131 -0.1139 -0.9843 -1.9713
 4026TIP3   OH233636   2.063   3.325   2.039 -0.1649  0.6446 -0.1356
 4026TIP3    H133637   2.157   3.322   2.022  0.1227  0.6371  1.3213
 4026TIP3    H233638   2.056   3.334   2.134 -1.6400  0.2649 -0.1799
 4027TIP3   OH233639   4.570   3.351   0.601 -0.3507 -0.3078 -0.3674
 4027TIP3    H133640   4.481   3.357   0.637 -0.1103  0.1603  0.1588
 4027TIP3    H233641   4.571   3.413   0.528  0.0525  1.0015  0.7166
 4028TIP3   OH233642   4.587   3.139   8.729  0.0003 -0.3689 -0.1672
 4028TIP3    H133643   4.623   3.139   8.818  0.2266  1.0668 -0.2313
 4028TIP3    H233644   4.585   3.046   8.704 -0.5961 -0.8563  1.5291
 4029TIP3   OH233645   4.134   6.438   2.233  0.1459 -0.3372 -0.1817
 4029TIP3    H133646   4.229   6.452   2.234  0.0063  0.7764 -1.0535
 4029TIP3    H233647   4.123   6.350   2.196  0.8491 -0.6374  0.3144
 4030TIP3   OH233648   6.462   5.794   0.603 -0.0270 -0.4078  0.0072
 4030TIP3    H133649   6.468   5.800   0.508  1.0854  1.0513  0.1391
 4030TIP3    H233650   6.525   5.858   0.636 -2.3267  1.1399  1.7227
 4031TIP3   OH233651   1.608   4.048   1.172  0.6012 -0.3969 -0.2297
 4031TIP3    H133652   1.518   4.057   1.141  0.1916 -0.5251  0.8831
 4031TIP3    H233653   1.655   4.005   1.100 -0.4979 -1.4296 -0.3364
 4032TIP3   OH233654   4.500   2.985   1.987 -0.5559  0.3635  0.3595
 4032TIP3    H133655   4.512   2.949   1.899  2.3597 -0.7976  1.1226
 4032TIP3    H233656   4.449   2.919   2.033  2.0780 -1.4832  0.8432
 4033TIP3   OH233657   6.301   0.259   2.596 -0.5238  0.2582  0.6313
 4033TIP3    H133658   6.334   0.344   2.567 -0.7799 -0.3967 -1.8638
 4033TIP3    H233659   6.211   0.275   2.622 -1.2887  0.5011 -1.8592
 4034TIP3   OH233660   2.009   3.292   8.327  0.2673 -0.2350 -0.0230
 4034TIP3    H133661   2.004   3.291   8.232  1.9162 -0.7623 -0.1320
 4034TIP3    H233662   2.084   3.235   8.348  0.1337  0.1225  1.5692
 4035TIP3   OH233663   0.193   5.770   2.488  0.0059 -0.9549 -0.2593
 4035TIP3    H133664   0.249   5.843   2.460 -0.8145 -0.4920 -0.7283
 4035TIP3    H233665   0.174   5.789   2.580 -1.2119  0.1042 -0.7069
 4036TIP3   OH233666   1.966   2.073   4.119  0.2386  0.0484 -0.1102
 4036TIP3    H133667   1.915   2.111   4.191  0.5912 -1.0684  0.7763
 4036TIP3    H233668   2.051   2.116   4.124  0.2665 -0.0356  0.1626
 4037TIP3   OH233669   2.944   5.334   1.600  0.6084  0.3341 -0.4219
 4037TIP3    H133670   2.951   5.309   1.508 -0.4466  3.9282 -1.6489
 4037TIP3    H233671   3.003   5.274   1.646  0.9385 -1.7851 -3.3671
 4038TIP3   OH233672   4.610   4.146   3.350  0.6680  0.3450  0.1889
 4038TIP3    H133673   4.645   4.220   3.300 -0.0967  0.0794 -0.7750
 4038TIP3    H233674   4.624   4.071   3.292 -0.4938  0.0719  0.2565
 4039TIP3   OH233675   0.870   3.850   3.479 -0.5859  0.2039 -0.1131
 4039TIP3    H133676   0.942   3.880   3.534 -0.6477 -0.2702  0.2401
 4039TIP3    H233677   0.811   3.924   3.474 -1.6730 -0.3705  2.2950
 4040TIP3   OH233678   0.329   2.531   2.334 -0.0062 -0.5136 -0.4370
 4040TIP3    H133679   0.264   2.492   2.276 -1.3292 -0.1980  0.7902
 4040TIP3    H233680   0.399   2.466   2.338 -0.4203 -1.0538 -1.4365
 4041TIP3   OH233681   6.380   0.042   8.573  0.6797 -0.5501  0.0612
 4041TIP3    H133682   6.427   0.125   8.575 -0.9465  0.4635 -1.5156
 4041TIP3    H233683   6.290   0.065   8.549 -0.2706 -2.5920  1.3569
 4042TIP3   OH233684   2.492   5.361   3.302 -0.0487 -0.3143  0.0519
 4042TIP3    H133685   2.469   5.273   3.270 -0.4910 -0.9654  2.0045
 4042TIP3    H233686   2.518   5.347   3.394 -0.2681  1.6185  0.4479
 4043TIP3   OH233687   1.738   3.416   1.325 -0.7263 -0.2342 -0.1771
 4043TIP3    H133688   1.760   3.325   1.309 -0.9725 -0.7041  1.8836
 4043TIP3    H233689   1.815   3.465   1.294 -0.1882 -1.2143 -0.4313
 4044TIP3   OH233690   0.477   2.182   1.676 -0.0427 -0.3777 -0.7473
 4044TIP3    H133691   0.429   2.122   1.733 -0.2760  1.9664  1.7086
 4044TIP3    H233692   0.428   2.264   1.680  2.1462  1.0409 -1.1185
 4045TIP3   OH233693   3.670   2.718   1.190 -0.3292 -0.2697  0.7308
 4045TIP3    H133694   3.671   2.753   1.279 -0.1566  0.3687  0.4837
 4045TIP3    H233695   3.762   2.715   1.164 -0.4855  1.8922 -0.3070
 4046TIP3   OH233696   2.040   0.851   3.945  0.2368  0.4250 -0.6372
 4046TIP3    H133697   2.088   0.794   4.006  0.4222 -0.0623 -1.2329
 4046TIP3    H233698   2.032   0.799   3.865 -3.3953 -0.4758  0.1519
 4047TIP3   OH233699   2.808   4.909   8.172  0.6490 -0.4006 -0.4564
 4047TIP3    H133700   2.750   4.854   8.121  1.0656  0.7955 -2.3378
 4047TIP3    H233701   2.860   4.848   8.225  0.4689 -1.7486 -1.7643
 4048TIP3   OH233702   4.374   2.685   0.458 -0.2658 -0.0325  1.0971
 4048TIP3    H133703   4.422   2.608   0.488  0.5506  0.3784  0.8830
 4048TIP3    H233704   4.438   2.735   0.407 -1.5851 -0.7397 -1.4452
 4049TIP3   OH233705   3.012   4.884   2.309 -0.1883 -0.1210  0.6535
 4049TIP3    H133706   3.066   4.884   2.388  0.4076 -1.0080  0.2651
 4049TIP3    H233707   2.993   4.976   2.293  2.0387  0.3273  0.2493
 4050TIP3   OH233708   3.043   6.010   1.610 -0.0580  0.1651 -0.5006
 4050TIP3    H133709   3.135   5.997   1.632 -0.2781  0.5382  0.6709
 4050TIP3    H233710   3.040   6.095   1.567  0.0197  0.5502  0.2516
 4051TIP3   OH233711   5.609   5.811   1.421  0.5771  0.2347  0.5858
 4051TIP3    H133712   5.580   5.795   1.511 -1.5468 -1.0342 -0.2571
 4051TIP3    H233713   5.636   5.725   1.388 -1.9604 -0.0543 -1.0164
 4052TIP3   OH233714   3.521   0.024   1.768  0.1256  0.6262 -0.0424
 4052TIP3    H133715   3.580   0.085   1.812  0.7374 -0.9387  1.4260
 4052TIP3    H233716   3.433   0.053   1.795  0.4598  0.1799  1.6713
 4053TIP3   OH233717   3.274   2.921   2.230  0.1230 -0.2911  0.0541
 4053TIP3    H133718   3.297   2.892   2.142 -0.1928  0.9686 -0.4717
 4053TIP3    H233719   3.183   2.951   2.223  0.0028 -0.4139  0.8742
 4054TIP3   OH233720   3.872   5.360   0.664  0.0068  0.7173 -0.6258
 4054TIP3    H133721   3.954   5.350   0.617  0.0133 -0.6584 -0.3663
 4054TIP3    H233722   3.895   5.402   0.746  0.7618 -1.2447  0.2214
 4055TIP3   OH233723   5.662   3.589   2.499 -0.5713 -0.3032 -0.2950
 4055TIP3    H133724   5.734   3.628   2.449 -0.7380 -0.0806 -0.3632
 4055TIP3    H233725   5.697   3.577   2.587  0.1495 -1.8951 -0.7830
 4056TIP3   OH233726   6.645   1.948   1.560 -0.0119  0.2423 -0.2542
 4056TIP3    H133727   6.588   1.872   1.569 -1.0558  1.1535  1.5579
 4056TIP3    H233728   6.586   2.021   1.543  0.8089  0.9005 -0.3770
 4057TIP3   OH233729   6.084   6.357   8.441 -0.2217 -0.1370  0.2397
 4057TIP3    H133730   6.078   6.292   8.511  1.1152  0.1302  0.6128
 4057TIP3    H233731   6.153   6.325   8.384  0.4053  0.9062  0.3863
 4058TIP3   OH233732   0.008   3.631   2.084  0.2592 -0.6554 -0.6738
 4058TIP3    H133733  -0.036   3.715   2.091  1.1407 -0.2318 -0.1276
 4058TIP3    H233734   0.036   3.626   1.992  0.2601 -0.3360 -0.6916
 4059TIP3   OH233735   6.728   3.069   1.794  0.3455 -0.3068  0.2288
 4059TIP3    H133736   6.659   3.023   1.841 -0.1216  0.4257  0.2747
 4059TIP3    H233737   6.721   3.160   1.823  0.6304 -0.0154 -0.5795
 4060TIP3   OH233738   0.223   3.355   3.533 -0.6344 -0.3211 -0.1191
 4060TIP3    H133739   0.217   3.297   3.608 -1.0082  0.9507  0.8638
 4060TIP3    H233740   0.146   3.335   3.480  0.3559 -2.2190 -0.9557
 4061TIP3   OH233741   4.208   5.550   0.562 -0.1180  0.4242 -0.4661
 4061TIP3    H133742   4.140   5.605   0.600  0.2168  0.0972  0.6364
 4061TIP3    H233743   4.161   5.481   0.515 -0.9025 -3.0213  4.5673
 4062TIP3   OH233744   0.828   2.518   2.978  0.2089  0.0376  0.0544
 4062TIP3    H133745   0.837   2.422   2.975 -1.2204 -0.1304  0.4318
 4062TIP3    H233746   0.909   2.548   3.021 -0.3253 -1.2095  2.0659
 4063TIP3   OH233747   1.107   4.061   3.304 -0.7016  0.5022  0.4706
 4063TIP3    H133748   1.051   4.032   3.232 -1.7271  0.7015  1.1764
 4063TIP3    H233749   1.057   4.129   3.348 -0.7094 -0.5611  2.2092
 4064TIP3   OH233750   6.525   5.988   2.281  0.5297 -0.2495 -0.5622
 4064TIP3    H133751   6.482   6.048   2.342  0.0734  0.1259 -1.2427
 4064TIP3    H233752   6.453   5.945   2.235  0.8763  0.5185 -1.8508
 4065TIP3   OH233753   6.480   1.479   2.034 -0.5375 -0.0146  0.2954
 4065TIP3    H133754   6.575   1.481   2.043 -0.3503  2.8381 -1.1458
 4065TIP3    H233755   6.448   1.457   2.121  1.4160 -0.7935  0.8716
 4066TIP3   OH233756   6.723   3.994   0.669 -0.2864 -1.4101  0.4788
 4066TIP3    H133757   6.812   3.960   0.679 -0.0460 -0.5306  1.3947
 4066TIP3    H233758   6.670   3.916   0.653  0.7862 -1.8530 -1.2113
 4067TIP3   OH233759   4.748   5.808   0.029 -0.6082  0.1172  0.1435
 4067TIP3    H133760   4.798   5.874  -0.020  0.6931  0.3261  1.6373
 4067TIP3    H233761   4.816   5.754   0.070 -1.6503 -0.6682  0.8621
 4068TIP3   OH233762   6.209   4.651   1.959 -0.0323 -0.4760 -0.2688
 4068TIP3    H133763   6.228   4.567   2.000 -0.7576 -1.5444 -2.0319
 4068TIP3    H233764   6.133   4.635   1.905  0.4942  1.0337 -1.5405
 4069TIP3   OH233765   6.481   0.743   1.476 -0.0641 -0.4062 -0.1793
 4069TIP3    H133766   6.408   0.735   1.537 -0.3307 -1.2557 -0.5906
 4069TIP3    H233767   6.510   0.834   1.485 -0.5526 -0.3256  0.6826
 4070TIP3   OH233768   3.063   3.033   4.009 -0.2085  0.1915 -0.0829
 4070TIP3    H133769   2.969   3.052   4.014 -0.1304  1.0474 -1.2985
 4070TIP3    H233770   3.098   3.062   4.093 -0.8559  0.9805 -0.0721
 4071TIP3   OH233771   0.100   5.418   3.264 -0.3483  0.4445  0.5408
 4071TIP3    H133772   0.100   5.337   3.314  0.9461 -0.0224 -0.1648
 4071TIP3    H233773   0.160   5.476   3.311 -0.4268  0.5996  0.4536
 4072TIP3   OH233774   6.608   1.106   8.445  0.3372  0.0185 -0.0262
 4072TIP3    H133775   6.673   1.169   8.412  0.7698 -0.3473  0.1095
 4072TIP3    H233776   6.525   1.133   8.406  0.8529 -0.5040 -1.5518
 4073TIP3   OH233777   4.657   0.323   3.452 -0.0572 -0.1917 -0.1494
 4073TIP3    H133778   4.731   0.371   3.490 -0.1445  0.7777 -1.1427
 4073TIP3    H233779   4.644   0.364   3.367 -1.4871 -0.6136 -0.1555
 4074TIP3   OH233780   6.067   0.783   1.490  0.1855 -0.3383  0.0550
 4074TIP3    H133781   6.110   0.707   1.528  0.2091  0.1546  1.0290
 4074TIP3    H233782   5.993   0.800   1.547 -0.3133 -0.1323 -0.6359
 4075TIP3   OH233783   0.861   3.151   2.049  0.2162 -0.0052 -0.0891
 4075TIP3    H133784   0.919   3.089   2.005  1.7928  2.5913 -1.9112
 4075TIP3    H233785   0.919   3.201   2.107 -0.7564  0.6109  0.3751
 4076TIP3   OH233786   1.881   2.476   2.973  0.1506  0.2017  0.3264
 4076TIP3    H133787   1.855   2.566   2.953 -0.0327  0.3556  1.2235
 4076TIP3    H233788   1.850   2.425   2.898 -1.8998  0.5166  0.9060
 4077TIP3   OH233789   4.199   2.469   1.730  0.1573  0.1643 -0.2195
 4077TIP3    H133790   4.180   2.406   1.661  1.3829  2.2604 -2.6495
 4077TIP3    H233791   4.121   2.524   1.735 -0.4674 -0.7885  1.1040
 4078TIP3   OH233792   4.659   1.620   0.976 -0.6135  0.1656  0.4242
 4078TIP3    H133793   4.718   1.553   1.010 -0.8414 -0.8884 -1.1991
 4078TIP3    H233794   4.716   1.677   0.924 -1.1253 -1.6252 -2.2844
 4079TIP3   OH233795   3.513   6.796   3.676 -0.2357 -0.8074  0.0179
 4079TIP3    H133796   3.571   6.841   3.615 -1.4658  1.5707  0.4698
 4079TIP3    H233797   3.426   6.828   3.653 -0.8679 -0.8825  2.1441
 4080TIP3   OH233798   5.736   5.862   3.642  0.0444 -0.0832  0.4864
 4080TIP3    H133799   5.725   5.823   3.729 -0.0737  0.9661  0.9578
 4080TIP3    H233800   5.808   5.814   3.603 -0.1262 -0.8004  1.0280
 4081TIP3   OH233801   4.499   0.550   0.716 -0.0434 -0.8852 -0.0632
 4081TIP3    H133802   4.513   0.465   0.674 -2.5934 -1.1171 -0.6179
 4081TIP3    H233803   4.479   0.529   0.807 -3.6446 -1.3138 -0.7799
 4082TIP3   OH233804   3.193   2.176   2.603 -0.0972 -0.3658 -0.3215
 4082TIP3    H133805   3.098   2.170   2.614 -0.3703  1.1072 -1.5799
 4082TIP3    H233806   3.225   2.214   2.685 -0.3396 -2.4475  0.8061
 4083TIP3   OH233807   3.133   4.585   2.221  0.0716 -0.4189 -0.0210
 4083TIP3    H133808   3.224   4.616   2.211  0.8880 -2.4618  0.6810
 4083TIP3    H233809   3.081   4.652   2.177  2.0278  0.0766 -1.7496
 4084TIP3   OH233810   0.423   3.028   2.601 -0.0140  0.2168 -0.6328
 4084TIP3    H133811   0.510   3.019   2.639 -0.6049 -2.8834  0.2885
 4084TIP3    H233812   0.412   2.949   2.548 -2.5966  0.0312  0.0514
 4085TIP3   OH233813   0.452   5.889   3.863  0.0104  0.5998  0.1562
 4085TIP3    H133814   0.393   5.818   3.838  1.4685 -0.9082  0.8276
 4085TIP3    H233815   0.403   5.969   3.842 -1.6118 -0.5742 -0.7965
 4086TIP3   OH233816   0.282   6.361   3.266  0.1110  0.0646 -0.2495
 4086TIP3    H133817   0.274   6.438   3.209  0.7283  0.4355  0.1620
 4086TIP3    H233818   0.372   6.364   3.298  0.3341 -1.1865 -0.7303
 4087TIP3   OH233819   0.811   4.566   0.619  0.3799 -0.2534  0.3107
 4087TIP3    H133820   0.901   4.570   0.586  0.5020  1.0433  0.7140
 4087TIP3    H233821   0.815   4.503   0.691  0.0798 -3.1853 -2.0745
 4088TIP3   OH233822   0.284   0.963   2.192 -0.0366  0.4240  0.5955
 4088TIP3    H133823   0.242   1.029   2.247  1.2867  2.3677 -0.5804
 4088TIP3    H233824   0.348   0.922   2.250  1.0773  2.1823  0.6959
 4089TIP3   OH233825   6.185   6.103   0.550  0.0260 -0.5147  0.2204
 4089TIP3    H133826   6.280   6.092   0.539 -0.1471 -2.3266  0.2842
 4089TIP3    H233827   6.175   6.191   0.585  1.5083  0.6536 -2.0385
 4090TIP3   OH233828   2.272   6.308   0.581 -0.4261  1.1164 -0.0586
 4090TIP3    H133829   2.209   6.324   0.650 -1.4216 -1.6321 -0.2109
 4090TIP3    H233830   2.229   6.246   0.522  1.9685 -0.0624 -0.7367
 4091TIP3   OH233831   4.159   3.603   8.612 -0.1502 -0.4736 -0.0602
 4091TIP3    H133832   4.252   3.591   8.592  0.0292  0.6018  0.0972
 4091TIP3    H233833   4.157   3.671   8.679 -1.0361 -0.6965  0.1574
 4092TIP3   OH233834   0.004   2.518   1.471  0.1552  0.0446  0.2713
 4092TIP3    H133835   0.080   2.464   1.493 -0.3373  0.0256  2.0648
 4092TIP3    H233836   0.034   2.608   1.483  0.2890  0.1003 -0.4209
 4093TIP3   OH233837   2.682   3.330   2.108  0.4939 -0.0452 -0.4339
 4093TIP3    H133838   2.732   3.265   2.157  0.3949  0.2728  0.1060
 4093TIP3    H233839   2.592   3.300   2.114  0.0330  1.4945  2.1525
 4094TIP3   OH233840   2.414   3.879   3.034  0.1471  0.0173 -0.7828
 4094TIP3    H133841   2.348   3.816   3.005  0.9014 -0.8048 -0.7323
 4094TIP3    H233842   2.387   3.903   3.122 -2.2681  2.6642 -2.0635
 4095TIP3   OH233843   6.243   5.455   2.946 -0.5425 -0.4800 -0.4252
 4095TIP3    H133844   6.280   5.500   2.870  2.9967 -1.4578  0.5105
 4095TIP3    H233845   6.151   5.443   2.924 -0.4571  2.3551 -2.9926
 4096TIP3   OH233846   2.717   1.275   2.563 -0.0971 -0.5816  0.2347
 4096TIP3    H133847   2.642   1.219   2.543  0.7298 -2.2892  1.7078
 4096TIP3    H233848   2.751   1.242   2.646  0.3226  2.2751  1.3204
 4097TIP3   OH233849   2.860   2.303   2.710  0.0844  0.5502  0.4498
 4097TIP3    H133850   2.833   2.266   2.626  1.1844 -0.0060  0.3211
 4097TIP3    H233851   2.778   2.323   2.755 -0.5883 -1.6046  0.3281
 4098TIP3   OH233852   0.443   5.978   2.110 -0.0420 -0.8753  0.2376
 4098TIP3    H133853   0.528   5.960   2.071  0.2267  2.0305 -0.7364
 4098TIP3    H233854   0.461   5.996   2.202  0.3321 -0.6592  0.1212
 4099TIP3   OH233855   0.544   4.487   2.544  0.0520  0.0349 -0.0907
 4099TIP3    H133856   0.460   4.464   2.585  0.2304 -1.8701 -0.7348
 4099TIP3    H233857   0.537   4.456   2.454  1.6927 -0.7550  0.0232
 4100TIP3   OH233858   5.616   1.041   2.208  0.0164 -0.5025 -0.0063
 4100TIP3    H133859   5.700   1.082   2.185  0.1877 -1.6227 -1.5820
 4100TIP3    H233860   5.552   1.112   2.199  0.7186  0.2624  0.7969
 4101TIP3   OH233861   1.671   6.184   1.419 -0.1728 -0.3399 -0.4475
 4101TIP3    H133862   1.706   6.213   1.503 -1.9419  0.9764 -0.1142
 4101TIP3    H233863   1.726   6.110   1.395  2.5963  1.3731  0.1696
 4102TIP3   OH233864   0.756   5.091   3.775 -0.3216  0.4195 -0.1290
 4102TIP3    H133865   0.678   5.102   3.720 -0.3765 -0.5290 -0.2633
 4102TIP3    H233866   0.775   5.178   3.808 -0.0553  1.1115 -1.9719
 4103TIP3   OH233867   0.656   0.189   8.233  0.0430  0.1971  0.5271
 4103TIP3    H133868   0.711   0.257   8.273  1.8302 -1.9797  1.9899
 4103TIP3    H233869   0.589   0.170   8.299 -0.5459  0.5819  0.0604
 4104TIP3   OH233870   3.715   1.195   3.482 -0.1713 -0.0991  0.0676
 4104TIP3    H133871   3.809   1.212   3.482  0.0120 -0.9164 -1.4394
 4104TIP3    H233872   3.702   1.133   3.553  0.5581 -0.5259 -0.1604
 4105TIP3   OH233873   1.684   1.424   2.261 -0.5377  0.1784 -0.4328
 4105TIP3    H133874   1.754   1.359   2.257 -1.2878 -0.6235 -1.1886
 4105TIP3    H233875   1.728   1.506   2.284  0.6713 -0.2756 -1.0181
 4106TIP3   OH233876   0.972   1.472   0.137  0.5037  0.5379  0.0630
 4106TIP3    H133877   0.959   1.565   0.122  0.4664  0.0761 -3.7864
 4106TIP3    H233878   0.908   1.429   0.080  1.6719 -1.8121  0.3984
 4107TIP3   OH233879   0.359   0.566   1.742 -0.4959 -0.1485 -0.0556
 4107TIP3    H133880   0.382   0.485   1.697 -0.2096 -0.5123  0.7155
 4107TIP3    H233881   0.292   0.539   1.805  1.2978 -0.3005  1.8918
 4108TIP3   OH233882   3.083   1.567   2.861 -0.1561 -0.3555 -0.2693
 4108TIP3    H133883   3.005   1.514   2.879 -0.4370  0.0065 -0.4205
 4108TIP3    H233884   3.156   1.510   2.886 -0.4495 -0.8497 -0.5121
 4109TIP3   OH233885   6.557   4.869   2.274  0.1738 -0.0151  0.0054
 4109TIP3    H133886   6.519   4.810   2.339 -2.3814  1.5763  0.0882
 4109TIP3    H233887   6.543   4.825   2.190  2.4324 -1.5268  0.3043
 4110TIP3   OH233888   5.450   5.991   3.359 -0.0187  0.1289  0.1930
 4110TIP3    H133889   5.495   5.908   3.346 -0.8230 -0.4114  0.7734
 4110TIP3    H233890   5.360   5.974   3.331 -0.0085  1.0377 -0.4518
 4111TIP3   OH233891   1.859   1.077   3.140  0.4344  0.0987 -1.0704
 4111TIP3    H133892   1.926   1.140   3.168  3.1159 -3.4195  1.3014
 4111TIP3    H233893   1.797   1.074   3.214  0.8112 -0.6182 -0.7743
 4112TIP3   OH233894   0.678   1.459   1.553  0.0250 -0.1751 -0.6717
 4112TIP3    H133895   0.695   1.370   1.525 -0.5965 -1.6405  2.9760
 4112TIP3    H233896   0.732   1.470   1.632 -4.8259 -0.0369  3.1049
 4113TIP3   OH233897   6.713   2.204   2.880 -0.2882  0.3228 -0.1266
 4113TIP3    H133898   6.728   2.216   2.974 -1.8572  0.5258  0.1277
 4113TIP3    H233899   6.796   2.171   2.847  0.2089 -0.0348  1.3805
 4114TIP3   OH233900   0.736   2.597   2.377  0.4813 -0.5303 -0.2590
 4114TIP3    H133901   0.726   2.692   2.386 -0.8319 -0.8690  2.8272
 4114TIP3    H233902   0.826   2.586   2.346  1.7223  1.6607  2.1866
 4115TIP3   OH233903   5.981   5.383   2.858  0.0865 -0.7343 -0.0266
 4115TIP3    H133904   5.947   5.463   2.898  1.8606 -0.9434  2.0819
 4115TIP3    H233905   5.903   5.334   2.832 -1.1351  2.6248 -3.7494
 4116TIP3   OH233906   2.137   2.014   3.042 -0.2633  0.4402 -0.6344
 4116TIP3    H133907   2.148   2.000   3.136  0.0590 -0.4067 -0.7887
 4116TIP3    H233908   2.142   2.109   3.031  1.1339  0.4682  0.0268
 4117TIP3   OH233909   4.175   6.662   3.836  1.2343  0.5461 -0.4195
 4117TIP3    H133910   4.266   6.688   3.822  1.6605  0.0551  1.1865
 4117TIP3    H233911   4.165   6.661   3.931 -0.9431  2.1958 -0.5432
 4118TIP3   OH233912   1.402   5.928   3.466  0.1398  0.2248 -0.2023
 4118TIP3    H133913   1.415   5.903   3.375 -1.8524 -0.4833 -0.3266
 4118TIP3    H233914   1.395   5.845   3.513  1.5244  0.5732  0.7051
 4119TIP3   OH233915   1.557   3.635   0.973 -0.0622  0.1186  0.1589
 4119TIP3    H133916   1.599   3.604   1.054 -0.0163  1.4532  0.6747
 4119TIP3    H233917   1.629   3.673   0.922  0.1542 -1.9272 -1.1636
 4120TIP3   OH233918   1.224   0.016   8.506  0.4326  0.4198  0.3322
 4120TIP3    H133919   1.168  -0.014   8.434  0.7641  1.8929 -0.5647
 4120TIP3    H233920   1.259  -0.065   8.544  0.2717 -0.3812 -1.1688
 4121TIP3   OH233921   0.229   6.089   3.876 -0.5707 -0.2333 -0.0703
 4121TIP3    H133922   0.223   6.008   3.927 -1.5352 -0.7165 -0.9092
 4121TIP3    H233923   0.173   6.151   3.924 -0.0112 -0.1130  0.4472
 4122TIP3   OH233924   0.568   4.554   3.029  0.3562  0.0916 -0.1330
 4122TIP3    H133925   0.659   4.572   3.005  0.2353 -0.0303 -0.6963
 4122TIP3    H233926   0.566   4.460   3.046  0.3899  0.1378  0.1305
 4123TIP3   OH233927   3.046   1.043   0.459 -0.3706  0.2725 -0.1093
 4123TIP3    H133928   3.049   1.055   0.554 -0.7413 -0.0288 -0.0583
 4123TIP3    H233929   2.965   1.085   0.432  0.8939  2.5721 -0.6301
 4124TIP3   OH233930   1.143   4.522   0.097  0.1220  0.1843  0.4099
 4124TIP3    H133931   1.188   4.591   0.146 -0.7578  0.4191  0.9247
 4124TIP3    H233932   1.172   4.440   0.137  0.0732  0.3322  0.7483
 4125TIP3   OH233933   5.510   6.040   1.225  0.4066  0.2183 -0.3703
 4125TIP3    H133934   5.464   6.093   1.290  1.6880 -0.0757  0.8251
 4125TIP3    H233935   5.510   5.952   1.261 -1.4850 -0.6430 -2.2209
 4126TIP3   OH233936   0.278   0.484   1.030 -0.2185 -0.3084  0.4265
 4126TIP3    H133937   0.367   0.456   1.009 -0.4469  0.0937 -1.1428
 4126TIP3    H233938   0.290   0.564   1.082  0.3452 -1.1930  1.7181
 4127TIP3   OH233939   2.825   3.515   3.002 -0.0090  0.5915 -0.2638
 4127TIP3    H133940   2.761   3.568   2.953 -1.0770  0.1056  0.5848
 4127TIP3    H233941   2.795   3.518   3.092  0.3592 -0.8173 -0.0713
 4128TIP3   OH233942   2.312   4.587   3.251 -0.1975  1.2261 -0.0609
 4128TIP3    H133943   2.221   4.558   3.264 -0.0190  0.9078  0.5060
 4128TIP3    H233944   2.305   4.657   3.186 -0.8893  1.4447  0.2357
 4129TIP3   OH233945   2.817   0.840   2.236  0.5840 -0.3043  0.1118
 4129TIP3    H133946   2.826   0.936   2.230  0.5103 -0.2711  0.5046
 4129TIP3    H233947   2.766   0.826   2.316  1.3401 -0.7080  0.5335
 4130TIP3   OH233948   1.332   4.312   3.367  0.3596 -0.7207  0.6311
 4130TIP3    H133949   1.258   4.341   3.312  1.8752  0.2473 -1.0122
 4130TIP3    H233950   1.294   4.300   3.454 -1.5341  0.7731  0.0844
 4131TIP3   OH233951   1.147   5.710   2.916  0.1665  0.5063  0.3954
 4131TIP3    H133952   1.152   5.712   2.820 -1.1722  1.3226  0.3109
 4131TIP3    H233953   1.089   5.636   2.936  1.2987 -0.3460  0.6566
 4132TIP3   OH233954   0.650   3.082   8.416  0.1616  0.3633  0.0872
 4132TIP3    H133955   0.712   3.130   8.362  1.3092  0.7660  1.6777
 4132TIP3    H233956   0.568   3.130   8.408  0.3657  0.5509 -1.0585
 4133TIP3   OH233957   4.253   1.005   1.988  0.0864  0.3412 -0.3768
 4133TIP3    H133958   4.280   0.957   1.910  1.8311  0.6744 -0.0090
 4133TIP3    H233959   4.184   0.951   2.027 -0.3458 -0.1510 -1.7737
 4134TIP3   OH233960   5.589   5.729   1.133 -0.4197 -0.3003  0.1100
 4134TIP3    H133961   5.615   5.768   1.050  0.0986  0.6592  0.7112
 4134TIP3    H233962   5.668   5.685   1.165  0.0709  1.2776  1.1760
 4135TIP3   OH233963   3.299   0.229   2.938 -0.4220  0.2238  0.1146
 4135TIP3    H133964   3.323   0.277   2.860  2.6427 -0.3256  0.5652
 4135TIP3    H233965   3.286   0.296   3.005 -0.1692  0.5744 -0.1855
 4136TIP3   OH233966   2.089   0.314   2.784 -0.2724  0.3857  1.1437
 4136TIP3    H133967   2.079   0.270   2.869  0.2729 -0.7025  0.6760
 4136TIP3    H233968   2.182   0.336   2.779  0.1161 -1.2767  0.0683
 4137TIP3   OH233969   2.129   5.842   1.807 -0.2409  0.2828 -0.1382
 4137TIP3    H133970   2.204   5.801   1.764  0.1125  0.5337  0.2304
 4137TIP3    H233971   2.157   5.852   1.898 -1.3429 -1.1693  0.4058
 4138TIP3   OH233972   1.831   2.556   2.663  0.7582 -0.3014  0.5737
 4138TIP3    H133973   1.852   2.467   2.637  1.1099  0.0915 -0.5652
 4138TIP3    H233974   1.889   2.611   2.610  0.2861  0.6135  0.9785
 4139TIP3   OH233975   6.007   0.450   0.727 -0.4683  0.2533 -0.4145
 4139TIP3    H133976   5.982   0.533   0.685 -2.4056 -0.6789 -1.2607
 4139TIP3    H233977   5.978   0.460   0.817 -1.4358  0.2339 -0.7084
 4140TIP3   OH233978   3.008   2.260   3.054  0.6931 -0.5576  0.4087
 4140TIP3    H133979   2.948   2.300   2.991  1.6072  0.3339  0.0811
 4140TIP3    H233980   2.953   2.243   3.131  0.0373  0.3776  0.1746
 4141TIP3   OH233981   0.877   6.008   2.829  0.6516  0.1606 -0.2322
 4141TIP3    H133982   0.804   5.947   2.833  0.7802 -0.0242 -0.6494
 4141TIP3    H233983   0.923   5.986   2.748  1.3195  0.1002  0.1555
 4142TIP3   OH233984   1.520   2.888   2.252 -0.3001 -0.7748  0.3079
 4142TIP3    H133985   1.570   2.818   2.294  0.4306 -0.6686 -0.3689
 4142TIP3    H233986   1.532   2.964   2.311  1.1566 -0.4790 -0.3198
 4143TIP3   OH233987   3.981   3.898   3.790 -0.1329  0.0372 -0.1936
 4143TIP3    H133988   4.043   3.967   3.764 -0.0019  0.0795  0.2246
 4143TIP3    H233989   4.008   3.822   3.738 -0.0119  0.1821 -0.3460
 4144TIP3   OH233990   5.505   2.416   0.935  0.3592  0.0235  0.2200
 4144TIP3    H133991   5.433   2.362   0.903  0.0165 -1.7332  3.5028
 4144TIP3    H233992   5.465   2.476   0.997  1.4197  0.7917  0.1988
 4145TIP3   OH233993   3.975   3.721   0.571 -0.3992  0.1003 -0.0862
 4145TIP3    H133994   3.966   3.716   0.475 -1.2018  0.2925 -0.0242
 4145TIP3    H233995   4.070   3.718   0.586 -0.0808  2.7553 -1.0460
 4146TIP3   OH233996   4.884   5.638   0.481  0.5070 -0.1312 -0.3875
 4146TIP3    H133997   4.887   5.635   0.385 -0.6961 -0.9053 -0.4332
 4146TIP3    H233998   4.972   5.613   0.509  1.1141  0.9128 -1.2852
 4147TIP3   OH233999   4.302   6.118   2.450  0.2989  0.3437  0.3725
 4147TIP3    H134000   4.230   6.096   2.391  0.4468 -0.4233  0.4734
 4147TIP3    H234001   4.332   6.034   2.484 -0.5278  0.8294  2.4457
 4148TIP3   OH234002   1.465   1.807   3.609 -0.5630 -0.3690 -0.4040
 4148TIP3    H134003   1.495   1.753   3.682  0.5021 -0.0881 -0.6045
 4148TIP3    H234004   1.546   1.836   3.567 -1.1635 -0.8338 -1.9329
 4149TIP3   OH234005   3.413   6.597   0.537 -0.1157  0.4432 -0.7153
 4149TIP3    H134006   3.398   6.673   0.593 -0.7579  0.4542 -0.8897
 4149TIP3    H234007   3.447   6.633   0.456 -0.6111  0.5676 -0.8710
 4150TIP3   OH234008   1.836   1.907   1.279  0.2843  0.7712  0.4751
 4150TIP3    H134009   1.822   1.989   1.325 -1.4913 -0.4222  2.2262
 4150TIP3    H234010   1.915   1.870   1.317  1.4341  1.8809 -0.7377
 4151TIP3   OH234011   0.234   0.635   0.172  0.2498  0.7013 -0.2573
 4151TIP3    H134012   0.208   0.548   0.202 -0.5000  0.6624 -0.9904
 4151TIP3    H234013   0.237   0.689   0.251  0.3442  0.0999  0.1475
 4152TIP3   OH234014   6.032   5.709   3.047 -0.2514  0.0838 -0.3753
 4152TIP3    H134015   6.095   5.771   3.011  1.4519 -1.5320 -0.2726
 4152TIP3    H234016   6.021   5.736   3.138 -0.8390  1.2107 -0.7496
 4153TIP3   OH234017   5.475   1.443   0.426  0.1746  0.0366  0.0243
 4153TIP3    H134018   5.382   1.455   0.442  0.0289  0.7882 -1.2238
 4153TIP3    H234019   5.482   1.357   0.384 -0.2731  0.9144 -1.9688
 4154TIP3   OH234020   1.443   0.681   3.749 -0.1019 -0.5441  0.2238
 4154TIP3    H134021   1.530   0.644   3.734  1.4336  2.4120  1.1026
 4154TIP3    H234022   1.402   0.679   3.663  1.1750 -1.1535 -0.4127
 4155TIP3   OH234023   3.563   3.452   1.949  0.4211 -0.4054 -0.2392
 4155TIP3    H134024   3.549   3.546   1.957  0.2957 -0.5378  1.5751
 4155TIP3    H234025   3.654   3.439   1.977  0.0250 -0.9364  0.8924
 4156TIP3   OH234026   6.318   4.610   3.316 -0.5083 -0.2260 -0.5185
 4156TIP3    H134027   6.298   4.548   3.386  0.6762 -0.3303 -0.2487
 4156TIP3    H234028   6.411   4.596   3.297 -0.2288  1.3808 -0.5259
 4157TIP3   OH234029   2.537   5.473   2.149 -0.1900 -0.5600  0.3346
 4157TIP3    H134030   2.444   5.470   2.126 -0.2068  0.8437  0.1334
 4157TIP3    H234031   2.543   5.425   2.231 -0.7742 -2.2472 -0.5510
 4158TIP3   OH234032   2.889   3.973   3.637  0.1610  0.2451  0.0179
 4158TIP3    H134033   2.955   4.001   3.700 -0.0292 -1.0629  0.8215
 4158TIP3    H234034   2.807   4.012   3.669  0.2824  0.6840 -0.1882
 4159TIP3   OH234035   0.783   2.799   1.971 -0.1302 -0.1084 -0.3843
 4159TIP3    H134036   0.869   2.764   1.996  0.0999  0.7670  0.0977
 4159TIP3    H234037   0.720   2.736   2.006  0.3229 -0.9240 -1.0231
 4160TIP3   OH234038   1.472   0.578   1.902  0.2471 -0.4302  0.5791
 4160TIP3    H134039   1.479   0.483   1.905  1.5102 -0.4212 -1.0319
 4160TIP3    H234040   1.549   0.609   1.950  2.3899 -0.3037 -2.6405
 4161TIP3   OH234041   0.133   0.053   2.045  0.0774 -0.3269 -0.0457
 4161TIP3    H134042   0.100  -0.030   2.080  0.7065 -0.3252  0.5640
 4161TIP3    H234043   0.057   0.112   2.048 -0.4916 -0.9958 -0.9042
 4162TIP3   OH234044   2.941   5.809   1.471 -0.2507  0.0640  0.6037
 4162TIP3    H134045   3.018   5.788   1.419 -0.2018  2.0790 -0.2050
 4162TIP3    H234046   2.966   5.885   1.523 -2.2893  2.1924 -1.3175
 4163TIP3   OH234047   6.512   5.879   1.734  0.7566 -0.1754 -0.3652
 4163TIP3    H134048   6.531   5.819   1.806  0.8885  2.7276  2.2139
 4163TIP3    H234049   6.595   5.924   1.718  0.1167  0.9740 -0.5482
 4164TIP3   OH234050   4.389   5.580   3.277 -0.5033  0.3777  0.0715
 4164TIP3    H134051   4.417   5.511   3.337  0.7379  1.4159  0.7416
 4164TIP3    H234052   4.469   5.629   3.257 -1.4064  1.8701 -0.0663
 4165TIP3   OH234053   2.681   0.976   0.657  0.2294 -0.2058 -0.7748
 4165TIP3    H134054   2.645   0.983   0.568 -0.3184  1.4139 -0.4659
 4165TIP3    H234055   2.678   1.065   0.691 -0.3389 -0.9196  1.1858
 4166TIP3   OH234056   4.504   4.052   0.012  0.2496  0.1949  0.2394
 4166TIP3    H134057   4.417   4.055  -0.028  1.0277  1.1276 -1.5004
 4166TIP3    H234058   4.538   4.141   0.002  1.0048  0.1296  1.8952
 4167TIP3   OH234059   3.623   5.764   2.104 -0.2214  0.1299  0.0831
 4167TIP3    H134060   3.536   5.784   2.069 -0.2353 -0.5232 -0.2911
 4167TIP3    H234061   3.606   5.729   2.192 -0.3778 -0.3752 -0.1419
 4168TIP3   OH234062   5.656   2.902   3.658 -0.3809 -0.0243 -0.1337
 4168TIP3    H134063   5.599   2.945   3.722 -1.1178  2.0597 -2.0634
 4168TIP3    H234064   5.743   2.939   3.674  0.1100 -1.7343  1.5170
 4169TIP3   OH234065   1.579   4.655   3.259 -0.3527 -0.1537 -0.2290
 4169TIP3    H134066   1.633   4.671   3.336 -0.3574 -0.6916 -0.1138
 4169TIP3    H234067   1.636   4.676   3.185  0.8447 -2.9371 -0.2109
 4170TIP3   OH234068   1.158   2.784   2.847 -0.0367  0.2022  0.1929
 4170TIP3    H134069   1.186   2.698   2.815 -0.3657  0.3207 -0.4126
 4170TIP3    H234070   1.204   2.793   2.931  0.9534 -0.0463 -0.2988
 4171TIP3   OH234071   2.898   0.541   3.151  0.2742  0.0370 -0.4177
 4171TIP3    H134072   2.974   0.567   3.203  0.1694 -0.6319  0.0965
 4171TIP3    H234073   2.852   0.622   3.133  1.1927  0.4693 -0.8712
 4172TIP3   OH234074   3.580   2.842   1.454  0.4253  0.1494 -0.6095
 4172TIP3    H134075   3.570   2.904   1.382  0.0833  1.0691  0.2033
 4172TIP3    H234076   3.573   2.896   1.533 -0.5051 -1.0184  0.1381
 4173TIP3   OH234077   2.651   4.858   2.786 -0.2238  0.2526 -0.7214
 4173TIP3    H134078   2.695   4.911   2.853 -1.0299  1.4216 -1.0752
 4173TIP3    H234079   2.639   4.918   2.712 -0.7776 -0.5630 -1.3149
 4174TIP3   OH234080   4.946   4.099   0.882 -0.3504 -0.0942  0.1569
 4174TIP3    H134081   4.946   4.139   0.969 -2.2960  0.1626  0.0920
 4174TIP3    H234082   5.038   4.084   0.862  0.2807  1.9258  1.2911
 4175TIP3   OH234083   5.674   3.882   1.095  0.2051 -0.6772  0.5985
 4175TIP3    H134084   5.758   3.893   1.049  0.7704 -1.2664  1.4596
 4175TIP3    H234085   5.628   3.815   1.044 -0.2555  0.4893 -0.5589
 4176TIP3   OH234086   4.744   0.122   0.536 -0.5592  0.9595  0.3908
 4176TIP3    H134087   4.656   0.144   0.566 -0.0422  0.0341  2.9166
 4176TIP3    H234088   4.731   0.070   0.457 -2.4421 -0.7636  1.7311
 4177TIP3   OH234089   6.495   1.073   2.243 -0.4271  0.6272  0.8164
 4177TIP3    H134090   6.459   1.102   2.159  0.1153 -0.2599  0.2613
 4177TIP3    H234091   6.503   1.153   2.294  2.3618  1.7458 -1.1623
 4178TIP3   OH234092   0.848   5.116   1.219 -0.0647  0.2686  0.6728
 4178TIP3    H134093   0.786   5.082   1.284  1.6251 -1.2806  1.5484
 4178TIP3    H234094   0.933   5.115   1.263  1.5203 -2.6952 -2.0645
 4179TIP3   OH234095   3.557   2.922   2.074 -0.5854  0.3056 -0.0284
 4179TIP3    H134096   3.599   2.972   2.004 -0.7952 -1.4045 -1.4486
 4179TIP3    H234097   3.589   2.962   2.155  0.8030  1.4313 -1.0859
 4180TIP3   OH234098   6.445   2.352   0.894  0.3669 -0.1547 -0.6213
 4180TIP3    H134099   6.399   2.425   0.936  0.7391  0.7053 -1.6290
 4180TIP3    H234100   6.377   2.288   0.876  0.5106 -1.7085  3.3810
 4181TIP3   OH234101   2.412   4.810   1.697  0.0665  0.2869 -0.1028
 4181TIP3    H134102   2.365   4.770   1.624 -0.7130 -0.2798  0.6916
 4181TIP3    H234103   2.362   4.889   1.718  0.1090  0.2820  0.0191
 4182TIP3   OH234104   3.428   4.609   4.169  0.2235 -0.2530 -0.6672
 4182TIP3    H134105   3.382   4.526   4.182  0.5943 -0.4984 -0.9266
 4182TIP3    H234106   3.358   4.674   4.159 -0.0662 -0.5401 -0.5228
 4183TIP3   OH234107   2.060   4.096   0.494 -0.4484  0.2847 -0.0487
 4183TIP3    H134108   2.011   4.138   0.423 -1.4574  1.7507  1.4074
 4183TIP3    H234109   2.059   4.161   0.564  0.3571 -1.1607  1.3632
 4184TIP3   OH234110   2.857   4.564   0.095 -0.0202 -0.0625  0.2024
 4184TIP3    H134111   2.787   4.607   0.144  0.8834  0.2469  1.2718
 4184TIP3    H234112   2.927   4.553   0.159  1.3488  0.6618 -1.1159
 4185TIP3   OH234113   2.520   3.378   0.361 -0.3560  0.1494  0.0396
 4185TIP3    H134114   2.606   3.383   0.319 -0.0650  2.5515  0.7689
 4185TIP3    H234115   2.537   3.339   0.446 -0.0130  0.4115  0.0934
 4186TIP3   OH234116   1.905   4.840   1.821  0.1111  0.2200 -0.6722
 4186TIP3    H134117   1.821   4.861   1.779  0.3481 -0.1976 -1.3595
 4186TIP3    H234118   1.958   4.801   1.751  0.4870 -0.5477  0.0322
 4187TIP3   OH234119   3.256   4.084   2.359  0.3527 -0.3468  0.1183
 4187TIP3    H134120   3.278   4.059   2.449 -2.1073  2.7685  1.8169
 4187TIP3    H234121   3.179   4.033   2.337  0.4839 -0.5301  0.0807
 4188TIP3   OH234122   1.507   5.137   3.016  0.1121  0.0039  1.1581
 4188TIP3    H134123   1.560   5.127   3.095  0.3461  1.3687  1.1999
 4188TIP3    H234124   1.462   5.221   3.028 -0.6251 -0.2516  0.2883
 4189TIP3   OH234125   0.122   1.883   8.051 -0.6129  0.2975  0.5680
 4189TIP3    H134126   0.194   1.868   7.989 -1.7551 -0.7012 -0.5863
 4189TIP3    H234127   0.162   1.871   8.137  0.3648 -1.5427 -0.0706
 4190TIP3   OH234128   6.358   4.687   8.268  0.0477  0.1115  1.1046
 4190TIP3    H134129   6.412   4.677   8.190 -1.1663  2.0985 -0.0863
 4190TIP3    H234130   6.418   4.719   8.335  1.0014 -1.1128  0.8701
 4191TIP3   OH234131   4.120   5.031   0.246  0.2609 -0.1149 -0.2798
 4191TIP3    H134132   4.200   5.029   0.298  0.1483 -0.4018 -0.1145
 4191TIP3    H234133   4.124   5.114   0.199 -0.0913  0.6240  0.9270
 4192TIP3   OH234134   4.792   3.488   2.708  0.7173  0.2306 -0.7448
 4192TIP3    H134135   4.877   3.459   2.674 -0.4731 -0.5012 -3.3178
 4192TIP3    H234136   4.758   3.412   2.755  0.4793 -0.3060 -1.7634
 4193TIP3   OH234137   5.317   2.853   0.397 -0.4730  0.5360  0.1313
 4193TIP3    H134138   5.261   2.931   0.392 -0.1610  0.8593  1.2900
 4193TIP3    H234139   5.330   2.827   0.306 -1.8525  0.9176 -0.1959
 4194TIP3   OH234140   4.710   2.918   1.577 -0.3190 -0.6331 -0.6931
 4194TIP3    H134141   4.652   2.910   1.652 -2.0360  0.3084 -1.8680
 4194TIP3    H234142   4.725   2.828   1.549  0.9977 -1.0587  1.2010
 4195TIP3   OH234143   4.172   5.397   3.244 -0.2307 -0.0536  0.2707
 4195TIP3    H134144   4.249   5.454   3.241  1.5997 -2.3502  0.8230
 4195TIP3    H234145   4.131   5.417   3.328  0.3890  0.4603  0.4621
 4196TIP3   OH234146   2.023   2.431   3.552 -0.0138 -0.2333  0.1911
 4196TIP3    H134147   2.115   2.411   3.573 -0.6310 -1.0010  2.4625
 4196TIP3    H234148   1.986   2.462   3.634 -1.3966  1.8164 -1.1213
 4197TIP3   OH234149   1.606   3.087   1.402 -0.3437  0.3459  0.3774
 4197TIP3    H134150   1.650   3.109   1.320 -0.8884  0.6235  0.1496
 4197TIP3    H234151   1.544   3.018   1.378  0.6124 -0.6990  0.8814
 4198TIP3   OH234152   5.634   3.090   0.541 -0.4351 -0.2585 -0.2983
 4198TIP3    H134153   5.725   3.062   0.552 -1.1148 -3.4010 -1.3893
 4198TIP3    H234154   5.588   3.052   0.617 -0.7747  1.9752  0.6747
 4199TIP3   OH234155   1.441   0.434   2.951  0.0418 -0.0171  0.3948
 4199TIP3    H134156   1.396   0.359   2.990 -0.6562 -0.7925 -1.7459
 4199TIP3    H234157   1.374   0.478   2.899  0.9652  0.8442 -0.1013
 4200TIP3   OH234158   3.334   3.492   2.989 -0.6969  0.3904  0.1312
 4200TIP3    H134159   3.378   3.533   2.915  0.8825 -0.7896  0.3755
 4200TIP3    H234160   3.396   3.502   3.062 -1.2129 -0.5168  0.7123
 4201TIP3   OH234161   1.310   2.297   1.266 -0.4308 -0.1496  0.4686
 4201TIP3    H134162   1.381   2.235   1.280  0.2476  0.5440  0.2054
 4201TIP3    H234163   1.238   2.265   1.320  0.9347  0.5703  2.8336
 4202TIP3   OH234164   4.267   4.607   8.068  0.3156  0.2763 -0.0443
 4202TIP3    H134165   4.242   4.696   8.042  0.1891  0.0528 -0.7154
 4202TIP3    H234166   4.314   4.573   7.992  0.6993 -0.1000  0.3552
 4203TIP3   OH234167   1.889   2.992   1.430  0.0771  0.6023 -0.6099
 4203TIP3    H134168   1.920   2.909   1.394  0.5772  0.5424 -0.0604
 4203TIP3    H234169   1.798   2.975   1.456 -0.0554  0.4437 -1.1765
 4204TIP3   OH234170   1.320   1.702   0.168 -0.4109  0.2395  0.3997
 4204TIP3    H134171   1.323   1.609   0.188  1.7400 -0.3535 -2.1712
 4204TIP3    H234172   1.400   1.737   0.206  0.6343  0.2526 -1.6794
 4205TIP3   OH234173   4.034   3.064   2.467 -0.0453 -0.3873  0.0286
 4205TIP3    H134174   3.940   3.079   2.477  0.4608  1.5614  2.9169
 4205TIP3    H234175   4.042   2.971   2.444 -2.6532 -0.4586 -0.8809
 4206TIP3   OH234176   1.283   3.111   1.616  0.3579 -0.4541 -0.5867
 4206TIP3    H134177   1.373   3.135   1.637  0.6120 -1.0684 -0.9537
 4206TIP3    H234178   1.243   3.193   1.586  0.6469 -0.0736  0.0450
 4207TIP3   OH234179   0.882   1.775   2.779 -0.3364 -0.0931 -0.6332
 4207TIP3    H134180   0.853   1.689   2.809  0.5540 -0.5229 -0.9428
 4207TIP3    H234181   0.907   1.821   2.859  2.2835 -1.3267 -0.6333
 4208TIP3   OH234182   1.510   1.750   3.131 -0.3444  0.7984  0.3830
 4208TIP3    H134183   1.451   1.812   3.174 -0.5219  1.2228 -0.4650
 4208TIP3    H234184   1.478   1.664   3.159 -2.2261  0.9568 -1.1098
 4209TIP3   OH234185   3.936   6.410   2.426 -0.1977  0.0610  0.1967
 4209TIP3    H134186   3.928   6.478   2.492 -1.1734  0.1442  0.0209
 4209TIP3    H234187   4.000   6.444   2.363 -0.7205  0.8522  0.0779
 4210TIP3   OH234188   0.288   3.457   8.564 -0.2199  0.3834 -0.1783
 4210TIP3    H134189   0.382   3.449   8.549  0.1060 -0.0559  1.7724
 4210TIP3    H234190   0.258   3.367   8.576 -1.0780  0.4481 -1.5530
 4211TIP3   OH234191   0.748   3.242   1.799 -0.3603 -0.9183  0.3819
 4211TIP3    H134192   0.756   3.185   1.876 -0.8306 -2.9920 -1.0306
 4211TIP3    H234193   0.656   3.270   1.800  0.0081  0.3763  1.3998
 4212TIP3   OH234194   6.608   4.721   1.307  0.2217 -0.0750 -0.1683
 4212TIP3    H134195   6.567   4.646   1.264 -0.4102  0.9488 -1.4416
 4212TIP3    H234196   6.588   4.710   1.400  0.1280 -1.4517 -0.3282
 4213TIP3   OH234197   2.790   0.165   0.250  0.0024 -0.2872  0.4092
 4213TIP3    H134198   2.705   0.135   0.219  0.1234 -1.0681  0.8113
 4213TIP3    H234199   2.819   0.227   0.183 -0.8600 -0.0426  0.2498
 4214TIP3   OH234200   4.921   5.380   3.285 -0.3129  0.2499  0.0230
 4214TIP3    H134201   4.970   5.300   3.306 -0.9671 -0.0881  0.3112
 4214TIP3    H234202   4.978   5.451   3.312  1.0085 -0.0556 -1.8234
 4215TIP3   OH234203   5.294   1.068   3.141  0.5147  0.3199 -0.0952
 4215TIP3    H134204   5.358   0.997   3.148  0.7706  0.6894  1.9735
 4215TIP3    H234205   5.346   1.144   3.114  0.2634 -0.1861 -2.1671
 4216TIP3   OH234206   0.781   4.511   2.249 -0.3229  0.5359  0.4272
 4216TIP3    H134207   0.853   4.565   2.216 -0.0432  0.1323  0.3726
 4216TIP3    H234208   0.717   4.574   2.283 -1.5898  1.1107 -2.7397
 4217TIP3   OH234209   4.368   6.378   2.388  0.1815 -0.1832  0.0254
 4217TIP3    H134210   4.328   6.291   2.391  0.9796 -0.5358  0.5298
 4217TIP3    H234211   4.462   6.362   2.380  0.6386  0.5648  2.8597
 4218TIP3   OH234212   3.538   0.716   0.255  0.4524  0.2492  0.4555
 4218TIP3    H134213   3.512   0.808   0.249 -0.7642 -0.1570 -1.1302
 4218TIP3    H234214   3.593   0.712   0.333  0.7562  2.3659  0.4089
 4219TIP3   OH234215   5.260   6.350   2.368  0.0466 -0.2034 -0.2765
 4219TIP3    H134216   5.277   6.417   2.301 -1.9721  0.8013  0.1301
 4219TIP3    H234217   5.194   6.390   2.425  2.1672 -0.6960  2.8182
 4220TIP3   OH234218   6.065   6.152   3.035 -0.0375  0.7771 -0.2784
 4220TIP3    H134219   6.101   6.161   3.123 -1.6607  0.9669  0.3928
 4220TIP3    H234220   6.138   6.175   2.977  1.3850 -0.3994  0.9585
 4221TIP3   OH234221   1.582   6.295   0.661 -0.5799  0.0771  0.3349
 4221TIP3    H134222   1.584   6.338   0.575  2.9274 -2.0879 -0.8755
 4221TIP3    H234223   1.512   6.231   0.653  0.9269 -1.4731 -1.8297
 4222TIP3   OH234224   1.064   3.574   0.531  0.0749  0.6083  0.3265
 4222TIP3    H134225   1.073   3.483   0.503 -2.5453  0.2019  0.5748
 4222TIP3    H234226   1.091   3.626   0.455 -1.8827 -0.4336 -1.1592
 4223TIP3   OH234227   3.087   2.329   1.808  0.0201 -0.1185 -0.6529
 4223TIP3    H134228   3.142   2.277   1.866 -0.1888  0.2099 -0.1523
 4223TIP3    H234229   2.998   2.319   1.844 -0.3862 -1.2783 -1.9071
 4224TIP3   OH234230   1.864   5.907   0.293 -0.4316 -0.4193 -0.8579
 4224TIP3    H134231   1.958   5.898   0.305 -0.3005  0.3151 -1.2649
 4224TIP3    H234232   1.837   5.965   0.365 -0.0999  1.6636 -2.3190
 4225TIP3   OH234233   5.722   3.220   2.614  0.0981 -0.5943 -0.0539
 4225TIP3    H134234   5.664   3.157   2.658 -0.1647 -0.7628 -0.6277
 4225TIP3    H234235   5.800   3.223   2.670 -0.0364 -1.1527  0.1787
 4226TIP3   OH234236   0.351   4.510   0.703 -0.3209 -0.4989  0.1993
 4226TIP3    H134237   0.418   4.560   0.656  1.2543  0.3972  3.1298
 4226TIP3    H234238   0.269   4.555   0.683  0.5103  0.8432 -0.3442
 4227TIP3   OH234239   2.718   5.363   3.575 -0.2714  0.3895  1.5773
 4227TIP3    H134240   2.703   5.447   3.531 -0.5911 -0.0769  0.7803
 4227TIP3    H234241   2.802   5.374   3.619  0.1540  0.8109  0.6892
 4228TIP3   OH234242   4.224   4.451   0.379 -0.0351  0.1505  0.1933
 4228TIP3    H134243   4.251   4.473   0.290 -0.5894  0.2825  0.0576
 4228TIP3    H234244   4.303   4.463   0.432  0.1004  0.8116 -0.1545
 4229TIP3   OH234245   3.482   0.274   8.204  0.2515 -0.2921  0.3289
 4229TIP3    H134246   3.513   0.363   8.190  0.0638 -0.3948 -0.7992
 4229TIP3    H234247   3.502   0.256   8.296  0.1993  0.9425  0.5953
 4230TIP3   OH234248   3.912   0.035   0.372 -0.4039  0.1194 -0.1600
 4230TIP3    H134249   3.837   0.028   0.312 -0.5587  1.0952 -0.0979
 4230TIP3    H234250   3.888   0.106   0.432  0.7235  0.6840 -0.3592
 4231TIP3   OH234251   3.395   2.089   1.692  0.4219  0.0843  0.5649
 4231TIP3    H134252   3.414   1.996   1.678  0.8591  0.1325  0.8074
 4231TIP3    H234253   3.366   2.094   1.783  0.7847  0.2387  0.6743
 4232TIP3   OH234254   6.685   3.963   8.356  0.9532  0.1195  0.5807
 4232TIP3    H134255   6.611   3.939   8.412  0.7348 -0.8668 -0.1020
 4232TIP3    H234256   6.689   3.893   8.291 -1.1554  2.9339 -2.9671
 4233TIP3   OH234257   0.146   4.454   8.315  0.5426  0.7433 -0.4470
 4233TIP3    H134258   0.242   4.457   8.315  0.5312  1.4132 -1.1885
 4233TIP3    H234259   0.125   4.370   8.275  0.8299  1.4045 -2.0585
 4234TIP3   OH234260   3.464   4.512   1.709  0.3660  0.0432  0.2390
 4234TIP3    H134261   3.465   4.542   1.619  0.8036 -1.6606 -0.3626
 4234TIP3    H234262   3.555   4.490   1.728  0.0602 -0.9942  0.5829
 4235TIP3   OH234263   6.027   6.716   1.895  0.9803 -0.4004 -0.2933
 4235TIP3    H134264   5.993   6.675   1.974  0.4955  1.1538  0.3449
 4235TIP3    H234265   6.121   6.726   1.912  0.5168  2.3136  1.3035
 4236TIP3   OH234266   0.189   0.478   8.585 -0.1930  0.7471  0.3846
 4236TIP3    H134267   0.260   0.451   8.528  0.8962  2.3466  0.8999
 4236TIP3    H234268   0.141   0.397   8.605  1.3356 -0.3289 -0.1629
 4237TIP3   OH234269   3.015   5.319   2.470 -0.1484  0.1564  0.5512
 4237TIP3    H134270   2.939   5.314   2.527 -0.2157  1.5634  0.6229
 4237TIP3    H234271   3.090   5.318   2.529 -0.1649  0.1991  0.5730
 4238TIP3   OH234272   4.232   5.547   0.231 -0.0096 -0.0478  0.1083
 4238TIP3    H134273   4.277   5.559   0.315  0.0223 -0.9538  0.2308
 4238TIP3    H234274   4.262   5.461   0.200  0.1733  0.3960 -0.9570
 4239TIP3   OH234275   0.883   5.987   1.421  0.4437  0.6834 -0.7376
 4239TIP3    H134276   0.874   5.985   1.325  0.8926  0.1454 -0.7753
 4239TIP3    H234277   0.904   6.078   1.441  1.1182  0.6523 -1.2341
 4240TIP3   OH234278   1.184   3.764   8.531 -0.1682 -0.2659  0.4027
 4240TIP3    H134279   1.204   3.697   8.597  1.0071 -0.1925  0.1474
 4240TIP3    H234280   1.257   3.759   8.469 -0.8665  0.1850 -0.4830
 4241TIP3   OH234281   6.715   2.449   0.196  0.4232  0.2624  0.6390
 4241TIP3    H134282   6.725   2.372   0.140 -0.3693  0.6437 -0.0581
 4241TIP3    H234283   6.625   2.444   0.228  0.4131  0.8110  0.7150
 4242TIP3   OH234284   4.381   0.980   0.158  0.0128  0.3712  0.1560
 4242TIP3    H134285   4.465   1.021   0.137  0.5694 -0.8820 -0.1514
 4242TIP3    H234286   4.329   0.991   0.078  0.3175  0.1029 -0.0856
 4243TIP3   OH234287   4.574   4.270   2.077 -0.1809  0.2362 -0.2897
 4243TIP3    H134288   4.626   4.196   2.047  0.0657  0.1117  0.4256
 4243TIP3    H234289   4.534   4.240   2.159 -0.4880  0.7151 -0.2578
 4244TIP3   OH234290   4.077   1.163   1.811 -0.5616 -0.5612 -0.0302
 4244TIP3    H134291   4.010   1.121   1.865  1.4631  1.0030  4.0556
 4244TIP3    H234292   4.160   1.129   1.844  0.9556  2.9839  0.2157
 4245TIP3   OH234293   3.825   3.520   3.196  0.0053  0.3223 -0.1758
 4245TIP3    H134294   3.916   3.495   3.208  0.8894  1.7260 -3.0638
 4245TIP3    H234295   3.776   3.439   3.210  1.4906 -0.2533  2.4237
 4246TIP3   OH234296   3.809   6.218   2.224  0.2755  0.0863 -0.2296
 4246TIP3    H134297   3.795   6.286   2.158 -0.7790  0.3646  0.2602
 4246TIP3    H234298   3.854   6.263   2.295  1.4695 -0.2284 -0.7484
 4247TIP3   OH234299   0.635   1.980   8.296  0.4914  0.0844  0.1432
 4247TIP3    H134300   0.562   2.015   8.346  0.0342  0.4010 -0.7314
 4247TIP3    H234301   0.702   2.048   8.300 -0.4183  1.1449 -1.6038
 4248TIP3   OH234302   0.774   1.470   0.725 -0.5030  0.7375  0.0498
 4248TIP3    H134303   0.701   1.411   0.703  0.6492 -0.3017 -1.1751
 4248TIP3    H234304   0.752   1.503   0.812 -2.6459  0.8136 -0.4445
 4249TIP3   OH234305   2.935   0.725   1.263 -0.1253  0.5107 -0.5528
 4249TIP3    H134306   2.991   0.761   1.331  2.1294 -1.5136 -1.1905
 4249TIP3    H234307   2.861   0.785   1.258  0.9401  2.1569  1.8129
 4250TIP3   OH234308   3.254   3.013   2.710 -0.6802  0.5407 -0.3383
 4250TIP3    H134309   3.256   3.049   2.799 -0.1951  0.9843 -0.5200
 4250TIP3    H234310   3.217   2.925   2.721 -0.9467  0.7174  0.2527
 4251TIP3   OH234311   0.292   5.794   1.897 -0.1903  0.6380  0.6201
 4251TIP3    H134312   0.294   5.699   1.884  0.5549  0.2070  3.1698
 4251TIP3    H234313   0.316   5.805   1.990  0.0925  3.3363  0.2963
 4252TIP3   OH234314   2.166   0.449   1.156 -0.5597 -0.3338 -0.1194
 4252TIP3    H134315   2.243   0.395   1.142  0.1316  0.1573  1.4984
 4252TIP3    H234316   2.196   0.539   1.143 -0.5711 -0.0683  1.4587
 4253TIP3   OH234317   5.077   2.475   8.477 -0.2162  0.3352 -0.4699
 4253TIP3    H134318   5.084   2.436   8.389  1.1473  1.1731 -0.7700
 4253TIP3    H234319   5.167   2.495   8.501 -0.6059  0.4126  1.0066
 4254TIP3   OH234320   4.926   0.497   1.952  0.6601  0.6754 -0.0726
 4254TIP3    H134321   4.982   0.509   2.029  1.2686 -0.2444 -0.3618
 4254TIP3    H234322   4.957   0.416   1.912  0.0453  0.9000 -1.0329
 4255TIP3   OH234323   6.121   1.975   3.094 -0.2501 -0.1315  0.3876
 4255TIP3    H134324   6.170   1.988   3.013 -2.4281  0.9452 -0.8464
 4255TIP3    H234325   6.030   1.964   3.066 -0.8852 -1.1631  2.6131
 4256TIP3   OH234326   1.802   1.669   1.752 -0.2520 -0.4046 -0.3020
 4256TIP3    H134327   1.856   1.734   1.707 -0.5072  0.3166  0.3994
 4256TIP3    H234328   1.850   1.650   1.833  0.3159 -1.8545 -0.9633
 4257TIP3   OH234329   6.236   5.239   0.974 -0.1107 -0.1139 -0.6686
 4257TIP3    H134330   6.329   5.242   0.996 -0.1702  1.5375 -0.5184
 4257TIP3    H234331   6.208   5.330   0.974 -1.9112 -0.6079  0.0299
 4258TIP3   OH234332   4.100   2.093   1.654 -0.0946 -0.0568 -0.5982
 4258TIP3    H134333   4.135   2.071   1.568 -1.3401  0.2811 -1.2135
 4258TIP3    H234334   4.073   2.184   1.647 -0.0701  0.0198  0.1999
 4259TIP3   OH234335   3.129   2.987   8.080 -0.2371 -0.5090 -0.4435
 4259TIP3    H134336   3.132   3.063   8.137  2.6570 -0.9642  0.1643
 4259TIP3    H234337   3.220   2.970   8.057 -0.9011 -3.0126 -1.6235
 4260TIP3   OH234338   5.483   4.513   2.485  0.0615 -0.0570  0.4719
 4260TIP3    H134339   5.568   4.541   2.520  0.3552 -2.1861  1.6350
 4260TIP3    H234340   5.432   4.593   2.479  1.7420  1.1106  0.9116
 4261TIP3   OH234341   5.193   5.011   0.173  0.1476 -0.0170  0.4160
 4261TIP3    H134342   5.228   4.939   0.225  2.0239 -0.2427 -1.0207
 4261TIP3    H234343   5.198   5.087   0.231  2.4248 -0.2069  0.5872
 4262TIP3   OH234344   5.441   5.187   0.555 -0.0771  0.5258 -0.2509
 4262TIP3    H134345   5.494   5.259   0.518 -0.0985 -0.0362 -1.3997
 4262TIP3    H234346   5.450   5.116   0.492 -0.1789 -0.4487  0.8048
 4263TIP3   OH234347   0.100   5.703   4.252  0.7557 -0.2683  0.0626
 4263TIP3    H134348   0.035   5.637   4.276  0.9750 -0.6958 -0.5187
 4263TIP3    H234349   0.177   5.681   4.305  0.0663  0.9576  1.6755
 4264TIP3   OH234350   2.488   4.378   0.649  0.0612 -0.2616 -0.3667
 4264TIP3    H134351   2.554   4.447   0.648  1.2763 -1.3814 -0.7840
 4264TIP3    H234352   2.538   4.297   0.661 -1.4610 -0.9563  1.9963
 4265TIP3   OH234353   4.911   1.132   2.682  0.1444  0.4572  0.1729
 4265TIP3    H134354   4.885   1.222   2.660 -0.1940  0.5749  1.0388
 4265TIP3    H234355   4.995   1.121   2.637  1.1015  1.8527  1.5017
 4266TIP3   OH234356   1.856   6.193   4.249 -0.0756 -0.3772  0.5143
 4266TIP3    H134357   1.786   6.129   4.238 -0.5126  0.0883  0.5415
 4266TIP3    H234358   1.833   6.239   4.330  0.6175 -0.6665  0.8781
 4267TIP3   OH234359   0.104   0.782   1.578 -0.7431 -0.1528  0.2086
 4267TIP3    H134360   0.195   0.761   1.600 -0.8515 -1.2317 -0.2976
 4267TIP3    H234361   0.079   0.717   1.512 -1.6577  0.5798 -0.2026
 4268TIP3   OH234362   2.894   3.950   1.248 -0.2993  0.2278 -0.1778
 4268TIP3    H134363   2.854   4.029   1.212 -1.9971  0.0664  1.2576
 4268TIP3    H234364   2.940   3.910   1.173  1.1527  2.8384 -0.8083
 4269TIP3   OH234365   4.553   3.388   0.994 -0.2657  0.0664  0.0430
 4269TIP3    H134366   4.599   3.472   0.987 -0.7197  0.4458  1.3568
 4269TIP3    H234367   4.495   3.387   0.917  0.0422  0.7678 -0.2088
 4270TIP3   OH234368   2.858   5.981   8.678 -0.3802 -0.0055  0.1818
 4270TIP3    H134369   2.870   5.889   8.656 -0.4441  0.1356 -0.4607
 4270TIP3    H234370   2.777   5.982   8.730 -0.7446 -0.2270 -0.3789
 4271TIP3   OH234371   1.105   6.369   0.997 -0.0121  0.4643  0.4647
 4271TIP3    H134372   1.190   6.375   1.041  0.1805  2.6872 -0.0811
 4271TIP3    H234373   1.059   6.299   1.043  1.7690 -0.1640  1.3799
 4272TIP3   OH234374   3.479   1.648   2.549 -0.0763 -0.1700  0.3109
 4272TIP3    H134375   3.423   1.616   2.478  1.3478  1.8887 -1.8907
 4272TIP3    H234376   3.503   1.569   2.598 -1.4830 -1.6175 -1.2164
 4273TIP3   OH234377   0.364   5.063   1.687  0.1271  0.2735 -0.0964
 4273TIP3    H134378   0.365   4.968   1.680  1.0909  0.3080 -0.6521
 4273TIP3    H234379   0.298   5.091   1.623  0.6412  0.0240 -0.7460
 4274TIP3   OH234380   3.158   1.835   1.805  0.3336  0.3167 -0.6951
 4274TIP3    H134381   3.254   1.834   1.800  0.4483  0.5493  1.0747
 4274TIP3    H234382   3.137   1.915   1.853 -0.8959  1.4439 -2.9242
 4275TIP3   OH234383   5.965   2.822   3.442  0.0832 -0.7010 -0.4060
 4275TIP3    H134384   5.939   2.887   3.507 -0.1239 -0.7232 -0.4656
 4275TIP3    H234385   6.001   2.750   3.493  0.1260 -0.6254 -0.3289
 4276TIP3   OH234386   3.337   0.708   2.430  0.4349  0.4089  0.3520
 4276TIP3    H134387   3.302   0.771   2.493  0.2594  2.4250 -1.6319
 4276TIP3    H234388   3.260   0.676   2.383  0.3504 -2.4139  2.1371
 4277TIP3   OH234389   3.879   0.606   8.567  0.1230  0.3295  0.2760
 4277TIP3    H134390   3.849   0.567   8.649 -1.1097 -0.3914 -0.4774
 4277TIP3    H234391   3.814   0.578   8.502  1.2493  0.5959 -1.0171
 4278TIP3   OH234392   6.649   2.941   1.497 -0.6222  0.0133 -0.2196
 4278TIP3    H134393   6.560   2.929   1.528  0.3198  0.0212  2.9063
 4278TIP3    H234394   6.659   3.036   1.486 -0.5494  0.1904  1.1781
 4279TIP3   OH234395   0.688   4.239   8.531 -0.0285  0.3752 -0.6379
 4279TIP3    H134396   0.648   4.154   8.513  0.4752  0.3956 -1.9913
 4279TIP3    H234397   0.781   4.219   8.546  0.1529  0.6976 -1.2638
 4280TIP3   OH234398   3.764   3.147   8.276  0.7152  0.4432 -0.0173
 4280TIP3    H134399   3.696   3.095   8.320  1.1903  0.0848  0.3109
 4280TIP3    H234400   3.716   3.212   8.225  0.0748 -0.6707 -0.8957
 4281TIP3   OH234401   3.588   2.003   3.917 -0.2024  0.0527 -0.1842
 4281TIP3    H134402   3.620   2.087   3.950  0.4671 -0.5176  0.6919
 4281TIP3    H234403   3.504   1.990   3.962  0.4636 -0.4815  0.9486
 4282TIP3   OH234404   1.314   3.870   2.632  0.1772 -0.1040  0.0110
 4282TIP3    H134405   1.386   3.859   2.570 -0.2452  0.7619 -0.6623
 4282TIP3    H234406   1.356   3.876   2.717  0.9268  0.6854 -0.4048
 4283TIP3   OH234407   4.658   1.850   1.125  0.1785  0.0128  0.1516
 4283TIP3    H134408   4.665   1.807   1.211  0.4160  0.1347  0.1957
 4283TIP3    H234409   4.644   1.778   1.063  1.9831 -0.3009  0.0411
 4284TIP3   OH234410   4.192   2.837   3.701 -0.4835  0.3449  0.0296
 4284TIP3    H134411   4.269   2.789   3.734 -1.5046 -1.2783  0.1488
 4284TIP3    H234412   4.228   2.920   3.669  1.2453 -0.1544  0.5461
 4285TIP3   OH234413   1.985   1.479   8.513  0.0221  0.2759 -0.1925
 4285TIP3    H134414   2.026   1.469   8.427 -0.8941  0.4999 -0.6729
 4285TIP3    H234415   1.892   1.466   8.497 -0.3157  1.5644  0.5353
 4286TIP3   OH234416   5.042   5.235   8.021  0.8768  0.0748  0.1732
 4286TIP3    H134417   5.062   5.207   7.932 -1.2685  0.2117 -0.4086
 4286TIP3    H234418   5.127   5.255   8.060  1.9353 -0.9693 -1.4990
 4287TIP3   OH234419   2.905   4.079   0.087 -1.2205 -0.0583  0.3535
 4287TIP3    H134420   2.977   4.139   0.070 -0.3251 -1.0453  0.5726
 4287TIP3    H234421   2.859   4.118   0.161 -1.0517  0.6983  0.0664
 4288TIP3   OH234422   5.227   3.442   1.602 -0.1044  0.0907 -0.1520
 4288TIP3    H134423   5.315   3.440   1.640 -0.2367  0.6157  0.1981
 4288TIP3    H234424   5.201   3.534   1.608 -1.1354 -0.2358  0.8258
 4289TIP3   OH234425   5.370   3.447   2.602  0.5788 -0.6230  0.2518
 4289TIP3    H134426   5.408   3.402   2.678  2.6299 -0.0131 -0.3597
 4289TIP3    H234427   5.424   3.418   2.528 -0.7263 -0.3864 -0.8175
 4290TIP3   OH234428   3.901   5.423   1.306 -0.4655 -0.5723 -0.0165
 4290TIP3    H134429   3.944   5.507   1.291  0.0025 -0.9659 -0.9999
 4290TIP3    H234430   3.969   5.366   1.340 -0.5670 -0.7944 -0.1824
 4291TIP3   OH234431   4.840   2.071   2.059  0.6613  0.2375  0.5143
 4291TIP3    H134432   4.767   2.102   2.113 -0.8114 -1.9015 -0.1425
 4291TIP3    H234433   4.816   2.097   1.970  0.6706 -0.4906  0.2936
 4292TIP3   OH234434   5.838   5.851   1.677  0.6654 -0.2324  0.1809
 4292TIP3    H134435   5.853   5.943   1.653 -0.5039 -0.4136 -1.3343
 4292TIP3    H234436   5.882   5.801   1.609  1.3372 -0.8378  1.0296
 4293TIP3   OH234437   4.488   6.375   0.266 -0.6188  0.0262 -0.4830
 4293TIP3    H134438   4.558   6.440   0.257  0.8076 -1.2465  0.9121
 4293TIP3    H234439   4.454   6.389   0.354 -1.7923  0.2534 -0.9475
 4294TIP3   OH234440   2.387   3.709   1.647 -0.3534 -1.1520 -0.2236
 4294TIP3    H134441   2.364   3.801   1.636  0.8943 -0.8733 -0.5953
 4294TIP3    H234442   2.305   3.662   1.632 -1.4534 -0.0256  1.7827
 4295TIP3   OH234443   0.426   5.402   7.972  0.1620  0.1301  0.6560
 4295TIP3    H134444   0.441   5.420   8.065 -1.1123 -1.5462  1.2412
 4295TIP3    H234445   0.355   5.338   7.971  0.1122  0.1372 -1.4921
 4296TIP3   OH234446   5.597   1.558   1.489 -0.3640  0.1814  0.3566
 4296TIP3    H134447   5.607   1.466   1.466  1.2781  0.0916  1.2791
 4296TIP3    H234448   5.686   1.594   1.481 -0.7593  1.3903  1.2105
 4297TIP3   OH234449   4.512   1.353   0.031  0.5994  0.1974  0.1653
 4297TIP3    H134450   4.537   1.274   0.078 -2.7728 -0.8956  0.3530
 4297TIP3    H234451   4.530   1.424   0.092 -0.9964 -0.9477  2.0799
 4298TIP3   OH234452   6.460   3.633   8.750 -1.0753 -0.2822 -0.2222
 4298TIP3    H134453   6.533   3.592   8.702  1.0503  2.2409  0.6283
 4298TIP3    H234454   6.383   3.618   8.695  0.5331 -0.9403 -2.4079
 4299TIP3   OH234455   1.875   0.768   1.640  0.0153 -0.1893 -0.0050
 4299TIP3    H134456   1.905   0.832   1.576 -0.2030  0.5496  0.6194
 4299TIP3    H234457   1.790   0.738   1.607 -0.4916  0.8162  0.3663
 4300TIP3   OH234458   0.000   4.400   0.691  0.1165 -0.1591  0.0670
 4300TIP3    H134459   0.070   4.378   0.752 -0.4280 -0.7478  0.4875
 4300TIP3    H234460  -0.074   4.346   0.718 -0.9513  1.4397  0.4914
 4301TIP3   OH234461   0.688   5.189   0.320  0.6320  0.0458  0.2589
 4301TIP3    H134462   0.646   5.264   0.278  0.3843 -0.1420  0.1676
 4301TIP3    H234463   0.765   5.226   0.363  0.8708  0.2417 -0.3290
 4302TIP3   OH234464   3.561   4.870   1.172 -0.0412  0.1347  0.0598
 4302TIP3    H134465   3.626   4.813   1.214 -0.7572  0.1261  1.1853
 4302TIP3    H234466   3.477   4.825   1.186 -0.7176  1.7302  1.5479
 4303TIP3   OH234467   3.290   4.609   2.619  0.2167  0.1210  0.9785
 4303TIP3    H134468   3.358   4.557   2.662  1.6674  0.3416 -0.9279
 4303TIP3    H234469   3.337   4.682   2.579 -0.9641 -0.2462 -1.2464
 4304TIP3   OH234470   1.675   2.906   0.415 -0.1052 -0.2778  0.3344
 4304TIP3    H134471   1.592   2.953   0.415  0.3937  0.6237 -0.1480
 4304TIP3    H234472   1.707   2.914   0.325  0.2543 -1.0712  0.3836
 4305TIP3   OH234473   2.036   2.202   1.644 -0.0602  0.1598  0.0686
 4305TIP3    H134474   1.942   2.193   1.659  0.0959 -1.1217  0.4466
 4305TIP3    H234475   2.076   2.159   1.720  0.8245  0.6070 -0.1388
 4306TIP3   OH234476   3.780   0.196   8.126 -0.6143  0.0064  0.5900
 4306TIP3    H134477   3.813   0.280   8.158  0.2983  0.4981 -1.4174
 4306TIP3    H234478   3.686   0.200   8.139 -0.5254  1.1468  0.9582
 4307TIP3   OH234479   0.904   5.278   0.451  0.8321  0.0529 -0.2149
 4307TIP3    H134480   0.981   5.302   0.400  0.8487 -2.0592 -1.2957
 4307TIP3    H234481   0.926   5.194   0.491 -0.5404 -0.1049  0.2767
 4308TIP3   OH234482   2.672   0.243   1.183 -0.0631 -0.2676 -0.2992
 4308TIP3    H134483   2.664   0.155   1.147 -0.4325 -0.4037  0.0933
 4308TIP3    H234484   2.741   0.285   1.132 -2.3776  0.4840 -3.0311
 4309TIP3   OH234485   0.807   4.478   1.457  0.0995 -0.1580 -0.1045
 4309TIP3    H134486   0.839   4.565   1.436 -1.5103  0.0254 -2.1322
 4309TIP3    H234487   0.882   4.420   1.444  0.5251  0.6324 -1.2972
 4310TIP3   OH234488   4.173   3.247   8.045 -0.6081  0.1541  0.4168
 4310TIP3    H134489   4.090   3.291   8.028  0.4981  1.7511 -1.1935
 4310TIP3    H234490   4.192   3.198   7.965  0.3977  0.5309  0.4039
 4311TIP3   OH234491   1.415   5.295   2.294 -0.2540 -0.2994 -0.7022
 4311TIP3    H134492   1.390   5.277   2.384  0.6182 -0.0793 -0.4108
 4311TIP3    H234493   1.502   5.256   2.285 -0.0597  0.2516 -1.2575
 4312TIP3   OH234494   4.536   0.398   0.951 -0.0213  0.2949 -0.0011
 4312TIP3    H134495   4.529   0.333   0.882  2.5537 -0.9646  0.7839
 4312TIP3    H234496   4.591   0.356   1.018 -1.4698  1.8575  2.3210
 4313TIP3   OH234497   1.198   4.452   1.985  0.1531  0.3313  0.3371
 4313TIP3    H134498   1.283   4.412   1.968  0.7559  1.3121  0.9165
 4313TIP3    H234499   1.156   4.393   2.048  0.3363 -0.2295 -0.0595
 4314TIP3   OH234500   2.735   1.936   0.372 -0.1146 -0.0177 -0.0770
 4314TIP3    H134501   2.797   2.008   0.383  0.1692 -0.2728  0.0076
 4314TIP3    H234502   2.789   1.861   0.345 -0.6115  0.2630 -2.0192
 4315TIP3   OH234503   1.936   1.908   2.371 -0.2965 -0.3036 -0.0720
 4315TIP3    H134504   1.974   1.986   2.412  1.5076 -1.4374  0.5342
 4315TIP3    H234505   1.966   1.913   2.280  0.3987 -0.6157  0.1319
 4316TIP3   OH234506   3.340   1.141   2.520  0.0712 -0.3147  0.5188
 4316TIP3    H134507   3.415   1.102   2.566 -0.4846 -0.5326  1.2671
 4316TIP3    H234508   3.378   1.186   2.445  0.8708 -1.0921  0.4516
 4317TIP3   OH234509   3.583   0.624   0.834 -0.0263  0.8231  0.1188
 4317TIP3    H134510   3.494   0.654   0.850 -0.7101 -0.5724 -0.8369
 4317TIP3    H234511   3.607   0.663   0.750  0.1666  0.9719  0.2417
 4318TIP3   OH234512   0.818   3.252   0.100 -0.1864  0.2654  0.2518
 4318TIP3    H134513   0.840   3.331   0.150  1.3584 -1.4389  2.4372
 4318TIP3    H234514   0.892   3.240   0.040  0.4499 -0.4668  1.1686
 4319TIP3   OH234515   5.820   2.776   3.190  0.4322  0.1523 -0.6193
 4319TIP3    H134516   5.811   2.871   3.175  1.4000  0.3057 -0.3037
 4319TIP3    H234517   5.832   2.768   3.284  2.1276 -0.1201 -0.8347
 4320TIP3   OH234518   6.735   4.268   0.096 -0.7130  0.0999 -0.4217
 4320TIP3    H134519   6.714   4.203   0.162 -0.4187 -0.3545 -0.7703
 4320TIP3    H234520   6.829   4.258   0.080 -1.0955 -1.1469 -2.2965
 4321TIP3   OH234521   2.897   0.278   1.032 -0.4289  0.4221 -0.1294
 4321TIP3    H134522   2.852   0.263   0.949 -1.6739 -2.4489  0.9317
 4321TIP3    H234523   2.949   0.198   1.045 -0.6470  0.5896  2.0516
 4322TIP3   OH234524   3.600   0.424   2.903 -0.2918  0.2819  0.1333
 4322TIP3    H134525   3.653   0.503   2.894 -0.9488  0.6342 -0.7128
 4322TIP3    H234526   3.520   0.452   2.947  0.2383 -0.2729  1.5128
 4323TIP3   OH234527   0.430   6.297   0.670 -0.1940  0.0891  0.6386
 4323TIP3    H134528   0.445   6.392   0.672 -2.2701  0.5445 -0.9913
 4323TIP3    H234529   0.363   6.283   0.738 -0.7364 -0.0097  0.0869
 4324TIP3   OH234530   1.793   6.170   0.531  0.5640  0.3118 -0.1875
 4324TIP3    H134531   1.724   6.209   0.584  0.4808 -0.6245  0.4333
 4324TIP3    H234532   1.810   6.233   0.462 -0.9229  0.5500 -0.3609
 4325TIP3   OH234533   1.960   6.172   8.684 -0.6144  0.3970 -0.2780
 4325TIP3    H134534   1.900   6.151   8.756  0.0905  0.6346  0.3993
 4325TIP3    H234535   1.967   6.091   8.634  2.1554 -1.2420  2.3529
 4326TIP3   OH234536   5.811   2.378   3.263  0.4225 -0.6930 -0.5827
 4326TIP3    H134537   5.855   2.445   3.315  0.3022  0.5493 -2.0247
 4326TIP3    H234538   5.817   2.299   3.316  2.2496  0.0035  0.3272
 4327TIP3   OH234539   6.244   5.035   3.456 -0.5252 -0.2001 -0.6473
 4327TIP3    H134540   6.257   4.940   3.458  0.7870 -0.0399  0.3461
 4327TIP3    H234541   6.295   5.067   3.531  0.0175  1.3835 -1.6481
 4328TIP3   OH234542   6.373   2.989   3.363  0.5003 -0.1345  0.1656
 4328TIP3    H134543   6.385   2.914   3.421  0.7143  0.0448  0.3504
 4328TIP3    H234544   6.287   2.973   3.322  0.3793 -0.2941  0.4767
 4329TIP3   OH234545   0.110   2.321   2.275 -0.1221  0.0240  0.3596
 4329TIP3    H134546   0.149   2.249   2.225 -1.3612 -0.0488 -0.5486
 4329TIP3    H234547   0.128   2.299   2.367 -1.3272 -1.9735  0.1743
 4330TIP3   OH234548   3.796   0.895   8.760 -0.3254 -0.0028 -1.2030
 4330TIP3    H134549   3.751   0.813   8.782  0.6565 -0.2139  0.1627
 4330TIP3    H234550   3.726   0.959   8.750 -0.9946 -0.4934  0.0945
 4331TIP3   OH234551   4.533   0.305   0.603 -0.5159  0.4358  0.0062
 4331TIP3    H134552   4.454   0.280   0.556  0.0645  0.0864 -0.8117
 4331TIP3    H234553   4.543   0.238   0.671 -0.7378  0.2948 -0.1006
 4332TIP3   OH234554   1.965   0.876   8.301 -0.5611  0.2451  0.0967
 4332TIP3    H134555   1.887   0.828   8.328 -1.5936  0.8244 -1.7380
 4332TIP3    H234556   1.982   0.936   8.374 -0.7431 -1.0795  1.2973
 4333TIP3   OH234557   2.162   3.795   2.884 -0.1147  0.1399 -0.5825
 4333TIP3    H134558   2.129   3.834   2.964  0.2247  1.3695 -1.0161
 4333TIP3    H234559   2.102   3.723   2.865 -0.4899  0.1640  0.4869
 4334TIP3   OH234560   5.996   0.472   1.271 -0.3777  0.2647  0.4204
 4334TIP3    H134561   5.995   0.379   1.249  0.3485  0.5414 -0.8672
 4334TIP3    H234562   6.059   0.479   1.343  0.6546 -0.0494 -0.4400
 4335TIP3   OH234563   0.515   6.028   0.637 -0.4578 -0.0426 -0.2847
 4335TIP3    H134564   0.516   6.117   0.670  3.0343 -0.2989  0.6386
 4335TIP3    H234565   0.553   5.975   0.707  2.6325 -1.3524 -2.7107
 4336TIP3   OH234566   0.233   5.294   8.448  0.2657 -0.0636  0.4246
 4336TIP3    H134567   0.179   5.359   8.403  1.2511  1.8889  1.9137
 4336TIP3    H234568   0.290   5.258   8.380 -0.9042 -0.0651 -0.5949
 4337TIP3   OH234569   6.181   3.404   0.029  0.3277  0.4496  0.3354
 4337TIP3    H134570   6.114   3.446   0.083 -0.3725  1.4872 -1.2727
 4337TIP3    H234571   6.140   3.323  -0.002 -0.2246  1.0987 -0.6722
 4338TIP3   OH234572   0.714   6.745   8.183  0.0015 -0.2251  0.0865
 4338TIP3    H134573   0.676   6.833   8.171 -0.4318 -0.5685 -1.2065
 4338TIP3    H234574   0.639   6.686   8.184  0.4032 -0.9034 -2.3926
 4339TIP3   OH234575   5.472   1.818   1.262  0.0585  0.1714  0.4295
 4339TIP3    H134576   5.404   1.785   1.320  0.2723 -2.2607 -0.6087
 4339TIP3    H234577   5.497   1.743   1.209  0.0111  2.1833 -2.7070
 4340TIP3   OH234578   5.838   5.619   2.539 -0.7075 -0.1113 -0.0418
 4340TIP3    H134579   5.794   5.700   2.565 -0.1483 -0.2392  1.3992
 4340TIP3    H234580   5.929   5.644   2.524 -1.1546  0.1671 -3.0822
 4341TIP3   OH234581   2.940   4.676   1.301 -0.4263  0.2410 -0.3349
 4341TIP3    H134582   2.865   4.685   1.241 -1.5831  1.0601  1.1602
 4341TIP3    H234583   2.906   4.707   1.385  1.6196  0.6376  0.3828
 4342TIP3   OH234584   1.615   3.574   3.538 -0.3253  0.1469  0.2627
 4342TIP3    H134585   1.555   3.512   3.496  1.4829 -2.0220  0.6817
 4342TIP3    H234586   1.586   3.577   3.629 -0.2357 -0.3393  0.3095
 4343TIP3   OH234587   1.613   1.659   0.646 -0.0481 -0.2821  0.1208
 4343TIP3    H134588   1.553   1.591   0.616  1.6401 -2.6931  1.8414
 4343TIP3    H234589   1.564   1.708   0.712 -0.6011 -1.2803  0.4696
 4344TIP3   OH234590   5.304   5.727   0.129 -0.4979  0.1135 -0.6256
 4344TIP3    H134591   5.288   5.677   0.209 -0.3944  1.1905  0.0871
 4344TIP3    H234592   5.225   5.715   0.077 -1.3383  0.8503  0.4325
 4345TIP3   OH234593   3.845   4.344   1.493 -0.7018  0.2725  0.5116
 4345TIP3    H134594   3.913   4.380   1.436 -1.3064  2.3328  0.9922
 4345TIP3    H234595   3.891   4.283   1.550  0.3256 -0.0477 -0.6185
 4346TIP3   OH234596   5.981   2.019   8.091 -0.4980 -0.2752  0.1579
 4346TIP3    H134597   5.981   1.951   8.024 -1.6984  0.3734 -0.5307
 4346TIP3    H234598   6.061   2.003   8.142 -1.8644 -3.6022  1.4833
 4347TIP3   OH234599   0.976   2.308   3.437 -0.1170 -0.2860 -0.2439
 4347TIP3    H134600   1.031   2.239   3.476 -0.6172 -0.3879  0.3059
 4347TIP3    H234601   0.925   2.341   3.511  0.4840  1.0361 -0.4033
 4348TIP3   OH234602   0.864   5.234   2.039 -0.0755 -0.0465 -0.1483
 4348TIP3    H134603   0.829   5.277   1.960  1.4496  1.8310  0.1496
 4348TIP3    H234604   0.792   5.240   2.102 -0.5980  0.2307 -0.7480
 4349TIP3   OH234605   5.286   5.257   8.129  0.2458  0.6738  0.1632
 4349TIP3    H134606   5.357   5.195   8.149 -0.1008 -0.0056 -0.6605
 4349TIP3    H234607   5.297   5.327   8.193  0.4078 -0.4384  1.4021
 4350TIP3   OH234608   1.697   2.773   1.971  0.5386  0.2951 -0.6442
 4350TIP3    H134609   1.632   2.713   1.935  2.0007 -1.0602 -1.1064
 4350TIP3    H234610   1.772   2.766   1.912  1.4371  1.1858  0.3453
 4351TIP3   OH234611   0.394   2.647   8.167  0.0243  0.2136  0.3167
 4351TIP3    H134612   0.300   2.661   8.175 -0.0447 -0.4280  0.7659
 4351TIP3    H234613   0.410   2.566   8.217  0.2831 -1.5363 -2.4003
 4352TIP3   OH234614   3.869   1.973   8.699  0.2453 -0.1312  0.3634
 4352TIP3    H134615   3.825   1.889   8.687 -0.2913  0.1609  0.2435
 4352TIP3    H234616   3.875   2.010   8.611 -0.4695  0.4196  0.5376
 4353TIP3   OH234617   0.451   3.722   3.713  0.3779  0.3912 -0.4826
 4353TIP3    H134618   0.366   3.679   3.718  0.0037  1.1629 -0.0344
 4353TIP3    H234619   0.482   3.704   3.625 -1.3704  2.1276 -1.5387
 4354TIP3   OH234620   3.296   2.822   0.890 -0.0530  0.1329  0.3625
 4354TIP3    H134621   3.322   2.823   0.982  1.7672 -1.6703 -0.0609
 4354TIP3    H234622   3.362   2.767   0.847 -1.0919  0.5862 -1.9534
 4355TIP3   OH234623   0.214   2.111   2.420  1.1338 -0.0045 -0.5206
 4355TIP3    H134624   0.296   2.086   2.376  1.0024 -0.2831 -0.6103
 4355TIP3    H234625   0.206   2.049   2.492  0.3237 -0.8466 -1.3037
 4356TIP3   OH234626   4.661   5.830   0.393 -0.1311 -0.1938  0.0036
 4356TIP3    H134627   4.618   5.746   0.377  1.4844 -1.2890  1.1498
 4356TIP3    H234628   4.741   5.808   0.441  0.2707  2.0148  0.4708
 4357TIP3   OH234629   3.363   1.777   2.192  0.1959  0.0750 -0.0477
 4357TIP3    H134630   3.437   1.750   2.139 -1.3706 -0.6376 -1.9754
 4357TIP3    H234631   3.350   1.705   2.254 -0.2027 -0.8325 -1.1493
 4358TIP3   OH234632   4.262   6.339   3.303  0.6459  0.0111 -0.4379
 4358TIP3    H134633   4.217   6.370   3.382  0.6549  1.0066 -0.8118
 4358TIP3    H234634   4.200   6.354   3.232  1.1332  0.3260 -0.8003
 4359TIP3   OH234635   2.821   5.023   0.882  0.4809  0.2140 -0.2813
 4359TIP3    H134636   2.797   5.041   0.791  1.9708 -0.5262 -0.8496
 4359TIP3    H234637   2.852   4.933   0.881 -1.7488 -0.6631  1.4525
 4360TIP3   OH234638   5.282   1.442   1.846  0.2386  0.2548 -0.1991
 4360TIP3    H134639   5.240   1.367   1.804 -0.1038  1.0580 -1.3741
 4360TIP3    H234640   5.274   1.512   1.781 -1.4242  1.9331  1.6782
 4361TIP3   OH234641   1.438   3.842   2.922 -0.5546 -0.0363 -1.0365
 4361TIP3    H134642   1.381   3.826   2.997  0.3519  0.7675 -0.1479
 4361TIP3    H234643   1.472   3.756   2.899 -2.0265 -0.5102 -1.5133
 4362TIP3   OH234644   2.308   2.321   4.145 -0.2322  0.1290  0.0901
 4362TIP3    H134645   2.339   2.410   4.128 -1.1937  0.1155 -2.1512
 4362TIP3    H234646   2.242   2.306   4.077 -0.7480 -1.9808  0.9802
 4363TIP3   OH234647   4.835   4.436   8.473 -1.2759 -0.1922 -0.0456
 4363TIP3    H134648   4.905   4.381   8.438 -0.6603 -0.2600  1.2262
 4363TIP3    H234649   4.846   4.520   8.429 -0.1718 -0.1030  0.3657
 4364TIP3   OH234650   2.984   4.847   2.005  0.6726  0.0280  0.4556
 4364TIP3    H134651   3.042   4.911   2.047  2.5140 -1.2659  0.0332
 4364TIP3    H234652   3.036   4.811   1.933 -0.6631 -1.2264  0.0571
 4365TIP3   OH234653   4.155   1.054   0.452 -0.4855  0.5637 -1.1422
 4365TIP3    H134654   4.137   1.043   0.545 -2.3292  2.3495 -1.2142
 4365TIP3    H234655   4.242   1.095   0.449  0.2684 -0.9124 -0.3257
 4366TIP3   OH234656   4.484   1.646   1.340  0.1578  0.2290  0.2210
 4366TIP3    H134657   4.550   1.598   1.389 -1.1394 -0.3026  1.5291
 4366TIP3    H234658   4.404   1.594   1.350 -0.4753  0.8292 -1.3307
 4367TIP3   OH234659   1.219   6.683   2.321  1.1144  0.9565  0.3349
 4367TIP3    H134660   1.230   6.594   2.288  1.3506  0.3170  1.9980
 4367TIP3    H234661   1.211   6.672   2.416 -0.4249  2.5911  0.4480
 4368TIP3   OH234662   6.804   1.367   0.941 -0.3818 -0.2360  0.1115
 4368TIP3    H134663   6.719   1.324   0.953  0.1273 -1.4752 -0.5460
 4368TIP3    H234664   6.781   1.454   0.908 -1.3925 -0.7562 -0.6412
 4369TIP3   OH234665   1.187   5.140   1.039  0.2953 -0.4011 -0.2722
 4369TIP3    H134666   1.103   5.177   1.014 -1.0405 -1.8956  1.6780
 4369TIP3    H234667   1.167   5.050   1.065  2.4070 -0.6610  0.6673
 4370TIP3   OH234668   5.467   6.561   2.407  0.5578  0.0456 -0.0538
 4370TIP3    H134669   5.492   6.647   2.441 -0.0827  0.2044  0.0331
 4370TIP3    H234670   5.419   6.520   2.480 -2.4954  1.1178 -1.3015
 4371TIP3   OH234671   0.854   6.606   0.155  0.1337 -0.5269  0.0585
 4371TIP3    H134672   0.850   6.656   0.236  1.4122  0.0798 -0.2362
 4371TIP3    H234673   0.787   6.646   0.099  0.7118  0.4559  0.0545
 4372TIP3   OH234674   0.941   6.783   1.953 -0.2473  0.4918  0.1843
 4372TIP3    H134675   0.918   6.695   1.985  0.8379  0.3490  0.6014
 4372TIP3    H234676   0.998   6.819   2.021  0.2793  1.0587 -0.5492
 4373TIP3   OH234677   6.113   2.959   3.047  0.5904 -0.1657  0.3353
 4373TIP3    H134678   6.135   2.874   3.085  0.1764 -0.0642  0.8210
 4373TIP3    H234679   6.089   3.013   3.122  1.4305  0.5657  0.0849
 4374TIP3   OH234680   1.134   5.591   1.779 -0.1411  0.2202 -0.6477
 4374TIP3    H134681   1.224   5.607   1.751  0.3043  3.5758  2.1622
 4374TIP3    H234682   1.142   5.533   1.854 -0.3986  0.1455 -0.6764
 4375TIP3   OH234683   6.305   1.563   1.802 -0.3545  0.4099  0.0136
 4375TIP3    H134684   6.360   1.498   1.758 -0.3812  0.8223 -0.6402
 4375TIP3    H234685   6.340   1.566   1.891 -0.6847 -0.8754  0.2113
 4376TIP3   OH234686   3.461   6.695   3.329  0.1928  0.1920  0.1918
 4376TIP3    H134687   3.489   6.621   3.383 -1.1022 -0.4143  0.0749
 4376TIP3    H234688   3.519   6.767   3.354 -0.7503  0.1293  2.8469
 4377TIP3   OH234689   1.256   6.134   0.056  0.0427 -0.4562 -0.4480
 4377TIP3    H134690   1.179   6.089   0.021  1.2252 -0.5991 -3.1871
 4377TIP3    H234691   1.251   6.222   0.017  1.2804 -0.4950 -0.7214
 4378TIP3   OH234692   0.131   0.515   1.860 -0.3771 -0.0589 -0.9220
 4378TIP3    H134693   0.056   0.469   1.822  1.1454 -2.3517 -1.3535
 4378TIP3    H234694   0.094   0.564   1.934 -1.8737 -4.2786  1.4867
 4379TIP3   OH234695   3.324   6.336   0.583  0.3761 -0.1720  0.1727
 4379TIP3    H134696   3.270   6.349   0.505  0.5240 -0.4927  0.0150
 4379TIP3    H234697   3.375   6.416   0.590  0.0639  0.0271  0.1753
 4380TIP3   OH234698   2.618   5.384   2.444 -0.0104  0.1740  0.7202
 4380TIP3    H134699   2.584   5.309   2.396  0.9892 -1.1753  2.0458
 4380TIP3    H234700   2.689   5.349   2.497 -0.1806  1.8433  2.1570
 4381TIP3   OH234701   3.548   6.285   2.672 -0.0797  0.0803 -0.3484
 4381TIP3    H134702   3.601   6.209   2.698 -1.6941 -1.3669 -1.1198
 4381TIP3    H234703   3.591   6.359   2.715  0.9389 -1.3847  1.3207
 4382TIP3   OH234704   5.050   4.433   2.366  0.7867 -0.0025 -0.5328
 4382TIP3    H134705   5.106   4.358   2.389  2.8625  1.5360 -0.2155
 4382TIP3    H234706   5.109   4.508   2.370 -1.5048  1.8661  0.4890
 4383TIP3   OH234707   1.572   1.335   8.604  0.2902 -0.7511 -0.7548
 4383TIP3    H134708   1.582   1.328   8.699  0.2432 -0.9734 -0.7659
 4383TIP3    H234709   1.517   1.412   8.591  1.4946  0.1544 -0.6664
 4384TIP3   OH234710   4.135   2.600   0.349 -0.3786 -0.2842 -0.1536
 4384TIP3    H134711   4.213   2.632   0.394 -0.3083 -0.6506 -0.0125
 4384TIP3    H234712   4.064   2.655   0.383 -0.2905 -0.4075  0.2453
 4385TIP3   OH234713   3.280   6.350   2.669  0.3357 -0.4987 -0.6789
 4385TIP3    H134714   3.252   6.261   2.688 -0.1950 -0.1068  0.4221
 4385TIP3    H234715   3.374   6.343   2.651  0.4934 -1.1498  0.3572
 4386TIP3   OH234716   5.926   6.722   7.998  0.0530  0.2310  0.8127
 4386TIP3    H134717   6.019   6.699   7.999 -0.0523 -0.2063  0.5868
 4386TIP3    H234718   5.925   6.817   7.985  0.5000  0.4275  2.0933
 4387TIP3   OH234719   3.386   2.237   1.131 -0.7097  0.1894  0.2187
 4387TIP3    H134720   3.407   2.326   1.104 -0.0883  0.2665  0.9519
 4387TIP3    H234721   3.328   2.204   1.061  0.6601  0.4541 -1.0945
 4388TIP3   OH234722   5.074   0.420   3.464  0.3730 -0.4573  0.3204
 4388TIP3    H134723   5.033   0.373   3.391  0.7088  0.5393 -0.5352
 4388TIP3    H234724   5.000   0.448   3.518 -0.1530  1.2428 -1.1588
 4389TIP3   OH234725   2.804   1.479   8.522 -0.3064 -0.1027  0.2404
 4389TIP3    H134726   2.716   1.512   8.505 -0.1770 -0.9991 -2.6599
 4389TIP3    H234727   2.862   1.552   8.499 -0.2195 -0.0944  0.4775
 4390TIP3   OH234728   4.214   2.920   8.647  0.1974 -0.7863 -0.0897
 4390TIP3    H134729   4.182   2.832   8.662 -1.2158 -0.1782  0.6153
 4390TIP3    H234730   4.169   2.974   8.711  2.6987  0.1426  1.0211
 4391TIP3   OH234731   3.952   2.003   0.820  0.5627  0.4027 -0.1185
 4391TIP3    H134732   3.930   2.096   0.808  0.2515  0.2748 -0.5835
 4391TIP3    H234733   3.867   1.958   0.818  0.7965 -0.0431 -1.4214
 4392TIP3   OH234734   6.204   1.778   0.410  0.0860  0.9322 -0.1176
 4392TIP3    H134735   6.138   1.714   0.381  0.5668  0.8346 -1.0293
 4392TIP3    H234736   6.153   1.848   0.450 -0.4091 -0.4188  1.7603
 4393TIP3   OH234737   3.321   1.145   1.609  0.6526  0.2403 -0.6193
 4393TIP3    H134738   3.311   1.220   1.668 -0.0971  0.5358 -1.0964
 4393TIP3    H234739   3.312   1.068   1.666 -2.5153  0.4833 -0.6161
 4394TIP3   OH234740   4.906   2.763   1.269 -0.3194 -0.2911  0.0220
 4394TIP3    H134741   4.940   2.685   1.313  0.7308 -0.5291 -1.1584
 4394TIP3    H234742   4.811   2.752   1.269 -0.1487 -2.3957 -1.5405
 4395TIP3   OH234743   2.403   6.242   2.405 -0.1483  0.2533 -0.0208
 4395TIP3    H134744   2.479   6.252   2.347  1.7863 -0.7919  2.1676
 4395TIP3    H234745   2.348   6.317   2.385  2.3792  2.1571 -0.4312
 4396TIP3   OH234746   0.651   0.005   1.341  0.9231 -0.1640  0.0578
 4396TIP3    H134747   0.702   0.085   1.343 -0.1649  0.5816 -0.8141
 4396TIP3    H234748   0.710  -0.061   1.305  1.2188  0.7228 -1.1258
 4397TIP3   OH234749   1.015   3.694   1.156  0.5733 -0.0129 -0.0608
 4397TIP3    H134750   0.999   3.776   1.110  0.4019 -0.0494 -0.0701
 4397TIP3    H234751   1.042   3.633   1.088 -2.2500 -0.8119 -0.6233
 4398TIP3   OH234752   0.960   0.328   0.852  0.3669  0.2862  0.0927
 4398TIP3    H134753   1.021   0.359   0.785 -0.2318  1.6512  0.1465
 4398TIP3    H234754   1.004   0.346   0.935 -0.5388  2.3330  0.1713
 4399TIP3   OH234755   0.012   2.382   8.165  0.9503  0.3266 -0.1763
 4399TIP3    H134756  -0.033   2.409   8.085  0.3606  1.0629  0.3900
 4399TIP3    H234757  -0.048   2.319   8.206  1.2773 -0.0933 -0.3295
 4400TIP3   OH234758   6.044   6.052   0.154 -0.2993  0.1003 -0.0920
 4400TIP3    H134759   5.950   6.056   0.171 -0.5723  0.3278 -1.5420
 4400TIP3    H234760   6.071   6.143   0.149 -0.0979  0.0337 -0.2137
 4401TIP3   OH234761   5.994   2.083   0.977 -0.2774 -0.0249  0.2330
 4401TIP3    H134762   6.047   2.124   1.046  0.4925  2.5866 -1.7509
 4401TIP3    H234763   5.904   2.105   1.000 -0.2780 -1.3574  1.6859
 4402TIP3   OH234764   6.355   4.431   7.855 -0.0751  0.5149 -0.2047
 4402TIP3    H134765   6.408   4.501   7.815  1.4752 -0.0795  0.7043
 4402TIP3    H234766   6.325   4.378   7.781 -2.5484  2.8799 -1.0829
 4403TIP3   OH234767   1.374   4.112   1.442  0.3227 -0.1144 -0.4830
 4403TIP3    H134768   1.411   4.199   1.426  0.1352  0.1667  0.5371
 4403TIP3    H234769   1.414   4.083   1.524  0.2006 -0.8925 -0.6901
 4404TIP3   OH234770   6.319   3.021   2.628  0.2104  0.1033 -0.0905
 4404TIP3    H134771   6.400   3.022   2.578  0.1879 -0.2841 -0.1385
 4404TIP3    H234772   6.346   3.031   2.719  0.3172 -0.0724 -0.1020
 4405TIP3   OH234773   1.447   1.984   2.723 -0.1421 -0.5420 -0.0914
 4405TIP3    H134774   1.417   1.965   2.811  1.8802 -2.3772  0.2860
 4405TIP3    H234775   1.441   1.900   2.677  0.5556 -0.0321 -1.1557
 4406TIP3   OH234776   4.057   0.557   8.358 -0.2848  0.0762 -0.8182
 4406TIP3    H134777   4.008   0.613   8.417 -0.7164 -1.6724  0.5577
 4406TIP3    H234778   3.991   0.502   8.316  0.3320 -1.4524  0.1291
 4407TIP3   OH234779   5.174   3.335   2.992 -0.1943 -0.0659  0.0758
 4407TIP3    H134780   5.259   3.324   3.036 -0.9032 -0.7470  1.3462
 4407TIP3    H234781   5.136   3.247   2.991 -0.1977 -0.0904 -2.0173
 4408TIP3   OH234782   3.322   2.508   2.598 -0.1073 -0.3579  0.0870
 4408TIP3    H134783   3.230   2.482   2.606 -0.5356  0.9248 -0.4009
 4408TIP3    H234784   3.320   2.589   2.547  1.2393  0.0789  0.6729
 4409TIP3   OH234785   3.455   4.608   1.452 -0.2158 -0.1175  0.1606
 4409TIP3    H134786   3.527   4.545   1.440 -1.5593 -2.0986  1.6905
 4409TIP3    H234787   3.381   4.567   1.408 -0.9720  0.7355  0.6321
 4410TIP3   OH234788   1.692   0.131   1.872  0.1926  0.0820  0.2642
 4410TIP3    H134789   1.625   0.195   1.849  0.0331  0.5378  1.8624
 4410TIP3    H234790   1.735   0.168   1.950 -0.6729 -2.2243  1.9587
 4411TIP3   OH234791   6.330   2.712   2.763 -0.0521  0.3946 -0.1828
 4411TIP3    H134792   6.374   2.658   2.698 -0.5157 -1.4071  0.9246
 4411TIP3    H234793   6.247   2.737   2.721 -0.1275 -0.3245 -0.4810
 4412TIP3   OH234794   4.396   3.890   3.641 -0.6526 -0.0350  0.5219
 4412TIP3    H134795   4.476   3.942   3.630 -0.9164 -0.1404 -2.5451
 4412TIP3    H234796   4.332   3.952   3.677  0.2043  0.6040  0.9823
 4413TIP3   OH234797   6.643   4.224   0.788 -0.2266 -0.2247 -0.3457
 4413TIP3    H134798   6.700   4.148   0.801  0.3273  0.3094  0.3496
 4413TIP3    H234799   6.587   4.225   0.866  0.6709  0.8581  0.3061
 4414TIP3   OH234800   5.449   1.039   7.859 -0.9794 -0.6422 -0.2659
 4414TIP3    H134801   5.528   1.060   7.908  0.9248 -2.7621 -2.1661
 4414TIP3    H234802   5.442   1.107   7.793 -0.5239 -0.6257 -0.2987
 4415TIP3   OH234803   1.477   2.944   3.142  0.6367 -0.3290  0.3357
 4415TIP3    H134804   1.449   2.891   3.067 -0.8104 -1.4053  1.5575
 4415TIP3    H234805   1.401   2.999   3.163  0.1484 -1.6126  2.2882
 4416TIP3   OH234806   3.609   5.004   0.941 -0.5942  0.1744 -0.2568
 4416TIP3    H134807   3.522   5.008   0.901 -1.7412  0.8082  2.0890
 4416TIP3    H234808   3.597   4.951   1.020  0.7156  1.6090  0.9956
 4417TIP3   OH234809   1.119   6.140   3.282 -0.2671  0.7517  0.1693
 4417TIP3    H134810   1.177   6.158   3.356 -1.1759  3.5637  0.3325
 4417TIP3    H234811   1.153   6.195   3.211 -1.0590  0.2429 -0.6234
 4418TIP3   OH234812   6.424   4.080   8.611 -0.5399  0.6906  0.2263
 4418TIP3    H134813   6.348   4.119   8.656  0.0730  3.3588 -0.8263
 4418TIP3    H234814   6.389   4.052   8.526 -1.0625 -1.5973  1.1217
 4419TIP3   OH234815   0.284   1.728   2.769  0.7462 -0.0575 -0.1602
 4419TIP3    H134816   0.281   1.744   2.863  0.9510  0.9053 -0.3136
 4419TIP3    H234817   0.239   1.644   2.758 -0.8232  0.6497  0.6045
 4420TIP3   OH234818   0.407   1.822   1.843  0.0560  0.1487  0.8009
 4420TIP3    H134819   0.477   1.769   1.883  0.3600  0.9184  1.3102
 4420TIP3    H234820   0.344   1.758   1.811  1.7334 -0.6480 -1.0954
 4421TIP3   OH234821   5.432   0.759   8.449  0.1326 -0.7088 -0.7031
 4421TIP3    H134822   5.511   0.752   8.503  0.1450 -0.2836 -0.6649
 4421TIP3    H234823   5.444   0.839   8.397 -0.5158 -0.3286 -0.2884
 4422TIP3   OH234824   2.454   1.251   2.766 -0.6111 -0.0066 -0.8756
 4422TIP3    H134825   2.380   1.281   2.819  0.1375 -0.5289  0.5182
 4422TIP3    H234826   2.435   1.159   2.747 -0.6740  0.0644 -1.1655
 4423TIP3   OH234827   4.735   1.868   3.818  0.2114  0.3912  0.2307
 4423TIP3    H134828   4.800   1.823   3.873  2.2152 -0.3379 -2.5247
 4423TIP3    H234829   4.664   1.805   3.810  0.3683  0.0863  1.1148
 4424TIP3   OH234830   1.697   1.793   3.432  0.1257 -0.8613 -0.0521
 4424TIP3    H134831   1.701   1.697   3.432 -1.0574 -0.9294  0.1773
 4424TIP3    H234832   1.757   1.819   3.362  0.2169 -1.7875 -0.3436
 4425TIP3   OH234833   0.712   0.724   8.642  0.0151  0.4850  0.2062
 4425TIP3    H134834   0.686   0.753   8.730 -0.2781 -0.2539  0.3771
 4425TIP3    H234835   0.701   0.629   8.645 -1.9362  0.5936 -1.2338
 4426TIP3   OH234836   1.392   2.861   4.169  0.3156  0.1066  0.1919
 4426TIP3    H134837   1.453   2.817   4.110  0.9159  0.3432  0.6224
 4426TIP3    H234838   1.387   2.804   4.246 -0.6904 -0.3483 -0.1922
 4427TIP3   OH234839   6.726   0.274   2.464  1.1227 -0.0747  0.0712
 4427TIP3    H134840   6.723   0.282   2.560  1.8399 -3.6542  0.5187
 4427TIP3    H234841   6.780   0.348   2.436  1.1635  0.8920  2.4375
 4428TIP3   OH234842   3.964   1.348   2.107 -0.0470 -0.0679 -0.1944
 4428TIP3    H134843   4.059   1.355   2.114 -0.1033  0.2854  0.2124
 4428TIP3    H234844   3.930   1.415   2.167 -0.5474  1.0075 -1.6344
 4429TIP3   OH234845   3.014   0.738   4.096 -0.0663 -0.0936  0.5147
 4429TIP3    H134846   3.106   0.713   4.106  0.5109  1.4308 -0.5468
 4429TIP3    H234847   2.991   0.711   4.007 -0.8549 -1.0231  0.9864
 4430TIP3   OH234848   5.833   6.128   3.687 -0.2747  0.1827  0.0536
 4430TIP3    H134849   5.819   6.042   3.648  2.2934 -0.0712 -0.5165
 4430TIP3    H234850   5.901   6.114   3.753 -0.4607  1.6177  0.5952
 4431TIP3   OH234851   0.748   0.452   0.946  0.1678  0.2604  0.9510
 4431TIP3    H134852   0.812   0.386   0.919 -0.5354  0.0955 -0.3807
 4431TIP3    H234853   0.801   0.521   0.986  1.0070 -0.6492  1.4652
 4432TIP3   OH234854   5.067   0.342   0.293 -0.5670  0.4710  0.0691
 4432TIP3    H134855   5.142   0.288   0.320 -1.0954  0.0490  0.7269
 4432TIP3    H234856   4.997   0.279   0.276 -0.3527  0.7544 -2.0085
 4433TIP3   OH234857   1.455   3.328   3.782  0.2364  0.0489 -0.1549
 4433TIP3    H134858   1.360   3.333   3.795  0.4219 -0.0451  1.4418
 4433TIP3    H234859   1.488   3.413   3.812  0.7141 -0.1497 -0.1130
 4434TIP3   OH234860   0.924   5.154   0.850  0.3069 -0.0256 -0.2893
 4434TIP3    H134861   0.842   5.110   0.831  0.1434  0.0627  0.2240
 4434TIP3    H234862   0.906   5.208   0.926  0.5088  0.9163 -0.8920
 4435TIP3   OH234863   0.287   5.013   3.656  0.4430  0.1097  0.0774
 4435TIP3    H134864   0.373   4.990   3.621 -0.1352  0.9081 -1.9951
 4435TIP3    H234865   0.291   5.108   3.669 -0.0218  0.1096  0.2399
 4436TIP3   OH234866   5.517   2.161   1.898  0.5339 -0.5741 -0.1624
 4436TIP3    H134867   5.610   2.144   1.888  0.7986 -0.0253  1.1016
 4436TIP3    H234868   5.508   2.192   1.988 -0.8086 -0.2090 -0.3944
 4437TIP3   OH234869   1.058   4.215   0.328  0.0604  0.1383 -0.4877
 4437TIP3    H134870   1.009   4.222   0.246 -0.7494 -1.0925 -0.1521
 4437TIP3    H234871   1.149   4.201   0.301 -0.1485  0.0707 -1.1698
 4438TIP3   OH234872   1.113   3.070   1.962  0.0524 -0.1757  0.5325
 4438TIP3    H134873   1.206   3.087   1.946 -0.0306 -0.4636 -0.2626
 4438TIP3    H234874   1.080   3.034   1.880 -0.7554 -0.1223  0.8241
 4439TIP3   OH234875   1.084   0.675   0.148  0.6766 -0.2128 -0.0848
 4439TIP3    H134876   1.066   0.729   0.071  0.7730 -2.4567 -1.7754
 4439TIP3    H234877   1.180   0.669   0.152  0.7066 -2.9132 -2.0148
 4440TIP3   OH234878   5.740   4.367   1.004  0.6773  0.2582 -0.1271
 4440TIP3    H134879   5.688   4.327   1.073 -2.6056  2.2826 -1.1603
 4440TIP3    H234880   5.732   4.307   0.930  0.6522  0.0492  0.0475
 4441TIP3   OH234881   6.770   4.421   3.151  0.5325  0.1043 -0.5111
 4441TIP3    H134882   6.731   4.409   3.064 -0.7398  1.6904 -0.2023
 4441TIP3    H234883   6.732   4.502   3.183  2.9305  0.8916  0.5074
 4442TIP3   OH234884   4.537   2.049   8.467  0.3152  0.6507  0.2187
 4442TIP3    H134885   4.533   2.123   8.406  0.9029  0.0397 -0.5688
 4442TIP3    H234886   4.629   2.044   8.493  0.5584 -0.6544 -0.8134
 4443TIP3   OH234887   1.661   2.175   0.187  0.2570  0.5770 -0.0396
 4443TIP3    H134888   1.627   2.212   0.106  1.0186  1.8922  0.1994
 4443TIP3    H234889   1.740   2.128   0.161  1.2182  2.0615  0.0480
 4444TIP3   OH234890   0.660   0.877   3.229  0.4670  0.0410 -0.3118
 4444TIP3    H134891   0.618   0.897   3.312 -2.6076  2.3763 -2.2243
 4444TIP3    H234892   0.592   0.834   3.177  2.6898 -2.6140 -1.3207
 4445TIP3   OH234893   5.346   2.290   8.221  0.0579 -0.2185 -0.0721
 4445TIP3    H134894   5.329   2.379   8.188  1.3448  0.0211 -0.1423
 4445TIP3    H234895   5.283   2.235   8.176 -0.3529  0.5764 -0.4930
 4446TIP3   OH234896   2.336   4.861   3.385  0.5572  0.1587 -0.2755
 4446TIP3    H134897   2.397   4.793   3.354 -1.4231 -1.1153 -1.6318
 4446TIP3    H234898   2.304   4.828   3.469 -0.6453 -0.8462 -1.0803
 4447TIP3   OH234899   1.567   1.781   0.287  0.2834  0.0579 -0.0414
 4447TIP3    H134900   1.545   1.874   0.290 -0.7140 -0.1916  1.9310
 4447TIP3    H234901   1.608   1.763   0.372  1.3258 -1.1192 -0.7586
 4448TIP3   OH234902   1.499   4.762   2.243  0.0117  0.1655  0.4420
 4448TIP3    H134903   1.572   4.721   2.196 -0.4430  1.1170 -1.1496
 4448TIP3    H234904   1.424   4.750   2.185 -0.6257  1.1640  1.0415
 4449TIP3   OH234905   6.139   5.332   0.340  0.0314 -0.4407 -0.7239
 4449TIP3    H134906   6.201   5.274   0.385  1.5036  0.8427 -1.0158
 4449TIP3    H234907   6.192   5.406   0.310 -1.6961  0.8319 -0.8036
 4450TIP3   OH234908   6.714   4.598   2.418 -0.0097 -0.0567  0.8028
 4450TIP3    H134909   6.619   4.587   2.416 -0.2365  1.7159  0.2217
 4450TIP3    H234910   6.731   4.642   2.501  0.2186  0.3193  0.5571
 4451TIP3   OH234911   3.457   3.547   1.150  0.3463 -0.6922  0.3150
 4451TIP3    H134912   3.439   3.632   1.110  0.4389 -1.7498 -2.2086
 4451TIP3    H234913   3.552   3.543   1.158  0.5763 -1.4708 -2.0077
 4452TIP3   OH234914   0.406   1.544   0.355 -0.4093 -0.0231  0.4761
 4452TIP3    H134915   0.412   1.542   0.451  0.3363 -1.5096  0.4405
 4452TIP3    H234916   0.327   1.494   0.335 -0.5497  0.2637  0.3133
 4453TIP3   OH234917   3.117   5.928   3.653  0.0513 -0.3858 -0.7251
 4453TIP3    H134918   3.187   5.864   3.636 -1.2222 -1.5384 -1.8103
 4453TIP3    H234919   3.036   5.878   3.645 -0.9343  0.7286  1.2856
 4454TIP3   OH234920   0.083   3.033   2.246  0.0991  0.2932 -0.0289
 4454TIP3    H134921   0.158   3.090   2.228 -0.5085  0.2500 -3.2189
 4454TIP3    H234922   0.115   2.945   2.227 -0.4180  0.1477 -0.2407
 4455TIP3   OH234923   6.191   6.447   1.905 -0.1259  0.5174  0.1989
 4455TIP3    H134924   6.165   6.499   1.981 -0.4700  0.0922  0.3792
 4455TIP3    H234925   6.184   6.507   1.831 -0.5817  0.7084  0.3947
 4456TIP3   OH234926   3.316   5.336   0.756  0.0140 -0.0209 -0.2131
 4456TIP3    H134927   3.262   5.346   0.834 -1.1084 -0.4152 -0.9163
 4456TIP3    H234928   3.396   5.384   0.776 -0.2099 -0.1900  1.2116
 4457TIP3   OH234929   0.985   2.590   0.409 -0.0439 -0.1395 -1.3635
 4457TIP3    H134930   1.054   2.523   0.419 -1.9388 -2.0858 -0.5430
 4457TIP3    H234931   1.014   2.644   0.336  0.7487 -2.9681 -3.2874
 4458TIP3   OH234932   1.695   0.982   8.690 -0.0109  0.5405 -0.0809
 4458TIP3    H134933   1.768   0.986   8.751 -1.6845  1.8861  1.9847
 4458TIP3    H234934   1.708   1.057   8.632  1.4900 -0.6436 -1.3705
 4459TIP3   OH234935   3.325   4.219   3.005  0.4872 -0.4782  0.9785
 4459TIP3    H134936   3.282   4.159   2.944  0.7420  0.3471 -0.0562
 4459TIP3    H234937   3.266   4.223   3.080 -1.0823  0.3171 -0.2204
 4460TIP3   OH234938   6.395   6.494   2.583  0.3874  0.2227  0.4773
 4460TIP3    H134939   6.400   6.525   2.492  1.1835 -0.4900  0.2631
 4460TIP3    H234940   6.483   6.509   2.618  0.1495  0.2690  1.0583
 4461TIP3   OH234941   4.964   5.588   0.240 -0.4025 -0.1648 -0.0163
 4461TIP3    H134942   4.952   5.644   0.163  0.3128  0.5628  0.3800
 4461TIP3    H234943   5.003   5.508   0.205  0.8299  0.5323 -0.3247
 4462TIP3   OH234944   2.665   2.404   8.275 -0.1415 -0.2603 -0.5342
 4462TIP3    H134945   2.577   2.442   8.285 -0.3047 -0.8728  0.4425
 4462TIP3    H234946   2.713   2.469   8.224 -1.3246 -0.1716 -1.5953
 4463TIP3   OH234947   0.419   6.422   2.618  0.1952 -0.0816  0.0304
 4463TIP3    H134948   0.405   6.395   2.528 -1.2250  0.0346  0.1864
 4463TIP3    H234949   0.347   6.483   2.636  0.5460  0.0170  1.1875
 4464TIP3   OH234950   3.149   4.366   2.449  0.1188 -1.0619 -0.5356
 4464TIP3    H134951   3.179   4.296   2.392 -0.0182 -0.4663 -1.3449
 4464TIP3    H234952   3.216   4.433   2.444  0.0335 -0.9369 -0.1110
 4465TIP3   OH234953   5.687   0.677   1.608 -0.5649  0.4481 -0.1587
 4465TIP3    H134954   5.768   0.713   1.644  0.6190 -1.8897 -0.2908
 4465TIP3    H234955   5.701   0.677   1.513 -0.9798  0.5718 -0.2236
 4466TIP3   OH234956   1.211   3.569   8.730 -0.0576  0.3608 -0.0135
 4466TIP3    H134957   1.223   3.502   8.797  0.0762  0.5838  0.1860
 4466TIP3    H234958   1.171   3.523   8.657  0.1627  0.0315  0.0719
 4467TIP3   OH234959   3.114   0.969   2.093 -0.5146 -0.0130  0.3668
 4467TIP3    H134960   3.022   0.972   2.066  0.3620 -0.3947 -3.2365
 4467TIP3    H234961   3.142   0.880   2.071  0.7726  0.1478  1.2418
 4468TIP3   OH234962   4.140   2.391   0.755  0.3287  0.3304  0.2874
 4468TIP3    H134963   4.230   2.423   0.759  0.7641 -0.7466 -0.4692
 4468TIP3    H234964   4.121   2.385   0.661  0.1286 -1.1857  0.4072
 4469TIP3   OH234965   1.348   6.314   2.148  0.1055  0.4839  0.1429
 4469TIP3    H134966   1.341   6.393   2.094  3.6028  0.7341 -0.1982
 4469TIP3    H234967   1.353   6.242   2.085 -0.3874  0.2669  0.3452
 4470TIP3   OH234968   5.332   0.066   2.091 -0.0932  0.5960 -0.7201
 4470TIP3    H134969   5.292   0.113   2.164  0.8291  1.7106 -0.8890
 4470TIP3    H234970   5.272  -0.006   2.072 -0.4873  0.4394  0.9521
 4471TIP3   OH234971   3.884   0.094   2.209  0.3065  0.6525  0.2414
 4471TIP3    H134972   3.903   0.030   2.277 -2.0063  1.8377  2.1342
 4471TIP3    H234973   3.927   0.059   2.131 -0.7943 -3.1995  1.1655
 4472TIP3   OH234974   4.671   2.427   1.206 -0.7443 -0.4664  0.0541
 4472TIP3    H134975   4.665   2.356   1.270  1.0100  1.3015  2.3305
 4472TIP3    H234976   4.732   2.393   1.139  0.9481 -0.7771  1.6732
 4473TIP3   OH234977   2.614   3.722   1.362 -0.4659  0.2441 -0.6959
 4473TIP3    H134978   2.699   3.688   1.390 -0.5694  0.4605 -0.1161
 4473TIP3    H234979   2.589   3.666   1.288 -0.0463 -0.1252 -0.5605
 4474TIP3   OH234980   6.177   1.783   1.650  0.8456 -0.3578 -0.1795
 4474TIP3    H134981   6.183   1.824   1.736  2.3437 -0.1259 -0.3593
 4474TIP3    H234982   6.143   1.696   1.667  1.6985 -0.5290  0.7340
 4475TIP3   OH234983   3.022   3.392   1.302  0.4085 -0.5004  0.0237
 4475TIP3    H134984   3.022   3.301   1.273 -0.2414 -1.1391  1.8800
 4475TIP3    H234985   3.112   3.409   1.330  0.0037 -1.4110  2.0089
 4476TIP3   OH234986   5.822   0.795   0.221  0.2612  0.0974  0.5307
 4476TIP3    H134987   5.820   0.832   0.309 -2.1848 -0.3324  0.7236
 4476TIP3    H234988   5.915   0.784   0.201  0.8829 -1.3763  3.7279
 4477TIP3   OH234989   2.002   6.208   1.870 -0.5401 -0.1532 -0.1802
 4477TIP3    H134990   2.066   6.278   1.882 -0.0495 -0.4097 -1.1448
 4477TIP3    H234991   2.022   6.144   1.938 -1.5938  1.0298  1.3247
 4478TIP3   OH234992   4.443   3.748   0.625 -0.0627 -0.1897  0.1705
 4478TIP3    H134993   4.430   3.838   0.656  0.5268 -0.0568  0.0384
 4478TIP3    H234994   4.537   3.743   0.606  0.0220 -1.0226  0.7690
 4479TIP3   OH234995   4.095   0.045   0.150  0.1516 -0.0298  0.3624
 4479TIP3    H134996   4.064   0.056   0.240 -0.2790  0.0722  0.2070
 4479TIP3    H234997   4.038  -0.023   0.114  2.3224 -2.3598  1.0987
 4480TIP3   OH234998   2.925   6.130   2.678 -0.0707 -0.4526 -0.3097
 4480TIP3    H134999   2.988   6.102   2.744 -1.3014 -2.8582 -0.0626
 4480TIP3    H235000   2.914   6.054   2.621 -1.8494  0.2951 -1.0436
 4481TIP3   OH235001   6.052   5.801   3.341  0.0706 -0.3035 -0.2845
 4481TIP3    H135002   6.061   5.752   3.423  1.1797 -0.2032 -0.3344
 4481TIP3    H235003   6.141   5.827   3.318 -0.4483  1.5050 -0.4232
 4482TIP3   OH235004   1.859   5.430   3.390  0.2043  0.5359 -0.1608
 4482TIP3    H135005   1.914   5.355   3.414  0.2090  0.1972 -1.1423
 4482TIP3    H235006   1.834   5.470   3.473 -0.3438 -0.9520  0.4267
 4483TIP3   OH235007   1.298   2.388   2.152  0.1702  0.4059 -0.0965
 4483TIP3    H135008   1.287   2.339   2.070  1.5307  2.3048 -1.5131
 4483TIP3    H235009   1.211   2.423   2.170 -0.1129  0.1256 -0.8393
 4484TIP3   OH235010   6.359   3.025   2.902  0.0313  0.1333 -0.0998
 4484TIP3    H135011   6.306   3.103   2.919 -0.5625 -0.4826  0.9885
 4484TIP3    H235012   6.343   2.968   2.977  2.7745  0.2096  0.6687
 4485TIP3   OH235013   5.369   2.667   3.196 -0.0163 -0.1950 -0.0846
 4485TIP3    H135014   5.381   2.753   3.156 -0.9363 -0.6627 -1.4585
 4485TIP3    H235015   5.285   2.673   3.242 -0.4665 -0.5700 -0.8358
 4486TIP3   OH235016   3.445   4.223   1.531 -0.8475 -0.3852  0.0847
 4486TIP3    H135017   3.477   4.163   1.464  1.4975  1.8366 -0.9409
 4486TIP3    H235018   3.374   4.270   1.488 -1.1563 -0.8074  0.1194
 4487TIP3   OH235019   0.705   4.179   1.537  0.1841  0.0049 -0.4907
 4487TIP3    H135020   0.701   4.159   1.631  0.9330  0.6290 -0.3193
 4487TIP3    H235021   0.770   4.118   1.502  0.2226  0.0624 -0.5200
 4488TIP3   OH235022   4.609   3.843   8.601 -0.4880  0.6944 -0.2463
 4488TIP3    H135023   4.649   3.929   8.614 -2.0875  1.3790  0.5449
 4488TIP3    H235024   4.538   3.859   8.538 -1.4335  0.1864  0.6595
 4489TIP3   OH235025   1.103   1.496   0.949 -0.0968 -0.2161 -0.3730
 4489TIP3    H135026   1.176   1.556   0.965  0.1322 -0.3471 -0.9093
 4489TIP3    H235027   1.099   1.488   0.854 -0.8814 -0.1248 -0.3530
 4490TIP3   OH235028   3.514   4.953   0.556 -0.1378  0.2300 -0.2835
 4490TIP3    H135029   3.482   4.951   0.465 -2.1128 -1.9463  0.3429
 4490TIP3    H235030   3.457   5.016   0.600 -0.1011  0.2669 -0.2899
 4491TIP3   OH235031   4.274   4.633   3.941  0.7732 -0.2549 -0.7317
 4491TIP3    H135032   4.254   4.551   3.986  0.4021 -2.2495 -4.1942
 4491TIP3    H235033   4.198   4.689   3.959  0.5509 -0.9917  0.8407
 4492TIP3   OH235034   3.010   0.019   1.079  0.1002  0.0431 -0.7253
 4492TIP3    H135035   2.983  -0.068   1.107 -2.6131  1.2824  0.8981
 4492TIP3    H235036   3.005   0.016   0.983  0.6141 -1.6992 -0.7282
 4493TIP3   OH235037   2.584   6.239   1.118 -0.7717  0.5259 -0.2803
 4493TIP3    H135038   2.595   6.213   1.209  0.3930  0.0553 -0.5309
 4493TIP3    H235039   2.501   6.200   1.091  0.1584 -1.6677 -0.1917
 4494TIP3   OH235040   4.341   3.428   0.763  0.5076 -0.0955  0.4982
 4494TIP3    H135041   4.297   3.394   0.841  0.6966  2.9418  2.0852
 4494TIP3    H235042   4.271   3.443   0.700 -0.2681  0.9359  1.5370
 4495TIP3   OH235043   6.762   2.564   2.236  0.6058 -0.1217 -1.0216
 4495TIP3    H135044   6.814   2.485   2.253 -1.3333 -1.0594  1.1503
 4495TIP3    H235045   6.737   2.557   2.144  2.2379 -0.9015 -1.4360
 4496TIP3   OH235046   2.934   2.578   0.517  0.2736 -0.3529 -0.2695
 4496TIP3    H135047   3.013   2.552   0.468 -1.0427 -0.4269 -2.4854
 4496TIP3    H235048   2.878   2.620   0.452 -0.9720  0.9524  1.5494
 4497TIP3   OH235049   5.162   0.725   8.426 -0.0216 -0.4134 -0.8093
 4497TIP3    H135050   5.254   0.746   8.444 -0.6013 -0.0667  2.4532
 4497TIP3    H235051   5.130   0.800   8.375  1.4759 -0.5493 -2.0004
 4498TIP3   OH235052   0.008   2.402   0.953 -0.4470  0.0263  0.5988
 4498TIP3    H135053  -0.040   2.470   1.001  1.5687  0.2461  2.4871
 4498TIP3    H235054   0.080   2.379   1.011  0.6784 -1.5783 -1.3203
 4499TIP3   OH235055   2.230   4.838   3.117 -0.1621  0.3042 -0.4897
 4499TIP3    H135056   2.251   4.852   3.209  1.8739  0.4215 -0.9389
 4499TIP3    H235057   2.165   4.906   3.097  1.2257  1.9070  0.2360
 4500TIP3   OH235058   3.683   2.812   3.137 -0.5641 -0.3175  0.6425
 4500TIP3    H135059   3.741   2.735   3.143 -1.5589 -1.1548 -0.0644
 4500TIP3    H235060   3.706   2.865   3.213  0.9895 -0.7134  0.4932
 4501TIP3   OH235061   0.927   0.432   2.111  0.0290  0.1724 -0.0294
 4501TIP3    H135062   0.989   0.504   2.116  1.1434 -0.7895  0.5450
 4501TIP3    H235063   0.929   0.405   2.019  0.2909  0.3008 -0.0613
 4502TIP3   OH235064   5.455   4.048   0.972 -0.0140 -0.1504  0.6421
 4502TIP3    H135065   5.547   4.070   0.965 -0.1914  0.5644  0.5105
 4502TIP3    H235066   5.454   3.953   0.983  0.7118 -0.2087  0.2550
 4503TIP3   OH235067   5.990   4.633   2.947 -0.4020  0.1519  0.0764
 4503TIP3    H135068   5.943   4.581   2.882  2.6135  1.0713 -3.1494
 4503TIP3    H235069   5.966   4.724   2.926 -0.5476  0.4074  1.2957
 4504TIP3   OH235070   2.973   6.704   2.837 -0.4702 -0.3897  0.2575
 4504TIP3    H135071   2.961   6.798   2.855 -0.5781 -0.2583 -0.4753
 4504TIP3    H235072   3.009   6.669   2.919  0.5731  0.4948  0.2160
 4505TIP3   OH235073   2.413   2.544   0.158  0.7267 -0.5781  0.0747
 4505TIP3    H135074   2.405   2.504   0.245  0.9140  1.2303  0.9853
 4505TIP3    H235075   2.430   2.637   0.176  1.0669 -0.2055 -1.9071
 4506TIP3   OH235076   2.096   5.141   2.506 -0.2287 -0.0197  0.3256
 4506TIP3    H135077   2.117   5.231   2.481 -0.0535 -0.4007 -0.9805
 4506TIP3    H235078   2.011   5.147   2.551 -0.0601  0.8245  0.5492
 4507TIP3   OH235079   0.282   2.813   1.933  0.9545  0.1810  0.0948
 4507TIP3    H135080   0.288   2.864   2.014  1.1434 -0.1136  0.2685
 4507TIP3    H235081   0.228   2.867   1.875  2.9684  1.6748 -0.5270
 4508TIP3   OH235082   1.447   6.756   1.158 -0.3345 -0.0306 -0.1288
 4508TIP3    H135083   1.448   6.838   1.108 -0.1661  0.4077  0.5729
 4508TIP3    H235084   1.496   6.694   1.104 -1.0165  0.1383 -0.9711
 4509TIP3   OH235085   2.861   1.329   0.196  0.1170  0.2821 -0.2088
 4509TIP3    H135086   2.911   1.349   0.117  0.4756 -1.2619 -0.4023
 4509TIP3    H235087   2.925   1.337   0.267  1.2212 -3.2956 -0.6005
 4510TIP3   OH235088   0.069   4.378   1.210  0.1051  0.1373  0.2207
 4510TIP3    H135089   0.063   4.404   1.118  0.2736 -0.3593  0.0670
 4510TIP3    H235090   0.089   4.285   1.207  0.5280  0.2095  0.7620
 4511TIP3   OH235091   4.463   1.693   0.451  0.8658  0.1344  0.2593
 4511TIP3    H135092   4.383   1.745   0.456  0.6735  0.3401 -2.9585
 4511TIP3    H235093   4.519   1.729   0.520 -1.7751 -0.1543  2.7711
 4512TIP3   OH235094   2.213   6.075   8.457  0.0164 -0.2637 -0.8075
 4512TIP3    H135095   2.121   6.060   8.480 -0.0633 -0.2392 -1.1126
 4512TIP3    H235096   2.254   5.989   8.463  0.4933  0.0655  1.6230
 4513TIP3   OH235097   3.748   4.660   3.642  0.4640  0.3261  0.0549
 4513TIP3    H135098   3.825   4.609   3.665  0.3780  1.0326  2.0869
 4513TIP3    H235099   3.781   4.747   3.622  0.3310  0.2497 -0.5065
 4514TIP3   OH235100   0.147   4.121   1.142 -0.3681  0.2002 -0.5888
 4514TIP3    H135101   0.238   4.091   1.146 -0.3022  0.4611  0.1418
 4514TIP3    H235102   0.101   4.066   1.206 -1.0851 -1.0764 -2.1424
 4515TIP3   OH235103   0.986   6.164   2.120 -0.6954 -0.7917  0.0983
 4515TIP3    H135104   0.915   6.200   2.067 -0.2375  0.5424  0.3645
 4515TIP3    H235105   0.956   6.171   2.210 -0.4126 -0.6421  0.1836
 4516TIP3   OH235106   3.313   5.358   3.814  0.0799  0.0262 -0.0510
 4516TIP3    H135107   3.344   5.421   3.748 -1.2252  0.8316  0.0721
 4516TIP3    H235108   3.325   5.404   3.898  0.9377 -0.6655  0.2203
 4517TIP3   OH235109   3.282   0.307   8.471  0.1090 -0.2530 -0.2733
 4517TIP3    H135110   3.327   0.391   8.464 -0.0692 -0.2999 -4.0567
 4517TIP3    H235111   3.351   0.243   8.489  0.4255  0.4961  1.3242
 4518TIP3   OH235112   3.442   2.084   2.698  0.4800  0.6368 -0.7500
 4518TIP3    H135113   3.410   2.075   2.608  1.1280  0.4241 -0.9633
 4518TIP3    H235114   3.362   2.095   2.750  0.1310  1.4423 -1.4194
 4519TIP3   OH235115   5.768   2.968   1.737 -0.1134  0.2692  0.0683
 4519TIP3    H135116   5.684   2.947   1.776  0.0945 -0.3187  0.2167
 4519TIP3    H235117   5.748   3.033   1.669 -0.6971  0.0320  0.0082
 4520TIP3   OH235118   3.532   0.261   3.839 -0.0675  0.3551  0.3541
 4520TIP3    H135119   3.481   0.189   3.875 -0.1972  1.1329  1.7590
 4520TIP3    H235120   3.600   0.278   3.905  0.0243  1.4512 -0.0043
 4521TIP3   OH235121   4.728   2.879   8.559  0.2649 -0.9651 -0.3918
 4521TIP3    H135122   4.642   2.886   8.602 -0.4983  1.1987 -2.0905
 4521TIP3    H235123   4.708   2.868   8.466  1.7129  1.9572 -1.1632
 4522TIP3   OH235124   1.883   3.532   1.675 -0.7029  0.1770 -0.5743
 4522TIP3    H135125   1.807   3.493   1.631  0.2862 -0.0604 -2.1232
 4522TIP3    H235126   1.896   3.476   1.752 -1.8630  0.0046 -0.4764
 4523TIP3   OH235127   5.121   0.534   1.734 -0.3589 -0.1073  0.0192
 4523TIP3    H135128   5.067   0.517   1.811 -1.8236 -3.9245 -1.5834
 4523TIP3    H235129   5.171   0.452   1.722  0.6959  0.7962 -2.4033
 4524TIP3   OH235130   5.213   1.971   3.726 -0.2362  0.3243 -0.1565
 4524TIP3    H135131   5.305   1.986   3.704  0.2355 -2.3848 -0.4757
 4524TIP3    H235132   5.198   2.023   3.805  2.3933 -1.1049  1.4450
 4525TIP3   OH235133   2.930   5.837   1.119 -0.5773 -0.6549  0.1694
 4525TIP3    H135134   2.941   5.743   1.132 -1.4109 -0.6073  1.4488
 4525TIP3    H235135   3.017   5.874   1.133 -0.1675 -1.2550 -0.7057
 4526TIP3   OH235136   5.866   2.742   0.696 -0.4281 -0.1262  0.1757
 4526TIP3    H135137   5.925   2.708   0.762 -0.3322  0.2529  0.2880
 4526TIP3    H235138   5.788   2.687   0.702  0.7379 -2.1133 -1.5043
 4527TIP3   OH235139   4.149   6.478   1.355 -0.2115 -0.5125 -0.0938
 4527TIP3    H135140   4.062   6.472   1.316 -0.0571 -2.1379 -0.2221
 4527TIP3    H235141   4.156   6.570   1.380 -2.0616 -0.3944  0.1698
 4528TIP3   OH235142   1.568   0.952   2.605 -0.0161 -0.1312 -0.3868
 4528TIP3    H135143   1.573   0.856   2.596  1.1215 -0.4501  2.3485
 4528TIP3    H235144   1.658   0.982   2.588 -0.2538  0.3830 -0.7397
 4529TIP3   OH235145   4.042   3.531   2.536 -0.4970 -0.0686 -0.3580
 4529TIP3    H135146   3.977   3.601   2.549  1.5848  1.7535  0.8166
 4529TIP3    H235147   4.074   3.512   2.624 -0.6032 -2.1486 -0.7353
 4530TIP3   OH235148   2.522   2.292   1.122  0.0412  0.1353 -0.2966
 4530TIP3    H135149   2.433   2.261   1.101  0.9532 -1.5719 -1.9781
 4530TIP3    H235150   2.569   2.212   1.145  0.9625  1.1330  1.4167
 4531TIP3   OH235151   0.263   5.786   0.763  0.1925 -0.0729 -0.8175
 4531TIP3    H135152   0.185   5.730   0.761 -0.1046  0.3637 -1.4713
 4531TIP3    H235153   0.265   5.828   0.677  0.3598  1.0060 -0.2937
 4532TIP3   OH235154   4.691   2.298   3.192 -0.2937  0.9061 -0.8149
 4532TIP3    H135155   4.603   2.262   3.184 -0.4406  1.0910 -0.1520
 4532TIP3    H235156   4.710   2.294   3.286  0.4141  0.8447 -0.9532
 4533TIP3   OH235157   4.204   5.566   2.951  0.4563  0.1092  0.0450
 4533TIP3    H135158   4.192   5.660   2.961  0.3284  0.2047 -0.8911
 4533TIP3    H235159   4.242   5.537   3.034  0.5859  0.9977  0.3028
 4534TIP3   OH235160   0.065   6.637   1.419  0.4402 -0.2847  0.2807
 4534TIP3    H135161   0.127   6.708   1.438 -0.8967  0.3818  2.5269
 4534TIP3    H235162   0.120   6.567   1.384  2.0678  1.1715 -0.2454
 4535TIP3   OH235163   4.327   2.109   0.712 -0.2514  0.6366 -0.1032
 4535TIP3    H135164   4.412   2.149   0.694 -1.4701  2.8288 -1.3799
 4535TIP3    H235165   4.276   2.124   0.632 -2.4398  1.0673  1.2888
 4536TIP3   OH235166   2.194   2.089   0.835  0.1326 -0.3990 -0.1301
 4536TIP3    H135167   2.098   2.092   0.833  0.1049  3.0441  0.5686
 4536TIP3    H235168   2.219   2.051   0.751 -1.8024 -1.0409 -0.4628
 4537TIP3   OH235169   4.408   5.164   8.239  0.4260  0.1551  0.4771
 4537TIP3    H135170   4.489   5.112   8.238  0.7773  0.6703 -0.9627
 4537TIP3    H235171   4.379   5.165   8.148  0.0483  1.8763  0.5768
 4538TIP3   OH235172   6.687   3.988   2.451  0.0890 -0.6145 -0.1829
 4538TIP3    H135173   6.692   4.041   2.371  0.3124 -0.5884 -0.1524
 4538TIP3    H235174   6.610   4.020   2.497  1.5465  1.3333  1.0170
 4539TIP3   OH235175   1.008   4.973   2.980 -0.7018 -0.0960 -0.5453
 4539TIP3    H135176   1.097   4.994   3.007 -0.4787 -0.2270 -1.1753
 4539TIP3    H235177   1.004   4.878   2.982 -0.5228 -0.1252 -1.4868
 4540TIP3   OH235178   4.695   3.027   1.321 -0.2605 -0.2769 -0.0009
 4540TIP3    H135179   4.684   3.120   1.343 -0.0063 -0.4259  0.7933
 4540TIP3    H235180   4.726   2.987   1.402 -0.5188 -1.0875 -0.2949
 4541TIP3   OH235181   0.997   2.210   0.605  0.3227  0.0711 -0.0673
 4541TIP3    H135182   0.923   2.153   0.625 -0.6722  0.8219 -1.4428
 4541TIP3    H235183   1.032   2.236   0.690  1.0405 -2.8356  0.6342
 4542TIP3   OH235184   2.709   5.535   0.687 -0.5858  0.3197 -0.1609
 4542TIP3    H135185   2.633   5.553   0.632 -0.3434  0.7039 -0.3718
 4542TIP3    H235186   2.775   5.597   0.658 -0.1822 -0.0232  0.0125
 4543TIP3   OH235187   3.793   6.531   3.036  0.0843 -0.3142 -0.0848
 4543TIP3    H135188   3.726   6.568   2.979  0.2498  0.2358  0.0762
 4543TIP3    H235189   3.875   6.543   2.988  0.0190 -1.4282 -0.5008
 4544TIP3   OH235190   6.333   4.566   4.146 -0.1238 -0.0381  0.1846
 4544TIP3    H135191   6.272   4.509   4.192  0.9116 -0.3296  1.2430
 4544TIP3    H235192   6.385   4.507   4.091  2.1002 -0.4462  2.5492
 4545TIP3   OH235193   3.418   4.687   0.519  0.3618 -0.6790 -0.6482
 4545TIP3    H135194   3.447   4.623   0.583 -1.0307  0.1160  0.8425
 4545TIP3    H235195   3.447   4.771   0.554 -0.3735 -0.2380 -1.0699
 4546TIP3   OH235196   3.999   4.256   0.351 -0.1965  0.3933 -0.2413
 4546TIP3    H135197   4.066   4.278   0.415  0.4991  0.8547 -1.0947
 4546TIP3    H235198   3.970   4.341   0.316 -0.8340  0.1698 -0.2766
 4547TIP3   OH235199   0.314   0.125   0.430  0.0651  0.2521 -0.4416
 4547TIP3    H135200   0.353   0.040   0.407 -2.1934 -0.7719 -0.7748
 4547TIP3    H235201   0.330   0.180   0.353  2.3593  0.5240  0.1293
 4548TIP3   OH235202   4.818   1.334   0.752  0.1163  0.2791 -0.6479
 4548TIP3    H135203   4.833   1.259   0.811 -1.3941  0.4864  0.0713
 4548TIP3    H235204   4.722   1.340   0.746  0.2270  1.5646 -1.4731
 4549TIP3   OH235205   0.358   6.210   8.503  0.2080  0.1183 -0.2775
 4549TIP3    H135206   0.393   6.128   8.470  0.5246 -0.1091  0.5854
 4549TIP3    H235207   0.389   6.215   8.594 -0.8605  0.5777  0.0848
 4550TIP3   OH235208   0.958   4.897   4.139 -0.8642 -0.3089  0.0829
 4550TIP3    H135209   0.973   4.990   4.121 -0.5996 -0.6394 -1.5969
 4550TIP3    H235210   0.884   4.874   4.084 -1.5524 -0.8887  1.2224
 4551TIP3   OH235211   6.544   0.808   8.029  0.3152 -0.2164  0.3766
 4551TIP3    H135212   6.494   0.878   7.988 -2.9180 -1.5200  1.7369
 4551TIP3    H235213   6.538   0.735   7.968 -1.1407 -0.9402  1.3188
 4552TIP3   OH235214   3.914   4.645   0.749 -0.0050  0.2608  0.1302
 4552TIP3    H135215   3.866   4.578   0.700  1.3932  0.3876 -1.4873
 4552TIP3    H235216   3.858   4.723   0.743 -1.3894 -0.5448  1.5831
 4553TIP3   OH235217   3.627   3.785   8.559 -0.1107  0.2826 -0.3534
 4553TIP3    H135218   3.663   3.867   8.526  0.1600 -0.0835 -1.0018
 4553TIP3    H235219   3.587   3.808   8.643 -0.2996  1.1363 -0.6602
 4554TIP3   OH235220   3.637   2.059   7.899 -0.0004  0.0370  0.6003
 4554TIP3    H135221   3.658   1.968   7.877 -1.1452  0.7204 -4.3846
 4554TIP3    H235222   3.541   2.062   7.899  0.0063  1.4271 -0.6767
 4555TIP3   OH235223   5.322   3.261   2.004 -0.2120  0.2448  0.4256
 4555TIP3    H135224   5.349   3.175   2.037 -0.3989 -0.5764 -1.4127
 4555TIP3    H235225   5.308   3.314   2.083 -2.0530 -2.0026  1.7481
 4556TIP3   OH235226   4.202   0.554   0.803 -0.3470 -0.2978  0.1496
 4556TIP3    H135227   4.175   0.644   0.819  0.8067 -0.0900  1.0698
 4556TIP3    H235228   4.208   0.515   0.890 -0.4558 -1.1538 -0.2157
 4557TIP3   OH235229   2.306   6.217   3.003 -0.6118  0.0021  0.2536
 4557TIP3    H135230   2.294   6.166   2.924  0.1162  0.4973 -0.1954
 4557TIP3    H235231   2.350   6.158   3.064 -0.0957 -0.0217 -0.1373
 4558TIP3   OH235232   5.191   1.291   8.668  0.3201 -0.1488 -0.6314
 4558TIP3    H135233   5.165   1.281   8.760  0.9427 -2.2336 -0.6443
 4558TIP3    H235234   5.112   1.324   8.625 -0.2472  0.0100  0.4799
 4559TIP3   OH235235   4.394   3.403   1.254 -0.0208  0.4968  0.1008
 4559TIP3    H135236   4.416   3.340   1.322  1.7323 -0.5801 -1.3835
 4559TIP3    H235237   4.432   3.367   1.174  1.2411  3.4927 -0.7900
 4560TIP3   OH235238   2.603   5.980   3.016 -0.1144 -0.1006  0.7376
 4560TIP3    H135239   2.684   5.932   3.031 -0.3918 -0.4772  1.0637
 4560TIP3    H235240   2.580   5.961   2.925  0.9231  1.1837  0.1898
 4561TIP3   OH235241   0.464   4.165   2.706  0.5879  0.4935 -0.3401
 4561TIP3    H135242   0.504   4.188   2.622  1.1874  2.9835  0.5542
 4561TIP3    H235243   0.528   4.192   2.772  0.6380 -2.4790  0.9669
 4562TIP3   OH235244   2.035   0.148   2.435 -0.4166 -0.6964  0.3120
 4562TIP3    H135245   1.955   0.100   2.456  0.0876 -0.9550  1.7527
 4562TIP3    H235246   2.093   0.131   2.509  1.0200 -0.6010 -0.7629
 4563TIP3   OH235247   6.295   0.638   3.280 -0.1947  0.8884 -0.6809
 4563TIP3    H135248   6.305   0.580   3.356 -0.2372 -2.2340 -2.8292
 4563TIP3    H235249   6.383   0.673   3.265 -0.0782  1.1330  0.4639
 4564TIP3   OH235250   2.618   2.989   2.028  0.1425 -0.2519  0.0416
 4564TIP3    H135251   2.660   2.953   1.950  1.1262 -1.1648  0.9436
 4564TIP3    H235252   2.535   3.025   1.997  0.3151 -0.9774 -1.3355
 4565TIP3   OH235253   2.005   4.842   3.505  0.2819 -0.2993  0.4208
 4565TIP3    H135254   2.084   4.834   3.557  0.4563  0.3463  0.2672
 4565TIP3    H235255   1.951   4.906   3.552 -0.0298 -0.5324  0.3844
 4566TIP3   OH235256   6.138   1.001   3.453 -0.3534 -0.7994 -0.4709
 4566TIP3    H135257   6.082   1.063   3.500  1.0011  0.2421 -0.1370
 4566TIP3    H235258   6.177   1.053   3.382  1.1342 -1.1086  0.0693
 4567TIP3   OH235259   1.341   0.158   4.094 -0.0854  0.1735 -0.4767
 4567TIP3    H135260   1.386   0.144   4.010  1.6282 -0.1305  0.4415
 4567TIP3    H235261   1.286   0.081   4.104  1.7246 -1.1426 -0.1212
 4568TIP3   OH235262   3.941   1.809   3.073  0.0575  0.1852  0.9590
 4568TIP3    H135263   3.874   1.856   3.025  1.9829  0.6131 -1.5034
 4568TIP3    H235264   4.000   1.877   3.107  0.7172 -0.2549  0.7305
 4569TIP3   OH235265   3.176   5.133   3.289 -0.2440 -0.1308 -0.1523
 4569TIP3    H135266   3.213   5.128   3.201 -0.8324 -0.9899 -0.3596
 4569TIP3    H235267   3.176   5.042   3.320  0.7785  0.2595  1.0849
 4570TIP3   OH235268   5.477   5.559   0.720  0.1896  0.4469  0.3273
 4570TIP3    H135269   5.463   5.641   0.768  0.0879 -0.9694  2.9053
 4570TIP3    H235270   5.556   5.575   0.669 -0.5332  2.5553 -0.2449
 4571TIP3   OH235271   3.779   0.281   1.787 -0.0675 -0.1416 -0.2080
 4571TIP3    H135272   3.850   0.232   1.830  1.2014  1.7386 -0.0398
 4571TIP3    H235273   3.809   0.292   1.697 -1.0214 -0.8850 -0.6368
 4572TIP3   OH235274   4.689   4.659   1.640 -0.3606 -0.2290 -0.2356
 4572TIP3    H135275   4.784   4.669   1.654 -0.3201 -1.7090  0.8537
 4572TIP3    H235276   4.654   4.746   1.654  0.7112  0.0674  0.8181
 4573TIP3   OH235277   6.088   4.323   0.182  0.6179 -0.0780  0.5044
 4573TIP3    H135278   6.086   4.410   0.142  1.5484 -0.1888  0.1736
 4573TIP3    H235279   6.008   4.318   0.234 -0.8626 -0.0659 -1.6418
 4574TIP3   OH235280   3.955   0.374   3.083  0.3615 -0.2690 -0.0572
 4574TIP3    H135281   3.919   0.416   3.005  0.4261 -0.6146 -0.2714
 4574TIP3    H235282   3.900   0.407   3.155 -2.0072 -2.6252 -0.6368
 4575TIP3   OH235283   0.660   0.003   2.230  0.1729  0.0619  0.3965
 4575TIP3    H135284   0.754  -0.004   2.246  0.2361  0.0576  0.0508
 4575TIP3    H235285   0.652  -0.001   2.134 -0.4573 -3.7594  0.4650
 4576TIP3   OH235286   5.447   5.995   0.568 -0.1565 -0.5932  0.2367
 4576TIP3    H135287   5.490   6.066   0.614  0.2594 -0.8785  0.2889
 4576TIP3    H235288   5.401   6.038   0.495 -0.7978 -0.1503  0.8949
 4577TIP3   OH235289   0.949   1.054   1.557  0.1361 -0.2058 -0.1271
 4577TIP3    H135290   0.917   0.980   1.504  0.2722 -0.2530 -0.1435
 4577TIP3    H235291   0.933   1.131   1.503 -1.5015 -0.0422  0.5415
 4578TIP3   OH235292   0.073   6.018   3.609  0.0362  0.0459 -0.0920
 4578TIP3    H135293   0.055   5.943   3.666 -0.4142 -1.0815 -1.6463
 4578TIP3    H235294   0.146   6.063   3.652 -0.1751 -0.8332  1.2781
 4579TIP3   OH235295   1.092   5.440   3.102 -0.1168  0.0143 -0.3444
 4579TIP3    H135296   1.056   5.354   3.124 -0.3839  0.2913  0.3340
 4579TIP3    H235297   1.020   5.485   3.057  1.5279 -1.8886 -5.5780
 4580TIP3   OH235298   6.182   6.157   7.995  0.1518 -0.1718 -0.3212
 4580TIP3    H135299   6.235   6.085   7.962  1.7659 -0.2403  2.1581
 4580TIP3    H235300   6.244   6.229   8.009 -0.8711  0.6698  0.1056
 4581TIP3   OH235301   1.815   4.258   1.416 -0.3742 -0.2108 -0.3113
 4581TIP3    H135302   1.792   4.166   1.433  1.6666 -0.3419  2.5556
 4581TIP3    H235303   1.910   4.257   1.410 -0.1306  1.9249  1.8481
 4582TIP3   OH235304   6.434   6.013   1.515  0.1377  0.0075  0.1938
 4582TIP3    H135305   6.428   5.955   1.591 -0.4866 -0.4256 -0.1700
 4582TIP3    H235306   6.526   6.011   1.491  0.2894 -0.0697  0.7717
 4583TIP3   OH235307   4.772   2.405   2.424 -0.5153 -0.1782  0.0891
 4583TIP3    H135308   4.782   2.402   2.519  0.7006 -1.5705 -0.0460
 4583TIP3    H235309   4.680   2.384   2.409 -0.3413 -1.6548  0.9168
 4584TIP3   OH235310   5.706   4.783   0.795 -0.2016 -0.7022 -0.1984
 4584TIP3    H135311   5.639   4.829   0.845  2.3290  0.3718  2.5349
 4584TIP3    H235312   5.737   4.848   0.732  0.1393 -0.2160  0.4528
 4585TIP3   OH235313   6.775   4.805   1.062  0.3342  0.4840  0.6047
 4585TIP3    H135314   6.708   4.762   1.115 -0.5389  0.8233 -0.1976
 4585TIP3    H235315   6.760   4.898   1.076 -0.1706  0.5848 -0.5457
 4586TIP3   OH235316   1.309   0.651   8.608 -0.6214 -0.0690 -0.0214
 4586TIP3    H135317   1.396   0.687   8.624 -0.1479 -0.7631 -0.9006
 4586TIP3    H235318   1.294   0.665   8.514 -1.1856 -0.5102 -0.0058
 4587TIP3   OH235319   5.724   1.359   1.122 -0.1545  0.1036  0.1480
 4587TIP3    H135320   5.693   1.312   1.198 -0.4627 -0.7440 -0.4858
 4587TIP3    H235321   5.800   1.309   1.091  0.2744  0.7155  0.1787
 4588TIP3   OH235322   3.820   2.013   2.065  0.1844 -0.1242  0.2439
 4588TIP3    H135323   3.790   2.095   2.024  1.1820 -0.7008 -1.8170
 4588TIP3    H235324   3.881   2.042   2.133  1.0630  0.8828 -0.9127
 4589TIP3   OH235325   1.728   3.980   1.413  0.3605 -0.7146  0.1105
 4589TIP3    H135326   1.705   3.903   1.465  2.0749 -1.5673 -0.3074
 4589TIP3    H235327   1.667   3.978   1.340 -0.6492 -0.7594  0.9380
 4590TIP3   OH235328   5.617   0.888   2.737 -0.1061 -0.0537  0.3863
 4590TIP3    H135329   5.576   0.810   2.773 -0.6557  0.3972  0.7608
 4590TIP3    H235330   5.574   0.901   2.653  0.3032 -0.4060  0.1203
 4591TIP3   OH235331   2.874   1.428   2.951 -0.2893  0.0489  0.0648
 4591TIP3    H135332   2.785   1.441   2.917 -0.6541 -1.7014  0.2645
 4591TIP3    H235333   2.880   1.334   2.965  1.2534  0.2775  1.0570
 4592TIP3   OH235334   2.645   6.562   1.111 -0.2619  0.5441 -0.0176
 4592TIP3    H135335   2.578   6.624   1.141  1.6265  2.0438  1.2746
 4592TIP3    H235336   2.596   6.481   1.093 -2.1675  0.9140  2.8734
 4593TIP3   OH235337   0.609   5.102   3.364 -0.1071  0.2598  0.0382
 4593TIP3    H135338   0.639   5.053   3.287 -2.3428 -3.1417  1.0754
 4593TIP3    H235339   0.533   5.151   3.333 -1.1524 -1.2911  0.0085
 4594TIP3   OH235340   6.081   4.509   8.743  0.1672  0.0278 -0.7393
 4594TIP3    H135341   6.164   4.502   8.695 -0.0205 -2.5663 -0.7839
 4594TIP3    H235342   6.015   4.513   8.674  0.0413 -1.6968 -0.7653
 4595TIP3   OH235343   5.068   3.889   1.720  0.0963 -0.4197 -0.2553
 4595TIP3    H135344   5.115   3.810   1.695  2.7000  0.4708  1.4217
 4595TIP3    H235345   4.989   3.888   1.666  0.7681 -3.3480 -1.3617
 4596TIP3   OH235346   6.467   6.776   0.477  0.0273  0.2616  0.1009
 4596TIP3    H135347   6.452   6.798   0.386  1.1389 -2.4106 -0.8500
 4596TIP3    H235348   6.506   6.855   0.516 -0.5294  1.4623 -1.6917
 4597TIP3   OH235349   0.639   4.692   3.335 -0.4356 -0.2477 -0.1380
 4597TIP3    H135350   0.572   4.628   3.311 -1.3421  0.3821  0.6590
 4597TIP3    H235351   0.714   4.669   3.280 -0.8074 -1.8490 -0.0351
 4598TIP3   OH235352   6.427   0.421   8.396 -0.1796  0.4831  0.0943
 4598TIP3    H135353   6.406   0.451   8.308  0.5780 -2.1586 -1.0701
 4598TIP3    H235354   6.520   0.441   8.407  0.1391 -0.6064 -0.3992
 4599TIP3   OH235355   5.763   2.791   1.949  0.4882 -0.0975 -0.1561
 4599TIP3    H135356   5.742   2.824   1.862 -2.1093 -2.5842 -0.6085
 4599TIP3    H235357   5.858   2.777   1.947  0.7059  1.2503 -2.0481
 4600TIP3   OH235358   0.583   3.371   8.419  0.3350  0.0976  0.1366
 4600TIP3    H135359   0.597   3.367   8.324 -1.9518  1.0683 -0.2863
 4600TIP3    H235360   0.493   3.342   8.432  0.1038  1.4260  1.8602
 4601TIP3   OH235361   1.126   6.608   1.154 -0.4719  0.2043 -0.3917
 4601TIP3    H135362   1.054   6.657   1.194 -2.0963 -0.2640 -2.5336
 4601TIP3    H235363   1.090   6.577   1.070  2.1437 -0.3234 -1.4148
 4602TIP3   OH235364   0.338   2.426   2.050 -0.4799  0.0446  0.4790
 4602TIP3    H135365   0.278   2.354   2.032 -0.1257  0.2320 -1.7747
 4602TIP3    H235366   0.305   2.498   1.996  1.1246  0.4813  0.0394
 4603TIP3   OH235367   1.647   0.855   4.201 -0.2189  0.0330 -0.0111
 4603TIP3    H135368   1.675   0.769   4.233 -0.4237  0.4033  1.1859
 4603TIP3    H235369   1.626   0.905   4.279 -0.3522  1.1049 -0.7057
 4604TIP3   OH235370   5.233   3.773   8.025  0.5323  0.3701  0.2575
 4604TIP3    H135371   5.196   3.689   8.052 -3.6394  1.6503 -0.6894
 4604TIP3    H235372   5.243   3.822   8.107  1.8204 -0.5571  0.6898
 4605TIP3   OH235373   5.171   1.669   3.763  0.5975  0.8265  0.3813
 4605TIP3    H135374   5.230   1.671   3.839 -0.3437  2.3676  1.1084
 4605TIP3    H235375   5.126   1.585   3.770 -0.2558  1.3987  2.1584
 4606TIP3   OH235376   2.915   0.453   4.026 -0.2759  0.0283 -0.0441
 4606TIP3    H135377   2.988   0.397   4.001 -0.6520 -1.1011  1.2308
 4606TIP3    H235378   2.930   0.535   3.980  1.3489 -0.4567 -0.4327
 4607TIP3   OH235379   1.308   5.625   0.015  0.0810  0.2342 -0.8268
 4607TIP3    H135380   1.249   5.683   0.063 -0.7200 -0.1183 -1.3602
 4607TIP3    H235381   1.288   5.642  -0.077 -0.3285 -1.0408 -0.9869
 4608TIP3   OH235382   4.629   2.487   3.458 -0.0091 -0.1822  0.2551
 4608TIP3    H135383   4.583   2.492   3.541  1.0114 -2.7000  1.0659
 4608TIP3    H235384   4.719   2.464   3.481  0.2932 -0.9993 -1.4973
 4609TIP3   OH235385   1.348   3.609   0.799 -0.3345  0.1156  0.2327
 4609TIP3    H135386   1.254   3.618   0.809 -0.3160 -0.2573  0.7835
 4609TIP3    H235387   1.379   3.583   0.886  0.1816 -0.5390 -0.1392
 4610TIP3   OH235388   4.465   6.054   8.634  0.1094 -0.1989 -0.6204
 4610TIP3    H135389   4.472   6.002   8.714  2.1182  0.9692  0.0619
 4610TIP3    H235390   4.417   5.999   8.572 -0.0248 -1.8039  0.8612
 4611TIP3   OH235391   2.224   5.603   1.986 -0.2672 -0.2015  0.0864
 4611TIP3    H135392   2.247   5.695   1.994 -1.9133  0.2738 -0.3293
 4611TIP3    H235393   2.259   5.577   1.901  0.0113  0.0856  0.1086
 4612TIP3   OH235394   5.750   4.366   1.335  0.2561 -0.2599  0.0936
 4612TIP3    H135395   5.689   4.302   1.299  1.8572 -2.4560  1.0947
 4612TIP3    H235396   5.708   4.396   1.416 -0.6667  0.2880 -0.5656
 4613TIP3   OH235397   4.745   1.800   1.985 -0.4740 -0.0084 -0.2522
 4613TIP3    H135398   4.725   1.886   2.021 -0.6665 -0.1437 -0.0351
 4613TIP3    H235399   4.795   1.818   1.905  1.1138  0.2672  0.7634
 4614TIP3   OH235400   6.500   1.754   3.324 -0.5957  0.3577  0.0653
 4614TIP3    H135401   6.592   1.743   3.346  0.3786  4.0548 -1.5223
 4614TIP3    H235402   6.456   1.761   3.409  0.9851  1.0313  0.8637
 4615TIP3   OH235403   1.723   0.714   8.378 -0.3511  0.1028 -0.2226
 4615TIP3    H135404   1.759   0.631   8.408 -0.7816 -1.1682 -2.9294
 4615TIP3    H235405   1.629   0.708   8.395 -1.0725 -1.7869 -3.8091
 4616TIP3   OH235406   0.708   6.693   4.094 -0.5868  0.2806  0.3367
 4616TIP3    H135407   0.661   6.624   4.047  0.7621 -0.1439 -0.4529
 4616TIP3    H235408   0.712   6.663   4.185 -1.7327  0.2793  0.3910
 4617TIP3   OH235409   4.121   2.208   8.483 -0.8530 -0.3874 -0.5336
 4617TIP3    H135410   4.153   2.221   8.394 -1.0247  0.4257 -0.4832
 4617TIP3    H235411   4.123   2.296   8.522  1.6167 -1.0492  1.0692
 4618TIP3   OH235412   5.062   4.334   8.069 -0.4152  0.3253 -0.1409
 4618TIP3    H135413   4.998   4.406   8.069 -1.0129 -0.1107 -2.8392
 4618TIP3    H235414   5.008   4.255   8.063  0.2794 -0.3552  1.8627
 4619TIP3   OH235415   1.446   4.898   3.212  0.2877 -0.1220 -0.2042
 4619TIP3    H135416   1.474   4.807   3.223 -0.8022 -0.4261  0.1659
 4619TIP3    H235417   1.491   4.945   3.282 -0.6170 -0.7251  0.8193
 4620TIP3   OH235418   5.890   3.470   0.169 -0.5064  0.6079  0.4022
 4620TIP3    H135419   5.802   3.461   0.132 -1.2942 -0.3632  2.3506
 4620TIP3    H235420   5.914   3.561   0.154 -2.5362  1.3310  1.2436
 4621TIP3   OH235421   0.938   6.801   3.271 -0.1853 -0.4857  0.5317
 4621TIP3    H135422   1.009   6.843   3.319 -1.2706  0.6101  1.2601
 4621TIP3    H235423   0.896   6.743   3.335  0.5834 -1.8279 -0.1456
 4622TIP3   OH235424   6.022   5.910   0.634  0.1932 -0.7933 -0.0971
 4622TIP3    H135425   5.964   5.959   0.691  2.3810  0.4880  1.1672
 4622TIP3    H235426   6.075   5.977   0.590  2.4441 -1.9247  0.7503
 4623TIP3   OH235427   0.316   1.976   0.149  0.1742 -1.1544 -0.2782
 4623TIP3    H135428   0.253   1.910   0.122 -1.1273 -0.4966  1.0059
 4623TIP3    H235429   0.347   1.946   0.234  0.3664 -0.6277 -0.1612
 4624TIP3   OH235430   5.989   3.165   1.859 -0.8149  0.4578  0.1673
 4624TIP3    H135431   5.976   3.183   1.952 -0.1647 -1.1633  0.5965
 4624TIP3    H235432   5.916   3.108   1.834 -0.2873 -0.1555  0.0071
 4625TIP3   OH235433   5.793   4.781   0.423 -0.3375  0.4361  0.1909
 4625TIP3    H135434   5.867   4.721   0.435  1.2517  2.6602  2.2977
 4625TIP3    H235435   5.832   4.867   0.414 -2.6437  1.8070  2.0608
 4626TIP3   OH235436   0.293   3.712   2.567 -0.5067  0.2547 -0.3824
 4626TIP3    H135437   0.211   3.665   2.552 -0.1928 -0.7164  0.8367
 4626TIP3    H235438   0.348   3.650   2.613 -0.2773  1.9754  1.7940
 4627TIP3   OH235439   1.669   0.161   2.470  0.2025 -0.5709 -0.3403
 4627TIP3    H135440   1.736   0.220   2.505  0.6695 -0.2403 -1.7358
 4627TIP3    H235441   1.632   0.119   2.547  2.3594 -1.1237  0.4654
 4628TIP3   OH235442   6.720   4.068   1.878 -0.4511 -0.1135  0.1035
 4628TIP3    H135443   6.762   3.988   1.910 -0.4178  0.3903  1.3987
 4628TIP3    H235444   6.673   4.041   1.800  2.5175 -0.6391 -1.6393
 4629TIP3   OH235445   2.087   3.195   1.389  0.1390 -0.0344  0.9768
 4629TIP3    H135446   2.034   3.116   1.400 -0.0760 -0.0334  0.0843
 4629TIP3    H235447   2.105   3.198   1.295  0.4946  0.7580  1.0633
 4630TIP3   OH235448   3.030   5.164   8.581 -0.0429 -0.3013  0.4621
 4630TIP3    H135449   3.120   5.144   8.605  1.0607 -0.9364 -3.4180
 4630TIP3    H235450   3.034   5.252   8.544  0.2658 -1.9842 -4.1723
 4631TIP3   OH235451   1.455   2.846   2.885 -0.0948 -0.0921 -0.4265
 4631TIP3    H135452   1.526   2.781   2.881 -0.0963 -0.1156 -0.1442
 4631TIP3    H235453   1.412   2.840   2.800  1.3814  1.2297 -1.3120
 4632TIP3   OH235454   5.583   1.936   0.667 -0.0822 -0.1631 -0.3140
 4632TIP3    H135455   5.510   1.985   0.630  0.2790  1.2785  0.8056
 4632TIP3    H235456   5.659   1.963   0.614 -0.1460 -0.7912 -0.7424
 4633TIP3   OH235457   6.820   1.824   1.368 -0.1053 -0.5804 -0.0412
 4633TIP3    H135458   6.797   1.884   1.439  0.3266 -0.9293  0.4050
 4633TIP3    H235459   6.742   1.769   1.356 -1.3787  1.4917 -1.9991
 4634TIP3   OH235460   1.943   3.229   3.607  0.1619 -0.2952 -0.0279
 4634TIP3    H135461   1.929   3.323   3.615  1.8172  0.1694 -1.9969
 4634TIP3    H235462   1.928   3.210   3.515 -0.2122 -1.9941  0.3511
 4635TIP3   OH235463   1.637   2.594   3.363 -0.3480 -0.0314  0.1322
 4635TIP3    H135464   1.545   2.617   3.352 -1.3573 -2.9966  1.2228
 4635TIP3    H235465   1.662   2.630   3.448 -1.1384 -0.8265  0.7184
 4636TIP3   OH235466   0.950   1.059   0.597 -0.2042 -0.2898 -0.1141
 4636TIP3    H135467   0.945   1.082   0.690 -1.3603  1.5962 -0.5920
 4636TIP3    H235468   0.969   0.965   0.597  1.2339 -0.0744  2.0108
 4637TIP3   OH235469   6.388   3.219   2.131 -0.4808  0.3361  0.2025
 4637TIP3    H135470   6.319   3.183   2.185 -0.0549  0.6728  0.9824
 4637TIP3    H235471   6.419   3.296   2.179  0.3306  0.2778 -0.2075
 4638TIP3   OH235472   0.168   2.143   3.406 -0.3123 -0.1717  0.1687
 4638TIP3    H135473   0.217   2.063   3.424  0.1721  0.2570  0.8082
 4638TIP3    H235474   0.170   2.152   3.311  2.2332  0.6670  0.2189
 4639TIP3   OH235475   4.069   4.226   0.875  0.4491  0.4686 -0.7053
 4639TIP3    H135476   4.109   4.158   0.822  1.1690  0.0841  0.3014
 4639TIP3    H235477   4.020   4.179   0.942  0.3987  0.9439 -0.4014
 4640TIP3   OH235478   1.487   1.999   8.704  0.2879 -0.2534  0.1706
 4640TIP3    H135479   1.541   1.921   8.719  0.2223 -0.3982 -0.3195
 4640TIP3    H235480   1.456   1.989   8.614 -0.8534 -0.3620  0.5577
 4641TIP3   OH235481   4.494   1.300   1.880 -0.1583 -0.0248 -0.2139
 4641TIP3    H135482   4.439   1.366   1.920 -0.9670 -0.1561 -1.0854
 4641TIP3    H235483   4.453   1.281   1.796  1.3140  0.0175 -0.9891
 4642TIP3   OH235484   2.710   0.708   2.505  0.3613  0.3584 -0.2829
 4642TIP3    H135485   2.640   0.702   2.570  0.0557  1.4173 -0.5033
 4642TIP3    H235486   2.767   0.778   2.537 -0.5198  1.8380 -1.8185
 4643TIP3   OH235487   1.061   4.922   0.716 -0.0115  0.6930  0.7470
 4643TIP3    H135488   1.139   4.975   0.700  0.5901  0.1840  1.8962
 4643TIP3    H235489   1.026   4.954   0.799 -1.6035  1.5462 -0.1760
 4644TIP3   OH235490   3.566   0.445   8.611  0.0070  0.6344  0.3018
 4644TIP3    H135491   3.618   0.501   8.669  0.4108  0.3170  0.2490
 4644TIP3    H235492   3.497   0.410   8.668  1.0698 -0.5838  0.8952
 4645TIP3   OH235493   6.791   6.029   2.583  0.2320 -0.6347  0.3048
 4645TIP3    H135494   6.698   6.027   2.607 -0.0146 -0.4421 -0.5842
 4645TIP3    H235495   6.809   6.122   2.566  1.0412 -0.4248  2.1266
 4646TIP3   OH235496   6.593   6.350   3.049  0.0655 -0.2055  0.0512
 4646TIP3    H135497   6.546   6.419   3.098 -1.4205 -1.4670  0.4986
 4646TIP3    H235498   6.637   6.300   3.117 -0.2503 -0.6886 -0.0974
 4647TIP3   OH235499   1.394   3.983   8.645 -0.7950 -0.1027 -0.2067
 4647TIP3    H135500   1.344   3.909   8.609 -0.3749  0.3468 -1.8095
 4647TIP3    H235501   1.454   3.943   8.708 -2.1991 -0.8197  0.7520
 4648TIP3   OH235502   4.326   1.226   2.905 -0.0924  0.6882  0.8382
 4648TIP3    H135503   4.232   1.235   2.916  0.1301  2.4888  1.6554
 4648TIP3    H235504   4.363   1.258   2.988  1.2348 -0.8554  0.9107
 4649TIP3   OH235505   2.801   3.087   2.208 -0.5091  0.1705  0.0635
 4649TIP3    H135506   2.887   3.051   2.187 -0.0543  1.2178  0.0407
 4649TIP3    H235507   2.746   3.066   2.133 -0.8510 -2.2392  0.9129
 4650TIP3   OH235508   6.423   3.804   7.706  0.2461  0.2380 -0.3037
 4650TIP3    H135509   6.458   3.804   7.795  2.0022  1.3927 -0.9281
 4650TIP3    H235510   6.351   3.742   7.708 -0.2983  0.8594  2.1156
 4651TIP3   OH235511   2.420   4.103   2.852 -0.3726 -0.3413  0.3356
 4651TIP3    H135512   2.370   4.178   2.885  2.2868  1.7992 -0.1178
 4651TIP3    H235513   2.436   4.048   2.929 -0.6243  0.6607  1.1212
 4652TIP3   OH235514   4.418   2.224   4.179  0.4427 -0.6000 -0.1235
 4652TIP3    H135515   4.350   2.267   4.128 -0.6619 -2.1155 -0.0165
 4652TIP3    H235516   4.372   2.185   4.253  1.5781 -0.8503  0.4862
 4653TIP3   OH235517   4.970   5.026   8.453  0.5609 -0.0009  0.5003
 4653TIP3    H135518   4.919   5.103   8.430 -0.7263 -1.3774 -1.6177
 4653TIP3    H235519   4.958   5.016   8.548 -0.6118  1.4226  0.5239
 4654TIP3   OH235520   0.683   0.575   2.112  0.9041  0.2272 -0.3293
 4654TIP3    H135521   0.768   0.531   2.106  0.5005 -0.7453  0.8099
 4654TIP3    H235522   0.622   0.507   2.140 -0.5053  0.6475 -2.1996
 4655TIP3   OH235523   0.969   6.616   0.897  0.1144 -0.6844 -0.3463
 4655TIP3    H135524   0.876   6.637   0.899  0.1624 -0.4411 -0.5981
 4655TIP3    H235525   0.973   6.528   0.858  0.0937 -0.0480 -1.8516
 4656TIP3   OH235526   4.363   6.092   1.959 -0.7116 -0.6088  0.1974
 4656TIP3    H135527   4.323   6.174   1.929 -2.4274 -1.1587  0.8480
 4656TIP3    H235528   4.390   6.048   1.878  0.4150  0.6538 -0.1500
 4657TIP3   OH235529   5.623   0.136   0.700 -0.2674 -0.0823  0.1706
 4657TIP3    H135530   5.648   0.213   0.650 -0.4128 -0.2013 -0.0891
 4657TIP3    H235531   5.707   0.097   0.727 -0.1339 -0.6999 -1.0376
 4658TIP3   OH235532   2.028   2.621   1.009  0.0905  0.3767 -0.6100
 4658TIP3    H135533   2.112   2.645   1.048  1.5824 -0.4710 -3.0530
 4658TIP3    H235534   1.971   2.604   1.084  2.5052 -0.4812  1.1780
 4659TIP3   OH235535   3.177   4.091   8.571  0.2986 -0.0459 -0.2990
 4659TIP3    H135536   3.263   4.093   8.612  1.2325  0.0333 -2.1763
 4659TIP3    H235537   3.150   4.183   8.568  0.1700 -0.0658  0.2487
 4660TIP3   OH235538   4.707   5.831   1.888 -0.3622 -0.0503  0.3508
 4660TIP3    H135539   4.722   5.786   1.971  0.7309 -0.5403 -0.0892
 4660TIP3    H235540   4.795   5.860   1.861 -0.7890  0.6443 -0.3260
 4661TIP3   OH235541   5.803   1.084   2.572 -0.0516  0.3436 -0.0873
 4661TIP3    H135542   5.741   1.016   2.597 -0.7332  1.2080  0.6844
 4661TIP3    H235543   5.747   1.156   2.541  0.7259 -0.5483 -3.9969
 4662TIP3   OH235544   5.896   0.742   2.774  0.0709  0.5037  0.4767
 4662TIP3    H135545   5.943   0.824   2.781 -1.1720  1.2850 -0.0519
 4662TIP3    H235546   5.804   0.767   2.770 -0.2690 -0.8073 -1.0737
 4663TIP3   OH235547   1.604   4.162   8.183 -0.3961 -0.0542 -0.2818
 4663TIP3    H135548   1.523   4.128   8.221 -0.5497  1.1448  0.5341
 4663TIP3    H235549   1.588   4.256   8.174  0.7754  0.1468 -0.4486
 4664TIP3   OH235550   2.736   1.780   3.377 -0.1014  0.6088  0.3613
 4664TIP3    H135551   2.778   1.753   3.459  2.1269  0.2153 -0.8179
 4664TIP3    H235552   2.677   1.708   3.355  1.0328 -0.3826  0.4641
 4665TIP3   OH235553   2.962   3.536   8.605 -0.1181 -0.3812 -0.5824
 4665TIP3    H135554   2.898   3.531   8.534 -2.0330 -0.4823  1.0321
 4665TIP3    H235555   2.916   3.585   8.674  2.4664  1.7504 -0.2050
 4666TIP3   OH235556   2.810   1.113   0.401  0.2074 -0.4404  0.2675
 4666TIP3    H135557   2.721   1.078   0.403 -0.1153  0.3095  3.2775
 4666TIP3    H235558   2.800   1.203   0.369 -0.2848 -0.0774  1.3819
 4667TIP3   OH235559   1.612   1.636   8.472 -0.3127  0.1275 -0.2473
 4667TIP3    H135560   1.549   1.647   8.544  0.7530 -0.5541  0.8329
 4667TIP3    H235561   1.622   1.723   8.435  0.6641  0.9426  1.7851
 4668TIP3   OH235562   5.686   1.553   0.147  0.5659 -0.5402 -0.2486
 4668TIP3    H135563   5.623   1.537   0.076  0.8438 -0.2998 -0.5509
 4668TIP3    H235564   5.685   1.648   0.159  0.6941 -0.5595 -0.0900
 4669TIP3   OH235565   1.058   2.118   2.753  0.0345  0.3427 -0.0553
 4669TIP3    H135566   1.006   2.082   2.825  0.2055  0.2730  0.0337
 4669TIP3    H235567   0.994   2.139   2.685  0.0254 -1.2031 -0.5756
 4670TIP3   OH235568   3.861   5.653   2.553  0.2962 -0.5666 -0.2463
 4670TIP3    H135569   3.941   5.706   2.550 -0.4989  0.6811  0.0649
 4670TIP3    H235570   3.801   5.703   2.608 -1.7319  0.0153 -2.7630
 4671TIP3   OH235571   1.514   6.340   1.148 -0.1316  0.0619  0.0199
 4671TIP3    H135572   1.508   6.388   1.066  0.6057  1.1580  0.5922
 4671TIP3    H235573   1.426   6.344   1.185 -0.2930  0.1620 -0.3709
 4672TIP3   OH235574   1.857   3.842   0.432  0.5154  1.1650 -0.2281
 4672TIP3    H135575   1.899   3.835   0.517  1.3572  0.5624 -0.6775
 4672TIP3    H235576   1.840   3.935   0.420 -1.2127  1.1145  1.3313
 4673TIP3   OH235577   6.000   6.313   2.440  0.2335  0.3221 -0.4396
 4673TIP3    H135578   5.909   6.310   2.410  0.6409 -1.4808 -1.6540
 4673TIP3    H235579   5.997   6.365   2.520 -2.0856 -0.7615  0.2635
 4674TIP3   OH235580   1.381   3.753   8.098  0.1573 -0.2531  0.2028
 4674TIP3    H135581   1.334   3.702   8.032 -0.6860 -0.6827  1.1182
 4674TIP3    H235582   1.471   3.757   8.065  0.0201 -1.4749 -0.3780
 4675TIP3   OH235583   4.567   1.653   1.774 -0.2733 -0.0687 -0.1032
 4675TIP3    H135584   4.628   1.656   1.848  0.1294 -0.3261 -0.4239
 4675TIP3    H235585   4.499   1.717   1.797 -1.0381 -1.3011  1.2570
 4676TIP3   OH235586   1.330   1.577   1.565 -0.1797 -0.1803 -0.1926
 4676TIP3    H135587   1.409   1.528   1.589 -0.5727  0.5506  3.0224
 4676TIP3    H235588   1.333   1.581   1.469  2.5275 -2.0106 -0.3107
 4677TIP3   OH235589   6.034   6.710   2.371 -0.0280 -0.4140  0.2989
 4677TIP3    H135590   6.047   6.651   2.297  0.2627 -1.3394  1.0655
 4677TIP3    H235591   6.079   6.791   2.346 -0.3864 -0.5287 -0.7469
 4678TIP3   OH235592   0.746   5.396   1.840 -0.7353 -0.2832  0.1149
 4678TIP3    H135593   0.651   5.397   1.853 -0.6842 -1.0281  0.5923
 4678TIP3    H235594   0.758   5.379   1.747 -1.0695  0.5066 -0.0805
 4679TIP3   OH235595   2.278   5.154   0.612 -0.5299  0.7434  0.3579
 4679TIP3    H135596   2.314   5.175   0.526 -2.1725 -1.0500 -0.8415
 4679TIP3    H235597   2.331   5.206   0.673 -0.4553  3.4757 -1.8379
 4680TIP3   OH235598   0.701   1.882   1.979 -0.0564  0.5771  0.2196
 4680TIP3    H135599   0.784   1.914   2.014  0.3317 -0.3302  0.1510
 4680TIP3    H235600   0.682   1.803   2.030  1.3860 -1.7813 -2.6172
 4681TIP3   OH235601   6.272   3.307   1.167 -0.2829  0.4022 -0.5781
 4681TIP3    H135602   6.242   3.395   1.145 -1.5717  0.3848  0.9857
 4681TIP3    H235603   6.202   3.249   1.137  0.4904 -0.1013 -1.4620
 4682TIP3   OH235604   1.020   4.034   3.631 -0.0142  0.0850 -0.7520
 4682TIP3    H135605   1.097   4.044   3.687  0.3734  0.3283 -1.3223
 4682TIP3    H235606   1.035   4.094   3.558 -1.1934  0.8661 -0.3975
 4683TIP3   OH235607   0.022   3.926   3.932 -0.5016  0.2727  0.0897
 4683TIP3    H135608   0.018   3.831   3.944  1.7344  0.0987 -0.0617
 4683TIP3    H235609  -0.058   3.948   3.884 -1.8228 -1.2827  1.4796
 4684TIP3   OH235610   2.267   0.867   1.410 -0.9172 -0.2271  0.2051
 4684TIP3    H135611   2.254   0.959   1.389  0.0524 -0.4460 -1.5779
 4684TIP3    H235612   2.192   0.844   1.465 -1.0067  1.6829  0.9463
 4685TIP3   OH235613   1.764   4.430   0.118 -0.1741 -0.5139  0.0334
 4685TIP3    H135614   1.680   4.394   0.090 -0.4722 -0.7356  1.1370
 4685TIP3    H235615   1.812   4.447   0.037 -1.8345  0.9822 -0.7244
 4686TIP3   OH235616   6.242   0.514   2.439  0.3449  0.1559 -0.4396
 4686TIP3    H135617   6.322   0.469   2.412  1.0545  0.7636  0.5808
 4686TIP3    H235618   6.272   0.584   2.497 -0.8776  0.8452 -0.6011
 4687TIP3   OH235619   6.524   0.802   3.300  0.1643 -1.0634  0.2997
 4687TIP3    H135620   6.478   0.799   3.384  0.4161  0.2466  0.5006
 4687TIP3    H235621   6.583   0.876   3.308 -0.6328 -0.1950 -1.4526
 4688TIP3   OH235622   4.618   3.225   3.231  0.3134 -0.1433 -0.3074
 4688TIP3    H135623   4.546   3.164   3.246  0.3713 -0.6651 -1.9077
 4688TIP3    H235624   4.576   3.305   3.198  0.4563 -0.5216 -1.4451
 4689TIP3   OH235625   3.541   2.451   0.967 -0.3143 -0.1111  0.4691
 4689TIP3    H135626   3.499   2.449   0.881 -0.3612 -0.7637  0.4995
 4689TIP3    H235627   3.498   2.522   1.013 -1.6620 -0.9942  0.6317
 4690TIP3   OH235628   0.584   1.221   1.859  0.2836  0.1406  0.2463
 4690TIP3    H135629   0.509   1.240   1.916  0.0266 -0.2223  0.0345
 4690TIP3    H235630   0.635   1.157   1.907  0.5333  0.4896  0.4505
 4691TIP3   OH235631   6.151   3.127   0.188  0.1450 -0.9925 -0.5798
 4691TIP3    H135632   6.112   3.039   0.183  1.1738 -1.5716  0.8343
 4691TIP3    H235633   6.241   3.114   0.159  0.9003 -0.8548  1.5401
 4692TIP3   OH235634   0.005   3.689   2.879 -0.0966 -0.1253  0.8831
 4692TIP3    H135635  -0.058   3.727   2.819  0.4368  1.1145  1.0884
 4692TIP3    H235636   0.089   3.727   2.854  0.5561 -1.5863  0.7516
 4693TIP3   OH235637   4.405   3.959   1.399  0.1730 -0.0845 -0.2509
 4693TIP3    H135638   4.378   3.916   1.481 -0.1975  0.6359  0.0174
 4693TIP3    H235639   4.430   3.887   1.341 -1.1476 -0.7153 -0.0747
 4694TIP3   OH235640   4.808   1.890   0.386  0.0368  0.7199 -0.6566
 4694TIP3    H135641   4.861   1.953   0.435  2.9012 -0.6474 -1.7334
 4694TIP3    H235642   4.774   1.830   0.453  1.5179  0.5312 -0.0231
 4695TIP3   OH235643   0.176   0.193   2.774 -0.0840  0.1881  0.6080
 4695TIP3    H135644   0.235   0.179   2.700 -0.7645  4.1059 -0.9583
 4695TIP3    H235645   0.226   0.246   2.836 -1.4216  2.7288 -0.3018
 4696TIP3   OH235646   6.235   4.095   8.391  0.4474 -0.2196 -0.4905
 4696TIP3    H135647   6.201   4.009   8.417  1.7071 -0.6384 -0.1086
 4696TIP3    H235648   6.159   4.152   8.389 -0.1127 -0.8293  1.4776
 4697TIP3   OH235649   2.295   5.871   2.049  0.1404  0.7588 -0.0479
 4697TIP3    H135650   2.354   5.935   2.010  0.1976  1.0186  0.4539
 4697TIP3    H235651   2.270   5.910   2.133 -0.9286  0.7551 -0.3581
 4698TIP3   OH235652   5.962   1.046   2.159 -0.1562  0.5747  0.0122
 4698TIP3    H135653   5.971   1.044   2.254 -0.4119  1.4117  0.0585
 4698TIP3    H235654   5.921   0.962   2.137  0.0994  0.2848  0.6112
 4699TIP3   OH235655   2.461   1.728   2.413  0.6669  0.2369 -0.4011
 4699TIP3    H135656   2.458   1.666   2.486 -0.1436 -0.3198 -0.9029
 4699TIP3    H235657   2.494   1.677   2.339 -2.9517 -0.5187 -1.6594
 4700TIP3   OH235658   4.877   3.833   0.917 -0.1992  0.4050 -0.1506
 4700TIP3    H135659   4.882   3.929   0.912  0.4043  0.4533  0.9709
 4700TIP3    H235660   4.920   3.811   1.000  0.6720 -0.9209 -0.9157
 4701TIP3   OH235661   4.185   4.686   1.121 -0.2797  0.2936  0.3758
 4701TIP3    H135662   4.221   4.609   1.078 -1.2538  0.1513 -0.2267
 4701TIP3    H235663   4.191   4.667   1.215 -1.6347 -1.0825  0.2221
 4702TIP3   OH235664   0.901   4.721   2.855  0.1596  0.1534 -0.2276
 4702TIP3    H135665   0.993   4.722   2.830 -0.1801  2.6260 -1.6706
 4702TIP3    H235666   0.860   4.661   2.793  0.5320  0.4615 -0.7853
 4703TIP3   OH235667   3.854   3.332   2.392 -0.2931 -0.0657 -0.1982
 4703TIP3    H135668   3.822   3.304   2.478 -1.3065 -1.8232 -1.0849
 4703TIP3    H235669   3.907   3.409   2.410 -0.9632 -0.0346  1.9328
 4704TIP3   OH235670   0.037   3.498   3.065  0.5806 -0.0241 -0.1799
 4704TIP3    H135671   0.052   3.567   3.000 -0.1493  1.4413  1.1357
 4704TIP3    H235672   0.082   3.530   3.143  0.6477 -1.3048  0.3218
 4705TIP3   OH235673   5.985   4.600   1.806 -0.2035  0.4166 -0.5360
 4705TIP3    H135674   5.922   4.582   1.876  0.8140  1.0541  0.5846
 4705TIP3    H235675   5.942   4.570   1.726 -0.6962 -2.0039  0.5677
 4706TIP3   OH235676   2.164   3.244   8.649  0.0413  0.7383 -0.5014
 4706TIP3    H135677   2.185   3.334   8.626  1.5155  0.3671 -0.7233
 4706TIP3    H235678   2.139   3.202   8.567  1.7742  0.3435 -0.8760
 4707TIP3   OH235679   6.093   3.210   8.642  0.1943 -0.1577  0.1491
 4707TIP3    H135680   6.059   3.220   8.553  0.4340  0.1227  0.0880
 4707TIP3    H235681   6.030   3.152   8.685  0.3972 -0.7814 -0.3743
 4708TIP3   OH235682   6.247   2.877   1.844  0.4580 -0.3703 -0.5015
 4708TIP3    H135683   6.332   2.915   1.867  0.9107 -2.0043  0.6819
 4708TIP3    H235684   6.269   2.801   1.790  0.0730 -2.8704  2.5801
 4709TIP3   OH235685   0.819   4.937   0.196 -0.2068  0.1362 -0.1593
 4709TIP3    H135686   0.782   4.904   0.114  0.7201 -1.4152  0.0081
 4709TIP3    H235687   0.754   5.001   0.227 -1.8206 -1.1057 -0.8109
 4710TIP3   OH235688   2.896   5.697   8.639 -0.2279  0.3330 -0.3784
 4710TIP3    H135689   2.865   5.656   8.720 -1.1818  2.8214  0.6200
 4710TIP3    H235690   2.844   5.655   8.570 -0.1806 -1.0648  0.3947
 4711TIP3   OH235691   4.497   5.531   1.215 -0.4537  0.1977 -0.3620
 4711TIP3    H135692   4.455   5.446   1.225  0.1522  0.0413  1.0543
 4711TIP3    H235693   4.588   5.511   1.195  0.1802  0.4319  1.9799
 4712TIP3   OH235694   6.247   4.819   1.704  0.1455 -0.1942  0.2233
 4712TIP3    H135695   6.213   4.745   1.755  1.1285  0.3926  1.7959
 4712TIP3    H235696   6.236   4.895   1.762  1.5103  0.4625 -0.3294
 4713TIP3   OH235697   5.352   4.365   1.033 -0.2313  0.4077 -0.0716
 4713TIP3    H135698   5.282   4.300   1.037  0.1076  0.0695  0.4009
 4713TIP3    H235699   5.357   4.389   0.940 -0.5263 -0.0470 -0.2090
 4714TIP3   OH235700   4.557   6.581   1.294  0.4302 -0.1199  0.8868
 4714TIP3    H135701   4.536   6.566   1.386 -0.7009  0.1531  0.6879
 4714TIP3    H235702   4.513   6.510   1.248  1.0241 -0.2766  0.5526
 4715TIP3   OH235703   3.043   0.952   1.710  0.1670 -0.4366 -0.4886
 4715TIP3    H135704   3.001   0.994   1.786  1.1799  0.4392 -0.3770
 4715TIP3    H235705   3.007   0.864   1.709 -0.6188 -0.1550  0.4208
 4716TIP3   OH235706   6.438   0.213   0.671  0.0565 -0.2101  0.0300
 4716TIP3    H135707   6.417   0.121   0.681  2.9101 -1.2008 -1.9794
 4716TIP3    H235708   6.527   0.215   0.637 -0.5185  3.2155 -1.7973
 4717TIP3   OH235709   5.644   2.917   2.405  0.1340  0.3707  0.1196
 4717TIP3    H135710   5.692   2.950   2.481  0.3136 -1.5958  0.9307
 4717TIP3    H235711   5.683   2.831   2.388 -0.3627  0.4858 -1.7947
 4718TIP3   OH235712   1.059   5.880   8.346  0.5224 -0.1618  0.1968
 4718TIP3    H135713   0.990   5.940   8.371 -1.2033 -1.7774 -0.4501
 4718TIP3    H235714   1.125   5.936   8.304 -1.1910  1.2331 -0.7755
 4719TIP3   OH235715   2.783   0.501   1.881 -0.2943  1.0534 -0.1409
 4719TIP3    H135716   2.785   0.504   1.785 -0.5543  2.8828 -0.1263
 4719TIP3    H235717   2.690   0.493   1.903 -0.1106 -2.1982  0.0013
 4720TIP3   OH235718   6.188   3.106   1.712 -0.5292  0.2771  0.0923
 4720TIP3    H135719   6.199   3.026   1.762  2.1520 -0.2499 -1.1555
 4720TIP3    H235720   6.120   3.155   1.758 -1.2996 -2.0975  1.6322
 4721TIP3   OH235721   5.406   4.509   0.730  0.0113  0.5079 -0.1342
 4721TIP3    H135722   5.487   4.557   0.716  0.9957 -1.1531 -0.3914
 4721TIP3    H235723   5.350   4.534   0.657  0.9868  0.2826 -0.9828
 4722TIP3   OH235724   3.118   4.038   1.451 -0.0702  0.6695  0.1986
 4722TIP3    H135725   3.117   3.945   1.476  1.7811  0.7472  0.7350
 4722TIP3    H235726   3.052   4.045   1.382 -0.4577 -0.9892  0.3606
 4723TIP3   OH235727   3.368   5.565   2.850  0.2627  0.1706  0.4411
 4723TIP3    H135728   3.405   5.635   2.904  1.8911  0.2532 -0.6880
 4723TIP3    H235729   3.436   5.498   2.849 -0.7109 -0.8438  0.3847
 4724TIP3   OH235730   3.283   0.965   1.391 -0.3112  0.5085 -0.0398
 4724TIP3    H135731   3.189   0.978   1.406 -0.0420  1.0810  1.3329
 4724TIP3    H235732   3.325   1.032   1.445  0.8975  0.3249 -0.7171
 4725TIP3   OH235733   3.610   1.186   0.817  0.4247 -0.2023  0.4416
 4725TIP3    H135734   3.601   1.207   0.724 -0.9070 -0.6192  0.4479
 4725TIP3    H235735   3.591   1.269   0.862 -0.5642 -0.3785  0.3682
 4726TIP3   OH235736   0.697   4.230   7.810 -0.3661  0.4106 -0.3019
 4726TIP3    H135737   0.754   4.175   7.757  0.7416 -1.1412  2.3092
 4726TIP3    H235738   0.751   4.258   7.884 -2.6449 -0.2917  1.7698
 4727TIP3   OH235739   5.409   6.775   8.495  0.3922  0.0969 -0.3476
 4727TIP3    H135740   5.495   6.735   8.503 -0.0796 -1.0506 -0.7987
 4727TIP3    H235741   5.384   6.759   8.404 -1.1221 -1.3546  0.2715
 4728TIP3   OH235742   0.388   5.560   2.192  0.1916 -0.4044  0.4142
 4728TIP3    H135743   0.440   5.588   2.267  1.9058 -0.7278 -0.6012
 4728TIP3    H235744   0.325   5.631   2.179  0.4956  0.1084  1.5451
 4729TIP3   OH235745   4.531   2.145   1.916  0.1780 -0.7026 -0.2482
 4729TIP3    H135746   4.445   2.114   1.943  0.0461 -0.8233 -0.7935
 4729TIP3    H235747   4.583   2.066   1.905  0.5315 -0.6019  0.6305
 4730TIP3   OH235748   4.550   4.652   0.688  0.6665  0.2252 -0.2431
 4730TIP3    H135749   4.549   4.731   0.634 -0.0810  0.5197  0.1871
 4730TIP3    H235750   4.643   4.631   0.699  0.8962  1.3556  0.0682
 4731TIP3   OH235751   2.543   0.806   1.466 -0.8811  0.4109 -0.3073
 4731TIP3    H135752   2.532   0.733   1.406 -0.0842 -1.3162  1.5121
 4731TIP3    H235753   2.456   0.845   1.474 -2.0769 -2.2395  0.9133
 4732TIP3   OH235754   5.512   2.636   2.904 -0.1458  0.0896 -0.3276
 4732TIP3    H135755   5.445   2.592   2.957  0.3469  1.1648  1.2727
 4732TIP3    H235756   5.594   2.595   2.933  0.0631  0.1398 -0.8514
 4733TIP3   OH235757   0.232   4.195   4.083 -0.1904  0.1032 -0.1321
 4733TIP3    H135758   0.164   4.138   4.119  1.1266 -0.8199  1.0243
 4733TIP3    H235759   0.225   4.276   4.134 -0.1453 -0.1563  0.2905
 4734TIP3   OH235760   4.978   1.027   1.758 -0.3869  0.5706  0.6187
 4734TIP3    H135761   5.028   0.983   1.689  1.6375  0.8009  1.8687
 4734TIP3    H235762   4.890   1.036   1.721  1.1104  2.9899 -3.0704
 4735TIP3   OH235763   6.440   1.649   2.394 -0.1502 -0.4075  0.2376
 4735TIP3    H135764   6.401   1.652   2.481 -0.5994 -2.5501  0.1563
 4735TIP3    H235765   6.370   1.679   2.335 -0.2211 -0.0428  0.5068
 4736TIP3   OH235766   6.711   3.439   2.785 -0.0140  0.0960  0.4935
 4736TIP3    H135767   6.789   3.411   2.833  0.9761  0.5347 -0.7639
 4736TIP3    H235768   6.739   3.519   2.739 -1.5405  0.8688  0.8351
 4737TIP3   OH235769   1.969   4.961   3.063 -0.3516 -0.8051  0.3760
 4737TIP3    H135770   1.936   4.913   3.139 -1.9261 -0.0859  0.1843
 4737TIP3    H235771   1.891   4.986   3.015  0.5767 -0.3615 -0.9485
 4738TIP3   OH235772   0.619   4.718   2.316  0.7926  0.0884  0.1694
 4738TIP3    H135773   0.575   4.782   2.371  0.1024  0.2197 -0.5230
 4738TIP3    H235774   0.551   4.656   2.291  1.3483 -0.6374  0.4205
 4739TIP3   OH235775   1.618   5.342   0.135  0.1099 -0.0262  0.1100
 4739TIP3    H135776   1.658   5.412   0.187  2.2705  0.3375 -1.8777
 4739TIP3    H235777   1.626   5.264   0.190 -1.0698  0.9750  1.7937
 4740TIP3   OH235778   4.217   1.796   0.526 -0.6430 -0.5530  0.2218
 4740TIP3    H135779   4.192   1.763   0.612 -1.6576 -0.6753 -0.1106
 4740TIP3    H235780   4.192   1.888   0.526  1.0533 -0.0566  0.7021
 4741TIP3   OH235781   0.566   0.978   8.549 -0.4117  0.0468  0.0292
 4741TIP3    H135782   0.530   0.975   8.461 -0.2731 -0.7113 -0.0109
 4741TIP3    H235783   0.587   0.887   8.569 -0.5492  0.1927  0.8889
 4742TIP3   OH235784   1.577   0.957   1.471  0.1956 -0.6357  0.5925
 4742TIP3    H135785   1.509   1.003   1.520 -0.1162  0.0110 -0.4122
 4742TIP3    H235786   1.646   0.939   1.535 -0.1040  0.3785  1.2156
 4743TIP3   OH235787   0.424   3.893   2.750  0.0360  0.5957 -0.2746
 4743TIP3    H135788   0.427   3.988   2.740 -0.6380  0.5123 -1.5148
 4743TIP3    H235789   0.386   3.862   2.668  0.7178 -0.7863 -0.0933
 4744TIP3   OH235790   4.692   6.512   0.593 -0.3742 -0.2353  0.0281
 4744TIP3    H135791   4.716   6.424   0.622 -0.8831 -0.2147  0.5291
 4744TIP3    H235792   4.681   6.562   0.674  0.8668  0.5542 -0.2733
 4745TIP3   OH235793   5.919   3.250   2.379 -0.4445 -1.0433 -0.2851
 4745TIP3    H135794   5.865   3.232   2.457 -1.6885 -0.2903 -0.9414
 4745TIP3    H235795   6.007   3.266   2.414 -1.2457  0.6500  1.1181
 4746TIP3   OH235796   0.707   4.053   3.383  0.0199 -0.4118 -0.1590
 4746TIP3    H135797   0.620   4.090   3.398  0.2278  0.4810 -1.0850
 4746TIP3    H235798   0.699   4.005   3.301  0.6809  0.6497 -0.8710
 4747TIP3   OH235799   1.661   6.738   0.774  0.2776  0.0085  0.5726
 4747TIP3    H135800   1.714   6.716   0.698 -0.4982  0.3233 -0.0623
 4747TIP3    H235801   1.593   6.671   0.777 -0.3487  0.6308  0.3447
 4748TIP3   OH235802   3.629   6.367   1.968 -0.1533  0.7887 -0.2154
 4748TIP3    H135803   3.609   6.443   2.023  0.3575  1.3308 -0.7682
 4748TIP3    H235804   3.723   6.375   1.950 -0.1668  0.2073 -0.5584
 4749TIP3   OH235805   0.208   3.584   0.643 -0.4510  0.6128 -0.2576
 4749TIP3    H135806   0.182   3.553   0.556  0.0136 -2.4659  0.5872
 4749TIP3    H235807   0.303   3.590   0.639 -0.4617  0.9064 -0.0883
 4750TIP3   OH235808   6.509   4.459   2.223 -0.3282 -0.5141  0.1985
 4750TIP3    H135809   6.602   4.439   2.228 -0.2579 -0.6993 -1.4423
 4750TIP3    H235810   6.469   4.399   2.286  0.6635 -0.3053  1.0539
 4751TIP3   OH235811   2.598   3.321   0.619  0.0993  0.3912 -0.0037
 4751TIP3    H135812   2.599   3.338   0.714 -0.0251  1.0522 -0.1211
 4751TIP3    H235813   2.645   3.238   0.610  0.7859  0.7104  0.5646
 4752TIP3   OH235814   3.804   4.493   2.810  0.2387  0.8021 -0.5087
 4752TIP3    H135815   3.774   4.514   2.898 -3.3755  1.5103 -1.7151
 4752TIP3    H235816   3.739   4.431   2.777  2.2695 -0.5591 -2.2483
 4753TIP3   OH235817   3.732   0.182   2.919  0.2552 -0.0400 -0.4225
 4753TIP3    H135818   3.670   0.250   2.894 -0.7618 -0.6952  0.2635
 4753TIP3    H235819   3.786   0.169   2.841 -0.6016  0.3924 -1.0963
 4754TIP3   OH235820   2.944   6.356   8.523  0.2163 -0.0136 -0.1043
 4754TIP3    H135821   3.009   6.419   8.553  0.2025 -0.1990  0.3214
 4754TIP3    H235822   2.980   6.320   8.442  0.0422  0.8299 -0.5687
 4755TIP3   OH235823   4.406   1.125   0.419  0.2561  0.0559  0.1986
 4755TIP3    H135824   4.416   1.220   0.426 -2.3837  0.4737 -0.8092
 4755TIP3    H235825   4.458   1.101   0.342 -0.2436  0.9036 -0.4114
 4756TIP3   OH235826   5.163   0.385   2.665 -0.1044 -0.5119 -0.6763
 4756TIP3    H135827   5.184   0.342   2.748 -1.0284  2.8742  1.5168
 4756TIP3    H235828   5.075   0.354   2.644  1.1305 -3.4870 -2.0277
 4757TIP3   OH235829   2.094   1.854   1.400 -0.0330 -0.0482 -0.1473
 4757TIP3    H135830   2.187   1.833   1.393 -0.0167  0.0381 -0.1853
 4757TIP3    H235831   2.073   1.837   1.492  0.3622  1.3351  0.2103
 4758TIP3   OH235832   3.222   5.755   1.057 -0.0190 -0.4275 -0.0076
 4758TIP3    H135833   3.290   5.689   1.073  1.2220  0.6075 -0.8443
 4758TIP3    H235834   3.174   5.722   0.981 -1.4645 -1.8919  1.4492
 4759TIP3   OH235835   3.128   5.114   0.783  0.7875 -0.1172 -0.3695
 4759TIP3    H135836   3.123   5.170   0.706  0.8666  1.1233  0.4974
 4759TIP3    H235837   3.040   5.077   0.793 -0.0986  2.0905  0.6347
 4760TIP3   OH235838   3.451   0.895   3.017 -0.0002  0.1505 -0.3972
 4760TIP3    H135839   3.513   0.854   2.956  1.7569  0.5300  1.0218
 4760TIP3    H235840   3.452   0.988   2.992  1.5437  0.4990  0.7834
 4761TIP3   OH235841   4.238   2.874   8.193  0.0440  0.3916  0.3379
 4761TIP3    H135842   4.208   2.891   8.104  0.8122 -0.8032 -0.1886
 4761TIP3    H235843   4.333   2.862   8.184  0.0306 -0.4805  1.1789
 4762TIP3   OH235844   1.620   6.589   3.875 -0.0362  0.0898 -0.2485
 4762TIP3    H135845   1.682   6.625   3.938 -0.4386 -1.2922  0.9944
 4762TIP3    H235846   1.534   6.604   3.915 -0.5170  1.6285 -1.7628
 4763TIP3   OH235847   3.510   2.521   1.322  0.5308 -0.2706  0.7464
 4763TIP3    H135848   3.521   2.606   1.280  0.2316  0.6788  2.5437
 4763TIP3    H235849   3.416   2.505   1.320  0.4671  0.0103  1.5027
 4764TIP3   OH235850   2.819   4.995   3.189  1.0752  0.2837  0.4908
 4764TIP3    H135851   2.766   5.014   3.111 -1.7271 -2.2328  1.5965
 4764TIP3    H235852   2.891   4.940   3.156 -1.2097 -2.5181 -0.2587
 4765TIP3   OH235853   5.713   0.298   0.202 -0.0976  0.0695  0.3402
 4765TIP3    H135854   5.804   0.309   0.175 -0.6848 -1.0446 -2.3310
 4765TIP3    H235855   5.706   0.206   0.225 -0.4903  0.2202  0.8267
 4766TIP3   OH235856   6.686   4.449   1.395  0.3303 -0.0361 -0.1557
 4766TIP3    H135857   6.767   4.416   1.356  0.3284  2.0658 -2.0961
 4766TIP3    H235858   6.684   4.542   1.373 -2.6588 -0.0146 -0.2120
 4767TIP3   OH235859   5.433   6.193   1.462  0.0287 -0.4027  0.5921
 4767TIP3    H135860   5.511   6.150   1.497  0.6291  0.0016 -0.2050
 4767TIP3    H235861   5.359   6.146   1.502  0.6554  0.1258  2.4891
 4768TIP3   OH235862   0.237   3.404   2.099  0.1545  0.3065  0.3739
 4768TIP3    H135863   0.143   3.391   2.101  0.2788 -0.5702  0.6645
 4768TIP3    H235864   0.248   3.499   2.088 -0.7807  0.1618 -2.8523
 4769TIP3   OH235865   3.290   2.202   0.863 -0.1219 -0.7359 -0.3859
 4769TIP3    H135866   3.374   2.244   0.844  0.2826 -0.1214  2.2609
 4769TIP3    H235867   3.299   2.113   0.829  2.3446 -1.2411  1.3052
 4770TIP3   OH235868   4.066   1.360   2.837  0.3138  0.4208 -0.2313
 4770TIP3    H135869   4.023   1.425   2.893 -0.9182  0.7999 -1.5353
 4770TIP3    H235870   4.076   1.405   2.753  2.1614 -0.1142 -0.3282
 4771TIP3   OH235871   1.976   3.564   0.582  0.2433 -0.2476  0.0577
 4771TIP3    H135872   2.068   3.540   0.591  0.1180 -1.1128 -0.7962
 4771TIP3    H235873   1.964   3.578   0.488 -0.2559  0.9020  0.2780
 4772TIP3   OH235874   3.864   2.449   3.370 -0.4352  0.0269  0.6013
 4772TIP3    H135875   3.791   2.432   3.430 -0.4842 -0.0751  0.5125
 4772TIP3    H235876   3.830   2.515   3.310 -0.4184  0.0584  0.6264
 4773TIP3   OH235877   5.720   6.383   2.952  0.0519  0.1241  0.4890
 4773TIP3    H135878   5.777   6.448   2.911 -0.7904 -0.4427 -1.7722
 4773TIP3    H235879   5.778   6.310   2.974  0.6999  0.8708  1.3081
 4774TIP3   OH235880   3.576   1.102   8.740  0.1471  0.4661  0.0482
 4774TIP3    H135881   3.621   1.179   8.704 -0.3138  0.9439  0.4736
 4774TIP3    H235882   3.485   1.130   8.750 -0.6543 -0.9731 -2.2897
 4775TIP3   OH235883   0.806   0.448   0.178 -0.1979 -0.3841 -0.3562
 4775TIP3    H135884   0.785   0.452   0.085  2.5579 -1.6358 -1.1627
 4775TIP3    H235885   0.798   0.538   0.209  1.7957  0.6961 -2.6260
 4776TIP3   OH235886   6.376   1.643   3.787  0.3150 -0.0639  0.6579
 4776TIP3    H135887   6.370   1.549   3.807  0.8633 -0.7345 -1.9863
 4776TIP3    H235888   6.314   1.656   3.716  1.2071  1.3129  0.1135
 4777TIP3   OH235889   5.132   3.501   2.774  0.0158 -0.4546  1.1066
 4777TIP3    H135890   5.134   3.453   2.857  1.9265 -0.8637  0.8542
 4777TIP3    H235891   5.186   3.450   2.714 -2.8058 -1.2051 -1.0466
 4778TIP3   OH235892   4.400   4.996   0.697  0.4348  0.2528  0.0716
 4778TIP3    H135893   4.366   4.909   0.677  0.8299  0.3383 -0.9852
 4778TIP3    H235894   4.495   4.988   0.688  0.7019  0.1999  2.3303
 4779TIP3   OH235895   4.447   0.977   1.770  0.5166  0.2946  0.1068
 4779TIP3    H135896   4.417   1.060   1.731  1.5821  0.6353 -0.0262
 4779TIP3    H235897   4.456   0.997   1.863  0.9466  0.3854  0.0475
 4780TIP3   OH235898   1.391   0.995   0.964 -0.0883  0.0338 -0.3863
 4780TIP3    H135899   1.404   0.901   0.946 -1.5420 -0.3541  0.4362
 4780TIP3    H235900   1.384   1.035   0.878  0.8015 -0.5582 -0.7560
 4781TIP3   OH235901   1.433   1.699   2.876 -0.5001  0.0391 -0.3210
 4781TIP3    H135902   1.487   1.625   2.846  0.1382 -0.3973  1.7930
 4781TIP3    H235903   1.473   1.727   2.958 -4.0406 -1.0189  1.9767
 4782TIP3   OH235904   3.057   6.770   0.810  0.1422  0.2037  0.3283
 4782TIP3    H135905   2.965   6.743   0.818  0.2617 -0.0826  0.8012
 4782TIP3    H235906   3.093   6.714   0.742  0.4660 -1.0906  1.5056
 4783TIP3   OH235907   2.644   3.656   1.691 -0.0443 -0.3368 -0.3481
 4783TIP3    H135908   2.556   3.683   1.665  0.3106  0.6782 -0.5219
 4783TIP3    H235909   2.665   3.585   1.630  0.2149  1.0768 -1.9743
 4784TIP3   OH235910   5.112   2.057   1.777 -0.0229 -0.1067  0.1100
 4784TIP3    H135911   5.156   2.012   1.705  1.1298  2.0036 -0.5852
 4784TIP3    H235912   5.169   2.131   1.798 -1.7092  0.9295  1.3349
 4785TIP3   OH235913   2.035   4.002   2.272  0.2799 -0.3825  0.3111
 4785TIP3    H135914   2.049   4.047   2.188 -2.9973 -0.6327 -0.5382
 4785TIP3    H235915   1.986   4.065   2.325 -0.3735 -1.3025  0.8424
 4786TIP3   OH235916   6.456   2.762   3.003  0.5622 -0.0270  0.0332
 4786TIP3    H135917   6.399   2.731   2.933  0.4649 -0.2294  0.1977
 4786TIP3    H235918   6.537   2.787   2.960  0.7996 -0.9284 -0.0582
 4787TIP3   OH235919   1.601   4.233   4.199  0.5461 -0.3218  0.0137
 4787TIP3    H135920   1.536   4.230   4.129  1.4753 -3.6194 -0.9078
 4787TIP3    H235921   1.667   4.295   4.169 -0.6205  0.7002 -0.5008
 4788TIP3   OH235922   6.463   1.438   3.513  0.1551 -0.1434  0.0563
 4788TIP3    H135923   6.445   1.441   3.607  0.1593 -2.3151  0.1844
 4788TIP3    H235924   6.526   1.509   3.498  1.4055 -0.7590  2.0183
 4789TIP3   OH235925   5.411   2.736   8.554  0.4705 -0.2617 -0.2423
 4789TIP3    H135926   5.416   2.814   8.500  1.2025  0.7033  1.1708
 4789TIP3    H235927   5.346   2.757   8.621  0.2664 -1.0850 -0.1620
 4790TIP3   OH235928   5.269   0.875   2.047  0.5632  0.2129 -0.8361
 4790TIP3    H135929   5.243   0.898   1.958  0.9978 -1.6743 -1.4845
 4790TIP3    H235930   5.363   0.859   2.041  0.6250  0.2327 -0.0032
 4791TIP3   OH235931   3.654   2.547   2.194  0.3457  0.0232 -0.2756
 4791TIP3    H135932   3.648   2.548   2.289 -0.9934  0.8124 -0.3496
 4791TIP3    H235933   3.565   2.565   2.164  0.9657  0.9250 -1.6622
 4792TIP3   OH235934   1.578   1.274   2.062 -0.0842  0.2341 -0.3797
 4792TIP3    H135935   1.581   1.316   2.148 -0.2212 -1.6333  0.6107
 4792TIP3    H235936   1.542   1.187   2.080 -0.9075  0.0907 -2.4753
 4793TIP3   OH235937   5.537   6.060   1.961 -0.2465 -0.0708  0.3583
 4793TIP3    H135938   5.482   6.130   1.926  1.2376  1.1078  0.2403
 4793TIP3    H235939   5.481   5.982   1.961 -1.7254  0.9506 -0.2014
 4794TIP3   OH235940   0.429   3.750   3.309 -0.5671  0.5554  0.3229
 4794TIP3    H135941   0.489   3.769   3.381 -1.1328 -0.2033  1.0251
 4794TIP3    H235942   0.344   3.740   3.352 -1.1460  1.3552 -0.6206
 4795TIP3   OH235943   0.868   1.311   2.613  0.1182 -0.1061 -0.6108
 4795TIP3    H135944   0.800   1.341   2.673  1.0720  0.3642  0.2684
 4795TIP3    H235945   0.909   1.237   2.657 -0.6904 -1.2656 -1.7418
 4796TIP3   OH235946   2.916   6.411   1.851  0.4611 -0.0801 -0.8579
 4796TIP3    H135947   2.988   6.349   1.864 -0.5901 -1.2124 -0.2047
 4796TIP3    H235948   2.958   6.488   1.813  2.0581 -0.5905 -0.2419
 4797TIP3   OH235949   0.690   1.303   2.842 -0.1009 -0.2303  0.8323
 4797TIP3    H135950   0.601   1.336   2.827 -0.5583 -2.1280 -1.3385
 4797TIP3    H235951   0.680   1.207   2.838  2.0720 -0.4741  0.1109
 4798TIP3   OH235952   2.610   4.096   1.402  0.2290  0.4123  0.4896
 4798TIP3    H135953   2.583   4.146   1.479  0.9663 -0.2211  1.1795
 4798TIP3    H235954   2.661   4.024   1.437 -0.2210 -0.4355 -0.5395
 4799TIP3   OH235955   4.353   2.929   2.345  0.9494  0.1807 -0.1626
 4799TIP3    H135956   4.354   2.891   2.257 -2.6474 -1.0326  0.1619
 4799TIP3    H235957   4.276   2.986   2.346 -0.6186 -1.7201  2.7728
 4800TIP3   OH235958   5.992   2.437   3.770  0.4685  0.2160  0.1483
 4800TIP3    H135959   5.951   2.459   3.686  2.4077 -0.9373 -1.2225
 4800TIP3    H235960   5.999   2.520   3.816 -1.2201  0.7857 -0.5438
 4801TIP3   OH235961   0.382   1.071   0.612 -1.1032 -0.5860  0.2990
 4801TIP3    H135962   0.338   1.156   0.617 -1.7223 -0.7200 -1.7432
 4801TIP3    H235963   0.463   1.089   0.564 -0.8241 -1.0199  0.5998
 4802TIP3   OH235964   0.014   3.799   1.705  0.6007 -0.3769  0.0516
 4802TIP3    H135965  -0.001   3.887   1.673  2.2021  0.0109  0.2836
 4802TIP3    H235966   0.099   3.773   1.667  0.5081 -1.5260  0.5631
 4803TIP3   OH235967   0.672   3.879   0.991  0.6627 -0.0834  0.1019
 4803TIP3    H135968   0.613   3.887   1.066 -0.1870  0.1229 -0.5772
 4803TIP3    H235969   0.655   3.791   0.957  2.1548 -0.7762  1.0477
 4804TIP3   OH235970   0.914   1.112   0.845  0.2057 -0.5030 -0.1990
 4804TIP3    H135971   0.860   1.172   0.897  0.2663 -0.1095 -0.5814
 4804TIP3    H235972   0.946   1.048   0.908 -0.8240 -0.8312  0.0203
 4805TIP3   OH235973   1.069   5.919   1.977 -0.5424 -0.4230 -0.5491
 4805TIP3    H135974   1.051   5.834   2.018 -1.3988 -0.5862 -1.2424
 4805TIP3    H235975   1.023   5.982   2.033  1.0266 -0.2479  0.6322
 4806TIP3   OH235976   0.047   0.296   1.008 -0.2375 -0.2626  0.2656
 4806TIP3    H135977   0.083   0.231   1.069  0.8129  1.9944  2.2332
 4806TIP3    H235978   0.113   0.365   1.006 -1.3505  0.8058 -1.6589
 4807TIP3   OH235979   0.031   4.991   8.190 -0.3309 -0.4354  0.0031
 4807TIP3    H135980   0.126   5.003   8.195 -0.1467 -1.6930 -0.2111
 4807TIP3    H235981   0.019   4.901   8.159 -1.5868  0.0409 -1.0081
 4808TIP3   OH235982   1.091   3.571   0.927  0.1537  0.0228  0.3304
 4808TIP3    H135983   1.018   3.578   0.865 -0.1552  2.0255  0.8339
 4808TIP3    H235984   1.079   3.485   0.968 -0.7423 -0.5288 -1.0188
 4809TIP3   OH235985   5.921   5.740   8.761  0.3443  0.0415  0.3226
 4809TIP3    H135986   5.917   5.831   8.733  0.8246  0.4715  1.5715
 4809TIP3    H235987   5.873   5.692   8.693  1.7016  0.9553 -1.3700
 4810TIP3   OH235988   2.021   1.970   0.509  0.3446 -0.2673 -0.1006
 4810TIP3    H135989   1.938   1.924   0.523  0.3104  0.2932  1.8706
 4810TIP3    H235990   2.072   1.911   0.454 -1.0661 -0.9540 -0.7442
 4811TIP3   OH235991   0.273   0.006   4.007  0.2853 -0.4158  0.5175
 4811TIP3    H135992   0.211  -0.029   4.071  0.7642 -0.3005  1.0500
 4811TIP3    H235993   0.286  -0.065   3.945  0.3684 -0.7785  0.9487
 4812TIP3   OH235994   1.637   0.935   1.735  0.1358 -0.0530  0.1968
 4812TIP3    H135995   1.665   1.026   1.726  2.2292 -0.8099 -2.5106
 4812TIP3    H235996   1.657   0.912   1.825 -0.0052  2.0186  0.7981
 4813TIP3   OH235997   5.238   6.007   1.504 -0.0972 -0.8010  0.6265
 4813TIP3    H135998   5.235   5.933   1.564 -1.4069 -0.4620  0.9959
 4813TIP3    H235999   5.148   6.037   1.496  0.1197 -0.4692 -1.0776
 4814TIP3   OH236000   4.928   3.405   3.116 -0.1724  0.2728 -0.0574
 4814TIP3    H136001   4.956   3.349   3.188 -0.0687  1.7180  1.0676
 4814TIP3    H236002   4.997   3.396   3.050  1.4093  1.3284  1.3572
 4815TIP3   OH236003   5.585   2.755   2.664 -0.1392 -0.1770  0.3792
 4815TIP3    H136004   5.615   2.692   2.598 -1.1927  1.0545 -1.3600
 4815TIP3    H236005   5.550   2.700   2.734 -1.0315 -1.5705 -1.0842
 4816TIP3   OH236006   4.022   5.672   3.773  0.2866 -0.8791  0.3331
 4816TIP3    H136007   4.045   5.617   3.698  1.2575 -0.5625  0.3918
 4816TIP3    H236008   3.926   5.678   3.769  0.3995  1.0620 -2.3000
 4817TIP3   OH236009   1.714   4.205   2.106 -0.4561 -0.4822  0.3205
 4817TIP3    H136010   1.694   4.192   2.199 -0.0145 -0.0800  0.4807
 4817TIP3    H236011   1.775   4.279   2.105 -1.5422  0.4302 -0.4023
 4818TIP3   OH236012   1.518   0.964   2.953  0.4899 -0.8502 -0.6300
 4818TIP3    H136013   1.568   1.045   2.938 -0.5604 -0.0878 -0.1129
 4818TIP3    H236014   1.575   0.895   2.918  0.8363  0.2247 -2.3670
 4819TIP3   OH236015   4.680   0.632   0.990 -0.3560  0.1424 -0.2171
 4819TIP3    H136016   4.609   0.681   0.949  1.0269  0.8873 -1.8839
 4819TIP3    H236017   4.654   0.540   0.982 -1.2489  0.4129 -0.5417
 4820TIP3   OH236018   1.862   4.896   0.598  0.5570  0.8599  0.4240
 4820TIP3    H136019   1.947   4.916   0.559 -0.6489 -0.8800 -3.6194
 4820TIP3    H236020   1.824   4.981   0.619  1.9385  1.8659 -0.9513
 4821TIP3   OH236021   0.834   6.107   0.859  0.0603  0.6134 -0.2179
 4821TIP3    H136022   0.794   6.106   0.946  1.2357 -2.5202  0.4285
 4821TIP3    H236023   0.926   6.087   0.875  0.3081 -0.0085 -2.1585
 4822TIP3   OH236024   6.618   1.232   1.744 -0.7672 -0.4079  0.2236
 4822TIP3    H136025   6.664   1.193   1.819 -0.8909 -1.1897 -0.0975
 4822TIP3    H236026   6.658   1.318   1.733  0.0517 -0.7503  0.4627
 4823TIP3   OH236027   6.250   0.627   1.650  0.0522  0.4687  0.4116
 4823TIP3    H136028   6.248   0.556   1.586  0.8019  0.2383  0.6202
 4823TIP3    H236029   6.254   0.582   1.735 -1.3228  0.7672  0.6532
 4824TIP3   OH236030   0.733   1.796   0.170  0.2666 -0.0569  0.1544
 4824TIP3    H136031   0.655   1.813   0.116  0.2873  0.5049  0.3010
 4824TIP3    H236032   0.793   1.867   0.150  1.3122 -1.2085 -0.9786
 4825TIP3   OH236033   4.916   1.670   3.530 -0.3325  0.1213  0.1787
 4825TIP3    H136034   4.962   1.645   3.450  1.9139  0.0578  1.4024
 4825TIP3    H236035   4.888   1.587   3.569  2.6852 -0.2979  1.7119
 4826TIP3   OH236036   2.723   2.627   1.417 -0.3464 -0.1271  0.0646
 4826TIP3    H136037   2.651   2.610   1.478  0.2845 -0.3804  0.7545
 4826TIP3    H236038   2.801   2.597   1.464  0.3848  1.4457 -0.1098
 4827TIP3   OH236039   3.395   6.812   3.919 -0.5300  0.1884 -0.2084
 4827TIP3    H136040   3.344   6.732   3.932  2.9355 -1.9372  2.0449
 4827TIP3    H236041   3.441   6.798   3.837  0.0721 -0.1593  0.1830
 4828TIP3   OH236042   2.911   2.123   2.498 -0.5070 -0.1333 -0.5115
 4828TIP3    H136043   2.861   2.129   2.416 -1.1481  1.5548 -0.0449
 4828TIP3    H236044   2.845   2.102   2.564 -0.4214  0.8406 -0.0916
 4829TIP3   OH236045   5.342   4.812   0.286  0.3501 -0.5186 -0.4045
 4829TIP3    H136046   5.327   4.718   0.279 -1.3370 -0.3313  0.1437
 4829TIP3    H236047   5.364   4.826   0.378  1.8240 -0.4968 -0.7351
 4830TIP3   OH236048   4.435   1.693   2.343  0.3765  0.7960  0.0116
 4830TIP3    H136049   4.401   1.605   2.359 -0.9396  1.2790  0.0078
 4830TIP3    H236050   4.521   1.679   2.302 -0.3687 -0.4968 -1.1932
 4831TIP3   OH236051   5.364   0.048   0.055  0.3558 -0.2429  0.3436
 4831TIP3    H136052   5.372   0.126   0.001  1.2183 -1.1402 -0.8929
 4831TIP3    H236053   5.452   0.010   0.055  0.0966 -0.8809  1.4425
 4832TIP3   OH236054   4.333   4.002   3.123  0.5522 -0.0251  0.0095
 4832TIP3    H136055   4.419   4.000   3.081  1.2707  2.2786  1.2139
 4832TIP3    H236056   4.295   4.086   3.096 -0.1464  0.2343  1.6511
 4833TIP3   OH236057   2.506   3.783   2.481  0.5928  0.5945  1.0417
 4833TIP3    H136058   2.464   3.748   2.560 -1.4085  0.0627 -0.1773
 4833TIP3    H236059   2.527   3.874   2.504 -1.2477  0.8869  1.7590
 4834TIP3   OH236060   3.873   5.900   0.807 -0.0556 -0.3833  0.1471
 4834TIP3    H136061   3.811   5.828   0.791 -1.8772  0.5452  2.4157
 4834TIP3    H236062   3.818   5.978   0.812  1.4324  0.6527  1.1244
 4835TIP3   OH236063   4.114   1.999   3.217  0.1341  0.0272  0.3368
 4835TIP3    H136064   4.036   2.033   3.260  0.3806  0.4704  0.4307
 4835TIP3    H236065   4.187   2.043   3.260  0.4419 -0.3971  0.2607
 4836TIP3   OH236066   1.574   6.526   3.181  0.0491 -0.3860  0.2292
 4836TIP3    H136067   1.528   6.595   3.133 -0.8724 -1.3511 -0.3318
 4836TIP3    H236068   1.515   6.502   3.252  0.2364 -0.7731  0.2604
 4837TIP3   OH236069   5.259   5.237   0.295 -0.0309  0.0768 -0.1799
 4837TIP3    H136070   5.239   5.311   0.352 -0.1525 -1.1910  1.5296
 4837TIP3    H236071   5.343   5.258   0.255  0.7716  0.4243  1.6004
 4838TIP3   OH236072   2.549   1.001   0.425 -0.0653 -0.1136  0.5650
 4838TIP3    H136073   2.538   0.953   0.343  0.0038 -0.4955  0.7730
 4838TIP3    H236074   2.469   1.052   0.434  0.6697  1.3055 -0.6213
 4839TIP3   OH236075   2.580   2.936   1.199  0.2577 -0.6237 -0.1320
 4839TIP3    H136076   2.650   2.952   1.263 -0.6524 -1.6160  1.1625
 4839TIP3    H236077   2.573   2.840   1.195  0.0887 -0.5782 -1.5221
 4840TIP3   OH236078   0.240   3.668   8.348 -0.2229  0.4241 -0.3733
 4840TIP3    H136079   0.278   3.582   8.364 -1.5260  0.3185  3.2949
 4840TIP3    H236080   0.170   3.652   8.284 -0.3761 -1.2543  0.1646
 4841TIP3   OH236081   1.645   5.646   1.567 -0.8806  0.6916 -0.1065
 4841TIP3    H136082   1.651   5.721   1.626 -1.5681  0.4990  0.2189
 4841TIP3    H236083   1.718   5.658   1.506 -0.2164  0.9350  0.7252
 4842TIP3   OH236084   3.077   2.591   8.124 -0.0813  0.5542  0.0624
 4842TIP3    H136085   3.089   2.497   8.139  1.2813  0.4963 -1.1559
 4842TIP3    H236086   2.982   2.605   8.128 -0.2224 -0.5874  1.7237
 4843TIP3   OH236087   3.268   0.077   1.152 -0.0864 -0.2941  0.0686
 4843TIP3    H136088   3.203   0.008   1.139 -0.5186  0.2916 -0.9744
 4843TIP3    H236089   3.218   0.158   1.148  0.6654  0.1542 -0.4904
 4844TIP3   OH236090   4.864   3.696   3.142 -0.0006 -0.1914 -0.7652
 4844TIP3    H136091   4.864   3.606   3.108  0.4909  0.0354 -1.3886
 4844TIP3    H236092   4.854   3.751   3.065  2.2076  0.3735 -0.7363
 4845TIP3   OH236093   0.100   1.053   8.492 -0.0788 -0.4589  0.3445
 4845TIP3    H136094   0.031   1.115   8.469  1.1236  0.1174 -1.9143
 4845TIP3    H236095   0.143   1.032   8.409  2.7755 -0.4415  1.6951
 4846TIP3   OH236096   5.021   5.604   3.857  0.1281 -0.1678 -0.0941
 4846TIP3    H136097   4.939   5.651   3.839  0.2373 -0.1677 -0.5994
 4846TIP3    H236098   4.992   5.520   3.892 -0.0905 -0.1988 -0.3445
 4847TIP3   OH236099   2.247   1.705   8.425 -0.1269  0.1932  0.5220
 4847TIP3    H136100   2.196   1.640   8.375  0.2053  0.3300 -0.0053
 4847TIP3    H236101   2.181   1.761   8.465 -0.4075 -0.0875  0.4581
 4848TIP3   OH236102   3.714   5.597   3.035 -0.1904 -0.1632 -0.4222
 4848TIP3    H136103   3.764   5.528   2.992  0.4122  0.8933 -1.4505
 4848TIP3    H236104   3.646   5.550   3.084  1.3009 -1.5770  0.3748
 4849TIP3   OH236105   5.095   1.196   0.397 -0.3207  0.8566 -0.3101
 4849TIP3    H136106   5.035   1.127   0.423  0.8708 -0.5039 -1.0478
 4849TIP3    H236107   5.168   1.191   0.459 -1.0683  2.7409  0.8191
 4850TIP3   OH236108   5.287   5.407   8.616  0.2293 -0.0160 -0.3512
 4850TIP3    H136109   5.309   5.333   8.672  0.2177 -1.1634 -1.7876
 4850TIP3    H236110   5.192   5.412   8.618  0.2541  0.3454  0.1969
 4851TIP3   OH236111   5.894   3.642   2.336  0.2629  0.0852  0.0199
 4851TIP3    H136112   5.866   3.655   2.246 -0.0746 -0.3873  0.0528
 4851TIP3    H236113   5.983   3.607   2.328 -0.2739 -1.3332 -0.1979
 4852TIP3   OH236114   5.118   1.380   3.738 -0.0497  0.2559 -0.2058
 4852TIP3    H136115   5.056   1.382   3.666 -0.4798 -0.1207  0.1488
 4852TIP3    H236116   5.186   1.319   3.710 -0.9133 -0.9430  0.2606
 4853TIP3   OH236117   6.142   2.886   1.512  0.0522  0.4488 -0.3736
 4853TIP3    H136118   6.224   2.886   1.463  0.1783  0.4213 -0.1658
 4853TIP3    H236119   6.152   2.959   1.574  0.9346 -1.0263  1.3291
 4854TIP3   OH236120   0.549   3.970   0.295  0.1732  0.3809  0.0222
 4854TIP3    H136121   0.553   3.929   0.209  2.3144 -0.7238  0.5847
 4854TIP3    H236122   0.630   3.942   0.339 -1.2881  0.0940  2.7526
 4855TIP3   OH236123   1.278   2.278   2.790  0.5589  0.4410  0.6610
 4855TIP3    H136124   1.344   2.222   2.832  0.2250  0.6244  1.4589
 4855TIP3    H236125   1.208   2.217   2.766  0.1291  0.5137  1.6658
 4856TIP3   OH236126   0.170   2.977   2.723 -0.5859 -0.3399 -0.2824
 4856TIP3    H136127   0.238   2.962   2.657 -0.8615  0.0721 -0.6657
 4856TIP3    H236128   0.135   2.889   2.741  0.6628 -0.6731  0.6030
 4857TIP3   OH236129   3.153   6.346   0.124  0.0456  0.0156 -0.0827
 4857TIP3    H136130   3.139   6.342   0.218  0.9227 -0.9940  0.0367
 4857TIP3    H236131   3.161   6.254   0.097 -0.0967  0.2899 -1.1240
 4858TIP3   OH236132   3.777   0.443   3.608  0.3661 -0.0963  0.2622
 4858TIP3    H136133   3.696   0.432   3.558  1.2619 -0.9740 -1.0808
 4858TIP3    H236134   3.818   0.356   3.606  1.4064  0.3673  0.7983
 4859TIP3   OH236135   1.643   1.304   1.472  0.7174  0.1866  0.2359
 4859TIP3    H136136   1.613   1.371   1.534  2.3961 -1.4799  3.0613
 4859TIP3    H236137   1.569   1.244   1.464 -0.0785  1.2505 -0.7228
 4860TIP3   OH236138   2.368   1.696   1.750 -0.2844 -0.1948  0.7844
 4860TIP3    H136139   2.322   1.742   1.820 -2.0562 -2.0877  0.9572
 4860TIP3    H236140   2.320   1.615   1.739  1.5551 -1.1529 -0.8310
 4861TIP3   OH236141   4.689   4.213   0.413  0.2218  0.0118  0.3122
 4861TIP3    H136142   4.672   4.157   0.337 -0.0056 -0.8133  0.9535
 4861TIP3    H236143   4.752   4.164   0.465 -0.9840 -0.2856  1.5566
 4862TIP3   OH236144   1.038   5.591   3.562 -0.0961 -0.9244 -0.5104
 4862TIP3    H136145   1.094   5.580   3.638 -2.6988  0.7079  1.8512
 4862TIP3    H236146   0.979   5.515   3.565  0.8092 -1.7406 -1.9792
 4863TIP3   OH236147   0.312   3.266   3.174  0.1412  0.3000  0.6971
 4863TIP3    H136148   0.391   3.320   3.181 -0.3886  1.0285  1.2686
 4863TIP3    H236149   0.303   3.225   3.261 -0.8067  1.2536  1.0761
 4864TIP3   OH236150   2.332   0.673   2.399  0.1069 -0.8473  0.6408
 4864TIP3    H136151   2.270   0.604   2.373 -0.3140 -0.7019  1.2416
 4864TIP3    H236152   2.412   0.653   2.350 -0.8169 -0.2570 -1.2364
 4865TIP3   OH236153   5.752   3.356   2.192  0.0127  0.5842  0.3980
 4865TIP3    H136154   5.820   3.335   2.257  0.9163  0.6826 -0.4979
 4865TIP3    H236155   5.740   3.275   2.142  1.8607  1.4387 -1.5728
 4866TIP3   OH236156   1.058   2.825   1.022 -0.2102  0.0883  0.5063
 4866TIP3    H136157   1.070   2.733   1.042  0.5407 -1.2545 -4.7246
 4866TIP3    H236158   1.122   2.870   1.077 -0.6880 -2.3713  3.3027
 4867TIP3   OH236159   6.468   2.164   0.527  0.1011  0.0033  0.1080
 4867TIP3    H136160   6.524   2.152   0.450  0.2105  0.0326  0.1830
 4867TIP3    H236161   6.529   2.172   0.600 -0.0341 -2.2429  0.5447
 4868TIP3   OH236162   0.884   2.835   8.173  0.5809  0.3201 -0.6545
 4868TIP3    H136163   0.885   2.924   8.208 -0.8133  1.1480 -2.5294
 4868TIP3    H236164   0.797   2.801   8.195  0.2085  0.3399 -1.9957
 4869TIP3   OH236165   3.376   1.910   3.170  0.1863  0.6147 -0.1408
 4869TIP3    H136166   3.448   1.924   3.231  0.8686  1.8357 -1.1745
 4869TIP3    H236167   3.401   1.831   3.122  1.6081  1.8072 -1.4784
 4870TIP3   OH236168   4.296   6.731   1.943 -0.7236 -0.7086 -0.2896
 4870TIP3    H136169   4.224   6.793   1.937  0.5640  0.7487 -1.7872
 4870TIP3    H236170   4.342   6.740   1.859  1.8890 -0.6376  1.0525
 4871TIP3   OH236171   0.727   5.432   8.220 -0.2739  0.2053 -0.0133
 4871TIP3    H136172   0.761   5.521   8.226  0.7514 -0.2237  0.9733
 4871TIP3    H236173   0.758   5.400   8.136 -1.5884  1.1194 -0.8955
 4872TIP3   OH236174   4.333   0.008   2.201 -0.1095 -0.0386 -0.1542
 4872TIP3    H136175   4.331  -0.029   2.113 -1.0234 -0.1735 -0.0842
 4872TIP3    H236176   4.288   0.092   2.193  0.1326  0.1201  0.1141
 4873TIP3   OH236177   6.487   2.053   3.128  0.8535  0.0270 -0.4056
 4873TIP3    H136178   6.434   2.131   3.143 -0.0259 -0.8803  1.5453
 4873TIP3    H236179   6.453   2.016   3.047 -0.9454 -0.0660  0.3637
 4874TIP3   OH236180   6.700   1.151   3.128 -0.0454  0.4314 -0.8029
 4874TIP3    H136181   6.646   1.184   3.200 -0.3329 -1.7084  0.0357
 4874TIP3    H236182   6.757   1.224   3.106 -0.1387  1.2761  1.4217
 4875TIP3   OH236183   3.862   4.303   3.113 -0.2615  0.8254  0.2209
 4875TIP3    H136184   3.874   4.211   3.087 -0.0980 -0.1227  3.2976
 4875TIP3    H236185   3.771   4.323   3.088 -0.0871  0.0816 -1.0993
 4876TIP3   OH236186   1.433   4.703   3.668 -0.1063  0.1874 -0.2600
 4876TIP3    H136187   1.338   4.695   3.660 -0.1436  1.9990 -2.9509
 4876TIP3    H236188   1.445   4.779   3.726 -0.3743  0.8993 -1.1105
 4877TIP3   OH236189   0.591   4.761   1.253  0.5247 -0.4448 -0.6194
 4877TIP3    H136190   0.586   4.751   1.158  1.6976  1.4443 -0.9513
 4877TIP3    H236191   0.618   4.852   1.266  0.4732 -0.6718  1.5315
 4878TIP3   OH236192   2.679   1.775   3.979  0.0006 -0.3385  0.2872
 4878TIP3    H136193   2.758   1.806   3.935  0.3263 -0.6536  0.6432
 4878TIP3    H236194   2.705   1.766   4.071  0.2303 -2.6762  0.0520
 4879TIP3   OH236195   0.776   5.362   1.550  0.4866  0.1527  0.4505
 4879TIP3    H136196   0.863   5.401   1.557  0.4059  1.2550 -2.9177
 4879TIP3    H236197   0.791   5.268   1.545  2.0049  0.4363 -3.7714
 4880TIP3   OH236198   5.704   6.290   1.817 -0.1854 -0.0077  0.4602
 4880TIP3    H136199   5.630   6.252   1.865 -2.0930  0.2997 -2.0585
 4880TIP3    H236200   5.686   6.384   1.815  1.6011  0.4361  1.8385
 4881TIP3   OH236201   5.140   1.588   2.620 -0.0228 -0.1623 -0.1252
 4881TIP3    H136202   5.197   1.606   2.695 -1.8272  2.2222  0.7993
 4881TIP3    H236203   5.162   1.656   2.557  1.3984 -2.0845 -1.8236
 4882TIP3   OH236204   6.297   4.406   2.907 -0.2380  0.1089  0.5390
 4882TIP3    H136205   6.250   4.437   2.984 -0.6322  1.2066 -0.1312
 4882TIP3    H236206   6.320   4.485   2.858  2.3493 -0.3764  0.8451
 4883TIP3   OH236207   5.805   1.531   0.846 -0.0155 -0.0377 -0.2744
 4883TIP3    H136208   5.859   1.465   0.889  0.8569 -0.3475 -1.7884
 4883TIP3    H236209   5.749   1.481   0.787  0.3941  0.5310 -1.1607
 4884TIP3   OH236210   1.380   1.547   4.002  0.4212 -0.4491  0.0924
 4884TIP3    H136211   1.337   1.462   4.009  2.0664 -1.1703  2.9801
 4884TIP3    H236212   1.320   1.608   4.045 -0.3000 -0.2748 -1.1020
 4885TIP3   OH236213   2.525   2.160   8.496  0.8148 -0.3804  0.1023
 4885TIP3    H136214   2.585   2.087   8.511  1.2377 -0.3208 -1.1207
 4885TIP3    H236215   2.443   2.119   8.471  0.2066 -0.4704  2.0896
 4886TIP3   OH236216   6.301   5.902   2.635  0.0356 -0.5194 -0.1594
 4886TIP3    H136217   6.235   5.833   2.627  0.4358 -0.8671 -0.4963
 4886TIP3    H236218   6.252   5.978   2.666 -0.7953 -0.3799 -1.7012
 4887TIP3   OH236219   0.581   2.311   1.993 -1.0804  0.3690  0.3486
 4887TIP3    H136220   0.500   2.356   2.014 -2.5085 -1.9249  0.0344
 4887TIP3    H236221   0.557   2.219   1.985  1.6535 -0.4797  0.7424
 4888TIP3   OH236222   3.249   6.554   1.102 -0.5091  0.0258  0.2342
 4888TIP3    H136223   3.157   6.570   1.126  0.2527  1.3935  2.6152
 4888TIP3    H236224   3.286   6.508   1.177  0.9799  0.3401 -0.2713
 4889TIP3   OH236225   4.749   4.023   2.310 -0.4357  0.5671  0.1054
 4889TIP3    H136226   4.733   4.113   2.337 -0.4341 -0.0875  2.5233
 4889TIP3    H236227   4.832   4.026   2.263 -1.3412  2.0681 -1.5303
 4890TIP3   OH236228   1.160   3.738   3.677 -0.1105  0.3478 -0.2885
 4890TIP3    H136229   1.138   3.774   3.762 -0.1804  1.2036 -0.6574
 4890TIP3    H236230   1.215   3.804   3.636  1.5168 -0.8690 -0.1805
 4891TIP3   OH236231   4.064   1.215   8.222  0.0139  0.0709 -0.1229
 4891TIP3    H136232   4.055   1.206   8.127  1.0164  1.7866 -0.4136
 4891TIP3    H236233   3.981   1.182   8.257 -0.5487 -0.1730 -1.6066
 4892TIP3   OH236234   6.424   4.288   7.560 -0.9524 -0.0514 -0.4371
 4892TIP3    H136235   6.413   4.193   7.554 -0.3471 -0.1773  0.3307
 4892TIP3    H236236   6.518   4.302   7.558 -1.0093  0.4778  0.1481
 4893TIP3   OH236237   0.885   2.574   1.328 -0.3685 -0.1511  0.2569
 4893TIP3    H136238   0.806   2.627   1.317 -0.7477 -0.8369 -0.4561
 4893TIP3    H236239   0.917   2.559   1.239 -1.8854 -3.4466  0.0946
 4894TIP3   OH236240   3.224   4.033   1.720 -0.1102 -0.3286 -0.1450
 4894TIP3    H136241   3.299   4.000   1.670  1.0802  0.7110  0.8856
 4894TIP3    H236242   3.163   4.066   1.654  0.7035 -0.4424 -0.9703
 4895TIP3   OH236243   5.207   6.269   3.078 -0.0438 -0.1706 -0.7749
 4895TIP3    H136244   5.173   6.343   3.027 -2.0756  0.1722  0.9264
 4895TIP3    H236245   5.299   6.290   3.092 -0.3009  1.4754 -1.3162
 4896TIP3   OH236246   2.128   5.018   0.446 -0.4910 -0.1970  0.5026
 4896TIP3    H136247   2.074   5.071   0.388  2.4457 -0.5532 -2.9207
 4896TIP3    H236248   2.156   5.078   0.515  0.4700  2.0655 -1.7011
 4897TIP3   OH236249   0.339   1.187   2.026  0.0260  0.1368  0.5358
 4897TIP3    H136250   0.339   1.240   2.106 -1.8002  0.3454  0.4543
 4897TIP3    H236251   0.310   1.100   2.055 -0.0649  0.0500  0.1903
 4898TIP3   OH236252   3.534   4.837   8.391 -0.4836 -0.1145 -0.2422
 4898TIP3    H136253   3.464   4.878   8.339 -0.1188  0.6099 -0.1654
 4898TIP3    H236254   3.612   4.844   8.336 -0.1867  0.2827  0.2253
 4899TIP3   OH236255   2.435   5.097   3.263  0.1797  0.5263 -0.0740
 4899TIP3    H136256   2.522   5.083   3.300  0.4341 -2.4766 -1.5379
 4899TIP3    H236257   2.381   5.029   3.302 -0.9819  0.9923 -0.8324
 4900TIP3   OH236258   1.587   2.684   0.240  0.0299 -0.0803  0.0696
 4900TIP3    H136259   1.582   2.736   0.320 -1.0825 -0.9644  0.5859
 4900TIP3    H236260   1.610   2.596   0.269 -0.1488 -0.3560 -0.6027
 4901TIP3   OH236261   0.090   5.143   0.909  0.6948  0.3657  0.5511
 4901TIP3    H136262   0.001   5.176   0.898  0.4667 -0.2708  0.4547
 4901TIP3    H236263   0.143   5.221   0.924  0.2955  0.8575 -0.4807
 4902TIP3   OH236264   6.141   2.977   0.468  0.2288  0.0349 -0.1113
 4902TIP3    H136265   6.176   2.889   0.487 -0.0092  0.0813  0.5871
 4902TIP3    H236266   6.218   3.031   0.455  0.3976 -0.7451 -2.9670
 4903TIP3   OH236267   5.941   4.119   8.327 -0.0979 -0.0142 -0.4665
 4903TIP3    H136268   5.874   4.091   8.265 -0.5891 -1.7540  0.7688
 4903TIP3    H236269   5.904   4.196   8.371 -0.8166 -0.2980 -0.5700
 4904TIP3   OH236270   5.176   3.991   7.852 -0.1084  0.3009 -0.5370
 4904TIP3    H136271   5.224   4.041   7.786 -1.1183  1.1340 -0.6723
 4904TIP3    H236272   5.226   3.910   7.862  1.0489  0.9331 -1.0022
 4905TIP3   OH236273   6.802   2.843   8.613 -0.1362  0.0559  0.0610
 4905TIP3    H136274   6.875   2.888   8.656 -0.9460 -0.2879  1.9097
 4905TIP3    H236275   6.819   2.854   8.520  1.4914  1.2436  0.4407
 4906TIP3   OH236276   3.670   2.823   0.917 -0.1643  0.0746 -0.4792
 4906TIP3    H136277   3.765   2.820   0.911 -0.0620  0.4247  0.8538
 4906TIP3    H236278   3.648   2.756   0.981 -0.5630  2.0881  1.5983
 4907TIP3   OH236279   6.694   4.165   8.569  0.1326  0.2988 -0.1884
 4907TIP3    H136280   6.605   4.136   8.591  0.8035  0.4064  3.0846
 4907TIP3    H236281   6.736   4.087   8.533 -0.1877 -0.9448  1.9324
 4908TIP3   OH236282   5.334   4.867   0.612 -0.1347 -1.0376  0.1219
 4908TIP3    H136283   5.319   4.857   0.706 -1.1798 -1.8763 -0.1163
 4908TIP3    H236284   5.413   4.815   0.594  1.2799  0.7362  0.8319
 4909TIP3   OH236285   3.864   1.772   1.480  0.0972 -0.1958 -0.3969
 4909TIP3    H136286   3.903   1.744   1.563 -0.1216 -0.1109 -0.2642
 4909TIP3    H236287   3.938   1.799   1.426  0.1540  0.7753  0.1535
 4910TIP3   OH236288   3.357   3.641   1.562 -0.5268  0.3920  0.9328
 4910TIP3    H136289   3.379   3.734   1.571  0.1832  0.5639 -1.6761
 4910TIP3    H236290   3.263   3.637   1.578 -0.7763  1.7908  0.0170
 4911TIP3   OH236291   5.111   6.469   1.313 -0.1656  0.2628  0.3612
 4911TIP3    H136292   5.071   6.537   1.366 -2.8311  0.5569 -1.8246
 4911TIP3    H236293   5.063   6.470   1.230 -0.1197 -4.0241  0.0200
 4912TIP3   OH236294   2.593   2.653   1.185  0.1809 -0.0303  0.9419
 4912TIP3    H136295   2.614   2.638   1.277  1.1697  0.1245  0.7511
 4912TIP3    H236296   2.651   2.595   1.137 -0.2477 -0.0272  0.4043
 4913TIP3   OH236297   6.000   1.924   1.813  0.0290  0.7532  0.7349
 4913TIP3    H136298   6.079   1.914   1.866 -0.5843  1.2850  1.7854
 4913TIP3    H236299   5.956   1.840   1.820  0.6970  0.3059 -0.2136
 4914TIP3   OH236300   0.856   5.808   8.741  0.5947 -0.7346  0.0345
 4914TIP3    H136301   0.821   5.827   8.654  1.5420  1.0743 -0.0041
 4914TIP3    H236302   0.794   5.746   8.778 -0.2950 -0.8937 -1.6073
 4915TIP3   OH236303   2.707   5.540   1.825 -0.1603 -0.2967  0.0378
 4915TIP3    H136304   2.717   5.449   1.853  1.0663  0.1932  1.2894
 4915TIP3    H236305   2.783   5.556   1.768  1.3432  0.7534  2.1906
 4916TIP3   OH236306   3.349   3.296   2.573  0.0866 -0.2535  0.1015
 4916TIP3    H136307   3.346   3.381   2.530 -0.2963  0.6325  1.7768
 4916TIP3    H236308   3.357   3.233   2.502 -2.4374  0.9660 -1.3744
 4917TIP3   OH236309   5.474   6.531   8.040  0.3844 -0.4219 -0.2062
 4917TIP3    H136310   5.508   6.529   7.951  0.2690  2.2794 -0.3922
 4917TIP3    H236311   5.514   6.454   8.082  1.0536 -1.3206 -2.3301
 4918TIP3   OH236312   4.749   0.043   3.260  0.3543  0.1280 -0.3378
 4918TIP3    H136313   4.764  -0.001   3.344  0.9126  0.7098 -0.1242
 4918TIP3    H236314   4.659   0.020   3.237 -0.9833  2.4638  1.9859
 4919TIP3   OH236315   6.047   2.265   1.776 -0.0281  0.3253  0.1717
 4919TIP3    H136316   5.992   2.213   1.718  0.7380 -0.1811 -0.1274
 4919TIP3    H236317   6.132   2.270   1.731 -0.0474  1.7689  0.2435
 4920TIP3   OH236318   2.158   5.841   8.696  0.7786  0.7287 -0.1111
 4920TIP3    H136319   2.211   5.833   8.617  0.6045  1.7749 -0.3478
 4920TIP3    H236320   2.085   5.898   8.671 -1.3136 -1.8136 -0.2114
 4921TIP3   OH236321   5.429   3.559   0.624  0.0241  0.4472 -0.4139
 4921TIP3    H136322   5.343   3.579   0.660 -1.0087  0.0280 -2.5341
 4921TIP3    H236323   5.415   3.551   0.530  2.0532 -1.2714 -0.6567
 4922TIP3   OH236324   6.438   0.005   3.124 -0.3082 -0.0109 -0.2012
 4922TIP3    H136325   6.482   0.015   3.039  0.1145 -0.5436 -0.0528
 4922TIP3    H236326   6.360  -0.047   3.105 -0.6077  0.4961 -0.3803
 4923TIP3   OH236327   3.489   0.185   0.995 -0.4879 -0.2382 -0.3398
 4923TIP3    H136328   3.525   0.108   0.951 -0.2839 -0.0233 -0.5517
 4923TIP3    H236329   3.426   0.150   1.058 -0.0029 -0.6143 -0.0577
 4924TIP3   OH236330   5.914   2.550   8.631  0.3510 -0.8717 -0.2200
 4924TIP3    H136331   5.932   2.487   8.561 -1.1606 -1.7122  0.1225
 4924TIP3    H236332   5.940   2.504   8.711 -0.6293 -1.0141  0.0190
 4925TIP3   OH236333   3.991   3.940   2.794 -0.3513 -0.3474 -0.5509
 4925TIP3    H136334   4.012   3.907   2.881 -0.7945 -0.5634 -0.5215
 4925TIP3    H236335   3.898   3.962   2.799 -0.4857 -0.7711 -1.0939
 4926TIP3   OH236336   1.627   6.358   3.721  0.4752 -0.6669  0.0863
 4926TIP3    H136337   1.565   6.315   3.780  0.9689 -1.0803  0.3014
 4926TIP3    H236338   1.625   6.450   3.747 -0.3233 -0.6019 -0.1505
 4927TIP3   OH236339   6.522   5.634   8.522 -0.4469  0.4781 -0.0923
 4927TIP3    H136340   6.559   5.722   8.532 -0.4620  0.5733 -0.8106
 4927TIP3    H236341   6.459   5.642   8.450 -1.0042  0.0464  0.3355
 4928TIP3   OH236342   2.712   1.753   8.245 -0.7193  0.0490  0.3230
 4928TIP3    H136343   2.721   1.709   8.161 -2.1513 -1.1911  0.7755
 4928TIP3    H236344   2.802   1.755   8.280 -0.3338 -0.7916 -0.5609
 4929TIP3   OH236345   6.444   6.492   0.550 -0.0834  0.0295  0.0400
 4929TIP3    H136346   6.518   6.430   0.550 -0.5046 -0.5136  1.0841
 4929TIP3    H236347   6.469   6.560   0.488  2.1704  0.8547  1.6930
 4930TIP3   OH236348   2.146   2.774   1.220 -0.3846 -0.2479 -0.2923
 4930TIP3    H136349   2.169   2.766   1.312  0.2016  2.4835 -0.1053
 4930TIP3    H236350   2.217   2.729   1.174 -1.1450 -2.4103  0.5428
 4931TIP3   OH236351   2.110   2.230   0.410  0.5804 -0.3321  0.2425
 4931TIP3    H136352   2.066   2.150   0.438 -1.1693  1.2745  2.4309
 4931TIP3    H236353   2.094   2.234   0.316  0.4384 -2.3416  0.1203
 4932TIP3   OH236354   6.406   4.351   1.383 -0.1821 -0.0318  0.3394
 4932TIP3    H136355   6.496   4.330   1.406 -0.0926  0.1693  0.1810
 4932TIP3    H236356   6.411   4.382   1.293 -0.6356 -1.5480 -0.2388
 4933TIP3   OH236357   4.670   3.541   2.252 -0.2509 -0.4651 -0.0433
 4933TIP3    H136358   4.616   3.502   2.320 -0.3629  2.1084  1.4736
 4933TIP3    H236359   4.755   3.497   2.260 -0.8757 -1.6099  0.3836
 4934TIP3   OH236360   3.491   3.131   0.701  0.4488 -0.0093 -0.4486
 4934TIP3    H136361   3.479   3.138   0.606  2.5264  1.2603 -0.6821
 4934TIP3    H236362   3.584   3.148   0.714  0.0500  0.6786  1.9075
 4935TIP3   OH236363   2.961   3.735   1.795  0.5643 -0.0952 -0.1043
 4935TIP3    H136364   2.896   3.801   1.820 -0.5983 -1.4194  0.5274
 4935TIP3    H236365   2.912   3.653   1.793  1.9465 -0.9440 -0.9636
 4936TIP3   OH236366   5.010   5.099   7.752 -0.2613  0.2851 -0.3760
 4936TIP3    H136367   5.076   5.034   7.732 -0.1904  0.6387 -1.3367
 4936TIP3    H236368   4.929   5.049   7.761 -0.0068 -0.0593  0.0325
 4937TIP3   OH236369   3.033   1.614   8.572  0.7054 -0.3528  0.1015
 4937TIP3    H136370   3.076   1.528   8.571 -0.9592 -1.2650  0.7268
 4937TIP3    H236371   3.059   1.656   8.491  0.3096 -2.1447 -1.0186
 4938TIP3   OH236372   0.791   6.634   1.206 -0.5515  0.2027  0.1889
 4938TIP3    H136373   0.855   6.646   1.277 -0.0300  1.1847 -0.4311
 4938TIP3    H236374   0.827   6.563   1.153  0.6951  1.5819 -0.8643
 4939TIP3   OH236375   5.621   2.594   0.090 -0.4485  0.8477 -0.5637
 4939TIP3    H136376   5.670   2.589   0.007 -0.5680 -0.0288 -0.5884
 4939TIP3    H236377   5.603   2.503   0.113 -0.4885  1.0851  0.3919
 4940TIP3   OH236378   5.248   4.548   1.636  0.0931 -0.4047 -0.1739
 4940TIP3    H136379   5.221   4.578   1.722 -0.2761  1.7471 -0.9679
 4940TIP3    H236380   5.308   4.616   1.604  1.3735 -1.8642 -1.0617
 4941TIP3   OH236381   6.474   0.385   2.374 -0.2181  0.6512  0.2870
 4941TIP3    H136382   6.494   0.458   2.315 -1.1658  1.2800  0.7151
 4941TIP3    H236383   6.557   0.366   2.417 -0.0821  1.8935  0.6100
 4942TIP3   OH236384   3.464   1.885   0.263  0.0963 -0.1439  0.3183
 4942TIP3    H136385   3.549   1.929   0.258  0.0293 -0.1374 -1.0771
 4942TIP3    H236386   3.486   1.795   0.290  0.5334 -0.0789  0.1902
 4943TIP3   OH236387   5.897   3.953   3.226 -0.1237 -0.1700  0.1955
 4943TIP3    H136388   5.990   3.931   3.232  0.1757  1.1919  0.9059
 4943TIP3    H236389   5.862   3.932   3.313 -0.1841  0.5613  0.3516
 4944TIP3   OH236390   4.407   1.245   3.501 -0.2827  0.0869 -0.2985
 4944TIP3    H136391   4.320   1.279   3.520 -0.7650 -1.5923  0.6801
 4944TIP3    H236392   4.467   1.315   3.527 -1.2666  0.5622  0.7498
 4945TIP3   OH236393   0.633   3.622   0.896 -0.1870  0.2112 -0.6307
 4945TIP3    H136394   0.643   3.567   0.973 -1.0279  0.3753 -0.3902
 4945TIP3    H236395   0.720   3.623   0.855 -0.3750 -2.1141 -1.2287
 4946TIP3   OH236396   6.168   3.871   1.222  0.7993  0.0845  0.4495
 4946TIP3    H136397   6.187   3.947   1.167  2.7761 -0.1607  0.7298
 4946TIP3    H236398   6.136   3.908   1.304  1.2769  0.5837  0.4143
 4947TIP3   OH236399   2.832   6.643   8.599  0.2038  0.4032  0.5389
 4947TIP3    H136400   2.894   6.587   8.645 -0.4838  0.6343  1.7878
 4947TIP3    H236401   2.833   6.725   8.648  0.5847  1.2055 -0.7791
 4948TIP3   OH236402   4.195   3.103   7.788 -0.5134 -0.4200 -0.6998
 4948TIP3    H136403   4.269   3.045   7.770 -0.4043 -0.8000  0.8030
 4948TIP3    H236404   4.120   3.061   7.745 -0.3594 -1.5126  0.0512
 4949TIP3   OH236405   4.998   4.952   2.033  0.5859  0.3635  0.2395
 4949TIP3    H136406   4.970   5.036   1.996 -0.6278 -0.5589 -1.0232
 4949TIP3    H236407   5.015   4.897   1.957  3.1457 -0.0305  1.0149
 4950TIP3   OH236408   3.108   2.116   1.531  0.3189 -0.7063  0.1129
 4950TIP3    H136409   3.049   2.056   1.578 -0.1622  0.1104  0.5894
 4950TIP3    H236410   3.162   2.154   1.600  1.5564 -1.5896 -0.3479
 4951TIP3   OH236411   6.610   3.930   3.757 -0.1006  0.1990 -0.1221
 4951TIP3    H136412   6.658   3.885   3.687  0.4839  0.3359  0.1837
 4951TIP3    H236413   6.562   4.000   3.712  0.4834  0.4540 -0.3580
 4952TIP3   OH236414   2.030   5.101   1.504  0.5755  0.5283 -0.9791
 4952TIP3    H136415   1.939   5.077   1.525  0.4561 -0.1745 -2.1828
 4952TIP3    H236416   2.022   5.181   1.452  0.7596  1.3338  0.2069
 4953TIP3   OH236417   4.279   2.538   2.568  0.2404 -0.5379  0.2020
 4953TIP3    H136418   4.265   2.462   2.511 -1.8062 -0.9824  1.1910
 4953TIP3    H236419   4.297   2.610   2.508 -2.1626 -0.9159 -1.0933
 4954TIP3   OH236420   5.104   0.308   8.556  0.4385 -0.9983  0.6453
 4954TIP3    H136421   5.079   0.365   8.629  1.1975 -2.3964  2.0535
 4954TIP3    H236422   5.083   0.220   8.586  1.2810 -1.6613 -0.6129
 4955TIP3   OH236423   2.511   0.114   0.305  0.4574  0.0224 -0.5685
 4955TIP3    H136424   2.505   0.156   0.220 -1.0891 -0.0383 -0.5312
 4955TIP3    H236425   2.557   0.032   0.289  1.4049  0.6470 -1.0726
 4956TIP3   OH236426   3.716   2.244   1.001  0.9258  0.2139  0.0790
 4956TIP3    H136427   3.810   2.256   0.988  0.6939  0.1777 -2.0467
 4956TIP3    H236428   3.677   2.326   0.971  0.0996 -1.0865 -2.7039
 4957TIP3   OH236429   5.854   2.998   0.904  0.5233  0.2758 -0.6666
 4957TIP3    H136430   5.909   2.933   0.948  0.5247 -0.3770 -1.5900
 4957TIP3    H236431   5.772   2.952   0.887  0.1129  0.8746 -0.3558
 4958TIP3   OH236432   1.832   4.221   1.838  0.4748 -0.1064  0.5185
 4958TIP3    H136433   1.918   4.258   1.859 -0.3559  1.8025  0.7494
 4958TIP3    H236434   1.800   4.188   1.922 -0.2441  1.9482  1.1258
 4959TIP3   OH236435   0.000   4.344   2.809 -0.4495 -0.1301 -0.6204
 4959TIP3    H136436  -0.081   4.298   2.833 -0.1262  0.6534  2.3604
 4959TIP3    H236437   0.070   4.282   2.832 -0.0928  0.9818  1.5577
 4960TIP3   OH236438   1.066   4.408   1.219 -0.3549 -0.1398 -1.0180
 4960TIP3    H136439   1.076   4.374   1.308  2.0649  1.2433 -0.6503
 4960TIP3    H236440   1.024   4.493   1.231 -0.6915 -0.2684 -1.2808
 4961TIP3   OH236441   3.992   2.438   7.944  0.2471 -0.5804 -0.0386
 4961TIP3    H136442   3.917   2.384   7.923 -1.8577  2.0908  0.0896
 4961TIP3    H236443   3.999   2.435   8.039 -0.5009  0.1584  0.0417
 4962TIP3   OH236444   4.780   2.187   0.023  0.2400  0.7289  0.3845
 4962TIP3    H136445   4.686   2.172   0.016  0.6548 -1.9370 -0.5867
 4962TIP3    H236446   4.793   2.274  -0.014 -1.9805  1.7932  1.9300
 4963TIP3   OH236447   2.527   0.695   0.601  0.0972 -0.4227 -0.2344
 4963TIP3    H136448   2.548   0.607   0.568  1.0700 -0.0642 -0.6075
 4963TIP3    H236449   2.440   0.713   0.566  0.2761 -0.8647 -0.9427
 4964TIP3   OH236450   1.992   3.521   8.678  0.8964 -0.2984  0.1241
 4964TIP3    H136451   2.074   3.512   8.630  1.7852 -0.4183  1.5965
 4964TIP3    H236452   1.924   3.520   8.611  2.1850  1.6500 -1.3081
 4965TIP3   OH236453   1.650   0.646   1.542 -0.1269  0.1919  0.2380
 4965TIP3    H136454   1.702   0.569   1.520 -1.2272 -1.2374  2.3827
 4965TIP3    H236455   1.565   0.612   1.569 -1.4742  2.3396 -0.9859
 4966TIP3   OH236456   6.174   2.430   0.603 -0.3043  0.1318  0.1809
 4966TIP3    H136457   6.189   2.371   0.530  0.4897 -1.1893  1.3635
 4966TIP3    H236458   6.259   2.473   0.617 -0.2933 -0.0384  0.6659
 4967TIP3   OH236459   5.221   4.061   2.898  0.1269  0.4399 -0.1062
 4967TIP3    H136460   5.158   4.123   2.863 -0.0167  0.3927  0.0624
 4967TIP3    H236461   5.170   3.980   2.910  0.2271  0.3914 -0.0031
 4968TIP3   OH236462   4.749   0.916   2.703 -0.7544  0.6211 -0.0837
 4968TIP3    H136463   4.795   0.832   2.689 -2.9641 -0.4485 -1.4213
 4968TIP3    H236464   4.816   0.973   2.741  0.9173 -1.6609  0.6724
 4969TIP3   OH236465   2.974   5.142   2.253  0.7574 -1.2911 -0.5903
 4969TIP3    H136466   2.996   5.193   2.331 -2.0346 -0.1422 -0.4412
 4969TIP3    H236467   2.943   5.206   2.190 -0.6787 -2.5704 -1.2420
 4970TIP3   OH236468   6.699   5.942   3.435 -0.2284  0.1594  0.3049
 4970TIP3    H136469   6.725   5.850   3.423 -0.4521  0.0501  0.6519
 4970TIP3    H236470   6.753   5.973   3.507  0.8463  0.7122 -0.6926
 4971TIP3   OH236471   0.445   5.968   0.954  0.1430  0.0102  0.2803
 4971TIP3    H136472   0.519   5.949   1.012  0.8348  0.5141 -0.4139
 4971TIP3    H236473   0.404   5.883   0.939  2.3305 -0.8203 -1.6480
 4972TIP3   OH236474   6.363   6.338   3.960 -0.1013 -0.8281 -0.1899
 4972TIP3    H136475   6.286   6.345   3.904 -1.1297 -1.5360  1.0815
 4972TIP3    H236476   6.328   6.332   4.049  1.5095  1.7708  0.7321
 4973TIP3   OH236477   5.620   2.320   0.670  0.3387  0.9487  0.3394
 4973TIP3    H136478   5.708   2.358   0.669  1.0898 -0.6579 -2.1028
 4973TIP3    H236479   5.607   2.292   0.761  2.9135 -0.0081  0.4684
 4974TIP3   OH236480   1.374   3.063   3.659  0.0313 -0.7365 -0.2333
 4974TIP3    H136481   1.437   3.134   3.665 -1.2749  0.4090  0.4866
 4974TIP3    H236482   1.322   3.069   3.739 -2.6879  0.0699 -1.8936
 4975TIP3   OH236483   6.367   2.905   3.950 -0.2287 -0.5587  0.5113
 4975TIP3    H136484   6.415   2.825   3.927  1.9081  0.5801  0.7704
 4975TIP3    H236485   6.410   2.937   4.029 -0.7970  1.0500  0.1973
 4976TIP3   OH236486   1.980   5.706   3.312  0.0022  0.0700  0.1610
 4976TIP3    H136487   2.052   5.741   3.365 -0.8935  1.5878  0.4434
 4976TIP3    H236488   1.954   5.625   3.358  1.7518 -0.7402 -0.1869
 4977TIP3   OH236489   6.694   1.152   8.711  0.6683 -0.0849 -0.7142
 4977TIP3    H136490   6.647   1.148   8.628  1.8450 -0.3500 -1.3896
 4977TIP3    H236491   6.629   1.183   8.774 -0.0673  0.7785 -1.8641
 4978TIP3   OH236492   3.832   3.244   3.270  0.4064 -0.3172 -0.2315
 4978TIP3    H136493   3.878   3.260   3.352  0.2395 -0.0705 -0.1858
 4978TIP3    H236494   3.773   3.170   3.289 -1.7004  1.4750  0.7080
 4979TIP3   OH236495   0.184   4.307   3.188  0.0021 -0.1936 -0.0740
 4979TIP3    H136496   0.241   4.374   3.226  0.3671 -1.6237  2.0863
 4979TIP3    H236497   0.095   4.339   3.203  0.1006 -0.9957  2.7949
 4980TIP3   OH236498   3.463   0.977   0.290  0.0235 -0.1923  0.1934
 4980TIP3    H136499   3.529   1.013   0.348  0.9155 -0.0953 -0.8622
 4980TIP3    H236500   3.421   1.053   0.250  1.1164 -0.2591 -1.1533
 4981TIP3   OH236501   3.557   6.201   0.047 -0.9840 -0.0460 -0.4706
 4981TIP3    H136502   3.518   6.147   0.115 -0.0265  1.7316  1.6090
 4981TIP3    H236503   3.589   6.278   0.093  0.6834  0.7591 -2.8000
 4982TIP3   OH236504   4.089   2.756   3.033 -0.0086 -0.2486  0.3744
 4982TIP3    H136505   4.099   2.812   3.110 -1.1951 -0.7056  0.8905
 4982TIP3    H236506   4.129   2.805   2.961 -0.4298  0.9649  0.9489
 4983TIP3   OH236507   1.498   1.024   2.011 -0.1510  0.2024 -0.7826
 4983TIP3    H136508   1.589   0.995   2.008 -0.5784 -1.6540  1.2366
 4983TIP3    H236509   1.448   0.948   1.981 -1.0512  1.5864 -3.0374
 4984TIP3   OH236510   1.739   6.526   8.714  0.1247 -0.4348 -0.8627
 4984TIP3    H136511   1.649   6.555   8.725  0.1358  0.8423 -3.5400
 4984TIP3    H236512   1.772   6.515   8.804 -2.0177  1.1423  0.1867
 4985TIP3   OH236513   0.914   0.544   2.951 -0.2693 -0.8233  0.5271
 4985TIP3    H136514   0.965   0.625   2.960 -1.3330 -0.0506 -0.1140
 4985TIP3    H236515   0.971   0.476   2.986  1.5719 -0.1340 -0.9473
 4986TIP3   OH236516   1.192   3.418   3.726 -0.1829  0.2102  0.3795
 4986TIP3    H136517   1.189   3.473   3.648  1.2374  1.6563  1.2776
 4986TIP3    H236518   1.101   3.391   3.740 -0.9333  2.3022 -0.1465
 4987TIP3   OH236519   4.618   1.981   8.162 -0.7106 -0.4132 -0.0501
 4987TIP3    H136520   4.672   2.050   8.202 -0.7704 -0.7368  0.6138
 4987TIP3    H236521   4.528   2.010   8.174 -0.7220 -0.4177 -0.1267
 4988TIP3   OH236522   2.060   4.120   3.736 -1.0298  0.0314  0.2462
 4988TIP3    H136523   2.029   4.029   3.728  1.2920 -1.1582  3.1387
 4988TIP3    H236524   2.155   4.114   3.726 -0.8745  2.2439  0.0500
 4989TIP3   OH236525   5.718   5.536   1.780 -0.1070 -0.1882  0.4306
 4989TIP3    H136526   5.698   5.591   1.857 -1.6492  0.6681 -0.5264
 4989TIP3    H236527   5.743   5.452   1.817 -0.2229  0.3817  1.9003
 4990TIP3   OH236528   2.304   5.704   7.787 -0.2361  0.3485  0.2973
 4990TIP3    H136529   2.268   5.669   7.705 -1.8606 -1.2539  1.6020
 4990TIP3    H236530   2.398   5.690   7.780 -0.5339 -1.6169 -0.5223
 4991TIP3   OH236531   0.250   0.295   2.303 -0.2036 -0.6961 -0.4243
 4991TIP3    H136532   0.201   0.214   2.308 -1.4097  0.0610  0.5740
 4991TIP3    H236533   0.185   0.362   2.282  0.5324  0.1925  0.0099
 4992TIP3   OH236534   0.303   4.980   8.203  0.0643  0.1405  0.0964
 4992TIP3    H136535   0.304   4.884   8.204 -0.4007  0.1306 -0.2293
 4992TIP3    H236536   0.396   5.005   8.199  0.1976 -0.2872  0.4488
 4993TIP3   OH236537   2.153   2.163   8.485  0.2110 -0.0476  0.6038
 4993TIP3    H136538   2.110   2.080   8.503  0.2877 -0.6488 -1.6765
 4993TIP3    H236539   2.208   2.146   8.409 -0.4052  2.2868 -0.4686
 4994TIP3   OH236540   2.929   3.223   8.464 -0.4757 -0.2154  0.1124
 4994TIP3    H136541   2.904   3.174   8.386 -0.6065  1.5510 -1.0075
 4994TIP3    H236542   2.907   3.314   8.444  1.5939  0.6277  1.2870
 4995TIP3   OH236543   1.791   5.499   0.682  0.0327 -0.4055 -0.0654
 4995TIP3    H136544   1.756   5.468   0.765  0.4315  0.4045  0.4154
 4995TIP3    H236545   1.717   5.543   0.640  0.0945  0.0472  0.3006
 4996TIP3   OH236546   3.244   6.139   0.981  0.1136  0.3016 -0.6631
 4996TIP3    H136547   3.231   6.137   1.076  3.0061  0.5578 -0.1548
 4996TIP3    H236548   3.238   6.232   0.957 -1.9768  0.1187 -1.0351
 4997TIP3   OH236549   2.585   1.542   3.297 -0.5191 -0.5351 -0.5280
 4997TIP3    H136550   2.675   1.514   3.286 -0.0269  0.5997  0.3815
 4997TIP3    H236551   2.558   1.572   3.210  0.9453  1.7320 -0.2946
 4998TIP3   OH236552   6.635   4.626   3.302  0.3259 -0.0783  0.5836
 4998TIP3    H136553   6.622   4.717   3.275  0.3475 -0.7208 -1.8291
 4998TIP3    H236554   6.648   4.631   3.396  0.0664  2.3882  0.5645
 4999TIP3   OH236555   1.875   5.067   3.620  0.2657  0.4133 -0.0430
 4999TIP3    H136556   1.921   5.131   3.565 -1.8873  1.2066 -1.0498
 4999TIP3    H236557   1.783   5.093   3.614 -0.7371 -2.8727 -0.6161
 5000TIP3   OH236558   2.050   3.923   1.975  0.0473 -0.2100 -0.0873
 5000TIP3    H136559   2.010   3.852   1.923  0.9125  0.1467 -1.2821
 5000TIP3    H236560   2.059   3.886   2.063 -3.4788 -0.1104  0.4743
 5001TIP3   OH236561   6.177   3.295   2.496  0.5146  0.2004 -0.0631
 5001TIP3    H136562   6.222   3.379   2.499  1.3064 -0.2414  0.9350
 5001TIP3    H236563   6.213   3.245   2.569 -0.4025 -0.7812 -0.2444
 5002TIP3   OH236564   0.094   3.591   8.070 -0.1022 -0.1534  0.0859
 5002TIP3    H136565   0.144   3.616   7.992  1.1501  1.5157  1.3589
 5002TIP3    H236566   0.120   3.501   8.087  0.7970 -0.0301 -0.5391
 5003TIP3   OH236567   6.567   3.702   1.783 -0.8238 -0.0280  0.2282
 5003TIP3    H136568   6.657   3.713   1.753 -1.4030 -0.5242 -1.8152
 5003TIP3    H236569   6.548   3.609   1.773 -1.6650  0.1148  0.3528
 5004TIP3   OH236570   4.162   0.792   0.926  0.1853  0.5359  0.0297
 5004TIP3    H136571   4.097   0.851   0.964 -0.3358  0.9260 -1.3880
 5004TIP3    H236572   4.236   0.795   0.987 -0.6384  1.0678  1.0240
 5005TIP3   OH236573   6.492   3.971   1.540 -0.2774 -0.1010 -0.2614
 5005TIP3    H136574   6.477   3.999   1.450 -1.4573  1.2743  0.3209
 5005TIP3    H236575   6.439   4.030   1.593  1.5943  0.1585  1.4734
 5006TIP3   OH236576   5.280   2.717   0.882  0.1491  0.2577 -0.5783
 5006TIP3    H136577   5.311   2.708   0.792  0.7075  0.6141 -0.4284
 5006TIP3    H236578   5.210   2.782   0.877 -1.4561 -1.3894 -1.1066
 5007TIP3   OH236579   0.081   3.537   1.815  0.0204  0.1641 -0.5413
 5007TIP3    H136580   0.093   3.590   1.737  2.1728  1.7596  0.7458
 5007TIP3    H236581   0.145   3.466   1.806  0.0571  0.1783 -0.4063
 5008TIP3   OH236582   2.128   1.072   1.873  1.1575  0.1659 -0.4904
 5008TIP3    H136583   2.188   1.090   1.945 -0.4368  0.7057  0.7712
 5008TIP3    H236584   2.104   0.980   1.884  1.2773  0.1199 -0.6158
 5009TIP3   OH236585   0.511   3.158   3.556 -0.0069  0.1052  0.3878
 5009TIP3    H136586   0.591   3.161   3.608  1.9149 -1.4997 -2.2379
 5009TIP3    H236587   0.520   3.229   3.494 -1.3137  0.7543  0.9128
 5010TIP3   OH236588   3.701   0.208   3.221  0.2785 -0.3456 -0.0269
 5010TIP3    H136589   3.712   0.245   3.133 -0.6815  0.0202 -0.0075
 5010TIP3    H236590   3.616   0.242   3.251  1.4734  1.2322  1.8637
 5011TIP3   OH236591   2.462   1.946   3.438  0.6932  0.2645 -0.3693
 5011TIP3    H136592   2.420   1.944   3.351  1.2265 -2.2827 -0.6408
 5011TIP3    H236593   2.553   1.922   3.421  1.0999  0.9321  0.7831
 5012TIP3   OH236594   3.663   2.213   8.372  0.3601  0.2844 -0.6877
 5012TIP3    H136595   3.734   2.163   8.411  0.0802 -0.0892 -0.6503
 5012TIP3    H236596   3.706   2.279   8.318  0.7464  0.4964 -0.1290
 5013TIP3   OH236597   0.288   5.065   0.723  0.2927  0.1693  0.7563
 5013TIP3    H136598   0.204   5.100   0.754  0.2027  1.1845 -0.5660
 5013TIP3    H236599   0.296   4.981   0.767 -2.2299 -0.7314 -0.3458
 5014TIP3   OH236600   3.718   2.917   7.948  0.1042  0.5707  0.1014
 5014TIP3    H136601   3.701   3.010   7.928  2.8416  0.9707 -0.7736
 5014TIP3    H236602   3.799   2.897   7.900  0.3394 -1.8894  1.3987
 5015TIP3   OH236603   5.255   4.563   3.295  0.2134 -0.6416  0.2956
 5015TIP3    H136604   5.201   4.624   3.346  0.7574 -1.2993  1.7127
 5015TIP3    H236605   5.323   4.618   3.257 -0.4273 -0.0781 -0.0739
 5016TIP3   OH236606   4.794   3.314   0.342  0.2803 -0.0186  0.2664
 5016TIP3    H136607   4.720   3.374   0.337 -0.9069 -1.5035 -1.4457
 5016TIP3    H236608   4.826   3.307   0.252 -0.8014 -3.2142 -0.0274
 5017TIP3   OH236609   5.677   0.018   0.006 -0.7292 -0.0178  0.2040
 5017TIP3    H136610   5.719  -0.014   0.086 -0.0506 -1.5400 -0.7247
 5017TIP3    H236611   5.737   0.085  -0.027 -2.2064  2.4958  2.2123
 5018TIP3   OH236612   6.212   0.531   2.821  0.4509 -0.7237 -0.1488
 5018TIP3    H136613   6.121   0.518   2.793 -1.3983  4.5245  2.2188
 5018TIP3    H236614   6.249   0.589   2.755  0.3454  1.1746  1.3924
 5019TIP3   OH236615   1.403   0.908   0.420 -0.5009  0.2183 -0.5492
 5019TIP3    H136616   1.328   0.963   0.397 -0.4593  0.8232  0.6655
 5019TIP3    H236617   1.475   0.944   0.369 -0.1825  2.1756  1.1608
 5020TIP3   OH236618   4.805   1.093   3.224  0.1202 -0.3155  0.0309
 5020TIP3    H136619   4.797   1.189   3.222 -1.8202 -0.4373  0.1950
 5020TIP3    H236620   4.886   1.075   3.176  0.5707  1.4108  0.0803
 5021TIP3   OH236621   3.534   3.275   1.381 -0.6492 -0.2391 -0.0774
 5021TIP3    H136622   3.469   3.292   1.449 -0.6583 -0.9662  0.1074
 5021TIP3    H236623   3.617   3.268   1.428 -0.6087 -0.4264 -0.1744
 5022TIP3   OH236624   0.218   5.140   2.346  0.2126 -0.0193  0.0167
 5022TIP3    H136625   0.173   5.057   2.356 -0.1416  0.1754  0.0474
 5022TIP3    H236626   0.194   5.191   2.423  1.4847 -0.3653  0.6704
 5023TIP3   OH236627   4.734   3.642   8.435  0.5255 -0.2071  0.0652
 5023TIP3    H136628   4.727   3.711   8.501 -0.6137  0.5079 -0.7615
 5023TIP3    H236629   4.817   3.658   8.391  1.2898 -0.6845  1.3027
 5024TIP3   OH236630   5.790   4.269   3.305 -0.6638 -0.3483  0.0367
 5024TIP3    H136631   5.866   4.316   3.338 -0.6357 -0.9410  0.8477
 5024TIP3    H236632   5.789   4.186   3.354 -2.1534 -0.1130  0.4820
 5025TIP3   OH236633   3.830   5.813   1.082 -0.6891 -0.4291 -0.1768
 5025TIP3    H136634   3.828   5.862   1.000 -1.0950 -1.7652 -0.9954
 5025TIP3    H236635   3.748   5.837   1.126  0.1634  1.3832  0.5534
 5026TIP3   OH236636   3.646   5.706   2.382  0.4937  0.0504  0.5649
 5026TIP3    H136637   3.674   5.658   2.459  2.4524  1.7402  0.9974
 5026TIP3    H236638   3.572   5.758   2.411  0.5586 -0.1103  1.0185
 5027TIP3   OH236639   1.541   4.440   3.765  0.4424  0.0109  0.2538
 5027TIP3    H136640   1.499   4.519   3.730 -1.8231 -1.0910  0.3417
 5027TIP3    H236641   1.569   4.465   3.854  1.7436  1.3155 -0.4725
 5028TIP3   OH236642   3.773   2.060   1.433 -0.0559 -0.0300  0.1298
 5028TIP3    H136643   3.818   1.978   1.454 -0.0356  0.2749  1.3630
 5028TIP3    H236644   3.818   2.092   1.355  0.7366 -0.5949  0.3351
 5029TIP3   OH236645   6.364   1.047   1.789 -0.1654 -0.0083 -0.7588
 5029TIP3    H136646   6.413   1.114   1.837 -1.3251  0.3844 -0.0694
 5029TIP3    H236647   6.277   1.085   1.778 -0.7420 -1.2487 -0.6835
 5030TIP3   OH236648   4.950   1.675   2.075 -0.0020  0.3380  0.0704
 5030TIP3    H136649   4.988   1.713   2.154 -0.5704  0.0356  0.4933
 5030TIP3    H236650   4.873   1.728   2.058  0.0321  0.3028 -0.1913
 5031TIP3   OH236651   4.401   1.519   1.601  0.2994  0.4745 -0.2494
 5031TIP3    H136652   4.342   1.510   1.676 -0.6607  0.2635 -1.0131
 5031TIP3    H236653   4.474   1.572   1.634 -1.2294  2.3905  0.2215
 5032TIP3   OH236654   1.521   5.021   0.702 -0.4826  0.4765 -0.5601
 5032TIP3    H136655   1.508   4.990   0.613  0.2016  0.8984 -0.8067
 5032TIP3    H236656   1.496   4.947   0.757 -0.2483 -0.0117 -1.1108
 5033TIP3   OH236657   2.528   6.674   1.339  0.1804 -0.3085 -0.8028
 5033TIP3    H136658   2.614   6.698   1.373 -0.1483  0.5302 -0.5347
 5033TIP3    H236659   2.476   6.754   1.347 -1.4021 -1.4701  1.5490
 5034TIP3   OH236660   4.741   0.476   0.021  0.0168 -0.0160  0.0758
 5034TIP3    H136661   4.716   0.459   0.112 -1.6567  0.6843 -0.2216
 5034TIP3    H236662   4.798   0.553   0.025  0.2146 -0.1856  0.5520
 5035TIP3   OH236663   1.600   2.325   0.955  0.6339  0.4914 -0.4246
 5035TIP3    H136664   1.661   2.298   1.024 -0.8041  2.3230  1.6954
 5035TIP3    H236665   1.646   2.393   0.907  0.6028  1.3222  0.6796
 5036TIP3   OH236666   1.803   2.154   3.127  0.2245  0.1919  0.0928
 5036TIP3    H136667   1.774   2.231   3.176  2.8262  0.5120  1.3168
 5036TIP3    H236668   1.822   2.188   3.039  2.5511  1.3653  0.9463
 5037TIP3   OH236669   0.748   2.080   1.260  0.3135 -0.4568  0.1872
 5037TIP3    H136670   0.717   2.162   1.298  0.5521 -0.6702  0.8498
 5037TIP3    H236671   0.717   2.012   1.320  1.4913 -0.7223  0.5172
 5038TIP3   OH236672   5.971   6.562   2.594  0.4062 -0.2575  0.3598
 5038TIP3    H136673   5.882   6.556   2.629  0.0700  1.4961 -0.0984
 5038TIP3    H236674   5.962   6.617   2.516  1.9914  0.5790  0.7177
 5039TIP3   OH236675   5.072   0.345   3.178  0.1595 -0.2633  0.5514
 5039TIP3    H136676   4.995   0.294   3.152  0.2963 -0.5913  0.7801
 5039TIP3    H236677   5.141   0.280   3.191  0.1498 -0.0969  1.5360
 5040TIP3   OH236678   4.371   1.992   0.116 -0.0190 -0.1834 -0.4545
 5040TIP3    H136679   4.392   2.085   0.110  0.4251  0.0252  2.6540
 5040TIP3    H236680   4.280   1.990   0.147  0.4722 -0.7026  1.0246
 5041TIP3   OH236681   4.422   0.248   3.285 -0.7083  0.4213 -0.4296
 5041TIP3    H136682   4.504   0.229   3.330 -0.9137  2.2619  0.8096
 5041TIP3    H236683   4.380   0.163   3.276  1.1685 -0.5263 -0.8153
 5042TIP3   OH236684   1.923   4.192   2.461 -0.3564 -0.3034 -0.0980
 5042TIP3    H136685   1.933   4.211   2.554  0.8156 -0.0143 -0.2745
 5042TIP3    H236686   1.828   4.192   2.447 -0.5296  0.1650  0.9809
 5043TIP3   OH236687   3.925   0.465   0.919  0.0207 -0.0616 -0.1256
 5043TIP3    H136688   3.910   0.517   0.840 -2.0716  1.4766  1.2017
 5043TIP3    H236689   3.938   0.529   0.988  0.5939 -1.3679  1.0266
 5044TIP3   OH236690   5.244   2.539   0.399 -0.5011  0.0396  0.1452
 5044TIP3    H136691   5.213   2.576   0.481 -1.4376 -3.0510  1.3279
 5044TIP3    H236692   5.333   2.509   0.418 -0.0379  0.9302 -0.5529
 5045TIP3   OH236693   0.526   2.065   2.084  0.5216  0.0482  0.6255
 5045TIP3    H136694   0.569   1.997   2.031  2.9759  0.7600  1.5572
 5045TIP3    H236695   0.557   2.049   2.173  1.2119  2.3605  0.8670
 5046TIP3   OH236696   0.557   0.150   1.066  0.0483  0.2129 -0.3710
 5046TIP3    H136697   0.541   0.244   1.080 -0.4176  0.4764 -2.3606
 5046TIP3    H236698   0.652   0.142   1.061  0.0863  0.5787 -0.2769
 5047TIP3   OH236699   3.583   6.748   0.250 -0.0730 -0.3085 -0.2134
 5047TIP3    H136700   3.497   6.715   0.225 -0.6490  0.0548  1.2121
 5047TIP3    H236701   3.565   6.832   0.292  0.9676 -0.3020  0.2427
 5048TIP3   OH236702   3.904   2.548   2.074  0.4034 -0.0437 -0.7082
 5048TIP3    H136703   3.816   2.529   2.106  0.4842  0.3660 -0.2377
 5048TIP3    H236704   3.909   2.503   1.989  0.1227 -0.9792 -0.2417
 5049TIP3   OH236705   1.268   5.401   3.541  0.1136  0.5264 -0.1256
 5049TIP3    H136706   1.288   5.463   3.471 -1.5877 -0.1406 -1.2814
 5049TIP3    H236707   1.353   5.366   3.568  0.7744 -0.1016 -2.7371
 5050TIP3   OH236708   2.375   6.022   1.301  0.3119  0.3772 -0.8953
 5050TIP3    H136709   2.391   5.974   1.219  0.2857 -1.6377  0.2161
 5050TIP3    H236710   2.459   6.022   1.346 -0.4547 -1.9179  0.7278
 5051TIP3   OH236711   0.656   6.454   1.616 -0.2699 -0.3178 -0.1492
 5051TIP3    H136712   0.592   6.464   1.687 -0.8088  0.4307 -0.7115
 5051TIP3    H236713   0.729   6.510   1.641  0.2959 -1.3599  0.6122
 5052TIP3   OH236714   2.568   5.667   1.497  0.2856  0.2554  0.7163
 5052TIP3    H136715   2.587   5.752   1.458  0.2499 -0.8330 -1.9133
 5052TIP3    H236716   2.651   5.640   1.537  1.0170  0.5415 -0.5345
 5053TIP3   OH236717   5.913   4.631   0.679 -0.1581  0.0298 -0.1248
 5053TIP3    H136718   5.995   4.673   0.704  0.3663  0.3109 -2.0893
 5053TIP3    H236719   5.844   4.689   0.711  0.4644  0.6719  0.0707
 5054TIP3   OH236720   4.342   5.028   0.408 -0.0643  0.0541 -0.2334
 5054TIP3    H136721   4.392   5.108   0.423  1.3139 -0.7230 -0.4945
 5054TIP3    H236722   4.331   4.990   0.496  0.7980 -0.3225 -0.2724
 5055TIP3   OH236723   6.156   6.515   2.223 -0.0899 -0.2880 -0.1072
 5055TIP3    H136724   6.245   6.494   2.193  0.6538 -1.8152  2.7681
 5055TIP3    H236725   6.120   6.430   2.249 -2.0173  0.4635 -0.1851
 5056TIP3   OH236726   2.995   1.813   3.144  0.8481  0.1981  0.0162
 5056TIP3    H136727   2.917   1.764   3.170  1.4341 -0.9925 -0.4069
 5056TIP3    H236728   2.965   1.868   3.072  0.4576 -0.4792 -0.3492
 5057TIP3   OH236729   1.314   5.368   1.039  0.6385 -0.4118 -0.1915
 5057TIP3    H136730   1.251   5.435   1.066  1.6988  0.6709 -0.2974
 5057TIP3    H236731   1.265   5.286   1.040 -0.6176  0.3258  0.2392
 5058TIP3   OH236732   3.889   5.414   8.716  0.7599  0.2331 -0.0457
 5058TIP3    H136733   3.970   5.437   8.671 -0.3087  0.3942 -1.9738
 5058TIP3    H236734   3.827   5.484   8.694 -0.6749 -1.2141 -0.8386
 5059TIP3   OH236735   4.437   3.999   2.504  0.1031  0.0501  0.2109
 5059TIP3    H136736   4.369   3.959   2.559 -0.2651 -0.4106 -0.5614
 5059TIP3    H236737   4.478   3.924   2.459  1.4494  0.2639  1.0085
 5060TIP3   OH236738   5.390   2.104   0.554  0.1551 -0.2028 -0.0487
 5060TIP3    H136739   5.425   2.140   0.473 -3.1532 -1.3837 -2.1984
 5060TIP3    H236740   5.370   2.180   0.608  0.7032  0.7216 -1.1256
 5061TIP3   OH236741   2.588   1.601   1.189  0.4707  0.0761  0.1605
 5061TIP3    H136742   2.534   1.611   1.268  1.5133 -1.6521  1.1520
 5061TIP3    H236743   2.676   1.626   1.218  0.8635 -0.5768 -0.4522
 5062TIP3   OH236744   1.314   5.989   8.240  0.7976 -0.3807  0.9752
 5062TIP3    H136745   1.362   6.068   8.216 -0.0845  0.0544  0.6036
 5062TIP3    H236746   1.371   5.944   8.303  2.0814 -0.3248 -0.1040
 5063TIP3   OH236747   5.667   1.844   0.126 -0.0652 -0.3403 -0.1821
 5063TIP3    H136748   5.672   1.910   0.057 -4.0025 -2.1491 -2.5463
 5063TIP3    H236749   5.590   1.869   0.177 -0.7088 -2.1912 -0.1759
 5064TIP3   OH236750   4.709   1.936   2.438  0.1416  0.0959 -0.2305
 5064TIP3    H136751   4.639   2.000   2.447  0.6304  0.6488 -0.2712
 5064TIP3    H236752   4.781   1.972   2.490  0.9915  0.4107 -1.5862
 5065TIP3   OH236753   3.891   2.087   8.427  0.0409  0.5706  0.0048
 5065TIP3    H136754   3.971   2.139   8.414 -0.4671  1.2334 -0.5674
 5065TIP3    H236755   3.916   1.998   8.402  1.1557  0.3183  1.7673
 5066TIP3   OH236756   5.200   1.267   1.282 -0.2789 -0.5448 -0.0167
 5066TIP3    H136757   5.286   1.308   1.274 -0.9140  0.5782 -1.3338
 5066TIP3    H236758   5.203   1.192   1.223 -0.4983  0.0250 -0.7596
 5067TIP3   OH236759   0.673   3.963   0.012 -0.2576 -0.5420 -0.0089
 5067TIP3    H136760   0.578   3.959   0.022 -0.1490 -0.0929  1.5128
 5067TIP3    H236761   0.694   3.889  -0.044 -1.4988 -0.6806 -0.3262
 5068TIP3   OH236762   4.451   0.413   1.569  0.0773  0.0746 -0.0466
 5068TIP3    H136763   4.504   0.346   1.526 -0.1912 -0.0797 -0.1379
 5068TIP3    H236764   4.512   0.460   1.626  0.3667  0.0637 -0.3468
 5069TIP3   OH236765   1.611   1.432   3.624  0.2277 -0.5394  0.2448
 5069TIP3    H136766   1.669   1.368   3.666 -0.0513 -0.8291  0.1973
 5069TIP3    H236767   1.590   1.495   3.693  0.9960 -0.1517  0.1309
 5070TIP3   OH236768   5.676   0.691   8.459 -0.6199  0.3703  0.4693
 5070TIP3    H136769   5.752   0.730   8.417 -1.4180  0.3663 -1.0697
 5070TIP3    H236770   5.708   0.658   8.543  1.5742 -1.4414 -0.9625
 5071TIP3   OH236771   6.299   0.466   1.036 -0.0840 -0.1376  0.6394
 5071TIP3    H136772   6.215   0.421   1.039 -0.5811  0.4001 -2.2797
 5071TIP3    H236773   6.362   0.396   1.016  0.3101 -0.5870  3.0884
 5072TIP3   OH236774   5.859   2.426   2.112 -0.4100  0.1022 -0.3206
 5072TIP3    H136775   5.828   2.378   2.189 -1.6017  1.0697 -0.1705
 5072TIP3    H236776   5.781   2.467   2.076  0.3170  0.5841 -1.3991
 5073TIP3   OH236777   1.493   1.543   1.330 -0.6895  0.2494 -0.9176
 5073TIP3    H136778   1.577   1.516   1.293 -0.3734 -0.4446  0.2244
 5073TIP3    H236779   1.508   1.632   1.362  0.0846 -0.3794  0.5753
 5074TIP3   OH236780   0.476   4.114   2.136 -0.0457 -0.4061  0.2308
 5074TIP3    H136781   0.464   4.094   2.229 -3.4016 -0.1536 -0.0300
 5074TIP3    H236782   0.555   4.168   2.133 -0.9146  1.2659  3.2126
 5075TIP3   OH236783   4.266   3.505   1.799 -0.5714 -0.5644 -0.7891
 5075TIP3    H136784   4.193   3.452   1.767 -1.0100  0.6735 -1.9172
 5075TIP3    H236785   4.310   3.536   1.721 -1.8910  2.8532 -0.3384
 5076TIP3   OH236786   2.843   0.554   8.483 -0.2615 -0.0201  0.1246
 5076TIP3    H136787   2.841   0.623   8.417 -1.6016 -0.4400 -0.2938
 5076TIP3    H236788   2.850   0.601   8.567 -0.1017  0.5698 -0.2144
 5077TIP3   OH236789   6.571   4.196   1.056 -0.0414  0.1310  0.6793
 5077TIP3    H136790   6.569   4.137   1.132 -1.2236 -1.0626 -0.2203
 5077TIP3    H236791   6.539   4.279   1.089  3.0763  0.8491  2.3485
 5078TIP3   OH236792   2.540   5.949   2.322 -0.0453  0.3576 -0.4205
 5078TIP3    H136793   2.603   6.010   2.284  0.8084 -1.1818 -1.5823
 5078TIP3    H236794   2.574   5.862   2.300 -1.8825 -0.5434  0.0751
 5079TIP3   OH236795   6.500   1.970   1.060  0.0910 -0.1666 -0.2630
 5079TIP3    H136796   6.570   2.035   1.052  0.6263 -0.1481  3.2159
 5079TIP3    H236797   6.542   1.895   1.101 -1.4984 -0.9382  0.0244
 5080TIP3   OH236798   6.548   3.584   1.169  0.1332  0.6378  0.3841
 5080TIP3    H136799   6.464   3.605   1.128 -2.4742 -0.8690  4.3465
 5080TIP3    H236800   6.572   3.499   1.132 -0.7710  0.4996  0.0850
 5081TIP3   OH236801   2.193   5.484   1.115  0.3302  0.1049  0.3230
 5081TIP3    H136802   2.194   5.427   1.192 -0.3969 -1.2849 -0.6638
 5081TIP3    H236803   2.254   5.442   1.054  1.7007  1.7506  0.4862
 5082TIP3   OH236804   1.157   2.818   3.210 -0.0666  0.4586  0.1412
 5082TIP3    H136805   1.161   2.914   3.212  0.0284  0.4930 -1.1828
 5082TIP3    H236806   1.065   2.798   3.195 -0.0491  0.3435  0.1868
 5083TIP3   OH236807   6.011   3.793   2.668 -1.0645 -0.1101  0.2932
 5083TIP3    H136808   5.970   3.856   2.729 -0.0939 -0.1798  1.0514
 5083TIP3    H236809   6.000   3.708   2.711 -0.3940 -0.1621  0.3758
 5084TIP3   OH236810   4.892   1.990   3.613  0.4927  0.4473  0.3874
 5084TIP3    H136811   4.890   2.041   3.532  0.7175 -3.1194 -2.1150
 5084TIP3    H236812   4.800   1.975   3.634  0.4254  0.3376  0.0296
 5085TIP3   OH236813   3.960   5.934   1.953 -0.2114 -0.7588  0.3191
 5085TIP3    H136814   3.954   5.976   2.039  1.2554  0.8739 -0.3229
 5085TIP3    H236815   3.869   5.913   1.930 -0.8396  0.6749  1.3639
 5086TIP3   OH236816   2.980   2.879   1.005  0.3193  0.1158 -0.3789
 5086TIP3    H136817   2.918   2.811   0.979  0.9967 -1.6306  2.1821
 5086TIP3    H236818   2.929   2.941   1.056  0.0529  0.5613 -1.1742
 5087TIP3   OH236819   1.553   2.009   3.295 -0.5606 -0.1716 -0.6084
 5087TIP3    H136820   1.597   1.924   3.302  0.4711  0.3571 -0.3818
 5087TIP3    H236821   1.463   1.992   3.320  0.3231 -0.6192  2.8259
 5088TIP3   OH236822   4.847   2.715   8.748  0.6915  0.4023  0.1691
 5088TIP3    H136823   4.833   2.783   8.814  1.1211  0.0090  0.6732
 5088TIP3    H236824   4.816   2.754   8.666 -0.6014  0.6003  0.7434
 5089TIP3   OH236825   5.661   4.568   3.097  0.4708 -0.2629 -0.3584
 5089TIP3    H136826   5.707   4.484   3.098 -4.3317 -3.3101 -1.1161
 5089TIP3    H236827   5.658   4.592   3.004  2.2488  1.1589 -0.0992
 5090TIP3   OH236828   3.746   1.815   0.907 -0.2972  0.7292 -0.4060
 5090TIP3    H136829   3.681   1.760   0.863 -0.7752  1.0130 -0.0711
 5090TIP3    H236830   3.694   1.884   0.949  0.0985  0.3251  0.8105
 5091TIP3   OH236831   4.611   1.837   4.170  0.0067  0.3231 -0.4351
 5091TIP3    H136832   4.634   1.930   4.175  0.4042  0.2228 -0.3476
 5091TIP3    H236833   4.686   1.796   4.125  1.5160 -0.5200  2.5697
 5092TIP3   OH236834   1.595   1.200   0.640 -0.1924 -0.4768 -0.1333
 5092TIP3    H136835   1.622   1.112   0.613 -1.8061 -1.1686  0.4276
 5092TIP3    H236836   1.644   1.216   0.721  1.0418 -0.3216 -0.8803
 5093TIP3   OH236837   6.779   2.909   8.347  0.4117 -0.6023  0.3446
 5093TIP3    H136838   6.809   2.866   8.266  0.9412  1.0116 -0.3647
 5093TIP3    H236839   6.811   2.999   8.339  0.0185 -0.2696  2.1328
 5094TIP3   OH236840   3.085   2.719   2.045 -0.4529 -0.0908  0.5598
 5094TIP3    H136841   3.151   2.650   2.050  0.6006  0.9844  2.4851
 5094TIP3    H236842   3.055   2.717   1.954  2.1825 -0.6681 -0.3712
 5095TIP3   OH236843   1.564   0.575   0.470 -0.2396  0.1077 -0.3444
 5095TIP3    H136844   1.573   0.609   0.381 -1.1278  1.4119  0.0269
 5095TIP3    H236845   1.642   0.607   0.517 -0.8906  1.4080 -0.0923
 5096TIP3   OH236846   2.524   0.884   2.310  0.8631  0.1979  0.0076
 5096TIP3    H136847   2.476   0.834   2.375 -0.1489  0.2774 -0.6526
 5096TIP3    H236848   2.582   0.820   2.268  0.1195 -0.2640 -0.3265
 5097TIP3   OH236849   3.639   5.429   0.121 -0.1600 -0.0146  0.3549
 5097TIP3    H136850   3.627   5.385   0.037  0.4936  0.0701  0.2113
 5097TIP3    H236851   3.728   5.465   0.116 -0.6267  1.1942  0.5168
 5098TIP3   OH236852   0.832   2.363   0.258  0.2594  0.2697  0.5645
 5098TIP3    H136853   0.879   2.443   0.282  2.0426 -0.5525  0.0459
 5098TIP3    H236854   0.901   2.295   0.256 -0.9562 -0.9896 -0.3506
 5099TIP3   OH236855   2.480   5.527   0.542  0.4245  0.1797 -0.4918
 5099TIP3    H136856   2.410   5.531   0.607  1.5622 -0.3100  0.8241
 5099TIP3    H236857   2.483   5.435   0.516 -0.1478  0.4075 -1.4060
 5100TIP3   OH236858   4.630   4.999   8.595  0.6607 -0.2840 -0.7429
 5100TIP3    H136859   4.655   4.983   8.686  1.1323  0.4772 -0.7266
 5100TIP3    H236860   4.666   4.924   8.547  0.5139 -0.6297 -0.3254
 5101TIP3   OH236861   0.898   4.651   3.114 -0.3723 -0.1636 -0.1894
 5101TIP3    H136862   0.891   4.674   3.021 -1.5963  0.5072  0.0400
 5101TIP3    H236863   0.975   4.699   3.145 -1.3697  1.6304 -0.3257
 5102TIP3   OH236864   1.277   6.778   1.368  0.1606  0.1841  0.2277
 5102TIP3    H136865   1.328   6.773   1.288 -1.2329  0.5832 -0.7187
 5102TIP3    H236866   1.192   6.740   1.345 -1.1369  2.5746  0.7354
 5103TIP3   OH236867   3.540   2.722   8.395 -0.2007  0.2556  0.3476
 5103TIP3    H136868   3.630   2.691   8.399 -0.5060 -0.9286 -1.0235
 5103TIP3    H236869   3.499   2.667   8.328 -2.1780  0.1632  1.5583
 5104TIP3   OH236870   2.021   1.833   1.662 -0.5737 -0.2127  0.7499
 5104TIP3    H136871   1.962   1.907   1.677 -0.0260  0.4407 -0.2390
 5104TIP3    H236872   2.107   1.865   1.689 -0.1410 -0.0867 -0.6707
 5105TIP3   OH236873   6.045   2.447   1.388  0.5755 -0.3939  0.3166
 5105TIP3    H136874   6.023   2.354   1.399  1.9501 -0.9984 -1.4970
 5105TIP3    H236875   6.132   2.455   1.426  0.2685  0.2826  0.8919
 5106TIP3   OH236876   3.747   4.132   0.855  0.3209 -0.1874 -0.3075
 5106TIP3    H136877   3.800   4.095   0.926  0.0410  0.4359  0.2379
 5106TIP3    H236878   3.753   4.068   0.785  0.1117 -1.1101  0.4973
 5107TIP3   OH236879   3.980   0.508   0.449 -0.3080  0.0314 -0.1659
 5107TIP3    H136880   4.011   0.531   0.361 -0.9950 -0.5170 -0.5679
 5107TIP3    H236881   3.946   0.419   0.439  0.2336 -0.2881  0.8231
 5108TIP3   OH236882   3.973   1.558   3.456  0.1343 -0.3046 -0.1594
 5108TIP3    H136883   3.978   1.493   3.387 -0.6066 -0.1140 -0.4063
 5108TIP3    H236884   4.063   1.588   3.468  0.2775 -0.3864 -0.9929
 5109TIP3   OH236885   3.830   1.823   0.560  0.2345 -0.5795 -0.4826
 5109TIP3    H136886   3.802   1.733   0.579 -0.1591 -0.4178 -0.2858
 5109TIP3    H236887   3.886   1.847   0.634  0.8790 -0.8963 -0.8662
 5110TIP3   OH236888   5.364   2.030   8.366 -0.1915  0.3026  0.0891
 5110TIP3    H136889   5.361   2.011   8.460  2.2863  0.9920  0.3908
 5110TIP3    H236890   5.302   2.102   8.353 -0.5644  0.1961  1.1914
 5111TIP3   OH236891   3.099   3.880   0.491 -0.7064  0.1227  0.4306
 5111TIP3    H136892   3.035   3.904   0.558  1.0222  0.3094  2.1040
 5111TIP3    H236893   3.181   3.920   0.520 -0.3679  2.4781 -3.1849
 5112TIP3   OH236894   5.507   0.003   1.908  0.7905  0.3758  0.4802
 5112TIP3    H136895   5.456   0.025   1.986  1.0655  0.0122  0.7644
 5112TIP3    H236896   5.454   0.035   1.835 -0.3731 -0.9672  0.6967
 5113TIP3   OH236897   3.066   3.431   4.071 -0.3517 -0.1026  0.2833
 5113TIP3    H136898   3.008   3.498   4.106 -0.8773 -0.8289  0.8372
 5113TIP3    H236899   3.026   3.405   3.988  0.0809  0.5525 -0.1414
 5114TIP3   OH236900   0.949   0.152   8.178 -0.3805 -0.1509  0.5640
 5114TIP3    H136901   0.854   0.150   8.174 -0.4356  1.2272  0.6704
 5114TIP3    H236902   0.973   0.080   8.236 -1.2585 -1.4440 -0.6274
 5115TIP3   OH236903   6.763   0.519   2.847  0.1426 -0.0295 -0.5689
 5115TIP3    H136904   6.748   0.425   2.837  1.6689 -0.3669  0.0378
 5115TIP3    H236905   6.782   0.529   2.940 -0.8621  1.0260 -0.4632
 5116TIP3   OH236906   0.334   3.591   0.045  0.5080  0.1835  0.2455
 5116TIP3    H136907   0.332   3.535  -0.033  3.0260  0.9275 -0.4505
 5116TIP3    H236908   0.281   3.667   0.021  0.5064 -0.0115 -0.4057
 5117TIP3   OH236909   0.570   3.005   0.593  0.1425  0.2044 -0.5242
 5117TIP3    H136910   0.478   3.016   0.572  0.2486  0.6331 -0.7665
 5117TIP3    H236911   0.615   3.005   0.508  0.1190 -2.5961 -0.6467
 5118TIP3   OH236912   1.859   2.306   0.565  0.3781  0.4371  0.5640
 5118TIP3    H136913   1.882   2.399   0.561  1.2225  0.2153  0.1140
 5118TIP3    H236914   1.937   2.260   0.535 -1.1337 -0.2713 -2.6732
 5119TIP3   OH236915   3.647   2.155   0.076 -0.1963  0.3136  0.3080
 5119TIP3    H136916   3.701   2.185   0.149  0.1037 -1.2320  0.7414
 5119TIP3    H236917   3.708   2.112   0.017 -0.6724  0.2452 -0.1405
 5120TIP3   OH236918   3.500   0.935   1.022 -0.3547 -0.3862 -0.4559
 5120TIP3    H136919   3.515   1.005   1.085 -1.7770  0.6868 -1.2148
 5120TIP3    H236920   3.566   0.869   1.042  0.7853  0.9903  0.5581
 5121TIP3   OH236921   5.746   2.533   3.051 -0.2683  0.0269  0.0078
 5121TIP3    H136922   5.771   2.611   3.101 -0.5388 -0.4053  0.8381
 5121TIP3    H236923   5.760   2.460   3.112 -2.0138 -0.3769 -0.0135
 5122TIP3   OH236924   1.831   5.611   1.336 -0.0911  0.1400  0.2010
 5122TIP3    H136925   1.770   5.651   1.274 -0.9806 -0.3373  0.7539
 5122TIP3    H236926   1.918   5.639   1.306 -0.3325 -1.4660 -2.3078
 5123TIP3   OH236927   0.098   1.783   3.294 -0.2022  0.0772 -0.0299
 5123TIP3    H136928   0.030   1.838   3.254 -0.6971  0.2849  1.0648
 5123TIP3    H236929   0.073   1.694   3.269 -1.3749  0.0794  1.0579
 5124TIP3   OH236930   4.364   2.217   1.277 -0.6551  0.6029  0.2810
 5124TIP3    H136931   4.418   2.260   1.211 -0.5844  0.9582  0.5688
 5124TIP3    H236932   4.332   2.138   1.234 -0.1617  0.5500  0.0027
 5125TIP3   OH236933   0.369   0.997   3.292  0.3324  0.7256 -0.5446
 5125TIP3    H136934   0.381   0.910   3.254  0.5654  0.9362 -0.9475
 5125TIP3    H236935   0.368   0.981   3.387  0.9259  0.3538 -0.5984
 5126TIP3   OH236936   5.270   1.034   8.062 -0.0274  0.5852  0.0238
 5126TIP3    H136937   5.278   1.118   8.017 -0.4016 -0.6715 -2.6061
 5126TIP3    H236938   5.336   0.978   8.020 -0.0768 -0.5888  1.4068
 5127TIP3   OH236939   0.648   4.098   0.806 -0.6198 -0.1129 -0.0168
 5127TIP3    H136940   0.656   4.072   0.898  0.0786  0.4807  0.0997
 5127TIP3    H236941   0.569   4.152   0.803  1.4251  3.2248  1.0753
 5128TIP3   OH236942   1.281   1.604   3.510  0.1415 -0.0690 -0.0008
 5128TIP3    H136943   1.352   1.665   3.529 -0.7684  2.3334 -3.3383
 5128TIP3    H236944   1.229   1.602   3.590  2.7616 -0.2698  1.8122
 5129TIP3   OH236945   1.188   1.252   1.430 -0.0967 -0.4854 -0.3609
 5129TIP3    H136946   1.159   1.187   1.366 -0.7506 -0.4984 -0.0618
 5129TIP3    H236947   1.129   1.326   1.418  0.4142 -0.0857 -0.4508
 5130TIP3   OH236948   3.624   0.908   0.750  0.4859 -0.3313 -0.4715
 5130TIP3    H136949   3.611   1.001   0.770  1.2244 -0.0148 -1.3922
 5130TIP3    H236950   3.541   0.867   0.773  0.0521  0.5952 -0.3110
 5131TIP3   OH236951   4.902   0.090   8.541  0.3351 -0.2806 -0.2890
 5131TIP3    H136952   4.839   0.072   8.611  0.9350 -0.3246  0.2504
 5131TIP3    H236953   4.982   0.046   8.569  0.9063  0.6164 -0.4685
 5132TIP3   OH236954   6.054   1.752   2.477  0.1086 -0.1037  0.1553
 5132TIP3    H136955   5.978   1.793   2.518  0.3866  1.0521 -0.4447
 5132TIP3    H236956   6.101   1.824   2.436  1.4704 -0.8233  0.4133
 5133TIP3   OH236957   5.490   2.816   8.257  0.0343  0.3918 -0.0797
 5133TIP3    H136958   5.470   2.815   8.163  0.2166  1.0680 -0.1335
 5133TIP3    H236959   5.579   2.781   8.263  0.5284  1.5808 -0.3004
 5134TIP3   OH236960   4.711   0.346   8.508  0.4682 -0.7753  0.0292
 5134TIP3    H136961   4.639   0.286   8.488  0.9479 -0.4008 -3.5016
 5134TIP3    H236962   4.704   0.362   8.602 -2.2944 -2.9510  0.3182
 5135TIP3   OH236963   4.738   6.532   8.681  0.2425  0.4349 -0.0915
 5135TIP3    H136964   4.779   6.529   8.595  0.3612  2.0838 -0.1073
 5135TIP3    H236965   4.657   6.482   8.671  1.7828 -2.2309 -0.2574
 5136TIP3   OH236966   5.964   3.687   0.753  0.4002  0.1415  0.2252
 5136TIP3    H136967   5.888   3.745   0.754 -0.1202 -0.4487 -1.5154
 5136TIP3    H236968   5.968   3.654   0.663  0.5112 -2.6938  1.1739
 5137TIP3   OH236969   5.802   1.361   8.544 -0.8890  0.0493 -0.5523
 5137TIP3    H136970   5.760   1.278   8.523 -0.6635 -0.2275  0.0525
 5137TIP3    H236971   5.772   1.422   8.476 -2.9429  0.0849  0.3132
 5138TIP3   OH236972   3.209   6.225   3.194 -0.3238 -0.2059 -0.3875
 5138TIP3    H136973   3.219   6.130   3.187 -1.4310 -0.5888  2.0384
 5138TIP3    H236974   3.191   6.255   3.105 -0.3723 -2.3230 -1.1283
 5139TIP3   OH236975   1.786   6.660   3.340  0.0631 -0.7373 -0.5417
 5139TIP3    H136976   1.709   6.620   3.298  0.7123 -2.1612 -0.4465
 5139TIP3    H236977   1.786   6.751   3.310 -2.3713 -0.3383  0.4646
 5140TIP3   OH236978   1.823   3.469   2.268 -0.0605  0.2328 -0.1413
 5140TIP3    H136979   1.842   3.524   2.192  0.9738  0.9174  0.5975
 5140TIP3    H236980   1.787   3.530   2.333 -0.3993 -0.2507  0.1323
 5141TIP3   OH236981   2.061   1.541   2.375  0.1348  0.3245 -0.6318
 5141TIP3    H136982   2.143   1.582   2.348  1.7680 -1.8837  0.5812
 5141TIP3    H236983   2.014   1.609   2.422  1.0065  1.7948 -1.8078
 5142TIP3   OH236984   0.946   3.131   2.603  0.2991 -0.0394  0.5445
 5142TIP3    H136985   0.974   3.071   2.534 -0.1176 -0.6775  0.9212
 5142TIP3    H236986   0.973   3.089   2.684  0.1068  0.3393  0.8084
 5143TIP3   OH236987   2.503   2.842   2.706  0.2348 -0.5753 -0.6420
 5143TIP3    H136988   2.576   2.895   2.738  1.5084 -2.6534  0.1224
 5143TIP3    H236989   2.506   2.851   2.611 -1.1069  2.5404 -0.5037
 5144TIP3   OH236990   0.456   4.711   2.821  0.2956 -0.0141 -0.4200
 5144TIP3    H136991   0.481   4.658   2.896 -0.3217 -1.5125 -1.2194
 5144TIP3    H236992   0.410   4.650   2.763 -1.0517  1.5390 -1.0937
 5145TIP3   OH236993   6.122   6.493   8.127 -0.0825  0.3090  0.9208
 5145TIP3    H136994   6.084   6.546   8.197  0.0665 -0.4461  1.5836
 5145TIP3    H236995   6.163   6.420   8.171 -2.3826 -1.7244 -0.0642
 5146TIP3   OH236996   5.363   6.703   3.050 -0.4235  0.0675 -0.3056
 5146TIP3    H136997   5.290   6.697   3.111  0.8773 -1.4012  1.1887
 5146TIP3    H236998   5.430   6.752   3.097  0.1034  0.1269 -1.0895
 5147TIP3   OH236999   2.125   3.159   1.112  0.0941  0.1622 -0.3137
 5147TIP3    H137000   2.211   3.125   1.087  1.0494  1.5151  0.9706
 5147TIP3    H237001   2.066   3.126   1.045  0.8846 -4.0196  0.7456
 5148TIP3   OH237002   5.403   6.417   3.327 -0.3041 -0.0948 -0.4113
 5148TIP3    H137003   5.310   6.439   3.340 -0.4695 -0.9382 -0.0428
 5148TIP3    H237004   5.440   6.417   3.415 -0.0676 -0.2294 -0.5114
 5149TIP3   OH237005   1.940   6.504   2.853 -0.5406 -0.0613 -0.0889
 5149TIP3    H137006   1.931   6.599   2.843  1.6933  0.3515  1.1067
 5149TIP3    H237007   1.883   6.482   2.926  0.6608  0.8121  1.1762
 5150TIP3   OH237008   6.421   3.874   1.038 -0.1313  0.8029 -0.0306
 5150TIP3    H137009   6.359   3.924   0.985 -2.4433 -0.6936  1.1061
 5150TIP3    H237010   6.429   3.790   0.993 -0.5486  0.2557  0.8778
 5151TIP3   OH237011   2.140   6.355   1.225 -0.1346  0.5423 -0.5794
 5151TIP3    H137012   2.060   6.397   1.257 -0.4067 -1.2098  1.2578
 5151TIP3    H237013   2.112   6.268   1.196  1.1967 -0.5222  1.1346
 5152TIP3   OH237014   0.444   6.290   1.729  0.1519 -0.3394  0.2117
 5152TIP3    H137015   0.454   6.297   1.635  0.3380 -1.8714  0.1041
 5152TIP3    H237016   0.454   6.197   1.749 -0.8798 -0.1937  1.6261
 5153TIP3   OH237017   6.803   0.631   8.657  0.4102 -0.4423  0.3686
 5153TIP3    H137018   6.745   0.564   8.694 -1.6746  0.1738 -1.6070
 5153TIP3    H237019   6.881   0.582   8.630  0.8852 -1.3082  2.9697
 5154TIP3   OH237020   1.871   3.174   2.191 -0.2759 -0.1306 -0.3888
 5154TIP3    H137021   1.824   3.240   2.242  0.3263  0.3887 -0.4923
 5154TIP3    H237022   1.861   3.202   2.100  0.0183 -0.1489 -0.4294
 5155TIP3   OH237023   5.147   3.613   3.175  0.6025 -0.0805  0.5814
 5155TIP3    H137024   5.159   3.577   3.087  2.0786 -1.1452  1.1801
 5155TIP3    H237025   5.053   3.626   3.183  0.3286 -1.0737 -0.7325
 5156TIP3   OH237026   0.412   4.382   2.017  0.3577 -0.0655 -0.3227
 5156TIP3    H137027   0.391   4.387   1.923  0.0461  0.1832 -0.2394
 5156TIP3    H237028   0.407   4.288   2.036  0.0783 -0.0863 -0.4799
 5157TIP3   OH237029   2.428   5.197   2.268 -0.1879  0.4962 -0.0884
 5157TIP3    H137030   2.386   5.112   2.281 -0.5473  0.9640  2.2524
 5157TIP3    H237031   2.360   5.251   2.227 -0.3637  0.0034 -0.4601
 5158TIP3   OH237032   3.055   4.404   0.759 -0.0209 -0.6734 -0.5705
 5158TIP3    H137033   2.987   4.417   0.825  0.4304 -0.4512 -0.1412
 5158TIP3    H237034   3.027   4.458   0.685  0.6799  1.0391  0.3430
 5159TIP3   OH237035   0.890   3.129   3.159 -0.2759  0.2206 -0.0045
 5159TIP3    H137036   0.798   3.128   3.132  0.1007 -0.7781 -1.3411
 5159TIP3    H237037   0.887   3.146   3.254 -1.6987  2.7581 -0.4063
 5160TIP3   OH237038   5.085   4.048   3.307  0.8669 -0.1949 -0.3053
 5160TIP3    H137039   5.133   4.131   3.305  0.4076  0.0682 -2.1118
 5160TIP3    H237040   5.148   3.986   3.343  1.2258  0.9084  1.0480
 5161TIP3   OH237041   2.594   6.499   3.265  0.4651  0.6444 -0.1471
 5161TIP3    H137042   2.688   6.491   3.248  1.1021  0.5063  2.8504
 5161TIP3    H237043   2.579   6.593   3.275 -0.3295  0.9354 -3.0642
 5162TIP3   OH237044   1.383   2.756   0.461  0.0122 -0.0035  0.0306
 5162TIP3    H137045   1.308   2.793   0.415 -1.0154 -0.1255  1.5570
 5162TIP3    H237046   1.409   2.823   0.524 -0.8083 -1.1263  1.6479
 5163TIP3   OH237047   6.602   3.307   2.576 -0.7439  0.3342  0.2833
 5163TIP3    H137048   6.659   3.242   2.536 -1.2595  0.9259 -1.4895
 5163TIP3    H237049   6.656   3.349   2.642 -0.3908 -1.8489  1.4860
 5164TIP3   OH237050   5.228   3.530   3.427  0.0948 -0.1710 -0.3202
 5164TIP3    H137051   5.307   3.508   3.477  0.6116  0.1963 -0.9624
 5164TIP3    H237052   5.258   3.542   3.337 -0.6494  0.2264 -0.5320
 5165TIP3   OH237053   1.192   4.836   1.792  0.0302 -0.4162  0.1153
 5165TIP3    H137054   1.201   4.749   1.753  2.3778 -0.4165  0.5287
 5165TIP3    H237055   1.252   4.891   1.742 -2.4165  1.3862 -1.0662
 5166TIP3   OH237056   3.663   0.470   1.340 -0.1168 -0.3718 -0.5020
 5166TIP3    H137057   3.599   0.422   1.392  0.4443 -1.2461 -0.5899
 5166TIP3    H237058   3.661   0.559   1.375  0.4124 -0.9807  1.2005
 5167TIP3   OH237059   2.265   6.313   2.088 -0.1601  0.2966  0.7712
 5167TIP3    H137060   2.271   6.405   2.060 -1.5714 -0.1652 -1.3484
 5167TIP3    H237061   2.187   6.310   2.143 -1.3580  0.0721 -0.8551
 5168TIP3   OH237062   0.322   6.802   2.971 -0.0906  0.2103 -0.1679
 5168TIP3    H137063   0.351   6.835   3.056  1.3379 -1.0926 -0.0990
 5168TIP3    H237064   0.227   6.806   2.975 -0.0201  1.6713  0.8566
 5169TIP3   OH237065   0.271   6.225   2.421 -0.2221  0.0800 -0.5246
 5169TIP3    H137066   0.185   6.202   2.384 -0.7348  0.0279  0.6310
 5169TIP3    H237067   0.323   6.253   2.347 -1.0485 -0.4942 -1.3433
 5170TIP3   OH237068   3.959   6.683   1.319 -0.1056 -0.3805 -0.2147
 5170TIP3    H137069   4.024   6.741   1.280 -2.0900  2.5560  0.4678
 5170TIP3    H237070   3.948   6.717   1.408 -1.9201 -1.3560 -0.0230
 5171TIP3   OH237071   2.040   6.511   0.391  0.3098  0.0323  0.2739
 5171TIP3    H137072   2.005   6.438   0.340  2.3782 -0.8191 -0.0244
 5171TIP3    H237073   2.121   6.534   0.346 -1.1014  3.7594 -0.7123
 5172TIP3   OH237074   0.665   0.756   1.633 -0.0968  0.4263  0.1464
 5172TIP3    H137075   0.598   0.777   1.698  0.6387 -0.1606  1.1141
 5172TIP3    H237076   0.678   0.838   1.586  0.3805  1.2718  1.6844
 5173TIP3   OH237077   5.389   1.864   8.154 -0.1711 -0.4033  1.0129
 5173TIP3    H137078   5.360   1.912   8.231  2.3636  0.4739  1.5081
 5173TIP3    H237079   5.452   1.801   8.188  0.5932 -0.3617 -0.2752
 5174TIP3   OH237080   6.267   3.849   0.260  0.1064 -0.2073 -0.3783
 5174TIP3    H137081   6.201   3.839   0.192  1.2055 -0.5783 -1.4304
 5174TIP3    H237082   6.346   3.878   0.214  0.5419  0.7961  0.9193
 5175TIP3   OH237083   6.292   4.774   1.239  0.2998  0.2312  0.0035
 5175TIP3    H137084   6.240   4.704   1.198 -0.6389  1.0645 -0.2678
 5175TIP3    H237085   6.252   4.855   1.207  0.6279  0.9000  1.2377
 5176TIP3   OH237086   2.579   1.264   3.034  0.4204  0.1161  0.5874
 5176TIP3    H137087   2.569   1.192   2.971  0.3183 -1.0595  1.8912
 5176TIP3    H237088   2.612   1.221   3.113  2.0873  1.7832  0.8615
 5177TIP3   OH237089   5.774   5.264   2.474  0.0018  0.6813  0.1447
 5177TIP3    H137090   5.732   5.333   2.524 -1.2605  0.4922 -0.6130
 5177TIP3    H237091   5.850   5.240   2.526 -0.7140  1.1715  1.4678
 5178TIP3   OH237092   2.360   1.894   1.339  0.6949  0.1789 -0.1563
 5178TIP3    H137093   2.393   1.888   1.249  1.7994  0.7848  0.1904
 5178TIP3    H237094   2.428   1.855   1.393  0.2895  0.3212  0.4692
 5179TIP3   OH237095   2.938   6.502   1.479 -1.0339 -0.4482 -0.0053
 5179TIP3    H137096   2.932   6.503   1.383  1.0846  0.2196 -0.1839
 5179TIP3    H237097   2.898   6.584   1.507  0.6277  0.5926 -0.5499
 5180TIP3   OH237098   0.318   2.926   1.402  0.2327 -0.2675  0.7670
 5180TIP3    H137099   0.252   2.874   1.447  0.3172  0.4942  1.8156
 5180TIP3    H237100   0.396   2.920   1.457  1.8675 -3.0463 -1.5811
 5181TIP3   OH237101   1.828   4.287   3.324  0.2814 -0.8657  0.4740
 5181TIP3    H137102   1.749   4.316   3.369 -1.0181 -1.6024 -1.2361
 5181TIP3    H237103   1.849   4.202   3.364  0.4895 -0.4657  1.2346
 5182TIP3   OH237104   6.806   5.467   1.771  0.1549  0.2168  0.2359
 5182TIP3    H137105   6.817   5.379   1.734 -0.6013 -0.4086  1.4442
 5182TIP3    H237106   6.895   5.495   1.793  0.4237 -0.1398 -0.3718
 5183TIP3   OH237107   0.136   2.213   8.574  0.2928 -0.4099 -0.0148
 5183TIP3    H137108   0.130   2.174   8.487 -1.8794  2.3042 -1.2198
 5183TIP3    H237109   0.229   2.210   8.595  1.0054 -0.4818 -2.7876
 5184TIP3   OH237110   5.693   0.606   3.744  0.1097 -0.0936 -0.0028
 5184TIP3    H137111   5.738   0.559   3.674  1.2076  0.1208  0.5488
 5184TIP3    H237112   5.662   0.687   3.703 -0.4869 -0.6027 -0.5812
 5185TIP3   OH237113   5.860   6.157   3.348 -0.1395 -0.1929  0.4053
 5185TIP3    H137114   5.901   6.120   3.427  0.2904 -0.3066  0.1287
 5185TIP3    H237115   5.930   6.204   3.304 -0.2103 -0.7117 -0.2723
 5186TIP3   OH237116   3.153   2.319   2.362 -0.7994  0.4727  0.0583
 5186TIP3    H137117   3.143   2.255   2.432 -1.4377 -1.2773 -1.5480
 5186TIP3    H237118   3.247   2.320   2.343 -0.3560  2.2088  1.9656
 5187TIP3   OH237119   6.431   2.059   2.156  0.1965 -0.3984 -0.0770
 5187TIP3    H137120   6.507   2.016   2.195 -0.8188  0.4267  3.1476
 5187TIP3    H237121   6.429   2.145   2.198 -2.9800 -0.7316  0.7029
 5188TIP3   OH237122   1.856   1.341   2.742  0.0059 -0.0458 -0.0290
 5188TIP3    H137123   1.873   1.285   2.666  0.8330 -2.2018  1.6568
 5188TIP3    H237124   1.909   1.419   2.725 -0.7274  0.0624 -2.1753
 5189TIP3   OH237125   6.342   2.393   0.046 -0.4937  0.6961  0.1516
 5189TIP3    H137126   6.312   2.455   0.113 -1.1597  2.7676 -1.9467
 5189TIP3    H237127   6.407   2.442  -0.004  0.7739 -1.1695 -0.1236
 5190TIP3   OH237128   3.141   6.153   2.305 -0.0199 -0.5674  0.1790
 5190TIP3    H137129   3.074   6.220   2.323 -0.2545 -0.3343 -1.4060
 5190TIP3    H237130   3.103   6.072   2.338 -0.4086 -0.1846  0.7061
 5191TIP3   OH237131   2.649   0.009   0.738  0.2676 -0.0163  0.3232
 5191TIP3    H137132   2.694   0.024   0.655  0.3532  0.7771  0.5078
 5191TIP3    H237133   2.556   0.009   0.715  0.3052 -0.1780  0.1699
 5192TIP3   OH237134   1.431   4.978   1.994  0.0740  0.5853  0.1904
 5192TIP3    H137135   1.486   5.002   1.920 -1.0651 -0.7151 -1.1449
 5192TIP3    H237136   1.425   4.882   1.989  0.6158  0.3758  2.4568
 5193TIP3   OH237137   5.943   4.401   0.530 -0.1754  0.0404 -0.2971
 5193TIP3    H137138   5.998   4.323   0.530 -0.9242 -0.5065 -0.7808
 5193TIP3    H237139   5.987   4.462   0.589  1.4075 -0.0296 -1.3489
 5194TIP3   OH237140   4.871   0.312   2.890 -0.0490  0.4865 -0.1984
 5194TIP3    H137141   4.847   0.269   2.972  2.2214  1.8080  1.2585
 5194TIP3    H237142   4.901   0.241   2.834  0.0078 -0.2523  0.7397
 5195TIP3   OH237143   0.656   4.183   1.237  0.1261  0.4100  0.3416
 5195TIP3    H137144   0.732   4.127   1.223  0.4205  0.5949  1.1517
 5195TIP3    H237145   0.648   4.233   1.155 -0.7148 -1.4415 -0.7874
 5196TIP3   OH237146   2.539   4.232   3.915  0.2398  0.1507  0.0743
 5196TIP3    H137147   2.494   4.316   3.921  0.0642  0.1639 -1.1983
 5196TIP3    H237148   2.626   4.248   3.954  0.5972  1.2202 -1.1260
 5197TIP3   OH237149   4.362   2.551   0.774  0.6187 -0.2597 -0.7091
 5197TIP3    H137150   4.452   2.579   0.756  0.3686  0.7390 -0.4639
 5197TIP3    H237151   4.308   2.622   0.741  0.0313  0.3207  1.3624
 5198TIP3   OH237152   2.552   3.967   0.257  0.2521 -0.1345 -0.2113
 5198TIP3    H137153   2.509   3.942   0.339  0.0761  0.4305 -0.1252
 5198TIP3    H237154   2.611   4.038   0.281  2.2900 -1.7808 -0.0785
 5199TIP3   OH237155   0.677   5.662   0.563 -0.0428 -1.0708  0.2234
 5199TIP3    H137156   0.642   5.682   0.650 -0.9796 -1.0991 -0.1456
 5199TIP3    H237157   0.657   5.740   0.512 -0.0778 -1.3219 -0.1437
 5200TIP3   OH237158   6.374   0.625   7.649  0.8622 -0.1687  0.0477
 5200TIP3    H137159   6.382   0.642   7.555  1.5249  0.6173  0.2406
 5200TIP3    H237160   6.280   0.633   7.666  0.2729 -3.1476 -1.0418
 5201TIP3   OH237161   5.313   3.380   1.263 -0.1672 -0.0768  0.0029
 5201TIP3    H137162   5.355   3.466   1.258 -2.7113  1.2480 -0.2082
 5201TIP3    H237163   5.345   3.334   1.185 -0.7308  1.6711 -1.3297
 5202TIP3   OH237164   2.591   1.999   8.164  0.2903  0.3453  0.4834
 5202TIP3    H137165   2.635   1.934   8.220  0.0002 -0.1019  0.2019
 5202TIP3    H237166   2.513   1.954   8.133  0.6693  0.4304 -0.6334
 5203TIP3   OH237167   6.128   4.721   8.444  0.0529  0.2432 -0.2922
 5203TIP3    H137168   6.160   4.670   8.369 -1.1841  0.6444 -1.1224
 5203TIP3    H237169   6.117   4.810   8.410 -0.6371  0.4092  0.3308
 5204TIP3   OH237170   1.899   0.820   2.402  0.2408 -0.0350 -0.6215
 5204TIP3    H137171   1.857   0.898   2.438 -0.4655 -0.2073 -1.0601
 5204TIP3    H237172   1.857   0.747   2.449  0.2927 -0.1912 -0.8171
 5205TIP3   OH237173   3.057   6.529   3.642  0.0683 -0.8459  0.2887
 5205TIP3    H137174   3.057   6.621   3.671  0.9283 -0.9230  0.5609
 5205TIP3    H237175   2.994   6.527   3.570 -0.8729 -0.3025  1.0667
 5206TIP3   OH237176   2.540   6.200   0.131 -0.4437  0.0988  0.1876
 5206TIP3    H137177   2.609   6.230   0.190  0.5070  0.7676 -1.1974
 5206TIP3    H237178   2.546   6.259   0.056 -0.9797 -1.2728 -0.9912
 5207TIP3   OH237179   5.359   6.408   1.028  0.0533 -0.6142 -0.1669
 5207TIP3    H137180   5.420   6.337   1.044 -1.2292 -1.5718  0.6455
 5207TIP3    H237181   5.272   6.367   1.030 -0.8394  1.1634  1.9219
 5208TIP3   OH237182   1.111   1.974   0.448  0.3163 -0.3750 -0.1231
 5208TIP3    H137183   1.110   2.007   0.538 -0.2696 -1.9559  0.4916
 5208TIP3    H237184   1.019   1.967   0.424  0.4040 -1.7949 -0.1106
 5209TIP3   OH237185   6.398   2.779   0.568 -0.6793  0.5539 -0.2196
 5209TIP3    H137186   6.406   2.828   0.650  1.1126 -0.6798  0.4200
 5209TIP3    H237187   6.419   2.689   0.593 -3.4092 -0.5037 -1.4290
 5210TIP3   OH237188   1.367   5.919   1.753 -0.4867 -0.5701 -0.3281
 5210TIP3    H137189   1.303   5.880   1.693 -2.7838  1.3789  0.6864
 5210TIP3    H237190   1.345   6.012   1.754  2.5207  0.2458 -0.0102
 5211TIP3   OH237191   1.845   5.253   8.253  0.1360 -0.2961 -0.1220
 5211TIP3    H137192   1.925   5.276   8.206  0.4414 -0.3648  0.3607
 5211TIP3    H237193   1.871   5.251   8.345 -0.9423  1.9723  0.2916
 5212TIP3   OH237194   4.391   6.374   8.295  0.0697 -0.2100  0.6146
 5212TIP3    H137195   4.316   6.392   8.239 -0.5146 -2.6996  0.4652
 5212TIP3    H237196   4.466   6.405   8.245 -0.7555  1.5503  0.3969
 5213TIP3   OH237197   5.429   1.268   2.154 -0.3558  0.5994 -0.0991
 5213TIP3    H137198   5.343   1.264   2.195 -0.3356 -0.6651 -0.1315
 5213TIP3    H237199   5.414   1.239   2.064  0.2541 -0.6328  0.1795
 5214TIP3   OH237200   2.171   2.735   2.846  0.7178 -0.3747 -0.3824
 5214TIP3    H137201   2.174   2.730   2.750 -0.4074 -0.8410 -0.4141
 5214TIP3    H237202   2.078   2.741   2.866  0.9457 -0.2931  0.6923
 5215TIP3   OH237203   2.133   1.517   0.531 -0.0627  0.1453 -0.4662
 5215TIP3    H137204   2.193   1.462   0.581 -0.5295 -1.0690 -1.1989
 5215TIP3    H237205   2.091   1.573   0.597  0.6157 -0.1844  0.2586
 5216TIP3   OH237206   3.955   4.502   0.215 -0.4975  0.4791  0.3476
 5216TIP3    H137207   3.991   4.580   0.258  0.6655 -0.1827  0.6028
 5216TIP3    H237208   3.964   4.521   0.121  0.8917  0.2023  0.3916
 5217TIP3   OH237209   5.679   2.743   1.170  0.2735 -0.0541 -1.1643
 5217TIP3    H137210   5.764   2.711   1.139  0.7515 -1.5167  1.3350
 5217TIP3    H237211   5.700   2.822   1.219  0.1052 -0.0148 -1.1561
 5218TIP3   OH237212   3.179   4.603   1.426 -0.5751  0.0858  0.2546
 5218TIP3    H137213   3.095   4.628   1.387 -0.9285  0.1449  1.0379
 5218TIP3    H237214   3.214   4.685   1.462  1.6791  0.9700 -3.3329
 5219TIP3   OH237215   3.593   1.365   2.696 -0.1329  0.4133 -0.0330
 5219TIP3    H137216   3.580   1.276   2.729  0.5048  0.5421  0.6142
 5219TIP3    H237217   3.650   1.406   2.762 -1.3206  1.6455  0.2599
 5220TIP3   OH237218   4.589   5.583   0.378 -0.0798 -0.0605  0.3819
 5220TIP3    H137219   4.595   5.516   0.446 -0.2626  0.8117  1.2816
 5220TIP3    H237220   4.632   5.544   0.302  2.4887 -0.1181  1.7459
 5221TIP3   OH237221   1.546   3.542   8.722  0.4454  0.0170 -0.7543
 5221TIP3    H137222   1.454   3.519   8.739  0.4862  0.2749 -0.1617
 5221TIP3    H237223   1.595   3.495   8.789  1.0440 -2.4056 -2.7525
 5222TIP3   OH237224   1.940   6.778   2.782 -0.2095 -0.4574 -0.7332
 5222TIP3    H137225   1.871   6.836   2.750 -0.6989 -1.1680 -0.9903
 5222TIP3    H237226   2.021   6.818   2.750 -0.6165 -0.5875 -2.0113
 5223TIP3   OH237227   4.480   6.085   2.995 -0.2324 -0.1342  0.0428
 5223TIP3    H137228   4.453   6.174   2.971  0.5822  0.5079  1.3717
 5223TIP3    H237229   4.505   6.092   3.088  1.3625 -1.4004 -0.2453
 5224TIP3   OH237230   2.359   1.990   1.065  0.0901  0.0496  0.0088
 5224TIP3    H137231   2.269   1.980   1.097  0.0288 -1.5181 -0.5408
 5224TIP3    H237232   2.349   2.030   0.978  0.0998  1.9777  0.8520
 5225TIP3   OH237233   1.105   5.756   1.307  0.4150  0.0198  0.1022
 5225TIP3    H137234   1.027   5.749   1.251 -0.8600  0.1306  1.7881
 5225TIP3    H237235   1.137   5.845   1.293  1.7642 -0.7819 -2.4600
 5226TIP3   OH237236   1.229   2.181   3.223 -0.5729 -0.0771 -0.1603
 5226TIP3    H137237   1.256   2.264   3.262 -0.9021 -0.7393  1.5742
 5226TIP3    H237238   1.134   2.187   3.216 -0.9261 -1.2274  2.4332
 5227TIP3   OH237239   3.752   5.550   1.098 -0.1579 -0.0009 -0.4143
 5227TIP3    H137240   3.804   5.471   1.109 -0.5764 -0.0155  2.1442
 5227TIP3    H237241   3.816   5.618   1.078  0.2852 -0.8235 -1.9216
 5228TIP3   OH237242   2.435   1.469   1.000 -0.1661  0.1750 -0.1820
 5228TIP3    H137243   2.483   1.387   1.008  1.0526  0.6016 -2.4213
 5228TIP3    H237244   2.494   1.535   1.036  0.4291  0.5153 -1.7017
 5229TIP3   OH237245   6.287   1.514   0.916  0.4190 -0.5399  0.6365
 5229TIP3    H137246   6.248   1.440   0.870 -0.9697  1.6475 -1.9980
 5229TIP3    H237247   6.377   1.519   0.884  0.3572 -0.7877  0.4313
 5230TIP3   OH237248   0.841   2.448   0.860 -0.1477  0.1166  0.1855
 5230TIP3    H137249   0.817   2.454   0.767 -2.5607  1.4828  0.7992
 5230TIP3    H237250   0.854   2.355   0.876 -1.6807 -0.3738 -1.1249
 5231TIP3   OH237251   5.966   0.211   1.180 -0.1150  0.2673  0.2359
 5231TIP3    H137252   5.967   0.163   1.098  0.9578  2.2309 -0.9737
 5231TIP3    H237253   5.976   0.143   1.247  1.8584 -1.1675 -1.3884
 5232TIP3   OH237254   5.234   4.538   2.960  0.2634  0.2442 -0.1420
 5232TIP3    H137255   5.280   4.456   2.937 -0.8822 -0.9805  1.7472
 5232TIP3    H237256   5.271   4.563   3.044  0.3715  1.5344 -0.5596
 5233TIP3   OH237257   0.790   0.238   2.485 -0.3543  0.7134  0.6976
 5233TIP3    H137258   0.849   0.312   2.499  1.3445 -0.4233 -0.1566
 5233TIP3    H237259   0.846   0.169   2.450 -2.5601  0.3673 -2.6173
 5234TIP3   OH237260   5.096   4.283   1.469  0.5469 -0.0732  0.1413
 5234TIP3    H137261   5.054   4.286   1.383 -0.4337  1.2545  0.6429
 5234TIP3    H237262   5.027   4.250   1.528  0.0125  2.4171  1.0256
 5235TIP3   OH237263   0.278   5.412   0.192  0.4984  0.1503 -0.0182
 5235TIP3    H137264   0.212   5.357   0.150  0.4365 -0.8513  1.3343
 5235TIP3    H237265   0.259   5.500   0.160 -1.5651 -0.0809  0.4168
 5236TIP3   OH237266   1.031   1.481   1.485 -0.0355 -0.2434 -0.2808
 5236TIP3    H137267   1.058   1.465   1.576  5.3422 -0.1276 -1.4912
 5236TIP3    H237268   1.031   1.576   1.476 -1.0312 -0.2395 -0.3445
 5237TIP3   OH237269   3.271   6.766   2.930 -0.1647  0.2409 -0.2522
 5237TIP3    H137270   3.283   6.859   2.911 -1.5511  0.8979  1.6469
 5237TIP3    H237271   3.257   6.725   2.845 -0.2903  1.9190 -1.0764
 5238TIP3   OH237272   0.196   4.420   0.430 -0.5084 -0.2094  0.0847
 5238TIP3    H137273   0.237   4.333   0.431  1.6636  0.7136 -1.4093
 5238TIP3    H237274   0.103   4.402   0.444  0.2488 -2.4506  3.3714
 5239TIP3   OH237275   1.185   2.965   4.008 -0.3099 -0.1542 -0.0161
 5239TIP3    H137276   1.116   2.900   4.024  1.2711 -1.8377  0.2688
 5239TIP3    H237277   1.263   2.927   4.048  1.0953  1.0680 -1.4720
 5240TIP3   OH237278   6.633   6.265   0.898 -0.3642  0.5161  0.5252
 5240TIP3    H137279   6.694   6.198   0.927  0.0869 -0.2295 -1.9466
 5240TIP3    H237280   6.629   6.327   0.971  2.2591 -0.1312  1.3222
 5241TIP3   OH237281   4.831   6.615   8.414  0.0285 -0.1640 -0.2178
 5241TIP3    H137282   4.828   6.572   8.329  0.1596 -2.1867  0.7219
 5241TIP3    H237283   4.854   6.706   8.395  0.4495 -0.6553 -2.2868
 5242TIP3   OH237284   1.739   1.747   1.035 -0.3587  0.1911  0.1600
 5242TIP3    H137285   1.714   1.657   1.057 -0.7378  0.6091  1.5503
 5242TIP3    H237286   1.776   1.782   1.116  1.2872  0.8024 -0.8128
 5243TIP3   OH237287   1.054   6.085   0.353  0.0008  0.5602 -0.1879
 5243TIP3    H137288   1.005   6.110   0.432  1.0514  1.9763  0.0430
 5243TIP3    H237289   1.048   6.161   0.296  1.6082  0.6153 -0.3119
 5244TIP3   OH237290   5.575   1.547   3.214 -0.4227  0.0604  1.0725
 5244TIP3    H137291   5.628   1.601   3.273 -0.3070  1.1349  0.0319
 5244TIP3    H237292   5.635   1.479   3.183  1.1728  2.4909 -1.7684
 5245TIP3   OH237293   4.774   2.458   2.703 -0.1269  0.1386  0.7011
 5245TIP3    H137294   4.826   2.514   2.761  0.6750  0.1460  0.0004
 5245TIP3    H237295   4.750   2.383   2.757  0.7829  0.0475  1.0041
 5246TIP3   OH237296   4.946   3.585   1.635  0.2863 -0.0178 -0.3345
 5246TIP3    H137297   4.918   3.587   1.727  1.5010 -0.8264  0.0673
 5246TIP3    H237298   4.950   3.492   1.613  0.9408  0.1465 -0.9221
 5247TIP3   OH237299   6.422   2.807   0.311 -0.0832 -0.0800 -0.7064
 5247TIP3    H137300   6.399   2.805   0.404 -0.3290 -0.6983 -0.7758
 5247TIP3    H237301   6.498   2.865   0.306 -1.2970  1.6257 -0.3921
 5248TIP3   OH237302   2.011   1.639   0.745  0.0340 -0.4047 -0.1844
 5248TIP3    H137303   1.952   1.617   0.817  2.0534 -1.5555  1.2050
 5248TIP3    H237304   2.069   1.705   0.782  1.2960 -1.2423 -0.6363
 5249TIP3   OH237305   6.567   1.209   2.622 -0.7121 -0.2578 -0.5250
 5249TIP3    H137306   6.510   1.284   2.603 -3.3958 -1.8252  0.6990
 5249TIP3    H237307   6.637   1.246   2.676 -1.9081  1.4027 -0.0051
 5250TIP3   OH237308   0.406   6.709   1.322  0.1564 -0.0823  0.0926
 5250TIP3    H137309   0.338   6.747   1.378 -0.1057  0.6671 -0.7034
 5250TIP3    H237310   0.485   6.758   1.343 -0.5672  2.2854 -2.2279
 5251TIP3   OH237311   2.530   0.861   8.207 -0.2733 -0.1082 -0.4695
 5251TIP3    H137312   2.509   0.952   8.224  0.8198  1.0547 -4.3150
 5251TIP3    H237313   2.617   0.848   8.247 -0.3881  0.5496 -0.0029
 5252TIP3   OH237314   4.995   0.220   1.897  0.0540 -0.9053  0.0696
 5252TIP3    H137315   5.028   0.176   1.976 -0.5136  0.3834  1.0529
 5252TIP3    H237316   5.064   0.206   1.832  1.9045  0.4252  1.6250
 5253TIP3   OH237317   1.626   6.566   1.326 -0.3075  0.2169 -0.4569
 5253TIP3    H137318   1.652   6.639   1.270  0.6612 -0.3052 -0.7036
 5253TIP3    H237319   1.610   6.606   1.411 -1.6110  0.9914 -1.0321
 5254TIP3   OH237320   3.295   1.437   0.176 -0.2191 -0.0967  0.2637
 5254TIP3    H137321   3.382   1.427   0.137 -0.4812  1.1890 -0.7209
 5254TIP3    H237322   3.268   1.348   0.198  1.4645 -0.4950  0.8886
 5255TIP3   OH237323   0.967   1.289   3.493 -0.0449  0.6326 -0.1808
 5255TIP3    H137324   0.918   1.214   3.459 -0.2370  1.0575 -0.8835
 5255TIP3    H237325   1.059   1.266   3.480 -0.1048  0.4955 -0.3660
 5256TIP3   OH237326   2.118   0.214   1.383  0.4355 -0.0446  0.4247
 5256TIP3    H137327   2.142   0.267   1.460  0.1548  0.0149  0.4717
 5256TIP3    H237328   2.095   0.279   1.316  0.4475 -0.1026  0.3638
 5257TIP3   OH237329   2.644   3.708   2.235  0.0958  0.1227 -0.3146
 5257TIP3    H137330   2.628   3.614   2.232  0.3376  0.1041 -1.3755
 5257TIP3    H237331   2.637   3.731   2.328 -2.5096 -0.4946 -0.2780
 5258TIP3   OH237332   5.920   4.892   2.907  0.1929 -0.4979  0.1436
 5258TIP3    H137333   5.836   4.915   2.866  0.8710  0.4473 -0.7773
 5258TIP3    H237334   5.965   4.976   2.918  0.9673 -0.9806  0.7356
 5259TIP3   OH237335   4.008   5.374   1.982 -0.7273 -0.2771 -0.8951
 5259TIP3    H137336   4.018   5.412   2.070  3.3314  1.8613 -2.0162
 5259TIP3    H237337   3.944   5.431   1.939 -0.9544  0.1260 -0.0581
 5260TIP3   OH237338   3.886   3.754   0.827  0.2991  0.5045  0.0337
 5260TIP3    H137339   3.807   3.781   0.780  0.0072  0.1155  0.3046
 5260TIP3    H237340   3.949   3.734   0.757  0.0845  0.5838 -0.1836
 5261TIP3   OH237341   2.383   0.071   1.422 -0.3656 -0.0633 -0.0029
 5261TIP3    H137342   2.309   0.131   1.408 -0.1531 -0.0126 -0.9621
 5261TIP3    H237343   2.459   0.129   1.428 -0.0427 -0.2467 -1.7657
 5262TIP3   OH237344   5.740   4.490   2.216 -0.3911 -0.6398  0.4992
 5262TIP3    H137345   5.810   4.541   2.256  0.7985  0.1087 -2.2913
 5262TIP3    H237346   5.663   4.546   2.221 -0.1709 -0.4009  1.3389
 5263TIP3   OH237347   2.681   5.489   0.149  0.6297 -0.1760 -0.0855
 5263TIP3    H137348   2.680   5.401   0.186  1.1292 -0.0802  0.1780
 5263TIP3    H237349   2.750   5.486   0.083  0.6188  0.0055 -0.1052
 5264TIP3   OH237350   1.902   3.610   8.164 -0.8847  0.1012  0.1814
 5264TIP3    H137351   1.982   3.652   8.131 -0.6713  0.1475  0.7431
 5264TIP3    H237352   1.915   3.517   8.146 -0.5492  0.0680  0.5670
 5265TIP3   OH237353   1.520   5.033   3.443  0.6926  0.0814  0.3439
 5265TIP3    H137354   1.566   5.014   3.525 -0.9865 -0.2180  1.2751
 5265TIP3    H237355   1.520   5.128   3.436  0.2789  0.1457  1.0732
 5266TIP3   OH237356   2.854   3.157   1.573 -0.2279 -0.0340 -0.5146
 5266TIP3    H137357   2.908   3.086   1.538  0.9540  1.2140 -1.2910
 5266TIP3    H237358   2.766   3.139   1.540 -0.6411 -2.7243  1.6740
 5267TIP3   OH237359   0.159   0.386   0.247  0.3253 -0.0385  0.3405
 5267TIP3    H137360   0.209   0.347   0.175  1.0916 -1.2389  1.4652
 5267TIP3    H237361   0.069   0.391   0.215  1.0305  1.6431 -1.5273
 5268TIP3   OH237362   5.981   3.465   0.924 -0.0232 -0.1150  0.1897
 5268TIP3    H137363   6.011   3.553   0.903 -0.4001 -0.0564 -0.1068
 5268TIP3    H237364   5.913   3.446   0.860 -0.2878 -0.4324  0.5534
 5269TIP3   OH237365   1.727   0.592   0.186 -0.7333 -0.1781 -0.1039
 5269TIP3    H137366   1.797   0.556   0.241 -0.7578 -1.2056 -0.7080
 5269TIP3    H237367   1.743   0.555   0.100 -1.0630  0.9111 -0.6435
 5270TIP3   OH237368   5.249   3.972   1.229 -0.0737  0.6412 -0.3655
 5270TIP3    H137369   5.311   4.002   1.297 -0.4404 -0.8163  0.6684
 5270TIP3    H237370   5.305   3.937   1.160  0.2936  1.4134 -0.4709
 5271TIP3   OH237371   6.207   0.412   0.551  0.1427  0.1703  0.3793
 5271TIP3    H137372   6.129   0.421   0.607 -0.8932  0.1601 -1.0041
 5271TIP3    H237373   6.228   0.319   0.555 -1.2883 -0.2685 -0.9217
 5272TIP3   OH237374   3.368   2.176   0.246 -0.1648  0.3153  0.3948
 5272TIP3    H137375   3.383   2.081   0.242 -2.7744 -0.1634  0.0995
 5272TIP3    H237376   3.424   2.212   0.177 -0.2836 -1.1959 -0.5493
 5273TIP3   OH237377   6.172   1.699   0.687 -0.3109  0.4155  0.1242
 5273TIP3    H137378   6.215   1.622   0.650 -0.9446  1.0180 -2.0361
 5273TIP3    H237379   6.243   1.763   0.698 -0.2437  0.6298 -1.2828
 5274TIP3   OH237380   1.316   5.369   0.177  0.9436 -0.0074  0.5315
 5274TIP3    H137381   1.407   5.369   0.204  1.5047 -0.1468 -1.2601
 5274TIP3    H237382   1.308   5.444   0.118 -0.4812  0.8929  1.7741
 5275TIP3   OH237383   5.285   1.834   0.981 -0.1553  0.0337  0.5727
 5275TIP3    H137384   5.361   1.798   0.935 -1.1410  0.4308 -1.5106
 5275TIP3    H237385   5.214   1.828   0.917 -1.1616  2.4284  1.3559
 5276TIP3   OH237386   5.346   6.704   8.221 -0.0288 -0.9059  0.2293
 5276TIP3    H137387   5.284   6.761   8.177  1.7866  1.6642  0.7694
 5276TIP3    H237388   5.383   6.650   8.152  0.1989  0.5680 -0.8518
 5277TIP3   OH237389   3.050   3.476   0.701  0.0818  0.5929  0.0569
 5277TIP3    H137390   3.015   3.528   0.628 -0.3612  0.6136  0.2826
 5277TIP3    H237391   3.110   3.535   0.746 -0.0572  0.7553  0.0311
 5278TIP3   OH237392   5.437   4.951   2.867  0.2521  0.1716  0.3499
 5278TIP3    H137393   5.379   4.882   2.835  0.7667  0.3651 -1.0742
 5278TIP3    H237394   5.392   5.033   2.844  2.6529  0.4701 -4.3119
 5279TIP3   OH237395   5.566   5.799   1.712 -0.0088  0.0733 -0.6711
 5279TIP3    H137396   5.533   5.793   1.802 -0.9301  1.3633 -0.8940
 5279TIP3    H237397   5.659   5.777   1.720  0.3946  1.9829  0.9476
 5280TIP3   OH237398   6.125   1.446   2.134  0.0665 -0.3881  0.1800
 5280TIP3    H137399   6.059   1.416   2.197  1.2860 -0.0245  1.6923
 5280TIP3    H237400   6.147   1.369   2.082  0.1604 -1.1060  1.2538
 5281TIP3   OH237401   5.123   1.013   0.041  0.3092 -0.4442 -0.1205
 5281TIP3    H137402   5.163   1.069  -0.027 -0.9571  0.9466  0.2245
 5281TIP3    H237403   5.046   1.062   0.069  0.5902 -1.1502  2.0745
 5282TIP3   OH237404   0.799   5.435   0.751 -0.6898  0.2728 -0.3538
 5282TIP3    H137405   0.713   5.396   0.766 -0.7963 -0.0533 -1.6733
 5282TIP3    H237406   0.861   5.375   0.793 -1.0829  0.4694  0.5296
 5283TIP3   OH237407   3.637   4.387   3.863  0.0484 -0.3901 -0.3816
 5283TIP3    H137408   3.598   4.299   3.865 -0.3016 -0.2240  1.4881
 5283TIP3    H237409   3.731   4.372   3.865 -0.0034 -0.7269 -0.3996
 5284TIP3   OH237410   3.980   3.034   1.343 -0.2601 -0.2102 -0.0467
 5284TIP3    H137411   3.898   3.026   1.294 -0.2418  1.4036 -0.4114
 5284TIP3    H237412   4.044   3.062   1.277  0.6654 -1.7130  0.1817
 5285TIP3   OH237413   3.529   3.586   8.721 -0.0498  0.0481  0.4734
 5285TIP3    H137414   3.473   3.654   8.757 -1.5090 -0.7564 -0.1783
 5285TIP3    H237415   3.584   3.632   8.657  0.8815  1.0478  1.9403
 5286TIP3   OH237416   0.144   3.178   8.534  0.0084 -0.0198 -0.1515
 5286TIP3    H137417   0.133   3.156   8.442  2.2589 -0.0973 -0.4464
 5286TIP3    H237418   0.061   3.219   8.559 -1.4232 -1.8656 -1.6208
 5287TIP3   OH237419   1.808   3.245   1.907  0.7548  0.2954 -0.0249
 5287TIP3    H137420   1.799   3.159   1.867  0.4121  0.3169 -0.0013
 5287TIP3    H237421   1.898   3.271   1.889  1.1948 -0.5205  0.8760
 5288TIP3   OH237422   4.594   6.737   2.292  0.1805 -0.2406  0.4046
 5288TIP3    H137423   4.514   6.766   2.248  1.2884  2.2869 -0.0525
 5288TIP3    H237424   4.639   6.683   2.227 -0.4598 -0.5270  0.1847
 5289TIP3   OH237425   0.548   0.419   1.110  0.1373 -0.4336  0.1267
 5289TIP3    H137426   0.631   0.430   1.064  0.0606 -1.1948 -0.2156
 5289TIP3    H237427   0.545   0.491   1.173  0.2721  0.5980 -1.0121
 5290TIP3   OH237428   5.364   3.923   0.282 -0.5833  0.0797 -0.1619
 5290TIP3    H137429   5.276   3.923   0.246  0.3510 -1.3465 -2.6569
 5290TIP3    H237430   5.417   3.972   0.219  0.8781 -1.3532 -0.1280
 5291TIP3   OH237431   1.054   5.744   2.184 -0.0301  0.3220  0.5027
 5291TIP3    H137432   1.055   5.667   2.241 -0.5635 -0.2654 -0.2497
 5291TIP3    H237433   1.089   5.814   2.237 -0.5331 -0.2085  1.5575
 5292TIP3   OH237434   2.840   1.999   1.141  0.6135 -0.3210  0.7692
 5292TIP3    H137435   2.766   1.957   1.097  2.6150 -3.1918 -0.1140
 5292TIP3    H237436   2.850   2.083   1.095 -1.5655 -0.1937  0.4158
 5293TIP3   OH237437   2.218   1.350   4.001 -0.1551  0.4466 -0.6146
 5293TIP3    H137438   2.263   1.323   4.081  0.9815  1.0626 -1.0234
 5293TIP3    H237439   2.264   1.429   3.973  0.4485 -0.5494 -2.6616
 5294TIP3   OH237440   1.866   4.845   3.269 -0.1902  0.5385  0.1266
 5294TIP3    H137441   1.881   4.755   3.239  1.0000  1.2969 -1.7637
 5294TIP3    H237442   1.913   4.850   3.352  0.4985 -0.3695 -0.1813
 5295TIP3   OH237443   2.228   4.255   2.502  0.7466  0.2470 -0.3688
 5295TIP3    H137444   2.188   4.180   2.546  0.5747  0.2832 -0.4609
 5295TIP3    H237445   2.236   4.226   2.411 -0.2369  0.6949 -0.6172
 5296TIP3   OH237446   1.840   1.832   0.254 -0.4667  0.3029  0.2249
 5296TIP3    H137447   1.745   1.842   0.246 -0.4361  0.2966 -0.2015
 5296TIP3    H237448   1.853   1.782   0.334 -0.7979  0.7341  0.5516
 5297TIP3   OH237449   4.338   5.355   2.247 -0.1218  0.5765  0.2966
 5297TIP3    H137450   4.255   5.397   2.222 -0.0582  0.5215 -0.0150
 5297TIP3    H237451   4.394   5.365   2.170 -0.0693  0.0213  0.2599
 5298TIP3   OH237452   1.047   0.683   1.914  0.3278  0.1330  0.6512
 5298TIP3    H137453   0.976   0.731   1.870  1.2282  0.4476 -0.5405
 5298TIP3    H237454   1.037   0.705   2.006 -0.3416  1.2205  0.3424
 5299TIP3   OH237455   4.656   4.742   8.478 -0.4265 -0.2807 -0.5280
 5299TIP3    H137456   4.714   4.708   8.410  0.0842 -1.1858  0.3324
 5299TIP3    H237457   4.571   4.752   8.435 -0.3017 -1.5609 -1.1024
 5300TIP3   OH237458   4.671   6.634   0.821  0.2066 -0.3068  0.3490
 5300TIP3    H137459   4.597   6.683   0.857  1.5621  1.6875  0.6202
 5300TIP3    H237460   4.735   6.701   0.799  1.1378 -1.8033 -1.8228
 5301TIP3   OH237461   5.313   5.433   0.901 -0.1911  0.2199  0.3015
 5301TIP3    H137462   5.290   5.510   0.952 -1.1555  1.1213 -1.3911
 5301TIP3    H237463   5.374   5.466   0.834 -2.0048 -0.0393 -1.5720
 5302TIP3   OH237464   4.718   6.662   3.866  0.4451 -0.1563 -0.3331
 5302TIP3    H137465   4.771   6.726   3.914 -0.5615  1.3731 -1.1839
 5302TIP3    H237466   4.771   6.638   3.790  0.2841  0.7050 -0.7228
 5303TIP3   OH237467   0.821   1.367   1.299  0.5884  0.1225 -0.2712
 5303TIP3    H137468   0.910   1.381   1.332  1.8004  0.7525 -3.3743
 5303TIP3    H237469   0.783   1.455   1.294 -0.6447 -0.2175  1.8843
 5304TIP3   OH237470   4.769   4.664   3.562 -1.0407  0.2024  0.1122
 5304TIP3    H137471   4.744   4.750   3.529  0.3216  0.3805 -0.5051
 5304TIP3    H237472   4.711   4.603   3.516 -2.3032  0.7950  0.8668
 5305TIP3   OH237473   6.568   6.490   3.306  0.4825  0.2885  0.3269
 5305TIP3    H137474   6.500   6.477   3.373  0.3656 -0.2452  0.1129
 5305TIP3    H237475   6.642   6.439   3.338  0.0769 -0.8250 -0.4408
 5306TIP3   OH237476   0.403   1.823   8.466  0.0352 -0.6626 -0.4510
 5306TIP3    H137477   0.360   1.908   8.470 -0.0563 -0.6053 -2.1546
 5306TIP3    H237478   0.398   1.790   8.556 -0.3306  0.9160  0.1436
 5307TIP3   OH237479   0.794   1.393   1.796  0.5551  0.3028 -0.0300
 5307TIP3    H137480   0.719   1.334   1.805  0.3050  0.4768 -0.9228
 5307TIP3    H237481   0.858   1.361   1.860 -0.9432  1.1972  2.0518
 5308TIP3   OH237482   4.183   0.781   2.625 -0.1988  0.6894  0.1860
 5308TIP3    H137483   4.118   0.757   2.691  1.3597 -0.9574  1.2158
 5308TIP3    H237484   4.260   0.808   2.675  0.6435  0.5054 -0.9581
 5309TIP3   OH237485   4.715   1.689   2.297 -0.3674  0.1403 -0.1711
 5309TIP3    H137486   4.721   1.771   2.346 -0.4590  0.4879 -0.7351
 5309TIP3    H237487   4.803   1.652   2.303 -0.0542  0.7608 -0.7312
 5310TIP3   OH237488   2.452   2.477   0.411 -0.6059 -0.4488 -0.1898
 5310TIP3    H137489   2.404   2.468   0.493 -3.7460 -0.3334 -1.8535
 5310TIP3    H237490   2.487   2.390   0.392 -0.0711 -0.5266  1.0872
 5311TIP3   OH237491   2.441   6.416   1.326  0.2638  0.6281 -0.3119
 5311TIP3    H137492   2.347   6.419   1.308 -0.4914  1.3714  3.0443
 5311TIP3    H237493   2.469   6.508   1.323  0.7653  0.4703 -0.6942
 5312TIP3   OH237494   1.878   1.830   2.633  0.2322 -0.3629 -0.1988
 5312TIP3    H137495   1.884   1.910   2.685 -0.0080 -0.5636  0.1430
 5312TIP3    H237496   1.904   1.856   2.545 -0.8219  0.3215 -0.3226
 5313TIP3   OH237497   2.547   0.439   0.553 -1.0684 -0.1640 -0.8874
 5313TIP3    H137498   2.537   0.404   0.642  0.2881  0.1206 -0.6088
 5313TIP3    H237499   2.624   0.394   0.518 -0.5504  1.0018 -1.2874
 5314TIP3   OH237500   6.613   0.636   3.962 -0.6730  0.1701 -0.0661
 5314TIP3    H137501   6.582   0.635   3.871 -2.1796  0.9518  0.3961
 5314TIP3    H237502   6.648   0.724   3.974  0.3963 -0.2297 -0.1372
 5315TIP3   OH237503   5.977   3.612   1.844 -0.0518  0.0499  0.2003
 5315TIP3    H137504   5.930   3.529   1.833 -1.7812  0.3716  3.7212
 5315TIP3    H237505   6.064   3.585   1.874 -0.4048 -0.5478  0.7255
 5316TIP3   OH237506   2.328   6.302   1.717 -0.2805  0.0417 -0.2347
 5316TIP3    H137507   2.327   6.374   1.779 -1.5466 -0.3181  0.1914
 5316TIP3    H237508   2.407   6.317   1.664  0.3677  0.8075  0.9057
 5317TIP3   OH237509   3.546   1.229   0.541  0.0485 -0.4278 -0.5497
 5317TIP3    H137510   3.562   1.266   0.454  0.8221 -1.9397 -1.0666
 5317TIP3    H237511   3.459   1.263   0.564  0.3057  0.9256 -1.3899
 5318TIP3   OH237512   5.897   0.558   0.353  0.0579  0.2485 -0.1932
 5318TIP3    H137513   5.950   0.606   0.416 -0.1783 -0.8670  0.8999
 5318TIP3    H237514   5.807   0.584   0.372 -0.0128 -0.0867 -0.0518
 5319TIP3   OH237515   0.434   6.247   0.022  0.1991  0.1222  0.2196
 5319TIP3    H137516   0.402   6.332   0.052 -2.5255 -0.1611 -1.4535
 5319TIP3    H237517   0.520   6.237   0.062 -0.7636  2.1923  3.1018
 5320TIP3   OH237518   1.594   0.660   2.618 -0.3876 -0.2867 -0.0610
 5320TIP3    H137519   1.665   0.603   2.588 -1.6554 -2.5900  1.0205
 5320TIP3    H237520   1.517   0.630   2.569 -1.6141 -1.3236  2.3199
 5321TIP3   OH237521   4.335   2.789   2.119  0.7019 -0.0490 -0.3312
 5321TIP3    H137522   4.316   2.783   2.025  0.9505 -0.8078 -0.3379
 5321TIP3    H237523   4.282   2.719   2.158 -0.9591  1.4901  0.3575
 5322TIP3   OH237524   6.164   3.287   7.929  0.3042  0.4417  0.0362
 5322TIP3    H137525   6.163   3.220   7.998 -0.9021 -0.7235 -1.0571
 5322TIP3    H237526   6.086   3.268   7.876  0.4005  2.2064 -0.8116
 5323TIP3   OH237527   2.724   3.032   2.721 -0.8598 -0.0232  0.3381
 5323TIP3    H137528   2.705   3.034   2.627  0.0647  1.0065  0.1480
 5323TIP3    H237529   2.807   3.079   2.729 -0.4532 -0.9226  1.5689
 5324TIP3   OH237530   5.603   0.247   1.346  0.3070 -0.0718  0.1576
 5324TIP3    H137531   5.602   0.308   1.420 -0.2319 -0.3331  0.3698
 5324TIP3    H237532   5.642   0.297   1.275  1.5324 -0.0492  0.8164
 5325TIP3   OH237533   4.496   3.151   0.341  0.4874  0.2172 -0.4996
 5325TIP3    H137534   4.533   3.239   0.354  0.1095  0.5082 -1.3920
 5325TIP3    H237535   4.514   3.106   0.424  0.9512  1.0357 -0.1419
 5326TIP3   OH237536   1.301   2.506   0.266 -0.2787  0.2493  0.0437
 5326TIP3    H137537   1.340   2.590   0.290 -1.2405  1.1390 -1.3571
 5326TIP3    H237538   1.262   2.474   0.347  1.5731  0.3038  0.9972
 5327TIP3   OH237539   3.767   0.108   1.202 -0.0208 -1.1059  0.1057
 5327TIP3    H137540   3.688   0.087   1.252 -0.0522 -1.9297 -0.2810
 5327TIP3    H237541   3.812   0.025   1.191  1.3273 -0.5177  1.0079
 5328TIP3   OH237542   4.880   0.648   1.157  0.0739 -0.4389  0.1706
 5328TIP3    H137543   4.822   0.617   1.087  0.8647 -0.7913 -0.3376
 5328TIP3    H237544   4.953   0.587   1.156  0.9695  0.6057  0.1181
 5329TIP3   OH237545   2.068   2.110   3.744  0.1653  0.0281  0.7420
 5329TIP3    H137546   2.106   2.172   3.807  0.2676 -0.3817  1.0858
 5329TIP3    H237547   2.108   2.026   3.766 -1.2837 -0.5138  1.3991
 5330TIP3   OH237548   1.587   5.229   8.186 -0.2603  0.6215 -0.3852
 5330TIP3    H137549   1.564   5.314   8.224 -0.5973 -0.7285  2.7457
 5330TIP3    H237550   1.682   5.228   8.184 -0.2519  1.6278 -1.9708
 5331TIP3   OH237551   5.518   2.606   3.449  0.2601  0.2360  0.0830
 5331TIP3    H137552   5.471   2.610   3.366  1.2212 -1.9280 -0.6385
 5331TIP3    H237553   5.478   2.674   3.502  0.5231  2.6697 -2.5924
 5332TIP3   OH237554   1.160   3.408   1.893  0.0980  0.0641  0.4080
 5332TIP3    H137555   1.175   3.434   1.802  1.5922  0.0596  0.6269
 5332TIP3    H237556   1.229   3.345   1.912  1.1677  1.6530  2.1807
 5333TIP3   OH237557   0.124   5.331   0.424  0.3858  0.5571  0.6151
 5333TIP3    H137558   0.155   5.378   0.347 -1.1730 -0.8553 -0.9746
 5333TIP3    H237559   0.193   5.267   0.442 -0.3140 -0.8174 -1.2687
 5334TIP3   OH237560   5.155   3.415   0.186  0.0880 -0.7086  0.5367
 5334TIP3    H137561   5.074   3.439   0.142  0.1322 -0.1463  0.7487
 5334TIP3    H237562   5.146   3.452   0.274 -0.5147 -2.8314  1.4373
 5335TIP3   OH237563   1.938   1.417   3.910 -0.6814  0.6746  0.8119
 5335TIP3    H137564   1.898   1.331   3.894 -0.3481  0.6527  0.0622
 5335TIP3    H237565   2.031   1.398   3.922 -0.3739  1.0563 -0.7414
 5336TIP3   OH237566   1.229   3.607   7.923 -0.4825  0.1560 -0.0601
 5336TIP3    H137567   1.214   3.678   7.861 -2.4288 -2.0563 -2.3235
 5336TIP3    H237568   1.191   3.530   7.882 -0.3146 -1.8508  3.1669
 5337TIP3   OH237569   1.541   2.324   8.737 -0.5525  0.0569 -0.2333
 5337TIP3    H137570   1.527   2.329   8.643  0.7803 -0.4887 -0.4813
 5337TIP3    H237571   1.558   2.415   8.764  1.8727 -0.0803 -1.0299
 5338TIP3   OH237572   3.501   6.563   1.772  0.2247  0.1471  0.1487
 5338TIP3    H137573   3.541   6.542   1.856 -3.3246 -0.3174  1.9235
 5338TIP3    H237574   3.501   6.658   1.768 -2.5566  0.3772  2.4672
 5339TIP3   OH237575   5.291   3.061   2.702  0.0911  0.0534  0.0767
 5339TIP3    H137576   5.243   3.065   2.785  0.5312 -0.1862  0.3458
 5339TIP3    H237577   5.223   3.060   2.635 -0.3857 -2.5091  0.5099
 5340TIP3   OH237578   5.447   6.151   0.211 -0.2292 -0.4787 -0.7021
 5340TIP3    H137579   5.452   6.078   0.149  0.7474 -1.0807  0.0480
 5340TIP3    H237580   5.538   6.181   0.221 -0.1886 -1.0437  1.1389
 5341TIP3   OH237581   0.501   2.068   2.662 -0.0745 -0.3576  0.0384
 5341TIP3    H137582   0.556   2.146   2.668  0.8423 -0.9815 -0.0895
 5341TIP3    H237583   0.470   2.053   2.751 -0.1483  0.0711  0.0869
 5342TIP3   OH237584   2.402   5.989   3.637  0.4824 -0.1363 -0.2317
 5342TIP3    H137585   2.454   6.060   3.599  0.6473 -0.6163 -0.9213
 5342TIP3    H237586   2.335   6.033   3.689  1.3452  0.4985  0.3776
 5343TIP3   OH237587   4.614   6.599   2.929  0.0026  0.0482  0.1010
 5343TIP3    H137588   4.663   6.679   2.949 -0.5057  0.1005  1.1646
 5343TIP3    H237589   4.659   6.530   2.978  1.3547 -0.6479 -1.9512
 5344TIP3   OH237590   0.138   2.573   8.300 -0.3799  0.2927  0.5971
 5344TIP3    H137591   0.117   2.490   8.258  1.6002 -0.2830  0.6280
 5344TIP3    H237592   0.095   2.569   8.386  0.6905 -1.2682  1.0943
 5345TIP3   OH237593   6.403   6.641   1.294 -0.0718  0.1032 -1.1851
 5345TIP3    H137594   6.444   6.652   1.209  1.8084 -0.4796 -0.4213
 5345TIP3    H237595   6.476   6.619   1.353 -1.5144 -1.1611  0.2388
 5346TIP3   OH237596   1.803   2.415   3.231 -0.3471 -0.2096  0.5384
 5346TIP3    H137597   1.777   2.493   3.279  1.0767  1.1380 -0.8123
 5346TIP3    H237598   1.807   2.442   3.140 -3.3414 -2.7795 -0.5455
 5347TIP3   OH237599   2.049   4.486   3.303  0.1496  0.0329 -0.4806
 5347TIP3    H137600   2.009   4.400   3.288 -0.4152  0.1319  0.3640
 5347TIP3    H237601   2.013   4.514   3.387  1.9380  0.1812  0.2810
 5348TIP3   OH237602   5.249   5.187   1.705  0.1636 -0.1486 -0.4992
 5348TIP3    H137603   5.204   5.104   1.690 -0.2391  0.3198 -2.0573
 5348TIP3    H237604   5.183   5.253   1.686  0.7810  0.5475 -0.2617
 5349TIP3   OH237605   4.806   6.435   1.257  1.2868  0.4138  0.4447
 5349TIP3    H137606   4.843   6.391   1.334 -2.3315 -1.0464  1.6098
 5349TIP3    H237607   4.751   6.505   1.294  1.8374  1.7072 -1.0536
 5350TIP3   OH237608   1.924   5.268   2.183 -0.2441  0.1981  0.0378
 5350TIP3    H137609   1.922   5.197   2.247 -2.6534  0.7717  0.7270
 5350TIP3    H237610   1.993   5.243   2.121 -1.3692 -3.0544 -0.1146
 5351TIP3   OH237611   5.375   2.223   2.518  0.6842  0.0485 -0.8047
 5351TIP3    H137612   5.376   2.315   2.544 -0.3167  0.2458 -1.4181
 5351TIP3    H237613   5.458   2.188   2.551  0.4373  0.8042  0.7306
 5352TIP3   OH237614   4.695   1.170   1.246 -0.0001 -0.0979 -0.3107
 5352TIP3    H137615   4.644   1.238   1.203 -1.7982 -1.5625 -0.6692
 5352TIP3    H237616   4.682   1.092   1.191 -0.2345 -1.3818  1.4449
 5353TIP3   OH237617   1.998   6.443   0.099 -0.7233  0.5451 -0.6249
 5353TIP3    H137618   2.085   6.411   0.122 -0.6252  1.3272  0.1282
 5353TIP3    H237619   1.978   6.401   0.015 -1.3781 -2.9718  1.1029
 5354TIP3   OH237620   6.748   6.093   4.076 -0.4212 -0.1550 -0.5819
 5354TIP3    H137621   6.691   6.131   4.010  0.6621 -0.6030 -1.8180
 5354TIP3    H237622   6.801   6.166   4.109 -0.8490  0.0381 -0.3203
 5355TIP3   OH237623   3.512   4.348   0.141  0.6879  0.2023 -0.0010
 5355TIP3    H137624   3.522   4.273   0.082  3.3172  1.1888 -0.9833
 5355TIP3    H237625   3.574   4.331   0.212  0.7265  1.0812  0.1845
 5356TIP3   OH237626   0.768   5.796   2.593 -0.1720 -0.0560  0.2099
 5356TIP3    H137627   0.839   5.733   2.574  1.3693  1.0600  1.8698
 5356TIP3    H237628   0.726   5.761   2.672 -2.4579 -1.4206 -1.4974
 5357TIP3   OH237629   1.260   0.179   0.731 -0.5899  0.0671 -0.7071
 5357TIP3    H137630   1.308   0.109   0.686  1.3667  0.6654  0.3255
 5357TIP3    H237631   1.256   0.250   0.666 -0.6001 -0.2050 -1.0078
 5358TIP3   OH237632   5.787   0.176   2.181 -0.4453  0.2699  0.0999
 5358TIP3    H137633   5.783   0.116   2.254  2.2293 -0.6434 -0.3827
 5358TIP3    H237634   5.756   0.125   2.106 -2.1342  0.8619  0.3556
 5359TIP3   OH237635   4.267   0.691   0.087  0.5131  0.7372  0.4824
 5359TIP3    H137636   4.217   0.730   0.016  0.1580 -1.3721 -0.4859
 5359TIP3    H237637   4.265   0.757   0.157 -2.3330  1.3396 -0.0499
 5360TIP3   OH237638   0.713   6.228   0.122 -0.8369 -0.6929 -0.5959
 5360TIP3    H137639   0.688   6.138   0.141  0.6726 -0.6246  2.2965
 5360TIP3    H237640   0.808   6.225   0.113 -0.7044  0.6477  0.0863
 5361TIP3   OH237641   4.898   3.665   0.706  0.1864 -0.0826 -0.2766
 5361TIP3    H137642   4.977   3.650   0.654  1.1813 -2.3162  1.7165
 5361TIP3    H237643   4.920   3.739   0.763  0.0816  0.5648 -1.0462
 5362TIP3   OH237644   0.430   0.879   1.465  0.0334  0.5869 -0.1399
 5362TIP3    H137645   0.353   0.907   1.415 -0.7431  0.3214  0.8700
 5362TIP3    H237646   0.426   0.931   1.545  0.2855 -0.2153  0.4058
 5363TIP3   OH237647   6.715   0.104   1.421  0.1206 -0.3591  0.0172
 5363TIP3    H137648   6.672   0.098   1.336 -1.4286  2.2596  0.4922
 5363TIP3    H237649   6.712   0.015   1.456 -0.1735 -1.2800 -2.1850
 5364TIP3   OH237650   4.824   2.954   0.170 -0.0853 -0.6997  0.3832
 5364TIP3    H137651   4.918   2.948   0.155  0.1916  3.0139 -0.2238
 5364TIP3    H237652   4.816   2.991   0.258 -1.0001 -1.4421  0.6213
 5365TIP3   OH237653   4.784   2.912   2.834 -0.2737  0.4202 -0.2900
 5365TIP3    H137654   4.795   2.977   2.903  3.2278  0.1843 -0.4355
 5365TIP3    H237655   4.717   2.852   2.868 -0.9840  2.0733  1.4115
 5366TIP3   OH237656   4.540   0.611   1.744 -0.4074 -0.2578  0.7693
 5366TIP3    H137657   4.522   0.682   1.682  0.1748 -1.0461 -0.3380
 5366TIP3    H237658   4.459   0.602   1.795 -0.4724  1.2256  0.9844
 5367TIP3   OH237659   1.224   4.189   2.643 -0.2281 -0.4731 -0.2849
 5367TIP3    H137660   1.142   4.165   2.600 -0.8879 -0.2105  0.7950
 5367TIP3    H237661   1.220   4.146   2.729  0.7422 -0.4214 -0.1954
 5368TIP3   OH237662   2.836   2.259   1.017 -0.0742  0.3813 -0.6035
 5368TIP3    H137663   2.848   2.224   0.929  2.4460  2.3293 -1.1579
 5368TIP3    H237664   2.784   2.338   1.005 -0.5708  0.1281 -0.1814
 5369TIP3   OH237665   6.612   1.160   1.076 -0.6052 -0.1294 -0.0334
 5369TIP3    H137666   6.672   1.095   1.113  0.3040  0.1977 -0.9129
 5369TIP3    H237667   6.532   1.150   1.128 -0.1249 -1.2277  0.5310
 5370TIP3   OH237668   1.603   3.210   4.071 -0.6010  0.1215  0.1947
 5370TIP3    H137669   1.637   3.291   4.032 -0.5819  1.2161  2.3456
 5370TIP3    H237670   1.509   3.212   4.052 -0.9016  1.5517  1.6538
 5371TIP3   OH237671   2.772   0.783   0.465  0.7322  0.2642 -0.1949
 5371TIP3    H137672   2.690   0.746   0.496  0.5377  0.7871 -0.0714
 5371TIP3    H237673   2.791   0.855   0.525  0.8050  0.7270 -0.7599
 5372TIP3   OH237674   1.043   0.742   2.196  0.6396  0.0194  0.1337
 5372TIP3    H137675   1.089   0.738   2.279  0.1185  2.7066  0.6669
 5372TIP3    H237676   0.968   0.799   2.214 -0.0395 -0.1540 -1.9310
 5373TIP3   OH237677   1.665   5.761   2.035  0.0551  0.1138 -0.4724
 5373TIP3    H137678   1.571   5.782   2.030 -0.1026 -0.7448 -1.5099
 5373TIP3    H237679   1.670   5.668   2.010  0.9620 -0.4737  1.6708
 5374TIP3   OH237680   2.067   1.892   8.541  0.6714  0.0352 -0.2037
 5374TIP3    H137681   1.975   1.910   8.526  0.5389 -0.6994 -0.2739
 5374TIP3    H237682   2.069   1.840   8.620  0.9123 -1.1187 -0.9517
 5375TIP3   OH237683   6.036   3.196   2.120 -0.6845 -0.5599 -0.2052
 5375TIP3    H137684   5.984   3.261   2.168 -0.9307  0.2670 -1.5462
 5375TIP3    H237685   6.077   3.144   2.189 -0.5031  0.9826  0.9171
 5376TIP3   OH237686   1.238   4.976   0.348  0.4596  0.6478 -0.6979
 5376TIP3    H137687   1.227   5.069   0.369 -0.7155  0.6056 -1.0609
 5376TIP3    H237688   1.274   4.939   0.428 -2.3145  0.8126  0.7871
 5377TIP3   OH237689   4.460   3.562   8.639  0.2112 -0.5157  0.3162
 5377TIP3    H137690   4.435   3.618   8.566  0.0852 -0.5361  0.3437
 5377TIP3    H237691   4.554   3.577   8.650 -0.1506  1.1502  1.5366
 5378TIP3   OH237692   5.394   1.016   8.301 -0.0670 -0.5371 -0.0270
 5378TIP3    H137693   5.483   0.998   8.269 -0.1918 -0.6627 -0.3063
 5378TIP3    H237694   5.341   1.023   8.221  0.0378  1.4757  0.0384
 5379TIP3   OH237695   4.058   5.955   8.746 -0.4459 -0.0999  0.3229
 5379TIP3    H137696   4.049   5.867   8.709 -0.5198  0.0028  0.0882
 5379TIP3    H237697   3.980   6.001   8.714  0.8010  0.7891 -1.6732
 5380TIP3   OH237698   6.245   5.878   2.231 -0.1607  0.5270  0.1985
 5380TIP3    H137699   6.188   5.953   2.249  1.4148  2.1702 -1.2867
 5380TIP3    H237700   6.234   5.861   2.137  1.9198  1.0667 -0.1998
 5381TIP3   OH237701   0.130   2.947   0.197 -0.3353 -0.1214 -0.1573
 5381TIP3    H137702   0.148   2.865   0.151  1.4902  0.7380 -1.0616
 5381TIP3    H237703   0.153   3.016   0.135 -0.0716  1.0805  1.2159
 5382TIP3   OH237704   4.804   0.685   8.571 -0.4215  0.4040 -0.1568
 5382TIP3    H137705   4.826   0.592   8.562  1.0284  0.7803 -0.6793
 5382TIP3    H237706   4.796   0.717   8.481  1.4571  1.2973 -0.0493
 5383TIP3   OH237707   3.981   1.357   1.391 -0.1295  0.4442  0.2100
 5383TIP3    H137708   4.061   1.410   1.396  0.5766 -0.6725  2.8164
 5383TIP3    H237709   4.010   1.268   1.411 -2.0043  0.0280  1.4066
 5384TIP3   OH237710   6.264   6.812   1.880  1.0931  0.4171  0.3529
 5384TIP3    H137711   6.271   6.750   1.807 -1.6023  1.0615 -0.5645
 5384TIP3    H237712   6.305   6.892   1.846  0.3057  0.5554 -0.3258
 5385TIP3   OH237713   0.238   0.740   8.693  0.3764  0.0374  0.2923
 5385TIP3    H137714   0.276   0.661   8.654  1.1515  0.6571 -0.2483
 5385TIP3    H237715   0.193   0.709   8.772 -0.7538 -1.1801 -0.7727
 5386TIP3   OH237716   0.766   0.286   1.639  0.1199 -0.0349 -0.0855
 5386TIP3    H137717   0.713   0.313   1.714  2.1043  0.0979  1.3582
 5386TIP3    H237718   0.764   0.362   1.580  0.3025  0.7196  0.8625
 5387TIP3   OH237719   0.261   6.085   3.104  0.3003 -0.3446  0.5134
 5387TIP3    H137720   0.225   6.108   3.189 -2.0703  1.5642 -0.8798
 5387TIP3    H237721   0.328   6.152   3.087 -0.1316  0.0514  0.3535
 5388TIP3   OH237722   5.065   6.288   0.306  0.5358 -0.0851  0.3388
 5388TIP3    H137723   5.001   6.333   0.361 -0.0726 -0.9317  0.3609
 5388TIP3    H237724   5.054   6.327   0.219 -0.9603 -1.0673  0.0281
 5389TIP3   OH237725   4.113   3.930   1.546  0.6944  0.0320  0.2362
 5389TIP3    H137726   4.184   3.926   1.610  0.3398 -1.8485  0.5587
 5389TIP3    H237727   4.081   3.840   1.540 -2.2629  0.9590  0.7792
 5390TIP3   OH237728   4.025   3.779   1.066  0.1889  0.6240 -0.6129
 5390TIP3    H137729   3.974   3.777   0.985 -0.8837 -1.4522  0.0572
 5390TIP3    H237730   4.093   3.713   1.054  0.0145  0.2905  0.1849
 5391TIP3   OH237731   0.558   5.716   7.781  0.1227  0.4231 -0.0221
 5391TIP3    H137732   0.599   5.630   7.785  0.8475  0.3667 -4.1396
 5391TIP3    H237733   0.471   5.699   7.744  0.6319  1.4579 -1.8074
 5392TIP3   OH237734   0.163   1.231   1.801 -0.1557  0.0972 -0.4951
 5392TIP3    H137735   0.165   1.136   1.792 -0.1658  0.0440  0.0342
 5392TIP3    H237736   0.215   1.248   1.879  1.0161  0.6247 -1.3508
 5393TIP3   OH237737   4.237   0.366   0.480  0.0020  0.5438  0.6828
 5393TIP3    H137738   4.167   0.418   0.440 -0.0371  0.9999  1.3310
 5393TIP3    H237739   4.196   0.326   0.556  0.4407  0.7840  1.0460
 5394TIP3   OH237740   2.612   6.525   0.019 -0.1582 -0.2646 -0.1447
 5394TIP3    H137741   2.688   6.547  -0.034  0.4246 -1.4925  0.1515
 5394TIP3    H237742   2.583   6.440  -0.014 -0.3999 -0.5696  0.8154
 5395TIP3   OH237743   3.037   0.761   0.375  0.7108  0.2915 -0.6855
 5395TIP3    H137744   2.944   0.743   0.391  0.8664 -0.1639 -0.2514
 5395TIP3    H237745   3.052   0.846   0.417  0.9504 -0.5737  1.0752
 5396TIP3   OH237746   0.347   2.424   1.694  0.2374  0.5517  0.3045
 5396TIP3    H137747   0.279   2.459   1.751 -0.9760  0.2516 -0.9253
 5396TIP3    H237748   0.386   2.501   1.652  0.2337  0.6775  0.5310
 5397TIP3   OH237749   2.118   0.502   2.509 -0.8397 -0.0489  0.4549
 5397TIP3    H137750   2.198   0.470   2.550 -1.1056 -1.9547 -0.4025
 5397TIP3    H237751   2.079   0.559   2.575 -0.7471 -2.1999  2.5266
 5398TIP3   OH237752   2.642   6.027   1.461  0.2849 -0.2006  0.1109
 5398TIP3    H137753   2.706   6.098   1.473 -0.2162  0.4039 -0.7280
 5398TIP3    H237754   2.684   5.968   1.399 -0.2467  0.5899 -1.0521
 5399TIP3   OH237755   5.152   1.030   1.420  0.4913 -0.2518  0.5058
 5399TIP3    H137756   5.058   1.014   1.427  0.6301 -1.0067  0.8171
 5399TIP3    H237757   5.160   1.123   1.398 -0.4271 -0.6893 -2.0901
 5400TIP3   OH237758   1.590   1.267   0.169 -0.2415  0.2146  0.7218
 5400TIP3    H137759   1.680   1.295   0.155  0.3245 -1.1566  1.3909
 5400TIP3    H237760   1.577   1.273   0.264 -0.0748 -1.7186  0.9076
 5401TIP3   OH237761   2.398   3.444   2.519 -0.4271 -0.7999 -0.3624
 5401TIP3    H137762   2.331   3.496   2.475 -0.1259  0.9624  1.1712
 5401TIP3    H237763   2.467   3.435   2.454 -0.6321  0.4504 -0.7813
 5402TIP3   OH237764   0.253   0.250   1.855 -0.0180 -0.0978 -0.0774
 5402TIP3    H137765   0.201   0.249   1.936 -0.0620  1.4217 -0.0676
 5402TIP3    H237766   0.201   0.303   1.794  0.1984 -0.9163 -0.9885
 5403TIP3   OH237767   5.064   1.965   1.068  0.4866 -0.2529  0.3709
 5403TIP3    H137768   5.062   1.951   1.162  1.3037  1.0155  0.5984
 5403TIP3    H237769   5.151   1.938   1.041 -0.1072 -1.6702 -0.2307
 5404TIP3   OH237770   6.761   2.248   1.678 -0.1055 -0.9560  0.7530
 5404TIP3    H137771   6.741   2.179   1.615  0.4878 -0.0798 -0.4490
 5404TIP3    H237772   6.856   2.243   1.690 -0.1724 -0.8956  1.3064
 5405TIP3   OH237773   0.546   4.460   1.625  0.6425  0.0206 -0.3824
 5405TIP3    H137774   0.563   4.549   1.594  0.1604  0.2996  0.1223
 5405TIP3    H237775   0.616   4.442   1.688  0.3241  0.3399  0.0757
 5406TIP3   OH237776   5.992   2.909   0.196 -0.0858 -0.6462  0.0992
 5406TIP3    H137777   5.922   2.926   0.258  0.5117  0.3159  0.5311
 5406TIP3    H237778   5.998   2.814   0.192 -0.7759 -0.7284  0.7756
 5407TIP3   OH237779   1.351   4.441   1.099 -0.5984  0.6800 -0.3055
 5407TIP3    H137780   1.430   4.455   1.047 -0.4116  1.1032  0.0872
 5407TIP3    H237781   1.365   4.356   1.141  0.8274  1.8611  1.8019
 5408TIP3   OH237782   4.324   3.543   8.127  0.3642 -0.0186  0.0620
 5408TIP3    H137783   4.236   3.556   8.091  0.5378 -0.5235 -0.5528
 5408TIP3    H237784   4.383   3.569   8.057  0.7160 -2.3955 -0.5788
 5409TIP3   OH237785   4.244   4.489   2.381 -0.1186  0.1600 -0.3788
 5409TIP3    H137786   4.306   4.544   2.332 -0.6926  0.1389 -1.1417
 5409TIP3    H237787   4.288   4.473   2.465  1.3685 -0.6859 -1.2678
 5410TIP3   OH237788   5.004   5.466   2.703 -0.1772  0.2789 -0.2597
 5410TIP3    H137789   5.056   5.508   2.634 -0.0643  1.6612  0.6206
 5410TIP3    H237790   5.032   5.509   2.784  1.3451 -2.8270  1.0320
 5411TIP3   OH237791   0.852   3.419   3.010  0.0036 -0.9232  0.2426
 5411TIP3    H137792   0.862   3.436   3.104  1.6854  0.4320 -0.1149
 5411TIP3    H237793   0.942   3.412   2.978 -0.4233  1.2179 -1.6671
 5412TIP3   OH237794   5.536   0.488   3.925 -0.1140 -0.4400  0.1943
 5412TIP3    H137795   5.603   0.533   3.874  0.6502 -1.4458  0.2858
 5412TIP3    H237796   5.455   0.504   3.876  0.4976 -0.8660 -1.0200
 5413TIP3   OH237797   4.931   2.663   1.733 -0.1178 -0.3017 -0.4974
 5413TIP3    H137798   5.021   2.651   1.763  0.6540 -0.1082 -2.5759
 5413TIP3    H237799   4.930   2.628   1.644 -1.9182  0.3594 -0.7872
 5414TIP3   OH237800   6.073   3.065   3.309  0.4085  0.0615  0.0383
 5414TIP3    H137801   6.034   2.989   3.354 -3.4099  1.6286 -0.2714
 5414TIP3    H237802   6.031   3.141   3.349  2.7681  1.9892 -0.9049
 5415TIP3   OH237803   4.248   1.448   1.394 -0.1819  0.1778  0.4829
 5415TIP3    H137804   4.289   1.363   1.377 -0.8272  0.2262 -1.6051
 5415TIP3    H237805   4.273   1.469   1.484 -0.7474 -2.6274  1.3924
 5416TIP3   OH237806   2.096   5.000   8.198  0.6828  0.2474  0.5643
 5416TIP3    H137807   2.139   5.052   8.130 -0.2093  0.0564 -0.1764
 5416TIP3    H237808   2.016   4.968   8.156 -0.2147  0.6421  1.9133
 5417TIP3   OH237809   4.507   4.617   2.673  0.0593 -0.5000  0.5225
 5417TIP3    H137810   4.503   4.707   2.703 -0.7607 -0.3491 -0.0227
 5417TIP3    H237811   4.583   4.580   2.718 -0.8575 -0.1681  2.4489
 5418TIP3   OH237812   0.371   1.061   8.740  0.1132  0.3216 -0.3450
 5418TIP3    H137813   0.412   1.018   8.815  0.3509  0.5460 -0.3447
 5418TIP3    H237814   0.395   1.007   8.665  0.6128  0.5832 -0.3786
 5419TIP3   OH237815   0.609   3.216   1.416  0.1222  0.4973 -0.0280
 5419TIP3    H137816   0.662   3.262   1.481 -0.9253  1.3658  0.2436
 5419TIP3    H237817   0.615   3.271   1.338  0.8805 -0.2275 -0.4992
 5420TIP3   OH237818   1.254   5.282   1.501 -0.5148 -0.4039 -0.1593
 5420TIP3    H137819   1.338   5.322   1.478 -0.6410  0.1989  0.3750
 5420TIP3    H237820   1.206   5.277   1.419 -0.1524 -0.2631 -0.3800
 5421TIP3   OH237821   2.832   3.657   0.050  0.0113  0.4803  0.2534
 5421TIP3    H137822   2.890   3.671   0.125 -0.9824  0.3175  1.0799
 5421TIP3    H237823   2.800   3.744   0.028 -0.3598  0.4265  0.5737
 5422TIP3   OH237824   3.344   5.534   0.081  0.1517 -0.7406  0.1548
 5422TIP3    H137825   3.371   5.626   0.081  0.2837 -0.7658 -1.2658
 5422TIP3    H237826   3.421   5.487   0.049 -0.7387 -1.0594 -1.6268
 5423TIP3   OH237827   2.615   5.667   2.522 -0.4847 -0.1187  0.1282
 5423TIP3    H137828   2.602   5.698   2.432  0.1606 -0.2989 -0.0360
 5423TIP3    H237829   2.616   5.572   2.514 -0.3826 -0.1332  0.3194
 5424TIP3   OH237830   3.550   3.323   8.523 -0.5370  1.0566  0.0524
 5424TIP3    H137831   3.460   3.341   8.549  0.1495  3.2544  1.1706
 5424TIP3    H237832   3.567   3.384   8.451 -0.2729 -0.1438 -0.9292
 5425TIP3   OH237833   0.616   3.050   0.848 -0.4796  0.1280  0.4404
 5425TIP3    H137834   0.568   3.049   0.765  2.0118 -1.7075 -1.1226
 5425TIP3    H237835   0.603   2.962   0.884 -2.5137  1.2424  2.7461
 5426TIP3   OH237836   4.699   5.015   2.017 -0.3960 -0.3726  0.1791
 5426TIP3    H137837   4.742   4.932   2.038 -1.4663 -0.6871  1.2569
 5426TIP3    H237838   4.679   5.054   2.102 -1.1222  0.3437 -0.3015
 5427TIP3   OH237839   3.672   0.097   3.480 -0.7359  0.0829  0.5394
 5427TIP3    H137840   3.666   0.145   3.397 -0.5120 -2.1320 -0.8600
 5427TIP3    H237841   3.752   0.131   3.521 -1.1554  1.6252  0.1416
 5428TIP3   OH237842   2.649   4.154   3.099 -0.4610  0.1792 -0.1147
 5428TIP3    H137843   2.728   4.208   3.101  0.5395 -1.0926 -2.3556
 5428TIP3    H237844   2.681   4.064   3.106 -2.1219 -0.3609  4.5615
 5429TIP3   OH237845   6.636   4.630   3.569 -0.3114  0.1293  0.3761
 5429TIP3    H137846   6.667   4.715   3.597 -2.2773  1.2075 -0.5083
 5429TIP3    H237847   6.557   4.615   3.620 -0.2402 -0.9586  0.1918
 5430TIP3   OH237848   3.684   1.897   3.664  0.9872  0.1832 -0.2951
 5430TIP3    H137849   3.676   1.916   3.757  4.6267  0.3811  0.1448
 5430TIP3    H237850   3.700   1.982   3.623 -3.4226  0.5545 -1.7403
 5431TIP3   OH237851   1.055   3.862   3.039  0.0925  0.4306 -0.0532
 5431TIP3    H137852   1.024   3.880   2.951 -1.1246  0.6425  0.4041
 5431TIP3    H237853   0.983   3.815   3.081  0.6738  0.2827  0.8151
 5432TIP3   OH237854   4.721   1.367   2.893  0.7255  0.5033 -0.3128
 5432TIP3    H137855   4.639   1.356   2.941  0.2986 -1.7397 -1.4124
 5432TIP3    H237856   4.705   1.443   2.836 -0.6182  0.0931 -0.5291
 5433TIP3   OH237857   3.163   4.205   2.133 -0.2650  0.2101 -0.1442
 5433TIP3    H137858   3.185   4.166   2.048  0.0320 -0.3295  0.1763
 5433TIP3    H237859   3.247   4.208   2.180 -0.8170 -1.7724  1.0655
 5434TIP3   OH237860   6.758   5.829   2.289  0.6823  0.1741  0.4118
 5434TIP3    H137861   6.675   5.874   2.281  0.7226  0.3149  0.7989
 5434TIP3    H237862   6.785   5.842   2.380  0.8387 -0.3718  0.4498
 5435TIP3   OH237863   5.780   6.093   2.095  0.2623 -0.1349 -0.3830
 5435TIP3    H137864   5.695   6.093   2.051 -0.1593 -0.7567  0.4012
 5435TIP3    H237865   5.836   6.038   2.040  0.7353  1.7174 -1.8946
 5436TIP3   OH237866   6.592   0.046   1.145 -0.2859 -0.3800  0.0819
 5436TIP3    H137867   6.503   0.078   1.133 -0.7910 -0.6654  2.5242
 5436TIP3    H237868   6.589  -0.045   1.116 -0.3925 -0.0007 -1.1637
 5437TIP3   OH237869   4.966   5.967   8.647 -0.3134  0.0131 -0.6419
 5437TIP3    H137870   4.905   5.999   8.581 -1.5975 -0.4532  0.2844
 5437TIP3    H237871   4.992   6.046   8.696 -0.6767  0.1299 -0.6343
 5438TIP3   OH237872   2.188   3.650   1.931  0.4023 -0.5073 -0.2468
 5438TIP3    H137873   2.209   3.719   1.868 -0.7200  0.4399  0.3927
 5438TIP3    H237874   2.172   3.572   1.877  0.6398 -0.0115 -1.0474
 5439TIP3   OH237875   3.861   2.656   8.756 -0.2584  0.3795 -0.2502
 5439TIP3    H137876   3.779   2.667   8.708  0.1954 -0.3623 -1.2315
 5439TIP3    H237877   3.865   2.562   8.776  0.8711  0.2044 -1.2004
 5440TIP3   OH237878   5.324   6.411   0.344 -0.0375 -0.3844  0.0039
 5440TIP3    H137879   5.240   6.373   0.318 -0.1801  1.0576 -1.7732
 5440TIP3    H237880   5.388   6.372   0.284 -0.1918  2.0721 -1.9002
 5441TIP3   OH237881   3.172   5.423   0.971 -0.1766 -0.0866 -0.1713
 5441TIP3    H137882   3.145   5.472   0.894  0.8548  1.1809  0.2336
 5441TIP3    H237883   3.132   5.470   1.044  1.6145  0.7882  0.2988
 5442TIP3   OH237884   1.104   5.422   1.999 -0.3782 -0.4755  0.1274
 5442TIP3    H137885   1.164   5.348   2.006  1.4889  0.8617 -0.9065
 5442TIP3    H237886   1.045   5.413   2.074  0.6528 -2.2474  0.7761
 5443TIP3   OH237887   0.267   3.969   1.726  0.2454  0.1695  0.6104
 5443TIP3    H137888   0.274   4.064   1.738 -0.4439  0.2004  0.7881
 5443TIP3    H237889   0.287   3.932   1.812  1.0943  0.1136  0.4056
 5444TIP3   OH237890   0.264   1.708   1.431  0.5984 -0.2432  0.1952
 5444TIP3    H137891   0.307   1.792   1.415 -0.2978 -0.1005 -1.8019
 5444TIP3    H237892   0.170   1.727   1.424  0.3554 -1.2649  0.4809
 5445TIP3   OH237893   1.317   2.567   0.810 -0.9009 -0.1329  0.0984
 5445TIP3    H137894   1.246   2.616   0.768 -1.8827 -2.0366 -0.5553
 5445TIP3    H237895   1.313   2.480   0.772  0.8697 -0.7369  1.1392
 5446TIP3   OH237896   1.254   4.736   2.074  0.1442 -0.0844  0.1982
 5446TIP3    H137897   1.247   4.769   1.984 -0.4376 -0.1215  0.2313
 5446TIP3    H237898   1.220   4.646   2.069 -1.9036  0.6034  0.8572
 5447TIP3   OH237899   3.677   1.440   3.386 -0.2094  0.4518  0.5350
 5447TIP3    H137900   3.735   1.461   3.459 -0.3618 -0.3388  0.8902
 5447TIP3    H237901   3.660   1.347   3.395 -1.4743  0.6571  0.3889
 5448TIP3   OH237902   3.993   2.701   1.724 -0.3715  0.6516 -0.2572
 5448TIP3    H137903   3.947   2.779   1.693  0.5982  1.0027 -0.8516
 5448TIP3    H237904   3.938   2.667   1.794 -2.3872  0.1320 -1.9948
 5449TIP3   OH237905   5.481   2.234   0.327 -0.0157  0.2575  0.5163
 5449TIP3    H137906   5.450   2.258   0.240  1.3700  0.6996  0.1149
 5449TIP3    H237907   5.497   2.317   0.371 -0.1999  0.0372  1.0050
 5450TIP3   OH237908   1.444   4.884   3.858  0.0080  0.3615 -0.1753
 5450TIP3    H137909   1.520   4.870   3.914 -0.5494  0.6766  0.6759
 5450TIP3    H237910   1.412   4.971   3.882  0.5843  1.1300 -1.9892
 5451TIP3   OH237911   6.127   4.476   3.113 -0.2965  0.2664  0.1849
 5451TIP3    H137912   6.056   4.529   3.077 -0.0287  1.4488  1.3272
 5451TIP3    H237913   6.117   4.483   3.208  0.6685 -0.4796  0.3639
 5452TIP3   OH237914   0.765   5.985   3.355 -0.5178 -0.1567 -1.0468
 5452TIP3    H137915   0.782   6.036   3.276  0.1771  1.4047  0.0595
 5452TIP3    H237916   0.850   5.978   3.398 -0.8768 -1.0476 -0.4456
 5453TIP3   OH237917   2.760   0.076   8.443  0.0253 -0.4650 -0.0885
 5453TIP3    H137918   2.763   0.149   8.381  0.1024  0.5953  1.1129
 5453TIP3    H237919   2.667   0.061   8.458 -0.1250  2.3109  2.8594
 5454TIP3   OH237920   3.204   6.013   0.333  0.1737  0.6093  0.2140
 5454TIP3    H137921   3.288   5.987   0.294  0.3609  0.6311  0.6031
 5454TIP3    H237922   3.139   5.989   0.267  0.3835 -0.4167  0.3615
 5455TIP3   OH237923   2.248   1.474   1.687 -0.0875  0.4572 -0.3335
 5455TIP3    H137924   2.289   1.408   1.631 -0.6092 -1.0453  0.9810
 5455TIP3    H237925   2.157   1.478   1.655 -0.1978  0.1227 -0.0709
 5456TIP3   OH237926   2.156   3.549   1.332  0.6670  0.2749 -0.0792
 5456TIP3    H137927   2.199   3.479   1.283 -1.1780  1.2405 -3.3705
 5456TIP3    H237928   2.071   3.559   1.291 -0.0309  2.9595  1.7464
 5457TIP3   OH237929   5.375   1.797   8.605  0.5808 -0.2640 -0.6033
 5457TIP3    H137930   5.346   1.767   8.519 -0.6193 -1.7199  0.2518
 5457TIP3    H237931   5.295   1.798   8.658  1.1929  1.1870  0.3437
 5458TIP3   OH237932   2.078   4.194   3.114 -0.2672 -0.0216  0.0588
 5458TIP3    H137933   2.146   4.238   3.064 -0.0088 -0.6973 -0.1968
 5458TIP3    H237934   2.110   4.195   3.204 -1.4245  2.5486  0.5236
 5459TIP3   OH237935   6.310   1.933   0.716 -0.3572  0.5370 -0.2367
 5459TIP3    H137936   6.286   2.012   0.668  1.4832  0.7216 -0.9185
 5459TIP3    H237937   6.405   1.930   0.712 -0.3104 -0.9409  1.0451
 5460TIP3   OH237938   1.451   0.975   3.369  0.1885  0.3549 -0.1180
 5460TIP3    H137939   1.511   0.973   3.443 -0.6315  1.4010  0.6129
 5460TIP3    H237940   1.490   1.037   3.308  0.3110  0.3441 -0.0498
 5461TIP3   OH237941   1.243   1.549   0.492  0.1994  0.4249 -0.2580
 5461TIP3    H137942   1.281   1.636   0.504  0.1778  0.5391 -0.9991
 5461TIP3    H237943   1.206   1.527   0.578  1.4935  0.5201  0.3585
 5462TIP3   OH237944   1.607   3.120   3.322 -0.8944 -0.1525 -0.6330
 5462TIP3    H137945   1.566   3.165   3.396 -0.7834 -2.5536  1.0265
 5462TIP3    H237946   1.536   3.070   3.282 -0.2821 -2.0569  0.4743
 5463TIP3   OH237947   6.403   1.019   1.232 -0.4193  0.4095 -0.2556
 5463TIP3    H137948   6.406   0.961   1.156  1.2329  0.8200 -0.5410
 5463TIP3    H237949   6.364   0.966   1.301 -1.9335  0.0204 -1.3543
 5464TIP3   OH237950   6.650   3.492   8.613  0.2916 -0.3436 -0.4091
 5464TIP3    H137951   6.642   3.421   8.549  1.5623  0.0904 -1.0805
 5464TIP3    H237952   6.736   3.531   8.595  1.1887 -0.8885  2.2502
 5465TIP3   OH237953   0.848   0.143   1.074 -0.0024  0.2136  0.2791
 5465TIP3    H137954   0.827   0.127   1.166 -1.0418 -0.4323 -0.0439
 5465TIP3    H237955   0.927   0.196   1.075 -0.2939  0.6411  1.5524
 5466TIP3   OH237956   5.793   0.919   3.449  0.1508  0.0158 -0.1474
 5466TIP3    H137957   5.749   0.877   3.523  0.7933  0.3475  0.4337
 5466TIP3    H237958   5.851   0.852   3.414 -0.8499 -0.4517 -0.9712
 5467TIP3   OH237959   1.493   0.147   3.849  0.3711  0.2188 -0.0160
 5467TIP3    H137960   1.541   0.075   3.891  0.1695  0.5991  0.9039
 5467TIP3    H237961   1.561   0.203   3.813  0.6821  1.0413  1.7596
 5468TIP3   OH237962   4.474   0.277   3.001  0.2065  0.4517 -0.2960
 5468TIP3    H137963   4.471   0.231   3.085 -0.7914 -0.3913 -0.7667
 5468TIP3    H237964   4.399   0.336   3.002  0.5184  0.8552 -0.3719
 5469TIP3   OH237965   2.414   5.702   3.532  0.1525  0.1040 -0.5113
 5469TIP3    H137966   2.498   5.697   3.486 -0.2051 -0.6216 -1.1189
 5469TIP3    H237967   2.422   5.777   3.591  2.0629 -1.2997  1.1242
 5470TIP3   OH237968   1.657   4.724   0.556  0.4963  0.0769  0.6008
 5470TIP3    H137969   1.739   4.760   0.587  0.4225  0.6244  0.1705
 5470TIP3    H237970   1.680   4.672   0.479  0.1737  2.1887 -1.0023
 5471TIP3   OH237971   6.738   1.448   2.728 -0.1387 -0.0115  0.0225
 5471TIP3    H137972   6.668   1.418   2.786  0.0097 -0.8003 -0.1879
 5471TIP3    H237973   6.702   1.523   2.682  0.2362  1.6289  2.2266
 5472TIP3   OH237974   1.295   3.733   3.113 -0.0296 -0.2459  0.8014
 5472TIP3    H137975   1.212   3.781   3.107 -0.5788 -1.2756 -0.2957
 5472TIP3    H237976   1.331   3.758   3.198 -0.4080  1.8766  0.3909
 5473TIP3   OH237977   2.481   6.765   3.362 -0.4737 -0.3341 -0.1623
 5473TIP3    H137978   2.445   6.766   3.451  0.2847 -0.6713  0.1555
 5473TIP3    H237979   2.485   6.857   3.336 -0.0170 -0.1791  0.4358
 5474TIP3   OH237980   2.181   4.962   0.788  0.0115 -0.4969 -0.0149
 5474TIP3    H137981   2.088   4.975   0.807 -0.2667 -1.8722 -0.3453
 5474TIP3    H237982   2.200   5.024   0.718 -1.1733 -1.5718 -1.3443
 5475TIP3   OH237983   2.771   1.571   0.980 -0.1757  0.2246  0.6774
 5475TIP3    H137984   2.762   1.665   0.991 -1.9237 -0.0007  1.5215
 5475TIP3    H237985   2.838   1.546   1.044  2.7944  1.2420 -1.8076
 5476TIP3   OH237986   3.780   1.482   0.354  0.3915 -0.1457 -0.3070
 5476TIP3    H137987   3.789   1.406   0.411 -0.9182  0.0025  0.1467
 5476TIP3    H237988   3.868   1.519   0.349  0.6317 -0.4115  1.2753
 5477TIP3   OH237989   5.323   2.555   0.111 -0.5597  0.3793 -0.2873
 5477TIP3    H137990   5.260   2.528   0.178  1.0017 -0.5594  0.8799
 5477TIP3    H237991   5.378   2.620   0.155  0.1702  0.1264 -0.8033
 5478TIP3   OH237992   6.752   1.508   2.433  0.6731  0.3109  0.4577
 5478TIP3    H137993   6.713   1.529   2.349 -0.0758 -1.3643  0.3424
 5478TIP3    H237994   6.703   1.560   2.497  0.3133  0.5378 -0.0018
 5479TIP3   OH237995   0.361   6.446   8.372 -0.5943  0.1337  0.9232
 5479TIP3    H137996   0.415   6.413   8.300 -1.0266 -0.2662  0.7763
 5479TIP3    H237997   0.355   6.372   8.433 -0.0448  0.5399  1.4846
 5480TIP3   OH237998   6.022   0.371   2.397  0.1399  0.0631  0.0815
 5480TIP3    H137999   5.982   0.341   2.479 -1.1269  0.1931 -0.4741
 5480TIP3    H238000   6.100   0.420   2.426 -1.5651  2.2198  1.4073
 5481TIP3   OH238001   6.370   4.678   3.052  0.3909  0.3439 -0.1111
 5481TIP3    H138002   6.327   4.635   3.126  0.9122  0.1238  0.0726
 5481TIP3    H238003   6.310   4.748   3.027  0.2713  0.5171  0.6187
 5482TIP3   OH238004   3.916   4.659   2.383 -0.7659 -0.2607 -0.1645
 5482TIP3    H138005   3.934   4.752   2.370 -0.9313 -0.3287 -0.8758
 5482TIP3    H238006   3.846   4.658   2.449  1.0638  0.0296  1.9129
 5483TIP3   OH238007   0.660   1.238   0.225 -0.9335 -0.6599 -0.2315
 5483TIP3    H138008   0.610   1.303   0.175  0.1829 -0.9190 -1.7278
 5483TIP3    H238009   0.672   1.166   0.165  0.6971 -0.8760  0.3189
 5484TIP3   OH238010   0.434   1.279   3.594  0.0553  0.0444 -0.6651
 5484TIP3    H138011   0.387   1.214   3.647 -0.0828  1.2628  0.7773
 5484TIP3    H238012   0.386   1.360   3.609 -0.1745  0.3863 -2.9684
 5485TIP3   OH238013   3.236   0.856   2.642 -0.1459 -0.1060  0.0529
 5485TIP3    H138014   3.207   0.831   2.730  1.5494 -0.9359  0.4107
 5485TIP3    H238015   3.180   0.930   2.619 -0.9483 -0.1705  1.6240
 5486TIP3   OH238016   0.632   2.132   0.906  0.4748  0.1008 -0.0457
 5486TIP3    H138017   0.631   2.038   0.924 -1.5558  0.0345 -0.2539
 5486TIP3    H238018   0.565   2.144   0.839  0.1656  1.7720  0.5182
 5487TIP3   OH238019   3.742   1.241   1.420 -0.3490  1.2251 -0.2228
 5487TIP3    H138020   3.798   1.209   1.491 -0.2131  0.1698 -0.7751
 5487TIP3    H238021   3.800   1.295   1.367  0.5278 -0.7439 -1.4108
 5488TIP3   OH238022   0.276   1.734   3.041 -0.1679  0.0545 -0.0716
 5488TIP3    H138023   0.293   1.650   3.083 -0.4838 -0.0112 -0.0711
 5488TIP3    H238024   0.276   1.797   3.114 -3.9876 -0.4661  0.6178
 5489TIP3   OH238025   1.544   1.162   2.398  0.0762 -0.5914  0.1649
 5489TIP3    H138026   1.522   1.255   2.396 -0.8073 -0.8005 -0.3075
 5489TIP3    H238027   1.604   1.154   2.472 -1.4184  0.0280  1.5295
 5490TIP3   OH238028   4.226   1.287   1.066  0.3520  0.7793  0.1886
 5490TIP3    H138029   4.300   1.346   1.050  0.5056  0.5626  0.1020
 5490TIP3    H238030   4.150   1.345   1.069  0.3787  0.8950 -0.8155
 5491TIP3   OH238031   5.929   4.329   2.772 -0.0595  0.2933  0.1448
 5491TIP3    H138032   5.837   4.322   2.796 -0.8324  2.9400 -1.5836
 5491TIP3    H238033   5.976   4.279   2.838 -2.6663 -0.3662  1.5981
 5492TIP3   OH238034   1.496   5.617   2.448 -0.0047 -0.8992  0.1668
 5492TIP3    H138035   1.509   5.603   2.541  0.3331 -1.7248  0.0062
 5492TIP3    H238036   1.435   5.690   2.442  2.3030  1.2411  1.0195
 5493TIP3   OH238037   4.715   3.192   2.519 -0.0442 -0.3486  0.0577
 5493TIP3    H138038   4.738   3.206   2.611 -1.3053  1.5694  0.1371
 5493TIP3    H238039   4.686   3.101   2.515  0.8721 -0.7249  1.3635
 5494TIP3   OH238040   3.683   4.523   3.304  0.0782 -0.4347  0.1747
 5494TIP3    H138041   3.640   4.438   3.303 -2.4028  0.7492  0.3642
 5494TIP3    H238042   3.648   4.568   3.381  1.2173  0.8455  0.0003
 5495TIP3   OH238043   4.748   0.818   2.173  0.1704 -0.3684 -0.3705
 5495TIP3    H138044   4.732   0.780   2.260  0.3057 -0.6757 -0.4810
 5495TIP3    H238045   4.722   0.750   2.112  0.0680 -0.1478 -0.5754
 5496TIP3   OH238046   0.061   0.094   3.317 -0.3920 -0.0679  0.3087
 5496TIP3    H138047   0.018   0.109   3.401 -0.1265  1.9188  0.1337
 5496TIP3    H238048   0.135   0.036   3.337  0.2157  1.1181  1.6300
 5497TIP3   OH238049   4.097   5.694   2.188 -0.4934 -0.5312  0.1624
 5497TIP3    H138050   4.016   5.643   2.187 -0.9107  0.1154  0.2541
 5497TIP3    H238051   4.117   5.709   2.096 -0.6396 -0.4477  0.1431
 5498TIP3   OH238052   3.157   0.067   3.356 -0.0946 -0.0457  0.4729
 5498TIP3    H138053   3.198   0.079   3.442  0.4911  0.2917  0.1548
 5498TIP3    H238054   3.176  -0.024   3.334  1.0183  0.2660  0.0712
 5499TIP3   OH238055   2.875   4.425   0.969  0.3356 -0.7886 -0.3734
 5499TIP3    H138056   2.923   4.455   1.046  1.9174 -0.1873 -1.5378
 5499TIP3    H238057   2.879   4.329   0.974  0.9959 -0.7470 -0.0407
 5500TIP3   OH238058   1.998   3.081   0.857 -0.4814  0.1365  0.2440
 5500TIP3    H138059   2.036   3.146   0.798 -1.1260  1.2172  0.9846
 5500TIP3    H238060   1.913   3.117   0.882 -1.1280 -1.2778  0.2160
 5501TIP3   OH238061   6.510   5.984   3.770  0.6564 -0.2229 -0.0315
 5501TIP3    H138062   6.432   5.968   3.717  1.4833  0.0530 -1.3835
 5501TIP3    H238063   6.545   5.896   3.788 -0.9742 -0.4861  2.2472
 5502TIP3   OH238064   1.903   5.914   0.624  0.2099  0.3852  0.6547
 5502TIP3    H138065   1.878   5.999   0.588  2.7988  0.8495 -0.3162
 5502TIP3    H238066   1.912   5.858   0.547 -2.8932 -1.3067  1.3686
 5503TIP3   OH238067   3.813   2.580   0.363 -0.7627  0.1672  0.3094
 5503TIP3    H138068   3.873   2.604   0.434  2.2261 -0.4691 -1.7865
 5503TIP3    H238069   3.807   2.658   0.308 -0.2799 -0.3270 -0.4771
 5504TIP3   OH238070   4.916   5.482   2.341 -0.3296 -0.1334 -0.2882
 5504TIP3    H138071   4.890   5.453   2.254  0.9529 -1.7525 -0.1814
 5504TIP3    H238072   5.008   5.507   2.332 -0.6163  1.1976  0.2778
 5505TIP3   OH238073   5.870   1.155   0.671  0.8666  0.2596 -0.5962
 5505TIP3    H138074   5.939   1.091   0.654  0.2844 -0.7955  0.8227
 5505TIP3    H238075   5.809   1.146   0.598  0.0492 -1.8848  0.2735
 5506TIP3   OH238076   6.197   4.287   0.886  0.0229 -0.5823  0.9820
 5506TIP3    H138077   6.131   4.357   0.894  0.1762 -0.6008  3.0433
 5506TIP3    H238078   6.270   4.328   0.839 -0.8174 -0.0901  0.0738
 5507TIP3   OH238079   1.930   1.572   3.636  0.0669 -0.0555 -0.2167
 5507TIP3    H138080   1.888   1.645   3.682 -1.9864 -1.3969  0.1844
 5507TIP3    H238081   1.952   1.509   3.705  4.3180  1.1702 -0.1999
 5508TIP3   OH238082   3.979   0.158   3.322  0.3129  0.0603  0.8374
 5508TIP3    H138083   4.038   0.234   3.330  0.5080 -0.1478  1.4891
 5508TIP3    H238084   3.892   0.197   3.311  0.4650  0.3781  0.7305
 5509TIP3   OH238085   6.541   2.518   8.666  0.3860 -0.3183 -0.0547
 5509TIP3    H138086   6.564   2.600   8.710  0.7696  0.7172 -2.0915
 5509TIP3    H238087   6.624   2.471   8.656  0.9221  1.0160 -2.6458
 5510TIP3   OH238088   2.405   0.852   1.869  0.3948 -0.1878 -0.2646
 5510TIP3    H138089   2.395   0.806   1.785  0.1183  0.6868 -0.7295
 5510TIP3    H238090   2.390   0.785   1.935  1.3038 -1.0627 -0.9009
 5511TIP3   OH238091   0.181   1.187   1.042  0.3825 -0.0725  0.3147
 5511TIP3    H138092   0.125   1.113   1.065 -1.0313  1.6067  2.8812
 5511TIP3    H238093   0.123   1.248   0.997  0.7999  0.5763  0.6326
 5512TIP3   OH238094   6.375   6.790   8.166 -0.1079 -0.3776  0.2696
 5512TIP3    H138095   6.373   6.733   8.088 -1.8919  0.8787 -0.6778
 5512TIP3    H238096   6.286   6.823   8.173 -0.0231 -0.5114  2.9575
 5513TIP3   OH238097   4.998   0.228   1.177 -0.3356 -0.1372  0.0931
 5513TIP3    H138098   5.020   0.166   1.107  0.8761 -0.2965  0.5941
 5513TIP3    H238099   5.015   0.314   1.138 -0.4048 -0.1919 -0.0581
 5514TIP3   OH238100   5.903   3.303   3.020  0.0519 -0.0142 -0.3894
 5514TIP3    H138101   5.829   3.242   3.015 -0.4582  0.5084  0.4835
 5514TIP3    H238102   5.959   3.267   3.088  0.6196 -0.4131 -1.0555
 5515TIP3   OH238103   6.123   0.184   2.885  0.6050 -0.2007 -0.6142
 5515TIP3    H138104   6.157   0.244   2.951  0.8011  0.4045 -1.2496
 5515TIP3    H238105   6.038   0.155   2.920  0.7243  0.0816 -0.0855
 5516TIP3   OH238106   4.013   5.476   8.398  0.0018  0.2368 -0.4706
 5516TIP3    H138107   4.054   5.394   8.427 -0.0688  0.1879 -0.5103
 5516TIP3    H238108   4.070   5.507   8.328  0.0879  0.2766 -0.3838
 5517TIP3   OH238109   5.145   0.413   2.308 -0.5890 -0.6306  0.1514
 5517TIP3    H138110   5.059   0.455   2.316 -0.5817 -0.6301  0.2206
 5517TIP3    H238111   5.185   0.424   2.394  0.6484  1.9166 -0.6505
 5518TIP3   OH238112   0.065   4.950   8.465 -0.0582  0.4398 -0.1329
 5518TIP3    H138113   0.040   4.974   8.376  1.1041 -0.2412 -0.6705
 5518TIP3    H238114   0.050   5.030   8.516  1.6559  1.6738 -1.4415
 5519TIP3   OH238115   0.278   0.673   0.452 -0.1832 -0.1660  0.2626
 5519TIP3    H138116   0.371   0.659   0.437 -0.5960 -2.0798 -0.7460
 5519TIP3    H238117   0.243   0.586   0.472 -1.9900  0.2607 -0.8076
 5520TIP3   OH238118   3.049   2.693   0.745 -0.0858 -0.2764 -0.1421
 5520TIP3    H138119   3.084   2.607   0.767  2.1344  0.4594 -0.5554
 5520TIP3    H238120   3.006   2.680   0.660 -1.4011 -1.3352  0.6527
 5521TIP3   OH238121   3.592   2.516   2.684  0.1565 -0.7203  0.5727
 5521TIP3    H138122   3.585   2.602   2.725 -1.2122 -0.0446 -0.9692
 5521TIP3    H238123   3.502   2.491   2.662  0.6071 -2.1318  0.1681
 5522TIP3   OH238124   1.557   2.213   1.402 -0.3094  0.2728 -0.4338
 5522TIP3    H138125   1.501   2.141   1.431  0.4453 -0.3555 -0.5044
 5522TIP3    H238126   1.579   2.261   1.482  1.1656 -1.0197 -0.0176
 5523TIP3   OH238127   0.063   3.057   3.702  0.8790  0.2763 -0.2153
 5523TIP3    H138128   0.076   3.070   3.609  1.3214  0.2755 -0.1574
 5523TIP3    H238129  -0.000   2.985   3.708  2.3521 -1.1268 -0.5269
 5524TIP3   OH238130   0.452   5.441   2.638 -0.2339  0.5473  1.0073
 5524TIP3    H138131   0.466   5.350   2.613 -0.0751  0.4215  1.5333
 5524TIP3    H238132   0.449   5.439   2.734  2.4883  1.4278  1.2117
 5525TIP3   OH238133   0.939   6.218   2.516  0.6418  0.2286  0.6408
 5525TIP3    H138134   0.972   6.290   2.569  0.4762 -0.0790  1.1624
 5525TIP3    H238135   0.968   6.139   2.561 -0.2986 -0.0441  0.8027
 5526TIP3   OH238136   1.421   6.507   0.198 -0.1056  0.0291  0.0260
 5526TIP3    H138137   1.337   6.553   0.194 -0.2395 -0.3104 -1.8212
 5526TIP3    H238138   1.486   6.577   0.192 -0.2874  0.1364 -0.7505
 5527TIP3   OH238139   3.034   2.820   0.087  0.5424  0.0234  0.3971
 5527TIP3    H138140   3.031   2.893   0.025 -0.7347 -0.3835 -0.0353
 5527TIP3    H238141   3.067   2.859   0.168  1.7409  0.6624 -0.3706
 5528TIP3   OH238142   6.506   6.619   1.740  0.8677 -0.0516 -0.3680
 5528TIP3    H138143   6.431   6.653   1.692 -0.9466 -2.3105  0.6321
 5528TIP3    H238144   6.579   6.623   1.678 -0.6001  0.1332 -2.1637
 5529TIP3   OH238145   1.476   5.992   8.732  0.0110  0.1005 -0.0227
 5529TIP3    H138146   1.471   5.970   8.639 -0.0406  1.1703 -0.2870
 5529TIP3    H238147   1.397   6.041   8.750  0.1234  0.0852  0.5407
 5530TIP3   OH238148   5.872   5.185   2.203 -0.5884 -0.2239 -0.3015
 5530TIP3    H138149   5.908   5.259   2.154 -1.0418  0.2021 -0.0037
 5530TIP3    H238150   5.836   5.223   2.282 -0.0492 -0.8887  0.2765
 5531TIP3   OH238151   4.773   1.021   8.362  0.0186 -0.3496 -0.4586
 5531TIP3    H138152   4.711   0.994   8.294 -1.5666  3.6958 -0.9222
 5531TIP3    H238153   4.828   1.087   8.319  0.3163  0.8290  1.6303
 5532TIP3   OH238154   3.188   0.846   2.931 -0.0203  0.1721  0.1144
 5532TIP3    H138155   3.283   0.830   2.936 -0.1637 -0.5709  0.6470
 5532TIP3    H238156   3.181   0.935   2.898  0.8432 -0.3418 -1.5859
 5533TIP3   OH238157   4.580   4.472   0.240  0.5189  0.0349  0.3285
 5533TIP3    H138158   4.504   4.477   0.182 -0.1001  0.4079  1.1338
 5533TIP3    H238159   4.550   4.418   0.314  1.7000 -1.5148 -0.2695
 5534TIP3   OH238160   1.009   3.453   8.582  0.1225  0.5108  0.2412
 5534TIP3    H138161   0.915   3.451   8.602  0.0458 -0.7035 -0.1979
 5534TIP3    H238162   1.016   3.415   8.495  1.0237  0.6548  0.2439
 5535TIP3   OH238163   0.643   0.664   3.694 -0.4703  0.5173  0.2683
 5535TIP3    H138164   0.707   0.667   3.764 -0.4512  0.1265  0.2689
 5535TIP3    H238165   0.580   0.598   3.721  0.6614 -1.1628 -1.0319
 5536TIP3   OH238166   5.244   4.821   8.724 -0.4796  0.4766 -0.5127
 5536TIP3    H138167   5.159   4.780   8.735 -0.0657 -0.2080  0.2559
 5536TIP3    H238168   5.261   4.865   8.808  0.3589 -0.2379 -0.2968
 5537TIP3   OH238169   0.236   1.119   0.271  0.0632  0.0733  0.3434
 5537TIP3    H138170   0.217   1.031   0.305  1.0520 -0.1031  0.4686
 5537TIP3    H238171   0.332   1.123   0.266  0.0060  0.8051 -0.5599
 5538TIP3   OH238172   2.860   0.266   1.439  0.1681 -0.1764  0.3975
 5538TIP3    H138173   2.793   0.282   1.373  0.2291 -0.5698  0.2394
 5538TIP3    H238174   2.866   0.171   1.445  0.2565 -0.1433  0.8737
 5539TIP3   OH238175   2.110   3.396   2.292  0.2694  0.1847 -0.2301
 5539TIP3    H138176   2.021   3.421   2.315 -0.0602 -0.8651 -0.3068
 5539TIP3    H238177   2.157   3.479   2.282 -0.4472  0.7317  0.7819
 5540TIP3   OH238178   6.382   2.644   1.261  0.2476 -0.0801 -0.3635
 5540TIP3    H138179   6.327   2.603   1.195 -1.3360  2.0566 -0.4617
 5540TIP3    H238180   6.472   2.626   1.232 -0.3323 -2.6172 -0.8426
 5541TIP3   OH238181   4.216   4.158   0.204 -0.1197  0.1035 -0.2197
 5541TIP3    H138182   4.225   4.227   0.139 -0.0524  1.1052  0.8190
 5541TIP3    H238183   4.137   4.182   0.253 -0.5402 -0.9862 -0.3299
 5542TIP3   OH238184   0.310   0.587   8.242 -0.0826 -0.2073  0.1604
 5542TIP3    H138185   0.368   0.578   8.166 -1.6112  2.4268 -1.4775
 5542TIP3    H238186   0.359   0.549   8.314  1.9754 -1.7179 -1.8854
 5543TIP3   OH238187   0.430   5.509   2.926  0.1980 -0.4946  0.6431
 5543TIP3    H138188   0.483   5.430   2.937  1.4118 -0.1716 -2.0839
 5543TIP3    H238189   0.475   5.575   2.980  1.3962 -0.7558  0.0087
 5544TIP3   OH238190   5.693   4.388   3.988 -0.6865 -0.8857  0.2489
 5544TIP3    H138191   5.739   4.447   3.929 -0.9892 -0.6951  0.1992
 5544TIP3    H238192   5.605   4.426   3.996 -0.0124  0.3352  2.5783
 5545TIP3   OH238193   4.454   3.359   2.321 -0.3369 -0.0896 -0.0342
 5545TIP3    H138194   4.456   3.329   2.412  0.6010  0.5832  0.1844
 5545TIP3    H238195   4.363   3.379   2.304 -0.4482  0.2626  0.9200
 5546TIP3   OH238196   4.140   3.503   3.064 -0.3686 -0.1143  0.2100
 5546TIP3    H138197   4.150   3.532   3.155  1.0252 -0.2486  0.1223
 5546TIP3    H238198   4.183   3.418   3.061 -2.9278 -1.4956  0.0714
 5547TIP3   OH238199   3.821   3.986   3.141  0.3909  0.1597 -0.0300
 5547TIP3    H138200   3.879   3.952   3.074 -0.9205 -0.3651 -0.9290
 5547TIP3    H238201   3.745   4.018   3.093  0.3909  1.8810  1.0154
 5548TIP3   OH238202   1.468   6.682   0.534  0.7641 -0.2073 -0.4425
 5548TIP3    H138203   1.505   6.767   0.558 -0.8944  0.4004  0.1419
 5548TIP3    H238204   1.373   6.697   0.531  0.3085 -2.2791  0.8227
 5549TIP3   OH238205   6.256   1.230   1.370 -0.0513 -0.0038  0.0762
 5549TIP3    H138206   6.286   1.274   1.291 -0.8776 -0.9999 -0.8324
 5549TIP3    H238207   6.302   1.145   1.369  2.1818  1.0391  2.2358
 5550TIP3   OH238208   1.273   6.357   2.540  0.2362  0.0455 -0.1678
 5550TIP3    H138209   1.285   6.437   2.591  0.0684  0.2960 -0.5178
 5550TIP3    H238210   1.350   6.305   2.559 -1.1275 -1.1633  2.6893
 5551TIP3   OH238211   5.377   4.096   2.182 -0.2783  0.5630 -0.1370
 5551TIP3    H138212   5.471   4.079   2.193 -0.5169 -0.8279 -0.0699
 5551TIP3    H238213   5.358   4.066   2.093 -0.6663  0.8333 -0.1464
 5552TIP3   OH238214   2.400   3.043   1.007  0.2449  0.3067  0.4536
 5552TIP3    H138215   2.410   2.960   0.960  0.2142  0.7665 -0.3814
 5552TIP3    H238216   2.450   3.030   1.088 -0.8633 -0.9987  0.9680
 5553TIP3   OH238217   5.603   2.433   2.719 -0.1723 -0.5288  0.2503
 5553TIP3    H138218   5.678   2.468   2.671  0.3985 -0.7169  0.9961
 5553TIP3    H238219   5.608   2.338   2.705  0.8673 -0.7543  1.8648
 5554TIP3   OH238220   4.985   1.448   1.300  0.5454 -0.1227 -0.1470
 5554TIP3    H138221   5.021   1.529   1.265 -0.4022  0.2377 -0.3130
 5554TIP3    H238222   5.061   1.393   1.316  1.2937  1.2073  1.0708
 5555TIP3   OH238223   1.081   1.873   2.587  0.4767 -0.0874 -0.1876
 5555TIP3    H138224   1.081   1.969   2.587 -0.3286 -0.0816 -0.1960
 5555TIP3    H238225   1.033   1.850   2.667 -0.5581 -0.4682 -0.8918
 5556TIP3   OH238226   5.136   1.993   0.476  0.4485 -0.6400  0.6734
 5556TIP3    H138227   5.226   2.008   0.507  0.1356 -0.5754  1.5613
 5556TIP3    H238228   5.146   1.978   0.382  1.1794  1.4133  0.3778
 5557TIP3   OH238229   5.771   5.543   1.313 -0.4519 -0.1781  0.5302
 5557TIP3    H138230   5.708   5.472   1.306  0.2608 -0.9155  1.3905
 5557TIP3    H238231   5.822   5.523   1.392  0.3187  0.8267  0.3129
 5558TIP3   OH238232   5.812   3.676   3.578  0.4788 -0.1361  0.1473
 5558TIP3    H138233   5.792   3.759   3.621  1.7178  1.3059 -1.8528
 5558TIP3    H238234   5.739   3.662   3.518  0.3869 -0.3348  0.3097
 5559TIP3   OH238235   1.508   4.107   1.936 -0.4202  0.3247 -0.1848
 5559TIP3    H138236   1.555   4.078   2.015 -1.1542  1.8710  0.8673
 5559TIP3    H238237   1.447   4.173   1.968 -0.5698  1.1635 -2.1090
 5560TIP3   OH238238   0.171   1.398   0.301  0.4395  0.5362  1.4209
 5560TIP3    H138239   0.155   1.304   0.291  0.5411  0.5080  1.5121
 5560TIP3    H238240   0.122   1.422   0.380 -0.1244  0.6972  1.0247
 5561TIP3   OH238241   3.863   0.653   1.973 -0.3143  0.2680  0.3512
 5561TIP3    H138242   3.798   0.636   2.042 -3.2780 -0.0063 -2.2997
 5561TIP3    H238243   3.929   0.585   1.985 -2.8035 -2.2850  0.6339
 5562TIP3   OH238244   3.547   2.562   3.654 -0.5194 -0.1650 -0.3973
 5562TIP3    H138245   3.636   2.597   3.661  0.3145 -2.0168 -1.0679
 5562TIP3    H238246   3.490   2.636   3.674  1.1105  1.7299 -2.3214
 5563TIP3   OH238247   0.900   3.518   1.621 -0.4169 -0.7994 -0.1583
 5563TIP3    H138248   0.913   3.426   1.645 -2.8199 -0.7681  1.5638
 5563TIP3    H238249   0.815   3.541   1.658  0.4087  2.3281  0.0849
 5564TIP3   OH238250   4.158   3.794   0.043 -0.3981  0.0985 -0.1008
 5564TIP3    H138251   4.123   3.815   0.129 -0.6095 -2.9422  0.6611
 5564TIP3    H238252   4.186   3.879   0.007 -2.2888  1.7380  2.0100
 5565TIP3   OH238253   3.351   1.900   4.042  0.0168  0.0691  0.1726
 5565TIP3    H138254   3.268   1.934   4.007 -2.1125 -3.5406  1.1804
 5565TIP3    H238255   3.361   1.943   4.127 -0.1249  1.4110 -0.4576
 5566TIP3   OH238256   4.301   6.223   0.147 -0.1168  0.2787 -0.8408
 5566TIP3    H138257   4.328   6.132   0.159 -0.4812  0.0860 -1.4381
 5566TIP3    H238258   4.373   6.274   0.184  1.4745 -0.1881 -3.0883
 5567TIP3   OH238259   1.189   1.182   0.085  0.0645  0.0317 -0.0902
 5567TIP3    H138260   1.107   1.169   0.038 -0.5719  0.6999  0.7920
 5567TIP3    H238261   1.257   1.160   0.021 -0.7937 -1.1419 -0.6422
 5568TIP3   OH238262   2.172   3.057   1.893  0.0003  0.1532  0.4837
 5568TIP3    H138263   2.230   3.104   1.833  2.2992 -1.7410  1.0648
 5568TIP3    H238264   2.084   3.079   1.864  1.0081  0.9245 -2.2700
 5569TIP3   OH238265   1.945   1.056   0.638 -0.0781 -0.6849 -0.8060
 5569TIP3    H138266   1.926   1.091   0.551 -1.1245  1.0237  0.0598
 5569TIP3    H238267   1.865   1.012   0.664 -0.9943  1.6521  0.5740
 5570TIP3   OH238268   2.397   6.692   2.840  0.2797  0.6183 -0.2288
 5570TIP3    H138269   2.342   6.738   2.904 -1.0723 -0.2521 -0.7134
 5570TIP3    H238270   2.418   6.609   2.881  0.3310  0.5108 -0.4692
 5571TIP3   OH238271   5.687   3.689   0.024  0.0537  0.4746  0.4027
 5571TIP3    H138272   5.607   3.661   0.069 -0.1792 -1.5677 -1.1065
 5571TIP3    H238273   5.659   3.761  -0.032 -1.0364 -0.8229 -0.8223
 5572TIP3   OH238274   6.538   5.223   1.593  0.1214 -0.2623  0.0480
 5572TIP3    H138275   6.536   5.224   1.497  0.0547  0.5870  0.0452
 5572TIP3    H238276   6.486   5.300   1.619  1.8144  0.7140  0.7151
 5573TIP3   OH238277   6.404   5.611   0.034  0.4426  0.1500  0.3007
 5573TIP3    H138278   6.422   5.626  -0.059  0.6442 -0.4263  0.2436
 5573TIP3    H238279   6.447   5.528   0.054 -0.8361 -0.4869  0.5336
 5574TIP3   OH238280   2.843   2.131   0.746 -0.2733 -0.6255  0.3324
 5574TIP3    H138281   2.928   2.110   0.706 -1.4744 -0.7721 -2.3973
 5574TIP3    H238282   2.818   2.214   0.705 -1.6446 -0.8033  0.7604
 5575TIP3   OH238283   0.379   2.985   0.370  0.0369 -0.3938  0.1742
 5575TIP3    H138284   0.294   3.002   0.328  0.7129  2.1219 -0.3082
 5575TIP3    H238285   0.441   3.038   0.321  1.6592 -1.0007  1.4914
 5576TIP3   OH238286   3.124   6.011   0.763 -0.2014 -0.2981 -0.6121
 5576TIP3    H138287   3.161   6.068   0.831 -2.0960 -0.9819  1.0845
 5576TIP3    H238288   3.076   6.070   0.705 -0.8801  0.0212  0.2572
 5577TIP3   OH238289   3.615   2.474   4.394  0.4021  0.0180  0.2438
 5577TIP3    H138290   3.701   2.501   4.362  0.6561 -0.4408  0.5216
 5577TIP3    H238291   3.553   2.516   4.335  0.8259  0.1258 -0.1332
 5578TIP3   OH238292   2.238   0.562   1.734 -0.2777  0.3976 -0.5156
 5578TIP3    H138293   2.174   0.602   1.792 -1.4605 -0.8737 -0.8682
 5578TIP3    H238294   2.185   0.509   1.674  1.0917 -0.4618 -1.0113
 5579TIP3   OH238295   3.047   5.523   3.195  0.8878 -0.2137  0.0197
 5579TIP3    H138296   3.053   5.595   3.257  0.8291  0.1944 -0.4490
 5579TIP3    H238297   3.000   5.454   3.243  1.5313 -0.1882  0.6906
 5580TIP3   OH238298   5.387   1.047   0.911 -0.3707  0.3367  0.0605
 5580TIP3    H138299   5.480   1.034   0.891 -0.0770  0.1810  1.4369
 5580TIP3    H238300   5.386   1.120   0.973 -0.8893 -1.3909  2.2015
 5581TIP3   OH238301   2.106   1.492   8.270 -0.1527 -1.0611 -0.7002
 5581TIP3    H138302   2.179   1.443   8.233  1.2694  0.4841 -0.1026
 5581TIP3    H238303   2.061   1.529   8.194  0.0962 -1.4686 -1.0503
 5582TIP3   OH238304   1.683   3.534   2.521  0.0168  0.3447 -0.4919
 5582TIP3    H138305   1.765   3.582   2.528 -0.2099  0.9314 -1.6346
 5582TIP3    H238306   1.689   3.466   2.589  1.3965  0.4285 -0.5066
 5583TIP3   OH238307   5.134   0.798   3.187  0.1012 -0.3983  0.0732
 5583TIP3    H138308   5.150   0.727   3.125 -2.3768 -0.8757 -0.0933
 5583TIP3    H238309   5.118   0.875   3.132 -0.6955 -0.5086  0.1421
 5584TIP3   OH238310   1.389   1.252   3.609  0.1339 -0.4901 -0.2478
 5584TIP3    H138311   1.456   1.319   3.599 -0.3295  0.2432  1.1901
 5584TIP3    H238312   1.436   1.169   3.605  1.1484  0.0131  0.7023
 5585TIP3   OH238313   3.074   5.651   8.461  0.5431 -0.0527  0.0815
 5585TIP3    H138314   3.018   5.668   8.537 -0.3989 -0.9576 -0.3844
 5585TIP3    H238315   3.082   5.556   8.458  1.1991  0.0139 -0.5253
 5586TIP3   OH238316   3.457   3.154   2.253  0.3309 -0.1928  0.2389
 5586TIP3    H138317   3.412   3.072   2.275 -1.4526  0.0835 -1.9915
 5586TIP3    H238318   3.549   3.130   2.250 -0.0906 -1.9856  0.2965
 5587TIP3   OH238319   5.576   4.242   1.175 -0.2335  0.0084 -0.1894
 5587TIP3    H138320   5.491   4.272   1.144 -0.0804  1.3668  0.6069
 5587TIP3    H238321   5.558   4.156   1.214 -1.1955  0.1663 -0.2554
 5588TIP3   OH238322   0.557   2.288   2.312  0.0258 -0.1400 -0.3031
 5588TIP3    H138323   0.531   2.198   2.334  0.2748  0.0313  0.7534
 5588TIP3    H238324   0.602   2.280   2.228 -1.4673 -0.7475 -1.0770
 5589TIP3   OH238325   5.489   1.694   1.695  0.2028 -0.2529  0.4310
 5589TIP3    H138326   5.509   1.626   1.632  1.4252  0.2651  0.2314
 5589TIP3    H238327   5.574   1.720   1.730 -0.4518 -0.5964  2.3756
 5590TIP3   OH238328   6.384   5.300   2.725 -0.0021  0.9156 -0.3088
 5590TIP3    H138329   6.455   5.336   2.779 -0.9959  0.4676  1.3940
 5590TIP3    H238330   6.326   5.375   2.709  0.5954  1.1810 -1.3084
 5591TIP3   OH238331   0.668   1.023   2.777 -0.3011 -0.4285 -0.1632
 5591TIP3    H138332   0.675   0.971   2.697  1.3090 -0.1581 -0.2271
 5591TIP3    H238333   0.586   0.995   2.817 -1.0214 -0.7240 -1.7937
 5592TIP3   OH238334   0.730   6.342   1.100  0.1628 -0.0692  0.7095
 5592TIP3    H138335   0.727   6.340   1.196 -2.5367 -1.4911  0.6696
 5592TIP3    H238336   0.705   6.254   1.073 -2.4459  1.1696 -1.2985
 5593TIP3   OH238337   3.207   4.318   3.941 -1.1675  0.3894 -0.4152
 5593TIP3    H138338   3.194   4.341   4.033  0.3449  1.0812 -0.3356
 5593TIP3    H238339   3.257   4.392   3.905  2.1491 -1.7846 -0.6739
 5594TIP3   OH238340   0.466   1.005   1.701 -0.1055  0.2167  0.0712
 5594TIP3    H138341   0.429   1.091   1.723 -2.9763 -0.7333 -0.5408
 5594TIP3    H238342   0.457   0.953   1.781 -1.0566 -0.3036 -0.3564
 5595TIP3   OH238343   2.020   0.024   1.049 -0.2762 -0.4961 -0.0724
 5595TIP3    H138344   2.110   0.056   1.042 -0.6017  0.1246 -1.6788
 5595TIP3    H238345   2.024  -0.042   1.119  1.3661 -0.3180  0.0420
 5596TIP3   OH238346   4.827   6.429   0.935  0.1102  0.0040  0.4626
 5596TIP3    H138347   4.752   6.386   0.978 -0.9280 -0.2374 -1.4659
 5596TIP3    H238348   4.789   6.506   0.893  0.8263 -0.3811 -0.9469
 5597TIP3   OH238349   4.488   2.871   8.687 -0.0580 -0.2042  0.4433
 5597TIP3    H138350   4.400   2.907   8.694  0.4883  1.1433  0.6816
 5597TIP3    H238351   4.495   2.812   8.762  0.0716  1.5840  1.9109
 5598TIP3   OH238352   6.657   1.500   1.745  0.6258  0.3818  0.4143
 5598TIP3    H138353   6.733   1.511   1.803 -0.3028  2.6401  1.2971
 5598TIP3    H238354   6.585   1.541   1.792 -0.7262  0.0632 -1.2868
 5599TIP3   OH238355   3.820   3.591   2.077 -0.0617  0.6198 -0.1421
 5599TIP3    H138356   3.856   3.668   2.121 -2.1695  2.3597 -1.2448
 5599TIP3    H238357   3.747   3.563   2.133 -0.4451  0.5724 -0.6542
 5600TIP3   OH238358   2.932   4.129   0.697 -0.4534 -0.0336  0.9524
 5600TIP3    H138359   2.964   4.168   0.778  1.6866  0.5510 -0.0964
 5600TIP3    H238360   2.956   4.037   0.704  0.7431  0.2243  0.5704
 5601TIP3   OH238361   1.496   0.182   1.460  0.4441  0.0100 -0.1518
 5601TIP3    H138362   1.401   0.188   1.471  0.4822 -0.2020  0.2896
 5601TIP3    H238363   1.509   0.184   1.365  0.0530  0.7706 -0.1959
 5602TIP3   OH238364   1.474   1.243   0.412  0.6279 -0.5199 -0.1339
 5602TIP3    H138365   1.387   1.203   0.404  1.2316 -1.8749 -0.1877
 5602TIP3    H238366   1.502   1.223   0.501 -0.5384  3.0121  1.1829
 5603TIP3   OH238367   4.268   5.704   8.610  0.0278 -0.0388 -0.5503
 5603TIP3    H138368   4.258   5.629   8.551 -2.7464  0.5295 -0.9105
 5603TIP3    H238369   4.225   5.677   8.691  1.4719  0.1795  0.3171
 5604TIP3   OH238370   2.910   1.050   4.102 -0.2807  0.1199  0.3306
 5604TIP3    H138371   2.872   0.970   4.137 -1.7888  0.2168 -0.9878
 5604TIP3    H238372   2.988   1.022   4.055  0.8424 -0.1991  2.2843
 5605TIP3   OH238373   5.496   6.490   8.328  0.2225 -0.5967 -0.4926
 5605TIP3    H138374   5.464   6.566   8.278 -2.3272 -0.9670  0.4518
 5605TIP3    H238375   5.571   6.459   8.278  1.2493  2.4107 -1.0188
 5606TIP3   OH238376   4.748   0.757   3.116 -0.7450 -0.4644 -0.3668
 5606TIP3    H138377   4.775   0.685   3.059  0.2082  0.3651 -0.9902
 5606TIP3    H238378   4.797   0.833   3.085 -1.0028  0.2564  0.8866
 5607TIP3   OH238379   4.822   2.354   8.545  0.6837  0.0423 -0.5576
 5607TIP3    H138380   4.777   2.438   8.530  0.2993  0.0129  0.3614
 5607TIP3    H238381   4.910   2.368   8.510 -0.0138  0.0867 -2.4236
 5608TIP3   OH238382   3.763   4.074   2.036  0.6659 -0.1884 -0.3212
 5608TIP3    H138383   3.816   4.144   1.997  1.3835 -1.4692 -1.7333
 5608TIP3    H238384   3.725   4.028   1.961  0.3695 -1.4341  0.5592
 5609TIP3   OH238385   1.018   0.463   1.763  0.3428 -0.1277  0.7137
 5609TIP3    H138386   0.931   0.499   1.748  0.0313 -1.2911 -0.4638
 5609TIP3    H238387   1.068   0.535   1.803  0.2274  2.1815 -2.8534
 5610TIP3   OH238388   5.763   1.802   0.975 -0.4273 -0.3901 -0.3069
 5610TIP3    H138389   5.821   1.726   0.973  0.8961  0.4644  2.1074
 5610TIP3    H238390   5.747   1.818   1.068  0.4579  3.0479 -0.6123
 5611TIP3   OH238391   6.031   0.001   0.984 -0.2234  0.2258 -0.3844
 5611TIP3    H138392   5.989  -0.054   1.050  0.5603  1.4143  1.1758
 5611TIP3    H238393   6.111  -0.046   0.961  2.1746  1.9713  3.3493
 5612TIP3   OH238394   5.220   5.267   2.032  0.1646 -0.2841 -0.0964
 5612TIP3    H138395   5.266   5.196   2.076 -0.1516 -0.3711  0.0958
 5612TIP3    H238396   5.289   5.321   1.995  0.4153 -0.5237  0.0206
 5613TIP3   OH238397   3.857   3.694   1.830 -0.1662  0.5196  0.4096
 5613TIP3    H138398   3.820   3.656   1.909 -2.2852  0.1958 -0.6774
 5613TIP3    H238399   3.851   3.625   1.765 -0.1427  1.3544 -0.5041
 5614TIP3   OH238400   6.007   5.544   8.266 -0.5010 -0.0030 -0.6029
 5614TIP3    H138401   5.928   5.596   8.253 -0.7874 -0.3820 -0.3706
 5614TIP3    H238402   6.014   5.489   8.188  0.0477  0.6949 -1.0603
 5615TIP3   OH238403   5.533   3.657   8.115  0.0265 -0.3667  0.1007
 5615TIP3    H138404   5.568   3.728   8.168  1.6170 -1.0058 -0.0445
 5615TIP3    H238405   5.524   3.694   8.027 -1.1827  0.2503  0.4630
 5616TIP3   OH238406   3.597   1.579   0.705 -0.0002 -0.2445  0.0649
 5616TIP3    H138407   3.576   1.520   0.777 -1.3474 -0.1894 -0.2491
 5616TIP3    H238408   3.685   1.554   0.677 -0.4484 -1.9419  0.0966
 5617TIP3   OH238409   4.408   4.194   0.876 -0.0207 -0.1087  0.3982
 5617TIP3    H138410   4.369   4.195   0.963 -1.2241 -0.0624 -0.1105
 5617TIP3    H238411   4.403   4.285   0.846  0.3473 -0.1318  0.2605
 5618TIP3   OH238412   3.882   3.485   0.946  0.2275  0.1822 -0.2948
 5618TIP3    H138413   3.791   3.466   0.969  0.2321  1.0769  0.5163
 5618TIP3    H238414   3.876   3.563   0.890  0.5037  0.2793 -0.1853
 5619TIP3   OH238415   3.056   6.554   8.741  0.1451 -0.3562 -0.2119
 5619TIP3    H138416   3.051   6.474   8.793  0.2720  0.6162  1.3633
 5619TIP3    H238417   3.148   6.560   8.714  0.9518  0.8948  2.4749
 5620TIP3   OH238418   3.818   1.513   2.267  0.0899 -0.3230  0.2010
 5620TIP3    H138419   3.868   1.576   2.319  1.3631 -0.0345 -1.3104
 5620TIP3    H238420   3.775   1.458   2.332  1.0343  0.4810  1.5641
 5621TIP3   OH238421   0.184   0.331   1.401  0.2552 -0.3001  0.1804
 5621TIP3    H138422   0.230   0.297   1.324 -0.7485 -1.8595  0.2349
 5621TIP3    H238423   0.251   0.381   1.448  1.0592  0.1358 -1.3362
 5622TIP3   OH238424   5.447   1.487   3.673 -0.5569 -0.0758  0.1937
 5622TIP3    H138425   5.363   1.522   3.704 -1.2461 -0.1322 -1.5042
 5622TIP3    H238426   5.476   1.429   3.743 -1.8833  0.0484  0.8709
 5623TIP3   OH238427   3.153   4.304   2.751  0.2149  0.0728 -0.5513
 5623TIP3    H138428   3.138   4.210   2.765  1.5903  0.1746  2.1221
 5623TIP3    H238429   3.137   4.317   2.657 -0.0830 -2.8027 -0.9788
 5624TIP3   OH238430   6.323   6.182   2.957 -0.0164 -0.0947 -0.2979
 5624TIP3    H138431   6.350   6.249   2.894  1.2387  1.3650  1.6921
 5624TIP3    H238432   6.402   6.132   2.975 -0.1933 -0.0727  0.5815
 5625TIP3   OH238433   4.116   0.286   2.570 -0.1544 -0.4542 -1.1234
 5625TIP3    H138434   4.179   0.358   2.568 -0.1244 -0.3424  1.3143
 5625TIP3    H238435   4.166   0.212   2.605 -1.0644 -0.7058 -0.3242
 5626TIP3   OH238436   2.504   1.280   0.423 -0.1178  0.4723 -0.2119
 5626TIP3    H138437   2.536   1.242   0.341  2.4917  1.7157  0.1227
 5626TIP3    H238438   2.509   1.374   0.410  0.9006  0.7113  1.5177
 5627TIP3   OH238439   3.616   4.899   3.093 -0.0400 -0.0233 -0.0018
 5627TIP3    H138440   3.653   4.980   3.056 -3.4636  2.6950  1.9009
 5627TIP3    H238441   3.579   4.854   3.017  2.6906 -0.4050 -1.2330
 5628TIP3   OH238442   1.683   2.762   1.457  0.0406 -0.1924  0.0340
 5628TIP3    H138443   1.614   2.829   1.458 -0.0282 -0.2633 -0.0459
 5628TIP3    H238444   1.637   2.679   1.457  0.0822 -0.2620 -2.0571
 5629TIP3   OH238445   6.731   6.295   1.843  0.2868 -0.3854  0.4942
 5629TIP3    H138446   6.797   6.226   1.831 -1.6818 -2.1703 -0.6609
 5629TIP3    H238447   6.665   6.255   1.899 -1.6839 -0.0942 -1.4958
 5630TIP3   OH238448   4.254   2.830   7.904 -0.0361  0.2140 -0.4482
 5630TIP3    H138449   4.298   2.752   7.874 -0.1209  0.3582 -0.9570
 5630TIP3    H238450   4.302   2.903   7.864 -1.2469  0.3442 -1.7355
 5631TIP3   OH238451   4.268   0.029   3.096 -0.1010 -0.0274  0.3197
 5631TIP3    H138452   4.338   0.016   3.032  0.6478  1.1812  0.8599
 5631TIP3    H238453   4.207   0.089   3.053 -0.0610  0.0657  0.3929
 5632TIP3   OH238454   0.320   5.768   1.566  1.2179  0.2641  0.1382
 5632TIP3    H138455   0.371   5.689   1.551  0.5177  0.0469 -1.2436
 5632TIP3    H238456   0.299   5.765   1.660  3.4242  0.2154  0.6937
 5633TIP3   OH238457   4.144   5.908   8.236 -0.3775  0.2562 -0.2382
 5633TIP3    H138458   4.109   5.939   8.153  0.1429 -0.3763 -0.7015
 5633TIP3    H238459   4.070   5.863   8.278 -0.6319  0.5472 -0.3708
 5634TIP3   OH238460   2.086   5.713   1.299  0.0407 -0.5677  0.1696
 5634TIP3    H138461   2.131   5.736   1.218 -0.6564 -1.0165 -0.3567
 5634TIP3    H238462   2.152   5.725   1.367  0.1938  1.3462 -0.2523
 5635TIP3   OH238463   5.606   6.140   8.533 -0.6367 -0.1846  0.0099
 5635TIP3    H138464   5.643   6.154   8.445 -0.7559  0.8436  0.1201
 5635TIP3    H238465   5.517   6.108   8.516 -1.4759  2.1546 -0.2729
 5636TIP3   OH238466   4.499   0.606   2.215 -0.4191 -0.3766  0.0644
 5636TIP3    H138467   4.571   0.636   2.271  0.0417 -0.6532 -0.3695
 5636TIP3    H238468   4.423   0.603   2.273  0.0123 -0.4729  0.6326
 5637TIP3   OH238469   0.575   2.638   8.497 -0.2444  0.1349  0.4849
 5637TIP3    H138470   0.562   2.544   8.508  1.2271 -0.0652  0.7052
 5637TIP3    H238471   0.614   2.666   8.580  0.9113  0.6167 -0.2074
 5638TIP3   OH238472   2.853   6.476   3.153 -0.1325  0.1578 -0.4825
 5638TIP3    H138473   2.931   6.531   3.152 -1.1379  1.6512 -0.8222
 5638TIP3    H238474   2.842   6.450   3.061 -0.3724  0.4647 -0.5421
 5639TIP3   OH238475   6.731   5.941   8.383  0.3769 -0.2331  0.0284
 5639TIP3    H138476   6.720   5.943   8.478  0.9598 -1.4504  0.1498
 5639TIP3    H238477   6.781   5.861   8.367  1.1121  0.4494 -1.2306
 5640TIP3   OH238478   1.818   2.448   6.160  0.3672 -0.1800 -0.3603
 5640TIP3    H138479   1.742   2.450   6.102 -0.6687 -0.1367  0.9479
 5640TIP3    H238480   1.781   2.446   6.248  1.8087  2.7911  0.4644
 5641TIP3   OH238481   5.469   1.926   2.688 -0.9350 -0.4470 -0.8037
 5641TIP3    H138482   5.521   1.999   2.654  0.7371 -1.3101 -0.2116
 5641TIP3    H238483   5.515   1.848   2.657 -0.6142 -1.2447  1.5396
 5642TIP3   OH238484   6.303   3.221   8.351  0.1903 -0.3422  0.1937
 5642TIP3    H138485   6.246   3.296   8.368  0.5514  0.0718 -0.3707
 5642TIP3    H238486   6.367   3.222   8.422  1.6983  1.3717 -1.1048
 5643TIP3   OH238487   3.303   4.294   3.306 -0.0145  0.6007 -0.3080
 5643TIP3    H138488   3.263   4.338   3.381  0.3383 -1.0246  0.8761
 5643TIP3    H238489   3.397   4.306   3.319  0.0195  1.3576 -1.1707
 5644TIP3   OH238490   0.744   4.079   3.861  0.6049  0.1982 -0.4829
 5644TIP3    H138491   0.671   4.035   3.905 -0.2322  2.0848  0.0950
 5644TIP3    H238492   0.822   4.052   3.911 -0.0624  0.5067  0.7580
 5645TIP3   OH238493   6.429   0.251   7.819  0.4389 -0.5429 -0.5551
 5645TIP3    H138494   6.355   0.308   7.799  0.5806 -0.7319 -1.7206
 5645TIP3    H238495   6.401   0.165   7.788  0.7070 -0.8553  0.0559
 5646TIP3   OH238496   6.299   0.226   2.080  0.5996 -0.2957 -0.5922
 5646TIP3    H138497   6.353   0.153   2.050  2.2459  1.5228 -2.3390
 5646TIP3    H238498   6.360   0.300   2.086 -0.9009  0.8662  1.5849
 5647TIP3   OH238499   5.839   5.632   2.885  0.3177 -0.2424 -0.0959
 5647TIP3    H138500   5.766   5.603   2.941  0.0792  1.2474  0.4069
 5647TIP3    H238501   5.905   5.664   2.947  1.1270 -0.9281 -0.5820
 5648TIP3   OH238502   5.909   2.762   1.518  0.2348 -0.7115 -0.1533
 5648TIP3    H138503   5.994   2.806   1.510 -0.0934 -0.2194 -1.0678
 5648TIP3    H238504   5.863   2.811   1.587 -0.0462  0.2831 -1.0141
 5649TIP3   OH238505   0.038   3.317   1.558 -0.2692 -0.0641  0.4038
 5649TIP3    H138506  -0.030   3.369   1.516  0.1981  1.1784  1.1424
 5649TIP3    H238507   0.030   3.231   1.517 -0.4655  0.8056 -1.5103
 5650TIP3   OH238508   2.803   0.705   8.717 -0.4417  0.0024  0.0206
 5650TIP3    H138509   2.822   0.761   8.792  1.0064 -0.0548 -0.2814
 5650TIP3    H238510   2.772   0.766   8.650 -0.7306  0.1860  0.3151
 5651TIP3   OH238511   0.710   1.209   3.656  0.0332 -0.5164  0.3521
 5651TIP3    H138512   0.630   1.252   3.623  0.6781  0.1689 -0.3558
 5651TIP3    H238513   0.682   1.120   3.677 -0.8988 -0.3211  0.0184
 5652TIP3   OH238514   4.358   6.629   1.007 -0.6539 -0.1321 -0.2338
 5652TIP3    H138515   4.361   6.590   0.920  0.3456 -0.3542 -0.1105
 5652TIP3    H238516   4.374   6.557   1.067 -2.0865 -0.1165  0.1905
 5653TIP3   OH238517   3.371   4.510   3.035 -0.1575  0.0214 -0.4953
 5653TIP3    H138518   3.337   4.538   3.120  0.9942  0.4260 -0.1488
 5653TIP3    H238519   3.294   4.475   2.989 -0.5202 -1.7571  1.3047
 5654TIP3   OH238520   0.902   3.670   4.300 -0.0765  0.5940  0.4799
 5654TIP3    H138521   0.841   3.617   4.249  2.0233 -0.4123 -1.1316
 5654TIP3    H238522   0.972   3.610   4.325  1.5432  2.1723  0.0245
 5655TIP3   OH238523   0.334   3.889   1.986 -0.6239 -0.1702 -0.0759
 5655TIP3    H138524   0.406   3.948   2.005 -1.6238  1.1647 -0.2791
 5655TIP3    H238525   0.349   3.813   2.042  0.5510  0.3779  0.3787
 5656TIP3   OH238526   0.112   2.164   4.098 -0.2489  0.9143  0.7800
 5656TIP3    H138527   0.027   2.207   4.085  1.0379  3.2009 -0.5841
 5656TIP3    H238528   0.090   2.084   4.147 -3.0534  1.8910  1.3281
 5657TIP3   OH238529   3.510   2.272   8.104  0.1782 -0.4887  0.2913
 5657TIP3    H138530   3.581   2.317   8.150 -1.1174 -0.1868  2.1176
 5657TIP3    H238531   3.502   2.319   8.021  2.2476 -0.7098 -0.0894
 5658TIP3   OH238532   0.985   2.348   8.020 -0.1956  0.2209  0.3033
 5658TIP3    H138533   0.988   2.422   7.959  1.0760 -2.2040 -2.7920
 5658TIP3    H238534   0.893   2.340   8.043 -0.4017  2.5540  0.5516
 5659TIP3   OH238535   2.200   2.736   1.476  0.1942 -0.5654 -0.1641
 5659TIP3    H138536   2.114   2.708   1.445  0.4212  0.2288 -1.5936
 5659TIP3    H238537   2.240   2.656   1.511 -0.4768 -1.2955 -1.0213
 5660TIP3   OH238538   2.097   0.266   3.099  0.2730  0.1667 -0.3694
 5660TIP3    H138539   2.114   0.360   3.092  0.7052  0.0156 -1.4935
 5660TIP3    H238540   2.011   0.260   3.141 -0.1680  1.0899 -1.1122
 5661TIP3   OH238541   1.595   4.334   3.490  0.7840  0.4654  0.2509
 5661TIP3    H138542   1.516   4.385   3.477 -0.9351 -2.1664 -0.5386
 5661TIP3    H238543   1.584   4.292   3.575  1.4587  0.3049  0.2709
 5662TIP3   OH238544   3.107   6.589   3.066 -0.1851 -0.0061  0.8771
 5662TIP3    H138545   3.158   6.628   3.137 -0.0843  0.7432  0.4014
 5662TIP3    H238546   3.173   6.555   3.005 -0.1596  2.2602 -0.4715
 5663TIP3   OH238547   4.918   1.348   3.568 -0.0137  0.3011  0.2046
 5663TIP3    H138548   4.903   1.337   3.474  0.5289  1.4680 -0.0350
 5663TIP3    H238549   4.836   1.383   3.602 -0.0821  0.2424  0.0982
 5664TIP3   OH238550   4.029   3.506   2.802  0.1196  0.4871 -0.5652
 5664TIP3    H138551   3.944   3.531   2.836  0.7771  0.3747  1.2288
 5664TIP3    H238552   4.091   3.525   2.873  1.0349 -3.8287  0.0834
 5665TIP3   OH238553   1.196   1.712   1.319 -0.3729 -0.0435 -0.2724
 5665TIP3    H138554   1.111   1.728   1.277 -0.6464 -1.1847 -0.1782
 5665TIP3    H238555   1.259   1.751   1.259 -0.8797 -0.2697 -0.9729
 5666TIP3   OH238556   5.227   4.198   1.747 -0.5911  0.2311 -0.1784
 5666TIP3    H138557   5.238   4.119   1.799  0.5631  0.1405 -0.5133
 5666TIP3    H238558   5.133   4.210   1.740 -0.7705  0.1020  1.6786
 5667TIP3   OH238559   3.523   2.284   0.733 -0.0909  0.4311 -0.0869
 5667TIP3    H138560   3.617   2.304   0.741 -0.1097  0.9786 -1.1317
 5667TIP3    H238561   3.513   2.243   0.648 -0.5763 -1.1508  0.6954
 5668TIP3   OH238562   6.210   0.805   8.411  0.3968 -0.3274  0.1942
 5668TIP3    H138563   6.196   0.721   8.453  1.4569 -0.6932 -0.1543
 5668TIP3    H238564   6.267   0.786   8.337  1.8777  0.8917  0.9564
 5669TIP3   OH238565   0.487   0.718   0.759  0.0395 -0.0108  0.2293
 5669TIP3    H138566   0.552   0.757   0.701  0.3608  0.1959  0.7256
 5669TIP3    H238567   0.488   0.625   0.737 -0.8910  0.2694 -1.1154
 5670TIP3   OH238568   5.276   4.363   0.084 -0.2611  0.0509 -0.4154
 5670TIP3    H138569   5.240   4.395   0.001 -0.7743 -0.9931 -0.6238
 5670TIP3    H238570   5.236   4.276   0.095 -0.0621  0.0973  0.8373
 5671TIP3   OH238571   4.457   4.035   0.602  0.3747  0.0134 -0.2552
 5671TIP3    H138572   4.504   4.016   0.521  1.0209 -1.8713  0.5178
 5671TIP3    H238573   4.525   4.046   0.668 -0.1479  1.4669  0.0820
 5672TIP3   OH238574   5.797   4.924   2.204  0.4986 -0.1692  0.1737
 5672TIP3    H138575   5.803   4.897   2.112  1.9298  0.2022  0.1275
 5672TIP3    H238576   5.836   5.011   2.206  0.9771 -0.3876  1.2142
 5673TIP3   OH238577   1.125   2.787   0.259  0.5362 -0.1273  0.0209
 5673TIP3    H138578   1.105   2.874   0.293  0.1107  0.0143 -0.5626
 5673TIP3    H238579   1.142   2.802   0.166  1.9574 -0.4585  0.2082
 5674TIP3   OH238580   2.978   4.552   8.200  0.2492 -0.1522 -0.0379
 5674TIP3    H138581   2.950   4.463   8.179 -1.4023  0.3955 -0.2798
 5674TIP3    H238582   2.905   4.589   8.249  0.8808  1.1085 -0.0084
 5675TIP3   OH238583   4.708   0.295   1.847 -0.1762 -0.4549 -0.6644
 5675TIP3    H138584   4.688   0.379   1.889 -0.8909 -1.1266  0.3932
 5675TIP3    H238585   4.802   0.284   1.858 -0.0507  0.2716 -0.9493
 5676TIP3   OH238586   1.721   3.989   3.176  0.0142  0.0137  0.6593
 5676TIP3    H138587   1.655   4.012   3.242 -0.7411 -1.3101  0.3996
 5676TIP3    H238588   1.763   4.073   3.155 -1.6783  0.9375  0.7152
 5677TIP3   OH238589   3.840   5.940   2.222  0.4232 -0.6721  0.4743
 5677TIP3    H138590   3.792   6.016   2.255  0.8298  0.0078 -0.4748
 5677TIP3    H238591   3.772   5.874   2.209  0.0404 -0.4321  1.1380
 5678TIP3   OH238592   5.784   3.167   1.532 -0.3200  0.0008 -0.1484
 5678TIP3    H138593   5.873   3.174   1.499 -0.2760 -2.3862 -0.7625
 5678TIP3    H238594   5.728   3.186   1.456 -0.3621  1.2355  0.1712
 5679TIP3   OH238595   0.948   4.278   0.091  0.4358  0.1690  0.0118
 5679TIP3    H138596   0.990   4.253   0.008  1.2579  1.6750 -0.0597
 5679TIP3    H238597   0.860   4.240   0.085  1.3270 -1.9844 -0.3950
 5680TIP3   OH238598   3.712   3.762   3.257 -0.0289  0.0430  0.0943
 5680TIP3    H138599   3.750   3.839   3.215  0.4447 -0.1716  0.1212
 5680TIP3    H238600   3.776   3.693   3.243 -0.7355 -0.5120 -0.4736
 5681TIP3   OH238601   4.725   0.019   2.967 -0.0720  0.0118 -0.5509
 5681TIP3    H138602   4.813  -0.004   2.997 -0.2029 -0.4931 -0.5424
 5681TIP3    H238603   4.704   0.100   3.013  0.0698 -0.3008  0.0739
 5682TIP3   OH238604   1.903   4.777   1.029  0.1021  0.0668  0.5801
 5682TIP3    H138605   1.979   4.736   0.987  0.1886  0.0642  0.7386
 5682TIP3    H238606   1.893   4.861   0.984 -2.4019 -1.6435 -2.4452
 5683TIP3   OH238607   4.619   5.943   2.430 -0.1068  0.0180  0.3651
 5683TIP3    H138608   4.707   5.978   2.414  0.2305 -0.3647  1.3295
 5683TIP3    H238609   4.572   5.959   2.349  0.7687  0.4993 -0.0602
 5684TIP3   OH238610   4.147   3.421   0.565 -0.0518  0.4347 -0.2722
 5684TIP3    H138611   4.139   3.326   0.555  0.8066  0.4253 -0.9333
 5684TIP3    H238612   4.217   3.446   0.505  1.1577  1.2121  1.3740
 5685TIP3   OH238613   2.746   1.801   2.088 -0.0022  0.3729  0.2577
 5685TIP3    H138614   2.812   1.839   2.146  0.3102 -0.8757  0.7595
 5685TIP3    H238615   2.785   1.807   2.000  0.8034 -0.3495  0.5484
 5686TIP3   OH238616   3.361   3.923   2.584  0.2051  0.5572  0.0440
 5686TIP3    H138617   3.412   3.888   2.657 -1.1066 -0.5180  0.5041
 5686TIP3    H238618   3.271   3.894   2.603  0.0109 -0.9764 -2.6939
 5687TIP3   OH238619   2.205   4.280   2.231 -0.2977 -0.4522 -0.2189
 5687TIP3    H138620   2.127   4.331   2.210 -0.7552 -0.9824  0.1360
 5687TIP3    H238621   2.277   4.326   2.188 -0.5826  0.8689  0.6584
 5688TIP3   OH238622   0.223   4.313   2.282  0.3998 -0.0062  0.2431
 5688TIP3    H138623   0.229   4.254   2.207 -0.9255  0.4379 -0.2529
 5688TIP3    H238624   0.205   4.256   2.356 -0.7708 -0.2734 -0.2176
 5689TIP3   OH238625   0.382   3.760   1.184  0.0935  0.0341  0.7099
 5689TIP3    H138626   0.291   3.778   1.206 -0.5246 -0.7574 -0.9782
 5689TIP3    H238627   0.396   3.669   1.212  0.3626  0.1451  0.9426
 5690TIP3   OH238628   2.410   6.131   0.406  0.1083 -0.0556  0.1554
 5690TIP3    H138629   2.361   6.178   0.338  0.8813  0.4851 -0.0400
 5690TIP3    H238630   2.497   6.171   0.405  0.1536 -0.0870  1.4273
 5691TIP3   OH238631   5.006   0.904   2.358 -0.0764  0.1290  0.4491
 5691TIP3    H138632   4.963   0.930   2.277 -0.2840  0.8576  0.7860
 5691TIP3    H238633   4.961   0.824   2.385  0.8201 -0.8425 -0.7936
 5692TIP3   OH238634   6.798   4.697   2.645 -0.1040  0.3547 -0.2077
 5692TIP3    H138635   6.782   4.792   2.650  0.1012  0.4178 -0.6875
 5692TIP3    H238636   6.844   4.677   2.726 -0.4524  0.6023  0.0590
 5693TIP3   OH238637   6.493   5.372   0.075 -0.1566  0.5889 -0.4065
 5693TIP3    H138638   6.524   5.324   0.152 -0.2754 -0.0109 -0.7231
 5693TIP3    H238639   6.407   5.334   0.057 -0.3731  1.1197 -0.4973
 5694TIP3   OH238640   4.496   3.426   2.930  0.0775  0.1149 -0.1766
 5694TIP3    H138641   4.418   3.380   2.960 -1.4677  1.3883 -1.9752
 5694TIP3    H238642   4.467   3.517   2.918  2.2500  0.9720  0.4917
 5695TIP3   OH238643   1.667   5.017   1.763 -0.4091  0.1491 -0.1086
 5695TIP3    H138644   1.639   4.926   1.762 -1.0939  0.3359 -1.5265
 5695TIP3    H238645   1.699   5.033   1.674 -0.8453  1.4428 -0.0604
 5696TIP3   OH238646   0.170   5.134   1.243  0.4946 -0.5550  0.2521
 5696TIP3    H138647   0.223   5.063   1.279  1.6504 -0.1271 -0.5409
 5696TIP3    H238648   0.126   5.095   1.167  0.2074 -0.7204  0.4988
 5697TIP3   OH238649   5.230   4.927   7.732 -0.5536 -0.5012 -0.0243
 5697TIP3    H138650   5.304   4.891   7.683 -0.8100  0.6459 -1.3126
 5697TIP3    H238651   5.267   4.998   7.783 -0.5855 -0.6393  0.1955
 5698TIP3   OH238652   3.414   1.443   0.931 -0.3051 -0.7062  0.1718
 5698TIP3    H138653   3.332   1.491   0.918  0.3287  0.5807  0.6448
 5698TIP3    H238654   3.388   1.351   0.938 -1.5454 -0.4734 -1.0586
 5699TIP3   OH238655   5.744   1.876   1.230 -0.2460  0.4674  0.1609
 5699TIP3    H138656   5.777   1.865   1.319 -0.0869  0.1550  0.0652
 5699TIP3    H238657   5.650   1.858   1.237 -0.0323 -0.8144  0.0511
 5700TIP3   OH238658   5.075   6.565   8.571 -0.2958 -0.0234  0.0793
 5700TIP3    H138659   5.061   6.536   8.661 -2.1550 -0.3408 -0.2633
 5700TIP3    H238660   4.987   6.569   8.533  0.3694  0.9185 -1.4833
 5701TIP3   OH238661   1.422   1.534   0.933  0.4560 -0.1703  0.0628
 5701TIP3    H138662   1.450   1.621   0.903 -0.6969  0.5291  0.9380
 5701TIP3    H238663   1.404   1.486   0.853  0.0689  0.7607 -0.4250
 5702TIP3   OH238664   0.173   5.752   2.165  0.4416 -0.2251 -0.7551
 5702TIP3    H138665   0.190   5.846   2.162  0.6979 -0.2676 -0.6621
 5702TIP3    H238666   0.089   5.744   2.210  0.1418 -0.0092 -1.2698
 5703TIP3   OH238667   3.627   6.734   2.916 -0.3339  0.0750  0.3674
 5703TIP3    H138668   3.662   6.821   2.936 -0.0544  0.0411  0.0347
 5703TIP3    H238669   3.574   6.712   2.992 -0.4445  0.5586  0.4359
 5704TIP3   OH238670   6.736   4.124   2.204 -0.0761  0.6036  0.1601
 5704TIP3    H138671   6.812   4.108   2.148 -0.2695 -0.3532  0.1513
 5704TIP3    H238672   6.753   4.209   2.243  1.4859  0.0064  0.8874
 5705TIP3   OH238673   5.982   1.923   0.767 -0.4654 -0.0501 -0.1121
 5705TIP3    H138674   5.938   1.978   0.832  0.5857 -0.5412  1.0523
 5705TIP3    H238675   6.071   1.911   0.801  0.1414 -0.2984 -1.6640
 5706TIP3   OH238676   3.307   6.016   1.795 -0.5323  0.7049 -0.1647
 5706TIP3    H138677   3.361   6.012   1.874 -0.1413 -0.2153 -0.4612
 5706TIP3    H238678   3.342   5.947   1.739  0.1885  2.3149 -1.8017
 5707TIP3   OH238679   3.184   1.381   8.510 -0.9188 -0.8830  0.4312
 5707TIP3    H138680   3.269   1.426   8.510 -1.0452 -0.4821  3.2485
 5707TIP3    H238681   3.168   1.361   8.418  2.4142 -1.3417 -0.1807
 5708TIP3   OH238682   6.038   1.989   0.516  0.1233 -0.0917  0.2115
 5708TIP3    H138683   5.959   1.999   0.462  0.7245 -0.3384 -0.7464
 5708TIP3    H238684   6.006   1.987   0.606 -0.9128  0.3279 -0.1352
 5709TIP3   OH238685   0.467   3.376   3.387  0.8734 -0.5711  0.0742
 5709TIP3    H138686   0.382   3.386   3.429  0.6737 -0.8535 -0.2599
 5709TIP3    H238687   0.509   3.461   3.396 -0.1036  0.0822 -1.2027
 5710TIP3   OH238688   0.357   2.167   8.720  0.0738  0.4403 -0.5215
 5710TIP3    H138689   0.324   2.112   8.791  2.0394 -0.9852 -0.6182
 5710TIP3    H238690   0.413   2.231   8.764  1.3685 -0.5022 -0.7098
 5711TIP3   OH238691   3.906   2.446   8.529  0.1972 -0.1851 -0.3542
 5711TIP3    H138692   3.831   2.405   8.572  0.3704  0.6417  0.7793
 5711TIP3    H238693   3.877   2.536   8.512  0.9824  0.2020  0.2838
 5712TIP3   OH238694   0.926   2.952   2.386  0.2679  0.0108  0.3203
 5712TIP3    H138695   0.834   2.947   2.362  0.2174 -0.5224  0.6092
 5712TIP3    H238696   0.973   2.931   2.306  0.1327  0.0873  0.2211
 5713TIP3   OH238697   5.955   2.497   1.740  0.2667 -0.3042  0.2151
 5713TIP3    H138698   5.863   2.502   1.767 -0.0749 -3.2647 -0.0509
 5713TIP3    H238699   5.975   2.403   1.742  2.6681  0.0668 -1.7526
 5714TIP3   OH238700   2.938   5.009   0.602 -0.1270 -0.3861 -0.5513
 5714TIP3    H138701   3.018   4.969   0.567  1.4973 -0.5377  2.9034
 5714TIP3    H238702   2.886   4.935   0.633 -0.1259 -0.1355  0.0519
 5715TIP3   OH238703   0.636   3.548   0.362 -0.0735 -0.5891  0.0758
 5715TIP3    H138704   0.611   3.617   0.301 -0.0393 -0.5698  0.0832
 5715TIP3    H238705   0.553   3.514   0.396 -0.1608 -1.4725 -0.9501
 5716TIP3   OH238706   3.140   1.096   1.133  0.3976  0.3107  0.2751
 5716TIP3    H138707   3.165   1.008   1.160  2.5912  0.4237 -1.1789
 5716TIP3    H238708   3.133   1.145   1.215  0.6312 -0.8351  1.0019
 5717TIP3   OH238709   3.239   4.881   2.465  0.6147  0.3139  0.4467
 5717TIP3    H138710   3.242   4.944   2.393  1.5087  0.3159  0.4768
 5717TIP3    H238711   3.320   4.831   2.457  1.2951  1.0586  2.0987
 5718TIP3   OH238712   0.263   2.918   8.252  0.0490  0.3690 -0.1799
 5718TIP3    H138713   0.222   2.905   8.167 -2.0570  1.0668  0.6789
 5718TIP3    H238714   0.221   2.996   8.287 -2.1105 -2.0696  3.2003
 5719TIP3   OH238715   0.043   2.741   2.689 -0.5501  0.3811  0.0702
 5719TIP3    H138716  -0.022   2.731   2.758  1.3480 -1.3027  1.7731
 5719TIP3    H238717  -0.001   2.712   2.609 -1.9323 -0.5492  1.1325
 5720TIP3   OH238718   3.026   1.883   1.302 -0.2236 -0.8024  0.0199
 5720TIP3    H138719   3.041   1.947   1.372 -1.5789 -2.1624  1.6639
 5720TIP3    H238720   2.959   1.923   1.247 -2.2080 -1.3137  1.9003
 5721TIP3   OH238721   5.571   4.777   2.551 -0.7276  0.0317  0.4619
 5721TIP3    H138722   5.658   4.797   2.583 -0.9080 -0.3522  1.2058
 5721TIP3    H238723   5.568   4.816   2.464  0.5836 -0.9755 -0.0556
 5722TIP3   OH238724   4.637   2.719   2.926  0.0706  0.7148 -0.0932
 5722TIP3    H138725   4.675   2.671   3.000  2.1725  2.0578 -0.2060
 5722TIP3    H238726   4.544   2.726   2.948  0.4870  0.4241  2.0516
 5723TIP3   OH238727   6.431   4.477   1.128 -0.1832 -0.0336  0.1464
 5723TIP3    H138728   6.453   4.539   1.059 -0.8178  1.2627  1.0583
 5723TIP3    H238729   6.338   4.492   1.144  0.0523  0.0612  1.6016
 5724TIP3   OH238730   2.688   0.417   2.359  0.5449 -0.4006  0.3486
 5724TIP3    H138731   2.710   0.498   2.405  1.7767 -0.2539 -0.4805
 5724TIP3    H238732   2.767   0.364   2.363  0.3437 -0.8045 -0.7321
 5725TIP3   OH238733   1.043   5.973   2.583  0.0781 -0.0932  0.2055
 5725TIP3    H138734   1.131   5.988   2.617 -0.7293  3.0808  1.1831
 5725TIP3    H238735   1.054   5.968   2.488  1.4217 -1.1633  0.3906
 5726TIP3   OH238736   1.215   0.260   8.099 -0.5986  0.6259  0.2342
 5726TIP3    H138737   1.274   0.242   8.172  0.9558  0.0273 -1.1199
 5726TIP3    H238738   1.146   0.315   8.138 -0.8123 -1.0935  2.5348
 5727TIP3   OH238739   5.208   4.104   0.811 -0.2096 -0.5086 -0.2176
 5727TIP3    H138740   5.279   4.069   0.865 -0.4079  0.2820  0.5701
 5727TIP3    H238741   5.252   4.153   0.742  0.1394 -3.1828 -2.0773
 5728TIP3   OH238742   0.174   6.618   3.204  0.0379 -0.8179  0.4010
 5728TIP3    H138743   0.212   6.660   3.281  0.4309  1.0011 -0.7021
 5728TIP3    H238744   0.080   6.615   3.222  0.1722 -0.8061  1.1275
 5729TIP3   OH238745   0.308   3.941   2.333 -0.0432 -0.3571  0.5063
 5729TIP3    H138746   0.296   4.028   2.370  0.2088 -0.8933  1.9295
 5729TIP3    H238747   0.222   3.900   2.339 -0.2286 -0.1330 -0.4202
 5730TIP3   OH238748   5.024   6.263   2.282  0.7304  0.0374  0.5682
 5730TIP3    H138749   4.990   6.350   2.304  0.8456  0.6543 -1.5119
 5730TIP3    H238750   5.119   6.272   2.287  0.8116  0.5375 -1.2348
 5731TIP3   OH238751   4.239   0.122   8.677  0.2038 -0.1501  0.0109
 5731TIP3    H138752   4.184   0.097   8.751  0.4235  1.9100  0.9451
 5731TIP3    H238753   4.180   0.168   8.617  0.6377  1.0688  0.4860
 5732TIP3   OH238754   6.588   6.265   0.638 -0.1622  0.2514  0.1158
 5732TIP3    H138755   6.675   6.275   0.600  0.0272  0.1241  0.5190
 5732TIP3    H238756   6.603   6.247   0.730 -0.5557 -1.2316 -0.0797
 5733TIP3   OH238757   6.599   5.490   1.976  0.4169  0.0819  0.0347
 5733TIP3    H138758   6.633   5.459   1.893  2.6020  0.3337  0.7799
 5733TIP3    H238759   6.633   5.428   2.041  0.0944  0.7940  0.9094
 5734TIP3   OH238760   2.595   2.531   0.734 -0.1800  0.3641  0.5234
 5734TIP3    H138761   2.519   2.482   0.703  0.6137  0.2478 -1.3781
 5734TIP3    H238762   2.611   2.596   0.665  1.0730  0.7749  1.1755
 5735TIP3   OH238763   2.400   4.086   8.597 -0.0925  0.6449  0.1619
 5735TIP3    H138764   2.392   4.062   8.690  0.5968  1.3863  0.4276
 5735TIP3    H238765   2.474   4.036   8.566 -0.6928 -0.0610 -0.1584
 5736TIP3   OH238766   0.450   0.987   8.293  0.2843  0.3375  0.0321
 5736TIP3    H138767   0.506   1.015   8.220 -0.4302  3.5491  0.5563
 5736TIP3    H238768   0.364   0.975   8.253  0.0541  1.3920  0.1756
 5737TIP3   OH238769   2.345   3.096   3.751  0.0000 -0.2818  0.5358
 5737TIP3    H138770   2.428   3.056   3.728  0.4738  1.6187 -1.4520
 5737TIP3    H238771   2.369   3.179   3.793 -0.7882  0.8140 -1.0418
 5738TIP3   OH238772   2.071   6.736   2.043  0.1477  0.1503  0.2195
 5738TIP3    H138773   2.130   6.756   2.115  0.0036  0.1619  0.3361
 5738TIP3    H238774   1.990   6.782   2.065  0.2900  0.6328 -0.2396
 5739TIP3   OH238775   2.156   3.061   2.963 -0.0646 -0.6039 -0.6833
 5739TIP3    H138776   2.097   3.117   2.912  0.0578 -1.0307 -1.3029
 5739TIP3    H238777   2.097   3.005   3.014 -0.2320  1.4129  1.5189
 5740TIP3   OH238778   0.344   4.023   0.608 -0.2820  0.1871  0.2063
 5740TIP3    H138779   0.338   4.098   0.549 -0.9576  2.3760  2.8057
 5740TIP3    H238780   0.432   3.988   0.594  0.5631  2.3256 -0.2445
 5741TIP3   OH238781   2.692   4.597   2.874 -0.2285  0.1695  0.0797
 5741TIP3    H138782   2.671   4.683   2.840 -0.2890  0.5074  0.9354
 5741TIP3    H238783   2.753   4.613   2.946 -1.1696 -0.3855  1.0383
 5742TIP3   OH238784   2.334   2.017   8.351 -0.1459  0.0565 -0.3405
 5742TIP3    H138785   2.395   2.032   8.279  0.1801 -0.4901 -0.1784
 5742TIP3    H238786   2.348   1.926   8.376 -0.7041  0.0622  0.0010
 5743TIP3   OH238787   2.436   5.550   2.867 -0.2135 -0.5944  0.8312
 5743TIP3    H138788   2.525   5.559   2.834 -1.2881  0.0716 -2.2516
 5743TIP3    H238789   2.430   5.460   2.897  1.2754 -0.8816  0.3380
 5744TIP3   OH238790   6.089   4.787   0.843 -0.2363  0.3171  0.4002
 5744TIP3    H138791   6.084   4.879   0.868 -0.6949  0.5987 -0.6585
 5744TIP3    H238792   6.102   4.740   0.926  0.1269  1.3328  0.9364
 5745TIP3   OH238793   3.553   5.947   0.508  0.5911  0.5381  0.1612
 5745TIP3    H138794   3.511   6.001   0.575 -1.0556  0.8516 -1.0498
 5745TIP3    H238795   3.562   5.861   0.549 -1.0177  0.5368  0.5891
 5746TIP3   OH238796   2.277   4.874   8.376  0.6717 -0.0628 -0.6543
 5746TIP3    H138797   2.284   4.797   8.320 -1.2378 -1.0565  0.3550
 5746TIP3    H238798   2.194   4.915   8.351 -0.5900 -0.9115  1.7487
 5747TIP3   OH238799   0.024   3.300   2.374  0.1651  0.0835 -0.5495
 5747TIP3    H138800  -0.002   3.303   2.282  1.9323 -2.2153 -1.2135
 5747TIP3    H238801   0.064   3.214   2.386  1.3932  0.8743  1.9954
 5748TIP3   OH238802   1.711   1.395   8.344 -0.1640 -0.3603  0.1240
 5748TIP3    H138803   1.686   1.454   8.415  2.9731  2.2268 -0.6629
 5748TIP3    H238804   1.628   1.366   8.306 -1.8943  0.0193  3.3134
 5749TIP3   OH238805   3.067   4.279   1.776  0.1910 -0.1126 -0.0019
 5749TIP3    H138806   3.003   4.283   1.705 -0.6303  2.6665  0.7467
 5749TIP3    H238807   3.022   4.234   1.848 -0.2442  0.1244 -0.1229
 5750TIP3   OH238808   4.484   3.077   1.064  0.2224  0.0291 -0.0984
 5750TIP3    H138809   4.434   3.073   0.983  0.5472 -0.3124 -0.2863
 5750TIP3    H238810   4.530   3.161   1.060  1.5467 -0.6934 -1.0643
 5751TIP3   OH238811   1.266   4.665   1.235  0.8746 -0.1392 -0.0842
 5751TIP3    H138812   1.322   4.723   1.184  2.1737 -1.6039 -0.3913
 5751TIP3    H238813   1.275   4.579   1.193 -1.3575 -0.5103  0.0587
 5752TIP3   OH238814   5.224   1.749   1.871  0.0946 -0.2908 -0.8620
 5752TIP3    H138815   5.292   1.733   1.807  0.0499  0.1253 -1.0158
 5752TIP3    H238816   5.242   1.837   1.904 -0.0314 -0.4017 -0.4881
 5753TIP3   OH238817   5.503   0.616   2.792  0.3109  0.4292 -0.1135
 5753TIP3    H138818   5.465   0.542   2.839 -0.4342  1.2918  0.6678
 5753TIP3    H238819   5.513   0.585   2.702  0.5154 -0.7951  0.3182
 5754TIP3   OH238820   0.505   0.768   1.068 -0.1707  0.0445  0.4080
 5754TIP3    H138821   0.418   0.802   1.088 -0.2300  0.1630 -0.0442
 5754TIP3    H238822   0.500   0.741   0.976  0.3363  0.2597  0.3153
 5755TIP3   OH238823   5.705   6.695   8.428 -0.1650 -0.0194  0.0171
 5755TIP3    H138824   5.767   6.671   8.496  1.0141  1.7174 -0.3816
 5755TIP3    H238825   5.746   6.668   8.346 -0.1277  0.7086 -0.2144
 5756TIP3   OH238826   2.561   2.002   2.437 -0.0072 -0.0337 -0.4302
 5756TIP3    H138827   2.523   1.914   2.439 -1.6662  0.6503  0.5594
 5756TIP3    H238828   2.627   2.001   2.507  1.9929 -1.2628 -2.2208
 5757TIP3   OH238829   2.445   1.763   2.756 -0.1660 -0.2374  0.3892
 5757TIP3    H138830   2.366   1.710   2.752  0.6338 -1.4198 -0.1495
 5757TIP3    H238831   2.501   1.731   2.685  0.4027  1.2474  0.1075
 5758TIP3   OH238832   0.673   3.339   2.177  0.0437  0.6880  0.1007
 5758TIP3    H138833   0.613   3.311   2.246  0.0194  0.8906  0.1640
 5758TIP3    H238834   0.737   3.269   2.170 -0.9641 -0.1797 -0.8950
 5759TIP3   OH238835   3.536   5.842   3.217  0.0900 -0.1467 -0.2005
 5759TIP3    H138836   3.556   5.925   3.259 -0.4585  0.5084 -1.1776
 5759TIP3    H238837   3.489   5.792   3.283 -0.4322  0.7053  0.0889
 5760TIP3   OH238838   4.272   3.451   0.317  0.2630  0.1278 -0.5856
 5760TIP3    H138839   4.208   3.390   0.281 -0.3549  0.3812  0.0647
 5760TIP3    H238840   4.343   3.452   0.253  0.2545 -1.2234 -0.6369
 5761TIP3   OH238841   5.481   5.572   8.677 -0.1135  0.0053  0.5055
 5761TIP3    H138842   5.402   5.518   8.673 -0.3826  0.3185  1.3287
 5761TIP3    H238843   5.449   5.662   8.678  0.3355  0.1954 -0.8652
 5762TIP3   OH238844   0.480   6.529   2.978  0.7198  0.1449  0.7271
 5762TIP3    H138845   0.482   6.623   2.960  2.1449 -0.1340 -0.7303
 5762TIP3    H238846   0.552   6.492   2.927  0.0442 -1.7887  1.0610
 5763TIP3   OH238847   3.166   3.480   0.403 -0.6618 -0.7624 -0.0372
 5763TIP3    H138848   3.082   3.517   0.429 -0.6280 -0.4928 -0.3014
 5763TIP3    H238849   3.231   3.541   0.440 -0.4953 -1.9767  1.8074
 5764TIP3   OH238850   3.165   6.178   3.693  0.0401  0.2454  0.6079
 5764TIP3    H138851   3.158   6.084   3.680 -1.1713  0.4633 -0.5884
 5764TIP3    H238852   3.106   6.197   3.766  1.7487 -0.1220  2.1703
 5765TIP3   OH238853   1.524   2.022   0.385 -0.0009 -0.0589 -0.4950
 5765TIP3    H138854   1.588   2.070   0.333 -1.3801  1.4975 -0.8474
 5765TIP3    H238855   1.441   2.039   0.342 -0.9351 -0.2569  1.1632
 5766TIP3   OH238856   4.521   0.860   3.218 -0.6018 -0.2370 -0.2272
 5766TIP3    H138857   4.602   0.854   3.167 -1.1019 -0.1791 -1.0416
 5766TIP3    H238858   4.536   0.804   3.294  0.3672  0.1183 -0.1369
 5767TIP3   OH238859   3.417   2.435   0.056 -0.2989 -0.0757  0.3678
 5767TIP3    H138860   3.450   2.463   0.141 -0.8540 -1.0575  0.9310
 5767TIP3    H238861   3.332   2.479   0.048  0.1031  0.6318 -0.0355
 5768TIP3   OH238862   1.440   2.372   1.754  0.2795 -0.5787  0.0448
 5768TIP3    H138863   1.354   2.365   1.795 -0.2292 -0.6218 -0.9839
 5768TIP3    H238864   1.491   2.301   1.792  0.2449  0.1744  1.5356
 5769TIP3   OH238865   3.644   3.378   2.964  0.3694  0.9098  0.7324
 5769TIP3    H138866   3.676   3.295   2.999  2.3543  0.8958 -0.9909
 5769TIP3    H238867   3.593   3.353   2.887  0.1123  1.2598  0.7874
 5770TIP3   OH238868   4.220   4.905   0.930  1.0709 -0.2933 -0.1147
 5770TIP3    H138869   4.256   4.851   1.000  1.2505  0.0555  0.0640
 5770TIP3    H238870   4.291   4.965   0.906 -0.0841  2.0442  1.9128
 5771TIP3   OH238871   5.896   6.100   2.612 -0.3242 -0.1269  0.0292
 5771TIP3    H138872   5.916   6.010   2.584 -0.0541  0.0964 -0.5147
 5771TIP3    H238873   5.808   6.117   2.577 -0.4459 -0.2371  0.2793
 5772TIP3   OH238874   2.991   5.196   0.149 -0.3166 -0.0438 -0.7404
 5772TIP3    H138875   2.960   5.106   0.139  2.8193 -1.2201 -1.1518
 5772TIP3    H238876   3.086   5.189   0.145  0.2589  2.8990  2.4801
 5773TIP3   OH238877   0.163   4.212   1.694  0.4039 -0.1580  0.5539
 5773TIP3    H138878   0.087   4.171   1.654  0.4285  0.8219 -0.5638
 5773TIP3    H238879   0.134   4.301   1.714  0.3494 -0.6492  2.9146
 5774TIP3   OH238880   2.446   4.885   8.653  0.2352 -0.0647 -0.0813
 5774TIP3    H138881   2.529   4.855   8.616  0.2143 -0.2246  0.0011
 5774TIP3    H238882   2.382   4.820   8.623  0.2865 -0.4270  0.5873
 5775TIP3   OH238883   4.645   4.027   1.204 -0.3999  0.4370 -0.6496
 5775TIP3    H138884   4.610   4.062   1.286  0.4968 -0.0447 -0.0381
 5775TIP3    H238885   4.676   4.104   1.156  0.8945  0.5884  0.3618
 5776TIP3   OH238886   5.759   2.593   3.621  0.2513  1.2148 -0.3440
 5776TIP3    H138887   5.672   2.559   3.597 -0.7053  1.3858  2.4222
 5776TIP3    H238888   5.752   2.687   3.609  0.2305  1.1808 -0.6056
 5777TIP3   OH238889   4.873   3.377   1.166  0.4241  0.2205 -0.9773
 5777TIP3    H138890   4.862   3.438   1.093 -1.1718 -0.2543 -1.1806
 5777TIP3    H238891   4.924   3.425   1.231 -0.9396  1.8579 -1.0521
 5778TIP3   OH238892   5.306   5.531   3.855 -0.3160  0.1953  0.5040
 5778TIP3    H138893   5.267   5.448   3.828  1.6948 -0.4748 -0.5526
 5778TIP3    H238894   5.232   5.587   3.877 -1.7967 -1.2392 -0.6616
 5779TIP3   OH238895   2.748   4.167   0.296 -0.4582 -0.1003 -0.3507
 5779TIP3    H138896   2.816   4.186   0.361 -0.0608  1.8459 -1.2680
 5779TIP3    H238897   2.686   4.240   0.304 -1.0132 -0.4423 -1.3600
 5780TIP3   OH238898   3.581   0.388   0.281 -0.2697 -0.0834 -0.4042
 5780TIP3    H138899   3.486   0.398   0.288 -0.2092  0.7172 -0.7032
 5780TIP3    H238900   3.617   0.469   0.316  0.3989 -1.2073  1.7558
 5781TIP3   OH238901   3.515   0.133   0.409 -0.3881 -0.2098 -0.3113
 5781TIP3    H138902   3.435   0.184   0.397 -0.2445 -0.1933 -1.3165
 5781TIP3    H238903   3.551   0.163   0.492 -1.5702 -0.4149  0.2874
 5782TIP3   OH238904   2.634   4.364   2.011 -0.2120 -0.5346 -0.3003
 5782TIP3    H138905   2.544   4.360   1.977 -0.7490  0.1576  0.9949
 5782TIP3    H238906   2.671   4.443   1.971 -0.3885 -0.4752 -0.3464
 5783TIP3   OH238907   5.537   2.472   0.438  0.0219  0.4348  0.3527
 5783TIP3    H138908   5.561   2.457   0.529  1.2248  2.6197  0.4737
 5783TIP3    H238909   5.590   2.548   0.412 -0.9818  0.4403 -1.8817
 5784TIP3   OH238910   3.110   0.637   0.767  0.0676 -0.0664  0.5969
 5784TIP3    H138911   3.070   0.724   0.760  0.8417  0.2228 -0.5758
 5784TIP3    H238912   3.174   0.646   0.838 -0.0630  0.2328  0.6784
 5785TIP3   OH238913   1.107   5.435   1.280  0.1812 -0.1968  0.1261
 5785TIP3    H138914   1.099   5.491   1.357  1.1737  0.1093  0.0239
 5785TIP3    H238915   1.075   5.489   1.207  1.0516  0.2193  0.0414
 5786TIP3   OH238916   6.396   1.002   7.865 -0.1575 -0.0509 -0.2305
 5786TIP3    H138917   6.397   1.075   7.927  0.7919 -0.6780  0.5374
 5786TIP3    H238918   6.314   0.956   7.884  0.3245 -0.4842  0.8903
 5787TIP3   OH238919   5.152   4.567   8.323 -0.2254  0.0241  0.1840
 5787TIP3    H138920   5.210   4.573   8.247 -1.6719  1.6734 -0.8683
 5787TIP3    H238921   5.100   4.489   8.306 -0.0554 -0.0221 -0.1504
 5788TIP3   OH238922   2.542   3.023   3.459  0.2298  0.4244 -0.7791
 5788TIP3    H138923   2.610   3.080   3.496  0.4621  0.0600 -0.6365
 5788TIP3    H238924   2.514   2.968   3.532 -0.2687  0.6143 -0.8226
 5789TIP3   OH238925   4.015   4.059   2.269 -0.1784 -0.4403  0.0922
 5789TIP3    H138926   4.065   4.070   2.351 -0.5236 -0.6563  0.3338
 5789TIP3    H238927   3.982   3.969   2.273  0.0395 -0.5461 -0.4209
 5790TIP3   OH238928   1.027   2.708   2.089 -0.1328  0.2061  0.2013
 5790TIP3    H138929   1.120   2.713   2.068 -0.2974  2.7124 -0.2772
 5790TIP3    H238930   1.022   2.643   2.159  2.0449  0.4333  0.6546
 5791TIP3   OH238931   5.385   2.954   1.098 -0.1374  0.0031 -0.0694
 5791TIP3    H138932   5.387   3.002   1.181 -0.5583  1.5683 -0.9209
 5791TIP3    H238933   5.302   2.906   1.100  0.6245 -1.3606  1.1107
 5792TIP3   OH238934   0.446   3.468   2.418 -0.7562  0.0465 -0.0535
 5792TIP3    H138935   0.393   3.521   2.358 -0.5202  1.8983  1.2812
 5792TIP3    H238936   0.382   3.416   2.467 -1.2547  1.1196  0.4746
 5793TIP3   OH238937   5.653   5.438   8.385 -0.1552  0.1306  0.0669
 5793TIP3    H138938   5.563   5.445   8.352 -0.1726 -1.0119 -0.1736
 5793TIP3    H238939   5.683   5.353   8.354  0.7510  0.1713  0.8002
 5794TIP3   OH238940   0.154   2.574   1.209 -0.0742  1.1693  0.1545
 5794TIP3    H138941   0.132   2.522   1.286  1.5412 -0.5797 -0.4931
 5794TIP3    H238942   0.071   2.582   1.161 -0.3336 -1.1307  0.1114
 5795TIP3   OH238943   0.521   4.774   0.888 -0.3601  0.5429  0.2330
 5795TIP3    H138944   0.440   4.803   0.929  0.5282  0.2866  2.2852
 5795TIP3    H238945   0.580   4.850   0.893 -0.6436  0.9517 -1.8574
 5796TIP3   OH238946   6.639   5.865   8.687  0.0227 -0.0363  0.1762
 5796TIP3    H138947   6.691   5.819   8.753  1.0121  0.3982 -0.2938
 5796TIP3    H238948   6.550   5.863   8.722 -0.0759 -2.6782 -0.0114
 5797TIP3   OH238949   4.395   4.823   8.345 -0.2272  0.1584  0.3606
 5797TIP3    H138950   4.449   4.902   8.341  0.8688 -0.6155 -0.9971
 5797TIP3    H238951   4.334   4.832   8.271  1.0093 -1.0085 -0.8353
 5798TIP3   OH238952   5.724   6.647   1.583 -0.2892  0.1749 -0.1351
 5798TIP3    H138953   5.796   6.588   1.560  0.3162  0.7670  0.2014
 5798TIP3    H238954   5.761   6.735   1.572 -1.2963  0.5119 -1.0139
 5799TIP3   OH238955   5.434   6.424   3.591  0.3167  0.4588  0.2472
 5799TIP3    H138956   5.360   6.371   3.621  0.9050  0.6560  2.1328
 5799TIP3    H238957   5.504   6.407   3.654  1.6996  0.7783 -1.1270
 5800TIP3   OH238958   0.689   2.739   8.722 -0.5825  0.8911  0.4895
 5800TIP3    H138959   0.673   2.704   8.810  1.0984 -1.6890 -0.1167
 5800TIP3    H238960   0.658   2.829   8.726  1.3566  1.6114  4.4228
 5801TIP3   OH238961   3.911   6.064   2.668  0.2578  0.2426  0.3967
 5801TIP3    H138962   3.914   6.160   2.660 -0.7782  0.6371  3.5106
 5801TIP3    H238963   3.818   6.042   2.662  0.4068 -0.4715  0.6331
 5802TIP3   OH238964   2.102   5.603   2.236  0.0321  0.3321 -0.1565
 5802TIP3    H138965   2.146   5.618   2.153 -1.6011  3.3716 -0.6011
 5802TIP3    H238966   2.038   5.674   2.243 -2.0476 -1.5791  2.2764
 5803TIP3   OH238967   0.116   6.277   4.054  0.5455  0.3050 -0.1625
 5803TIP3    H138968   0.051   6.338   4.087  1.1586 -0.1318  1.9930
 5803TIP3    H238969   0.193   6.331   4.036  0.1927  0.5519 -0.9816
 5804TIP3   OH238970   0.166   4.937   1.903 -0.8805  0.4061  0.6932
 5804TIP3    H138971   0.156   4.857   1.955 -0.9181  0.0298  0.1171
 5804TIP3    H238972   0.245   4.921   1.851  0.4427  1.6615  2.1940
 5805TIP3   OH238973   1.828   1.045   4.013 -0.0654  0.6434  0.3188
 5805TIP3    H138974   1.897   0.979   4.010 -0.1495  0.5607  0.2184
 5805TIP3    H238975   1.790   1.034   4.101  0.1459  0.7885  0.4289
 5806TIP3   OH238976   0.149   1.420   1.190 -0.1528  0.0467 -0.4323
 5806TIP3    H138977   0.211   1.491   1.205  0.4527 -0.7095  0.8213
 5806TIP3    H238978   0.202   1.349   1.156 -0.3229 -0.5585  0.5228
 5807TIP3   OH238979   6.187   6.423   2.754  0.5558  0.1348 -0.0479
 5807TIP3    H138980   6.259   6.459   2.702 -0.4342  1.2693 -0.6864
 5807TIP3    H238981   6.109   6.462   2.716 -0.2182  1.1931  2.4354
 5808TIP3   OH238982   2.497   5.693   0.151  0.4492  0.1442  0.3817
 5808TIP3    H138983   2.545   5.610   0.148  1.5583  0.7830 -1.2671
 5808TIP3    H238984   2.539   5.747   0.084 -2.6050  0.7541 -1.2184
 5809TIP3   OH238985   5.645   6.009   0.864  0.3147 -0.0025  0.0998
 5809TIP3    H138986   5.712   6.066   0.827  0.1474  0.1767  0.0696
 5809TIP3    H238987   5.572   6.014   0.802 -0.4263  1.2295  1.0111
 5810TIP3   OH238988   4.550   4.575   2.325  0.3417  0.9172  0.1074
 5810TIP3    H138989   4.573   4.666   2.340  2.2030  0.6025 -0.5910
 5810TIP3    H238990   4.595   4.527   2.395  0.0527  0.4543 -0.0198
 5811TIP3   OH238991   4.284   4.775   0.573  0.3367 -0.1612  0.2910
 5811TIP3    H138992   4.264   4.689   0.610  1.0022  0.7076  2.9513
 5811TIP3    H238993   4.201   4.822   0.576  0.6499  0.3768  2.2759
 5812TIP3   OH238994   6.175   2.178   2.818  0.0435 -0.0239  0.3830
 5812TIP3    H138995   6.087   2.140   2.816  0.0129  0.0484 -1.4708
 5812TIP3    H238996   6.233   2.103   2.837 -0.4290  0.0293  2.1639
 5813TIP3   OH238997   4.006   5.487   0.912  0.2429  0.0780 -0.0817
 5813TIP3    H138998   4.079   5.548   0.905 -0.7861  1.4226  0.3731
 5813TIP3    H238999   4.039   5.414   0.964  0.8380  1.3794  1.4374
 5814TIP3   OH239000   6.403   3.989   2.393  0.0160  0.7597 -0.0828
 5814TIP3    H139001   6.347   4.010   2.468 -0.4430  1.2482 -0.5462
 5814TIP3    H239002   6.346   3.942   2.333  0.5155 -0.0713  0.0807
 5815TIP3   OH239003   1.591   2.766   1.109 -0.2720  0.8073  0.0136
 5815TIP3    H139004   1.561   2.817   1.034  0.4897 -0.4035 -1.1617
 5815TIP3    H239005   1.678   2.802   1.129  0.6531 -0.5375 -1.3836
 5816TIP3   OH239006   3.713   2.883   3.912  0.0254  0.3758 -0.3613
 5816TIP3    H139007   3.792   2.835   3.938  0.5745  1.4545  0.0172
 5816TIP3    H239008   3.658   2.883   3.990  0.5127  1.2950  0.0038
 5817TIP3   OH239009   6.155   2.139   3.357 -0.3423  0.3925  1.0330
 5817TIP3    H139010   6.181   2.061   3.308 -0.4012  1.8337 -1.4490
 5817TIP3    H239011   6.066   2.157   3.327 -0.3040  1.4714  1.5270
 5818TIP3   OH239012   4.943   6.206   0.010  0.3436  0.2989 -0.2146
 5818TIP3    H139013   4.948   6.299   0.028 -1.3985  0.5206 -0.6597
 5818TIP3    H239014   4.889   6.170   0.081 -0.8107  0.0388 -1.1724
 5819TIP3   OH239015   4.322   1.648   0.879  0.0641 -0.0595 -0.5397
 5819TIP3    H139016   4.394   1.712   0.880  1.4031 -1.3190  2.9480
 5819TIP3    H239017   4.363   1.566   0.908 -2.7764 -0.7261  2.2116
 5820TIP3   OH239018   3.693   3.469   1.259 -0.6202  0.4315  0.0154
 5820TIP3    H139019   3.632   3.409   1.303  0.2603 -0.0468  0.6060
 5820TIP3    H239020   3.778   3.424   1.263 -0.1679  1.2224 -0.5269
 5821TIP3   OH239021   3.731   5.849   2.914 -0.0562 -0.0264  0.1482
 5821TIP3    H139022   3.726   5.756   2.937  3.2034 -0.6700 -1.2417
 5821TIP3    H239023   3.800   5.884   2.970 -0.1713  1.1672 -0.4299
 5822TIP3   OH239024   1.640   2.669   2.397  0.1442  0.5127 -0.8978
 5822TIP3    H139025   1.640   2.574   2.403 -0.3305  0.4465 -1.7458
 5822TIP3    H239026   1.581   2.698   2.467 -1.6392  0.0330 -2.1109
 5823TIP3   OH239027   4.740   2.694   2.027  0.2541  0.3982 -0.6241
 5823TIP3    H139028   4.830   2.694   1.994  0.3454  0.9332 -0.3934
 5823TIP3    H239029   4.686   2.670   1.952  0.7113 -1.4965 -0.3912
 5824TIP3   OH239030   3.625   3.224   4.105 -0.0684  0.1156 -0.1197
 5824TIP3    H139031   3.656   3.135   4.122 -1.3210 -0.1737  0.8334
 5824TIP3    H239032   3.554   3.237   4.168 -0.2447  1.6131 -0.5841
 5825TIP3   OH239033   3.312   3.302   0.228  0.4058  0.1645 -0.1747
 5825TIP3    H139034   3.294   3.371   0.292  0.4922 -0.1475  0.1919
 5825TIP3    H239035   3.328   3.348   0.146  0.3187  0.5714  0.0357
 5826TIP3   OH239036   6.658   5.379   8.612 -0.3779  1.1375 -0.0195
 5826TIP3    H139037   6.617   5.443   8.553  0.1945 -0.0070 -1.7596
 5826TIP3    H239038   6.604   5.381   8.691 -1.7810  2.0581 -0.9551
 5827TIP3   OH239039   4.467   5.496   2.554  0.5818 -0.4234 -0.4095
 5827TIP3    H139040   4.452   5.515   2.647  2.5453  0.8696 -0.2742
 5827TIP3    H239041   4.386   5.522   2.511 -0.0906 -0.3232  0.8499
 5828TIP3   OH239042   6.262   5.503   3.239  0.0375 -0.5520  0.4823
 5828TIP3    H139043   6.248   5.528   3.148  0.8526  0.3378  0.5845
 5828TIP3    H239044   6.225   5.415   3.246 -2.0601  0.2146 -0.1383
 5829TIP3   OH239045   0.248   6.355   2.009 -0.5727  0.1242  0.0768
 5829TIP3    H139046   0.263   6.277   1.957 -0.8411 -0.4188  0.8003
 5829TIP3    H239047   0.279   6.427   1.953 -0.7809 -0.4410 -0.7945
 5830TIP3   OH239048   4.712   4.722   0.249  0.1611  0.2203  0.2173
 5830TIP3    H139049   4.667   4.638   0.258 -1.9552  1.1545 -0.9531
 5830TIP3    H239050   4.777   4.722   0.319 -1.3368 -1.4236  1.6878
 5831TIP3   OH239051   0.620   2.824   8.302  0.0550  0.0303 -0.0606
 5831TIP3    H139052   0.666   2.896   8.345 -1.5549  0.9776  0.1482
 5831TIP3    H239053   0.612   2.757   8.369 -1.4315  1.0442  0.8334
 5832TIP3   OH239054   4.864   4.748   2.177  0.0030 -0.7239  0.0479
 5832TIP3    H139055   4.938   4.803   2.153 -1.0216  1.1087  0.8206
 5832TIP3    H239056   4.881   4.664   2.135  1.4561  0.2976 -1.5292
 5833TIP3   OH239057   2.106   1.980   1.160  0.2521 -0.3625 -0.6213
 5833TIP3    H139058   2.126   1.939   1.244  0.6568  2.6461  0.8849
 5833TIP3    H239059   2.011   1.991   1.161  0.0921 -1.6279 -1.2310
 5834TIP3   OH239060   2.634   5.576   3.227 -0.1307 -0.0552 -0.5218
 5834TIP3    H139061   2.590   5.498   3.259  0.3635 -0.9922 -2.0023
 5834TIP3    H239062   2.678   5.613   3.304 -2.5068  0.2818  0.7486
 5835TIP3   OH239063   5.987   6.407   1.121 -0.0498 -0.2635 -0.2329
 5835TIP3    H139064   5.914   6.346   1.112 -0.0328 -0.0399 -2.5705
 5835TIP3    H239065   5.946   6.491   1.141 -0.1551 -0.7360  1.7382
 5836TIP3   OH239066   0.662   3.001   3.073 -0.7593  0.3501  0.4343
 5836TIP3    H139067   0.643   2.913   3.040 -1.0698  1.0138 -1.2987
 5836TIP3    H239068   0.576   3.042   3.081 -0.5828  0.6742  0.6840
 5837TIP3   OH239069   5.069   4.693   0.728  0.1495  0.7140 -0.1946
 5837TIP3    H139070   5.111   4.667   0.645 -0.6444 -3.1021  0.3915
 5837TIP3    H239071   5.137   4.743   0.774  1.7562  0.1828 -1.8461
 5838TIP3   OH239072   2.982   5.496   0.448  0.1455 -0.4140 -0.4284
 5838TIP3    H139073   2.931   5.418   0.424 -0.1893 -0.6581  0.9734
 5838TIP3    H239074   3.004   5.537   0.365 -2.2166 -0.3869 -1.1077
 5839TIP3   OH239075   6.221   5.894   2.942 -0.7631 -0.1143  0.0273
 5839TIP3    H139076   6.200   5.986   2.924  2.9759  0.8894 -0.1541
 5839TIP3    H239077   6.213   5.886   3.037 -1.3496  0.3255  0.0221
 5840TIP3   OH239078   2.961   6.754   0.130  0.0555 -0.2083 -0.1960
 5840TIP3    H139079   3.005   6.700   0.063 -0.5190  0.6671 -1.3062
 5840TIP3    H239080   2.937   6.834   0.084 -1.6645 -0.1870  0.6918
 5841TIP3   OH239081   3.943   4.534   3.412  0.2037 -0.0892  0.1483
 5841TIP3    H139082   3.867   4.591   3.398  1.7224  2.0512  0.0423
 5841TIP3    H239083   3.947   4.524   3.507  0.2424  0.4920  0.2156
 5842TIP3   OH239084   2.512   0.695   2.708 -0.5163  0.0864 -0.0105
 5842TIP3    H139085   2.477   0.669   2.793 -0.8677  1.0183  0.1403
 5842TIP3    H239086   2.437   0.736   2.664 -0.2559 -0.1255 -0.6561
 5843TIP3   OH239087   0.263   0.893   0.797 -0.3673 -0.1946 -0.4146
 5843TIP3    H139088   0.296   0.976   0.761 -0.3332 -0.7119 -1.6152
 5843TIP3    H239089   0.332   0.830   0.776 -1.4507 -1.0059 -1.6882
 5844TIP3   OH239090   1.800   6.410   3.507 -0.0118  0.2032 -0.2207
 5844TIP3    H139091   1.781   6.497   3.471 -0.2379  1.4806  2.7207
 5844TIP3    H239092   1.725   6.391   3.564  1.3762 -0.6073  1.3921
 5845TIP3   OH239093   2.095   4.595   0.838  0.1038 -0.1387  0.5869
 5845TIP3    H139094   2.010   4.553   0.844 -0.0105 -0.0325 -0.1762
 5845TIP3    H239095   2.139   4.551   0.765 -0.2245  1.3872 -0.5811
 5846TIP3   OH239096   4.507   1.762   0.051  0.2366  0.1535  0.7488
 5846TIP3    H139097   4.580   1.770  -0.010 -1.2807 -1.3738 -1.4285
 5846TIP3    H239098   4.481   1.852   0.070  0.9521  0.6889 -0.6724
 5847TIP3   OH239099   4.430   4.204   2.324 -0.3624  0.2102  0.9283
 5847TIP3    H139100   4.402   4.277   2.379 -2.1840 -1.2399  2.0614
 5847TIP3    H239101   4.444   4.132   2.386  1.1020 -0.5173 -0.1795
 5848TIP3   OH239102   5.894   1.943   0.290  0.3312 -0.4558 -0.0532
 5848TIP3    H139103   5.866   1.865   0.241  0.8212 -0.8060  0.2078
 5848TIP3    H239104   5.913   2.008   0.222 -1.1594 -0.1786 -0.2307
 5849TIP3   OH239105   1.470   5.860   8.473 -0.3154 -0.1767  0.8277
 5849TIP3    H139106   1.458   5.767   8.452 -1.2930  0.5026 -1.9808
 5849TIP3    H239107   1.564   5.874   8.463 -0.4620 -0.3829 -1.2243
 5850TIP3   OH239108   3.555   5.371   2.840  0.5225  0.2336 -0.2975
 5850TIP3    H139109   3.589   5.294   2.795 -0.0751 -0.3503  0.2345
 5850TIP3    H239110   3.530   5.340   2.927 -0.8122  0.7632 -0.4610
 5851TIP3   OH239111   4.291   1.015   8.665 -0.0750 -0.2553 -0.4226
 5851TIP3    H139112   4.222   1.003   8.599  0.1031  0.1946 -0.7008
 5851TIP3    H239113   4.370   1.034   8.614 -0.0685  0.7480 -0.0787
 5852TIP3   OH239114   3.063   1.905   0.910  0.1556 -0.2793  0.0046
 5852TIP3    H139115   3.149   1.935   0.879 -1.0298  1.9708 -1.3158
 5852TIP3    H239116   3.066   1.917   1.005  2.3054 -3.1376  0.4289
 5853TIP3   OH239117   4.384   1.999   2.086 -0.6670  0.2195 -0.7992
 5853TIP3    H139118   4.304   1.984   2.136 -0.5960 -0.4794 -0.8805
 5853TIP3    H239119   4.383   1.932   2.017 -0.9044  1.3428 -1.9253
 5854TIP3   OH239120   6.818   5.091   3.149  0.5593 -0.0686  0.6871
 5854TIP3    H139121   6.811   5.163   3.086 -1.1918 -1.0221 -0.2701
 5854TIP3    H239122   6.817   5.012   3.096  2.5744 -0.8560  1.7181
 5855TIP3   OH239123   6.014   6.809   1.636 -0.1751  0.0838 -0.4617
 5855TIP3    H139124   6.008   6.784   1.728 -1.6065 -0.0782 -0.5664
 5855TIP3    H239125   6.012   6.905   1.637 -1.7659  0.0789 -0.3657
 5856TIP3   OH239126   2.318   3.787   1.166  0.1770  0.3791  0.0778
 5856TIP3    H139127   2.400   3.829   1.139  1.5408 -1.4061  1.1846
 5856TIP3    H239128   2.340   3.694   1.173 -2.2158 -0.3070 -0.4661
 5857TIP3   OH239129   6.431   1.393   2.296 -0.0171  0.1670 -0.1497
 5857TIP3    H139130   6.437   1.477   2.341 -1.9914  1.7533 -2.5621
 5857TIP3    H239131   6.368   1.342   2.347 -2.2178  1.9195 -0.9640
 5858TIP3   OH239132   0.334   3.238   1.272  0.3621 -0.4562 -0.0885
 5858TIP3    H139133   0.248   3.198   1.285 -0.6596  1.9220  1.2922
 5858TIP3    H239134   0.376   3.231   1.357  0.7219  0.0871 -0.2165
 5859TIP3   OH239135   4.455   1.524   3.352 -0.6217  0.2870 -0.5926
 5859TIP3    H139136   4.426   1.610   3.322 -1.0135  0.5943  0.6088
 5859TIP3    H239137   4.390   1.498   3.417 -0.9918 -1.3154 -1.5627
 5860TIP3   OH239138   5.240   3.910   2.439  0.4037 -0.1730 -0.7850
 5860TIP3    H139139   5.318   3.897   2.383 -1.3036 -0.3762 -3.2887
 5860TIP3    H239140   5.215   3.821   2.465  0.2159 -0.2387 -1.1757
 5861TIP3   OH239141   5.900   4.600   1.277 -0.3295 -0.0872  0.3095
 5861TIP3    H139142   5.843   4.633   1.207  0.5815  0.1983 -0.3197
 5861TIP3    H239143   5.875   4.508   1.287 -0.6318 -0.0677 -0.2327
 5862TIP3   OH239144   0.634   1.117   8.144  0.1696  0.1850  0.3222
 5862TIP3    H139145   0.653   1.210   8.131  0.8451 -0.0798 -0.6743
 5862TIP3    H239146   0.713   1.072   8.115 -1.3673 -0.8930 -2.5944
 5863TIP3   OH239147   3.962   1.125   2.960  0.2825 -0.3269 -0.5381
 5863TIP3    H139148   4.030   1.095   3.020 -1.8990  0.1853  2.4028
 5863TIP3    H239149   4.005   1.193   2.907  2.5087 -1.3221 -0.1139
 5864TIP3   OH239150   3.759   2.949   2.554 -0.2113 -0.7508 -0.9668
 5864TIP3    H139151   3.807   2.935   2.635  0.1954 -0.8991 -1.2316
 5864TIP3    H239152   3.668   2.929   2.577 -0.1392 -0.5361 -0.4854
 5865TIP3   OH239153   2.111   0.295   3.993 -0.1388  0.2815  0.2570
 5865TIP3    H139154   2.068   0.210   3.986  1.0485 -0.5452  2.2499
 5865TIP3    H239155   2.046   0.352   4.033 -0.4708 -0.0806  0.2349
 5866TIP3   OH239156   4.273   0.046   0.907 -0.1113 -0.1256 -0.2882
 5866TIP3    H139157   4.300  -0.029   0.960  0.1828 -0.6425 -1.1478
 5866TIP3    H239158   4.208   0.092   0.961  0.7418 -0.1963  0.8332
 5867TIP3   OH239159   1.523   0.446   1.172  0.0101 -0.2175 -0.2975
 5867TIP3    H139160   1.444   0.464   1.121 -0.3522 -1.9518 -0.4166
 5867TIP3    H239161   1.559   0.532   1.191 -0.4023  0.5389 -2.5890
 5868TIP3   OH239162   3.939   3.223   8.571  0.4402 -0.1322 -1.1093
 5868TIP3    H139163   3.972   3.183   8.491  1.7510 -0.7638 -0.2872
 5868TIP3    H239164   3.868   3.166   8.600  0.8695 -0.6701 -1.1025
 5869TIP3   OH239165   5.835   1.146   0.385 -0.0955  0.4437 -0.3693
 5869TIP3    H139166   5.851   1.109   0.298 -2.5072 -1.1071 -0.2495
 5869TIP3    H239167   5.813   1.237   0.369 -0.1389  0.2775 -1.3439
 5870TIP3   OH239168   1.266   6.076   2.693  0.4566  0.0188  0.2277
 5870TIP3    H139169   1.320   6.151   2.666  1.6029 -0.9744 -0.3616
 5870TIP3    H239170   1.263   6.082   2.788  1.4547  0.2260  0.2632
 5871TIP3   OH239171   0.844   3.858   0.543 -0.1963 -0.8992 -0.3962
 5871TIP3    H139172   0.855   3.953   0.538 -0.7118 -0.5857  2.4624
 5871TIP3    H239173   0.929   3.823   0.516  0.1027  0.3768 -1.1970
 5872TIP3   OH239174   0.188   4.433   0.924 -0.4842  0.0390 -0.3824
 5872TIP3    H139175   0.184   4.507   0.985  1.2271 -0.2530  0.1202
 5872TIP3    H239176   0.267   4.449   0.872 -1.0260 -0.5745 -1.4288
 5873TIP3   OH239177   5.875   2.975   0.567 -0.0500 -0.4425  0.1103
 5873TIP3    H139178   5.865   2.911   0.638  1.5887 -0.1313  0.6669
 5873TIP3    H239179   5.954   2.948   0.521  0.0855  0.5873 -0.2870
 5874TIP3   OH239180   6.461   2.476   1.859  0.3492  0.1159 -0.3449
 5874TIP3    H139181   6.428   2.529   1.787 -1.2918  0.8918  0.9215
 5874TIP3    H239182   6.452   2.532   1.937 -0.3858 -1.5892  0.8669
 5875TIP3   OH239183   3.999   4.666   3.882  0.2963  0.0071  0.2303
 5875TIP3    H139184   3.968   4.595   3.826 -0.5211  0.2580  0.3502
 5875TIP3    H239185   4.010   4.741   3.823  1.8838 -0.3918 -0.0357
 5876TIP3   OH239186   4.940   4.318   2.126 -0.0288 -0.1764 -0.2018
 5876TIP3    H139187   4.936   4.225   2.147  0.7391 -0.3596 -0.8089
 5876TIP3    H239188   4.989   4.356   2.198 -1.2088 -0.0540  0.5719
 5877TIP3   OH239189   5.427   0.369   2.611  0.3756 -0.1391  0.1861
 5877TIP3    H139190   5.333   0.360   2.600  0.5125 -0.1736 -1.1638
 5877TIP3    H239191   5.446   0.459   2.583  0.4996  0.6380  2.5295
 5878TIP3   OH239192   2.746   4.713   1.093  0.1315 -0.1436 -0.2739
 5878TIP3    H139193   2.692   4.762   1.031 -2.1612 -2.3278 -0.1336
 5878TIP3    H239194   2.684   4.666   1.149  2.1253  0.2682  2.5478
 5879TIP3   OH239195   5.516   2.257   2.187  0.0976  0.8592  0.9643
 5879TIP3    H139196   5.581   2.216   2.244 -0.6063  1.0284  1.9169
 5879TIP3    H239197   5.520   2.350   2.210  2.6304  1.6412 -2.1071
 5880TIP3   OH239198   3.901   6.429   1.878 -0.1770 -0.0266  0.1371
 5880TIP3    H139199   3.967   6.370   1.842 -1.3741  0.9687 -4.2687
 5880TIP3    H239200   3.921   6.514   1.838 -3.4698  0.5338 -0.6120
 5881TIP3   OH239201   2.869   4.334   3.036  0.3585  0.6028 -0.5393
 5881TIP3    H139202   2.912   4.409   2.995 -0.1427  0.5744 -1.1280
 5881TIP3    H239203   2.940   4.286   3.079  0.3529  2.9730  2.4251
 5882TIP3   OH239204   0.916   3.677   0.034  0.1627 -1.2544  0.6129
 5882TIP3    H139205   1.006   3.655   0.008  0.5111  0.1813  0.5223
 5882TIP3    H239206   0.913   3.773   0.031 -1.8969 -1.3097 -1.1358
 5883TIP3   OH239207   6.636   2.192   0.769  0.4385  0.4308 -0.2941
 5883TIP3    H139208   6.724   2.230   0.771  1.0944 -0.8377  3.2792
 5883TIP3    H239209   6.582   2.254   0.818 -0.2532  0.3610 -0.9628
 5884TIP3   OH239210   2.859   1.523   2.135  0.1819 -0.2668 -0.2041
 5884TIP3    H139211   2.875   1.584   2.207 -2.4013  1.4195 -0.9233
 5884TIP3    H239212   2.895   1.567   2.058 -1.2217  0.1831 -0.6408
 5885TIP3   OH239213   5.595   2.276   3.003  0.5098 -0.0787 -0.5865
 5885TIP3    H139214   5.665   2.241   3.058 -0.4452  0.6399  1.1970
 5885TIP3    H239215   5.630   2.359   2.970  0.3253  0.5912  0.8113
 5886TIP3   OH239216   5.112   5.178   3.337  0.3652  0.4120 -0.2613
 5886TIP3    H139217   5.187   5.183   3.278 -0.0849  1.4718 -0.7737
 5886TIP3    H239218   5.149   5.149   3.421  1.3636  1.0743 -0.4604
 5887TIP3   OH239219   4.615   3.794   2.378  0.5681 -0.0330 -0.5504
 5887TIP3    H139220   4.633   3.725   2.314  2.6640  0.1920 -0.2648
 5887TIP3    H239221   4.676   3.864   2.357 -0.7512  1.3079 -0.1200
 5888TIP3   OH239222   4.931   2.176   0.262  0.1055 -0.4954  0.4394
 5888TIP3    H139223   4.883   2.191   0.180  0.6199  0.9749  0.3797
 5888TIP3    H239224   4.865   2.141   0.322 -0.4136 -1.0461 -0.4229
 5889TIP3   OH239225   3.620   2.241   3.139 -1.1144 -0.2588 -0.1949
 5889TIP3    H139226   3.582   2.185   3.207 -2.0669  0.9865  0.3440
 5889TIP3    H239227   3.546   2.264   3.083 -0.9419  1.2300  0.1564
 5890TIP3   OH239228   6.256   0.673   1.215  0.4028  0.7148 -0.1911
 5890TIP3    H139229   6.259   0.616   1.291 -0.7756 -0.3590 -0.9073
 5890TIP3    H239230   6.295   0.621   1.145 -0.3670  0.9049 -0.7766
 5891TIP3   OH239231   1.416   4.854   0.505 -0.0232 -0.6022 -0.4845
 5891TIP3    H139232   1.342   4.797   0.527  0.0481 -0.3146  0.5287
 5891TIP3    H239233   1.493   4.797   0.516 -0.0394 -0.7023 -0.8600
 5892TIP3   OH239234   2.463   4.178   0.983 -1.0497 -0.1759  0.5097
 5892TIP3    H139235   2.391   4.171   1.046 -0.7872  0.4796  0.8855
 5892TIP3    H239236   2.529   4.231   1.027 -1.7846  2.2627 -1.1232
 5893TIP3   OH239237   4.988   5.340   1.610  0.5273  0.1348 -0.0954
 5893TIP3    H139238   4.959   5.249   1.597 -2.1682  0.7356  1.0980
 5893TIP3    H239239   5.026   5.365   1.525  0.3063 -1.7412 -0.8040
 5894TIP3   OH239240   6.747   1.828   0.331 -0.6677 -0.5868  0.4660
 5894TIP3    H139241   6.818   1.820   0.394 -0.7059  1.7131  0.8859
 5894TIP3    H239242   6.667   1.824   0.385 -0.7229  0.6076  0.4876
 5895TIP3   OH239243   4.773   2.692   0.474 -0.0853  0.4699  0.6010
 5895TIP3    H139244   4.741   2.748   0.404 -0.7989  1.5569  1.7489
 5895TIP3    H239245   4.789   2.607   0.432  0.0969  1.2546 -0.9742
 5896TIP3   OH239246   0.064   2.900   1.212  0.0938  0.4287 -0.1696
 5896TIP3    H139247   0.065   2.971   1.147 -0.0152 -0.7044 -1.4681
 5896TIP3    H239248   0.054   2.820   1.159  3.3601 -0.8743  0.9057
 5897TIP3   OH239249   6.218   3.634   8.643 -0.3158 -0.2149 -0.1514
 5897TIP3    H139250   6.221   3.542   8.671 -0.7504  0.4485  2.3117
 5897TIP3    H239251   6.125   3.657   8.648  0.0483  1.1658  2.5021
 5898TIP3   OH239252   2.487   3.089   2.894  0.3791 -0.1736  0.4322
 5898TIP3    H139253   2.492   3.181   2.918 -0.4328  0.8772 -2.9232
 5898TIP3    H239254   2.573   3.068   2.858  0.8606 -1.0520  2.0065
 5899TIP3   OH239255   2.589   1.254   0.984  0.1702 -0.0280  0.0913
 5899TIP3    H139256   2.682   1.259   1.006  0.3727 -2.0466 -0.1007
 5899TIP3    H239257   2.586   1.271   0.890  0.0756  2.0883  0.4483
 5900TIP3   OH239258   0.308   4.689   8.205 -0.5217  0.7296 -0.7069
 5900TIP3    H139259   0.291   4.685   8.300 -1.1530  0.5924 -0.8246
 5900TIP3    H239260   0.394   4.648   8.195 -0.2010  1.2455 -0.1253
 5901TIP3   OH239261   4.797   1.422   8.650 -0.1058  0.1540  0.1786
 5901TIP3    H139262   4.710   1.444   8.616 -0.5540 -1.3141  0.2944
 5901TIP3    H239263   4.798   1.458   8.738 -0.5981  0.1981  0.1720
 5902TIP3   OH239264   5.130   1.245   1.732 -0.8700  0.2006  0.1362
 5902TIP3    H139265   5.100   1.276   1.646  1.0961 -1.7621 -1.3588
 5902TIP3    H239266   5.071   1.173   1.754  0.3635 -1.2070 -1.0150
 5903TIP3   OH239267   1.718   0.173   0.212  0.4859  0.6781  0.3626
 5903TIP3    H139268   1.720   0.240   0.281  1.1570  0.3608  0.6575
 5903TIP3    H239269   1.668   0.213   0.141  0.8434  1.4746  0.5555
 5904TIP3   OH239270   6.785   2.327   3.121  0.5158  0.1339  0.0285
 5904TIP3    H139271   6.698   2.351   3.091  0.6076 -0.6167 -0.9201
 5904TIP3    H239272   6.808   2.392   3.186 -0.3984  0.8543 -0.3553
 5905TIP3   OH239273   4.536   4.599   4.004  0.4504  0.2229 -0.2748
 5905TIP3    H139274   4.535   4.562   3.916  0.0658 -1.9352  0.5861
 5905TIP3    H239275   4.449   4.639   4.014  0.0515 -0.5930 -0.4428
 5906TIP3   OH239276   3.640   2.524   3.214  0.7142 -0.6423 -0.0994
 5906TIP3    H139277   3.557   2.551   3.174 -0.2198 -1.2676  1.3586
 5906TIP3    H239278   3.652   2.434   3.186  0.1435 -1.0258  0.8276
 5907TIP3   OH239279   1.880   0.034   0.395 -0.6527 -0.1877  0.4193
 5907TIP3    H139280   1.808   0.080   0.352  0.1916  0.2013 -0.6216
 5907TIP3    H239281   1.837  -0.026   0.456 -1.8172  0.7793  0.5841
 5908TIP3   OH239282   6.165   5.490   0.945 -0.5434 -0.1754 -0.1252
 5908TIP3    H139283   6.194   5.545   1.018 -1.7712  0.4534 -0.0817
 5908TIP3    H239284   6.124   5.551   0.884 -0.4616 -0.8375 -0.8522
 5909TIP3   OH239285   1.332   4.591   8.660  0.4125 -0.4577  0.0700
 5909TIP3    H139286   1.258   4.577   8.719 -0.0032  2.7729  0.4880
 5909TIP3    H239287   1.293   4.600   8.573  0.5695 -0.9765 -0.0571
 5910TIP3   OH239288   5.765   5.665   8.242  0.0446  0.5342 -0.0386
 5910TIP3    H139289   5.698   5.668   8.174  0.4755  0.6770 -0.4595
 5910TIP3    H239290   5.734   5.598   8.303 -0.2638  0.2878 -0.4585
 5911TIP3   OH239291   2.106   6.265   8.275  0.6196 -0.6733 -0.4879
 5911TIP3    H139292   2.133   6.176   8.254 -0.3317 -0.8751 -0.9176
 5911TIP3    H239293   2.083   6.303   8.190  2.1420  0.3789 -0.4644
 5912TIP3   OH239294   1.029   3.316   1.006  0.3827 -0.1184 -0.1699
 5912TIP3    H139295   1.011   3.231   0.966 -1.7529 -0.5732  1.5128
 5912TIP3    H239296   1.111   3.304   1.054 -1.2242 -2.2452  2.3353
 5913TIP3   OH239297   5.175   2.710   3.418  0.3994  0.3196  0.2350
 5913TIP3    H139298   5.103   2.653   3.391  2.6523 -2.1724 -1.0088
 5913TIP3    H239299   5.219   2.662   3.488  1.4744  1.2556  0.2450
 5914TIP3   OH239300   5.681   2.400   1.816 -0.1326 -0.1822 -0.1173
 5914TIP3    H139301   5.626   2.323   1.807 -0.1428 -0.0801 -1.0398
 5914TIP3    H239302   5.634   2.456   1.878 -0.4356 -0.6473  0.0750
 5915TIP3   OH239303   3.629   3.261   0.985  0.6448 -0.5739 -0.1965
 5915TIP3    H139304   3.586   3.183   0.951 -0.3109 -0.7833  1.4410
 5915TIP3    H239305   3.604   3.331   0.924  0.1879 -1.2191 -0.7556
 5916TIP3   OH239306   4.881   0.580   2.929  0.2581 -0.0528  0.3282
 5916TIP3    H139307   4.874   0.486   2.909  1.1861 -0.1276  0.3137
 5916TIP3    H239308   4.975   0.596   2.935  0.0823  0.2944  3.1616
 5917TIP3   OH239309   5.377   3.541   0.048 -0.1331  0.3124  0.1557
 5917TIP3    H139310   5.348   3.630   0.026  0.1505  0.0702 -1.3705
 5917TIP3    H239311   5.298   3.497   0.079 -0.8870  0.4083 -1.4711
 5918TIP3   OH239312   6.200   6.087   0.949 -0.2399 -0.1176  0.1209
 5918TIP3    H139313   6.249   6.166   0.973  1.4431 -1.1098  0.1152
 5918TIP3    H239314   6.123   6.120   0.903  1.5944  1.4742 -2.0108
 5919TIP3   OH239315   5.727   4.819   8.734  0.1773 -0.3166 -0.1049
 5919TIP3    H139316   5.725   4.742   8.790  0.6319  0.0156  0.3831
 5919TIP3    H239317   5.670   4.882   8.778  0.9613  0.1367  0.2833
 5920TIP3   OH239318   6.261   4.917   2.998  0.0412 -0.1904  0.5551
 5920TIP3    H139319   6.211   4.975   2.940  1.6165 -0.4353 -1.1394
 5920TIP3    H239320   6.349   4.915   2.959  1.2152 -0.2736  3.0454
 5921TIP3   OH239321   2.329   1.766   0.109  0.4863  0.4592  0.7311
 5921TIP3    H139322   2.376   1.717   0.177  0.6544 -1.8936 -0.9385
 5921TIP3    H239323   2.391   1.769   0.035  0.1670  2.5924  0.4769
 5922TIP3   OH239324   1.211   5.051   2.677 -0.1173  0.3854 -0.1424
 5922TIP3    H139325   1.185   5.106   2.751  0.1245 -0.7086  0.7799
 5922TIP3    H239326   1.252   5.112   2.615 -2.3790  1.7029 -0.4450
 5923TIP3   OH239327   4.757   5.905   1.555 -0.7150 -0.1765  0.0501
 5923TIP3    H139328   4.730   5.887   1.464 -1.2686  0.6175  0.0415
 5923TIP3    H239329   4.722   5.832   1.605 -2.4022  0.5133 -0.0609
 5924TIP3   OH239330   5.473   1.737   3.026 -0.3737 -0.2200 -0.2272
 5924TIP3    H139331   5.498   1.826   3.051 -0.3149  0.4605 -2.5024
 5924TIP3    H239332   5.521   1.681   3.087 -1.3850  1.2776  2.1028
 5925TIP3   OH239333   2.565   6.321   0.855 -0.3541  0.4614  0.1893
 5925TIP3    H139334   2.637   6.370   0.816 -0.0475 -1.5157 -1.9627
 5925TIP3    H239335   2.600   6.289   0.938  1.9731 -1.7797 -1.4967
 5926TIP3   OH239336   6.190   3.319   2.849 -0.0348  0.0121  0.1172
 5926TIP3    H139337   6.149   3.352   2.929  0.4315 -0.5308  0.5864
 5926TIP3    H239338   6.265   3.376   2.835 -0.7162  0.7707 -0.5327
 5927TIP3   OH239339   1.464   4.545   0.399 -0.3440 -0.1069  0.0217
 5927TIP3    H139340   1.380   4.591   0.391 -0.6263 -0.8001 -1.4937
 5927TIP3    H239341   1.521   4.589   0.335 -0.1229 -0.7839 -0.2616
 5928TIP3   OH239342   0.624   2.269   4.213  0.2165 -0.1971 -0.2009
 5928TIP3    H139343   0.677   2.189   4.210 -0.3421 -0.5663 -0.3268
 5928TIP3    H239344   0.538   2.242   4.181 -1.1825 -0.4955  3.3846
 5929TIP3   OH239345   2.635   0.548   0.259 -0.1689  0.6391 -0.3110
 5929TIP3    H139346   2.553   0.520   0.301 -0.7502  0.6359 -1.4074
 5929TIP3    H239347   2.700   0.485   0.290  0.0298  2.0739  2.5757
 5930TIP3   OH239348   4.097   3.589   7.986 -0.2555 -0.3993 -0.3820
 5930TIP3    H139349   4.137   3.537   7.916 -1.1963 -0.8257 -0.6299
 5930TIP3    H239350   4.120   3.679   7.965 -0.6436 -0.5059 -1.3473
 5931TIP3   OH239351   0.213   0.567   3.079  0.2218  0.0942  0.1525
 5931TIP3    H139352   0.253   0.481   3.070  2.5334  0.8055  2.3537
 5931TIP3    H239353   0.223   0.607   2.993  0.1176 -1.4066 -0.5895
 5932TIP3   OH239354   5.837   4.747   2.604 -0.1441  0.2822 -0.8435
 5932TIP3    H139355   5.926   4.754   2.639 -0.3549  2.7306 -0.6491
 5932TIP3    H239356   5.848   4.750   2.509  0.0731 -1.2438 -0.8865
 5933TIP3   OH239357   3.253   6.346   2.085  0.6644  0.4024 -0.6354
 5933TIP3    H139358   3.314   6.387   2.146 -1.4707  2.2030  0.4482
 5933TIP3    H239359   3.204   6.284   2.138 -2.0605  2.8560 -0.0087
 5934TIP3   OH239360   5.881   4.823   1.681 -0.7553 -0.4260 -0.9875
 5934TIP3    H139361   5.908   4.734   1.658  2.1018  0.2699 -0.6936
 5934TIP3    H239362   5.961   4.866   1.711 -2.5088  1.5276  1.3144
 5935TIP3   OH239363   0.164   0.923   0.477  0.6499 -0.1305  0.4151
 5935TIP3    H139364   0.219   0.966   0.542  1.9636  0.4576 -1.0230
 5935TIP3    H239365   0.189   0.831   0.480  0.7828 -0.0843  0.6764
 5936TIP3   OH239366   2.542   4.587   1.802 -0.1442 -0.2886 -0.4022
 5936TIP3    H139367   2.513   4.677   1.784 -1.2322 -0.1618  1.7006
 5936TIP3    H239368   2.618   4.597   1.858  0.2352 -0.6866 -0.8391
 5937TIP3   OH239369   4.864   1.135   0.939 -0.0466 -0.3870  0.3276
 5937TIP3    H139370   4.868   1.089   1.023  0.7741 -2.6582 -0.8463
 5937TIP3    H239371   4.798   1.087   0.889 -0.0473  0.5065 -0.5523
 5938TIP3   OH239372   3.257   1.286   0.563  0.2653  0.3505  0.1456
 5938TIP3    H139373   3.229   1.233   0.639  2.1085 -0.7749  0.1057
 5938TIP3    H239374   3.304   1.360   0.601  1.9206 -0.6461  0.1676
 5939TIP3   OH239375   0.396   5.261   8.675  0.5318  0.2465 -0.2646
 5939TIP3    H139376   0.350   5.189   8.720  1.9754 -1.0183 -0.7231
 5939TIP3    H239377   0.356   5.263   8.588  0.6404 -0.1726 -0.3284
 5940TIP3   OH239378   2.216   5.521   0.675 -0.7757 -0.5151 -0.6224
 5940TIP3    H139379   2.189   5.611   0.693  0.5514 -0.1567 -0.3406
 5940TIP3    H239380   2.163   5.468   0.735  0.4959  0.3155  1.3408
 5941TIP3   OH239381   0.888   2.808   7.910 -0.9445  0.5160 -0.2867
 5941TIP3    H139382   0.873   2.883   7.853 -1.9071  0.1158 -0.5817
 5941TIP3    H239383   0.890   2.844   7.998  2.3737  1.4324 -0.5809
 5942TIP3   OH239384   1.686   3.393   0.766  0.0892  0.5485 -0.1888
 5942TIP3    H139385   1.618   3.328   0.754  0.2287  0.5494 -1.0528
 5942TIP3    H239386   1.644   3.476   0.743  0.0832  0.6861  0.3143
 5943TIP3   OH239387   6.789   4.969   2.669 -0.0344 -0.0241  0.1251
 5943TIP3    H139388   6.700   4.966   2.634  0.1652 -2.4102 -0.4066
 5943TIP3    H239389   6.826   5.051   2.636 -1.2342 -0.1945 -1.7665
 5944TIP3   OH239390   4.809   5.823   2.783 -0.6238 -0.0535 -0.0944
 5944TIP3    H139391   4.859   5.768   2.842  0.4294  1.7324  0.7789
 5944TIP3    H239392   4.760   5.762   2.728  2.2635 -1.9198 -0.8104
 5945TIP3   OH239393   5.435   1.277   3.040  0.0193  0.2412  0.0380
 5945TIP3    H139394   5.504   1.310   2.983 -0.5272 -0.0884 -0.8371
 5945TIP3    H239395   5.358   1.328   3.016 -0.0325  0.6920  1.0953
 5946TIP3   OH239396   2.687   1.579   0.701 -0.3020  0.3532 -0.2954
 5946TIP3    H139397   2.714   1.670   0.693  0.9890 -0.0876 -1.3202
 5946TIP3    H239398   2.680   1.564   0.796  2.3083  0.7624  0.0562
 5947TIP3   OH239399   5.622   1.252   3.234 -0.0775  0.1944 -0.2979
 5947TIP3    H139400   5.560   1.244   3.161  0.1133  0.9380 -0.5495
 5947TIP3    H239401   5.616   1.168   3.279  0.6343 -0.7291 -1.8254
 5948TIP3   OH239402   5.965   0.054   3.105  0.0725 -0.2638 -0.6359
 5948TIP3    H139403   5.911   0.053   3.184 -0.8383  0.7428 -1.2291
 5948TIP3    H239404   6.052   0.028   3.136  0.3656  2.4769  1.2085
 5949TIP3   OH239405   1.848   0.017   8.418 -0.1712  0.2712 -0.5636
 5949TIP3    H139406   1.875  -0.064   8.462 -1.7554  0.3987  0.7469
 5949TIP3    H239407   1.916   0.032   8.353  0.2101 -2.0794 -0.8209
 5950TIP3   OH239408   1.049   6.609   3.623  0.0412  0.4323  0.3288
 5950TIP3    H139409   1.088   6.563   3.549 -0.3794 -1.0856  1.0096
 5950TIP3    H239410   0.958   6.578   3.626 -0.6776  2.3770 -0.0076
 5951TIP3   OH239411   5.530   0.822   0.021  0.4007  0.8599 -0.5120
 5951TIP3    H139412   5.595   0.765  -0.019 -0.6539  0.2811 -1.4782
 5951TIP3    H239413   5.452   0.766   0.030  0.7399  0.7210  3.0390
 5952TIP3   OH239414   1.882   3.878   3.750 -0.2265  0.1753  0.6201
 5952TIP3    H139415   1.869   3.787   3.780  0.6251  0.1879  1.0543
 5952TIP3    H239416   1.795   3.906   3.722 -0.2843 -1.1724 -0.6634
 5953TIP3   OH239417   5.287   6.213   2.087  0.3891  0.3317  0.2067
 5953TIP3    H139418   5.238   6.132   2.074  2.0242 -0.5697 -0.7123
 5953TIP3    H239419   5.260   6.269   2.015  1.7444 -0.7214 -1.1732
 5954TIP3   OH239420   0.543   0.586   0.470 -0.2642 -0.1047 -0.2317
 5954TIP3    H139421   0.560   0.529   0.395  1.1314 -1.5899  1.1485
 5954TIP3    H239422   0.573   0.536   0.546  0.7327  2.3324  1.0862
 5955TIP3   OH239423   4.917   0.228   8.301 -0.7981  0.0655 -0.5557
 5955TIP3    H139424   4.940   0.190   8.386  0.6063 -0.2044 -1.0329
 5955TIP3    H239425   4.886   0.153   8.249 -1.3431  0.1771 -0.4024
 5956TIP3   OH239426   4.754   5.340   0.894  0.2864  0.0714  0.9626
 5956TIP3    H139427   4.768   5.353   0.987 -1.3541  1.3395  1.0841
 5956TIP3    H239428   4.800   5.413   0.852 -1.4923  1.3033  1.0348
 5957TIP3   OH239429   3.357   4.738   1.833 -0.4168 -0.5290  0.0256
 5957TIP3    H139430   3.410   4.666   1.799  0.5729  0.1681  0.0436
 5957TIP3    H239431   3.392   4.816   1.790 -0.1141  0.1904  1.5062
 5958TIP3   OH239432   1.845   0.500   1.292 -0.2364  0.0084  0.3507
 5958TIP3    H139433   1.831   0.410   1.265 -2.0063  0.8499 -1.9118
 5958TIP3    H239434   1.889   0.541   1.217  0.1236  1.1308  1.1529
 5959TIP3   OH239435   2.345   3.465   2.773 -0.0905 -0.4851  0.3668
 5959TIP3    H139436   2.367   3.446   2.682  0.5856  0.7213  0.2630
 5959TIP3    H239437   2.266   3.414   2.790  0.1345 -1.2078 -0.6996
 5960TIP3   OH239438   3.334   1.947   0.835 -0.5086  0.8112  0.1114
 5960TIP3    H139439   3.417   1.975   0.875  0.2421 -0.0075 -0.8320
 5960TIP3    H239440   3.356   1.928   0.744 -1.8520  1.0458 -0.2894
 5961TIP3   OH239441   5.160   3.777   2.764 -0.0588 -0.2060 -0.0126
 5961TIP3    H139442   5.255   3.785   2.758  0.1082 -1.8097 -0.0054
 5961TIP3    H239443   5.143   3.683   2.756 -1.8295  0.2149 -2.5158
 5962TIP3   OH239444   3.266   4.358   1.136 -0.2450 -0.2557  0.1938
 5962TIP3    H139445   3.361   4.357   1.140 -0.1856  0.7106 -0.5452
 5962TIP3    H239446   3.238   4.376   1.226  0.1640 -2.8283  0.8999
 5963TIP3   OH239447   0.590   0.855   3.504 -0.0966  0.1527 -0.0215
 5963TIP3    H139448   0.505   0.896   3.524  0.5095  1.7319 -0.5739
 5963TIP3    H239449   0.602   0.791   3.575 -0.3361  2.0605  1.8431
 5964TIP3   OH239450   0.782   6.333   3.259  0.0586  0.4543 -0.1224
 5964TIP3    H139451   0.699   6.373   3.233 -0.5738 -0.4508  0.4247
 5964TIP3    H239452   0.786   6.251   3.209  1.2239  1.0703 -1.0607
 5965TIP3   OH239453   5.599   0.488   2.073  0.3734 -0.1895 -0.7710
 5965TIP3    H139454   5.504   0.491   2.074  0.3806 -0.0003 -0.6795
 5965TIP3    H239455   5.623   0.471   2.164  0.4403  0.1455 -0.7247
 5966TIP3   OH239456   4.629   1.135   0.138  0.0234 -0.1284 -0.2379
 5966TIP3    H139457   4.668   1.089   0.212 -0.3835 -0.9441 -0.5125
 5966TIP3    H239458   4.688   1.116   0.065 -0.4090 -0.6500 -0.4620
 5967TIP3   OH239459   3.525   6.203   2.403 -0.1057  0.0887  0.2558
 5967TIP3    H139460   3.563   6.273   2.350  0.3367  0.1606  0.6590
 5967TIP3    H239461   3.519   6.240   2.491  1.1849 -0.7440  0.7206
 5968TIP3   OH239462   6.063   1.130   7.881 -0.3478 -0.0826  0.1258
 5968TIP3    H139463   6.087   1.038   7.894 -0.4249 -0.4049 -1.7255
 5968TIP3    H239464   6.107   1.155   7.799 -1.3891  1.1291 -0.0934
 5969TIP3   OH239465   1.167   1.166   2.443 -0.3381  0.0773  0.2956
 5969TIP3    H139466   1.254   1.156   2.482  0.0260  2.1838  0.1577
 5969TIP3    H239467   1.146   1.259   2.456 -1.5148  0.1668 -1.8278
 5970TIP3   OH239468   1.177   5.973   2.330 -0.1846  0.0611  0.6140
 5970TIP3    H139469   1.262   5.930   2.341 -0.1751  0.2234  1.2321
 5970TIP3    H239470   1.197   6.066   2.331 -0.4323  0.1222  1.4992
 5971TIP3   OH239471   3.359   6.755   2.161 -0.0757 -0.3349  0.0482
 5971TIP3    H139472   3.263   6.760   2.157  0.0053  2.4032 -0.5355
 5971TIP3    H239473   3.383   6.809   2.236  1.0197 -1.2193  0.3542
 5972TIP3   OH239474   5.178   0.750   8.743  0.4215 -0.2430  0.0641
 5972TIP3    H139475   5.189   0.767   8.650  0.0059 -0.8371 -0.1052
 5972TIP3    H239476   5.173   0.837   8.783  1.0965  0.0167 -0.3964
 5973TIP3   OH239477   6.779   6.120   0.182 -0.3192  0.3217  0.2279
 5973TIP3    H139478   6.831   6.082   0.110 -1.6193 -0.2723 -0.4220
 5973TIP3    H239479   6.772   6.049   0.246 -1.2521  0.0265 -0.1893
 5974TIP3   OH239480   2.632   6.038   4.264  0.1617  0.6145 -0.2582
 5974TIP3    H139481   2.562   6.086   4.309  0.3827  0.2422  0.5031
 5974TIP3    H239482   2.647   6.087   4.184 -1.0486  0.6365 -0.4843
 5975TIP3   OH239483   3.588   2.657   8.730 -0.2863  0.4288 -0.5943
 5975TIP3    H139484   3.492   2.653   8.723 -0.3579  2.1411 -1.0178
 5975TIP3    H239485   3.604   2.716   8.805  0.4468 -0.4831 -0.0170
 5976TIP3   OH239486   3.343   6.568   1.408  0.0822 -0.2158 -0.0832
 5976TIP3    H139487   3.309   6.654   1.384 -0.1641  0.0161  1.0800
 5976TIP3    H239488   3.318   6.556   1.499  1.3543 -0.9139  0.1962
 5977TIP3   OH239489   1.895   3.193   3.344  0.4377  0.6397 -0.3173
 5977TIP3    H139490   1.802   3.172   3.342  0.3112  1.2603 -1.4194
 5977TIP3    H239491   1.907   3.257   3.274  1.3443  2.0597  1.0768
 5978TIP3   OH239492   3.610   0.315   0.639 -0.7150 -0.6065 -0.0294
 5978TIP3    H139493   3.606   0.227   0.679 -0.3807  0.3294  2.2378
 5978TIP3    H239494   3.524   0.353   0.657 -0.6471 -0.2431 -0.4663
 5979TIP3   OH239495   6.694   0.126   2.092  0.2704  0.3176 -0.1376
 5979TIP3    H139496   6.669   0.035   2.080  1.2193 -0.3707  2.3298
 5979TIP3    H239497   6.615   0.169   2.125  0.3549 -0.1462  0.7078
 5980TIP3   OH239498   6.710   0.713   1.234  0.1854  0.0570  0.4479
 5980TIP3    H139499   6.692   0.801   1.267 -0.2096  0.1310  0.0368
 5980TIP3    H239500   6.718   0.724   1.140  0.9019 -0.2262  0.4756
 5981TIP3   OH239501   4.786   6.808   1.282  0.1751 -0.4288 -0.1745
 5981TIP3    H139502   4.842   6.883   1.301 -1.8095  1.1532 -0.2023
 5981TIP3    H239503   4.820   6.738   1.339  1.1772  0.9213  0.9690
 5982TIP3   OH239504   3.659   3.182   7.912  0.2105  0.5029  0.8881
 5982TIP3    H139505   3.603   3.181   7.990 -0.0046 -0.5375  0.7427
 5982TIP3    H239506   3.630   3.259   7.863 -1.4552 -0.2357  0.6028
 5983TIP3   OH239507   5.811   2.798   8.594  0.5097 -0.0513  0.1568
 5983TIP3    H139508   5.851   2.715   8.620  0.5721 -0.8903 -2.2916
 5983TIP3    H239509   5.784   2.783   8.503 -2.3837  1.5664  0.6383
 5984TIP3   OH239510   0.088   4.175   0.851  0.3857  0.2067  0.0474
 5984TIP3    H139511   0.053   4.133   0.929 -2.3739  2.1750  0.0482
 5984TIP3    H239512   0.155   4.235   0.884  0.8005 -0.5485  0.6109
 5985TIP3   OH239513   6.752   3.383   2.126 -0.5258  0.2379  1.0824
 5985TIP3    H139514   6.771   3.477   2.122  0.2810  0.0840  1.0356
 5985TIP3    H239515   6.740   3.357   2.035 -1.4838  0.4318  1.1478
 5986TIP3   OH239516   4.173   1.834   1.726 -0.8694 -0.3810 -0.1946
 5986TIP3    H139517   4.100   1.831   1.788 -1.3780 -0.8740 -0.8053
 5986TIP3    H239518   4.137   1.878   1.649 -0.0953  0.6967  0.0349
 5987TIP3   OH239519   0.060   4.904   3.420 -0.3554 -0.3647  0.4259
 5987TIP3    H139520   0.125   4.890   3.352 -1.4032  0.7277 -0.8555
 5987TIP3    H239521   0.099   4.867   3.499  1.2984 -0.7895 -0.5552
 5988TIP3   OH239522   5.437   1.948   3.946  0.1874 -0.1602  0.2508
 5988TIP3    H139523   5.418   2.025   3.893 -1.5862  0.0140  1.0718
 5988TIP3    H239524   5.530   1.958   3.969  0.1831  1.3627 -0.2481
 5989TIP3   OH239525   2.899   1.261   8.666 -0.3811 -0.1809 -0.2124
 5989TIP3    H139526   2.885   1.333   8.605  0.9687 -1.8239 -2.6525
 5989TIP3    H239527   2.812   1.231   8.689 -0.9322  1.1414 -0.4926
 5990TIP3   OH239528   1.740   3.187   8.498 -0.4694 -0.0698 -0.0468
 5990TIP3    H139529   1.787   3.240   8.433 -0.9312 -0.2149 -0.5043
 5990TIP3    H239530   1.764   3.097   8.476 -0.6211 -0.1185 -0.0107
 5991TIP3   OH239531   0.046   6.181   0.640  0.1154  0.2446  0.0780
 5991TIP3    H139532   0.109   6.118   0.607  0.3500  0.0761  0.8274
 5991TIP3    H239533   0.071   6.195   0.731 -1.0475  0.0072  0.4537
 5992TIP3   OH239534   6.361   4.165   8.167 -0.1721 -0.3180 -0.0096
 5992TIP3    H139535   6.412   4.090   8.139  2.6039  0.7898  1.6508
 5992TIP3    H239536   6.312   4.134   8.243 -0.3345 -0.8520 -0.3262
 5993TIP3   OH239537   2.137   2.399   1.312 -0.0824 -0.1283 -0.4170
 5993TIP3    H139538   2.177   2.437   1.234  0.6220 -1.6696 -0.8514
 5993TIP3    H239539   2.066   2.344   1.278  0.0318 -0.5637  0.0344
 5994TIP3   OH239540   5.961   2.937   2.362 -0.3829 -0.1681  0.1209
 5994TIP3    H139541   5.909   2.955   2.441 -2.9770  1.0855 -1.6888
 5994TIP3    H239542   5.955   2.842   2.350 -1.0149 -0.2250  0.8058
 5995TIP3   OH239543   0.415   6.017   1.798  0.0229  0.0575  0.3794
 5995TIP3    H139544   0.465   5.966   1.734  1.7387  2.1170 -0.0332
 5995TIP3    H239545   0.389   5.953   1.864  0.8647 -1.5845 -0.8096
 5996TIP3   OH239546   5.647   5.112   1.169 -0.5822  0.2494  0.0064
 5996TIP3    H139547   5.626   5.072   1.253 -0.8045 -0.4887 -0.3937
 5996TIP3    H239548   5.596   5.193   1.167  0.3978  0.9197  1.1172
 5997TIP3   OH239549   3.592   4.633   2.129 -0.0577  0.1794 -0.4013
 5997TIP3    H139550   3.505   4.669   2.145 -1.1909 -2.5249  0.1692
 5997TIP3    H239551   3.576   4.550   2.085  2.1952 -0.6621  0.1840
 5998TIP3   OH239552   5.215   5.286   1.110  0.6001 -0.0777 -0.2598
 5998TIP3    H139553   5.242   5.330   1.029 -0.5110  2.4865  0.6591
 5998TIP3    H239554   5.287   5.300   1.171  0.5205 -0.1107 -0.1567
 5999TIP3   OH239555   0.391   3.919   8.295  0.1773  0.1976  0.6046
 5999TIP3    H139556   0.347   3.969   8.227  1.0790 -0.2421 -0.3164
 5999TIP3    H239557   0.335   3.843   8.310  0.1534  0.1198  0.1140
 6000TIP3   OH239558   0.418   0.321   2.843 -0.7468  0.5087  0.0131
 6000TIP3    H139559   0.427   0.327   2.748 -1.4027 -0.2971 -0.1151
 6000TIP3    H239560   0.506   0.335   2.877 -0.4330  0.4038 -0.7436
 6001TIP3   OH239561   5.668   3.451   0.803  0.4494 -0.0420 -0.0289
 6001TIP3    H139562   5.708   3.368   0.778 -0.2880 -0.3489 -0.2257
 6001TIP3    H239563   5.626   3.482   0.723 -0.4274 -0.1596  0.3686
 6002TIP3   OH239564   2.353   5.691   3.235  0.3069 -0.0844 -0.5432
 6002TIP3    H139565   2.357   5.721   3.144  2.4252  0.3550 -0.3469
 6002TIP3    H239566   2.444   5.674   3.259 -0.1127  0.6165  1.7640
 6003TIP3   OH239567   4.131   2.596   2.214  0.1898  0.5192 -0.3798
 6003TIP3    H139568   4.053   2.576   2.163  0.1219 -0.8472  0.2001
 6003TIP3    H239569   4.147   2.517   2.266  1.7594  0.8899 -0.2281
 6004TIP3   OH239570   4.457   4.458   8.199 -0.0479  0.4424  0.3822
 6004TIP3    H139571   4.405   4.535   8.174 -0.4787 -0.1662 -0.6567
 6004TIP3    H239572   4.410   4.420   8.273 -0.3195  0.6840  0.3364
 6005TIP3   OH239573   1.167   2.695   0.632  0.1498 -0.2140 -0.1836
 6005TIP3    H139574   1.127   2.632   0.572 -0.6606  0.4093 -0.3063
 6005TIP3    H239575   1.122   2.777   0.614  0.0962  0.0486  1.0764
 6006TIP3   OH239576   4.548   0.347   2.720 -0.1546 -0.6524  0.1012
 6006TIP3    H139577   4.564   0.255   2.695  1.0007 -0.4834  0.1518
 6006TIP3    H239578   4.522   0.343   2.812 -1.0765 -0.9949 -0.1575
 6007TIP3   OH239579   6.729   3.479   1.388  0.3491 -0.3421 -0.2107
 6007TIP3    H139580   6.795   3.518   1.331 -1.0134 -0.0557 -1.6490
 6007TIP3    H239581   6.646   3.519   1.361 -0.3010  0.2965  2.4054
 6008TIP3   OH239582   5.175   2.632   1.873 -0.3447 -0.0267 -0.0625
 6008TIP3    H139583   5.265   2.600   1.878  0.8745  3.0371 -0.2658
 6008TIP3    H239584   5.143   2.630   1.963  1.5511  2.7917  0.8153
 6009TIP3   OH239585   1.020   3.327   0.384 -0.0302  0.2762  0.4502
 6009TIP3    H139586   0.953   3.334   0.453  0.1243 -0.6180  0.7020
 6009TIP3    H239587   0.996   3.395   0.321 -1.2600 -0.1148  0.4749
 6010TIP3   OH239588   3.814   5.956   0.385  0.7643 -0.1150 -0.3170
 6010TIP3    H139589   3.866   6.028   0.420  1.4524 -1.4528  1.6076
 6010TIP3    H239590   3.730   5.963   0.432  0.7706 -0.4433 -0.2534
 6011TIP3   OH239591   2.734   6.423   3.553 -0.0861  0.9586  0.1220
 6011TIP3    H139592   2.690   6.480   3.617 -1.0968  1.1327 -0.6935
 6011TIP3    H239593   2.766   6.483   3.486 -0.2770  0.6587 -0.2397
 6012TIP3   OH239594   3.690   2.314   2.832 -0.1955  0.0215 -0.3815
 6012TIP3    H139595   3.659   2.405   2.826  1.5449  0.7700  1.0613
 6012TIP3    H239596   3.620   2.269   2.880  0.5973  1.5790  2.5006
 6013TIP3   OH239597   5.657   0.644   0.453  0.6321 -0.1156 -0.1728
 6013TIP3    H139598   5.580   0.669   0.402  0.1607  1.7177  1.3034
 6013TIP3    H239599   5.703   0.727   0.469  2.1998 -1.0013  0.1158
 6014TIP3   OH239600   4.059   3.936   8.098 -0.0731 -0.0187 -0.4216
 6014TIP3    H139601   4.002   4.006   8.066  1.9904  2.2149  0.4746
 6014TIP3    H239602   4.081   3.886   8.019 -1.5599  0.3459 -1.1076
 6015TIP3   OH239603   5.232   2.131   8.620  0.0992 -0.6599 -0.0504
 6015TIP3    H139604   5.197   2.131   8.709 -1.9058 -0.9596 -0.7923
 6015TIP3    H239605   5.241   2.223   8.597 -2.7553 -0.4744 -0.7312
 6016TIP3   OH239606   6.213   2.620   0.788  0.5637  0.1815 -0.0973
 6016TIP3    H139607   6.134   2.592   0.741  0.2529 -0.2324  0.6525
 6016TIP3    H239608   6.285   2.586   0.736  0.2074 -2.5945  1.0652
 6017TIP3   OH239609   1.466   2.817   2.575  0.2231  0.2672  0.0385
 6017TIP3    H139610   1.430   2.905   2.566  1.5637  0.6553 -2.1621
 6017TIP3    H239611   1.410   2.763   2.519  0.2522 -0.0407  0.3005
 6018TIP3   OH239612   0.199   1.178   2.766  0.0111  0.3010  0.5065
 6018TIP3    H139613   0.244   1.169   2.682 -0.1469 -0.8142  0.5329
 6018TIP3    H239614   0.239   1.112   2.822 -1.0701 -0.1480  0.7794
 6019TIP3   OH239615   5.117   0.779   7.952  0.1483  0.0535  0.2334
 6019TIP3    H139616   5.022   0.782   7.946  0.2584  0.9587 -1.7528
 6019TIP3    H239617   5.148   0.818   7.871  2.2359 -1.0111  0.4375
 6020TIP3   OH239618   4.478   3.466   0.139 -0.8393  0.2687  0.2968
 6020TIP3    H139619   4.454   3.527   0.070 -2.8837 -1.0191 -0.2368
 6020TIP3    H239620   4.491   3.382   0.094 -0.4795 -0.2113  1.2682
 6021TIP3   OH239621   1.112   5.559   1.035  0.2788  0.2263  0.1061
 6021TIP3    H139622   1.112   5.559   0.939  2.0247  0.1806  0.0857
 6021TIP3    H239623   1.033   5.609   1.059 -0.9604 -0.9412 -1.3167
 6022TIP3   OH239624   4.124   2.055   3.773  0.2142  0.2798 -0.4472
 6022TIP3    H139625   4.072   2.132   3.798 -0.8230 -0.2165 -1.0253
 6022TIP3    H239626   4.175   2.034   3.851  0.5125  1.5453 -0.2732
 6023TIP3   OH239627   0.188   5.894   8.510  0.3356  0.5343 -0.1524
 6023TIP3    H139628   0.257   5.936   8.459  0.8320 -0.3526 -0.2205
 6023TIP3    H239629   0.146   5.834   8.449 -0.8928  1.4634 -0.2751
 6024TIP3   OH239630   5.024   2.414   8.757 -0.2747 -0.1254  0.1182
 6024TIP3    H139631   5.033   2.481   8.689  0.7603 -0.1716  0.1832
 6024TIP3    H239632   5.019   2.463   8.839  0.7634 -0.1113  0.1907
 6025TIP3   OH239633   5.760   4.860   1.959  0.0312 -0.3968  0.1793
 6025TIP3    H139634   5.705   4.936   1.940 -0.5738 -0.6416  0.9165
 6025TIP3    H239635   5.783   4.825   1.873 -1.1265 -0.4022 -0.1371
 6026TIP3   OH239636   5.071   5.760   7.394  0.7219  0.4178  0.2209
 6026TIP3    H139637   5.090   5.676   7.437  1.6581  0.8974  0.7782
 6026TIP3    H239638   5.116   5.754   7.310  1.0683  0.4836  0.3993
 6027TIP3   OH239639   3.456   5.735   0.753  0.1455  0.6085 -1.0179
 6027TIP3    H139640   3.549   5.716   0.763 -0.1765 -0.8676 -0.6102
 6027TIP3    H239641   3.444   5.819   0.797  1.1255  0.3979 -0.3117
 6028TIP3   OH239642   6.632   2.738   0.027 -0.2442 -0.2665 -0.3807
 6028TIP3    H139643   6.702   2.766  -0.031 -0.8575 -1.2669 -1.6512
 6028TIP3    H239644   6.637   2.798   0.102  2.1719 -0.5280 -0.2542
 6029TIP3   OH239645   0.663   6.464   8.033  0.8729 -0.0811  0.2604
 6029TIP3    H139646   0.627   6.389   7.985 -0.9653  1.7637 -1.4409
 6029TIP3    H239647   0.617   6.464   8.117  0.2460 -0.3866 -0.0744
 6030TIP3   OH239648   5.920   4.352   2.399 -0.1608 -0.0814  0.4531
 6030TIP3    H139649   5.826   4.370   2.401 -0.0313  0.8247 -0.5227
 6030TIP3    H239650   5.927   4.257   2.396 -1.0622 -0.1314 -0.1362
 6031TIP3   OH239651   6.718   6.815   1.680 -0.0215  0.8030  0.7891
 6031TIP3    H139652   6.782   6.879   1.650  1.7339 -0.6304  1.3178
 6031TIP3    H239653   6.770   6.739   1.706 -2.0516 -1.2572 -0.7230
 6032TIP3   OH239654   3.356   3.664   4.274  0.0874  0.5635  0.0904
 6032TIP3    H139655   3.298   3.724   4.319  0.4235  1.3629 -0.5192
 6032TIP3    H239656   3.316   3.578   4.285 -1.0815  1.0704 -0.1078
 6033TIP3   OH239657   2.362   0.416   3.974 -0.3781 -0.0158 -0.0444
 6033TIP3    H139658   2.292   0.351   3.972 -0.8133  0.4572 -0.5291
 6033TIP3    H239659   2.415   0.391   4.050 -1.1355 -0.3144  0.4032
 6034TIP3   OH239660   4.373   2.628   8.498  0.2026 -0.1177 -0.3502
 6034TIP3    H139661   4.441   2.690   8.525 -0.8200  0.9713 -0.1658
 6034TIP3    H239662   4.309   2.631   8.568 -0.1202 -0.9986 -0.6001
 6035TIP3   OH239663   6.360   6.696   2.336 -0.0780  0.2090  0.2355
 6035TIP3    H139664   6.296   6.642   2.290  2.1930 -2.5627  0.0310
 6035TIP3    H239665   6.419   6.728   2.267 -0.5284  1.7567  0.5374
 6036TIP3   OH239666   5.536   3.619   1.424 -0.0158 -0.0765 -0.3722
 6036TIP3    H139667   5.595   3.680   1.469 -1.8826  0.4773  1.4651
 6036TIP3    H239668   5.532   3.543   1.482 -0.5213 -0.4254 -0.8533
 6037TIP3   OH239669   3.027   1.530   0.081  0.2351 -0.5456  0.0870
 6037TIP3    H139670   3.052   1.526  -0.012 -1.4334  1.7473 -0.5628
 6037TIP3    H239671   3.110   1.523   0.128  1.3724  0.2400 -1.6723
 6038TIP3   OH239672   4.484   5.794   0.842  0.2580 -0.0161  0.0200
 6038TIP3    H139673   4.578   5.799   0.821  0.3352 -0.6644  0.1806
 6038TIP3    H239674   4.462   5.702   0.826 -0.6024  0.3518 -1.0601
 6039TIP3   OH239675   2.602   2.296   2.583  0.0128 -0.1262 -0.3508
 6039TIP3    H139676   2.606   2.389   2.561  0.8601  0.2073  1.0781
 6039TIP3    H239677   2.615   2.251   2.500  1.1501  1.0454 -0.8398
 6040TIP3   OH239678   1.992   4.866   8.729  0.0426  0.2230  0.0005
 6040TIP3    H139679   1.947   4.826   8.803  0.9808  1.3254  1.2052
 6040TIP3    H239680   1.929   4.860   8.657 -0.9213 -0.7942  0.8829
 6041TIP3   OH239681   2.694   4.849   1.698  0.2536  0.8726  0.9199
 6041TIP3    H139682   2.611   4.840   1.650  0.1572 -0.8610  1.3688
 6041TIP3    H239683   2.706   4.944   1.706 -1.0052  1.1699 -0.3093
 6042TIP3   OH239684   1.729   2.959   1.731 -0.0537  0.5458  0.3997
 6042TIP3    H139685   1.638   2.930   1.727 -0.0165  0.5191 -2.3054
 6042TIP3    H239686   1.781   2.879   1.722  0.1963  0.6987  0.4608
 6043TIP3   OH239687   3.220   0.398   8.214  0.1286  0.2831  0.4145
 6043TIP3    H139688   3.265   0.396   8.298  0.9407  0.1187 -0.0068
 6043TIP3    H239689   3.288   0.373   8.150 -0.9305 -1.4576 -0.0887
 6044TIP3   OH239690   2.593   0.196   1.604  0.0145  0.3146 -0.0671
 6044TIP3    H139691   2.648   0.124   1.572  0.7254  1.0547 -0.5708
 6044TIP3    H239692   2.645   0.274   1.588 -1.3548  1.0915 -0.9685
 6045TIP3   OH239693   1.358   4.272   0.777 -0.7254 -0.1244 -0.4620
 6045TIP3    H139694   1.429   4.220   0.738 -1.3291 -0.0658 -1.6901
 6045TIP3    H239695   1.304   4.208   0.823  0.2595 -0.1327  0.7349
 6046TIP3   OH239696   3.209   1.635   0.915 -0.6712  0.3940 -0.0256
 6046TIP3    H139697   3.200   1.668   1.004 -0.8867 -2.5504  1.1711
 6046TIP3    H239698   3.164   1.699   0.861  1.3375  3.4370  1.6092
 6047TIP3   OH239699   4.025   3.792   3.368  0.0568  0.5137 -0.6162
 6047TIP3    H139700   3.988   3.712   3.330 -1.2550  1.5978 -1.7224
 6047TIP3    H239701   4.106   3.807   3.320 -0.1513  0.3186 -1.0333
 6048TIP3   OH239702   6.231   0.231   0.222  0.0368 -0.1768  0.0211
 6048TIP3    H139703   6.166   0.183   0.273  0.1482  0.5452  0.8837
 6048TIP3    H239704   6.315   0.194   0.248  0.0573 -0.2274 -0.1142
 6049TIP3   OH239705   2.306   4.313   3.002  0.1652 -0.1511 -0.6549
 6049TIP3    H139706   2.264   4.343   2.921 -1.5447 -0.8465 -0.0779
 6049TIP3    H239707   2.379   4.373   3.015 -0.9277  1.4348 -1.4762
 6050TIP3   OH239708   4.164   5.923   0.459  0.2384  0.2710 -1.1290
 6050TIP3    H139709   4.192   5.889   0.374 -1.2828  1.6023 -2.2303
 6050TIP3    H239710   4.233   5.984   0.486  2.0617 -2.1025 -0.0305
 6051TIP3   OH239711   0.770   3.728   1.957 -0.0487  0.2496 -0.8490
 6051TIP3    H139712   0.683   3.695   1.937  0.3454 -0.7111 -1.0070
 6051TIP3    H239713   0.818   3.653   1.991  0.5968  0.8664 -0.3554
 6052TIP3   OH239714   0.610   3.600   1.663  0.1320 -0.2944  0.2110
 6052TIP3    H139715   0.586   3.691   1.645 -0.4613  0.0437  2.3946
 6052TIP3    H239716   0.528   3.552   1.656 -0.2899 -0.0271  2.4074
 6053TIP3   OH239717   6.281   4.408   8.579  0.2217 -0.1712  0.8844
 6053TIP3    H139718   6.239   4.334   8.623 -2.0571  0.2603 -0.3719
 6053TIP3    H239719   6.266   4.393   8.486  1.2177  1.0193  0.4952
 6054TIP3   OH239720   2.169   5.868   3.448  0.6351 -0.3323 -1.0901
 6054TIP3    H139721   2.234   5.927   3.488 -1.0401 -0.2886  1.8705
 6054TIP3    H239722   2.215   5.785   3.439  1.2861 -0.2087  0.6031
 6055TIP3   OH239723   5.121   2.860   1.093 -0.1830 -0.4337  0.0952
 6055TIP3    H139724   5.087   2.906   1.170 -2.0403 -0.9333 -0.3733
 6055TIP3    H239725   5.110   2.767   1.115  0.4419 -0.6094 -0.3027
 6056TIP3   OH239726   3.658   4.384   1.990  0.0462  0.1512 -0.3215
 6056TIP3    H139727   3.746   4.368   1.956  0.4254  2.2961 -0.5274
 6056TIP3    H239728   3.601   4.376   1.914  0.0043 -1.4498 -0.1487
 6057TIP3   OH239729   1.068   4.134   1.713  0.6923  0.1377 -0.2070
 6057TIP3    H139730   1.142   4.103   1.766 -0.5332  0.9104  2.0895
 6057TIP3    H239731   0.992   4.090   1.750 -0.3896  1.7632 -0.4120
 6058TIP3   OH239732   5.421   3.892   8.474  0.2781  0.6210 -0.1502
 6058TIP3    H139733   5.515   3.894   8.457  0.3615  0.5146  0.2836
 6058TIP3    H239734   5.393   3.984   8.469  0.2753  0.5846 -0.9579
 6059TIP3   OH239735   5.612   1.230   1.339  0.1814  0.6682 -0.2867
 6059TIP3    H139736   5.680   1.172   1.373  0.6932  2.5057  2.1420
 6059TIP3    H239737   5.533   1.205   1.386 -0.4255 -0.1921 -1.6987
 6060TIP3   OH239738   6.244   5.569   8.381  0.3680  0.2616 -0.8012
 6060TIP3    H139739   6.243   5.474   8.390  0.1170  0.4357  2.0354
 6060TIP3    H239740   6.153   5.592   8.362  0.3404 -0.0316 -1.0374
 6061TIP3   OH239741   6.350   2.145   1.236 -0.3783 -0.7115 -0.2699
 6061TIP3    H139742   6.438   2.146   1.198 -0.0183  2.6868  0.3517
 6061TIP3    H239743   6.294   2.183   1.168 -0.4044  1.7638  1.0381
 6062TIP3   OH239744   5.484   4.834   7.676 -0.2581 -0.1854 -0.0854
 6062TIP3    H139745   5.568   4.827   7.722 -0.2794  1.5529  0.2779
 6062TIP3    H239746   5.498   4.788   7.594  0.7643 -0.7027  0.3583
 6063TIP3   OH239747   4.203   1.231   3.159  0.1445 -0.3295  0.2799
 6063TIP3    H139748   4.204   1.323   3.186 -1.9980 -0.2673  0.3346
 6063TIP3    H239749   4.291   1.198   3.180  0.8790  1.6248  0.4642
 6064TIP3   OH239750   0.279   4.756   1.511  0.2502  0.2301 -0.5692
 6064TIP3    H139751   0.184   4.761   1.525  0.4399  0.8426  0.6273
 6064TIP3    H239752   0.292   4.673   1.464 -0.7305 -0.7321  0.7665
 6065TIP3   OH239753   6.104   0.664   3.062  0.0161 -0.1952 -0.0523
 6065TIP3    H139754   6.152   0.618   2.993  0.0625  0.4909 -0.4839
 6065TIP3    H239755   6.158   0.652   3.140 -0.5560 -1.8848  0.1462
 6066TIP3   OH239756   2.588   6.652   2.113  0.7525 -0.4052  0.1374
 6066TIP3    H139757   2.512   6.705   2.092  2.4594  2.7567  1.3492
 6066TIP3    H239758   2.618   6.685   2.197  4.9596  0.4448 -1.4424
 6067TIP3   OH239759   0.273   6.501   2.265  0.2294  0.3344 -0.3023
 6067TIP3    H139760   0.362   6.532   2.253  0.5326  0.4467  1.8218
 6067TIP3    H239761   0.251   6.458   2.183  2.2971  0.1628 -0.8172
 6068TIP3   OH239762   5.213   6.054   1.051  0.3651  0.1917 -0.2529
 6068TIP3    H139763   5.269   6.095   1.118 -0.6197 -1.0896  1.4438
 6068TIP3    H239764   5.139   6.114   1.043  1.1538  1.0693 -1.3041
 6069TIP3   OH239765   6.717   1.403   7.867  0.2484 -0.0611 -0.0448
 6069TIP3    H139766   6.718   1.397   7.963 -1.1171  0.6889  0.0451
 6069TIP3    H239767   6.706   1.312   7.838 -0.0417 -0.2173  0.5382
 6070TIP3   OH239768   1.949   2.686   3.435  0.3473 -0.0597  0.5674
 6070TIP3    H139769   1.991   2.707   3.352 -0.2865 -2.0200 -0.3208
 6070TIP3    H239770   1.971   2.594   3.451 -0.2454  0.0344  2.1480
 6071TIP3   OH239771   3.279   1.094   3.279  0.4161 -0.0770 -0.5085
 6071TIP3    H139772   3.221   1.050   3.342  0.2840  0.5426 -0.1938
 6071TIP3    H239773   3.367   1.069   3.306  0.4012  0.8602  0.4432
 6072TIP3   OH239774   4.119   4.107   3.354 -0.0626 -0.6643  0.6402
 6072TIP3    H139775   4.157   4.038   3.301 -1.3263 -1.1169  0.2992
 6072TIP3    H239776   4.195   4.153   3.391  0.8550 -0.2676 -1.6026
 6073TIP3   OH239777   1.456   1.010   0.144 -0.1148  0.8695  0.4593
 6073TIP3    H139778   1.479   1.092   0.188 -0.5647  0.4187  1.5695
 6073TIP3    H239779   1.466   1.029   0.051 -0.1908  2.1755  0.7025
 6074TIP3   OH239780   1.288   1.420   0.198  0.2268  0.0218 -0.5274
 6074TIP3    H139781   1.258   1.333   0.171  0.7053 -0.8018  1.4497
 6074TIP3    H239782   1.383   1.411   0.205  0.7746  1.7611 -3.7678
 6075TIP3   OH239783   3.565   1.622   0.291  0.4477 -0.2769  0.1051
 6075TIP3    H139784   3.526   1.568   0.222 -0.7803 -0.2004  0.7134
 6075TIP3    H239785   3.648   1.579   0.312  1.1837  0.0694 -1.8638
 6076TIP3   OH239786   0.991   6.473   2.083 -0.5246 -0.3356  0.3677
 6076TIP3    H139787   0.901   6.445   2.070 -0.1501 -0.8949 -1.3620
 6076TIP3    H239788   1.026   6.413   2.149 -0.6033 -2.1010 -1.1259
 6077TIP3   OH239789   5.226   5.741   2.171 -0.3067 -0.4039  0.2999
 6077TIP3    H139790   5.189   5.655   2.188  0.0053 -0.4087  0.9763
 6077TIP3    H239791   5.254   5.773   2.257 -1.4724  0.8569  0.2574
 6078TIP3   OH239792   0.175   5.331   8.077  0.1807  0.5314 -0.6436
 6078TIP3    H139793   0.101   5.270   8.074  0.4087  0.2624 -0.8855
 6078TIP3    H239794   0.155   5.390   8.149  1.0122 -1.1831  1.0804
 6079TIP3   OH239795   3.235   1.586   3.198  0.1507 -0.3622 -0.3231
 6079TIP3    H139796   3.321   1.625   3.183 -0.1271  0.1777 -0.5617
 6079TIP3    H239797   3.174   1.648   3.159 -0.2441 -1.5788 -1.7283
 6080TIP3   OH239798   3.391   5.888   2.028 -0.2584  0.4319 -0.2212
 6080TIP3    H139799   3.304   5.846   2.024  0.7885 -1.8464 -1.1339
 6080TIP3    H239800   3.398   5.921   2.117 -2.1749  0.9514 -0.2205
 6081TIP3   OH239801   6.753   2.565   3.311  0.1343  0.1789 -0.0983
 6081TIP3    H139802   6.762   2.659   3.329  1.0404  0.1635 -0.4102
 6081TIP3    H239803   6.810   2.523   3.375 -2.2459 -0.3689  1.8055
 6082TIP3   OH239804   2.099   3.393   2.625  0.6574 -0.0117 -0.7367
 6082TIP3    H139805   2.107   3.335   2.549  3.1456  1.4293 -1.7048
 6082TIP3    H239806   2.089   3.480   2.587  0.2441  0.5602  0.6232
 6083TIP3   OH239807   5.001   0.145   2.665  0.2648  0.5753  0.3854
 6083TIP3    H139808   4.921   0.100   2.637  0.6257 -0.4793  0.9712
 6083TIP3    H239809   5.072   0.099   2.619  0.6212  0.7211  0.7796
 6084TIP3   OH239810   1.531   5.031   2.616  0.4588  0.0830  0.4076
 6084TIP3    H139811   1.492   5.116   2.634 -1.5600 -0.3908 -1.3293
 6084TIP3    H239812   1.487   4.970   2.675  0.3105 -0.0908  0.1207
 6085TIP3   OH239813   5.508   5.837   2.594  0.6824 -0.0648  0.2023
 6085TIP3    H139814   5.590   5.816   2.639 -0.2425 -2.0253  1.0610
 6085TIP3    H239815   5.442   5.835   2.663 -0.6044 -1.9755 -1.0023
 6086TIP3   OH239816   1.264   2.978   8.593  0.4445  0.0773 -0.0326
 6086TIP3    H139817   1.270   2.882   8.589  0.5637  0.0276  1.0193
 6086TIP3    H239818   1.180   2.998   8.554 -0.0257 -0.5380  0.6368
 6087TIP3   OH239819   3.064   1.104   2.664 -0.6991  0.0766  0.1562
 6087TIP3    H139820   3.088   1.165   2.594  1.9409 -1.1924 -0.1950
 6087TIP3    H239821   3.015   1.157   2.726  0.6143  2.3373 -0.6103
 6088TIP3   OH239822   2.730   5.176   8.716  0.0830  0.5595 -0.4076
 6088TIP3    H139823   2.765   5.107   8.659  1.9927  0.1462  1.1550
 6088TIP3    H239824   2.800   5.241   8.720 -0.1353  0.7192  1.1856
 6089TIP3   OH239825   2.526   0.489   8.758  0.2239 -0.4892 -0.8487
 6089TIP3    H139826   2.597   0.510   8.819 -0.4868  2.0755 -0.7876
 6089TIP3    H239827   2.560   0.416   8.706  3.6208  1.6089 -1.8802
 6090TIP3   OH239828   4.527   4.329   2.854  0.4443  0.5632 -0.5367
 6090TIP3    H139829   4.596   4.387   2.823  0.6367 -0.1272 -1.4257
 6090TIP3    H239830   4.560   4.241   2.839  0.0137  0.2030  0.4891
 6091TIP3   OH239831   1.557   6.239   2.320  0.5355 -0.9532 -0.3740
 6091TIP3    H139832   1.556   6.151   2.282  2.5510 -0.4159 -1.8050
 6091TIP3    H239833   1.498   6.290   2.265  0.9964 -0.9299 -0.8540
 6092TIP3   OH239834   6.449   6.007   0.138 -0.2116  0.0131  0.3728
 6092TIP3    H139835   6.487   6.088   0.104  0.5834 -0.3529  0.3873
 6092TIP3    H239836   6.359   6.007   0.104 -0.3900  1.1571  0.8069
 6093TIP3   OH239837   2.681   3.933   2.917  0.4924 -0.4823 -0.2290
 6093TIP3    H139838   2.596   3.903   2.951  0.8020 -0.6556  0.4042
 6093TIP3    H239839   2.675   4.029   2.920  0.5102 -0.4951  0.3091
 6094TIP3   OH239840   3.729   4.064   2.805 -0.1363  0.2142 -0.0735
 6094TIP3    H139841   3.652   4.098   2.851 -0.2399 -0.2610  0.1091
 6094TIP3    H239842   3.720   4.097   2.715  0.3053  1.5427  0.3408
 6095TIP3   OH239843   1.319   3.819   3.398 -0.0001 -0.1805  0.5988
 6095TIP3    H139844   1.255   3.889   3.388 -1.1715 -1.1915  0.8039
 6095TIP3    H239845   1.369   3.843   3.477  0.3895  0.9794  0.0233
 6096TIP3   OH239846   4.671   1.476   1.494  0.5028 -0.2280 -0.0745
 6096TIP3    H139847   4.633   1.486   1.581  0.9531 -1.4614  0.2819
 6096TIP3    H239848   4.634   1.395   1.460 -0.3763  0.6996 -1.4324
 6097TIP3   OH239849   5.971   0.888   3.049  0.0683 -0.0357 -0.6029
 6097TIP3    H139850   6.005   0.799   3.055  1.3170  0.4919  0.4695
 6097TIP3    H239851   6.032   0.941   3.099  0.2231  1.6855 -2.4822
 6098TIP3   OH239852   4.978   5.341   7.620 -0.5302 -0.8190  0.0361
 6098TIP3    H139853   4.894   5.349   7.665 -0.1200 -1.0785  0.8546
 6098TIP3    H239854   5.013   5.256   7.647  0.2069 -0.5179  0.0671
 6099TIP3   OH239855   0.062   3.616   0.972  0.2935  0.0483 -0.1007
 6099TIP3    H139856   0.061   3.595   0.879 -1.7743 -1.3876  0.1814
 6099TIP3    H239857   0.031   3.706   0.978 -1.4291 -0.4675 -0.7222
 6100TIP3   OH239858   0.483   0.464   3.831  0.5088 -0.2050 -0.3844
 6100TIP3    H139859   0.413   0.472   3.896  1.1787  0.8700  0.2282
 6100TIP3    H239860   0.551   0.414   3.876  1.1452  0.8992 -0.0907
 6101TIP3   OH239861   6.758   6.581   0.815  0.1296  0.5077 -0.1036
 6101TIP3    H139862   6.792   6.670   0.821  1.1955  0.0549  1.0801
 6101TIP3    H239863   6.695   6.574   0.887  0.6154  0.0866  0.2899
 6102TIP3   OH239864   3.457   4.988   1.770  0.2459  0.4041 -0.2011
 6102TIP3    H139865   3.437   5.078   1.746  2.1211  0.8665 -0.2501
 6102TIP3    H239866   3.506   4.954   1.695  0.5609 -0.2607  0.2915
 6103TIP3   OH239867   1.012   0.027   0.623 -0.9520  0.3617 -0.3398
 6103TIP3    H139868   0.933   0.074   0.647 -1.7752 -1.2043  0.1550
 6103TIP3    H239869   1.064   0.024   0.703 -0.8629  0.4856 -0.3922
 6104TIP3   OH239870   2.127   6.095   0.926 -0.3501  0.2866  0.0580
 6104TIP3    H139871   2.211   6.111   0.883 -1.2574  0.7739 -1.6607
 6104TIP3    H239872   2.095   6.014   0.886 -0.5186 -0.1355  1.0177
 6105TIP3   OH239873   2.977   6.188   0.644 -0.1003  0.4637  0.1889
 6105TIP3    H139874   2.896   6.144   0.617  0.1714 -1.0085  1.6001
 6105TIP3    H239875   2.948   6.261   0.698 -0.5578  2.1671 -2.1592
 6106TIP3   OH239876   6.214   6.635   1.032 -0.4921 -0.4422  0.1213
 6106TIP3    H139877   6.201   6.662   1.123 -4.5495 -0.4828 -0.2648
 6106TIP3    H239878   6.305   6.603   1.030  0.4008  1.2818  3.6258
 6107TIP3   OH239879   4.258   4.150   2.106  0.5092 -0.1429  0.7802
 6107TIP3    H139880   4.309   4.160   2.186 -0.4895 -0.9897  1.5624
 6107TIP3    H239881   4.167   4.146   2.137 -0.1603  2.2491 -0.6230
 6108TIP3   OH239882   4.675   0.240   2.450  0.1110 -0.3142  0.8938
 6108TIP3    H139883   4.621   0.189   2.510 -1.0472 -0.0489  0.1242
 6108TIP3    H239884   4.620   0.251   2.372  0.7406  1.1734  0.6159
 6109TIP3   OH239885   6.209   2.319   3.539  0.3194 -0.2596  0.2915
 6109TIP3    H139886   6.239   2.390   3.483  0.8325 -1.0783 -0.4945
 6109TIP3    H239887   6.201   2.244   3.481 -0.0760 -0.8920  1.1341
 6110TIP3   OH239888   3.111   5.767   0.458  0.3156 -0.3097 -0.0879
 6110TIP3    H139889   3.192   5.716   0.464  0.0099 -0.9453 -1.1096
 6110TIP3    H239890   3.131   5.837   0.396  0.2583 -0.1183  0.1092
 6111TIP3   OH239891   4.550   3.570   1.988  0.3975 -0.8305 -0.0580
 6111TIP3    H139892   4.611   3.547   2.059  1.8647 -0.4483 -1.1306
 6111TIP3    H239893   4.537   3.664   1.998  1.0207 -0.6764 -0.5577
 6112TIP3   OH239894   0.840   3.067   0.702 -0.5137 -0.3067 -0.3049
 6112TIP3    H139895   0.809   3.157   0.696  0.3131  0.1575  1.7927
 6112TIP3    H239896   0.760   3.014   0.705 -1.0189  0.1811 -2.7038
 6113TIP3   OH239897   1.048   1.686   8.704  0.0138 -0.6127  0.6375
 6113TIP3    H139898   1.094   1.602   8.712  1.8360  0.1103 -1.1951
 6113TIP3    H239899   0.962   1.663   8.668  0.8023 -1.6620 -0.6608
 6114TIP3   OH239900   0.415   2.009   1.443 -0.4286 -0.1329  0.7015
 6114TIP3    H139901   0.425   2.065   1.520  0.1733 -0.4120  0.8356
 6114TIP3    H239902   0.364   2.061   1.381  1.2048  1.0686  0.3226
 6115TIP3   OH239903   5.510   0.913   2.499 -0.3693 -0.2585  0.3199
 6115TIP3    H139904   5.461   0.841   2.459  4.4842 -4.6699  1.2065
 6115TIP3    H239905   5.582   0.930   2.440  1.8872 -0.4288  2.8301
 6116TIP3   OH239906   3.408   4.803   8.726  0.1988  0.5699  0.0523
 6116TIP3    H139907   3.425   4.895   8.745 -1.6080  1.2940 -1.5579
 6116TIP3    H239908   3.360   4.803   8.643  1.4410 -1.9312 -0.7960
 6117TIP3   OH239909   4.189   5.110   1.823  0.6408 -0.5196 -0.6389
 6117TIP3    H139910   4.177   5.198   1.789  1.6099 -0.6977 -1.5058
 6117TIP3    H239911   4.262   5.117   1.884  0.6169 -0.6844 -0.5903
 6118TIP3   OH239912   0.900   5.751   1.102  0.1004 -0.6687  0.6178
 6118TIP3    H139913   0.867   5.840   1.117 -0.0188 -0.5240 -0.4479
 6118TIP3    H239914   0.912   5.746   1.007  0.7945 -1.5517  0.7437
 6119TIP3   OH239915   2.834   1.455   3.239  0.1938  0.6363 -0.1934
 6119TIP3    H139916   2.862   1.416   3.157 -0.3377  0.7895 -0.4463
 6119TIP3    H239917   2.899   1.423   3.303 -0.5723 -1.1961 -0.2542
 6120TIP3   OH239918   3.816   6.152   2.962  0.0227 -0.3974  0.4441
 6120TIP3    H139919   3.839   6.221   2.900  0.2254  0.3679  1.3507
 6120TIP3    H239920   3.894   6.096   2.965  0.6991  0.5632  1.3346
 6121TIP3   OH239921   6.651   6.666   1.970  0.1063  0.4151  0.4756
 6121TIP3    H139922   6.610   6.656   1.884 -1.1865  0.6461  1.0566
 6121TIP3    H239923   6.722   6.601   1.970 -0.0146  0.2629 -0.6795
 6122TIP3   OH239924   3.673   1.392   0.990  0.0904  0.4486  0.8145
 6122TIP3    H139925   3.724   1.472   1.006 -0.3967  0.7827  0.7533
 6122TIP3    H239926   3.582   1.421   0.997 -0.0965 -0.0167  0.3732
 6123TIP3   OH239927   0.645   5.102   1.649 -0.1518 -0.1593  0.4472
 6123TIP3    H139928   0.554   5.131   1.653 -0.2469 -0.1821 -0.8734
 6123TIP3    H239929   0.659   5.053   1.730 -1.5540 -0.8009  0.3232
 6124TIP3   OH239930   3.315   0.939   1.836 -0.1373 -0.0137  0.0240
 6124TIP3    H139931   3.327   0.844   1.845  0.5120 -0.2794 -2.6752
 6124TIP3    H239932   3.220   0.950   1.833 -0.3054 -0.2518  2.5351
 6125TIP3   OH239933   2.398   5.504   0.915 -0.2797  0.5334 -0.0296
 6125TIP3    H139934   2.413   5.582   0.862 -0.5876  1.2220  0.8829
 6125TIP3    H239935   2.426   5.431   0.859  0.2617  1.3114 -0.7860
 6126TIP3   OH239936   1.393   4.958   2.856  0.3830 -0.0804 -0.2491
 6126TIP3    H139937   1.326   5.022   2.831  0.4052  0.2709  0.5502
 6126TIP3    H239938   1.439   4.999   2.930  0.3171 -1.0692  0.3530
 6127TIP3   OH239939   2.316   2.824   1.836  0.2617  0.0254  0.3995
 6127TIP3    H139940   2.369   2.854   1.762 -2.7967 -0.5572 -2.2790
 6127TIP3    H239941   2.270   2.903   1.866 -0.9255 -0.2584 -0.5738
 6128TIP3   OH239942   3.422   3.046   8.123  0.5461 -0.6718  0.3218
 6128TIP3    H139943   3.457   3.135   8.126  2.3893 -1.2867 -1.1860
 6128TIP3    H239944   3.452   3.005   8.204 -2.6255  0.7702  2.4237
 6129TIP3   OH239945   3.405   0.571   1.174  0.3454  0.1598 -0.1318
 6129TIP3    H139946   3.418   0.632   1.247 -1.5414 -1.1307  1.4045
 6129TIP3    H239947   3.492   0.536   1.156  0.8552  0.4895  1.5457
 6130TIP3   OH239948   4.730   6.538   0.217 -0.1621  0.9374  0.3995
 6130TIP3    H139949   4.800   6.603   0.214 -0.1477  0.8790 -1.7888
 6130TIP3    H239950   4.727   6.501   0.129 -2.3498  0.2843  0.6833
 6131TIP3   OH239951   2.969   1.951   0.148  0.1763  0.1229 -0.3384
 6131TIP3    H139952   2.994   1.921   0.061  0.7729  1.6115 -0.7096
 6131TIP3    H239953   3.044   1.928   0.203 -0.8673 -2.3516  0.2122
 6132TIP3   OH239954   5.245   1.763   3.180  0.3676  0.6237  0.3125
 6132TIP3    H139955   5.227   1.845   3.135  1.3014  1.6820  1.7996
 6132TIP3    H239956   5.325   1.730   3.140 -0.1608  0.2702 -0.4788
 6133TIP3   OH239957   5.398   2.108   2.885 -0.3211 -0.0832 -0.0883
 6133TIP3    H139958   5.465   2.167   2.921 -1.0337 -0.1778  1.5029
 6133TIP3    H239959   5.447   2.031   2.856  0.2685 -0.3557  1.4835
 6134TIP3   OH239960   5.253   4.554   8.577 -0.0002  0.2312  0.0331
 6134TIP3    H139961   5.262   4.641   8.616  0.8047  0.1259  0.1056
 6134TIP3    H239962   5.221   4.571   8.489  0.2524  0.6180  0.0086
 6135TIP3   OH239963   1.195   6.732   0.466  0.3164 -0.0110 -0.4769
 6135TIP3    H139964   1.117   6.778   0.497  0.7447  1.3025 -1.2258
 6135TIP3    H239965   1.166   6.643   0.449 -0.7219  0.1463  0.3968
 6136TIP3   OH239966   0.437   5.803   3.085 -0.1185  0.1698  0.3357
 6136TIP3    H139967   0.410   5.849   3.163 -1.1509  1.8315 -0.9514
 6136TIP3    H239968   0.532   5.794   3.094 -0.2154  0.3781  1.7198
 6137TIP3   OH239969   5.034   0.066   0.970  0.3546  0.3166 -0.2591
 6137TIP3    H139970   5.104   0.003   0.990 -1.1952 -1.6077 -0.5039
 6137TIP3    H239971   4.984   0.024   0.900 -1.1002  1.5738 -0.0260
 6138TIP3   OH239972   6.212   0.311   8.725  0.3504  0.0001 -0.8569
 6138TIP3    H139973   6.243   0.397   8.755 -1.8770  0.7452 -0.5016
 6138TIP3    H239974   6.212   0.257   8.804 -0.9907  0.5616 -0.4433
 6139TIP3   OH239975   5.011   4.257   0.430  0.5575  0.1056 -0.8728
 6139TIP3    H139976   5.094   4.210   0.440  2.3159  3.2178  0.5206
 6139TIP3    H239977   4.977   4.267   0.519 -0.1594  0.8026 -1.2055
 6140TIP3   OH239978   4.324   6.371   1.878  0.6467  0.1932 -0.4927
 6140TIP3    H139979   4.282   6.457   1.881  0.1817  0.1133 -3.0211
 6140TIP3    H239980   4.413   6.387   1.910  0.7069  1.7331 -1.3402
 6141TIP3   OH239981   0.096   2.390   3.456 -0.3299 -0.3400 -0.9935
 6141TIP3    H139982   0.140   2.305   3.444  1.6757  0.5568 -0.4053
 6141TIP3    H239983   0.096   2.403   3.551  0.0249  0.6272 -1.1189
 6142TIP3   OH239984   1.904   0.937   1.426 -0.5505  0.1268 -0.6707
 6142TIP3    H139985   1.885   1.030   1.439  1.6815  0.4022  1.2703
 6142TIP3    H239986   1.924   0.929   1.333 -0.0895  1.7492 -0.7330
 6143TIP3   OH239987   5.042   3.721   3.495 -0.2288  0.0189 -0.1103
 6143TIP3    H139988   4.958   3.687   3.463  0.0421 -1.3009  0.5210
 6143TIP3    H239989   5.108   3.679   3.439  0.0166  1.5862 -1.0686
 6144TIP3   OH239990   1.019   2.112   2.445  0.2021 -0.0854  0.2476
 6144TIP3    H139991   0.935   2.083   2.408  0.3896  1.9107 -1.9038
 6144TIP3    H239992   0.996   2.186   2.501  0.4517 -0.0820  0.3474
 6145TIP3   OH239993   1.305   6.538   1.968  0.4704  0.0878  0.1488
 6145TIP3    H139994   1.244   6.504   1.902  0.1801  1.1709 -0.1648
 6145TIP3    H239995   1.308   6.632   1.951 -0.6862  0.6373  2.5480
 6146TIP3   OH239996   3.884   0.190   3.624  0.5054  0.4531 -0.1074
 6146TIP3    H139997   3.912   0.216   3.711  1.3216  2.1417 -0.8216
 6146TIP3    H239998   3.953   0.131   3.594 -0.1450 -0.7067  0.6439
 6147TIP3   OH239999   4.757   6.072   0.941 -0.3828 -0.0712 -0.0158
 6147TIP3    H140000   4.698   6.146   0.925 -0.5626 -0.0232  0.8709
 6147TIP3    H240001   4.791   6.086   1.029 -1.6018 -1.8665  0.7813
 6148TIP3   OH240002   6.246   5.939   8.746 -0.8503  0.1857 -0.3376
 6148TIP3    H140003   6.155   5.922   8.771 -0.2253 -2.2331  0.5394
 6148TIP3    H240004   6.260   5.886   8.668 -0.3875  1.1526 -0.9308
 6149TIP3   OH240005   3.314   4.236   1.883 -0.6302  0.2455  0.2288
 6149TIP3    H140006   3.353   4.299   1.823  0.5035 -2.7202 -2.4011
 6149TIP3    H240007   3.246   4.192   1.833 -1.7703 -0.3103  2.1382
 6150TIP3   OH240008   3.963   6.686   1.763  0.5759 -0.2019  0.5016
 6150TIP3    H140009   3.987   6.757   1.822  0.6736  0.0660  0.1488
 6150TIP3    H240010   3.943   6.731   1.680 -0.0567 -0.5217  0.4806
 6151TIP3   OH240011   4.330   4.514   2.927 -0.1950 -0.0118  0.3910
 6151TIP3    H140012   4.369   4.582   2.981  0.7176 -0.3221  0.1564
 6151TIP3    H240013   4.405   4.461   2.898 -0.9537 -1.6416  1.2824
 6152TIP3   OH240014   1.513   6.790   8.341  0.5691  0.3836  0.2477
 6152TIP3    H140015   1.438   6.844   8.316 -0.7053 -1.7619 -0.9511
 6152TIP3    H240016   1.542   6.750   8.259 -0.3189 -2.7908  1.3182
 6153TIP3   OH240017   6.467   6.725   0.770  0.1563 -0.1295 -0.4681
 6153TIP3    H140018   6.476   6.681   0.854  0.6795 -0.3912 -0.6578
 6153TIP3    H240019   6.483   6.657   0.704  0.3380  0.1945 -0.7690
 6154TIP3   OH240020   2.649   5.831   1.210 -0.7689 -0.2127  0.3623
 6154TIP3    H140021   2.739   5.822   1.178 -0.6464  1.9826 -0.0887
 6154TIP3    H240022   2.607   5.748   1.187  0.5521 -0.4526 -1.4110
 6155TIP3   OH240023   4.522   3.694   1.292  0.2142 -0.1774 -0.2987
 6155TIP3    H140024   4.563   3.677   1.207  0.3563 -0.0568 -0.2558
 6155TIP3    H240025   4.563   3.631   1.351  1.3829  0.8500  0.0521
 6156TIP3   OH240026   2.091   0.734   0.213  0.4410  0.4260  0.0347
 6156TIP3    H140027   2.043   0.673   0.158 -0.6281  1.4325 -0.2034
 6156TIP3    H240028   2.182   0.707   0.206  0.0962 -0.5915 -0.7415
 6157TIP3   OH240029   4.889   2.602   0.929 -0.1253 -0.7695 -0.8271
 6157TIP3    H140030   4.856   2.679   0.975  1.7167  1.4351 -2.8845
 6157TIP3    H240031   4.965   2.574   0.980  0.6891  0.4005 -1.3376
 6158TIP3   OH240032   2.866   4.165   1.978 -0.0205 -0.5810 -0.3258
 6158TIP3    H140033   2.799   4.233   1.978  1.1625  0.6432 -0.9663
 6158TIP3    H240034   2.830   4.096   1.923 -0.7452  0.0743 -0.6949
 6159TIP3   OH240035   2.745   3.434   0.224 -0.3295 -0.2369  0.3749
 6159TIP3    H140036   2.803   3.403   0.155 -1.4618  0.8198 -1.1316
 6159TIP3    H240037   2.759   3.529   0.225 -1.8931  0.0240  0.0584
 6160TIP3   OH240038   5.270   3.084   1.308 -0.3419  0.1013  0.3836
 6160TIP3    H140039   5.308   3.167   1.336 -0.5369 -0.0815  1.2141
 6160TIP3    H240040   5.175   3.099   1.309 -0.3527  0.1174 -0.2855
 6161TIP3   OH240041   0.081   2.388   2.558 -0.1962  0.0583  0.0419
 6161TIP3    H140042   0.100   2.477   2.587 -0.0843  0.0695 -0.0634
 6161TIP3    H240043   0.111   2.332   2.630  1.0601  0.0219 -0.4687
 6162TIP3   OH240044   0.029   2.237   0.334  0.1325 -0.8077 -0.1498
 6162TIP3    H140045  -0.052   2.280   0.359 -0.2668 -0.7678 -1.4342
 6162TIP3    H240046   0.070   2.296   0.271  1.4472 -0.5676  0.8926
 6163TIP3   OH240047   4.168   0.818   0.327  0.3251 -0.1537  0.3683
 6163TIP3    H140048   4.210   0.775   0.401 -2.9827 -0.4517  2.2812
 6163TIP3    H240049   4.187   0.911   0.338  1.2201 -0.3538  0.5958
 6164TIP3   OH240050   3.955   1.396   1.042 -0.4341  0.1053 -0.1387
 6164TIP3    H140051   3.939   1.489   1.061  1.5410  0.8000 -1.4946
 6164TIP3    H240052   3.885   1.350   1.088 -2.4611  2.3567 -0.7060
 6165TIP3   OH240053   3.585   3.022   1.242  0.0478 -0.1144 -0.1066
 6165TIP3    H140054   3.639   3.022   1.162 -0.6014  0.9913 -0.5731
 6165TIP3    H240055   3.584   3.114   1.269 -0.5028 -0.3381  0.6551
 6166TIP3   OH240056   1.832   0.726   0.668 -0.3394 -0.4259  0.5190
 6166TIP3    H140057   1.901   0.686   0.722  0.4893 -3.3626 -2.3782
 6166TIP3    H240058   1.880   0.765   0.594 -1.5951  0.3874  0.1088
 6167TIP3   OH240059   1.916   5.306   2.963 -0.2413  0.2670  0.1614
 6167TIP3    H140060   2.001   5.344   2.943 -0.0002 -0.4838 -0.2939
 6167TIP3    H240061   1.930   5.257   3.044 -0.5240  1.0447  0.6880
 6168TIP3   OH240062   5.240   4.673   2.347 -0.1601 -0.6639 -0.5397
 6168TIP3    H140063   5.198   4.755   2.321  0.4379 -0.4253 -0.7874
 6168TIP3    H240064   5.274   4.637   2.265  3.4577  1.0426 -0.0000
 6169TIP3   OH240065   2.107   2.435   0.786 -0.0072  0.0406  0.7350
 6169TIP3    H140066   2.067   2.497   0.847 -0.4143  0.5932 -0.0660
 6169TIP3    H240067   2.077   2.349   0.815 -0.7966  0.3574  0.8641
 6170TIP3   OH240068   4.571   5.784   1.387  0.3612 -0.8283  0.9636
 6170TIP3    H140069   4.543   5.818   1.302 -0.7966 -0.5175  1.4396
 6170TIP3    H240070   4.619   5.704   1.366  2.0579  0.4007 -0.1041
 6171TIP3   OH240071   2.489   2.802   0.927 -0.3453 -0.2296  0.4527
 6171TIP3    H140072   2.580   2.786   0.954 -1.0436 -3.4608  1.3091
 6171TIP3    H240073   2.473   2.736   0.859 -2.5129 -0.8467  1.4974
 6172TIP3   OH240074   4.598   0.019   1.902 -0.3443 -0.7289 -0.3123
 6172TIP3    H140075   4.552   0.040   1.821 -0.4692 -1.6008 -0.4720
 6172TIP3    H240076   4.632   0.104   1.933 -1.6979 -0.1281 -0.3924
 6173TIP3   OH240077   2.633   1.478   2.808 -0.5001 -0.4802  1.2817
 6173TIP3    H140078   2.584   1.541   2.862 -1.8501  0.6026 -1.0693
 6173TIP3    H240079   2.600   1.393   2.835  0.1691 -0.1361  3.3797
 6174TIP3   OH240080   5.358   6.520   1.916 -0.1975  0.0178  0.2266
 6174TIP3    H140081   5.412   6.516   1.837 -0.1731  0.3102  0.2282
 6174TIP3    H240082   5.297   6.592   1.900  0.1934  0.4647  0.7162
 6175TIP3   OH240083   6.743   2.254   0.016  0.6915 -0.3663 -0.1140
 6175TIP3    H140084   6.820   2.211  -0.022  0.7068 -0.9221  0.5326
 6175TIP3    H240085   6.669   2.213  -0.028  0.7647  0.7868 -1.3828
 6176TIP3   OH240086   2.078   0.584   1.456 -0.5011 -0.8738 -0.4047
 6176TIP3    H140087   2.017   0.583   1.383  0.2164 -1.4604 -1.0136
 6176TIP3    H240088   2.025   0.610   1.531 -1.4777 -1.2820 -0.9313
 6177TIP3   OH240089   6.631   3.090   2.795 -0.0867  0.0688 -0.5235
 6177TIP3    H140090   6.552   3.089   2.850 -0.2905  0.8315 -0.7913
 6177TIP3    H240091   6.602   3.051   2.712  0.0774 -0.5549 -0.2978
 6178TIP3   OH240092   4.569   3.524   0.392 -0.9720  0.2020  0.1419
 6178TIP3    H140093   4.609   3.608   0.413  0.7512 -0.7454  0.8389
 6178TIP3    H240094   4.518   3.540   0.313 -0.5133  1.8382  0.1529
 6179TIP3   OH240095   6.242   0.593   0.337 -0.3471 -0.1484 -0.3305
 6179TIP3    H140096   6.337   0.604   0.331 -0.5265  0.7585 -2.2142
 6179TIP3    H240097   6.230   0.526   0.404  1.5449  0.7219  0.9863
 6180TIP3   OH240098   0.514   4.835   3.122 -0.2380  0.2038  0.5514
 6180TIP3    H140099   0.544   4.812   3.210 -2.1353 -0.1068  1.1700
 6180TIP3    H240100   0.528   4.756   3.070 -0.8025 -0.2291  1.0500
 6181TIP3   OH240101   5.922   2.380   2.594 -0.0528 -0.5208 -0.1203
 6181TIP3    H140102   5.920   2.403   2.687 -1.3389  1.6187 -0.6323
 6181TIP3    H240103   5.864   2.304   2.587 -1.2840  0.3210  0.6056
 6182TIP3   OH240104   2.450   4.756   0.151 -0.6028 -0.0767 -0.0834
 6182TIP3    H140105   2.485   4.794   0.071 -1.2942  1.1592  0.1700
 6182TIP3    H240106   2.361   4.793   0.159  0.0987  1.3670  2.2011
 6183TIP3   OH240107   3.304   3.880   0.691  0.5320  0.3585 -0.2603
 6183TIP3    H140108   3.315   3.805   0.750  1.3094  1.4850  1.1052
 6183TIP3    H240109   3.339   3.954   0.740  1.3482  1.3478 -2.2053
 6184TIP3   OH240110   0.078   0.437   8.292 -0.0997 -0.3922  0.1077
 6184TIP3    H140111   0.150   0.500   8.286 -0.1610 -0.3058  0.2783
 6184TIP3    H240112   0.102   0.378   8.363  1.0303 -1.9469 -1.4701
 6185TIP3   OH240113   3.107   5.730   0.808  0.1527  0.2641 -0.2372
 6185TIP3    H140114   3.141   5.818   0.796  0.2610  0.2167 -0.2811
 6185TIP3    H240115   3.078   5.703   0.721  1.2769 -0.2202 -0.4789
 6186TIP3   OH240116   6.046   5.154   0.140 -0.0415 -0.5440 -0.3426
 6186TIP3    H140117   5.954   5.127   0.148 -0.5712  0.7287 -1.5948
 6186TIP3    H240118   6.061   5.211   0.215 -0.4218 -0.3793 -0.3898
 6187TIP3   OH240119   2.324   5.135   0.070  0.2012 -0.5807 -0.3547
 6187TIP3    H140120   2.320   5.113  -0.023 -0.8684 -1.4631 -0.1262
 6187TIP3    H240121   2.331   5.051   0.114  2.4779 -0.0918  0.3189
 6188TIP3   OH240122   4.995   4.695   1.528 -0.2629 -0.2135  0.2622
 6188TIP3    H140123   5.053   4.620   1.524  0.1939  0.1890 -1.1646
 6188TIP3    H240124   4.948   4.694   1.444  0.1203  1.3546 -0.0053
 6189TIP3   OH240125   1.248   6.342   3.853 -0.1315  0.0131  0.1546
 6189TIP3    H140126   1.281   6.427   3.883  0.3434 -0.0568 -0.1616
 6189TIP3    H240127   1.318   6.281   3.872 -0.2351 -0.2067 -0.1594
 6190TIP3   OH240128   1.631   4.760   1.419 -0.1409  0.0769 -0.1076
 6190TIP3    H140129   1.659   4.825   1.355  2.3000 -0.5220  0.2358
 6190TIP3    H240130   1.666   4.677   1.386  0.0105 -0.4628  1.3081
 6191TIP3   OH240131   1.994   2.333   1.051 -0.0792 -0.0792 -0.0692
 6191TIP3    H140132   1.949   2.277   0.988  0.0533 -0.8833  0.5342
 6191TIP3    H240133   1.946   2.416   1.048 -1.1801 -0.6936  0.0648
 6192TIP3   OH240134   4.807   3.126   3.020  0.3502 -0.2890  0.4305
 6192TIP3    H140135   4.885   3.087   3.060 -1.3361 -2.0063  2.3022
 6192TIP3    H240136   4.773   3.186   3.086 -0.9355 -1.0093  0.4566
 6193TIP3   OH240137   5.516   6.362   2.094  0.0971  0.3178 -0.8276
 6193TIP3    H140138   5.460   6.285   2.103  0.0412  0.3828 -0.6110
 6193TIP3    H240139   5.477   6.413   2.022 -1.3846  1.4306  0.6933
 6194TIP3   OH240140   4.560   2.842   0.296  0.1306  0.4974  0.0431
 6194TIP3    H140141   4.493   2.909   0.306 -0.9273 -0.6788  1.3581
 6194TIP3    H240142   4.528   2.787   0.224  0.1564  0.4614  0.0589
 6195TIP3   OH240143   1.692   0.514   3.711 -0.0880  0.3620 -0.2278
 6195TIP3    H140144   1.778   0.540   3.746  2.0673 -1.9158 -3.2778
 6195TIP3    H240145   1.673   0.430   3.753 -0.7817  0.8006  0.3470
 6196TIP3   OH240146   3.261   1.479   4.041  0.1244  0.6381  1.3195
 6196TIP3    H140147   3.206   1.544   4.086  0.7190  0.9801  1.5639
 6196TIP3    H240148   3.295   1.424   4.112 -0.0813  0.2807  1.1462
 6197TIP3   OH240149   5.369   2.793   2.407 -0.2909 -0.2106  0.6146
 6197TIP3    H140150   5.381   2.700   2.387 -0.8672 -0.2440  0.4222
 6197TIP3    H240151   5.390   2.801   2.500 -2.0904 -0.8660  1.1009
 6198TIP3   OH240152   1.805   3.711   0.830 -0.4886 -0.0701  0.1921
 6198TIP3    H140153   1.896   3.683   0.837 -0.3762  0.1416 -0.4181
 6198TIP3    H240154   1.770   3.663   0.755 -0.8528 -0.0827  0.3675
 6199TIP3   OH240155   1.926   0.267   1.145  0.4776 -0.5287 -0.3490
 6199TIP3    H140156   1.995   0.327   1.116 -0.1908  0.8238  0.7238
 6199TIP3    H240157   1.951   0.182   1.109  3.1100 -0.2547  0.5999
 6200TIP3   OH240158   1.298   1.004   0.677  0.1060 -0.2732  0.6325
 6200TIP3    H140159   1.225   0.999   0.616  0.8314 -1.6060 -0.1877
 6200TIP3    H240160   1.376   0.998   0.622  0.8054 -0.3190  1.6004
 6201TIP3   OH240161   3.784   5.227   2.069  0.2222  0.2333  0.7163
 6201TIP3    H140162   3.869   5.261   2.043 -1.0314  2.2653 -1.0201
 6201TIP3    H240163   3.787   5.134   2.046  1.1057  0.8046 -1.7854
 6202TIP3   OH240164   3.981   2.800   3.554  0.3397  0.4344  0.1502
 6202TIP3    H140165   4.038   2.828   3.482  2.1040  2.0658  2.0351
 6202TIP3    H240166   4.024   2.833   3.633 -1.4742 -1.2971  2.0006
 6203TIP3   OH240167   0.327   4.051   3.114  0.3333  0.2359  0.1499
 6203TIP3    H140168   0.266   4.125   3.110  1.0346  0.7433 -2.8466
 6203TIP3    H240169   0.291   3.986   3.054  2.6231  0.5319 -1.6858
 6204TIP3   OH240170   2.849   2.108   3.493 -0.2005  0.6365 -0.7027
 6204TIP3    H140171   2.825   2.023   3.530 -0.8333  1.6682  1.4036
 6204TIP3    H240172   2.767   2.143   3.459 -0.6283  1.6891  1.2708
 6205TIP3   OH240173   0.607   5.999   1.427 -0.0753  0.1660  0.0907
 6205TIP3    H140174   0.653   5.985   1.344  1.9315  0.9836  1.0250
 6205TIP3    H240175   0.641   5.932   1.486 -0.2932  0.6036  0.7227
 6206TIP3   OH240176   1.091   1.284   1.131  0.4642 -0.2419 -0.2973
 6206TIP3    H140177   1.177   1.318   1.153 -0.0387  1.1536 -0.3808
 6206TIP3    H240178   1.079   1.306   1.038  0.8174 -2.2483 -0.8808
 6207TIP3   OH240179   1.111   2.719   8.624 -0.0218  0.2682  0.0201
 6207TIP3    H140180   1.168   2.691   8.695 -1.1226 -2.4993 -0.0777
 6207TIP3    H240181   1.036   2.759   8.668 -0.8001 -1.6262  0.5184
 6208TIP3   OH240182   1.506   4.701   2.881  0.0683  0.8637  0.8326
 6208TIP3    H140183   1.472   4.791   2.874 -2.6142 -0.1188 -0.0540
 6208TIP3    H240184   1.598   4.712   2.905  0.1775  3.8641 -0.5117
 6209TIP3   OH240185   4.494   2.442   0.489 -0.0319  0.2111 -0.0570
 6209TIP3    H140186   4.578   2.447   0.443  0.8031 -1.2749  1.2047
 6209TIP3    H240187   4.516   2.407   0.576 -2.0543 -1.0748  0.0121
 6210TIP3   OH240188   6.531   5.727   3.215 -0.1171  0.4924 -0.2863
 6210TIP3    H140189   6.621   5.707   3.241  0.0373 -0.1061 -1.2276
 6210TIP3    H240190   6.477   5.678   3.278  0.2424 -0.5240 -0.7503
 6211TIP3   OH240191   1.309   1.916   3.322 -0.9111 -0.3538 -0.5264
 6211TIP3    H140192   1.277   1.927   3.412  0.6536  1.7561 -0.1550
 6211TIP3    H240193   1.273   1.991   3.275  0.7118  0.2231 -0.8970
 6212TIP3   OH240194   3.269   6.389   0.881  0.0245 -0.6054 -0.3725
 6212TIP3    H140195   3.280   6.376   0.787 -0.4614 -0.1181 -0.5005
 6212TIP3    H240196   3.299   6.479   0.896  0.2404 -0.7319 -0.0332
 6213TIP3   OH240197   2.646   1.885   1.440  0.2469  0.4164  0.8624
 6213TIP3    H140198   2.684   1.864   1.355 -1.2727  0.7469  0.0677
 6213TIP3    H240199   2.627   1.979   1.436 -1.8393  0.0264  0.6958
 6214TIP3   OH240200   3.449   1.845   1.244  0.3891 -0.3436 -0.3022
 6214TIP3    H140201   3.519   1.781   1.260 -0.2260 -1.0788 -0.4821
 6214TIP3    H240202   3.494   1.929   1.238  1.0024 -0.3253  2.6619
 6215TIP3   OH240203   3.436   0.666   2.690  0.6082 -0.1136  0.1332
 6215TIP3    H140204   3.510   0.722   2.712 -1.9614  3.0834  1.4262
 6215TIP3    H240205   3.402   0.701   2.608 -0.6879 -0.1519  0.6300
 6216TIP3   OH240206   4.282   1.241   7.919 -0.7443  0.4925  0.1616
 6216TIP3    H140207   4.282   1.314   7.981  0.6356  0.1634  0.5768
 6216TIP3    H240208   4.190   1.213   7.916 -0.9555  0.9654  1.5207
 6217TIP3   OH240209   2.506   6.809   8.490 -0.5679 -0.1987 -0.3008
 6217TIP3    H140210   2.420   6.819   8.448 -1.9577 -1.9560  1.8462
 6217TIP3    H240211   2.502   6.866   8.566  1.3974  1.9544 -1.6963
 6218TIP3   OH240212   4.622   5.431   1.523  0.3596 -0.2979 -0.3467
 6218TIP3    H140213   4.527   5.437   1.516  0.2323 -2.1883 -0.8565
 6218TIP3    H240214   4.655   5.495   1.460 -0.5715  0.1024 -0.4447
 6219TIP3   OH240215   5.501   5.310   0.191  0.4503  0.3593  0.5603
 6219TIP3    H140216   5.578   5.344   0.147  1.9538 -1.1453  1.8848
 6219TIP3    H240217   5.506   5.348   0.279 -0.9227  1.0704  0.3542
 6220TIP3   OH240218   3.397   5.805   2.983  0.0782  0.5046  0.0206
 6220TIP3    H140219   3.404   5.892   2.943 -0.2799  0.1433 -0.8373
 6220TIP3    H240220   3.458   5.809   3.057 -0.1938  1.6026  0.2180
 6221TIP3   OH240221   3.457   5.786   0.107 -0.6609 -0.0008  0.1170
 6221TIP3    H140222   3.478   5.820   0.019  0.2303 -0.6757  0.0541
 6221TIP3    H240223   3.475   5.859   0.166  1.7500 -0.4642  0.0376
 6222TIP3   OH240224   4.440   5.304   0.378 -0.3094  0.2252  0.3622
 6222TIP3    H140225   4.351   5.322   0.410 -0.3988 -1.8424  1.4740
 6222TIP3    H240226   4.497   5.328   0.451 -0.2811 -1.6780  1.0319
 6223TIP3   OH240227   2.174   0.838   3.434  0.2717 -0.0584  0.1158
 6223TIP3    H140228   2.205   0.817   3.522 -1.2779 -1.9988  0.2750
 6223TIP3    H240229   2.107   0.905   3.447  0.3208 -0.0613  0.3802
 6224TIP3   OH240230   0.950   5.096   1.708 -0.0759 -0.0466  0.2758
 6224TIP3    H140231   0.856   5.110   1.718  0.0980  1.7715 -0.2702
 6224TIP3    H240232   0.989   5.145   1.781  0.4888  0.1435 -0.1486
 6225TIP3   OH240233   6.513   0.854   2.058  0.5397 -0.4352  0.0162
 6225TIP3    H140234   6.502   0.910   1.981 -0.4081  0.1018  0.5238
 6225TIP3    H240235   6.495   0.911   2.132 -0.9032 -1.4908  0.5290
 6226TIP3   OH240236   1.158   0.035   2.131 -0.0110  0.0319 -0.4510
 6226TIP3    H140237   1.187  -0.023   2.202 -0.9936  1.4795  1.1860
 6226TIP3    H240238   1.170   0.123   2.165 -1.8503  0.7487 -1.5445
 6227TIP3   OH240239   0.983   3.903   2.778  0.4119 -0.2449  0.3426
 6227TIP3    H140240   0.912   3.843   2.754  1.5106 -0.9330 -1.2664
 6227TIP3    H240241   0.970   3.979   2.722 -0.1302  0.4460  1.3733
 6228TIP3   OH240242   5.167   0.512   1.400  0.4004  0.0466  0.1699
 6228TIP3    H140243   5.248   0.546   1.436  0.6159  0.8581 -1.0220
 6228TIP3    H240244   5.138   0.446   1.463  0.9812  1.0951  1.5623
 6229TIP3   OH240245   6.602   5.091   8.511  0.4608 -0.7097 -0.0844
 6229TIP3    H140246   6.508   5.078   8.511 -0.0697  2.3021  0.7819
 6229TIP3    H240247   6.629   5.073   8.602  0.7659 -1.7109 -0.3650
 6230TIP3   OH240248   6.469   6.312   0.253 -0.0967  0.3854 -0.1872
 6230TIP3    H140249   6.451   6.247   0.321 -1.1157  1.5067  0.6604
 6230TIP3    H240250   6.388   6.362   0.245 -0.2846 -0.1966 -2.8198
 6231TIP3   OH240251   3.624   6.000   2.725 -0.4320 -0.2299  0.1109
 6231TIP3    H140252   3.667   5.938   2.785  2.0689  0.3562 -0.9841
 6231TIP3    H240253   3.568   5.945   2.670 -0.9233 -1.0505  1.3715
 6232TIP3   OH240254   1.466   4.851   8.519 -0.3387  0.0338 -0.0705
 6232TIP3    H140255   1.426   4.904   8.450 -1.0962 -0.9487 -0.4075
 6232TIP3    H240256   1.421   4.767   8.515 -0.0314 -0.2266  1.2822
 6233TIP3   OH240257   6.270   0.519   8.165 -0.3878 -0.5394 -0.3597
 6233TIP3    H140258   6.253   0.576   8.091 -1.1897 -1.3424 -0.8178
 6233TIP3    H240259   6.211   0.445   8.152 -0.8886 -0.4809  1.3250
 6234TIP3   OH240260   2.451   2.323   3.144 -0.0892  0.5245  0.6015
 6234TIP3    H140261   2.367   2.321   3.100 -0.5672 -1.6383  1.5059
 6234TIP3    H240262   2.459   2.414   3.175 -1.7431  0.9489 -0.1038
 6235TIP3   OH240263   0.593   5.784   0.775  0.3000  0.4762  0.7108
 6235TIP3    H140264   0.674   5.790   0.825 -0.4220  0.6868  1.9003
 6235TIP3    H240265   0.527   5.758   0.839 -0.4883 -0.1975 -0.3334
 6236TIP3   OH240266   4.252   2.702   1.877  0.3873 -0.5053 -0.5040
 6236TIP3    H140267   4.262   2.615   1.839  0.0710 -0.2851 -1.1038
 6236TIP3    H240268   4.225   2.757   1.804 -0.0100 -0.0229 -0.0003
 6237TIP3   OH240269   4.423   0.698   3.017 -0.5473 -0.9677 -0.5231
 6237TIP3    H140270   4.414   0.765   3.085 -0.7934 -2.7073  1.2277
 6237TIP3    H240271   4.491   0.733   2.959  0.8946 -0.1114  1.5360
 6238TIP3   OH240272   2.457   1.895   2.127  0.3546  0.0657  0.2685
 6238TIP3    H140273   2.551   1.886   2.141  0.2114  0.5863  1.8774
 6238TIP3    H240274   2.418   1.873   2.212 -1.0893 -1.5010 -0.7268
 6239TIP3   OH240275   3.686   1.016   0.507  0.4074 -1.0196 -0.4636
 6239TIP3    H140276   3.649   1.103   0.524  1.8082 -0.0784 -1.9508
 6239TIP3    H240277   3.674   0.968   0.589  1.1222  1.1166  0.9537
 6240TIP3   OH240278   2.940   4.567   0.569  0.1895 -0.2987 -0.3392
 6240TIP3    H140279   2.980   4.621   0.500 -2.1930 -1.2997 -2.6979
 6240TIP3    H240280   2.887   4.629   0.619  1.0713  0.2660 -0.0705
 6241TIP3   OH240281   5.030   1.445   2.409  0.5414  0.2003  0.2274
 6241TIP3    H140282   4.958   1.410   2.462 -0.2801  0.7750 -0.4808
 6241TIP3    H240283   5.072   1.510   2.465 -0.3183  0.8016  0.1946
 6242TIP3   OH240284   2.114   4.661   3.757  0.1966  0.0733 -0.6961
 6242TIP3    H140285   2.161   4.732   3.715 -0.1504 -0.6661 -2.4371
 6242TIP3    H240286   2.180   4.592   3.769  0.5499  0.6753  1.0517
 6243TIP3   OH240287   4.357   6.033   0.811  0.2200 -0.3899  0.4280
 6243TIP3    H140288   4.425   6.100   0.816 -0.1910  0.0412  0.3302
 6243TIP3    H240289   4.405   5.951   0.798  0.7397 -0.1569  0.8611
 6244TIP3   OH240290   0.008   1.380   3.049 -0.1329 -0.3062 -0.4264
 6244TIP3    H140291  -0.026   1.389   2.960  0.9630  2.7050 -0.6631
 6244TIP3    H240292   0.099   1.351   3.037  0.1848  0.6362 -0.3414
 6245TIP3   OH240293   2.684   1.907   0.655  0.4307  0.0160 -0.1540
 6245TIP3    H140294   2.750   1.931   0.591  0.3510 -1.4452 -0.8317
 6245TIP3    H240295   2.715   1.943   0.738  1.6560  0.0475 -0.6184
 6246TIP3   OH240296   0.034   1.218   1.335  0.3635 -0.5536 -0.8213
 6246TIP3    H140297   0.028   1.258   1.422 -0.0711  0.0396 -1.1219
 6246TIP3    H240298   0.074   1.286   1.280 -1.2785 -0.1478 -1.5599
 6247TIP3   OH240299   4.988   1.652   1.682 -0.5383 -0.4966 -0.4689
 6247TIP3    H140300   5.052   1.667   1.751 -0.9250 -1.5790  0.1379
 6247TIP3    H240301   4.931   1.729   1.685  0.1683  0.0378 -0.4094
 6248TIP3   OH240302   4.120   3.103   2.168 -0.1914 -0.7644  0.5099
 6248TIP3    H140303   4.082   3.017   2.186  0.5831 -1.1626  0.2988
 6248TIP3    H240304   4.045   3.163   2.167 -0.4618 -0.8583  3.9561
 6249TIP3   OH240305   6.323   3.212   3.128 -0.0796  0.2560 -0.0597
 6249TIP3    H140306   6.395   3.241   3.072 -0.3255 -0.0578 -0.5458
 6249TIP3    H240307   6.359   3.216   3.217  0.5137  0.1823 -0.2899
 6250TIP3   OH240308   0.847   0.609   0.561 -0.4536 -0.0009 -0.5078
 6250TIP3    H140309   0.794   0.673   0.608 -0.1519  0.5647 -0.9190
 6250TIP3    H240310   0.936   0.624   0.594  0.0685  1.5529 -2.4064
 6251TIP3   OH240311   0.353   0.112   0.133  0.0237  0.2926  0.0821
 6251TIP3    H140312   0.390   0.174   0.070  0.3669 -1.7022 -1.8299
 6251TIP3    H240313   0.262   0.099   0.103 -0.7348  1.4408  1.7675
 6252TIP3   OH240314   5.520   4.188   0.292  0.0259  0.0381 -0.4164
 6252TIP3    H140315   5.505   4.281   0.278 -0.2201 -0.1162 -1.2311
 6252TIP3    H240316   5.507   4.148   0.206 -0.1630 -0.7892 -0.0148
 6253TIP3   OH240317   4.199   1.425   8.389 -0.2467  0.7988 -0.4321
 6253TIP3    H140318   4.166   1.365   8.322 -1.7881  0.1610  0.8345
 6253TIP3    H240319   4.265   1.374   8.437 -2.0608 -0.2384  1.1054
 6254TIP3   OH240320   2.442   1.391   0.098 -0.2859 -1.2143 -0.0127
 6254TIP3    H140321   2.477   1.308   0.131  1.7919  0.2197  1.6987
 6254TIP3    H240322   2.405   1.369   0.013 -0.6538 -4.0393  0.7497
 6255TIP3   OH240323   5.273   4.116   0.481 -0.2936  0.4864 -0.6370
 6255TIP3    H140324   5.329   4.153   0.548  0.0996 -0.6815 -0.2899
 6255TIP3    H240325   5.330   4.057   0.431 -1.1176 -0.4734 -0.4805
 6256TIP3   OH240326   5.653   1.017   0.169 -0.1734 -0.8785 -0.5374
 6256TIP3    H140327   5.744   1.014   0.140  0.2801 -1.3266  0.8986
 6256TIP3    H240328   5.621   0.928   0.155 -0.2490 -0.8476 -0.5593
 6257TIP3   OH240329   3.848   3.369   1.828  0.5839  0.1848  0.1807
 6257TIP3    H140330   3.873   3.295   1.883 -0.2288 -0.7879 -0.7113
 6257TIP3    H240331   3.928   3.391   1.780  0.8636 -0.0439  0.5425
 6258TIP3   OH240332   0.455   4.242   3.936  0.4348  0.3305 -0.2312
 6258TIP3    H140333   0.427   4.332   3.917 -2.5056 -0.9863 -3.0972
 6258TIP3    H240334   0.393   4.212   4.003 -1.0969 -0.6286 -1.9971
 6259TIP3   OH240335   0.831   2.001   0.687  0.6134  0.2458 -0.9591
 6259TIP3    H140336   0.842   1.997   0.782 -0.9047  2.0707 -0.6569
 6259TIP3    H240337   0.785   1.920   0.664  1.8052 -0.6462 -0.3150
 6260TIP3   OH240338   1.675   2.659   3.013  0.4376  0.0336  0.3556
 6260TIP3    H140339   1.706   2.719   3.081  1.3487 -0.5196  0.4374
 6260TIP3    H240340   1.644   2.582   3.062  2.6881 -1.1011  0.1127
 6261TIP3   OH240341   0.162   6.015   2.107 -0.0068 -0.4737 -0.0584
 6261TIP3    H140342   0.256   6.004   2.093  0.1892  0.9124  0.0456
 6261TIP3    H240343   0.135   6.077   2.039 -0.4950  0.5055  0.9898
 6262TIP3   OH240344   0.083   0.497   2.577  0.0501 -0.0554  0.7833
 6262TIP3    H140345   0.160   0.477   2.629 -0.4986 -0.4106  1.4788
 6262TIP3    H240346   0.016   0.523   2.641 -0.3664  0.3859  0.1880
 6263TIP3   OH240347   3.616   3.708   1.373 -0.0614  0.1029  0.0453
 6263TIP3    H140348   3.659   3.636   1.325  0.4806  0.2798  0.2672
 6263TIP3    H240349   3.571   3.664   1.445  1.4991  0.1113  1.0753
 6264TIP3   OH240350   6.128   6.547   1.387  0.1613 -0.3622  0.3212
 6264TIP3    H140351   6.213   6.584   1.364 -0.4152  0.5732 -0.3420
 6264TIP3    H240352   6.133   6.456   1.358 -0.3088  0.5663 -3.0693
 6265TIP3   OH240353   3.936   1.235   0.076 -0.0334  0.5320  0.4301
 6265TIP3    H140354   3.932   1.170   0.147  0.8154  0.5187  0.4786
 6265TIP3    H240355   3.883   1.309   0.108  0.5516  0.6344  1.1941
 6266TIP3   OH240356   5.797   4.345   8.368  0.3124 -0.2590 -0.0412
 6266TIP3    H140357   5.845   4.405   8.311  0.2684 -0.1810  0.0028
 6266TIP3    H240358   5.714   4.390   8.386 -0.2162 -0.8386 -0.9440
 6267TIP3   OH240359   3.112   3.092   2.951  0.0697 -0.3380  0.2938
 6267TIP3    H140360   3.176   3.147   2.995 -1.0625 -0.3087  1.9783
 6267TIP3    H240361   3.049   3.153   2.912 -0.6212 -0.3766  1.2980
 6268TIP3   OH240362   0.198   6.522   2.946 -0.4934  0.0600 -0.2401
 6268TIP3    H140363   0.185   6.553   3.035 -1.7201 -0.0468 -0.3711
 6268TIP3    H240364   0.292   6.501   2.941 -0.8218 -2.3372  1.8027
 6269TIP3   OH240365   2.227   4.000   2.685  0.5228  0.2522  0.0242
 6269TIP3    H140366   2.306   4.042   2.721 -0.0512  1.7929 -0.4125
 6269TIP3    H240367   2.201   3.937   2.752 -0.0694  2.4958  2.0732
 6270TIP3   OH240368   5.332   2.988   8.559 -0.0581  0.1266 -0.1838
 6270TIP3    H140369   5.369   2.993   8.648  0.1103 -0.0590 -0.2424
 6270TIP3    H240370   5.331   3.079   8.530 -0.8214  0.2747  0.2902
 6271TIP3   OH240371   0.894   4.075   2.315  0.2549 -0.5298 -0.9262
 6271TIP3    H140372   0.920   3.997   2.364 -0.3850  1.1723  2.5136
 6271TIP3    H240373   0.976   4.116   2.289  0.7155 -0.7403  0.1336
 6272TIP3   OH240374   2.089   5.859   0.807 -0.4189  0.1548 -0.3063
 6272TIP3    H140375   2.045   5.779   0.835 -0.8362  0.5271  0.1156
 6272TIP3    H240376   2.036   5.891   0.734 -0.9583  0.6980  0.3157
 6273TIP3   OH240377   0.577   2.268   3.178 -0.3369  0.4465  0.0553
 6273TIP3    H140378   0.556   2.190   3.230  0.0460 -0.4184 -1.0537
 6273TIP3    H240379   0.575   2.340   3.241 -0.6990 -0.4577  1.1047
 6274TIP3   OH240380   1.695   6.377   2.718  0.0186 -0.3662  0.0677
 6274TIP3    H140381   1.723   6.390   2.809 -1.8905 -0.0064  0.6502
 6274TIP3    H240382   1.679   6.466   2.685  0.5450 -0.5058 -0.5855
 6275TIP3   OH240383   6.197   6.661   3.467  0.1006 -0.3283  0.0954
 6275TIP3    H140384   6.173   6.569   3.481 -2.0077  0.3095  1.1097
 6275TIP3    H240385   6.251   6.684   3.542  1.1487 -0.8848 -0.4742
 6276TIP3   OH240386   3.323   4.750   2.119 -0.1629  0.5830  0.2314
 6276TIP3    H140387   3.321   4.722   2.028  2.8125  0.8217 -0.0274
 6276TIP3    H240388   3.292   4.841   2.117  0.0574  0.6441 -0.5846
 6277TIP3   OH240389   4.688   0.105   3.593  0.0765  0.0743 -0.2627
 6277TIP3    H140390   4.681   0.180   3.534  0.6569 -0.5269 -1.1226
 6277TIP3    H240391   4.616   0.048   3.568 -1.6863  1.2586  1.8091
 6278TIP3   OH240392   1.511   4.769   0.828  0.6843 -0.3616  0.9636
 6278TIP3    H140393   1.550   4.780   0.742 -2.3855  0.6488 -0.4545
 6278TIP3    H240394   1.443   4.702   0.816  0.0138 -0.0245  2.5072
 6279TIP3   OH240395   0.292   3.244   1.618 -0.0459  0.3059  0.2380
 6279TIP3    H140396   0.228   3.281   1.558  0.6036  0.8493 -0.1349
 6279TIP3    H240397   0.252   3.163   1.650 -0.3952  0.0030 -0.9338
 6280TIP3   OH240398   6.811   0.807   0.729 -0.0663 -0.3443 -0.3117
 6280TIP3    H140399   6.903   0.828   0.744  0.1893 -0.6707 -1.3226
 6280TIP3    H240400   6.813   0.729   0.674 -0.9347  0.0491 -0.9264
 6281TIP3   OH240401   5.422   1.286   1.567  0.2076  0.4538 -0.5419
 6281TIP3    H140402   5.483   1.326   1.629 -0.2109  1.4624 -0.7486
 6281TIP3    H240403   5.401   1.201   1.605  2.3266 -0.2651 -0.8567
 6282TIP3   OH240404   2.575   3.435   3.545  0.6064  0.2570  0.5920
 6282TIP3    H140405   2.632   3.403   3.615  1.4592  0.8910  0.2062
 6282TIP3    H240406   2.580   3.530   3.552  2.6925  0.4201 -1.8450
 6283TIP3   OH240407   0.151   3.857   8.720 -0.3835 -0.1507  0.2430
 6283TIP3    H140408   0.064   3.861   8.760 -1.6326  0.0452 -2.3100
 6283TIP3    H240409   0.150   3.924   8.652  1.4316 -0.8080 -0.5065
 6284TIP3   OH240410   2.443   1.135   2.479 -0.8754  0.4257  0.1006
 6284TIP3    H140411   2.482   1.079   2.412 -2.1017  0.2158 -0.4706
 6284TIP3    H240412   2.350   1.136   2.458 -0.9238  2.5084  0.2510
 6285TIP3   OH240413   0.295   5.911   0.292 -0.5140  0.6271 -0.1443
 6285TIP3    H140414   0.207   5.897   0.257 -0.3988 -0.4116 -0.0615
 6285TIP3    H240415   0.353   5.904   0.216 -0.5769  2.4727 -0.3923
 6286TIP3   OH240416   0.027   0.751   2.195 -0.5117 -0.5067 -0.9398
 6286TIP3    H140417   0.103   0.810   2.194 -2.0317  1.6093  0.5129
 6286TIP3    H240418  -0.008   0.755   2.106 -0.1077  0.1177 -1.0773
 6287TIP3   OH240419   0.005   1.715   8.515 -0.5534 -0.2590 -0.0873
 6287TIP3    H140420  -0.028   1.794   8.558 -1.3630  0.4050 -1.8063
 6287TIP3    H240421  -0.066   1.652   8.522 -0.5027 -0.3104 -0.0355
 6288TIP3   OH240422   6.135   6.249   1.306 -0.5758  0.5204  0.0595
 6288TIP3    H140423   6.062   6.248   1.368 -0.9640  2.2058 -0.3221
 6288TIP3    H240424   6.094   6.271   1.222  0.2210  0.2354 -0.4148
 6289TIP3   OH240425   6.367   0.828   2.326  0.2194  0.2287  0.5906
 6289TIP3    H140426   6.283   0.835   2.371  0.1847 -1.0603  0.7659
 6289TIP3    H240427   6.405   0.915   2.332 -1.4207  1.0533 -0.1268
 6290TIP3   OH240428   0.063   0.760   2.489 -0.9354  0.2286  0.9060
 6290TIP3    H140429  -0.018   0.789   2.447 -0.1439  0.6537 -0.3913
 6290TIP3    H240430   0.065   0.666   2.475 -1.6813  0.0598  1.8339
 6291TIP3   OH240431   0.734   6.575   0.649 -0.3118 -0.2018  0.3958
 6291TIP3    H140432   0.730   6.574   0.744  1.9711  1.6178  0.5963
 6291TIP3    H240433   0.771   6.490   0.625  1.3009  0.1908  1.3558
 6292TIP3   OH240434   4.579   0.801   0.625  0.4252 -0.5869  0.4880
 6292TIP3    H140435   4.560   0.717   0.667 -1.9430 -0.2104  0.2856
 6292TIP3    H240436   4.511   0.811   0.559  2.0277  0.4532 -1.0997
 6293TIP3   OH240437   0.084   4.370   2.549 -0.2364  0.1085  0.3210
 6293TIP3    H140438   0.023   4.346   2.618  0.0807 -0.8382  0.2846
 6293TIP3    H240439   0.042   4.444   2.505 -0.9516  0.0200  0.8289
 6294TIP3   OH240440   2.055   6.117   4.072  0.5786  0.3394 -0.3582
 6294TIP3    H140441   2.113   6.189   4.097  0.0948  0.0654  1.7638
 6294TIP3    H240442   1.982   6.123   4.134  0.5390 -1.9817 -0.1196
 6295TIP3   OH240443   3.421   5.596   1.188  0.5510 -0.0770  0.3831
 6295TIP3    H140444   3.517   5.607   1.187  0.8560 -2.0845  1.3963
 6295TIP3    H240445   3.407   5.511   1.147 -0.5891 -0.7625  2.0608
 6296TIP3   OH240446   0.911   3.898   1.774 -0.0232  0.5237 -0.2068
 6296TIP3    H140447   0.982   3.854   1.727 -0.9601 -1.1740 -0.1398
 6296TIP3    H240448   0.863   3.826   1.815 -2.7511  1.4149 -1.6078
 6297TIP3   OH240449   3.827   5.848   3.216  0.4261 -0.7610  0.3183
 6297TIP3    H140450   3.792   5.813   3.134 -1.1025  0.5746  0.3356
 6297TIP3    H240451   3.750   5.887   3.260  1.7518  1.4162  0.8698
 6298TIP3   OH240452   3.685   4.785   1.825 -0.1878 -0.4948 -0.8635
 6298TIP3    H140453   3.726   4.833   1.753  0.1214 -1.6606 -1.4888
 6298TIP3    H240454   3.663   4.699   1.788 -1.1226 -0.6995  0.0994
 6299TIP3   OH240455   2.034   0.370   3.443 -0.3341 -0.2388  0.0046
 6299TIP3    H140456   2.001   0.319   3.369 -1.4638 -0.1522  0.4229
 6299TIP3    H240457   1.983   0.452   3.439 -1.0683 -0.6019  1.3939
 6300TIP3   OH240458   5.890   4.969   1.246 -0.1705 -0.0930 -0.6350
 6300TIP3    H140459   5.855   5.039   1.191  0.9209 -0.0696 -1.3507
 6300TIP3    H240460   5.862   4.991   1.335  0.0925  1.2298 -0.8610
 6301TIP3   OH240461   3.810   6.184   1.616  0.4659  0.5444  0.4822
 6301TIP3    H140462   3.798   6.120   1.685  0.3384 -1.0711 -0.9672
 6301TIP3    H240463   3.901   6.211   1.623  1.0254 -1.1480  0.0377
 6302TIP3   OH240464   2.955   6.341   2.390  0.5130 -0.6834  0.3372
 6302TIP3    H140465   2.881   6.346   2.450 -0.3375 -1.1014 -0.6286
 6302TIP3    H240466   2.932   6.400   2.318  0.9101 -1.1344 -0.1773
 6303TIP3   OH240467   2.271   0.677   2.060 -0.2034  0.2779  0.0699
 6303TIP3    H140468   2.231   0.635   2.136 -1.0953  1.6461  0.4124
 6303TIP3    H240469   2.249   0.620   1.987  0.0089 -0.6664  0.7329
 6304TIP3   OH240470   2.270   6.530   1.916  0.2153 -0.3018 -0.1302
 6304TIP3    H140471   2.287   6.611   1.964  1.4663 -1.1840  1.0006
 6304TIP3    H240472   2.183   6.542   1.879 -1.3637  0.0504  3.2778
 6305TIP3   OH240473   3.266   5.528   1.958  0.2773  0.0515  0.3306
 6305TIP3    H140474   3.235   5.524   1.867 -0.0783 -1.2824  0.4847
 6305TIP3    H240475   3.231   5.610   1.992 -2.2085 -0.8619  0.1773
 6306TIP3   OH240476   2.893   5.292   3.273 -0.3087 -0.0556 -0.0396
 6306TIP3    H140477   2.830   5.279   3.344 -1.2434  0.8551 -0.6678
 6306TIP3    H240478   2.933   5.206   3.260 -1.8766 -0.8228 -0.0337
 6307TIP3   OH240479   2.180   2.050   0.040  0.9558  0.4293  0.0793
 6307TIP3    H140480   2.269   2.060   0.004  1.4684 -0.3756  1.0832
 6307TIP3    H240481   2.169   1.956   0.051  0.3665  0.5915  0.9396
 6308TIP3   OH240482   6.610   4.603   2.977  0.1057  0.4619 -0.6151
 6308TIP3    H140483   6.525   4.592   3.019 -0.6323 -0.6695 -2.2897
 6308TIP3    H240484   6.622   4.697   2.970 -0.1950  0.6638  1.1645
 6309TIP3   OH240485   2.804   2.904   1.793  0.1988  0.7989  0.1186
 6309TIP3    H140486   2.717   2.917   1.755  0.0715  0.7942  0.4088
 6309TIP3    H240487   2.834   2.820   1.757 -0.2244  0.4349  0.5950
 6310TIP3   OH240488   1.944   5.020   0.926  0.2191 -0.8453  0.7577
 6310TIP3    H140489   1.918   5.073   1.001  0.9039  0.1090  0.3444
 6310TIP3    H240490   1.905   5.064   0.851  1.7401 -0.2256  0.2881
 6311TIP3   OH240491   0.066   3.302   0.350 -0.1479  0.6832 -0.4501
 6311TIP3    H140492  -0.029   3.305   0.360 -0.1119  1.0051 -0.1995
 6311TIP3    H240493   0.095   3.240   0.417 -0.4860 -2.1904 -2.7737
 6312TIP3   OH240494   6.435   2.988   0.756 -0.4279  0.4651  0.3447
 6312TIP3    H140495   6.493   3.064   0.749 -0.2303  0.2564 -0.4079
 6312TIP3    H240496   6.463   2.943   0.836  2.1024 -0.9538 -1.2096
 6313TIP3   OH240497   6.088   5.296   1.378  0.3623  0.2023  0.1763
 6313TIP3    H140498   6.094   5.379   1.332 -0.0303  1.1067  1.6802
 6313TIP3    H240499   5.996   5.288   1.403  0.1800 -1.2038 -0.8295
 6314TIP3   OH240500   5.035   5.236   8.681  0.1661  0.0920 -0.5672
 6314TIP3    H140501   5.030   5.142   8.696 -0.2118  0.3472  1.0941
 6314TIP3    H240502   4.944   5.265   8.680  0.3063  0.5509 -0.2460
 6315TIP3   OH240503   0.652   2.681   3.295  0.4071  0.0222 -0.3321
 6315TIP3    H140504   0.590   2.610   3.312  0.3323 -0.1281 -1.1949
 6315TIP3    H240505   0.691   2.700   3.381 -0.8116  0.1116  0.2105
 6316TIP3   OH240506   2.339   3.408   2.019 -0.1151  0.5866  0.4288
 6316TIP3    H140507   2.315   3.501   2.015 -0.2305  0.5664  0.6585
 6316TIP3    H240508   2.362   3.393   2.110 -0.3962  0.3157  0.4557
 6317TIP3   OH240509   1.648   1.492   2.829 -0.0224 -0.7693 -0.3825
 6317TIP3    H140510   1.677   1.495   2.920 -0.8436  0.1687 -0.1190
 6317TIP3    H240511   1.697   1.420   2.790  0.9905 -0.6350  0.5739
 6318TIP3   OH240512   4.416   6.503   8.685  0.0071  0.0021  0.1270
 6318TIP3    H140513   4.388   6.516   8.775  1.5618  0.5870  0.5696
 6318TIP3    H240514   4.459   6.417   8.685 -3.2863 -1.8112 -0.9796
 6319TIP3   OH240515   2.927   3.736   1.025 -0.2364  0.2248 -0.0672
 6319TIP3    H140516   3.005   3.709   1.073 -1.0589 -0.1016  1.1141
 6319TIP3    H240517   2.857   3.680   1.058 -1.2783  1.4654 -0.0678
 6320TIP3   OH240518   3.784   4.960   3.679  0.0543  0.0126  0.1787
 6320TIP3    H140519   3.793   5.047   3.717  0.2995 -0.0470  0.2562
 6320TIP3    H240520   3.869   4.919   3.692 -0.3009 -0.5233  0.8502
 6321TIP3   OH240521   3.809   2.677   8.395  0.3275  0.4681 -0.7673
 6321TIP3    H140522   3.820   2.771   8.385  1.2839  0.5438  0.6333
 6321TIP3    H240523   3.872   2.638   8.334 -0.5315  0.7085 -1.8265
 6322TIP3   OH240524   0.624   2.583   2.065  0.4683 -0.1626 -0.4315
 6322TIP3    H140525   0.620   2.497   2.022 -1.7287  0.0975 -0.8930
 6322TIP3    H240526   0.601   2.565   2.156 -0.3225 -0.0668 -0.5979
 6323TIP3   OH240527   5.162   2.208   0.119  0.3577 -0.1436  0.6623
 6323TIP3    H140528   5.137   2.291   0.079  0.3938 -1.0098 -1.2557
 6323TIP3    H240529   5.094   2.192   0.184  0.2671  1.2981  0.9658
 6324TIP3   OH240530   2.293   4.456   3.769  0.3476  0.2126 -0.3085
 6324TIP3    H140531   2.268   4.372   3.732  0.3532 -0.1530  0.4895
 6324TIP3    H240532   2.311   4.437   3.861 -3.0473  1.6829  0.8189
 6325TIP3   OH240533   5.011   6.129   2.966  0.0090  0.1971 -0.0085
 6325TIP3    H140534   5.047   6.048   2.929 -1.2692 -0.2482 -0.3522
 6325TIP3    H240535   5.087   6.175   3.003  1.0021 -0.3517 -1.2946
 6326TIP3   OH240536   1.258   3.029   0.774  0.1627  0.4368  0.4041
 6326TIP3    H140537   1.236   2.955   0.717  0.2418  0.0159  0.9128
 6326TIP3    H240538   1.177   3.049   0.820  0.3383  0.1485  0.8486
 6327TIP3   OH240539   2.627   3.844   7.987  0.5777 -0.0109 -0.3679
 6327TIP3    H140540   2.605   3.931   7.954  1.9816 -0.0609 -1.5360
 6327TIP3    H240541   2.657   3.858   8.076  0.8271  0.7051 -0.5624
 6328TIP3   OH240542   1.383   0.083   2.472  0.0486  0.4680 -0.0115
 6328TIP3    H140543   1.331   0.014   2.515  0.6837  1.2903  2.2411
 6328TIP3    H240544   1.446   0.035   2.419 -0.0051 -0.7062  0.9241
 6329TIP3   OH240545   0.111   1.286   2.327  0.6028  0.4017 -0.2141
 6329TIP3    H140546   0.048   1.352   2.356  0.2776  0.2047 -0.4596
 6329TIP3    H240547   0.057   1.210   2.304  0.8739  0.4268 -0.9834
 6330TIP3   OH240548   5.659   4.031   2.201 -0.5732 -0.6785 -0.4249
 6330TIP3    H140549   5.742   3.998   2.165 -0.3187 -0.0768 -0.4023
 6330TIP3    H240550   5.646   3.979   2.281 -0.7160 -1.4425 -0.9304
 6331TIP3   OH240551   4.054   4.531   2.098  0.5799  0.2651  0.3118
 6331TIP3    H140552   3.973   4.571   2.066  1.0368  0.8781 -0.1001
 6331TIP3    H240553   4.110   4.523   2.020 -0.1006 -2.7684  0.0143
 6332TIP3   OH240554   1.814   2.266   2.770 -0.5287  0.2720  0.1402
 6332TIP3    H140555   1.790   2.267   2.678 -1.4491 -0.4863  0.3553
 6332TIP3    H240556   1.760   2.197   2.808 -0.1157  0.5312  1.2363
 6333TIP3   OH240557   1.779   0.556   3.452  0.5573  0.5004  0.3623
 6333TIP3    H140558   1.771   0.526   3.542  0.4841 -2.3545 -0.5105
 6333TIP3    H240559   1.696   0.534   3.411  0.6395  1.6336 -0.4719
 6334TIP3   OH240560   1.126   0.287   2.247 -0.0961 -0.1355 -0.1877
 6334TIP3    H140561   1.054   0.332   2.204 -0.9569 -1.1046  0.1918
 6334TIP3    H240562   1.121   0.315   2.338  0.1740  0.0015 -0.2152
 6335TIP3   OH240563   1.032   2.510   2.581 -0.2178 -0.5198 -0.2375
 6335TIP3    H140564   1.099   2.538   2.644  0.5780 -2.7564 -0.0007
 6335TIP3    H240565   0.950   2.516   2.630  0.1185 -0.1103  0.2875
 6336TIP3   OH240566   2.839   5.852   2.596  0.0994  0.6458 -0.0262
 6336TIP3    H140567   2.793   5.832   2.515 -2.1658  1.5587  0.9455
 6336TIP3    H240568   2.824   5.776   2.652 -0.1419  0.8868  0.2457
 6337TIP3   OH240569   0.246   2.222   0.813  0.0079 -0.0298  0.6347
 6337TIP3    H140570   0.165   2.233   0.764 -0.0597 -0.8543  0.5388
 6337TIP3    H240571   0.267   2.309   0.847  0.6752  0.8651 -1.8261
 6338TIP3   OH240572   4.261   3.786   3.244  0.0725 -0.4518 -0.3735
 6338TIP3    H140573   4.335   3.740   3.284 -0.6753  0.1806  1.9073
 6338TIP3    H240574   4.293   3.874   3.228 -0.5637  0.3812  2.2983
 6339TIP3   OH240575   6.804   1.049   2.271 -0.2718 -0.3642  0.0580
 6339TIP3    H140576   6.729   1.102   2.244 -0.4098 -0.1796  0.7975
 6339TIP3    H240577   6.766   0.969   2.307 -0.0501 -1.4074 -1.8850
 6340TIP3   OH240578   5.584   2.511   8.560 -0.1859 -0.4663 -0.2387
 6340TIP3    H140579   5.540   2.596   8.558  2.5476  1.0865 -2.9332
 6340TIP3    H240580   5.622   2.501   8.473  0.9546 -3.7583  0.4806
 6341TIP3   OH240581   1.925   2.088   0.169  1.0065 -0.0206 -0.4522
 6341TIP3    H140582   2.004   2.062   0.122  0.6483 -1.5038 -0.2978
 6341TIP3    H240583   1.902   2.011   0.221  1.5134  1.6240  2.3965
 6342TIP3   OH240584   3.336   3.339   2.103 -0.0593  0.4299  0.2400
 6342TIP3    H140585   3.407   3.387   2.060  0.3996 -0.8398 -0.4925
 6342TIP3    H240586   3.381   3.282   2.166 -0.4378 -0.2126 -0.0640
 6343TIP3   OH240587   6.241   5.589   0.301  0.7626  0.2100  0.2879
 6343TIP3    H140588   6.192   5.671   0.311  0.0758 -0.2117  0.4429
 6343TIP3    H240589   6.246   5.576   0.206  0.4084  0.1565  0.2756
 6344TIP3   OH240590   1.758   1.719   8.123 -0.0606 -0.3148 -0.3722
 6344TIP3    H140591   1.828   1.782   8.142  0.4400 -0.3060 -2.0837
 6344TIP3    H240592   1.679   1.772   8.114  0.2584  0.0343 -1.2447
 6345TIP3   OH240593   3.470   2.402   1.928 -0.0526 -0.5542  0.2415
 6345TIP3    H140594   3.397   2.345   1.902 -0.7696  0.8366 -0.9637
 6345TIP3    H240595   3.430   2.488   1.935  0.8359 -0.2846  2.8230
 6346TIP3   OH240596   2.885   6.024   1.928  0.2500 -0.1927 -0.0398
 6346TIP3    H140597   2.794   6.053   1.920  0.4102  0.1503 -0.7611
 6346TIP3    H240598   2.935   6.088   1.878  0.9748  0.0001  0.8975
 6347TIP3   OH240599   3.155   4.294   0.065 -0.0684  0.8226  0.2749
 6347TIP3    H140600   3.129   4.355   0.135 -2.1985  0.6260 -0.2707
 6347TIP3    H240601   3.222   4.342   0.016 -1.3853  2.6231  0.1011
 6348TIP3   OH240602   5.565   4.667   2.029 -0.5540 -0.2592  0.1239
 6348TIP3    H140603   5.611   4.751   2.021 -1.2054 -0.0285 -1.4562
 6348TIP3    H240604   5.617   4.607   1.976 -0.8624 -0.5289  0.1317
 6349TIP3   OH240605   1.638   5.867   1.724  0.1800  0.1710  0.4018
 6349TIP3    H140606   1.572   5.867   1.793  0.0269  0.3702  0.2557
 6349TIP3    H240607   1.668   5.958   1.718 -1.4953  0.6684 -1.3998
 6350TIP3   OH240608   1.317   0.620   2.799  0.2760 -0.2166  0.2875
 6350TIP3    H140609   1.409   0.646   2.807  0.1606  0.0789  0.7196
 6350TIP3    H240610   1.300   0.618   2.705  0.4061  0.8675  0.2353
 6351TIP3   OH240611   1.096   2.226   0.860  0.0956  0.7278  0.1616
 6351TIP3    H140612   1.160   2.279   0.907  0.3513  0.5838 -0.0191
 6351TIP3    H240613   1.051   2.176   0.928  1.5601 -0.6821  0.1634
 6352TIP3   OH240614   4.970   5.013   2.526  0.5399  0.0378  0.2132
 6352TIP3    H140615   4.905   5.045   2.464 -0.0989  1.1183  1.3845
 6352TIP3    H240616   4.943   5.049   2.610  2.3679  0.0889  0.8384
 6353TIP3   OH240617   4.898   6.075   0.423  0.2370  0.1554 -0.8583
 6353TIP3    H140618   4.954   6.073   0.501  0.5700 -0.6374 -1.1071
 6353TIP3    H240619   4.953   6.113   0.355  0.7839 -1.3812 -1.3164
 6354TIP3   OH240620   2.097   0.994   2.969  0.4772 -0.1090 -0.0650
 6354TIP3    H140621   2.030   1.003   3.037  3.1642  2.1676  2.5618
 6354TIP3    H240622   2.172   0.954   3.013  1.6969 -0.3929 -2.2336
 6355TIP3   OH240623   3.500   1.217   2.297  0.1650 -0.3249  0.1573
 6355TIP3    H140624   3.523   1.132   2.258 -0.1242 -0.4311  0.2190
 6355TIP3    H240625   3.473   1.271   2.223  0.1570 -0.3494  0.1421
 6356TIP3   OH240626   1.687   3.157   0.918 -0.0325 -0.2734  0.8898
 6356TIP3    H140627   1.690   3.253   0.917 -0.6715 -0.2471  0.6187
 6356TIP3    H240628   1.598   3.136   0.889  0.7089 -1.0041 -1.0034
 6357TIP3   OH240629   1.553   2.563   2.763  0.3428  0.2689 -0.3348
 6357TIP3    H140630   1.638   2.559   2.719  0.1336  0.0140 -0.7229
 6357TIP3    H240631   1.575   2.574   2.855  0.7850  1.7819 -0.5790
 6358TIP3   OH240632   2.107   0.850   0.741  0.1316  0.1159  0.5819
 6358TIP3    H140633   2.073   0.840   0.830  0.9019  1.7997  1.1062
 6358TIP3    H240634   2.066   0.930   0.708  0.8654  0.2290 -0.0953
 6359TIP3   OH240635   4.204   2.050   0.979  0.1487 -0.6827  0.0232
 6359TIP3    H140636   4.285   2.055   1.030  0.0719 -2.6531  0.4195
 6359TIP3    H240637   4.229   2.081   0.892  0.8715  0.4450  0.6077
 6360TIP3   OH240638   3.381   0.446   0.061  0.0384  0.0592  0.3381
 6360TIP3    H140639   3.341   0.502   0.128  0.2160  0.7044 -0.0778
 6360TIP3    H240640   3.391   0.361   0.103 -1.4656 -0.0352  0.5552
 6361TIP3   OH240641   2.317   5.803   2.931  0.2085 -0.0201 -0.1257
 6361TIP3    H140642   2.353   5.715   2.928  0.8577  0.2426 -0.2294
 6361TIP3    H240643   2.288   5.820   2.841  3.0173  1.0469 -0.9335
 6362TIP3   OH240644   0.055   4.855   0.127 -0.0733  0.0613  0.1373
 6362TIP3    H140645  -0.002   4.806   0.186  0.1260  0.5429  0.7335
 6362TIP3    H240646   0.076   4.793   0.057 -0.2509 -0.5386  0.6079
 6363TIP3   OH240647   5.146   5.041   1.048  0.6645 -0.0713 -0.2124
 6363TIP3    H140648   5.120   5.062   0.958  0.7115  1.1724  0.0550
 6363TIP3    H240649   5.162   5.125   1.089  1.3636 -0.6615  0.7622
 6364TIP3   OH240650   3.088   6.258   0.401  0.1068  0.4531 -0.2436
 6364TIP3    H140651   3.128   6.173   0.381 -0.0319  0.4967 -0.7079
 6364TIP3    H240652   3.039   6.242   0.482 -1.4088 -0.3978 -1.2905
 6365TIP3   OH240653   3.199   2.306   0.466  0.0925  0.2081  0.3149
 6365TIP3    H140654   3.195   2.388   0.417  2.0726 -0.8911 -1.8275
 6365TIP3    H240655   3.228   2.240   0.403 -3.8348 -2.8042  1.2239
 6366TIP3   OH240656   5.448   6.431   1.654  0.0659 -0.0322  0.0358
 6366TIP3    H140657   5.509   6.371   1.613 -0.7293  0.0566 -1.3374
 6366TIP3    H240658   5.450   6.509   1.599  0.5981  0.9779  1.4214
 6367TIP3   OH240659   6.200   0.563   8.573  0.0386  0.4100 -0.4061
 6367TIP3    H140660   6.267   0.503   8.540 -0.1600 -0.3931  0.6180
 6367TIP3    H240661   6.235   0.596   8.655 -0.6792  0.2293 -0.0161
 6368TIP3   OH240662   0.817   5.393   3.356 -0.0898 -0.4721  0.1671
 6368TIP3    H140663   0.838   5.421   3.445  0.1024  1.3919 -0.4237
 6368TIP3    H240664   0.807   5.298   3.362 -2.1223 -0.1804  2.5649
 6369TIP3   OH240665   0.992   6.170   1.171  0.1629 -0.1511 -0.3590
 6369TIP3    H140666   0.979   6.215   1.254  1.2744 -0.1094 -0.1972
 6369TIP3    H240667   0.905   6.137   1.148 -0.2860  0.4077  0.4801
 6370TIP3   OH240668   1.877   6.188   1.158 -0.0916 -0.3666  0.6770
 6370TIP3    H140669   1.857   6.174   1.065 -0.4108 -2.2514  0.9822
 6370TIP3    H240670   1.932   6.113   1.182 -2.1089 -1.3460  2.5958
 6371TIP3   OH240671   0.934   3.366   2.461 -0.1066  0.2945  0.3485
 6371TIP3    H140672   0.905   3.281   2.494 -0.3746 -0.5203 -1.8716
 6371TIP3    H240673   0.855   3.421   2.463 -0.0569  0.3530  1.2550
 6372TIP3   OH240674   0.303   2.148   1.216 -0.4691 -0.2012  0.2880
 6372TIP3    H140675   0.297   2.243   1.222  1.0371  0.0408 -1.2572
 6372TIP3    H240676   0.374   2.132   1.154 -0.5892 -2.3457  0.6196
 6373TIP3   OH240677   0.222   3.979   3.597  0.2631 -0.0773  0.1903
 6373TIP3    H140678   0.260   4.005   3.681 -0.2791  0.6608  0.2170
 6373TIP3    H240679   0.178   3.896   3.616  0.8870 -0.3591  0.4221
 6374TIP3   OH240680   0.311   3.308   2.582 -0.0093  0.3639  0.5435
 6374TIP3    H140681   0.281   3.279   2.668  0.5396 -0.3722  0.4999
 6374TIP3    H240682   0.334   3.227   2.536 -0.6591  0.7110 -0.4419
 6375TIP3   OH240683   2.545   0.527   8.190 -0.5314  0.3662 -0.2569
 6375TIP3    H140684   2.477   0.471   8.225  2.1151 -1.3347  2.6200
 6375TIP3    H240685   2.523   0.615   8.222 -1.3255 -0.1544  0.6491
 6376TIP3   OH240686   3.381   1.917   2.468  0.1713  0.2157  1.0109
 6376TIP3    H140687   3.443   1.848   2.490  0.8717 -0.5177 -2.5555
 6376TIP3    H240688   3.339   1.886   2.387  0.5235  3.9166 -0.8135
 6377TIP3   OH240689   6.364   6.337   0.922 -0.0117 -0.5329  0.6697
 6377TIP3    H140690   6.438   6.288   0.887 -0.7933 -0.8666 -0.5934
 6377TIP3    H240691   6.403   6.414   0.962  1.0911 -1.2325  0.9770
 6378TIP3   OH240692   2.635   2.967   3.196  0.4232  0.0450  0.0420
 6378TIP3    H140693   2.701   3.010   3.141 -0.3569  0.8080 -0.3285
 6378TIP3    H240694   2.623   3.027   3.270  0.7602 -0.5078  0.5517
 6379TIP3   OH240695   3.589   5.162   3.513  0.1200  0.2537  0.0857
 6379TIP3    H140696   3.660   5.204   3.562 -0.3537  0.7652  0.3471
 6379TIP3    H240697   3.622   5.074   3.494  1.0529  0.6650 -0.2942
 6380TIP3   OH240698   6.317   3.883   8.145  0.1026  0.4792 -0.1403
 6380TIP3    H140699   6.322   3.866   8.239  1.0895  1.9087  0.0939
 6380TIP3    H240700   6.241   3.834   8.115  2.0806 -3.4714  0.6172
 6381TIP3   OH240701   5.549   3.698   0.879 -0.0965  0.6364  0.6452
 6381TIP3    H140702   5.463   3.671   0.911 -0.2903  2.5333  1.8927
 6381TIP3    H240703   5.591   3.616   0.851 -2.5729 -0.2531 -0.7995
 6382TIP3   OH240704   6.421   5.335   0.742 -0.4079  0.1401  0.2498
 6382TIP3    H140705   6.349   5.366   0.688 -1.4556 -2.0182  0.2854
 6382TIP3    H240706   6.422   5.240   0.728  1.5885 -0.0510  1.2756
 6383TIP3   OH240707   3.060   1.585   1.906 -0.2543  0.0361  0.0800
 6383TIP3    H140708   3.131   1.535   1.865 -1.0662 -0.0342 -1.2840
 6383TIP3    H240709   3.065   1.671   1.866 -0.6862  0.1544  0.2738
 6384TIP3   OH240710   1.801   4.384   4.086  0.1725 -0.0948 -0.1977
 6384TIP3    H140711   1.826   4.440   4.013 -1.3027 -2.1256 -2.4029
 6384TIP3    H240712   1.865   4.312   4.085  0.2189 -0.0812  0.6175
 6385TIP3   OH240713   4.893   2.079   2.596 -0.3009 -0.2971 -0.0687
 6385TIP3    H140714   4.985   2.056   2.582  0.3327  1.3865  1.0519
 6385TIP3    H240715   4.874   2.050   2.685 -1.0138 -1.0237 -0.4401
 6386TIP3   OH240716   5.793   5.788   0.949 -0.3351  0.9833 -0.7451
 6386TIP3    H140717   5.823   5.824   1.033 -1.1759  1.5697 -0.6910
 6386TIP3    H240718   5.744   5.859   0.909 -0.9087  0.3219 -1.2285
 6387TIP3   OH240719   4.178   5.392   1.771 -0.5982 -0.3006  0.5928
 6387TIP3    H140720   4.141   5.465   1.721 -1.9161 -0.7944  0.8209
 6387TIP3    H240721   4.136   5.397   1.856  0.7999 -0.1438  1.3000
 6388TIP3   OH240722   1.493   1.011   3.659  0.1373  0.1562 -0.1382
 6388TIP3    H140723   1.413   0.964   3.683  0.0981  1.0812  1.6764
 6388TIP3    H240724   1.563   0.959   3.698  0.2206  0.6303  0.3575
 6389TIP3   OH240725   2.290   2.509   2.046 -0.7984  0.8018 -0.0351
 6389TIP3    H140726   2.258   2.561   2.120 -3.2137  1.0223 -1.1460
 6389TIP3    H240727   2.243   2.544   1.970  0.4246 -0.4616 -1.4361
 6390TIP3   OH240728   1.017   4.966   1.967 -0.1943 -1.0978  0.3300
 6390TIP3    H140729   1.089   4.914   1.932  0.2522 -0.0560 -0.3366
 6390TIP3    H240730   0.943   4.947   1.908  0.3198 -0.0132 -0.6991
 6391TIP3   OH240731   3.511   5.873   8.607 -0.0230 -0.6560 -0.2332
 6391TIP3    H140732   3.423   5.909   8.595  1.5226  3.1403 -1.9071
 6391TIP3    H240733   3.533   5.835   8.522 -0.0287 -1.6204  0.1890
 6392TIP3   OH240734   2.913   6.568   1.166  0.4723  0.2521  0.4361
 6392TIP3    H140735   2.821   6.585   1.150  0.4775  0.0102  0.1485
 6392TIP3    H240736   2.931   6.485   1.122  0.5287 -0.3472  1.5462
 6393TIP3   OH240737   4.308   1.957   1.491  1.0618  0.1634 -0.3788
 6393TIP3    H140738   4.327   1.869   1.459  0.0893 -0.6440  1.1222
 6393TIP3    H240739   4.323   1.951   1.585 -1.6391  0.7988  0.1704
 6394TIP3   OH240740   5.064   5.383   1.356  0.1389  0.5896 -0.2324
 6394TIP3    H140741   5.097   5.354   1.271  1.3355  4.4438 -1.2814
 6394TIP3    H240742   5.102   5.470   1.368 -0.9014  0.6807  3.7717
 6395TIP3   OH240743   3.243   1.235   8.281  0.1619  0.7645 -0.0707
 6395TIP3    H140744   3.317   1.200   8.331  0.3033  1.6639  0.3549
 6395TIP3    H240745   3.243   1.184   8.200  0.8089  0.2750  0.2281
 6396TIP3   OH240746   1.795   6.172   3.182 -0.1689 -0.0739 -0.3311
 6396TIP3    H140747   1.871   6.122   3.210 -1.5237 -2.1260 -0.1041
 6396TIP3    H240748   1.757   6.121   3.111 -2.7255 -0.5147  1.2035
 6397TIP3   OH240749   5.097   0.151   2.184 -0.0158 -0.3060 -0.5277
 6397TIP3    H140750   5.081   0.087   2.253 -1.0321  0.1370 -0.3408
 6397TIP3    H240751   5.107   0.235   2.230 -0.1478 -0.0953 -0.8776
 6398TIP3   OH240752   0.124   4.609   2.856  0.6201  0.4232  0.4523
 6398TIP3    H140753   0.044   4.558   2.873  1.5905 -1.0835  0.7399
 6398TIP3    H240754   0.165   4.619   2.942  1.5573 -0.2794  0.1091
 6399TIP3   OH240755   3.051   3.895   8.705 -0.5360  0.1599 -0.0040
 6399TIP3    H140756   2.998   3.951   8.761  1.8140  1.4606  1.0669
 6399TIP3    H240757   3.100   3.955   8.649  0.8317 -0.8712  0.0259
 6400TIP3   OH240758   4.027   0.195   8.344  0.4465 -0.5252  0.2361
 6400TIP3    H140759   4.116   0.229   8.353 -0.0220  0.5364  1.0813
 6400TIP3    H240760   4.018   0.177   8.251  1.5007 -0.5430  0.1194
 6401TIP3   OH240761   4.510   5.450   2.922 -0.0938  0.2945  1.0158
 6401TIP3    H140762   4.500   5.368   2.972  0.2428 -0.3336  0.0901
 6401TIP3    H240763   4.553   5.510   2.982 -1.3297  0.1535  2.0785
 6402TIP3   OH240764   2.017   6.547   1.799  0.1834  0.2373 -0.1087
 6402TIP3    H140765   1.995   6.620   1.857 -1.8472  0.2016 -0.7493
 6402TIP3    H240766   1.961   6.559   1.723 -2.1776 -3.3198  0.8028
 6403TIP3   OH240767   0.451   1.242   0.933 -0.2257  0.0180 -0.3249
 6403TIP3    H140768   0.368   1.206   0.965 -0.5882 -0.2485 -1.5203
 6403TIP3    H240769   0.504   1.255   1.012 -1.2881 -0.0947  0.4215
 6404TIP3   OH240770   4.527   5.640   8.663  0.7253  0.5956 -0.2675
 6404TIP3    H140771   4.441   5.678   8.643  0.9786  0.4352 -1.7688
 6404TIP3    H240772   4.582   5.715   8.687  0.3461  0.7711  0.0704
 6405TIP3   OH240773   3.545   2.581   0.539 -0.1027  0.0997  0.4782
 6405TIP3    H140774   3.610   2.529   0.587  0.6803  0.6028 -0.0169
 6405TIP3    H240775   3.553   2.669   0.576 -0.0180  0.3175 -0.0586
 6406TIP3   OH240776   4.166   2.637   8.329 -0.9653  0.2085  0.0427
 6406TIP3    H140777   4.216   2.706   8.284 -0.4011  0.2327  0.6836
 6406TIP3    H240778   4.221   2.614   8.404 -0.6177 -1.7101 -0.7440
 6407TIP3   OH240779   5.615   1.707   2.584  0.5810 -0.0094  0.3810
 6407TIP3    H140780   5.645   1.629   2.629  1.9035 -1.0365 -2.1023
 6407TIP3    H240781   5.643   1.696   2.493 -2.2814  1.7014 -0.8845
 6408TIP3   OH240782   3.595   1.004   2.180  1.2761  0.2027 -0.3382
 6408TIP3    H140783   3.689   0.990   2.170  0.9354 -2.8413 -0.3116
 6408TIP3    H240784   3.559   0.916   2.193 -1.4688  1.3733  0.7454
 6409TIP3   OH240785   3.149   1.665   2.514 -0.2967 -0.0143 -0.5078
 6409TIP3    H140786   3.213   1.684   2.583  0.9940 -0.7958 -1.4522
 6409TIP3    H240787   3.065   1.694   2.551  0.5795  1.0025  0.7730
 6410TIP3   OH240788   5.083   1.599   0.918 -0.3577  0.6552  0.0054
 6410TIP3    H140789   5.087   1.606   1.013 -0.6621 -0.3150  0.1027
 6410TIP3    H240790   5.113   1.510   0.899 -0.7562  0.6741 -0.7653
 6411TIP3   OH240791   5.734   0.671   8.733  0.3061  0.2166 -0.6313
 6411TIP3    H140792   5.779   0.586   8.724  0.4548  0.4534 -2.6998
 6411TIP3    H240793   5.751   0.698   8.823 -0.6564 -2.4418  0.4619
 6412TIP3   OH240794   1.891   2.901   1.099  0.1355 -0.2831  0.0493
 6412TIP3    H140795   1.905   2.900   1.004 -1.0395 -0.6362 -0.1346
 6412TIP3    H240796   1.960   2.844   1.134  0.2247 -0.6180 -0.6442
 6413TIP3   OH240797   2.591   1.704   8.733  1.0587 -0.7221  0.4115
 6413TIP3    H140798   2.625   1.783   8.691  1.4725 -1.4995 -0.7531
 6413TIP3    H240799   2.669   1.656   8.760  0.9325 -2.0223 -1.3543
 6414TIP3   OH240800   3.251   0.901   8.561 -0.5142  0.0278 -0.6248
 6414TIP3    H140801   3.157   0.918   8.571 -0.2760  3.8070 -3.0836
 6414TIP3    H240802   3.293   0.968   8.615  0.9024 -2.0253  0.9714
 6415TIP3   OH240803   3.183   0.243   0.765  0.4427  0.1252 -0.2880
 6415TIP3    H140804   3.210   0.284   0.847 -0.0107  0.4335 -0.2894
 6415TIP3    H240805   3.122   0.174   0.790 -0.6912  1.0424 -0.4295
 6416TIP3   OH240806   2.039   4.686   1.620 -0.8290  0.3262  0.0270
 6416TIP3    H140807   2.081   4.603   1.596 -2.2536  0.1765 -2.1638
 6416TIP3    H240808   2.029   4.733   1.538 -0.2267  2.6574  1.1959
 6417TIP3   OH240809   5.649   1.056   0.887 -0.1005 -0.5276 -0.0663
 6417TIP3    H140810   5.708   1.000   0.937 -1.6680 -0.7405  1.6278
 6417TIP3    H240811   5.705   1.092   0.818  2.2906  0.0692  1.9942
 6418TIP3   OH240812   4.700   3.269   2.203 -0.2288  0.1040  0.4337
 6418TIP3    H140813   4.616   3.291   2.242  0.6190  1.9631  1.3038
 6418TIP3    H240814   4.742   3.211   2.267  0.0102  0.8804  0.9841
 6419TIP3   OH240815   6.713   0.993   1.304  0.5853 -0.2732 -0.2705
 6419TIP3    H140816   6.764   1.073   1.318  0.3512 -0.1926  0.1510
 6419TIP3    H240817   6.658   0.985   1.382 -0.6957  0.1170 -1.0960
 6420TIP3   OH240818   1.720   1.536   0.016 -0.5018 -0.2156  0.0282
 6420TIP3    H140819   1.758   1.542  -0.072  3.6677  0.3208  1.6257
 6420TIP3    H240820   1.707   1.626   0.043 -1.2276 -0.3650  0.1994
 6421TIP3   OH240821   0.731   0.990   1.947  0.0333 -0.3482  0.0163
 6421TIP3    H140822   0.658   0.930   1.959  0.1813 -0.7271 -0.8932
 6421TIP3    H240823   0.784   0.950   1.877  0.0334  0.9192 -0.7389
 6422TIP3   OH240824   3.771   5.697   8.679 -0.5904 -0.0580  0.6112
 6422TIP3    H140825   3.698   5.720   8.621  0.4043  1.6281 -0.0503
 6422TIP3    H240826   3.750   5.742   8.762 -0.8096 -0.4394  0.7646
 6423TIP3   OH240827   3.223   3.993   2.901  0.3166  0.3976 -0.1354
 6423TIP3    H140828   3.276   3.922   2.864  0.9538 -0.7877  2.8037
 6423TIP3    H240829   3.158   3.949   2.956 -1.6640  1.9905 -1.0563
 6424TIP3   OH240830   1.755   4.929   1.232  0.1402  0.9665 -0.0971
 6424TIP3    H140831   1.798   5.010   1.207  1.7003 -0.2542 -1.6521
 6424TIP3    H240832   1.795   4.862   1.176 -2.0794 -0.6651  0.1082
 6425TIP3   OH240833   3.294   4.765   1.157  0.0371 -0.7429 -0.2186
 6425TIP3    H140834   3.289   4.747   1.250  1.0394  0.5843  0.1198
 6425TIP3    H240835   3.232   4.836   1.142 -0.4173 -1.2165 -0.6544
 6426TIP3   OH240836   0.391   3.960   0.015 -0.2497  0.4660  0.3345
 6426TIP3    H140837   0.322   3.894   0.023  0.9722 -1.1192 -1.3986
 6426TIP3    H240838   0.356   4.036   0.062 -0.9952 -1.8872  4.0027
 6427TIP3   OH240839   1.958   1.880   3.499  0.2564 -0.4117 -0.5486
 6427TIP3    H140840   1.865   1.861   3.514  0.4505 -2.1945 -1.3476
 6427TIP3    H240841   1.999   1.868   3.585 -0.1028 -0.6759 -0.4118
 6428TIP3   OH240842   4.923   5.966   1.761 -0.2199 -0.0198 -0.4674
 6428TIP3    H140843   4.881   6.052   1.749 -1.3244 -0.5466 -0.5198
 6428TIP3    H240844   4.876   5.908   1.701 -0.1427 -0.8608  0.2714
 6429TIP3   OH240845   4.853   5.120   1.822  0.3274  0.1695  0.4146
 6429TIP3    H140846   4.797   5.086   1.892  1.5552 -0.0948  1.3098
 6429TIP3    H240847   4.844   5.057   1.751 -1.9719  1.1247 -0.2427
 6430TIP3   OH240848   1.125   1.463   1.742  0.1624 -0.5497 -0.3112
 6430TIP3    H140849   1.149   1.415   1.821 -0.3438  2.0904  1.5799
 6430TIP3    H240850   1.206   1.506   1.714 -0.4661  2.0075  1.4439
 6431TIP3   OH240851   0.082   3.160   0.580  0.1144 -0.1545  0.6089
 6431TIP3    H140852   0.160   3.112   0.609  0.8564  1.3507  1.2100
 6431TIP3    H240853   0.010   3.098   0.594  1.1020 -1.3428  0.6778
 6432TIP3   OH240854   1.225   4.049   0.916 -0.0907 -0.3644  0.2331
 6432TIP3    H140855   1.293   3.981   0.914  0.3338  0.0794 -0.7812
 6432TIP3    H240856   1.144   4.001   0.936  0.1943 -1.1827 -0.5038
 6433TIP3   OH240857   3.796   1.154   1.062  0.1849  0.2965  0.0970
 6433TIP3    H140858   3.726   1.114   1.113 -1.3216 -0.4339 -2.3646
 6433TIP3    H240859   3.752   1.219   1.007  1.4074 -0.1459 -1.4886
 6434TIP3   OH240860   3.220   6.093   2.738  0.1261  0.4725 -0.1274
 6434TIP3    H140861   3.297   6.115   2.792  0.3205  0.7552 -0.5135
 6434TIP3    H240862   3.220   5.998   2.734  1.5708  0.4872 -1.6925
 6435TIP3   OH240863   1.349   0.196   8.340 -0.1285  0.5868  0.9133
 6435TIP3    H140864   1.395   0.275   8.369  0.2968  0.1676  1.4189
 6435TIP3    H240865   1.312   0.160   8.421 -2.3190  1.4974  0.3802
 6436TIP3   OH240866   3.385   6.079   0.696  0.1574  0.4670 -0.5101
 6436TIP3    H140867   3.362   6.161   0.653  1.1601  0.7219 -0.5864
 6436TIP3    H240868   3.302   6.044   0.728 -0.5580  0.5159 -2.2139
 6437TIP3   OH240869   0.153   3.343   1.015 -0.9178  0.0563  0.2879
 6437TIP3    H140870   0.094   3.392   0.958 -0.9016 -0.3506 -0.0900
 6437TIP3    H240871   0.174   3.403   1.086 -0.8245  0.6283 -0.2156
 6438TIP3   OH240872   1.287   1.914   2.089 -0.3163 -0.2947  0.2483
 6438TIP3    H140873   1.225   1.842   2.083 -0.8343  0.1643 -0.0242
 6438TIP3    H240874   1.259   1.964   2.165 -0.1399 -0.2143  0.2608
 6439TIP3   OH240875   0.615   0.515   3.139  0.5513 -0.4739 -0.2158
 6439TIP3    H140876   0.660   0.433   3.162  0.2650 -0.1722  1.5137
 6439TIP3    H240877   0.643   0.532   3.049  1.7461 -1.7232 -0.1232
 6440TIP3   OH240878   4.865   6.198   2.630 -0.2916  0.4866  0.6757
 6440TIP3    H140879   4.834   6.162   2.713 -1.6246 -1.8849 -0.7586
 6440TIP3    H240880   4.959   6.182   2.631 -0.2821  0.5036  1.6969
 6441TIP3   OH240881   3.802   3.847   2.172  0.5282  0.5164  0.6292
 6441TIP3    H140882   3.712   3.815   2.180  0.8247 -0.7102 -0.6851
 6441TIP3    H240883   3.793   3.933   2.131  0.0303 -0.6997 -2.0171
 6442TIP3   OH240884   2.679   4.244   1.172 -0.1467 -0.3976  0.6262
 6442TIP3    H140885   2.749   4.296   1.212 -0.6938 -1.2285  2.7957
 6442TIP3    H240886   2.652   4.182   1.240 -1.8916 -1.1926 -0.6897
 6443TIP3   OH240887   3.672   4.932   2.683 -0.5780  0.3968 -0.3489
 6443TIP3    H140888   3.675   5.003   2.748 -0.9331  0.6803 -0.6414
 6443TIP3    H240889   3.604   4.958   2.621  0.2016  0.4460 -1.2115
 6444TIP3   OH240890   5.654   4.127   0.535 -0.1329 -0.3689  0.2688
 6444TIP3    H140891   5.726   4.069   0.510 -1.1614 -1.5661 -0.0145
 6444TIP3    H240892   5.605   4.140   0.453 -0.8104 -0.4071  0.6640
 6445TIP3   OH240893   3.972   1.257   0.791  0.1521  0.1242 -0.4932
 6445TIP3    H140894   3.944   1.277   0.880  0.5462 -2.0591  0.1755
 6445TIP3    H240895   4.048   1.315   0.776  0.8886 -0.3709  1.0867
 6446TIP3   OH240896   3.094   0.287   1.280 -0.2105 -0.2266  1.1872
 6446TIP3    H140897   3.080   0.360   1.219 -0.6583 -0.1375  1.3942
 6446TIP3    H240898   3.013   0.282   1.331  0.9206  1.1012  3.2652
 6447TIP3   OH240899   6.602   3.444   0.833  0.0812  0.1287 -0.1285
 6447TIP3    H140900   6.552   3.383   0.777 -1.5394  2.6410 -1.6238
 6447TIP3    H240901   6.690   3.408   0.835 -0.1089 -0.8085 -3.2948
 6448TIP3   OH240902   1.626   4.323   1.180  0.0372  0.0215  0.1141
 6448TIP3    H140903   1.634   4.228   1.173 -0.8259 -0.1044  0.7053
 6448TIP3    H240904   1.606   4.352   1.092  2.5807 -0.0755 -0.5839
 6449TIP3   OH240905   5.352   3.245   0.603 -0.4279 -0.2137  0.3897
 6449TIP3    H140906   5.394   3.318   0.647 -1.1598 -0.1114  0.9344
 6449TIP3    H240907   5.392   3.167   0.641 -1.1633 -0.1316  1.3696
 6450TIP3   OH240908   4.248   0.021   3.358  0.0675  0.3145 -0.1004
 6450TIP3    H140909   4.171   0.048   3.408  1.2762  3.3879  0.3216
 6450TIP3    H240910   4.225   0.036   3.267 -0.3256 -0.2553 -0.1009
 6451TIP3   OH240911   1.115   5.123   8.481  0.2071  0.5398 -0.2067
 6451TIP3    H140912   1.157   5.148   8.564 -1.2681  0.9233  0.4663
 6451TIP3    H240913   1.063   5.046   8.503  2.5966 -1.5860 -1.6504
 6452TIP3   OH240914   3.322   3.232   3.065  0.2039 -0.3353  0.2502
 6452TIP3    H140915   3.329   3.310   3.011 -0.7752 -0.8239 -0.5984
 6452TIP3    H240916   3.400   3.235   3.120  0.9879  0.4153 -0.8571
 6453TIP3   OH240917   0.944   5.713   1.513 -0.3471  0.0906  0.3589
 6453TIP3    H140918   0.994   5.766   1.452  1.5911  0.3592  2.0695
 6453TIP3    H240919   0.968   5.623   1.494 -1.0851  0.0390 -0.3754
 6454TIP3   OH240920   4.697   4.251   2.412 -0.2642 -0.2289  0.7281
 6454TIP3    H140921   4.602   4.258   2.405 -0.2957 -1.1724 -0.0343
 6454TIP3    H240922   4.727   4.340   2.430 -1.1976  0.2916 -0.1979
 6455TIP3   OH240923   3.636   6.039   8.037 -0.2311  0.0858  0.0295
 6455TIP3    H140924   3.600   5.996   7.960  0.0543  0.4414 -0.3083
 6455TIP3    H240925   3.582   6.008   8.110 -2.0043  1.4906 -0.6087
 6456TIP3   OH240926   5.547   3.364   2.379  0.1450  0.6958 -0.6454
 6456TIP3    H140927   5.576   3.414   2.303 -0.7037  3.6762  0.8141
 6456TIP3    H240928   5.609   3.386   2.448  0.7642 -1.7570 -0.3357
 6457TIP3   OH240929   1.625   3.403   2.061 -0.4297 -0.2507  0.1153
 6457TIP3    H140930   1.673   3.335   2.013  0.7369 -0.0247  0.9333
 6457TIP3    H240931   1.598   3.465   1.993  0.5238 -0.3315 -0.3549
 6458TIP3   OH240932   1.084   0.964   1.011  0.0161 -0.2004 -0.2712
 6458TIP3    H140933   1.065   1.004   1.096 -1.6531 -0.9199 -0.2565
 6458TIP3    H240934   1.179   0.953   1.009  0.5692  3.3116 -0.1034
 6459TIP3   OH240935   2.088   4.958   1.242  0.1332 -0.5652  0.0346
 6459TIP3    H140936   2.061   4.875   1.281  0.7960 -0.7953  0.0205
 6459TIP3    H240937   2.152   4.994   1.304 -0.4313  0.1223  0.2267
 6460TIP3   OH240938   0.138   1.716   2.264  0.5842  0.0765 -0.4963
 6460TIP3    H140939   0.150   1.704   2.358 -1.3179  1.3609 -0.0287
 6460TIP3    H240940   0.210   1.773   2.237  1.1837 -0.3627  0.1469
 6461TIP3   OH240941   2.907   3.738   8.214 -0.1130 -0.3564 -0.3454
 6461TIP3    H140942   2.930   3.725   8.121 -0.1380  2.7215 -0.8667
 6461TIP3    H240943   2.827   3.790   8.212 -0.0842 -0.1897  1.4270
 6462TIP3   OH240944   3.618   0.878   2.495  0.4447  0.0176  0.2585
 6462TIP3    H140945   3.662   0.949   2.450  0.5796  0.1543  0.6058
 6462TIP3    H240946   3.537   0.916   2.528  2.1334  1.0703  3.6607
 6463TIP3   OH240947   2.113   1.124   3.867 -0.3776 -0.2196  0.1621
 6463TIP3    H140948   2.041   1.090   3.921  1.2048 -0.7290  2.1177
 6463TIP3    H240949   2.151   1.194   3.920  0.1242  0.5305 -1.1525
 6464TIP3   OH240950   0.196   2.567   1.860 -0.1060  0.0708  0.8400
 6464TIP3    H140951   0.101   2.570   1.852  0.0408  0.3189 -1.5790
 6464TIP3    H240952   0.221   2.657   1.883 -0.3464  0.5820 -0.7802
 6465TIP3   OH240953   2.784   1.671   1.642  0.1224  0.3038  0.2618
 6465TIP3    H140954   2.747   1.666   1.553  0.5868 -0.0611  0.0877
 6465TIP3    H240955   2.756   1.589   1.684 -0.6010  0.7397  0.6570
 6466TIP3   OH240956   6.170   6.182   3.309 -0.4392  0.1414 -0.3950
 6466TIP3    H140957   6.264   6.166   3.305 -0.5258 -0.4443 -0.2304
 6466TIP3    H240958   6.146   6.159   3.399 -0.7574  0.1804 -0.4693
 6467TIP3   OH240959   0.387   1.947   3.180 -0.0660 -1.0968  0.0217
 6467TIP3    H140960   0.328   2.014   3.145  1.3083 -0.4116 -1.0851
 6467TIP3    H240961   0.457   1.940   3.114  2.6962  0.2658  2.5591
 6468TIP3   OH240962   6.822   6.537   1.752  0.1973 -0.2663 -0.1774
 6468TIP3    H140963   6.916   6.553   1.751 -0.0070  1.0285 -0.0896
 6468TIP3    H240964   6.812   6.452   1.795  1.2368  0.3085  1.2609
 6469TIP3   OH240965   5.474   4.412   8.564  0.4672  0.4603 -0.0356
 6469TIP3    H140966   5.409   4.479   8.543 -0.1645 -0.0708  0.1832
 6469TIP3    H240967   5.441   4.333   8.520  2.7594  0.9177 -2.9057
 6470TIP3   OH240968   4.257   0.255   2.120  0.2757 -0.0052 -0.3563
 6470TIP3    H140969   4.230   0.222   2.035 -0.4413  1.5939 -0.7887
 6470TIP3    H240970   4.185   0.312   2.148 -0.7959 -2.5198  2.5915
 6471TIP3   OH240971   1.809   3.085   2.583 -0.2077  0.8149 -0.1458
 6471TIP3    H140972   1.779   3.055   2.669 -1.2415  1.8178 -0.1287
 6471TIP3    H240973   1.774   3.022   2.522 -2.0483  1.7146 -0.0776
 6472TIP3   OH240974   3.570   3.257   0.091 -0.2146 -0.1455 -0.7674
 6472TIP3    H140975   3.618   3.266   0.008  0.6636 -0.7998 -0.3475
 6472TIP3    H240976   3.488   3.214   0.066 -0.6000  0.9529 -1.4863
 6473TIP3   OH240977   0.489   1.691   2.524 -0.1068 -0.2947 -0.4655
 6473TIP3    H140978   0.423   1.698   2.593 -0.5957  0.9692 -1.0270
 6473TIP3    H240979   0.568   1.729   2.563 -0.4231  0.5601 -0.6397
 6474TIP3   OH240980   5.254   2.408   0.739 -0.1856  0.5808 -0.5116
 6474TIP3    H140981   5.161   2.428   0.726 -0.6951 -1.4166 -0.3276
 6474TIP3    H240982   5.300   2.472   0.686 -1.6644  1.6026 -0.6298
 6475TIP3   OH240983   1.086   2.559   1.025 -0.2047  0.5181 -0.3810
 6475TIP3    H140984   1.007   2.509   1.004 -1.0314  0.3042  2.6876
 6475TIP3    H240985   1.157   2.509   0.985 -1.4154 -0.4849 -1.3687
 6476TIP3   OH240986   6.595   1.676   3.587  0.0460 -0.0418  0.3134
 6476TIP3    H140987   6.658   1.742   3.618 -2.0333  1.8597  0.7314
 6476TIP3    H240988   6.523   1.682   3.649 -0.5498 -2.2437 -0.0975
 6477TIP3   OH240989   0.485   0.174   0.798  0.2869 -0.7432  0.2698
 6477TIP3    H140990   0.478   0.161   0.893 -2.5678  0.5776  0.3469
 6477TIP3    H240991   0.485   0.085   0.761 -1.5357 -1.2831  1.4268
 6478TIP3   OH240992   1.303   0.817   1.974 -0.8407 -0.4117  0.4250
 6478TIP3    H140993   1.337   0.729   1.955 -1.3976 -0.9053  1.5425
 6478TIP3    H240994   1.214   0.816   1.937 -1.1600 -0.6380  1.1738
 6479TIP3   OH240995   3.722   3.024   2.929 -0.0571  0.3276 -0.4233
 6479TIP3    H140996   3.779   2.988   2.861 -1.0754  1.6706 -2.0828
 6479TIP3    H240997   3.732   2.965   3.003  0.6597 -1.5523 -1.9356
 6480TIP3   OH240998   4.455   5.039   1.014 -0.4676  0.0588 -0.4865
 6480TIP3    H140999   4.458   4.965   1.075  0.0168 -0.5987 -1.2872
 6480TIP3    H241000   4.545   5.050   0.985 -0.9340 -0.7121 -2.3291
 6481TIP3   OH241001   3.289   0.280   2.013  0.2129  0.1427  0.2253
 6481TIP3    H141002   3.253   0.192   2.023  0.3692 -0.0472 -0.7533
 6481TIP3    H241003   3.310   0.287   1.920  1.6435  0.6559  0.5559
 6482TIP3   OH241004   6.166   4.374   8.311 -0.4817  0.1205 -0.0003
 6482TIP3    H141005   6.188   4.332   8.228 -1.6149  0.9466 -0.7393
 6482TIP3    H241006   6.108   4.446   8.288  1.1200  1.9150  1.2740
 6483TIP3   OH241007   4.421   4.290   1.836 -0.6106 -0.4431 -0.2088
 6483TIP3    H141008   4.488   4.343   1.792 -2.5642  1.5528 -1.0043
 6483TIP3    H241009   4.445   4.294   1.928  0.3030  0.3558 -0.4572
 6484TIP3   OH241010   0.265   2.557   2.665  0.3566  0.0289 -0.1683
 6484TIP3    H141011   0.314   2.542   2.584  0.2012 -0.1983 -0.2201
 6484TIP3    H241012   0.223   2.642   2.652 -0.9209 -0.6919 -0.9594
 6485TIP3   OH241013   5.273   5.357   2.911 -0.0943  0.1187 -0.0986
 6485TIP3    H141014   5.300   5.348   2.820 -1.9218  2.7541 -1.0121
 6485TIP3    H241015   5.219   5.280   2.928  1.7191 -1.3397 -0.5706
 6486TIP3   OH241016   2.268   5.043   2.073 -0.3763  0.3377 -0.9034
 6486TIP3    H141017   2.283   4.997   1.991 -3.1479 -0.3030 -1.1523
 6486TIP3    H241018   2.200   5.107   2.054  1.4683  2.8127  0.1066
 6487TIP3   OH241019   4.429   5.714   0.551  0.4010  0.0731 -0.6244
 6487TIP3    H141020   4.350   5.664   0.532  0.6849  0.1772 -2.2623
 6487TIP3    H241021   4.497   5.672   0.498  0.8603  1.5670 -1.2564
 6488TIP3   OH241022   5.951   4.085   2.378 -0.7256 -0.0845  0.1469
 6488TIP3    H141023   5.917   4.004   2.413  0.6418 -0.7332  0.0652
 6488TIP3    H241024   5.963   4.068   2.284 -1.0135  0.4191  0.0133
 6489TIP3   OH241025   4.612   2.181   3.512  0.0358 -0.6338 -0.2382
 6489TIP3    H141026   4.671   2.256   3.505  0.2523 -0.7806  0.0019
 6489TIP3    H241027   4.650   2.115   3.455  1.1742 -1.4198  1.3467
 6490TIP3   OH241028   3.532   1.183   2.965 -0.0597 -0.4602  0.3479
 6490TIP3    H141029   3.485   1.265   2.982 -1.4521 -0.9443 -0.9829
 6490TIP3    H241030   3.615   1.194   3.011  0.2280  2.1281 -0.5878
 6491TIP3   OH241031   0.647   4.242   0.070 -0.4318 -0.2973  0.1281
 6491TIP3    H141032   0.657   4.163   0.018 -0.6911 -0.4249  0.2702
 6491TIP3    H241033   0.561   4.277   0.044  0.2875  0.7102 -0.9790
 6492TIP3   OH241034   5.875   1.747   3.356  0.2526 -0.3985 -0.0535
 6492TIP3    H141035   5.968   1.768   3.367 -0.2981  1.7311  1.3582
 6492TIP3    H241036   5.838   1.758   3.444 -1.6323  0.7321 -0.9178
 6493TIP3   OH241037   0.694   1.141   0.532  0.5285 -0.1185  0.2415
 6493TIP3    H141038   0.788   1.119   0.534  0.5398 -0.1227 -0.2399
 6493TIP3    H241039   0.684   1.195   0.454  0.2050  0.2463  0.5359
 6494TIP3   OH241040   1.608   4.188   0.682  0.3727  0.0492  0.4630
 6494TIP3    H141041   1.606   4.104   0.637  1.1679 -0.0773  0.6508
 6494TIP3    H241042   1.615   4.252   0.611 -0.2660 -0.0361  0.3193
 6495TIP3   OH241043   0.072   5.605   0.507  0.0363 -0.4561  0.1468
 6495TIP3    H141044   0.009   5.621   0.437 -0.5191  0.0608  0.7501
 6495TIP3    H241045   0.100   5.514   0.493 -1.5401 -1.0226  0.3893
 6496TIP3   OH241046   3.468   4.734   2.414 -1.2430  0.5970 -0.1461
 6496TIP3    H141047   3.547   4.688   2.443 -0.6735  0.5879 -1.5994
 6496TIP3    H241048   3.421   4.669   2.363 -0.7483  1.3867 -1.6842
 6497TIP3   OH241049   5.286   5.660   1.053  0.6303  0.7662 -0.0348
 6497TIP3    H141050   5.381   5.664   1.066  0.4602  0.5423  1.5056
 6497TIP3    H241051   5.252   5.739   1.094  0.0898  0.4302  0.1874
 6498TIP3   OH241052   2.919   4.710   1.589 -0.8360 -0.0560  0.2654
 6498TIP3    H141053   2.849   4.750   1.640 -1.1624 -3.0618  2.4474
 6498TIP3    H241054   2.995   4.711   1.647  0.2370  0.8157 -1.0886
 6499TIP3   OH241055   4.113   0.761   3.160 -0.3397 -0.1796 -0.0477
 6499TIP3    H141056   4.168   0.795   3.231  0.4338  2.6706 -1.8530
 6499TIP3    H241057   4.128   0.666   3.161  2.0128  0.1296  1.6377
 6500TIP3   OH241058   5.390   5.823   3.774  0.0883 -0.1668  0.0848
 6500TIP3    H141059   5.419   5.897   3.720 -1.0239  0.5307  0.4250
 6500TIP3    H241060   5.302   5.803   3.744 -0.4917  0.1224  1.5034
 6501TIP3   OH241061   0.818   0.144   4.209  0.3793  0.1898 -0.4352
 6501TIP3    H141062   0.790   0.217   4.265 -1.1914 -0.4333 -0.3499
 6501TIP3    H241063   0.862   0.084   4.269  0.0559  0.2352 -0.1420
 6502TIP3   OH241064   1.383   4.535   0.704  0.1040 -0.7547 -0.0692
 6502TIP3    H141065   1.335   4.457   0.731 -0.6299 -0.5058 -0.6217
 6502TIP3    H241066   1.408   4.518   0.613 -0.1658 -0.3020 -0.2318
 6503TIP3   OH241067   1.869   1.376   0.214  0.2019 -0.7159 -0.0074
 6503TIP3    H141068   1.942   1.431   0.240 -0.1835 -1.3367  2.6610
 6503TIP3    H241069   1.817   1.430   0.154  1.2455  0.8029  0.4231
 6504TIP3   OH241070   1.809   2.030   1.708  1.0785  0.3224 -0.0546
 6504TIP3    H141071   1.725   2.001   1.673  1.7650  0.0804 -1.5711
 6504TIP3    H241072   1.800   2.021   1.803  0.2868 -2.1436 -0.3096
 6505TIP3   OH241073   1.630   2.747   4.106  0.2167 -0.0687 -0.1385
 6505TIP3    H141074   1.671   2.684   4.047 -2.0627 -0.0670 -1.8758
 6505TIP3    H241075   1.702   2.799   4.140  1.8986 -1.9476 -0.6855
 6506TIP3   OH241076   2.433   6.479   0.462  0.2983  0.1879 -0.0221
 6506TIP3    H141077   2.395   6.403   0.507 -0.4015  0.2148 -0.5610
 6506TIP3    H241078   2.513   6.445   0.422 -0.0540 -0.2990 -0.3305
 6507TIP3   OH241079   2.642   1.834   1.069  0.7302 -0.5987  0.5477
 6507TIP3    H141080   2.556   1.861   1.038  0.6114  0.5411  1.8067
 6507TIP3    H241081   2.629   1.744   1.100 -0.1944 -0.1906  1.3918
 6508TIP3   OH241082   2.443   3.189   1.841  0.3552  0.6462 -0.5988
 6508TIP3    H141083   2.438   3.251   1.913 -0.1746  0.9418 -0.8859
 6508TIP3    H241084   2.433   3.242   1.762 -2.5435 -0.0292 -0.7904
 6509TIP3   OH241085   6.022   5.923   2.448 -0.5150  0.6141  0.2806
 6509TIP3    H141086   6.053   5.845   2.401 -0.0216  0.5985  0.6211
 6509TIP3    H241087   6.069   5.996   2.408 -0.0024  0.5881  0.8141
 6510TIP3   OH241088   4.172   0.935   2.888 -0.0923  0.0919  0.2332
 6510TIP3    H141089   4.170   0.878   2.966  0.2368  0.5668  0.5910
 6510TIP3    H241090   4.251   0.987   2.899 -0.1313  0.2711 -0.3490
 6511TIP3   OH241091   5.333   3.978   1.934 -0.5909 -0.1676 -0.3538
 6511TIP3    H141092   5.262   3.920   1.960 -1.4629  0.3428 -1.5130
 6511TIP3    H241093   5.404   3.918   1.908 -1.1545 -0.7135 -0.6564
 6512TIP3   OH241094   6.029   5.257   2.598 -0.7022 -1.0618 -0.0831
 6512TIP3    H141095   6.058   5.310   2.673 -0.8591  1.4998 -1.7268
 6512TIP3    H241096   6.109   5.222   2.561 -0.3686 -0.0652 -0.3162
 6513TIP3   OH241097   1.820   4.225   3.035  0.3985 -0.2869  0.2328
 6513TIP3    H141098   1.803   4.288   3.106  1.7474  1.4388 -0.8904
 6513TIP3    H241099   1.911   4.199   3.048  1.0114  0.8590 -1.4005
 6514TIP3   OH241100   2.115   0.439   0.201  0.1447 -0.2943 -0.2891
 6514TIP3    H141101   2.206   0.449   0.227 -0.2349  1.2102  0.5624
 6514TIP3    H241102   2.114   0.454   0.107  0.7407 -0.1275 -0.2688
 6515TIP3   OH241103   5.961   1.737   0.122  0.2858 -0.2788 -0.5109
 6515TIP3    H141104   6.047   1.738   0.079  0.2923 -2.2022 -0.6544
 6515TIP3    H241105   5.966   1.664   0.184 -0.2302  1.5112  1.7821
 6516TIP3   OH241106   0.960   5.714   3.283  0.1117 -0.4552 -0.2167
 6516TIP3    H141107   1.003   5.633   3.312 -1.0430 -0.4994  1.6115
 6516TIP3    H241108   0.990   5.780   3.345  1.5064  0.7106 -2.0520
 6517TIP3   OH241109   1.483   4.711   1.885  0.3440 -0.0248  0.0553
 6517TIP3    H141110   1.453   4.621   1.875 -2.0979  0.8058 -0.8135
 6517TIP3    H241111   1.557   4.718   1.824  0.6143 -1.4283  0.1829
 6518TIP3   OH241112   5.757   1.009   1.402  0.2736  0.0045  0.5476
 6518TIP3    H141113   5.763   1.011   1.497 -0.3884  0.2466  0.5835
 6518TIP3    H241114   5.747   0.916   1.381 -0.4529  0.0329  0.7658
 6519TIP3   OH241115   5.368   5.679   0.452 -0.2292  0.2851  0.2761
 6519TIP3    H141116   5.440   5.720   0.500  0.2893 -1.2016  0.8371
 6519TIP3    H241117   5.297   5.743   0.455  0.8967  1.5721  0.1578
 6520TIP3   OH241118   5.823   1.767   0.518 -0.0486 -0.1861 -0.1126
 6520TIP3    H141119   5.734   1.750   0.487 -1.4582  2.3895  2.1146
 6520TIP3    H241120   5.854   1.840   0.465  0.3096 -0.3536 -0.1370
 6521TIP3   OH241121   2.629   2.187   3.378 -0.8178  0.7765  0.1040
 6521TIP3    H141122   2.669   2.274   3.371 -1.7039  1.1055 -1.3902
 6521TIP3    H241123   2.568   2.183   3.304 -0.2963 -1.3728 -0.2739
 6522TIP3   OH241124   0.214   6.284   3.633  0.0871  0.3350  0.1686
 6522TIP3    H141125   0.273   6.326   3.695  0.5606  0.0015 -0.0532
 6522TIP3    H241126   0.136   6.264   3.684  0.3797  0.2838  0.5958
 6523TIP3   OH241127   1.905   5.866   1.104 -0.1358 -0.5533  0.2205
 6523TIP3    H141128   1.885   5.853   1.197 -0.3802 -2.0711 -0.0090
 6523TIP3    H241129   1.840   5.929   1.074 -0.3898 -0.4470  0.9658
 6524TIP3   OH241130   5.386   5.344   8.375  0.1035  0.4080  0.0689
 6524TIP3    H141131   5.363   5.357   8.467  0.6468  1.0104  0.1220
 6524TIP3    H241132   5.411   5.252   8.370  0.7177  0.5324  0.6677
 6525TIP3   OH241133   3.774   5.829   0.141 -0.2440 -0.1489  0.1008
 6525TIP3    H141134   3.815   5.871   0.216 -2.4291  1.2161  0.6145
 6525TIP3    H241135   3.730   5.752   0.178  0.1982 -0.5102 -0.1140
 6526TIP3   OH241136   1.521   1.225   2.741 -0.1938  0.1977 -0.2367
 6526TIP3    H141137   1.540   1.149   2.686  2.9611  0.9868 -0.4587
 6526TIP3    H241138   1.591   1.225   2.807 -0.9888  2.0451  0.6909
 6527TIP3   OH241139   1.068   2.946   0.563  0.3249 -0.1742  0.6331
 6527TIP3    H141140   1.048   2.963   0.471  0.0379 -0.3712  0.6590
 6527TIP3    H241141   0.995   2.985   0.611  1.5570  1.9174  0.9150
 6528TIP3   OH241142   3.763   0.969   3.312 -0.4938  0.0955  0.1086
 6528TIP3    H141143   3.725   1.031   3.376  0.9194 -0.0145  1.0998
 6528TIP3    H241144   3.749   0.883   3.352 -0.8363 -0.0949 -0.4119
 6529TIP3   OH241145   6.439   3.204   1.651 -0.2362  0.4667 -0.2865
 6529TIP3    H141146   6.425   3.272   1.585  1.9560  2.6180  1.2855
 6529TIP3    H241147   6.352   3.165   1.664 -1.8024  3.4904 -0.7792
 6530TIP3   OH241148   3.458   3.941   3.445  0.5979 -0.0461 -0.1804
 6530TIP3    H141149   3.482   4.018   3.393  2.1500  1.2684  2.3097
 6530TIP3    H241150   3.541   3.910   3.483 -0.2115 -2.0614  0.1086
 6531TIP3   OH241151   4.445   4.028   0.285  0.5788 -0.0103 -0.2239
 6531TIP3    H141152   4.357   4.065   0.292  0.1138 -1.2721  0.7609
 6531TIP3    H241153   4.467   4.037   0.192 -1.6873 -2.1002 -1.0749
 6532TIP3   OH241154   1.129   3.727   1.645  0.4435 -0.1031 -0.4900
 6532TIP3    H141155   1.140   3.709   1.738 -1.4029  0.6877 -0.0643
 6532TIP3    H241156   1.060   3.667   1.617 -0.2096  0.8205 -0.9234
 6533TIP3   OH241157   0.328   4.848   8.489 -0.2668  0.6853 -0.3769
 6533TIP3    H141158   0.240   4.881   8.470 -0.7138  1.4618  2.5860
 6533TIP3    H241159   0.386   4.922   8.471 -0.3299  0.5671 -1.1188
 6534TIP3   OH241160   0.182   4.132   2.077  0.2153  0.0994 -0.3013
 6534TIP3    H141161   0.149   4.196   2.015  1.1125  0.0549 -0.8515
 6534TIP3    H241162   0.205   4.056   2.024 -0.0816 -0.3772  0.2357
 6535TIP3   OH241163   4.123   1.696   2.492  0.2899 -0.1895  0.2198
 6535TIP3    H141164   4.040   1.736   2.465  0.7008  0.6758  0.2132
 6535TIP3    H241165   4.127   1.712   2.586  0.4256 -0.2860  0.2302
 6536TIP3   OH241166   5.383   5.173   8.754 -0.0114 -0.0871  0.0583
 6536TIP3    H141167   5.454   5.206   8.809 -0.1080  0.4247 -0.1248
 6536TIP3    H241168   5.351   5.096   8.801 -0.2229  0.4569  0.8251
 6537TIP3   OH241169   5.850   3.958   8.636  0.2622 -0.2712 -0.1061
 6537TIP3    H141170   5.872   4.025   8.701 -0.1561  0.6816 -0.9298
 6537TIP3    H241171   5.773   3.992   8.591  0.2794 -1.1281 -0.8191
 6538TIP3   OH241172   6.030   1.496   2.574  0.7192 -0.1707 -0.4133
 6538TIP3    H141173   6.066   1.577   2.539  2.4154 -0.7268 -0.0413
 6538TIP3    H241174   6.052   1.497   2.667 -1.1267 -0.1053  0.0740
 6539TIP3   OH241175   4.049   1.746   0.788 -0.0359 -0.4724 -0.1670
 6539TIP3    H141176   4.039   1.839   0.811 -2.0690 -0.7616  0.3387
 6539TIP3    H241177   4.118   1.714   0.845  0.9359  0.7912 -0.5843
 6540TIP3   OH241178   2.745   2.899   1.401 -0.6677  0.0861  0.1219
 6540TIP3    H141179   2.735   2.804   1.395 -0.0957  0.1015 -1.6159
 6540TIP3    H241180   2.839   2.911   1.415 -0.7333  0.4105  0.2896
 6541TIP3   OH241181   1.525   4.222   2.682 -0.1561  0.0389 -0.2072
 6541TIP3    H141182   1.488   4.270   2.756  0.6992 -0.9190  0.8813
 6541TIP3    H241183   1.450   4.181   2.640 -0.5514 -0.2486  0.7548
 6542TIP3   OH241184   6.393   4.113   2.001  0.1947 -0.5605  0.7470
 6542TIP3    H141185   6.367   4.068   1.920  1.3448 -0.2237  0.1585
 6542TIP3    H241186   6.486   4.093   2.010  0.3096  0.2294  1.4386
 6543TIP3   OH241187   3.550   4.055   3.054 -0.1890  0.2942 -0.1287
 6543TIP3    H141188   3.543   4.090   3.143  0.4962 -2.4573  1.1481
 6543TIP3    H241189   3.462   4.065   3.017 -0.9227  0.0832  1.4823
 6544TIP3   OH241190   6.060   5.290   3.441 -0.8035  0.1223  0.0626
 6544TIP3    H141191   6.031   5.379   3.460  0.0507  1.4107 -3.8508
 6544TIP3    H241192   6.011   5.235   3.503 -0.2073  3.2884  3.7711
 6545TIP3   OH241193   5.675   2.046   8.698  0.4779 -0.2639 -0.3467
 6545TIP3    H141194   5.764   2.074   8.721 -0.3285  1.1185  1.3230
 6545TIP3    H241195   5.684   2.008   8.611  2.6670  0.0150 -0.3041
 6546TIP3   OH241196   2.234   0.972   0.318 -0.8344 -0.1260 -1.1237
 6546TIP3    H141197   2.169   0.909   0.288 -0.7248 -0.4948 -0.5962
 6546TIP3    H241198   2.184   1.052   0.335 -1.3697 -0.7782  0.4862
 6547TIP3   OH241199   1.496   2.661   8.249 -0.1562  0.1841  0.3572
 6547TIP3    H141200   1.414   2.639   8.292 -0.0465  0.4853  0.7257
 6547TIP3    H241201   1.494   2.612   8.166  0.7903 -2.5630  1.8153
 6548TIP3   OH241202   3.477   6.105   1.269  0.4168 -0.1235  0.2218
 6548TIP3    H141203   3.386   6.075   1.265  0.0309  0.6762  1.9267
 6548TIP3    H241204   3.473   6.197   1.241  0.5367  0.1768  1.1623
 6549TIP3   OH241205   3.330   6.576   0.219 -0.7227 -0.3984 -0.3955
 6549TIP3    H141206   3.294   6.516   0.154 -1.1818  0.3285 -0.8234
 6549TIP3    H241207   3.263   6.645   0.228  0.1177  0.4518 -0.4820
 6550TIP3   OH241208   4.449   2.396   1.044 -0.7180  0.4476 -0.1945
 6550TIP3    H141209   4.508   2.445   1.100 -1.0318 -0.7110  1.2084
 6550TIP3    H241210   4.464   2.432   0.956  2.1059  0.1762  0.0779
 6551TIP3   OH241211   3.891   0.226   2.708  0.0648  0.3274  0.5005
 6551TIP3    H141212   3.973   0.244   2.663  0.1405 -0.0771  0.4791
 6551TIP3    H241213   3.824   0.262   2.651  0.0917 -0.8977 -0.3403
 6552TIP3   OH241214   5.175   4.924   2.248 -0.1503  0.2297 -0.5200
 6552TIP3    H141215   5.108   4.960   2.189 -1.3512  0.0662  0.6916
 6552TIP3    H241216   5.188   4.993   2.313 -1.4236 -0.8720  1.0027
 6553TIP3   OH241217   6.287   0.797   1.869  0.1695  0.0142  0.4321
 6553TIP3    H141218   6.308   0.876   1.820 -0.4054  0.6697  1.2135
 6553TIP3    H241219   6.274   0.730   1.802 -2.9146  1.4190 -0.5411
 6554TIP3   OH241220   0.418   5.511   8.618 -0.2028  0.0838 -0.6665
 6554TIP3    H141221   0.325   5.531   8.628 -0.1233  1.5339 -2.2810
 6554TIP3    H241222   0.426   5.419   8.642 -2.0844 -0.0897 -0.5929
 6555TIP3   OH241223   4.713   2.839   0.996 -0.0337  0.1090  0.1361
 6555TIP3    H141224   4.753   2.925   0.985 -1.0255  0.5530 -0.0592
 6555TIP3    H241225   4.661   2.847   1.075 -2.3304  0.5690 -1.3441
 6556TIP3   OH241226   6.182   1.978   2.352  0.2154  0.2568 -0.2977
 6556TIP3    H141227   6.115   2.045   2.362 -0.0932 -0.1385  0.3631
 6556TIP3    H241228   6.258   2.014   2.398  0.8260  1.1716 -1.9499
 6557TIP3   OH241229   1.687   2.743   0.648 -0.4234 -0.6778  0.0383
 6557TIP3    H141230   1.623   2.796   0.696 -2.0985 -1.9517 -0.6965
 6557TIP3    H241231   1.697   2.788   0.564  1.2957  0.6697  0.9064
 6558TIP3   OH241232   5.580   5.356   1.087  0.2197  0.2519  0.1098
 6558TIP3    H141233   5.640   5.416   1.041  1.2132  0.0269  1.0641
 6558TIP3    H241234   5.541   5.410   1.156  0.6864 -0.0430  0.6129
 6559TIP3   OH241235   1.753   3.784   2.127  0.4513 -0.1043 -0.0469
 6559TIP3    H141236   1.742   3.865   2.176  1.2909 -0.4151  0.6971
 6559TIP3    H241237   1.848   3.770   2.127  0.7069  0.9006 -3.4517
 6560TIP3   OH241238   2.932   2.355   1.560  0.1130  0.3774 -0.3705
 6560TIP3    H141239   2.973   2.304   1.630  0.5041  1.2684  0.0635
 6560TIP3    H241240   2.927   2.295   1.486  1.4553  0.0105 -0.1762
 6561TIP3   OH241241   4.689   5.606   1.710  0.1430 -0.0049 -0.1857
 6561TIP3    H141242   4.646   5.537   1.659 -0.6670  0.3572 -0.0024
 6561TIP3    H241243   4.618   5.652   1.754  0.6779  0.8719 -0.2024
 6562TIP3   OH241244   5.712   0.904   0.461 -0.9134  0.4936 -0.4605
 6562TIP3    H141245   5.663   0.932   0.538 -0.1746  0.4355  0.0306
 6562TIP3    H241246   5.722   0.983   0.408 -1.7403  0.4581 -0.6836
 6563TIP3   OH241247   4.196   5.514   2.514  0.1589  0.6034 -0.3622
 6563TIP3    H141248   4.150   5.484   2.436  0.0636  1.1103 -0.5078
 6563TIP3    H241249   4.143   5.587   2.546  0.7750  1.0915 -0.4440
 6564TIP3   OH241250   1.768   1.026   3.415 -0.4692  0.2828 -0.7557
 6564TIP3    H141251   1.850   1.062   3.448  0.7550 -0.6341 -2.6310
 6564TIP3    H241252   1.736   0.971   3.487  0.4947  0.7255  0.0340
 6565TIP3   OH241253   1.382   1.100   8.646 -0.3683  0.1227  0.3583
 6565TIP3    H141254   1.327   1.084   8.570  0.2286 -2.3406  0.3446
 6565TIP3    H241255   1.451   1.159   8.614 -0.1501 -0.8261 -1.0343
 6566TIP3   OH241256   3.597   6.139   1.802  0.0642 -0.0484  0.0424
 6566TIP3    H141257   3.613   6.199   1.875 -1.2357  0.1344  0.1870
 6566TIP3    H241258   3.618   6.189   1.724  1.9908 -0.4111  0.2784
 6567TIP3   OH241259   1.904   6.077   2.098 -0.2263 -0.4505 -0.6940
 6567TIP3    H141260   1.816   6.109   2.077 -0.3334 -1.6305 -2.2354
 6567TIP3    H241261   1.935   6.135   2.166 -1.8311  0.5993 -0.8061
 6568TIP3   OH241262   1.748   3.629   3.218 -0.5806 -0.0234  0.4500
 6568TIP3    H141263   1.761   3.722   3.198 -2.2097  0.2614  0.5700
 6568TIP3    H241264   1.660   3.610   3.186  0.1022 -1.8135 -0.4951
 6569TIP3   OH241265   0.278   6.158   0.858 -0.4005  0.0101  0.6320
 6569TIP3    H141266   0.321   6.077   0.887  0.0288  0.8632  2.5606
 6569TIP3    H241267   0.279   6.214   0.935  0.0360  2.1886 -0.8725
 6570TIP3   OH241268   3.114   1.979   2.355 -0.1183 -0.7471  0.1372
 6570TIP3    H141269   3.036   2.019   2.394  0.2062  0.5441 -0.4537
 6570TIP3    H241270   3.181   1.988   2.423  0.2426  0.7888 -0.3768
 6571TIP3   OH241271   2.790   0.363   0.430  0.4619 -0.4583  0.1656
 6571TIP3    H141272   2.878   0.374   0.466  0.8294  1.0222 -1.1178
 6571TIP3    H241273   2.797   0.286   0.374  1.3187  0.4073 -0.9649
 6572TIP3   OH241274   6.531   3.580   0.269  0.6397  0.0419 -0.9336
 6572TIP3    H141275   6.543   3.671   0.294 -0.4481  0.0924 -0.5151
 6572TIP3    H241276   6.494   3.583   0.181 -2.1468  0.1685  0.1425
 6573TIP3   OH241277   1.781   1.634   3.933 -0.3729  0.6111 -0.0648
 6573TIP3    H141278   1.832   1.554   3.946 -1.6018  0.0372  1.7055
 6573TIP3    H241279   1.814   1.694   4.000  0.6493  1.6912 -1.4812
 6574TIP3   OH241280   5.726   2.049   2.136  0.4570  0.5744  0.1731
 6574TIP3    H141281   5.775   2.053   2.053  0.8699 -0.4820  0.3467
 6574TIP3    H241282   5.655   1.987   2.119 -0.0964  1.1569  0.3045
 6575TIP3   OH241283   1.884   2.889   2.234 -0.3573 -0.3450 -0.1557
 6575TIP3    H141284   1.897   2.978   2.199 -0.7129  0.8841  2.6005
 6575TIP3    H241285   1.809   2.855   2.185 -0.6324  1.1247 -0.8098
 6576TIP3   OH241286   2.661   5.062   3.412 -0.3924 -0.3195  0.1128
 6576TIP3    H141287   2.703   5.034   3.331 -1.0954 -1.3594  0.0968
 6576TIP3    H241288   2.733   5.093   3.466  0.1418 -0.0700 -0.7175
 6577TIP3   OH241289   3.280   4.270   0.855 -0.1113  0.4111 -0.2934
 6577TIP3    H141290   3.215   4.331   0.818 -0.8798 -0.3092 -0.1520
 6577TIP3    H241291   3.262   4.271   0.949 -0.6990 -0.6702 -0.3813
 6578TIP3   OH241292   0.678   3.350   2.624  0.0400  0.0840  0.3903
 6578TIP3    H141293   0.686   3.299   2.705 -1.5552  0.2965  0.7329
 6578TIP3    H241294   0.624   3.426   2.649 -2.1436 -0.8213 -1.2532
 6579TIP3   OH241295   0.535   4.761   0.259 -0.6015  0.3516  0.3859
 6579TIP3    H141296   0.474   4.741   0.188  1.3727  0.9084 -1.5647
 6579TIP3    H241297   0.529   4.856   0.270 -1.3288  0.2044  1.4263
 6580TIP3   OH241298   2.225   4.093   1.854  0.1254  0.2347  0.5095
 6580TIP3    H141299   2.162   4.031   1.891  0.2677  0.4160  1.0613
 6580TIP3    H241300   2.182   4.178   1.862  1.6611  0.8315  3.8232
 6581TIP3   OH241301   4.952   4.815   0.374  0.0951 -0.4445 -0.0168
 6581TIP3    H141302   5.039   4.821   0.413  0.6944 -0.7044 -1.2626
 6581TIP3    H241303   4.901   4.883   0.418  0.4658 -1.3001  1.8403
 6582TIP3   OH241304   3.308   5.122   2.356 -0.0535  0.5202 -0.2137
 6582TIP3    H141305   3.357   5.082   2.428  0.3645  3.0238  0.9956
 6582TIP3    H241306   3.376   5.152   2.295 -0.2881  0.5535 -0.4625
 6583TIP3   OH241307   2.159   5.373   2.867  0.6862  0.2368 -0.0884
 6583TIP3    H141308   2.176   5.426   2.789  0.8548 -0.4469 -0.5197
 6583TIP3    H241309   2.158   5.437   2.939  1.3845  0.7629 -0.5312
 6584TIP3   OH241310   6.742   1.573   0.045  0.5006  0.0746  0.2480
 6584TIP3    H141311   6.743   1.503  -0.021  0.0234  1.5194 -1.3775
 6584TIP3    H241312   6.665   1.625   0.023  1.9953  2.3422  0.0073
 6585TIP3   OH241313   3.052   4.748   2.743 -0.0859  0.2408 -0.8502
 6585TIP3    H141314   3.138   4.786   2.723  1.4937 -2.7980 -0.4174
 6585TIP3    H241315   3.002   4.760   2.662  0.9875  1.3745 -1.3983
 6586TIP3   OH241316   6.572   0.685   2.720 -0.3428  0.0515 -0.7277
 6586TIP3    H141317   6.617   0.628   2.783 -2.0245 -0.0379  0.4477
 6586TIP3    H241318   6.595   0.774   2.747 -2.4119  0.0911  1.1796
 6587TIP3   OH241319   4.216   0.071   2.700  0.1010 -0.0778 -0.1293
 6587TIP3    H141320   4.199   0.127   2.776  2.1985  0.1988  0.2025
 6587TIP3    H241321   4.265  -0.003   2.735  0.4600 -0.3170 -1.1122
 6588TIP3   OH241322   4.929   4.852   1.014 -0.1788 -0.4711 -0.3653
 6588TIP3    H141323   5.012   4.898   1.025 -0.3385  0.3579 -2.2734
 6588TIP3    H241324   4.878   4.876   1.090  0.6122  0.6094 -0.1539
 6589TIP3   OH241325   5.814   3.402   1.824  0.9170  0.0270  0.3529
 6589TIP3    H141326   5.744   3.355   1.870  1.6407  0.6545  2.1834
 6589TIP3    H241327   5.873   3.333   1.792 -1.3717 -0.6759 -2.9201
 6590TIP3   OH241328   6.758   5.248   2.907 -0.0794  0.5965 -0.7854
 6590TIP3    H141329   6.684   5.299   2.874  0.1542 -0.1554 -2.5959
 6590TIP3    H241330   6.833   5.307   2.898 -0.0897  0.5506 -1.1772
 6591TIP3   OH241331   1.265   6.346   3.172  0.7979  0.2811 -0.2187
 6591TIP3    H141332   1.348   6.302   3.188  0.6684  0.2385  0.3350
 6591TIP3    H241333   1.290   6.433   3.141  1.0607 -0.3464 -1.8861
 6592TIP3   OH241334   3.859   3.413   0.556  0.5213 -0.5203  0.2779
 6592TIP3    H141335   3.851   3.459   0.473  1.3854  0.6542  0.8098
 6592TIP3    H241336   3.949   3.431   0.585  0.2937 -1.0464  1.3796
 6593TIP3   OH241337   6.808   6.070   0.993  0.6048  0.3359 -0.3119
 6593TIP3    H141338   6.889   6.035   0.957  1.2325  0.8399  0.5703
 6593TIP3    H241339   6.796   6.022   1.075  0.2691  0.6091 -0.1991
 6594TIP3   OH241340   0.348   2.720   0.473  0.4431 -0.1235  0.4351
 6594TIP3    H141341   0.440   2.703   0.495  0.0897 -0.6613  1.5472
 6594TIP3    H241342   0.344   2.815   0.460  1.2394 -0.1429 -0.0568
 6595TIP3   OH241343   5.499   3.309   2.799  0.4994 -0.6645  1.0225
 6595TIP3    H141344   5.477   3.306   2.892 -1.0783 -1.7860  0.6639
 6595TIP3    H241345   5.523   3.219   2.776  0.4634 -0.4927  0.2671
 6596TIP3   OH241346   2.178   0.457   0.512 -0.1869 -0.7219  1.3230
 6596TIP3    H141347   2.139   0.402   0.580 -0.1591 -1.3022  0.8806
 6596TIP3    H241348   2.234   0.519   0.560 -0.7103 -0.6703  1.8704
 6597TIP3   OH241349   3.397   4.460   2.337 -0.4672 -0.4047  0.3583
 6597TIP3    H141350   3.450   4.430   2.410 -1.4505  0.2656  1.3755
 6597TIP3    H241351   3.436   4.419   2.260  2.4696  1.2062  0.8325
 6598TIP3   OH241352   4.442   4.789   1.220 -0.4192  0.0189  0.2163
 6598TIP3    H141353   4.441   4.738   1.301  4.3584 -0.5892  0.1771
 6598TIP3    H241354   4.449   4.723   1.151 -1.0155  0.6264 -0.4366
 6599TIP3   OH241355   2.319   4.732   0.718 -0.2353 -0.7560 -0.0598
 6599TIP3    H141356   2.346   4.746   0.627  1.0956 -2.4018  0.0335
 6599TIP3    H241357   2.248   4.794   0.731  0.2351  0.2618 -1.8972
 6600TIP3   OH241358   3.742   0.732   1.414  0.3301  0.0403  0.0789
 6600TIP3    H141359   3.806   0.792   1.376 -0.8019  0.2776 -1.5927
 6600TIP3    H241360   3.778   0.708   1.499  2.6156  0.1884 -0.7726
 6601TIP3   OH241361   2.562   4.495   1.172  0.3183  0.5797  0.0025
 6601TIP3    H141362   2.606   4.411   1.161  0.6008  0.7665 -0.3024
 6601TIP3    H241363   2.505   4.503   1.095  0.6921  0.9080 -0.2462
 6602TIP3   OH241364   3.061   3.807   3.255  0.5380 -0.0769 -0.2868
 6602TIP3    H141365   3.033   3.870   3.321 -3.3851  0.2556 -1.9788
 6602TIP3    H241366   3.147   3.777   3.285  0.2865  2.1932  3.3064
 6603TIP3   OH241367   3.177   2.058   3.232  0.1148  0.3956  0.2491
 6603TIP3    H141368   3.249   2.022   3.182  0.2692 -1.3886  1.6835
 6603TIP3    H241369   3.098   2.022   3.190  0.2025 -0.2191  0.5981
 6604TIP3   OH241370   6.190   4.497   2.338  0.0825  0.7237 -0.0544
 6604TIP3    H141371   6.200   4.412   2.295  4.3420  1.3326 -0.7109
 6604TIP3    H241372   6.174   4.475   2.430 -1.9298 -0.6509 -0.6496
 6605TIP3   OH241373   6.100   5.047   3.751 -0.4486 -0.2898 -0.3669
 6605TIP3    H141374   6.035   5.071   3.685 -1.0158 -0.7896 -0.0012
 6605TIP3    H241375   6.182   5.085   3.719 -0.2302 -2.3346 -2.4788
 6606TIP3   OH241376   0.919   6.037   3.907 -0.0670 -0.1125  0.2764
 6606TIP3    H141377   0.988   6.000   3.852 -0.6624  1.7177 -1.9141
 6606TIP3    H241378   0.848   5.973   3.903 -1.0322  0.8893 -3.3104
 6607TIP3   OH241379   5.688   1.498   3.511 -0.2688 -0.1320  0.2645
 6607TIP3    H141380   5.604   1.479   3.553 -0.6854 -0.0393 -0.5063
 6607TIP3    H241381   5.743   1.423   3.532 -1.7881 -2.2018 -2.4617
 6608TIP3   OH241382   2.448   1.594   0.294 -0.0643 -0.3965 -0.1324
 6608TIP3    H141383   2.529   1.565   0.335  1.3896  2.4378 -0.7144
 6608TIP3    H241384   2.448   1.551   0.208  1.8006  0.8473 -0.8242
 6609TIP3   OH241385   5.166   3.721   1.454  0.1525  0.0227  0.7255
 6609TIP3    H141386   5.256   3.747   1.436 -0.5964  1.8011 -0.7057
 6609TIP3    H241387   5.113   3.774   1.395 -1.7044 -2.7480 -0.3060
 6610TIP3   OH241388   6.359   1.303   1.664  0.0122 -0.1741 -0.0909
 6610TIP3    H141389   6.288   1.249   1.630 -0.9852  1.4616 -0.7439
 6610TIP3    H241390   6.435   1.245   1.665 -0.9249 -1.4840 -1.0545
 6611TIP3   OH241391   1.393   1.242   1.622 -0.1311 -0.1623  0.5491
 6611TIP3    H141392   1.330   1.264   1.553 -0.8227 -1.7375  0.6200
 6611TIP3    H241393   1.338   1.223   1.698  0.4346 -1.2661  0.6982
 6612TIP3   OH241394   3.696   2.371   2.480 -0.9952 -0.3447  0.3730
 6612TIP3    H141395   3.674   2.419   2.560 -2.0913  0.9372 -0.6264
 6612TIP3    H241396   3.665   2.282   2.496  2.4578 -1.2835  2.8694
 6613TIP3   OH241397   1.318   0.770   3.512  0.1810  0.6094 -0.2921
 6613TIP3    H141398   1.341   0.836   3.446 -0.3622  0.0704 -1.0420
 6613TIP3    H241399   1.223   0.776   3.520  0.0930 -0.2423 -0.5533
 6614TIP3   OH241400   3.354   2.072   4.260  0.2966 -0.3017  0.0021
 6614TIP3    H141401   3.397   2.128   4.324 -1.3881  1.1744 -0.0723
 6614TIP3    H241402   3.307   2.007   4.313  1.5172 -1.1092  0.1212
 6615TIP3   OH241403   2.738   2.892   8.345 -0.3417  0.2236 -0.4754
 6615TIP3    H141404   2.764   2.832   8.415  0.2841  0.7326 -0.2657
 6615TIP3    H241405   2.666   2.943   8.382  0.0872  0.5928 -0.1520
 6616TIP3   OH241406   6.266   1.192   2.421 -0.2773 -0.4845  0.1637
 6616TIP3    H141407   6.179   1.157   2.399 -0.8801  0.3950  1.0417
 6616TIP3    H241408   6.256   1.224   2.511  0.5883  0.8040 -0.1822
 6617TIP3   OH241409   5.576   2.371   7.805 -0.2707  0.3392  0.3791
 6617TIP3    H141410   5.517   2.299   7.782 -0.0356  0.2469  0.0592
 6617TIP3    H241411   5.613   2.399   7.722  1.7392 -0.9791  0.7621
 6618TIP3   OH241412   0.923   3.370   1.311  0.1179  0.3483 -0.7040
 6618TIP3    H141413   1.000   3.364   1.254  0.2376 -0.0716 -0.5000
 6618TIP3    H241414   0.959   3.371   1.399 -0.1821 -1.6794 -0.5177
 6619TIP3   OH241415   3.175   2.533   1.540 -0.4368  0.0642  0.2049
 6619TIP3    H141416   3.084   2.503   1.542 -0.6204  0.5743 -0.2556
 6619TIP3    H241417   3.218   2.476   1.476 -0.0646 -1.1599  1.5133
 6620TIP3   OH241418   4.628   6.363   2.605 -0.2858 -0.1425 -0.5245
 6620TIP3    H141419   4.720   6.339   2.611 -0.2478  0.2539  0.8159
 6620TIP3    H241420   4.581   6.288   2.640 -0.4271 -0.0186 -0.4455
 6621TIP3   OH241421   2.156   3.518   3.144 -0.3039 -0.4697 -0.0471
 6621TIP3    H141422   2.073   3.479   3.172 -1.4542  0.3546 -2.0544
 6621TIP3    H241423   2.141   3.544   3.053  2.2763 -0.5426 -0.5852
 6622TIP3   OH241424   6.132   1.139   1.619 -0.2907 -0.2838  0.3550
 6622TIP3    H141425   6.060   1.122   1.680 -1.8469  0.0183 -1.2997
 6622TIP3    H241426   6.089   1.164   1.537  1.7095 -0.2915 -0.7782
 6623TIP3   OH241427   4.527   1.551   0.222  0.0157 -0.3228 -0.1524
 6623TIP3    H141428   4.492   1.586   0.304 -0.2295 -0.6013 -0.1391
 6623TIP3    H241429   4.511   1.620   0.158  1.3574  0.4434  0.2919
 6624TIP3   OH241430   5.400   2.190   7.659  0.2780  0.0050 -0.0993
 6624TIP3    H141431   5.479   2.142   7.636 -2.2482 -3.5624 -2.3559
 6624TIP3    H241432   5.384   2.166   7.750  1.2911  0.0939  0.1183
 6625TIP3   OH241433   3.480   1.781   8.664 -0.2710  0.3370 -0.1668
 6625TIP3    H141434   3.544   1.765   8.733 -1.0260 -1.5700  0.1427
 6625TIP3    H241435   3.457   1.874   8.674  2.4745  1.1250 -0.3843
 6626TIP3   OH241436   4.793   2.278   2.921 -0.1248  0.4490 -0.4359
 6626TIP3    H141437   4.740   2.280   3.000 -0.4522  0.7597 -0.6613
 6626TIP3    H241438   4.783   2.189   2.887  0.3226  0.1949  0.0716
 6627TIP3   OH241439   5.459   6.037   3.638  0.6289 -0.2859  0.0779
 6627TIP3    H141440   5.428   6.039   3.547  0.2983 -0.0981  0.1942
 6627TIP3    H241441   5.555   6.040   3.630  0.6471 -1.2954 -0.2954
 6628TIP3   OH241442   3.363   1.575   8.520  0.2354 -0.1204  0.3164
 6628TIP3    H141443   3.324   1.618   8.444  0.7557 -0.1222  0.0421
 6628TIP3    H241444   3.377   1.645   8.584  0.4117 -0.0074  0.1525
 6629TIP3   OH241445   0.542   5.312   1.264  0.4521  0.0523 -0.1610
 6629TIP3    H141446   0.541   5.281   1.173 -0.9191 -1.4933  0.3356
 6629TIP3    H241447   0.576   5.401   1.258  0.1767  0.0776 -2.2087
 6630TIP3   OH241448   5.127   0.011   1.323 -0.3121 -0.0155  0.3139
 6630TIP3    H141449   5.079   0.076   1.272  0.3778 -0.3140 -0.7545
 6630TIP3    H241450   5.218   0.023   1.298  0.0256 -0.3021  1.3506
 6631TIP3   OH241451   1.058   1.592   3.218 -0.3020 -0.9688  0.2681
 6631TIP3    H141452   0.985   1.533   3.195 -0.7100 -0.5622  0.5172
 6631TIP3    H241453   1.058   1.593   3.313 -0.9297  0.2038  0.2735
 6632TIP3   OH241454   3.477   1.518   8.215 -0.0867 -0.0250  0.3444
 6632TIP3    H141455   3.537   1.591   8.231  1.6121 -1.5506  1.2754
 6632TIP3    H241456   3.390   1.557   8.223  0.7268  1.5999  2.4454
 6633TIP3   OH241457   6.335   3.859   1.912 -0.1098 -0.1694 -0.4649
 6633TIP3    H141458   6.357   3.771   1.882 -4.2147 -1.6093  0.0616
 6633TIP3    H241459   6.301   3.846   2.001  2.3177  2.5438  1.0102
 6634TIP3   OH241460   1.193   5.238   0.396  0.0556  0.2254  0.0101
 6634TIP3    H141461   1.227   5.263   0.310 -0.8673  2.4624  0.2360
 6634TIP3    H241462   1.256   5.274   0.458  0.9437 -1.7486  0.3200
 6635TIP3   OH241463   1.919   5.812   2.137 -0.1471  0.2220  0.0585
 6635TIP3    H141464   1.910   5.907   2.130 -0.2978  0.2251  0.2924
 6635TIP3    H241465   1.840   5.778   2.095 -0.0769  0.1990 -0.0553
 6636TIP3   OH241466   6.565   3.316   1.119  0.4287  0.6500 -0.8791
 6636TIP3    H141467   6.473   3.290   1.121  0.2673  1.2459 -0.1360
 6636TIP3    H241468   6.608   3.248   1.066 -0.3143 -0.0168 -0.6510
 6637TIP3   OH241469   3.902   2.909   8.321  0.4632  0.6013  0.2411
 6637TIP3    H141470   3.851   2.987   8.297 -1.1558 -0.2298  0.8315
 6637TIP3    H241471   3.987   2.944   8.347  0.3362  2.0176 -1.0604
 6638TIP3   OH241472   6.725   3.784   1.171 -0.5228  0.4138  0.1456
 6638TIP3    H141473   6.662   3.713   1.184 -1.5199  0.9810 -1.2989
 6638TIP3    H241474   6.718   3.805   1.078  0.2115  1.9846  0.4120
 6639TIP3   OH241475   0.042   3.228   3.092  0.1013  0.4258 -0.2709
 6639TIP3    H141476   0.041   3.323   3.104 -0.6846  0.3284  0.4760
 6639TIP3    H241477   0.131   3.202   3.119  0.0442  0.8463  0.3421
 6640TIP3   OH241478   6.242   1.114   7.670 -0.1393  0.1745  0.0978
 6640TIP3    H141479   6.283   1.199   7.684 -0.7670  0.6855 -1.0341
 6640TIP3    H241480   6.313   1.050   7.682 -0.1469  0.6290  3.3467
 6641TIP3   OH241481   0.410   0.729   3.215 -0.1315  0.5607 -0.0751
 6641TIP3    H141482   0.474   0.659   3.201 -0.9149 -0.1601 -0.1177
 6641TIP3    H241483   0.334   0.702   3.164 -0.6767  1.1236  0.4276
 6642TIP3   OH241484   2.366   4.525   8.508 -0.1951  0.3322 -0.7953
 6642TIP3    H141485   2.423   4.563   8.441  0.7690  1.2122  0.4675
 6642TIP3    H241486   2.306   4.596   8.533  0.0713  0.3173 -0.0760
 6643TIP3   OH241487   5.705   3.128   2.961  0.2761 -0.1087 -0.3518
 6643TIP3    H141488   5.716   3.057   2.898 -0.7568 -0.2623 -0.3773
 6643TIP3    H241489   5.740   3.094   3.043 -2.1556 -1.4974  0.1932
 6644TIP3   OH241490   0.872   5.496   2.184 -0.0018 -0.0577  0.1923
 6644TIP3    H141491   0.811   5.542   2.241 -0.5576 -1.3460  0.6576
 6644TIP3    H241492   0.890   5.559   2.114 -0.4873  0.9840  0.9687
 6645TIP3   OH241493   2.805   3.450   8.372  0.1083  0.5347  0.1092
 6645TIP3    H141494   2.744   3.514   8.411 -0.8016  0.6766 -1.4385
 6645TIP3    H241495   2.756   3.413   8.299  1.3943 -0.4309 -0.2884
 6646TIP3   OH241496   5.330   6.204   2.669  0.1382  0.1055 -0.4028
 6646TIP3    H141497   5.312   6.293   2.698 -0.6288 -0.8284  2.2290
 6646TIP3    H241498   5.381   6.165   2.740  0.3546 -1.6147 -1.4326
 6647TIP3   OH241499   2.269   4.310   8.724  0.0357  0.0987 -0.1091
 6647TIP3    H141500   2.334   4.372   8.755 -0.6143  0.2444  1.0104
 6647TIP3    H241501   2.318   4.229   8.707  0.7197  0.6153 -0.6394
 6648TIP3   OH241502   3.268   5.480   1.404  0.3903  0.3393  0.1004
 6648TIP3    H141503   3.293   5.531   1.327  0.7917  0.1593  0.1092
 6648TIP3    H241504   3.195   5.425   1.374 -1.1796  2.1034  0.5289
 6649TIP3   OH241505   3.743   1.502   2.919 -0.1811 -0.7412  0.5228
 6649TIP3    H141506   3.726   1.434   2.984 -1.0852  0.8776  2.0670
 6649TIP3    H241507   3.830   1.535   2.942 -0.0460 -0.8972  0.2314
 6650TIP3   OH241508   0.473   5.415   1.555  0.4026  0.3496 -0.1860
 6650TIP3    H141509   0.565   5.403   1.532 -0.1413  0.8597 -2.9917
 6650TIP3    H241510   0.428   5.344   1.509 -0.6596  0.4393  0.6969
 6651TIP3   OH241511   4.725   4.881   1.210 -0.4500 -0.3998 -0.1101
 6651TIP3    H141512   4.637   4.845   1.210 -1.0220  0.9279  0.0734
 6651TIP3    H241513   4.720   4.957   1.269  1.2913 -1.3832  1.3838
 6652TIP3   OH241514   2.446   2.355   8.726  0.0639 -0.1051  0.2212
 6652TIP3    H141515   2.449   2.400   8.811 -0.6711 -1.4246  0.9826
 6652TIP3    H241516   2.353   2.338   8.712 -0.0134  1.5384 -1.6790
 6653TIP3   OH241517   6.401   2.559   2.493 -0.0108 -0.1049 -0.1860
 6653TIP3    H141518   6.480   2.509   2.476 -0.2505 -0.3452 -0.6229
 6653TIP3    H241519   6.330   2.495   2.485 -0.1694 -0.2385  1.6761
 6654TIP3   OH241520   3.593   3.531   0.893  0.2064  0.0199  0.4417
 6654TIP3    H141521   3.564   3.613   0.931  0.6640 -0.3771  1.7231
 6654TIP3    H241522   3.612   3.551   0.801 -0.0050  1.2504  0.6581
 6655TIP3   OH241523   0.133   2.705   0.643  0.1769 -0.1462  0.5379
 6655TIP3    H141524   0.212   2.685   0.593  0.0195 -2.7286  1.1904
 6655TIP3    H241525   0.160   2.776   0.702  1.6727 -0.2028 -0.0268
 6656TIP3   OH241526   3.682   6.427   1.488 -0.8627 -0.4617  0.0247
 6656TIP3    H141527   3.629   6.463   1.558 -0.4228 -1.8817  1.1292
 6656TIP3    H241528   3.674   6.332   1.497 -0.0966 -0.6817 -1.2961
 6657TIP3   OH241529   5.069   3.102   0.920  0.0099 -0.1632 -0.4539
 6657TIP3    H141530   4.992   3.095   0.976  1.9857  0.6780  2.5796
 6657TIP3    H241531   5.128   3.033   0.951  2.3950  2.2115  0.7824
 6658TIP3   OH241532   0.852   3.091   7.944  0.2010 -0.7000 -0.6513
 6658TIP3    H141533   0.804   3.157   7.894  1.2952 -0.0109 -0.8220
 6658TIP3    H241534   0.854   3.125   8.033  0.6165 -0.5864 -0.7036
 6659TIP3   OH241535   3.512   5.206   3.928 -0.2199  0.4421  0.1828
 6659TIP3    H141536   3.420   5.182   3.921 -0.6739  2.0964 -0.0230
 6659TIP3    H241537   3.512   5.302   3.928  1.4710  0.4793  0.6271
 6660TIP3   OH241538   1.113   5.829   0.142  0.1204  0.3015  0.4802
 6660TIP3    H141539   1.124   5.921   0.164 -0.5011  0.5815 -0.3493
 6660TIP3    H241540   1.030   5.825   0.093 -1.5772 -1.1335  3.1984
 6661TIP3   OH241541   0.566   5.201   3.634  0.8851 -0.5701 -0.1044
 6661TIP3    H141542   0.572   5.153   3.552 -0.1526  1.0901 -1.2114
 6661TIP3    H241543   0.477   5.236   3.636  0.0354 -2.4911  2.9115
 6662TIP3   OH241544   4.793   1.681   4.013 -0.1546 -0.2256  0.5141
 6662TIP3    H141545   4.888   1.679   4.019  0.1443  1.2914 -2.2586
 6662TIP3    H241546   4.768   1.592   3.990  0.5724 -0.6066  1.1368
 6663TIP3   OH241547   3.507   6.160   1.545 -0.6741  0.1740  0.2178
 6663TIP3    H141548   3.480   6.179   1.456 -1.0440  2.8809  0.8263
 6663TIP3    H241549   3.459   6.222   1.599  0.8418 -0.2191  2.1393
 6664TIP3   OH241550   3.795   4.430   2.241  0.1860 -1.0270 -0.1641
 6664TIP3    H141551   3.764   4.496   2.179  0.3582 -0.2087  0.6042
 6664TIP3    H241552   3.783   4.347   2.195 -0.2331 -0.4838 -1.0669
 6665TIP3   OH241553   1.088   2.394   3.761 -0.5144  0.0311  0.1739
 6665TIP3    H141554   1.013   2.453   3.767 -0.9817 -0.6258  1.0662
 6665TIP3    H241555   1.163   2.450   3.780 -0.9860  0.3001  1.3444
 6666TIP3   OH241556   6.612   0.829   0.165 -0.4074 -0.0778 -0.4464
 6666TIP3    H141557   6.681   0.892   0.184 -0.3042  0.0937 -1.3286
 6666TIP3    H241558   6.637   0.750   0.212  0.9543 -0.3645 -1.5790
 6667TIP3   OH241559   3.218   4.281   0.525  0.0682  0.3204 -0.2421
 6667TIP3    H141560   3.144   4.339   0.543 -2.0253 -1.2613 -2.9974
 6667TIP3    H241561   3.230   4.232   0.606 -0.6575  1.8712  0.8589
 6668TIP3   OH241562   5.914   5.221   0.566 -0.2802  0.2487  0.2592
 6668TIP3    H141563   5.997   5.210   0.612 -0.2603  0.6795  0.3348
 6668TIP3    H241564   5.901   5.316   0.562 -0.0517  0.2521 -1.0185
 6669TIP3   OH241565   5.748   3.799   1.506 -0.2162  0.1090  0.3668
 6669TIP3    H141566   5.806   3.823   1.579  0.0175  2.3028 -0.4604
 6669TIP3    H241567   5.806   3.756   1.443 -0.5650 -2.5299  1.7212
 6670TIP3   OH241568   5.570   4.630   8.259 -0.6207  0.1280 -0.2821
 6670TIP3    H141569   5.581   4.659   8.350 -0.8862  0.3363 -0.3155
 6670TIP3    H241570   5.655   4.592   8.236 -0.2382  0.9469 -0.2567
 6671TIP3   OH241571   5.230   3.642   2.465 -0.1340  0.5780 -0.0605
 6671TIP3    H141572   5.270   3.576   2.522 -1.3702 -0.1266  0.0241
 6671TIP3    H241573   5.295   3.656   2.396 -0.4768 -2.0289 -1.0433
 6672TIP3   OH241574   3.141   3.121   0.899 -0.1822  0.2674  0.0858
 6672TIP3    H141575   3.217   3.152   0.948 -0.3040 -1.0795  1.1838
 6672TIP3    H241576   3.070   3.181   0.923  0.3016  0.9832 -0.2418
 6673TIP3   OH241577   6.441   1.767   1.540  0.7419  0.6557  0.0342
 6673TIP3    H141578   6.358   1.778   1.587 -0.0308  2.0332 -1.5377
 6673TIP3    H241579   6.461   1.674   1.548 -2.0417 -0.1387 -1.2371
 6674TIP3   OH241580   5.724   0.397   1.866  0.3152 -0.8835  0.3392
 6674TIP3    H141581   5.714   0.447   1.947 -1.6227 -2.1974  0.9700
 6674TIP3    H241582   5.759   0.313   1.894  0.1629 -1.1458 -0.2567
 6675TIP3   OH241583   6.564   2.495   3.114 -0.6291 -0.1436  0.3428
 6675TIP3    H141584   6.544   2.579   3.073  0.1902 -0.5491 -0.9601
 6675TIP3    H241585   6.632   2.516   3.179  1.3627 -0.0578 -1.6218
 6676TIP3   OH241586   6.818   5.634   0.099 -0.5210 -0.3433 -0.0326
 6676TIP3    H141587   6.911   5.649   0.115  0.1192  1.5866 -4.1315
 6676TIP3    H241588   6.809   5.539   0.095  0.8432 -0.6204  2.1385
 6677TIP3   OH241589   5.969   0.343   0.183 -0.4833 -0.0551  0.1242
 6677TIP3    H141590   5.936   0.398   0.254 -0.2032 -1.0192  1.0269
 6677TIP3    H241591   6.063   0.334   0.201 -0.1735  0.6230 -1.0251
 6678TIP3   OH241592   0.740   3.668   2.944  0.1433  0.1438  0.8434
 6678TIP3    H141593   0.713   3.663   2.852 -3.9359  0.7349  1.8142
 6678TIP3    H241594   0.793   3.590   2.958 -1.6888 -1.6357 -1.3352
 6679TIP3   OH241595   6.796   2.835   3.365  0.2760 -0.2931  0.1480
 6679TIP3    H141596   6.740   2.901   3.404  0.9027 -0.2332  0.9612
 6679TIP3    H241597   6.786   2.848   3.270  0.8945  1.3913  0.2864
 6680TIP3   OH241598   0.819   4.911   3.551 -0.0829 -0.4081 -0.4683
 6680TIP3    H141599   0.794   4.954   3.633  0.9482 -0.4023 -0.1377
 6680TIP3    H241600   0.736   4.893   3.507 -0.5963  0.7214 -0.0041
 6681TIP3   OH241601   1.291   5.134   8.692  0.3492  0.6189 -0.2478
 6681TIP3    H141602   1.359   5.152   8.757  0.6489 -2.1631  0.3264
 6681TIP3    H241603   1.336   5.086   8.623 -0.9048 -0.8287 -0.1088
 6682TIP3   OH241604   1.910   1.424   0.960  0.2708  0.4486 -0.6054
 6682TIP3    H141605   1.955   1.352   1.004  0.0729  0.2975 -0.6524
 6682TIP3    H241606   1.903   1.493   1.027  1.0156  0.6622 -0.7392
 6683TIP3   OH241607   2.664   2.465   0.982  0.2681  0.4593 -0.4068
 6683TIP3    H141608   2.625   2.499   0.901  0.2669  2.1403  0.2719
 6683TIP3    H241609   2.597   2.406   1.018 -0.0755  0.3625 -1.1804
 6684TIP3   OH241610   4.617   2.393   2.012 -0.3110  0.2188 -0.1034
 6684TIP3    H141611   4.559   2.404   2.088  0.4831  0.6892  0.4473
 6684TIP3    H241612   4.600   2.304   1.982 -1.3400  0.3523  0.0220
 6685TIP3   OH241613   2.509   0.486   3.136  0.0437 -0.4917  0.4749
 6685TIP3    H141614   2.496   0.392   3.131 -1.2854 -0.3932  1.4361
 6685TIP3    H241615   2.454   0.514   3.210  0.4002  1.0270  0.2009
 6686TIP3   OH241616   5.917   5.904   1.943 -0.4788 -0.1454 -0.0142
 6686TIP3    H141617   6.007   5.938   1.941 -1.0394  1.3968 -0.0089
 6686TIP3    H241618   5.895   5.890   1.850 -0.2088 -0.6146 -0.0102
 6687TIP3   OH241619   6.159   0.124   2.339 -0.3600 -0.0947 -0.0606
 6687TIP3    H141620   6.098   0.193   2.366  0.7201  0.6224  0.6500
 6687TIP3    H241621   6.220   0.169   2.280  0.9636 -0.1640  1.1981
 6688TIP3   OH241622   6.715   2.132   1.097  0.9182  0.3402 -0.0290
 6688TIP3    H141623   6.721   2.220   1.134  2.0582 -0.0723  0.8189
 6688TIP3    H241624   6.775   2.134   1.022  0.1771  0.5701 -0.6256
 6689TIP3   OH241625   2.165   4.650   2.303 -0.3063 -0.3442 -0.0909
 6689TIP3    H141626   2.146   4.565   2.263 -2.8138 -0.8337  1.8350
 6689TIP3    H241627   2.089   4.667   2.360  0.0475  3.2302 -0.4317
 6690TIP3   OH241628   3.372   0.204   2.405  0.4110  0.1934 -0.0599
 6690TIP3    H141629   3.318   0.185   2.482  0.3054  0.1610 -0.1403
 6690TIP3    H241630   3.314   0.254   2.347  0.4039 -0.0097 -0.2313
 6691TIP3   OH241631   1.020   4.520   1.731  0.2065 -0.0505 -0.4074
 6691TIP3    H141632   1.064   4.492   1.812 -0.9567 -3.1504 -0.7058
 6691TIP3    H241633   1.069   4.476   1.661 -0.3930  0.4555 -1.1551
 6692TIP3   OH241634   1.971   0.629   2.750  1.0049 -0.3941 -0.1680
 6692TIP3    H141635   1.950   0.601   2.839  2.1569 -2.2618 -0.4335
 6692TIP3    H241636   1.961   0.724   2.752 -1.9983 -0.6209  1.1240
 6693TIP3   OH241637   2.431   4.774   0.466 -0.1009 -0.1490 -0.5657
 6693TIP3    H141638   2.517   4.812   0.485  0.0103 -0.8965  0.4504
 6693TIP3    H241639   2.426   4.775   0.370  0.4481  1.1870 -0.6041
 6694TIP3   OH241640   4.957   4.361   3.878  0.2248 -0.2547 -0.4077
 6694TIP3    H141641   4.889   4.370   3.812 -0.2212  0.4290  0.1232
 6694TIP3    H241642   4.932   4.284   3.929 -0.1418 -0.0240 -0.2354
 6695TIP3   OH241643   5.701   6.554   2.240  0.9027 -0.5407 -0.0397
 6695TIP3    H141644   5.710   6.459   2.249  0.9507 -0.7673 -2.0025
 6695TIP3    H241645   5.610   6.572   2.263  0.9751 -1.0026  0.6439
 6696TIP3   OH241646   1.837   3.495   8.426 -0.8678 -0.3393  0.2088
 6696TIP3    H141647   1.892   3.417   8.415 -1.1097 -0.5676  0.5717
 6696TIP3    H241648   1.854   3.548   8.349 -0.8257 -0.8338 -0.1282
 6697TIP3   OH241649   2.863   1.484   2.534  0.0724 -0.0052  0.1615
 6697TIP3    H141650   2.808   1.421   2.580  1.2018 -0.4313  0.9722
 6697TIP3    H241651   2.830   1.485   2.444 -1.6461  0.2237  0.7597
 6698TIP3   OH241652   2.139   5.361   8.718 -0.3161  0.1848  0.3222
 6698TIP3    H141653   2.178   5.280   8.752  1.1619  0.5185 -0.4685
 6698TIP3    H241654   2.176   5.430   8.773  1.4775  0.6509 -1.3657
 6699TIP3   OH241655   3.946   2.430   2.564 -0.0613  0.0147 -0.2353
 6699TIP3    H141656   4.010   2.432   2.493 -0.2498  0.4695 -0.3985
 6699TIP3    H241657   3.863   2.406   2.521 -0.3873  1.2563 -0.3580
 6700TIP3   OH241658   2.092   4.332   1.869 -0.0665 -0.0483 -0.2419
 6700TIP3    H141659   2.084   4.409   1.812  0.6680  0.1113 -0.1393
 6700TIP3    H241660   2.072   4.366   1.957 -0.2496 -0.0895 -0.2662
 6701TIP3   OH241661   4.583   6.292   0.983 -0.3491  0.8639 -0.1665
 6701TIP3    H141662   4.519   6.323   1.048 -0.1254  0.5038  0.2311
 6701TIP3    H241663   4.530   6.273   0.905 -0.8720 -0.2893  0.4394
 6702TIP3   OH241664   2.944   1.484   0.664 -0.8403  0.2618  0.6468
 6702TIP3    H141665   2.977   1.573   0.674 -1.6203  0.6762 -0.3572
 6702TIP3    H241666   2.850   1.494   0.653 -0.8250 -0.6084 -0.4686
 6703TIP3   OH241667   3.069   3.945   2.572  0.5231  0.2851 -0.0130
 6703TIP3    H141668   3.010   4.015   2.597 -0.4797  0.1521 -1.8505
 6703TIP3    H241669   3.028   3.865   2.606 -0.8110  0.1081 -1.8809
 6704TIP3   OH241670   6.746   2.356   1.240 -0.3771  0.1118  0.6772
 6704TIP3    H141671   6.742   2.389   1.330 -0.7336 -1.0761  1.1183
 6704TIP3    H241672   6.713   2.427   1.186 -0.7370  0.6155  1.5523
 6705TIP3   OH241673   4.065   6.634   3.431 -0.3396  0.0340 -0.6859
 6705TIP3    H141674   4.108   6.564   3.479  0.5136  1.4578  0.7570
 6705TIP3    H241675   3.991   6.592   3.387  0.0533 -1.7142  0.2364
 6706TIP3   OH241676   0.734   5.000   1.891  0.0545 -0.4886  0.8059
 6706TIP3    H141677   0.750   4.906   1.892  0.0661 -0.5141 -0.2599
 6706TIP3    H241678   0.790   5.035   1.960 -0.2049 -1.2924  1.4425
 6707TIP3   OH241679   6.742   4.114   1.590 -0.4387  0.4627  0.0930
 6707TIP3    H141680   6.773   4.095   1.502 -1.6878 -2.5959  0.1879
 6707TIP3    H241681   6.649   4.093   1.587 -1.1354  2.9693  1.4938
 6708TIP3   OH241682   0.007   4.758   8.086  0.1080 -0.0911 -0.1622
 6708TIP3    H141683  -0.076   4.731   8.046  1.0162 -1.3865 -1.2890
 6708TIP3    H241684   0.063   4.680   8.078  1.6371  0.9508 -0.0232
 6709TIP3   OH241685   4.718   1.502   3.353 -0.1940 -0.2863  0.0868
 6709TIP3    H141686   4.623   1.493   3.347 -0.3190  0.4373  0.8150
 6709TIP3    H241687   4.736   1.508   3.446  0.7387 -1.9749  0.0611
 6710TIP3   OH241688   2.429   2.502   8.437  0.1806  0.8077 -0.6816
 6710TIP3    H141689   2.450   2.584   8.393 -1.2464  1.7899  0.3803
 6710TIP3    H241690   2.336   2.508   8.456 -0.5921 -2.1781 -2.7985
 6711TIP3   OH241691   5.441   2.025   1.102 -0.0548 -0.0526  0.7328
 6711TIP3    H141692   5.465   1.958   1.166 -1.0646 -1.3022 -0.1338
 6711TIP3    H241693   5.401   1.976   1.030  1.3155  1.2509 -1.0302
 6712TIP3   OH241694   5.831   2.044   3.233  0.8515  0.6288 -0.6035
 6712TIP3    H141695   5.886   1.967   3.249 -0.7729 -0.6166 -0.6502
 6712TIP3    H241696   5.848   2.101   3.308  1.8956  0.1124 -0.4195
 6713TIP3   OH241697   3.773   3.601   2.910  0.2099 -0.1584  0.3739
 6713TIP3    H141698   3.704   3.658   2.945 -0.0398 -1.1805  1.6359
 6713TIP3    H241699   3.736   3.513   2.916  1.0501 -0.5736 -0.3869
 6714TIP3   OH241700   0.994   1.714   0.259  0.3366 -0.3967 -0.1533
 6714TIP3    H141701   1.057   1.779   0.228 -0.5623  1.1185  1.0342
 6714TIP3    H241702   0.917   1.765   0.284  0.2299 -1.6539  2.5242
 6715TIP3   OH241703   1.907   4.038   3.437  0.4919 -0.1630  0.2737
 6715TIP3    H141704   1.933   3.952   3.402  2.4997  1.0037 -1.3462
 6715TIP3    H241705   1.853   4.017   3.513  2.0273 -2.8666  0.7767
 6716TIP3   OH241706   3.641   5.805   1.448  0.3858  0.1950 -0.6123
 6716TIP3    H141707   3.657   5.712   1.467 -3.3635 -0.3892  0.4311
 6716TIP3    H241708   3.631   5.809   1.353  0.4202 -0.5223 -0.6513
 6717TIP3   OH241709   0.685   2.921   3.579  0.0587 -0.5831  0.1625
 6717TIP3    H141710   0.690   2.826   3.574 -0.0813 -0.6498  1.1474
 6717TIP3    H241711   0.591   2.940   3.582  0.0973 -0.4502  0.5584
 6718TIP3   OH241712   6.556   0.358   1.550 -0.1642  0.1820 -0.4614
 6718TIP3    H141713   6.648   0.347   1.526 -0.2135  1.4309 -1.2899
 6718TIP3    H241714   6.519   0.413   1.481 -1.0492  1.3736  0.8959
 6719TIP3   OH241715   2.779   0.034   8.146 -0.3138 -0.3585 -0.6539
 6719TIP3    H141716   2.731   0.112   8.175  0.9976 -0.6315  2.8644
 6719TIP3    H241717   2.870   0.052   8.171  0.7850 -1.4592 -3.4536
 6720TIP3   OH241718   6.459   0.261   8.122  0.2262 -0.1107  0.1360
 6720TIP3    H141719   6.365   0.271   8.113  0.4033  1.4820 -0.3768
 6720TIP3    H241720   6.471   0.178   8.168 -1.2907 -1.6586 -2.1045
 6721TIP3   OH241721   6.636   3.309   8.422 -0.5670  0.2813  0.0161
 6721TIP3    H141722   6.623   3.217   8.445  1.4356  0.2139  1.0782
 6721TIP3    H241723   6.660   3.308   8.330 -0.6639 -0.2422 -0.0067
 6722TIP3   OH241724   0.402   0.416   2.547 -0.0117 -0.4452  1.0657
 6722TIP3    H141725   0.382   0.371   2.464  1.4441  0.3321  0.2432
 6722TIP3    H241726   0.373   0.506   2.532 -1.8061 -0.7743  2.2653
 6723TIP3   OH241727   3.808   6.033   8.667 -0.1999  0.1142 -0.2748
 6723TIP3    H141728   3.739   6.029   8.733 -0.6220  0.4685 -0.6789
 6723TIP3    H241729   3.761   6.052   8.585  0.2795 -0.5698 -0.7199
 6724TIP3   OH241730   3.521   0.815   8.545 -0.4241 -0.3135  0.0339
 6724TIP3    H141731   3.500   0.728   8.511  0.5959 -0.0701 -1.2997
 6724TIP3    H241732   3.437   0.849   8.578 -1.3709 -0.8279 -1.7020
 6725TIP3   OH241733   6.527   4.602   0.676  0.0086  0.3443  0.3748
 6725TIP3    H141734   6.536   4.559   0.591 -0.3571  1.5240 -0.2773
 6725TIP3    H241735   6.617   4.612   0.707  0.2021  0.7012 -0.2811
 6726TIP3   OH241736   2.211   1.815   0.369 -0.1687  0.4419 -0.2084
 6726TIP3    H141737   2.306   1.809   0.357 -0.0071  1.9396  0.2371
 6726TIP3    H241738   2.175   1.788   0.284  0.4898 -3.0757  0.4484
 6727TIP3   OH241739   6.535   0.261   0.276  0.3873 -0.1501  0.0734
 6727TIP3    H141740   6.532   0.168   0.254 -0.5752  0.0013 -0.5096
 6727TIP3    H241741   6.608   0.296   0.226 -0.7410 -0.1368 -1.6621
 6728TIP3   OH241742   4.934   5.088   3.946 -0.4204 -0.0752  0.2081
 6728TIP3    H141743   4.864   5.034   3.983  0.4642 -0.5194  1.2981
 6728TIP3    H241744   4.992   5.026   3.904 -0.9581  0.3489 -1.2216
 6729TIP3   OH241745   1.682   2.431   0.303 -0.0415  0.1967  0.1203
 6729TIP3    H141746   1.698   2.422   0.396  1.0473  0.1655 -0.0587
 6729TIP3    H241747   1.689   2.342   0.268  4.0091  0.6392 -0.6250
 6730TIP3   OH241748   4.778   5.318   2.932  0.0321  0.0316  0.3109
 6730TIP3    H141749   4.718   5.249   2.961  0.1445 -0.4240 -0.5279
 6730TIP3    H241750   4.767   5.388   2.997  0.8267 -1.2525  1.9104
 6731TIP3   OH241751   4.330   1.290   7.658 -0.5747  0.1673 -0.1495
 6731TIP3    H141752   4.323   1.258   7.748 -0.5340  1.5077  0.3372
 6731TIP3    H241753   4.409   1.247   7.624  0.1809  0.6933  0.8921
 6732TIP3   OH241754   4.667   2.933   0.588 -0.2886 -0.3079  0.4589
 6732TIP3    H141755   4.688   2.843   0.563 -0.9413 -0.3471  0.0231
 6732TIP3    H241756   4.734   2.987   0.546 -0.3325 -0.5299  0.1074
 6733TIP3   OH241757   4.767   4.534   2.790  0.4161  0.2676  0.1794
 6733TIP3    H141758   4.794   4.599   2.855 -3.9549  2.6877 -0.0764
 6733TIP3    H241759   4.819   4.554   2.712  0.6731  2.0495  0.7704
 6734TIP3   OH241760   5.504   5.294   1.688  0.2385 -0.3139 -0.7487
 6734TIP3    H141761   5.431   5.239   1.657  0.2795 -0.0738 -1.2890
 6734TIP3    H241762   5.508   5.366   1.624 -0.0570  0.5236  0.1612
 6735TIP3   OH241763   3.016   2.603   3.263  0.5064  0.2813 -0.2460
 6735TIP3    H141764   3.036   2.515   3.230 -0.5564  0.0684 -0.3786
 6735TIP3    H241765   3.014   2.657   3.184 -1.0398 -0.0321 -0.4612
 6736TIP3   OH241766   6.761   1.556   1.492 -0.0728  0.3203  0.3100
 6736TIP3    H141767   6.838   1.502   1.506 -1.3822 -1.3347  1.5934
 6736TIP3    H241768   6.702   1.533   1.564 -2.0157  1.0753 -0.9433
 6737TIP3   OH241769   4.689   0.203   1.558  0.0546 -0.0390  0.0270
 6737TIP3    H141770   4.766   0.225   1.506 -1.2878  0.2756 -1.9131
 6737TIP3    H241771   4.721   0.204   1.649  2.1443  0.7812 -0.6536
 6738TIP3   OH241772   6.539   6.002   2.700  0.4707 -0.2144  0.1384
 6738TIP3    H141773   6.569   5.969   2.785  2.2281 -0.9268 -0.7106
 6738TIP3    H241774   6.460   5.953   2.682 -1.0143  1.2586  2.1689
 6739TIP3   OH241775   3.115   0.480   2.489  0.3958 -0.1782  0.3103
 6739TIP3    H141776   3.096   0.550   2.427 -2.0401 -1.9841 -1.1721
 6739TIP3    H241777   3.173   0.421   2.441 -1.0797 -1.3157 -0.1664
 6740TIP3   OH241778   2.982   6.675   1.745  0.1603 -0.5625 -0.2198
 6740TIP3    H141779   2.949   6.730   1.816  0.3033 -2.0782  1.0846
 6740TIP3    H241780   2.933   6.703   1.668 -1.1132  0.1009  0.7867
 6741TIP3   OH241781   0.472   3.618   0.683  0.9740 -0.4138  0.3381
 6741TIP3    H141782   0.519   3.595   0.764  2.1803 -2.0150 -0.7446
 6741TIP3    H241783   0.488   3.712   0.672  3.0449 -0.6808  0.6120
 6742TIP3   OH241784   0.908   4.367   0.779  0.4181  0.5327 -0.3845
 6742TIP3    H141785   0.873   4.291   0.826 -0.6608  0.6685 -0.9474
 6742TIP3    H241786   0.978   4.400   0.836 -0.4167  0.2950  0.8122
 6743TIP3   OH241787   4.346   5.455   8.006 -0.1111  0.2836 -0.4169
 6743TIP3    H141788   4.355   5.361   7.994 -2.7218  0.0977 -1.5325
 6743TIP3    H241789   4.401   5.494   7.938  0.4994 -0.4188 -0.3339
 6744TIP3   OH241790   3.981   5.206   8.106 -0.4328 -0.2807  0.4530
 6744TIP3    H141791   3.971   5.113   8.125  0.1707 -0.5671 -0.5755
 6744TIP3    H241792   3.982   5.212   8.011 -0.2432  0.7575  0.5022
 6745TIP3   OH241793   4.855   5.081   0.535 -0.2464  0.0913  0.3062
 6745TIP3    H141794   4.848   5.175   0.516 -0.7690 -0.5456 -3.7328
 6745TIP3    H241795   4.949   5.064   0.541 -0.0520  0.6274 -0.9412
 6746TIP3   OH241796   2.360   1.345   3.167  0.0640 -0.6510 -0.1926
 6746TIP3    H141797   2.413   1.316   3.093  0.4979  0.8698 -0.5083
 6746TIP3    H241798   2.418   1.401   3.217 -0.4955 -0.9826  0.8519
 6747TIP3   OH241799   2.335   0.656   0.184 -0.5940  0.6387  0.1760
 6747TIP3    H141800   2.392   0.582   0.163 -0.0642  1.2576 -0.6564
 6747TIP3    H241801   2.395   0.726   0.211 -0.9943  1.1055 -0.1203
 6748TIP3   OH241802   1.638   6.701   8.073  0.3632  0.1105  0.3562
 6748TIP3    H141803   1.629   6.796   8.071  0.5299  0.1425  0.8466
 6748TIP3    H241804   1.549   6.668   8.079  0.2362  0.1914 -0.9163
 6749TIP3   OH241805   6.545   0.564   0.854  0.0770  0.0870  0.4056
 6749TIP3    H141806   6.477   0.571   0.788  0.6446 -0.5606 -0.2690
 6749TIP3    H241807   6.499   0.534   0.933 -0.1120 -2.8755 -0.7033
 6750TIP3   OH241808   5.325   1.008   2.827  0.3672 -0.4435 -0.0093
 6750TIP3    H141809   5.357   1.028   2.739  1.3692 -0.8987  0.2419
 6750TIP3    H241810   5.331   1.091   2.875  1.5024 -0.5954  0.1271
 6751TIP3   OH241811   3.250   0.091   8.144 -0.0473  0.3328  0.2794
 6751TIP3    H141812   3.310   0.153   8.185  1.6783 -0.7696 -0.4736
 6751TIP3    H241813   3.306   0.034   8.091 -1.3931 -2.5435  1.7249
 6752TIP3   OH241814   1.933   0.512   4.099 -0.1494  0.3130  0.5977
 6752TIP3    H141815   1.915   0.460   4.178 -0.8025 -0.5110 -0.0598
 6752TIP3    H241816   1.849   0.514   4.054  0.4415 -0.0602 -0.5483
 6753TIP3   OH241817   6.391   1.042   0.265 -0.6010  0.4013 -0.1161
 6753TIP3    H141818   6.449   1.118   0.261 -0.3488  0.2258  0.1462
 6753TIP3    H241819   6.449   0.966   0.251 -1.0165  0.3073 -1.5110
 6754TIP3   OH241820   5.805   5.283   1.456 -0.2028  0.4671 -0.5223
 6754TIP3    H141821   5.783   5.193   1.481  4.1194 -0.6085  0.1609
 6754TIP3    H241822   5.778   5.336   1.531 -0.9097 -0.5406 -0.0332
 6755TIP3   OH241823   0.822   3.672   1.395  0.1089 -0.7307 -0.3027
 6755TIP3    H141824   0.849   3.617   1.468  0.8137  1.2018  0.9718
 6755TIP3    H241825   0.894   3.665   1.332  0.7045 -0.4570  0.3335
 6756TIP3   OH241826   6.302   4.454   0.696  0.9196 -0.3774 -0.2722
 6756TIP3    H141827   6.369   4.520   0.714  2.5625 -2.1311  0.3206
 6756TIP3    H241828   6.271   4.475   0.607  1.2933  1.2304 -0.0538
 6757TIP3   OH241829   3.036   2.521   2.650 -0.2531 -0.1215 -0.2743
 6757TIP3    H141830   2.972   2.457   2.680 -0.7495  0.3610 -0.2759
 6757TIP3    H241831   2.996   2.560   2.572 -0.0290  0.2896 -0.1893
 6758TIP3   OH241832   1.144   4.833   2.519 -0.2978  0.3618 -0.2296
 6758TIP3    H141833   1.176   4.754   2.563  0.4793  1.1305  0.6314
 6758TIP3    H241834   1.166   4.904   2.579  2.1426  1.6710 -2.4710
 6759TIP3   OH241835   6.487   2.139   8.747  0.3225 -0.0426  0.1923
 6759TIP3    H141836   6.434   2.219   8.747  2.7582  1.6715 -0.2454
 6759TIP3    H241837   6.473   2.100   8.661  0.2767  0.7347 -0.1558
 6760TIP3   OH241838   1.518   2.751   3.831 -0.2723 -0.2838  0.0312
 6760TIP3    H141839   1.610   2.737   3.808 -0.7066  0.5781 -2.4705
 6760TIP3    H241840   1.513   2.844   3.852 -0.7157 -0.1818 -0.5326
 6761TIP3   OH241841   2.502   3.894   0.964 -0.2612 -0.2983  0.2725
 6761TIP3    H141842   2.501   3.864   0.873 -1.2698  2.2289 -0.6570
 6761TIP3    H241843   2.512   3.989   0.958 -2.3062  0.2047  2.6782
 6762TIP3   OH241844   2.617   5.283   1.949 -0.4480  0.6962 -0.1615
 6762TIP3    H141845   2.567   5.357   1.914 -2.1262  0.3595  1.3764
 6762TIP3    H241846   2.576   5.264   2.033  0.8423 -1.1038  0.1214
 6763TIP3   OH241847   0.918   5.230   2.740  0.1438 -0.1740  0.0246
 6763TIP3    H141848   0.835   5.231   2.692 -0.8555  0.1822  1.6816
 6763TIP3    H241849   0.913   5.152   2.795  0.1875  0.6988  1.3070
 6764TIP3   OH241850   4.651   1.406   7.757 -0.4525  0.1894  0.7090
 6764TIP3    H141851   4.614   1.318   7.745  0.3878  0.1785 -2.7636
 6764TIP3    H241852   4.745   1.395   7.737 -0.0104  1.5979  1.8789
 6765TIP3   OH241853   1.939   4.319   0.320 -0.3813  0.8209  0.1282
 6765TIP3    H141854   1.898   4.338   0.236 -0.6553  0.5682  0.2064
 6765TIP3    H241855   1.908   4.389   0.378  0.7852  1.7327 -0.2852
 6766TIP3   OH241856   1.311   0.137   1.015 -0.6463  0.2379 -0.3850
 6766TIP3    H141857   1.288   0.118   0.924  0.5013  0.7620 -0.8033
 6766TIP3    H241858   1.334   0.230   1.015 -0.4259  0.1863  0.4014
 6767TIP3   OH241859   1.456   4.421   2.909 -0.9710  0.1321  0.1685
 6767TIP3    H141860   1.496   4.506   2.890 -0.9840 -0.0040 -0.4979
 6767TIP3    H241861   1.472   4.407   3.002  2.3383 -0.8333 -0.4236
 6768TIP3   OH241862   0.691   6.591   0.921 -0.3255  0.0202 -0.4975
 6768TIP3    H141863   0.631   6.657   0.956  0.4376  0.4998 -0.0666
 6768TIP3    H241864   0.693   6.522   0.988  0.2840  0.4214 -0.0964
 6769TIP3   OH241865   2.645   1.288   2.110 -0.2808 -0.2162 -0.6658
 6769TIP3    H141866   2.696   1.368   2.117 -2.3753  1.2072 -0.7226
 6769TIP3    H241867   2.656   1.261   2.019  0.5305 -0.0658 -0.6195
 6770TIP3   OH241868   4.451   6.006   0.502 -0.8779 -0.5476 -0.2106
 6770TIP3    H141869   4.531   5.974   0.459  0.0570  0.4167  0.7357
 6770TIP3    H241870   4.417   5.930   0.549  1.0137 -0.3748  1.5839
 6771TIP3   OH241871   1.863   3.087   4.093  0.4610 -0.4867  0.1907
 6771TIP3    H141872   1.864   3.011   4.152  0.6528 -0.2807  0.4554
 6771TIP3    H241873   1.774   3.122   4.100  0.7946  0.2063  1.2321
 6772TIP3   OH241874   2.851   0.179   1.924 -0.5908  0.3865  0.3579
 6772TIP3    H141875   2.845   0.217   1.836  0.5138  0.6468  0.3758
 6772TIP3    H241876   2.801   0.097   1.918 -2.0433  1.2583  0.0078
 6773TIP3   OH241877   3.054   0.183   0.351  0.5031 -0.2999 -0.0650
 6773TIP3    H141878   2.970   0.141   0.336 -1.2148  3.4819 -2.4529
 6773TIP3    H241879   3.046   0.223   0.438  0.5535 -1.2731  0.4077
 6774TIP3   OH241880   5.081   0.766   1.616 -1.0097 -0.5231  0.2261
 6774TIP3    H141881   5.077   0.687   1.669 -4.9332 -0.0474  0.9460
 6774TIP3    H241882   5.056   0.738   1.528 -0.0020 -0.4233 -0.1062
 6775TIP3   OH241883   0.008   5.803   3.758  0.5464  0.2723  0.4510
 6775TIP3    H141884   0.046   5.803   3.846 -0.9602 -0.1878  1.1268
 6775TIP3    H241885  -0.077   5.761   3.768 -0.1569  1.2442 -1.0190
 6776TIP3   OH241886   3.677   4.436   0.940  0.5995 -0.1129 -0.3945
 6776TIP3    H141887   3.759   4.410   0.899  0.9227  2.0372 -1.2494
 6776TIP3    H241888   3.625   4.472   0.868  0.2266  1.5556  0.6428
 6777TIP3   OH241889   1.902   4.568   3.866  0.2979 -0.1880 -0.2213
 6777TIP3    H141890   1.983   4.570   3.814 -0.3550  0.5326 -1.2365
 6777TIP3    H241891   1.845   4.633   3.824 -0.5596 -0.1968  0.8950
 6778TIP3   OH241892   1.098   0.040   3.480 -0.0125  0.4228 -0.2153
 6778TIP3    H141893   1.168   0.094   3.515  1.1693 -1.2526  0.0951
 6778TIP3    H241894   1.074  -0.018   3.552 -1.2305  0.4792 -0.5550
 6779TIP3   OH241895   5.994   1.909   1.480 -0.6064 -0.2555 -0.4556
 6779TIP3    H141896   6.033   1.857   1.551 -1.2134 -0.4535 -0.2536
 6779TIP3    H241897   6.009   1.857   1.401 -1.3779 -0.8422 -0.2268
 6780TIP3   OH241898   2.700   5.865   0.764  0.3073 -0.3891  0.0161
 6780TIP3    H141899   2.751   5.831   0.837 -0.2172 -2.3031 -0.4736
 6780TIP3    H241900   2.744   5.832   0.686 -0.8688 -0.9067 -0.4484
 6781TIP3   OH241901   2.516   5.973   2.716 -0.4314 -0.7784 -0.3418
 6781TIP3    H141902   2.446   6.034   2.690  0.5508  0.1160 -0.9731
 6781TIP3    H241903   2.502   5.896   2.661  0.2084  0.1617 -1.8859
 6782TIP3   OH241904   1.640   4.532   2.127  0.4412  0.0104  0.4292
 6782TIP3    H141905   1.735   4.543   2.134  0.2334  2.2949  0.4719
 6782TIP3    H241906   1.617   4.573   2.044 -0.7858  2.1783  1.7348
 6783TIP3   OH241907   5.131   4.355   3.639  0.0576 -0.3003 -0.5214
 6783TIP3    H141908   5.199   4.291   3.660 -0.6456 -0.7168  0.5711
 6783TIP3    H241909   5.067   4.346   3.710  1.2876  3.6536  1.3239
 6784TIP3   OH241910   5.673   6.151   1.599  0.2245 -0.2683 -0.1329
 6784TIP3    H141911   5.670   6.209   1.675  0.1078  0.7037 -0.8657
 6784TIP3    H241912   5.673   6.063   1.636  0.5528  0.1972  1.0013
 6785TIP3   OH241913   3.460   6.059   0.263 -0.3305  0.4273 -0.2624
 6785TIP3    H141914   3.513   6.035   0.339  1.7867  0.3853 -1.6790
 6785TIP3    H241915   3.411   6.136   0.291  0.4338  0.4406  1.1222
 6786TIP3   OH241916   4.568   6.411   2.043 -0.2870  0.1874 -0.2359
 6786TIP3    H141917   4.622   6.487   2.064  0.6742 -0.6567  0.4701
 6786TIP3    H241918   4.572   6.357   2.122  1.4595 -1.9737 -1.6831
 6787TIP3   OH241919   3.941   1.734   2.139 -0.0129 -0.4277  0.3452
 6787TIP3    H141920   3.932   1.826   2.162 -1.9046 -0.8226  1.4083
 6787TIP3    H241921   3.865   1.691   2.179 -0.9309 -1.9729 -2.7115
 6788TIP3   OH241922   5.157   2.236   2.723 -0.7976 -0.0582  0.2813
 6788TIP3    H141923   5.251   2.218   2.721 -0.9006 -0.5863 -0.0944
 6788TIP3    H241924   5.130   2.230   2.631 -0.8665  1.9918  0.1118
 6789TIP3   OH241925   2.017   2.921   3.142  0.4776  0.2136  0.0481
 6789TIP3    H141926   2.038   2.827   3.146  1.3559  0.4051  0.1821
 6789TIP3    H241927   1.926   2.926   3.170 -1.0902 -1.0784 -4.0792
 6790TIP3   OH241928   1.249   1.369   3.829  0.0381 -0.2494  0.3381
 6790TIP3    H141929   1.240   1.463   3.813  2.1973 -0.0112  0.1846
 6790TIP3    H241930   1.299   1.337   3.754 -0.0947 -1.3947  0.7221
 6791TIP3   OH241931   2.414   2.001   3.161  0.3227  0.0579  0.3887
 6791TIP3    H141932   2.396   1.984   3.069  1.2307 -0.2851  0.2618
 6791TIP3    H241933   2.435   2.094   3.165 -0.0984  0.1588  0.3210
 6792TIP3   OH241934   4.101   0.541   1.339 -0.0671 -0.2939 -0.0040
 6792TIP3    H141935   4.128   0.515   1.426  0.3269  0.0142 -0.0344
 6792TIP3    H241936   4.132   0.631   1.330 -2.0087  0.4637  0.3677
 6793TIP3   OH241937   6.772   3.528   0.126  0.2475 -0.1322  0.2458
 6793TIP3    H141938   6.754   3.577   0.205  1.5404  0.5085  0.1745
 6793TIP3    H241939   6.701   3.551   0.066  0.5834  1.3139  0.3711
 6794TIP3   OH241940   1.187   3.830   3.921  0.0208  0.5410  0.0790
 6794TIP3    H141941   1.269   3.782   3.937  0.2207  0.6837 -0.4939
 6794TIP3    H241942   1.195   3.908   3.975  0.0238  0.2887  0.4441
 6795TIP3   OH241943   1.018   6.808   4.304  0.5027 -0.1593 -0.3207
 6795TIP3    H141944   1.064   6.796   4.222  1.0537  1.2210 -0.2295
 6795TIP3    H241945   1.087   6.809   4.371  0.0775 -1.0898  0.1550
 6796TIP3   OH241946   0.471   2.118   0.688 -0.5175  0.0142  0.1307
 6796TIP3    H141947   0.465   2.037   0.636 -0.9127  0.1657 -0.0646
 6796TIP3    H241948   0.392   2.117   0.743  0.0126 -0.2606  0.9029
 6797TIP3   OH241949   4.812   5.461   1.140 -0.0990  0.2727  0.3563
 6797TIP3    H141950   4.845   5.447   1.229  0.2760 -1.3086  0.0112
 6797TIP3    H241951   4.890   5.480   1.088  0.4923 -3.4544 -0.4577
 6798TIP3   OH241952   2.200   2.412   1.591 -0.2034 -0.0342  0.1771
 6798TIP3    H141953   2.150   2.331   1.607  0.4712 -0.3520  0.7496
 6798TIP3    H241954   2.188   2.431   1.498  0.8918 -1.6655 -0.3355
 6799TIP3   OH241955   1.654   6.781   1.539  0.0281 -0.5975 -0.4162
 6799TIP3    H141956   1.576   6.835   1.551  0.3499 -0.1508 -0.2961
 6799TIP3    H241957   1.724   6.844   1.521  0.6164 -0.9031  0.7427
 6800TIP3   OH241958   5.316   0.577   0.950 -0.2531  0.3685 -0.9962
 6800TIP3    H141959   5.357   0.657   0.985  1.2139 -0.7338 -0.0810
 6800TIP3    H241960   5.389   0.526   0.915 -0.8044 -1.6172  0.5945
 6801TIP3   OH241961   1.336   1.112   8.330  0.0094  0.3775  0.4655
 6801TIP3    H141962   1.279   1.059   8.386  1.5390  1.2623  3.0302
 6801TIP3    H241963   1.404   1.051   8.302  0.2248  0.3131  1.1018
 6802TIP3   OH241964   6.607   5.684   4.087  0.1981  0.2411 -0.4090
 6802TIP3    H141965   6.647   5.758   4.131  1.5329 -0.9568  0.4911
 6802TIP3    H241966   6.572   5.630   4.157  0.8418 -0.8503 -0.8980
 6803TIP3   OH241967   1.544   0.073   2.719  0.3126  0.0614  0.1045
 6803TIP3    H141968   1.537   0.124   2.801  2.1126 -0.2896  0.5015
 6803TIP3    H241969   1.457   0.081   2.680 -0.1811  1.4115  1.3602
 6804TIP3   OH241970   6.556   0.241   8.557  0.1858  0.9118 -0.8887
 6804TIP3    H141971   6.642   0.274   8.580 -0.2160  0.4296  1.6092
 6804TIP3    H241972   6.506   0.318   8.531  0.5670  1.6748  0.5163
 6805TIP3   OH241973   2.821   0.190   8.716 -1.0283 -0.2171  0.0014
 6805TIP3    H141974   2.878   0.265   8.737  1.6390 -2.3906  1.0616
 6805TIP3    H241975   2.832   0.178   8.621 -1.4880  0.6860 -0.1802
 6806TIP3   OH241976   4.101   5.242   1.408  0.2126  0.7495 -0.7141
 6806TIP3    H141977   4.066   5.158   1.439  0.5945  0.9810  0.3863
 6806TIP3    H241978   4.182   5.253   1.456  1.7894  0.2967 -3.1037
 6807TIP3   OH241979   4.623   0.291   3.844 -0.0973 -0.2582  0.2597
 6807TIP3    H141980   4.651   0.208   3.806 -1.2819 -0.9902  0.9277
 6807TIP3    H241981   4.693   0.352   3.822  1.6904 -1.8315  1.2821
 6808TIP3   OH241982   5.005   1.830   2.333 -0.1392 -0.6178  0.0907
 6808TIP3    H141983   4.912   1.850   2.342 -0.1772 -0.7750  0.0431
 6808TIP3    H241984   5.047   1.878   2.405 -0.1475  0.1958 -0.4238
 6809TIP3   OH241985   3.657   6.421   0.479  0.1267 -0.0997 -0.4175
 6809TIP3    H141986   3.717   6.367   0.531  0.4032 -0.5852 -1.2323
 6809TIP3    H241987   3.599   6.462   0.544  1.0332  0.0074  0.3430
 6810TIP3   OH241988   0.745   5.833   3.872 -0.2956  0.3359 -0.1920
 6810TIP3    H141989   0.743   5.739   3.853  0.4909 -0.1484  1.8280
 6810TIP3    H241990   0.657   5.853   3.902 -0.3236  0.0960 -0.1087
 6811TIP3   OH241991   1.025   2.308   2.245 -0.5064  0.6920  0.1123
 6811TIP3    H141992   1.064   2.246   2.307  1.8370  1.1235 -0.8595
 6811TIP3    H241993   0.982   2.253   2.179 -0.0399  0.1543  0.2551
 6812TIP3   OH241994   5.818   6.000   8.684  0.0769 -0.1320  0.8372
 6812TIP3    H141995   5.740   6.017   8.631 -0.3796  0.3495  1.6354
 6812TIP3    H241996   5.806   6.054   8.762  1.6895  0.7196  0.5408
 6813TIP3   OH241997   3.101   0.153   1.627  0.0270 -0.4430  0.7207
 6813TIP3    H141998   3.097   0.249   1.626  0.1542 -0.4245  1.2798
 6813TIP3    H241999   3.015   0.125   1.595  0.3466 -0.1552 -0.4507
 6814TIP3   OH242000   1.285   3.347   2.297 -0.0037  0.6681 -0.2552
 6814TIP3    H142001   1.251   3.367   2.384 -0.6547  1.2164 -0.6239
 6814TIP3    H242002   1.376   3.374   2.300  0.4647 -0.8497  0.7591
 6815TIP3   OH242003   5.313   2.923   1.534  0.0533  0.0283 -0.7783
 6815TIP3    H142004   5.301   2.829   1.519 -0.8852  0.0466 -0.2086
 6815TIP3    H242005   5.302   2.963   1.448  0.6453 -0.3940 -1.0557
 6816TIP3   OH242006   4.274   0.465   2.941  0.5284 -0.2075  0.2931
 6816TIP3    H142007   4.214   0.494   2.872  0.7829 -0.0615  0.1286
 6816TIP3    H242008   4.318   0.546   2.969 -0.3242 -0.0916  1.3700
 6817TIP3   OH242009   0.864   3.642   0.741  0.2392  0.1860 -0.3529
 6817TIP3    H142010   0.829   3.726   0.709  1.9981  0.6860 -1.1083
 6817TIP3    H242011   0.934   3.621   0.679  0.1792 -1.5854  0.1474
 6818TIP3   OH242012   5.173   0.708   2.642  0.0152  0.1375  0.0538
 6818TIP3    H142013   5.144   0.755   2.720  2.6046  0.3440  1.0057
 6818TIP3    H242014   5.190   0.618   2.673 -0.3125 -0.1588 -0.6087
 6819TIP3   OH242015   5.461   2.377   3.728  0.0759 -0.6099  0.2739
 6819TIP3    H142016   5.498   2.419   3.806  0.2209  0.3964 -0.3325
 6819TIP3    H242017   5.526   2.312   3.703  0.4434 -0.3254  0.4742
 6820TIP3   OH242018   2.322   6.570   0.731 -0.1472 -0.4309  0.1706
 6820TIP3    H142019   2.397   6.563   0.671  1.8253  3.1143  1.9244
 6820TIP3    H242020   2.340   6.506   0.799  0.5197 -0.6247 -0.1764
 6821TIP3   OH242021   1.428   0.669   2.241 -0.6214 -0.4849  0.5016
 6821TIP3    H142022   1.482   0.727   2.294  1.7733 -0.9899 -1.2120
 6821TIP3    H242023   1.355   0.723   2.211  1.5811  1.7554 -1.1501
 6822TIP3   OH242024   4.722   3.919   0.141 -0.0377 -0.1308  0.0190
 6822TIP3    H142025   4.803   3.971   0.136 -0.3122  0.2140 -1.0870
 6822TIP3    H242026   4.652   3.982   0.124 -0.4991 -0.5449  0.3659
 6823TIP3   OH242027   2.346   0.932   0.996  0.2411 -0.5265  0.4585
 6823TIP3    H142028   2.416   0.913   0.934  0.0693 -0.8669  0.3659
 6823TIP3    H242029   2.285   0.987   0.947  0.9164  0.6062  0.8364
 6824TIP3   OH242030   6.006   2.788   0.993 -0.1667 -0.8396 -0.3739
 6824TIP3    H142031   6.096   2.822   0.994 -0.4870  0.2586 -2.7626
 6824TIP3    H242032   5.997   2.742   1.077  2.4837 -0.6611  0.0937
 6825TIP3   OH242033   0.065   3.052   0.989 -0.2727  0.5451  0.3075
 6825TIP3    H142034   0.086   3.146   0.989  1.0547  0.2741  0.8116
 6825TIP3    H242035   0.140   3.012   0.945 -1.7507 -0.1181 -1.7330
 6826TIP3   OH242036   6.563   1.672   2.962 -0.0479 -0.4245  0.1274
 6826TIP3    H142037   6.516   1.729   2.902  0.0148  1.3789  1.7034
 6826TIP3    H242038   6.539   1.583   2.934 -0.0293  0.3080 -2.4817
 6827TIP3   OH242039   3.371   3.813   1.243 -0.4851 -0.2414  0.5132
 6827TIP3    H142040   3.343   3.866   1.318 -0.5888  0.9083 -0.3281
 6827TIP3    H242041   3.453   3.773   1.272  0.0424  1.0532  0.8697
 6828TIP3   OH242042   4.918   3.689   2.867  0.6531 -0.0897  0.5790
 6828TIP3    H142043   5.006   3.707   2.835  0.6970 -0.1803  0.6489
 6828TIP3    H242044   4.879   3.632   2.801  0.4641  0.3735  0.2848
 6829TIP3   OH242045   4.900   2.082   0.566  0.3933 -0.0124  0.8929
 6829TIP3    H142046   4.991   2.088   0.536  0.6372  1.0813  1.8262
 6829TIP3    H242047   4.905   2.092   0.661 -0.7199  0.2089  0.9379
 6830TIP3   OH242048   3.744   2.152   3.576 -0.1464 -0.5170  0.4400
 6830TIP3    H142049   3.786   2.183   3.657  0.9658 -0.4948 -0.1328
 6830TIP3    H242050   3.681   2.221   3.555  3.9155  2.9247 -2.1338
 6831TIP3   OH242051   5.494   6.281   3.084 -0.0911 -0.1320  0.5761
 6831TIP3    H142052   5.487   6.306   3.176  1.1513  0.6029  0.4987
 6831TIP3    H242053   5.578   6.317   3.056  0.1402 -1.4213 -0.5102
 6832TIP3   OH242054   1.204   6.153   1.928 -0.5825  0.3920  0.3806
 6832TIP3    H142055   1.125   6.176   1.977 -1.0127 -0.0134 -0.1065
 6832TIP3    H242056   1.215   6.059   1.945 -2.9829 -0.7833 -3.2909
 6833TIP3   OH242057   3.054   4.642   2.498 -0.2108 -0.1301  0.0315
 6833TIP3    H142058   3.112   4.678   2.430 -0.4826 -1.2921 -0.8491
 6833TIP3    H242059   3.114   4.598   2.559 -0.0339  0.1741  0.0816
 6834TIP3   OH242060   3.311   0.931   0.517  0.1592 -0.3660 -0.5171
 6834TIP3    H142061   3.359   0.940   0.435  1.1881  1.4408  0.2312
 6834TIP3    H242062   3.232   0.984   0.504  0.4181  0.0805 -0.2759
 6835TIP3   OH242063   2.995   0.514   1.448  0.3194  0.2600 -0.3712
 6835TIP3    H142064   2.954   0.563   1.376 -0.8326 -0.5425 -0.2941
 6835TIP3    H242065   2.951   0.429   1.447 -0.1547  0.4209  1.6438
 6836TIP3   OH242066   3.510   3.799   0.962 -0.2854  0.4067  0.2166
 6836TIP3    H142067   3.505   3.882   0.914  0.4262  0.2253 -0.1964
 6836TIP3    H242068   3.583   3.812   1.023 -1.6822  0.9240  1.8511
 6837TIP3   OH242069   2.859   3.601   1.440  0.3324  0.2030  0.0428
 6837TIP3    H142070   2.907   3.539   1.384  1.8559  0.1077  1.4039
 6837TIP3    H242071   2.820   3.546   1.508  0.6336  0.5847  0.5291
 6838TIP3   OH242072   4.496   0.997   8.483  0.0497 -0.1179  0.4454
 6838TIP3    H142073   4.590   1.014   8.481 -0.2356  1.8383  1.0330
 6838TIP3    H242074   4.457   1.073   8.439 -1.1932 -2.0732 -2.1100
 6839TIP3   OH242075   6.062   3.815   2.991 -0.8566 -0.2735  0.1280
 6839TIP3    H142076   5.997   3.874   2.952  0.6704  1.1057 -0.4388
 6839TIP3    H242077   6.100   3.866   3.063  1.7292  0.2340 -1.4514
 6840TIP3   OH242078   0.153   4.007   8.483  0.5402  0.3821  0.1534
 6840TIP3    H142079   0.079   4.033   8.427  0.4410 -0.7561 -0.2590
 6840TIP3    H242080   0.231   4.031   8.434  0.4700  1.5696  0.5797
 6841TIP3   OH242081   5.783   2.251   2.321 -0.1233  0.4463 -0.1088
 6841TIP3    H142082   5.750   2.237   2.410 -0.5647 -1.2349 -0.5057
 6841TIP3    H242083   5.781   2.165   2.280  2.2518  0.7467 -1.0408
 6842TIP3   OH242084   0.280   5.087   3.945  0.4358  0.3256 -0.7518
 6842TIP3    H142085   0.202   5.076   3.892  0.6365  0.5218 -1.0950
 6842TIP3    H242086   0.288   5.182   3.957 -0.2703  0.2407  0.6403
 6843TIP3   OH242087   0.038   4.511   1.718  0.4711 -0.2769  0.0699
 6843TIP3    H142088  -0.002   4.526   1.632  0.8898  0.9223  0.0646
 6843TIP3    H242089  -0.029   4.465   1.768 -0.6304  1.0028 -0.1884
 6844TIP3   OH242090   4.580   0.390   1.309  0.7351  0.7514  0.3326
 6844TIP3    H142091   4.631   0.369   1.231 -0.1711 -0.0670 -0.0705
 6844TIP3    H242092   4.626   0.462   1.350  2.2254  0.0183  0.0059
 6845TIP3   OH242093   3.624   6.701   8.269 -0.4245 -0.2287  0.0316
 6845TIP3    H142094   3.685   6.742   8.330 -0.6936  0.9244 -0.4472
 6845TIP3    H242095   3.610   6.767   8.201 -3.1309  0.0236  0.7370
 6846TIP3   OH242096   4.397   3.983   1.683  0.1875  0.6439  0.5747
 6846TIP3    H142097   4.334   3.978   1.755 -0.9092 -0.0236 -0.4001
 6846TIP3    H242098   4.429   4.073   1.685 -0.3272  0.8193  1.4649
 6847TIP3   OH242099   4.578   2.715   2.612 -0.2643  0.0341  0.5319
 6847TIP3    H142100   4.671   2.703   2.629  0.3625 -1.7489 -3.0769
 6847TIP3    H242101   4.550   2.632   2.573 -2.6082  1.4727 -1.1304
 6848TIP3   OH242102   3.431   0.708   1.421 -0.2456  0.4985  0.2194
 6848TIP3    H142103   3.388   0.786   1.387 -0.7012  0.8623  1.5537
 6848TIP3    H242104   3.511   0.740   1.462  0.4280  0.0375 -0.6864
 6849TIP3   OH242105   0.968   0.551   4.236  0.1996 -0.2801 -0.4252
 6849TIP3    H142106   1.021   0.472   4.225 -0.4333 -0.9592  1.1081
 6849TIP3    H242107   1.027   0.623   4.213  1.6412 -1.0425  0.7021
 6850TIP3   OH242108   6.302   0.969   1.504 -0.2587  0.1138  0.5433
 6850TIP3    H142109   6.249   1.021   1.564 -1.8085  0.6808 -1.2307
 6850TIP3    H242110   6.253   0.888   1.492 -0.0680  0.0864 -0.1006
 6851TIP3   OH242111   5.733   0.976   3.162 -0.1126 -0.3400 -0.0542
 6851TIP3    H142112   5.807   0.923   3.132  0.3897  0.4463 -0.2398
 6851TIP3    H242113   5.739   0.974   3.258 -1.6097 -2.6989  0.0597
 6852TIP3   OH242114   5.519   5.437   0.437 -0.0954  0.4462 -0.3026
 6852TIP3    H142115   5.590   5.482   0.483 -0.5324  0.0831  0.7564
 6852TIP3    H242116   5.459   5.506   0.411 -0.7438  0.4942  1.2817
 6853TIP3   OH242117   6.286   1.686   2.625 -0.3077  0.1771 -0.1661
 6853TIP3    H142118   6.299   1.767   2.674  1.0545  0.2142 -0.5390
 6853TIP3    H242119   6.202   1.698   2.581 -1.5305  0.1974  2.0019
 6854TIP3   OH242120   0.398   3.165   8.416  0.1263  0.0785  0.4930
 6854TIP3    H142121   0.338   3.233   8.387  1.0640  0.4742 -0.6019
 6854TIP3    H242122   0.371   3.145   8.505 -1.4024  0.4736  0.1354
 6855TIP3   OH242123   2.568   5.075   0.984  0.7589  0.2205  0.2768
 6855TIP3    H142124   2.657   5.055   0.953  1.2043 -0.6588  2.0321
 6855TIP3    H242125   2.523   4.991   0.985  0.2905  0.4713  0.6104
 6856TIP3   OH242126   3.232   0.614   0.269 -0.4660 -0.0820 -0.4233
 6856TIP3    H142127   3.169   0.666   0.320  0.2219  1.1830 -0.8358
 6856TIP3    H242128   3.212   0.635   0.178 -0.4953 -0.9488 -0.6305
 6857TIP3   OH242129   5.917   4.562   8.529 -0.1968 -0.2575 -0.6137
 6857TIP3    H142130   5.980   4.612   8.478 -0.3793 -0.2395 -0.8238
 6857TIP3    H242131   5.893   4.489   8.472 -0.3045 -0.3089 -0.5038
 6858TIP3   OH242132   2.201   0.040   2.958  0.4570 -0.6424 -0.1805
 6858TIP3    H142133   2.151   0.102   3.012 -1.4491 -1.2507 -1.1391
 6858TIP3    H242134   2.175  -0.046   2.990  1.4242 -0.9788 -0.2744
 6859TIP3   OH242135   6.678   1.285   0.659 -0.0829  0.3874  0.3967
 6859TIP3    H142136   6.732   1.209   0.638  1.4059  1.6521 -0.6087
 6859TIP3    H242137   6.590   1.250   0.668  0.5899 -1.4815  0.1782
 6860TIP3   OH242138   2.657   3.593   0.649  0.2669 -0.5492 -0.1151
 6860TIP3    H142139   2.579   3.554   0.688 -0.2271 -0.5864 -1.1001
 6860TIP3    H242140   2.692   3.526   0.591  0.1796 -0.0151 -0.8044
 6861TIP3   OH242141   5.107   5.769   0.752  0.7491 -0.1014  0.0844
 6861TIP3    H142142   5.094   5.836   0.684  0.1519  2.0419  2.1923
 6861TIP3    H242143   5.199   5.775   0.774  0.9429 -0.8004 -0.4705
 6862TIP3   OH242144   4.358   5.232   7.690 -0.0619  0.3231 -0.3599
 6862TIP3    H142145   4.435   5.218   7.745  0.1030 -3.6053 -1.3233
 6862TIP3    H242146   4.393   5.236   7.600 -0.8545 -0.2241 -0.7031
 6863TIP3   OH242147   1.950   4.470   2.856  0.0713  0.0280 -0.1302
 6863TIP3    H142148   1.892   4.498   2.785 -0.9287  0.1588  0.7177
 6863TIP3    H242149   1.953   4.375   2.849 -0.9205 -0.0479  0.3180
 6864TIP3   OH242150   3.921   3.342   8.041 -0.1073  0.1161  0.3037
 6864TIP3    H142151   3.889   3.302   7.960  3.3085  1.3578 -1.8485
 6864TIP3    H242152   3.852   3.405   8.064 -1.8247 -1.2644 -0.7377
 6865TIP3   OH242153   5.920   2.494   2.847  0.1395 -0.4772  0.1391
 6865TIP3    H142154   5.994   2.518   2.904  1.0061 -1.0168 -0.7217
 6865TIP3    H242155   5.842   2.508   2.901  0.7779  1.3870  0.6480
 6866TIP3   OH242156   6.527   1.746   1.916  0.3186  0.2335 -0.2893
 6866TIP3    H142157   6.567   1.822   1.874  1.3293 -0.0920  0.0765
 6866TIP3    H242158   6.515   1.773   2.008  0.7069 -0.0586 -0.1525
 6867TIP3   OH242159   3.250   2.333   1.371 -0.3603 -0.1608  0.2165
 6867TIP3    H142160   3.286   2.309   1.286  1.2309  0.2777  0.7190
 6867TIP3    H242161   3.178   2.273   1.385 -1.9524  1.0023 -2.2849
 6868TIP3   OH242162   6.171   4.182   8.711 -0.0228 -0.3347 -0.6723
 6868TIP3    H142163   6.142   4.228   8.790  1.4624  0.0367 -0.3055
 6868TIP3    H242164   6.143   4.091   8.724 -0.5256 -0.0996 -0.1034
 6869TIP3   OH242165   5.993   1.008   8.305 -0.4136  0.1097 -0.6249
 6869TIP3    H142166   6.050   1.028   8.379  1.3868 -0.4945 -1.7997
 6869TIP3    H242167   5.911   1.054   8.325 -0.3636 -0.8034  2.1976
 6870TIP3   OH242168   6.233   1.376   8.671  0.4681 -0.0879  0.2178
 6870TIP3    H142169   6.170   1.411   8.608  0.0110 -2.8225 -0.9922
 6870TIP3    H242170   6.230   1.437   8.744 -2.9523  0.3834 -0.1465
 6871TIP3   OH242171   6.607   5.271   2.325  0.0863  0.0718  0.0571
 6871TIP3    H142172   6.649   5.220   2.255 -1.3719  1.4162 -1.8979
 6871TIP3    H242173   6.668   5.343   2.342  0.0173  0.2564 -0.4838
 6872TIP3   OH242174   0.913   3.504   2.026  0.3494  0.1685  0.3533
 6872TIP3    H142175   0.852   3.435   2.050 -0.3771 -0.3894 -2.7806
 6872TIP3    H242176   0.980   3.461   1.974  0.6333  1.5849 -0.5156
 6873TIP3   OH242177   5.021   5.098   3.614 -0.1221 -0.6163 -0.2801
 6873TIP3    H142178   5.019   5.117   3.708  0.6024  2.3236 -0.7677
 6873TIP3    H242179   5.112   5.074   3.597  0.4508  1.5232 -0.5857
 6874TIP3   OH242180   0.577   3.895   0.641 -0.0610 -0.0880 -0.1000
 6874TIP3    H142181   0.608   3.977   0.680 -0.3971  0.3146 -0.6639
 6874TIP3    H242182   0.654   3.858   0.598 -0.1124  0.3898 -0.6139
 6875TIP3   OH242183   1.529   3.987   0.488  0.1335 -0.4642 -0.3961
 6875TIP3    H142184   1.498   3.939   0.411  0.8426  0.8844 -1.5679
 6875TIP3    H242185   1.600   4.042   0.455 -2.1389  3.2328  0.2717
 6876TIP3   OH242186   0.860   4.477   0.320 -0.2877 -0.0417  0.2161
 6876TIP3    H142187   0.897   4.404   0.371 -0.7229 -0.5314 -0.1603
 6876TIP3    H242188   0.893   4.556   0.364  1.2169 -0.4622 -0.1125
 6877TIP3   OH242189   4.539   2.401   8.536  0.0308 -0.6384  0.1214
 6877TIP3    H142190   4.479   2.349   8.483 -0.1979 -0.0506 -0.2163
 6877TIP3    H242191   4.579   2.461   8.473  0.4537 -0.5617  0.4624
 6878TIP3   OH242192   2.423   2.772   0.327  0.0841  0.8976  0.2681
 6878TIP3    H142193   2.449   2.863   0.345 -3.0916  2.0505 -0.2616
 6878TIP3    H242194   2.382   2.742   0.407 -0.1939  0.4398 -0.0417
 6879TIP3   OH242195   5.767   6.802   2.368 -0.1494 -0.9204  0.4090
 6879TIP3    H142196   5.724   6.726   2.328 -2.1844 -0.7583  2.1030
 6879TIP3    H242197   5.849   6.767   2.403 -1.1047 -2.4268  1.2703
 6880TIP3   OH242198   0.186   1.754   8.315  0.0471 -0.2584  0.2460
 6880TIP3    H142199   0.134   1.708   8.381 -0.1706  0.5366  0.6344
 6880TIP3    H242200   0.263   1.785   8.363 -0.8915  1.7525  0.5387
 6881TIP3   OH242201   2.832   3.848   2.079  0.4442  0.0148 -1.1956
 6881TIP3    H142202   2.870   3.761   2.071 -0.2903 -0.5560  0.8942
 6881TIP3    H242203   2.738   3.834   2.066  0.3145  0.4931 -0.7859
 6882TIP3   OH242204   6.236   0.313   1.638  0.0874 -0.1221 -0.1585
 6882TIP3    H142205   6.163   0.276   1.687  0.6192 -0.2848  0.5255
 6882TIP3    H242206   6.314   0.273   1.677  0.4673 -1.5149 -2.2240
 6883TIP3   OH242207   6.549   1.829   0.117 -0.2681  0.7021 -0.1551
 6883TIP3    H142208   6.470   1.883   0.110 -1.5736 -0.9217  1.1051
 6883TIP3    H242209   6.565   1.822   0.211  0.8879  0.3045 -0.3639
 6884TIP3   OH242210   2.035   6.363   3.112  0.5262  0.3285  0.1110
 6884TIP3    H142211   1.947   6.325   3.117  0.3313  0.4114 -1.7798
 6884TIP3    H242212   2.093   6.290   3.132  0.1186 -0.8820 -2.5677
 6885TIP3   OH242213   0.991   3.021   0.291 -0.0859  0.1798 -0.0272
 6885TIP3    H142214   0.985   3.113   0.264  0.8380  0.8327  1.8503
 6885TIP3    H242215   0.904   3.001   0.325  0.2593  1.0123  1.4234
 6886TIP3   OH242216   3.030   2.330   3.457 -0.2571  0.3597 -0.2776
 6886TIP3    H142217   2.966   2.390   3.494 -1.2298  0.3606 -1.9001
 6886TIP3    H242218   2.987   2.245   3.459  0.1917  0.1292 -0.2301
 6887TIP3   OH242219   2.725   2.294   2.339  0.5195  0.0942  0.1062
 6887TIP3    H142220   2.665   2.343   2.282  1.6456  0.8357 -0.4681
 6887TIP3    H242221   2.788   2.360   2.369  0.0814 -0.3331  2.0470
 6888TIP3   OH242222   0.447   4.464   2.276  0.5396  0.4038  0.0121
 6888TIP3    H142223   0.371   4.409   2.297  1.0036  0.4602  2.0734
 6888TIP3    H242224   0.459   4.452   2.182 -1.0628 -0.8332 -0.0965
 6889TIP3   OH242225   4.342   6.554   7.914  0.1341 -0.3283 -0.4297
 6889TIP3    H142226   4.357   6.473   7.865 -0.3623  0.2415 -1.5527
 6889TIP3    H242227   4.301   6.525   7.996  0.3484 -1.2439 -0.6318
 6890TIP3   OH242228   1.418   5.749   3.671  0.4933 -0.4225  0.2918
 6890TIP3    H142229   1.355   5.735   3.741  0.7047 -0.4391  0.4806
 6890TIP3    H242230   1.462   5.831   3.694 -0.3128  0.2402 -0.4846
 6891TIP3   OH242231   6.225   6.692   3.133 -0.1042  0.4241  0.0947
 6891TIP3    H142232   6.257   6.664   3.218  0.1629 -0.1870 -0.1960
 6891TIP3    H242233   6.240   6.616   3.076  0.7934  1.2160 -0.7633
 6892TIP3   OH242234   2.849   5.999   2.243 -0.0865 -0.3240  0.1492
 6892TIP3    H142235   2.907   5.942   2.293 -0.9101 -0.5207  0.8892
 6892TIP3    H242236   2.880   5.990   2.152 -0.4385 -2.2686  0.1740
 6893TIP3   OH242237   3.662   3.630   3.513  0.1280 -0.0965 -0.1008
 6893TIP3    H142238   3.722   3.560   3.540 -0.6417 -1.0747 -0.8619
 6893TIP3    H242239   3.625   3.599   3.431 -1.2859  0.5764  0.2608
 6894TIP3   OH242240   1.187   4.699   2.862  0.3791  0.1432 -0.5233
 6894TIP3    H142241   1.234   4.656   2.933 -1.4133 -0.2790  0.4594
 6894TIP3    H242242   1.251   4.703   2.791  1.3189 -2.1120  0.0959
 6895TIP3   OH242243   6.147   4.585   1.114 -0.8445 -0.3341 -1.1878
 6895TIP3    H142244   6.116   4.543   1.033 -1.1057 -0.5832 -0.9579
 6895TIP3    H242245   6.084   4.558   1.181 -0.1057 -0.8977 -0.6976
 6896TIP3   OH242246   0.092   6.127   1.475 -0.5104 -0.2203 -0.1704
 6896TIP3    H142247   0.110   6.221   1.466 -1.3111 -0.1767 -1.5381
 6896TIP3    H242248   0.177   6.085   1.466 -0.1470  0.3590  0.4217
 6897TIP3   OH242249   6.322   5.010   8.448  0.2131 -0.3189  0.6497
 6897TIP3    H142250   6.388   5.044   8.387  0.2749 -0.6723  0.5156
 6897TIP3    H242251   6.264   4.957   8.393 -0.4626  0.3818  0.6870
 6898TIP3   OH242252   2.740   2.640   0.286 -0.2498 -0.2416  0.1734
 6898TIP3    H142253   2.653   2.674   0.309 -0.3785  0.7430 -1.5451
 6898TIP3    H242254   2.723   2.551   0.256 -0.2679 -1.0034  2.2816
 6899TIP3   OH242255   4.988   3.381   7.957 -0.3823  0.1452  0.0942
 6899TIP3    H142256   5.027   3.295   7.939  0.5490  0.4423  0.6052
 6899TIP3    H242257   4.953   3.410   7.873 -0.1268 -0.4585 -0.2226
 6900TIP3   OH242258   4.862   3.072   1.096 -0.5905 -0.1436  0.4365
 6900TIP3    H142259   4.840   3.025   1.177 -1.6492  0.6452  0.6335
 6900TIP3    H242260   4.827   3.161   1.110 -1.4774 -0.2055 -1.1858
 6901TIP3   OH242261   6.030   2.158   1.382  0.1882  0.7171  0.1100
 6901TIP3    H142262   5.939   2.167   1.353 -0.0739 -0.6877  0.4446
 6901TIP3    H242263   6.035   2.071   1.421  2.1857 -0.1385 -1.8291
 6902TIP3   OH242264   5.392   0.809   1.369  0.0910 -0.0274  0.1849
 6902TIP3    H142265   5.409   0.758   1.448 -0.2357  0.9543  0.9079
 6902TIP3    H242266   5.309   0.853   1.386  1.3495  2.4146  0.5034
 6903TIP3   OH242267   5.729   2.566   2.480 -0.4699  0.1067 -0.3376
 6903TIP3    H142268   5.763   2.620   2.409 -2.0173 -0.0878 -1.2866
 6903TIP3    H242269   5.794   2.497   2.492  2.2927  2.8201  1.8916
 6904TIP3   OH242270   5.960   2.042   0.013 -0.1255  0.1242 -0.6681
 6904TIP3    H142271   6.035   2.099  -0.005  0.4837 -0.1705  0.8035
 6904TIP3    H242272   5.999   1.961   0.045 -1.0683  0.0021  0.2148
 6905TIP3   OH242273   1.367   5.245   8.004  0.2064  0.2314  1.3642
 6905TIP3    H142274   1.430   5.224   8.074  1.0469 -0.2843  0.4714
 6905TIP3    H242275   1.284   5.210   8.037  0.8024 -0.9967  1.6476
 6906TIP3   OH242276   2.000   2.282   2.036 -0.1291  0.1143  0.2465
 6906TIP3    H142277   2.059   2.348   2.072 -0.5642  0.1580  0.8866
 6906TIP3    H242278   2.057   2.212   2.005  0.1886 -0.8724  2.8663
 6907TIP3   OH242279   3.239   5.211   1.918  0.1679  0.1483 -0.6477
 6907TIP3    H142280   3.195   5.288   1.953 -1.2322 -1.2325  0.7909
 6907TIP3    H242281   3.323   5.244   1.886 -0.5161  2.2994 -0.3954
 6908TIP3   OH242282   3.207   5.324   2.692 -0.2406 -0.1576  0.1444
 6908TIP3    H142283   3.268   5.380   2.642 -1.4528  0.2071 -0.9829
 6908TIP3    H242284   3.196   5.370   2.775  0.5331  0.1006  0.1151
 6909TIP3   OH242285   3.584   1.099   1.247  0.3324  0.1076 -0.0841
 6909TIP3    H142286   3.502   1.124   1.291  1.0746  1.2177  0.7333
 6909TIP3    H242287   3.653   1.132   1.305  1.3602  0.7593 -1.6194
 6910TIP3   OH242288   4.369   1.075   8.145 -0.2481  0.2896  0.1688
 6910TIP3    H142289   4.409   0.998   8.105 -0.0973  1.0433 -1.1811
 6910TIP3    H242290   4.347   1.133   8.071 -3.9988 -0.1150  0.7440
 6911TIP3   OH242291   1.120   5.652   2.422 -0.3676 -0.5489  0.1035
 6911TIP3    H142292   1.190   5.706   2.458 -0.2775 -0.2072 -0.5798
 6911TIP3    H242293   1.062   5.636   2.497  0.3528 -0.7091  0.6383
 6912TIP3   OH242294   4.771   4.767   2.437  0.0150 -0.0195  0.4868
 6912TIP3    H142295   4.831   4.776   2.510  1.1363 -1.5434 -0.1786
 6912TIP3    H242296   4.816   4.809   2.364  0.2262 -1.0104  0.0261
 6913TIP3   OH242297   0.168   1.585   2.521  0.4885 -0.1012 -0.0194
 6913TIP3    H142298   0.077   1.571   2.496  0.0639  1.0038  0.7975
 6913TIP3    H242299   0.185   1.520   2.589  0.4543 -0.5996 -0.4844
 6914TIP3   OH242300   2.329   4.057   0.119  0.2524 -0.8119  0.3516
 6914TIP3    H142301   2.277   4.122   0.166 -0.2646 -1.3596  0.5509
 6914TIP3    H242302   2.407   4.045   0.173  0.4799 -0.1635  0.1744
 6915TIP3   OH242303   5.067   2.827   0.636  0.5019  0.4915  0.8939
 6915TIP3    H142304   4.971   2.832   0.636  0.5372  1.5976 -0.3698
 6915TIP3    H242305   5.085   2.735   0.616 -0.2853  0.1428  1.7203
 6916TIP3   OH242306   0.011   0.545   0.616 -0.1717 -0.1588  0.5330
 6916TIP3    H142307  -0.062   0.495   0.653 -0.2306  0.3210  1.0769
 6916TIP3    H242308   0.089   0.493   0.635 -0.4940 -1.4568 -1.4043
 6917TIP3   OH242309   3.369   1.933   0.576  0.1647  0.3632 -0.0839
 6917TIP3    H142310   3.378   1.871   0.504  2.5917 -1.1740  1.3794
 6917TIP3    H242311   3.432   2.003   0.556 -0.5043  0.9025 -0.3385
 6918TIP3   OH242312   1.643   3.038   2.784  0.4550  0.5459 -0.1339
 6918TIP3    H142313   1.693   3.079   2.855 -0.3509  1.3343 -0.0061
 6918TIP3    H242314   1.566   3.000   2.827  1.2012 -1.2025 -0.2430
 6919TIP3   OH242315   3.161   5.353   2.961 -0.2180  0.4028 -0.2303
 6919TIP3    H142316   3.187   5.422   3.023  1.1350  1.8098 -2.2498
 6919TIP3    H242317   3.229   5.287   2.969 -0.7463 -0.0462  0.6852
 6920TIP3   OH242318   4.851   3.856   1.242 -0.8407 -0.4741 -0.1007
 6920TIP3    H142319   4.772   3.905   1.219  0.0027  1.9849  1.7497
 6920TIP3    H242320   4.837   3.831   1.334  0.6598  0.4493  0.4206
 6921TIP3   OH242321   5.674   1.373   2.932  0.1964 -0.2708 -0.8673
 6921TIP3    H142322   5.736   1.369   3.005  1.4321 -0.7465 -1.9058
 6921TIP3    H242323   5.672   1.284   2.897 -1.4293 -0.3746 -0.6048
 6922TIP3   OH242324   1.045   0.347   2.511  0.7553 -0.2682  0.6385
 6922TIP3    H142325   1.056   0.442   2.520 -0.2921 -0.1802  1.0914
 6922TIP3    H242326   1.088   0.310   2.589  1.4813 -0.1947  0.2778
 6923TIP3   OH242327   6.022   0.721   1.916  0.5027 -0.0849 -0.2170
 6923TIP3    H142328   6.034   0.630   1.944 -0.0403 -0.1916 -0.3179
 6923TIP3    H242329   6.108   0.761   1.927  0.8753 -0.7423 -0.6622
 6924TIP3   OH242330   1.949   5.361   1.390 -0.0099 -0.5935 -1.2792
 6924TIP3    H142331   1.901   5.442   1.373  0.8124  0.6846  1.7729
 6924TIP3    H242332   2.039   5.390   1.403  0.1424 -1.8042  0.7489
 6925TIP3   OH242333   6.623   0.837   8.467  0.2002  0.1958  0.5778
 6925TIP3    H142334   6.603   0.929   8.450  0.3596  0.2209  0.5179
 6925TIP3    H242335   6.594   0.791   8.388  2.4273  0.5180 -0.5084
 6926TIP3   OH242336   3.114   5.308   3.494  0.9482 -0.5839  0.1687
 6926TIP3    H142337   3.104   5.257   3.413  1.8449 -0.1417 -0.2353
 6926TIP3    H242338   3.089   5.247   3.563 -0.2160 -0.8427 -0.4614
 6927TIP3   OH242339   0.893   6.318   1.740  0.0079 -0.3213  0.2694
 6927TIP3    H142340   0.827   6.353   1.800  0.9518  1.3400  0.3944
 6927TIP3    H242341   0.879   6.223   1.742 -1.5679 -0.1049  1.2233
 6928TIP3   OH242342   0.453   1.485   1.811 -0.1589 -0.0751 -0.3400
 6928TIP3    H142343   0.485   1.396   1.801 -0.4169 -0.1003 -0.9645
 6928TIP3    H242344   0.480   1.530   1.731 -0.2995  0.3249 -0.1696
 6929TIP3   OH242345   3.044   0.357   0.565 -0.0941 -0.7160  0.0433
 6929TIP3    H142346   3.098   0.295   0.615 -1.0817 -0.3815  1.5978
 6929TIP3    H242347   3.054   0.440   0.611 -0.0832 -0.0785 -1.0623
 6930TIP3   OH242348   2.178   4.280   8.475  0.4582 -0.0529  0.4312
 6930TIP3    H142349   2.231   4.330   8.537  2.1660 -1.5325  0.2584
 6930TIP3    H242350   2.241   4.222   8.431 -1.1538 -1.1098 -0.5908
 6931TIP3   OH242351   2.316   3.265   4.130  0.4853 -0.4031 -0.3397
 6931TIP3    H142352   2.276   3.351   4.146 -1.7454 -1.5483  0.4908
 6931TIP3    H242353   2.250   3.217   4.080  2.0417 -1.4023 -1.5144
 6932TIP3   OH242354   1.671   1.434   3.102  0.2350  0.4634 -0.1189
 6932TIP3    H142355   1.696   1.494   3.172 -0.0773  1.6710 -1.0000
 6932TIP3    H242356   1.612   1.371   3.144  1.2852  0.2040  1.0174
 6933TIP3   OH242357   1.919   6.820   1.350 -0.2846 -0.0350  0.2732
 6933TIP3    H142358   1.966   6.903   1.356 -0.5576  0.0526  1.4091
 6933TIP3    H242359   1.974   6.758   1.398 -0.4478 -0.3452  0.0652
 6934TIP3   OH242360   2.542   0.239   1.977 -0.4157  0.1763 -0.2124
 6934TIP3    H142361   2.458   0.274   2.005  0.0259  1.1852 -0.0950
 6934TIP3    H242362   2.568   0.295   1.903  0.9112  0.9762  0.7992
 6935TIP3   OH242363   2.805   2.991   0.153 -0.6677  0.1250 -0.1341
 6935TIP3    H142364   2.809   2.901   0.186 -0.5248 -0.2620 -1.1475
 6935TIP3    H242365   2.852   2.988   0.070  2.6490  1.9668  1.4798
 6936TIP3   OH242366   4.570   1.249   2.262  0.1259  0.1872  0.6954
 6936TIP3    H142367   4.564   1.226   2.169  1.8054  0.4979  0.4818
 6936TIP3    H242368   4.658   1.284   2.273 -0.0833  0.2878  2.3927
 6937TIP3   OH242369   5.815   4.349   0.309 -0.2787  0.0758 -0.0707
 6937TIP3    H142370   5.848   4.368   0.397  0.9943 -0.3104 -0.4554
 6937TIP3    H242371   5.757   4.274   0.321  0.8781 -0.7860  0.2675
 6938TIP3   OH242372   6.049   2.554   2.400 -0.0835  0.4050 -0.5873
 6938TIP3    H142373   5.988   2.538   2.472 -0.1641 -0.2404 -0.7845
 6938TIP3    H242374   6.068   2.647   2.403  0.2403  0.3092  0.5212
 6939TIP3   OH242375   3.488   0.763   2.218  0.2647  0.4490 -0.4421
 6939TIP3    H142376   3.460   0.731   2.304  1.3417  0.7438  0.0425
 6939TIP3    H242377   3.546   0.695   2.184 -1.3207 -0.3571 -1.6251
 6940TIP3   OH242378   6.318   5.201   0.519 -0.2894 -0.1352 -0.0911
 6940TIP3    H142379   6.254   5.205   0.591 -0.3001  0.6933 -0.1294
 6940TIP3    H242380   6.323   5.109   0.496 -1.1920 -0.2642  0.1733
 6941TIP3   OH242381   1.173   0.356   4.415 -0.4444  0.0639  0.0915
 6941TIP3    H142382   1.218   0.307   4.346  1.7392  0.0927  1.4087
 6941TIP3    H242383   1.203   0.446   4.403 -1.3220  0.3634  0.1105
 6942TIP3   OH242384   2.450   5.605   1.798  0.3366 -0.5089 -0.4076
 6942TIP3    H142385   2.455   5.695   1.764  0.9158 -0.5864 -0.5381
 6942TIP3    H242386   2.539   5.584   1.824  0.0461 -0.7407  0.4379
 6943TIP3   OH242387   3.108   0.671   2.264  0.8469  0.7424 -0.2363
 6943TIP3    H142388   3.092   0.758   2.300 -0.4027  0.8441 -0.9926
 6943TIP3    H242389   3.023   0.642   2.231  0.8587 -1.4264  1.3755
 6944TIP3   OH242390   0.328   3.275   0.824 -0.0837 -0.1226 -0.0344
 6944TIP3    H142391   0.418   3.279   0.856 -0.6513 -1.3198  1.8986
 6944TIP3    H242392   0.275   3.304   0.898 -1.3204  0.0481 -0.9655
 6945TIP3   OH242393   3.635   4.278   1.725 -0.2899 -0.1210  0.2024
 6945TIP3    H142394   3.570   4.276   1.655  0.2266  1.8833 -0.3924
 6945TIP3    H242395   3.720   4.281   1.679  0.0648  0.8595  0.8774
 6946TIP3   OH242396   3.692   0.199   0.124 -0.4375 -0.3753  0.5647
 6946TIP3    H142397   3.649   0.263   0.181 -0.0139  1.1063 -0.7018
 6946TIP3    H242398   3.776   0.240   0.101 -0.8373 -0.6397 -1.5614
 6947TIP3   OH242399   1.846   3.482   3.617 -0.7875  0.0430 -1.0366
 6947TIP3    H142400   1.904   3.550   3.582 -0.3641 -0.6220 -1.6423
 6947TIP3    H242401   1.762   3.498   3.574 -0.8891  0.6298 -0.6256
 6948TIP3   OH242402   4.351   5.247   0.862 -0.5033  0.6071  0.3650
 6948TIP3    H142403   4.268   5.252   0.909 -0.5532 -0.6704  0.4645
 6948TIP3    H242404   4.398   5.174   0.905  0.3362  0.8008 -0.1941
 6949TIP3   OH242405   4.963   5.197   2.736  0.0289 -0.2423 -0.1281
 6949TIP3    H142406   4.899   5.212   2.806  1.2356 -0.2307  1.0025
 6949TIP3    H242407   4.991   5.284   2.709  0.2114 -0.2610 -0.0029
 6950TIP3   OH242408   5.524   4.705   0.520 -0.6134 -0.3562 -0.2453
 6950TIP3    H142409   5.538   4.613   0.545  0.4740 -0.5054 -1.2804
 6950TIP3    H242410   5.612   4.736   0.498 -1.0230  0.8454 -0.2075
 6951TIP3   OH242411   6.595   4.621   8.066  0.3366 -0.2502 -0.2228
 6951TIP3    H142412   6.571   4.541   8.113 -0.2035  0.4802  0.7708
 6951TIP3    H242413   6.555   4.611   7.980  0.5866 -1.2150 -0.2345
 6952TIP3   OH242414   5.835   6.508   2.007  0.0838 -0.0337  0.0138
 6952TIP3    H142415   5.795   6.543   2.086 -0.9115 -1.3956  0.1509
 6952TIP3    H242416   5.770   6.525   1.938 -0.5930 -1.8481  0.1495
 6953TIP3   OH242417   3.696   4.129   0.524  0.0186 -0.1220  0.0571
 6953TIP3    H142418   3.635   4.059   0.546 -0.0938  0.1395  0.5863
 6953TIP3    H242419   3.777   4.105   0.571 -0.0558  0.1586  0.3306
 6954TIP3   OH242420   3.749   6.366   8.267 -0.0317  0.4392  0.1161
 6954TIP3    H142421   3.830   6.415   8.254  0.2485 -0.1662 -0.4914
 6954TIP3    H242422   3.714   6.352   8.179  0.3655 -1.1973  0.1760
 6955TIP3   OH242423   0.253   2.806   3.428  0.4692  0.2901 -0.2022
 6955TIP3    H142424   0.161   2.801   3.401  0.8441  0.3487 -1.5596
 6955TIP3    H242425   0.294   2.730   3.388  1.0726  0.4050  0.1834
 6956TIP3   OH242426   4.474   1.141   3.234  0.1250 -0.0886 -0.0787
 6956TIP3    H142427   4.466   1.144   3.329 -0.6936  0.6963 -0.1567
 6956TIP3    H242428   4.490   1.049   3.213  1.1356 -0.1387  0.8715
 6957TIP3   OH242429   5.164   4.585   0.264  0.3097 -0.5261 -0.0748
 6957TIP3    H142430   5.085   4.640   0.256  0.9922  0.4697 -0.2497
 6957TIP3    H242431   5.136   4.498   0.236 -1.5272 -1.0103  2.7857
 6958TIP3   OH242432   1.566   4.252   0.007 -0.2871  0.5047 -0.5250
 6958TIP3    H142433   1.589   4.305  -0.069 -0.6592  3.0478  1.0030
 6958TIP3    H242434   1.472   4.262   0.016 -0.6361 -1.7218 -1.0168
 6959TIP3   OH242435   0.402   2.116   4.120  0.3723  0.0793  0.1128
 6959TIP3    H142436   0.432   2.026   4.128  1.0682  0.3135  0.1800
 6959TIP3    H242437   0.308   2.109   4.102  0.4272 -0.6545  0.1114
 6960TIP3   OH242438   4.714   2.423   0.307  1.0629 -0.0451  0.3081
 6960TIP3    H142439   4.689   2.332   0.289  1.4507  0.0570 -0.8667
 6960TIP3    H242440   4.695   2.469   0.225  0.6091  0.9892  0.9899
 6961TIP3   OH242441   1.755   4.088   0.379  0.4639 -0.1305 -0.1014
 6961TIP3    H142442   1.758   4.089   0.283 -0.9915 -0.3547 -0.1780
 6961TIP3    H242443   1.737   4.179   0.403  1.1169 -0.0194 -0.0158
 6962TIP3   OH242444   3.175   3.270   8.589  0.3265  0.4933 -0.5920
 6962TIP3    H142445   3.186   3.345   8.647 -0.3753 -0.2317  0.5152
 6962TIP3    H242446   3.085   3.278   8.557 -0.1717 -0.5147  0.4970
 6963TIP3   OH242447   0.653   2.717   7.993  0.3939  0.4884 -0.7045
 6963TIP3    H142448   0.652   2.624   7.971  0.2012  0.8823 -2.4593
 6963TIP3    H242449   0.730   2.752   7.949 -0.3909  1.4384 -1.3730
 6964TIP3   OH242450   3.272   5.160   0.188  0.2933 -0.2904  0.0891
 6964TIP3    H142451   3.298   5.239   0.236 -0.9176  0.3589 -0.2557
 6964TIP3    H242452   3.305   5.088   0.241  0.4614  0.4349  1.0116
 6965TIP3   OH242453   0.573   2.308   2.769  0.2827 -0.0557 -0.3607
 6965TIP3    H142454   0.533   2.373   2.826 -1.5549 -1.2468 -0.2125
 6965TIP3    H242455   0.543   2.332   2.681 -1.1422 -1.1424 -0.2132
 6966TIP3   OH242456   4.186   2.361   4.052 -0.0175 -0.3906  0.5993
 6966TIP3    H142457   4.152   2.450   4.066 -1.0255 -0.9289  1.7491
 6966TIP3    H242458   4.117   2.304   4.084 -0.1937 -1.6720 -1.8517
 6967TIP3   OH242459   4.836   5.815   0.878 -0.1210  0.0295  0.3275
 6967TIP3    H142460   4.929   5.813   0.855 -0.5018 -0.4475 -1.3307
 6967TIP3    H242461   4.810   5.907   0.866  0.2011  0.2280  1.1186
 6968TIP3   OH242462   0.158   6.138   3.349  0.5395  0.2784 -0.0016
 6968TIP3    H142463   0.185   6.230   3.353  2.2294 -0.1717  0.0253
 6968TIP3    H242464   0.126   6.118   3.436  0.9036  0.6435  0.2204
 6969TIP3   OH242465   5.360   2.672   1.440 -0.4576 -0.6728 -0.4101
 6969TIP3    H142466   5.366   2.661   1.345 -1.5179 -2.9630 -0.2813
 6969TIP3    H242467   5.442   2.714   1.465 -0.3491  0.4031 -2.3565
 6970TIP3   OH242468   5.311   0.330   3.512 -0.0549  0.2084  0.1393
 6970TIP3    H142469   5.226   0.359   3.478  0.1102  1.6520  0.8976
 6970TIP3    H242470   5.295   0.316   3.606 -0.1786 -2.4647 -0.2058
 6971TIP3   OH242471   0.365   4.949   1.312 -0.1626  0.2000  0.4149
 6971TIP3    H142472   0.335   4.882   1.373 -1.9732  1.8102  1.4205
 6971TIP3    H242473   0.459   4.955   1.328 -0.2978 -0.7056  1.7327
 6972TIP3   OH242474   5.930   2.652   1.241 -0.0035  0.3575 -0.1527
 6972TIP3    H142475   5.999   2.590   1.267  0.5285  0.3058 -1.5892
 6972TIP3    H242476   5.902   2.692   1.323 -1.0574 -2.4513  0.9815
 6973TIP3   OH242477   0.462   4.828   2.028 -0.2572  0.0152 -0.5285
 6973TIP3    H142478   0.476   4.843   1.935  3.7384  0.9693  0.0073
 6973TIP3    H242479   0.501   4.743   2.045  3.9149  1.9075  0.8294
 6974TIP3   OH242480   1.593   2.412   2.053 -0.0698  0.1219  0.7235
 6974TIP3    H142481   1.603   2.402   2.148  0.1936  1.6015  0.8827
 6974TIP3    H242482   1.498   2.408   2.039 -0.0351 -1.7761  0.8035
 6975TIP3   OH242483   4.371   0.939   3.884  0.2420 -0.5240  0.0712
 6975TIP3    H142484   4.327   1.014   3.923 -0.5037  0.2569 -2.1253
 6975TIP3    H242485   4.427   0.905   3.954  0.8622  2.2668  1.0716
 6976TIP3   OH242486   0.319   5.249   1.409 -0.7571 -0.4726 -0.1187
 6976TIP3    H142487   0.247   5.238   1.346 -1.3701  1.5477  0.1726
 6976TIP3    H242488   0.398   5.246   1.356 -1.2033 -0.1614 -0.8154
 6977TIP3   OH242489   6.176   6.815   0.696  0.3149  0.6199  0.3331
 6977TIP3    H142490   6.119   6.741   0.718  1.4376  0.3220  2.4960
 6977TIP3    H242491   6.265   6.782   0.709  0.8277  2.4890  1.9369
 6978TIP3   OH242492   0.534   5.652   2.469  0.2688 -0.1998 -0.3500
 6978TIP3    H142493   0.503   5.577   2.521  2.1964 -0.4495  0.5144
 6978TIP3    H242494   0.510   5.728   2.522  0.8378 -0.3679  0.1516
 6979TIP3   OH242495   4.506   6.651   0.414 -0.0804  0.5041 -0.3169
 6979TIP3    H142496   4.590   6.609   0.433  0.4623  0.9203 -1.6407
 6979TIP3    H242497   4.457   6.645   0.496  0.7752 -0.8121  0.1454
 6980TIP3   OH242498   0.732   3.204   2.858  0.1096 -0.4235 -0.7218
 6980TIP3    H142499   0.743   3.123   2.908  1.0047  0.4431  0.5368
 6980TIP3    H242500   0.789   3.267   2.901 -2.1404  1.4974 -0.2988
 6981TIP3   OH242501   1.978   6.629   0.916 -0.1437  0.3200 -0.0985
 6981TIP3    H142502   2.019   6.622   0.830 -0.3370 -1.0963 -0.0859
 6981TIP3    H242503   1.964   6.723   0.927 -2.2292  0.4268 -2.6397
 6982TIP3   OH242504   2.063   0.605   2.268 -0.0886 -0.3105  0.1670
 6982TIP3    H142505   2.064   0.589   2.362 -0.1869 -0.0317  0.2169
 6982TIP3    H242506   2.032   0.695   2.260 -2.5832 -1.1227 -0.2226
 6983TIP3   OH242507   0.094   6.016   8.726 -0.2562  0.1320 -0.0995
 6983TIP3    H142508   0.038   6.073   8.673  1.6825  2.1285 -0.1535
 6983TIP3    H242509   0.154   5.976   8.663 -2.2443 -3.0105 -0.2256
 6984TIP3   OH242510   5.370   3.791   1.087  0.6820 -0.4811 -0.2539
 6984TIP3    H142511   5.311   3.779   1.013  0.3743 -0.3911 -0.0271
 6984TIP3    H242512   5.415   3.707   1.095  0.9783 -0.3735 -0.7658
 6985TIP3   OH242513   1.590   6.815   3.612 -0.5722 -0.0507 -0.0408
 6985TIP3    H142514   1.521   6.759   3.648 -0.9103  0.8374  0.7032
 6985TIP3    H242515   1.655   6.819   3.681 -0.4233  0.2626 -0.2021
 6986TIP3   OH242516   4.790   1.405   1.097 -0.0228 -0.2192 -0.3665
 6986TIP3    H142517   4.852   1.404   1.170  2.0495 -1.8402 -2.0201
 6986TIP3    H242518   4.833   1.354   1.029 -3.0259 -1.0239 -1.8104
 6987TIP3   OH242519   1.508   2.387   2.350  0.3769 -0.1952  0.0919
 6987TIP3    H142520   1.451   2.399   2.274  1.4766  1.0776 -0.5855
 6987TIP3    H242521   1.475   2.308   2.393  1.0887 -2.3407 -2.9631
 6988TIP3   OH242522   6.589   6.780   8.375 -0.0806  0.5387 -0.1197
 6988TIP3    H142523   6.517   6.811   8.430 -0.6459 -1.5717  0.4442
 6988TIP3    H242524   6.560   6.797   8.286  0.5856  3.4579  0.1205
 6989TIP3   OH242525   6.284   1.901   1.355  0.4235 -0.0202 -0.4750
 6989TIP3    H142526   6.352   1.878   1.418  0.7986 -0.3125 -0.9819
 6989TIP3    H242527   6.283   1.996   1.354  1.3506 -0.0099 -1.0228
 6990TIP3   OH242528   1.627   6.667   1.926 -0.3983  0.5540  0.2967
 6990TIP3    H142529   1.537   6.686   1.951 -1.1858  1.9815 -3.0108
 6990TIP3    H242530   1.667   6.753   1.910  0.9726 -0.1126 -0.0387
 6991TIP3   OH242531   1.565   4.099   3.385 -0.2094  0.8162 -0.0325
 6991TIP3    H142532   1.590   4.182   3.426 -0.5940 -0.0675  2.1214
 6991TIP3    H242533   1.474   4.111   3.360 -1.8144 -0.2878  4.4167
 6992TIP3   OH242534   0.051   6.750   2.941  0.3465 -0.3011  0.1836
 6992TIP3    H142535   0.100   6.671   2.915  2.3152  0.2691  1.9016
 6992TIP3    H242536   0.018   6.730   3.028 -0.1566  0.3506  0.1448
 6993TIP3   OH242537   2.244   0.069   2.637  0.0789  0.1707  0.2830
 6993TIP3    H142538   2.275  -0.001   2.694 -0.7677 -0.4392  0.0166
 6993TIP3    H242539   2.314   0.134   2.638  0.5922 -0.3827  1.0534
 6994TIP3   OH242540   3.455   4.590   8.498 -0.0665  0.9714  0.3708
 6994TIP3    H142541   3.470   4.679   8.465  1.8811  1.6187  2.6470
 6994TIP3    H242542   3.485   4.593   8.589  0.3235 -2.1000  0.4636
 6995TIP3   OH242543   3.754   4.179   0.242  0.3322 -0.0513 -0.1976
 6995TIP3    H142544   3.735   4.173   0.335  1.0620  0.4359 -0.0023
 6995TIP3    H242545   3.843   4.214   0.239 -0.7985  3.0443 -1.1060
 6996TIP3   OH242546   4.375   4.195   1.137  0.3534  0.1346  0.2963
 6996TIP3    H142547   4.317   4.154   1.199  0.8345  0.8278  1.2332
 6996TIP3    H242548   4.463   4.175   1.169  0.6663 -1.0755 -1.2084
 6997TIP3   OH242549   5.767   5.133   0.138  0.2648 -0.8542 -0.0641
 6997TIP3    H142550   5.681   5.095   0.116  0.6669 -0.7967 -1.8432
 6997TIP3    H242551   5.754   5.227   0.129  0.3031 -0.7861  0.5370
 6998TIP3   OH242552   2.962   2.503   2.337  0.3326 -0.3275  0.7689
 6998TIP3    H142553   3.010   2.572   2.291 -0.6980  0.3785  0.7205
 6998TIP3    H242554   3.022   2.428   2.336  0.9761  0.1699 -0.2902
 6999TIP3   OH242555   4.124   4.853   2.072 -0.2957 -0.0292  0.2121
 6999TIP3    H142556   4.057   4.900   2.023 -1.1117 -0.6478  0.7171
 6999TIP3    H242557   4.076   4.786   2.120  0.6970 -0.5271  0.5284
 7000TIP3   OH242558   5.244   1.977   0.221  0.4611  0.3393  0.3170
 7000TIP3    H142559   5.236   2.054   0.165 -0.2406  0.5575  0.6987
 7000TIP3    H242560   5.219   1.904   0.165 -2.2706  0.7580  0.8220
 7001TIP3   OH242561   6.098   6.107   1.571  0.1791  0.5765 -0.7263
 7001TIP3    H142562   6.103   6.152   1.655  0.6362  0.7430 -0.8425
 7001TIP3    H242563   6.017   6.139   1.532  0.9422  1.9783 -1.1972
 7002TIP3   OH242564   5.270   5.995   3.120  0.1252 -0.0593 -0.6652
 7002TIP3    H142565   5.290   6.089   3.121 -0.3169  0.0434 -0.7821
 7002TIP3    H242566   5.334   5.958   3.060  0.9385  0.0055  0.1435
 7003TIP3   OH242567   3.619   6.315   8.017  0.1175 -0.3630 -0.0323
 7003TIP3    H142568   3.631   6.220   8.012 -0.2140 -0.4174  0.1452
 7003TIP3    H242569   3.683   6.351   7.956  0.7559 -0.6643  0.4448
 7004TIP3   OH242570   5.450   5.749   8.323  0.3107 -1.0979  0.7300
 7004TIP3    H142571   5.438   5.797   8.241  0.9961  0.6492  1.5944
 7004TIP3    H242572   5.485   5.664   8.296  1.0788 -0.3481 -0.7742
 7005TIP3   OH242573   1.740   4.608   0.317 -0.9547  0.1967 -0.4611
 7005TIP3    H142574   1.738   4.546   0.245 -1.4484  0.8915 -1.0657
 7005TIP3    H242575   1.809   4.577   0.375 -1.3912 -1.0727 -0.5986
 7006TIP3   OH242576   4.148   5.579   1.196 -0.2439  0.1076 -0.4092
 7006TIP3    H142577   4.182   5.490   1.192 -2.1089 -0.6527  0.1557
 7006TIP3    H242578   4.184   5.621   1.117 -0.0436 -1.3815 -1.1376
 7007TIP3   OH242579   6.226   0.941   2.732 -0.0939  0.1303  0.6827
 7007TIP3    H142580   6.270   0.983   2.807  1.6553  0.8252 -0.6693
 7007TIP3    H242581   6.133   0.957   2.748  0.1364 -0.5395  3.1631
 7008TIP3   OH242582   3.943   4.217   8.757 -0.3870  0.0144  0.0576
 7008TIP3    H142583   3.987   4.139   8.724 -1.0874  0.5960 -2.4123
 7008TIP3    H242584   4.008   4.286   8.749 -0.4115  0.0834  0.4130
 7009TIP3   OH242585   1.108   0.168   2.738 -0.2664  0.6521 -0.6128
 7009TIP3    H142586   1.042   0.125   2.683 -0.1818  0.8986 -0.9132
 7009TIP3    H242587   1.123   0.107   2.810 -0.5614  0.4345 -0.7318
 7010TIP3   OH242588   1.008   6.295   2.989 -0.2293  0.1846  0.0193
 7010TIP3    H142589   1.083   6.337   3.031  0.9605 -1.2069 -0.6115
 7010TIP3    H242590   0.989   6.349   2.913  0.6084  0.1750 -0.2064
 7011TIP3   OH242591   0.447   2.491   8.757 -0.0957  0.4123  0.0908
 7011TIP3    H142592   0.373   2.507   8.698 -0.4687  0.0116  0.4456
 7011TIP3    H242593   0.408   2.489   8.844  0.4096  0.6768  0.3271
 7012TIP3   OH242594   0.209   2.974   8.678 -0.7166  0.0778 -0.6634
 7012TIP3    H142595   0.190   3.059   8.640 -1.1522  0.0419 -0.5298
 7012TIP3    H242596   0.264   2.930   8.612 -2.0872 -0.2765 -1.6261
 7013TIP3   OH242597   1.270   2.539   2.737  1.0654  0.0565 -0.4000
 7013TIP3    H142598   1.362   2.563   2.730  1.5133  0.4737  4.2213
 7013TIP3    H242599   1.271   2.445   2.757  0.3873 -0.1732 -1.3814
 7014TIP3   OH242600   2.398   5.779   0.377  0.2029  0.2460 -0.2967
 7014TIP3    H142601   2.420   5.768   0.285  0.2874  0.9508 -0.3633
 7014TIP3    H242602   2.438   5.703   0.420  1.9871  0.9824 -0.5462
 7015TIP3   OH242603   3.103   3.409   1.666  0.7439 -0.2964  0.2237
 7015TIP3    H142604   3.079   3.389   1.576  1.3120 -1.5039  0.3236
 7015TIP3    H242605   3.130   3.325   1.703  0.8122  0.2337  1.4323
 7016TIP3   OH242606   3.216   5.765   3.983  0.4208  0.4960  0.0378
 7016TIP3    H142607   3.139   5.745   3.929  0.1146  1.1778  0.2122
 7016TIP3    H242608   3.202   5.855   4.013 -1.0163 -0.7939  3.8698
 7017TIP3   OH242609   1.928   4.549   3.544 -0.8061 -0.1930  0.5769
 7017TIP3    H142610   1.962   4.634   3.572  0.0967 -0.5296  0.5292
 7017TIP3    H242611   1.836   4.566   3.525 -0.5433  0.8693  0.1632
 7018TIP3   OH242612   2.217   6.716   2.341  0.3032  0.3618  0.1899
 7018TIP3    H142613   2.296   6.759   2.310  1.3510 -0.1907  1.9262
 7018TIP3    H242614   2.194   6.763   2.421  1.6131 -2.2555  2.2714
 7019TIP3   OH242615   3.293   5.519   1.692 -0.2418  0.4178  0.7549
 7019TIP3    H142616   3.329   5.433   1.671 -0.9251  0.0500  1.0562
 7019TIP3    H242617   3.282   5.561   1.607  1.0567  0.6191  0.6623
 7020TIP3   OH242618   0.201   6.450   0.908  0.1829  0.2046 -0.0258
 7020TIP3    H142619   0.176   6.378   0.966  0.4167  0.0378 -0.1331
 7020TIP3    H242620   0.117   6.483   0.874  0.1391 -0.9117 -1.0617
 7021TIP3   OH242621   6.531   4.373   8.183  0.5745 -0.4719 -0.1957
 7021TIP3    H142622   6.529   4.418   8.268 -1.8223 -2.4741  0.9263
 7021TIP3    H242623   6.447   4.330   8.177  2.0051 -3.2832 -2.0234
 7022TIP3   OH242624   5.348   4.480   1.329 -1.0756  0.1101  0.2573
 7022TIP3    H142625   5.357   4.420   1.255 -0.4938 -0.6434  0.9284
 7022TIP3    H242626   5.396   4.559   1.302 -0.7885 -0.1957 -0.1251
 7023TIP3   OH242627   0.077   2.369   0.647 -0.1643 -0.1297 -0.2695
 7023TIP3    H142628   0.103   2.426   0.719  0.1735  0.5917 -0.9584
 7023TIP3    H242629   0.149   2.375   0.584 -0.1561 -1.2582 -0.3919
 7024TIP3   OH242630   1.859   1.874   3.787 -0.2372  0.2696  0.0309
 7024TIP3    H142631   1.948   1.881   3.821  1.3380 -1.1265 -3.3435
 7024TIP3    H242632   1.815   1.812   3.846  1.2819  0.2966  1.2429
 7025TIP3   OH242633   0.606   4.591   1.977  0.3285 -0.0004  0.0704
 7025TIP3    H142634   0.540   4.531   2.012 -1.3449  0.8171 -1.5427
 7025TIP3    H242635   0.664   4.535   1.926  0.2846 -0.5911  0.6543
 7026TIP3   OH242636   3.861   4.827   0.389  0.1542  0.6395 -0.4437
 7026TIP3    H142637   3.795   4.761   0.412  0.9924 -0.1431 -0.1988
 7026TIP3    H242638   3.928   4.778   0.341  1.1478  1.1554  0.3689
 7027TIP3   OH242639   3.050   5.398   0.675  0.2583 -0.2539  0.0790
 7027TIP3    H142640   3.039   5.431   0.586  0.4280  1.0407  0.5037
 7027TIP3    H242641   3.142   5.373   0.680  0.3515  0.0647  0.0062
 7028TIP3   OH242642   0.237   4.055   3.851  0.1424  0.5213  0.0335
 7028TIP3    H142643   0.158   4.003   3.866  1.0568 -0.3093  2.4707
 7028TIP3    H242644   0.243   4.112   3.927  1.9410  0.4668 -0.0321
 7029TIP3   OH242645   1.029   3.285   2.204 -0.2822 -0.4623  0.3224
 7029TIP3    H142646   1.120   3.287   2.176 -0.3872 -0.6175 -0.0230
 7029TIP3    H242647   1.034   3.301   2.299  0.1893 -1.6077  0.5084
 7030TIP3   OH242648   3.252   0.060   1.841  0.2511  0.1103 -0.0404
 7030TIP3    H142649   3.196   0.004   1.896  1.8674  0.0408  1.6495
 7030TIP3    H242650   3.196   0.086   1.768 -0.8046 -3.0956 -0.5327
 7031TIP3   OH242651   3.506   6.378   0.259  0.0943 -0.1197  0.2020
 7031TIP3    H142652   3.458   6.460   0.248 -1.1992 -0.7774  0.7486
 7031TIP3    H242653   3.569   6.396   0.329 -0.2497  0.3820  0.3891
 7032TIP3   OH242654   5.878   3.975   2.853  0.1125 -0.0507 -0.1259
 7032TIP3    H142655   5.791   4.013   2.845  0.3294  0.5570  0.3031
 7032TIP3    H242656   5.921   4.028   2.920  1.1493  0.2633 -1.0194
 7033TIP3   OH242657   4.731   3.916   1.949  0.5835 -0.1357  0.6770
 7033TIP3    H142658   4.804   3.914   2.011 -0.8084  0.3685  2.3961
 7033TIP3    H242659   4.653   3.912   2.003 -0.7056  0.3044 -1.0597
 7034TIP3   OH242660   0.399   1.714   8.709 -0.4002 -0.1169 -0.0782
 7034TIP3    H142661   0.314   1.679   8.735 -0.9608  1.2289  0.0070
 7034TIP3    H242662   0.460   1.679   8.774 -0.9504 -0.7918  0.0875
 7035TIP3   OH242663   3.182   1.891   0.323  0.1735 -0.0648  0.0810
 7035TIP3    H142664   3.259   1.919   0.272  0.8537  1.0010  1.6311
 7035TIP3    H242665   3.204   1.803   0.352 -0.9902 -1.4568 -2.8841
 7036TIP3   OH242666   0.462   2.110   8.456  0.4239  0.5559 -0.2171
 7036TIP3    H142667   0.442   2.117   8.550  0.0076  2.1004 -0.4050
 7036TIP3    H242668   0.523   2.182   8.439  1.3710 -0.3874 -0.9226
 7037TIP3   OH242669   5.459   3.708   2.302 -0.1254  0.5982 -0.4026
 7037TIP3    H142670   5.497   3.688   2.217  1.4404  1.7594 -0.0336
 7037TIP3    H242671   5.508   3.655   2.364 -0.0044  1.1080 -0.0498
 7038TIP3   OH242672   3.036   2.975   2.525 -0.0869  0.2221 -0.1866
 7038TIP3    H142673   3.124   2.997   2.553  0.4241 -0.7315 -0.9703
 7038TIP3    H242674   3.005   3.053   2.479  0.0607  0.8184  0.6946
 7039TIP3   OH242675   2.498   4.032   1.812 -0.2229  0.5446 -0.7590
 7039TIP3    H142676   2.407   4.034   1.841  0.2968  0.8674  0.9560
 7039TIP3    H242677   2.530   3.946   1.839  0.7165  1.4327  1.2510
 7040TIP3   OH242678   5.764   6.215   2.351  0.0130  0.3246 -0.2754
 7040TIP3    H142679   5.743   6.192   2.260  0.4442 -3.4523  0.4175
 7040TIP3    H242680   5.682   6.202   2.399  0.4575 -0.5862  0.2697
 7041TIP3   OH242681   1.238   2.242   3.583 -0.3936 -0.5787 -0.4595
 7041TIP3    H142682   1.174   2.259   3.653 -1.1925  0.3810 -1.3863
 7041TIP3    H242683   1.256   2.148   3.590 -0.7351 -0.5759  0.7974
 7042TIP3   OH242684   5.116   6.622   0.668  0.0489  0.7514 -0.0436
 7042TIP3    H142685   5.204   6.588   0.684 -0.3442  0.3045  1.3909
 7042TIP3    H242686   5.126   6.685   0.597  0.8767 -2.0349 -2.6049
 7043TIP3   OH242687   2.464   3.083   4.263  0.3001 -0.1419  0.0022
 7043TIP3    H142688   2.404   3.145   4.221  0.8830  0.7465  0.4603
 7043TIP3    H242689   2.499   3.031   4.191 -1.9974 -1.6126 -0.1836
 7044TIP3   OH242690   6.139   3.774   3.650 -0.4173 -0.0447 -0.1920
 7044TIP3    H142691   6.200   3.700   3.654 -0.5718 -0.1280  1.3722
 7044TIP3    H242692   6.167   3.831   3.722 -2.3234 -0.2095  0.7388
 7045TIP3   OH242693   0.945   5.597   0.535  0.1209 -0.1800  0.0950
 7045TIP3    H142694   1.010   5.625   0.470 -0.1117 -2.1226 -1.0377
 7045TIP3    H242695   0.876   5.664   0.531 -0.0266 -0.4038 -1.8852
 7046TIP3   OH242696   0.558   4.302   1.027 -0.0123  0.3891  0.3217
 7046TIP3    H142697   0.490   4.278   0.963 -0.2356  2.5418 -0.3352
 7046TIP3    H242698   0.599   4.380   0.989  1.6828  0.1315  1.5446
 7047TIP3   OH242699   6.790   0.932   2.707  0.2874  0.4832 -0.1924
 7047TIP3    H142700   6.830   0.876   2.640 -1.5048 -0.0656 -0.8492
 7047TIP3    H242701   6.803   1.021   2.674  1.6266  0.3820  0.0032
 7048TIP3   OH242702   2.860   0.927   2.622  0.0055  0.4403  0.1513
 7048TIP3    H142703   2.810   0.994   2.669 -0.3231  0.0049  0.4350
 7048TIP3    H242704   2.948   0.964   2.612 -0.3944  1.2610 -0.4455
 7049TIP3   OH242705   6.706   1.575   3.209 -0.9586 -0.6688 -0.1068
 7049TIP3    H142706   6.652   1.621   3.144 -0.5106  1.3410  0.8718
 7049TIP3    H242707   6.750   1.507   3.159 -2.2065 -0.5253 -1.4886
 7050TIP3   OH242708   4.843   6.802   8.189 -0.1112  0.8558 -0.0927
 7050TIP3    H142709   4.755   6.830   8.162 -1.0216  0.5138  2.2905
 7050TIP3    H242710   4.845   6.708   8.169 -0.8371  0.5669  1.1017
 7051TIP3   OH242711   6.130   3.960   1.712  0.0244  0.2707 -0.5806
 7051TIP3    H142712   6.185   3.923   1.780 -0.9358  0.5345  0.3700
 7051TIP3    H242713   6.191   4.006   1.654  0.7838  0.7984  0.5978
 7052TIP3   OH242714   2.343   0.236   8.608  0.4945  0.1233 -0.0713
 7052TIP3    H142715   2.287   0.185   8.550  0.2290 -0.6734  0.8548
 7052TIP3    H242716   2.322   0.327   8.589  1.4296 -0.0593 -2.2064
 7053TIP3   OH242717   4.794   0.841   1.507 -0.0182 -0.0695  0.6214
 7053TIP3    H142718   4.845   0.922   1.509  0.4351 -0.3181 -0.1348
 7053TIP3    H242719   4.758   0.832   1.595  1.5545 -0.0808  1.2981
 7054TIP3   OH242720   4.598   4.144   1.500  0.2586  0.1983  0.2664
 7054TIP3    H142721   4.639   4.114   1.582 -0.5790  2.3602  1.5791
 7054TIP3    H242722   4.527   4.083   1.485  0.8706 -0.6596  0.7433
 7055LIG      O42723   1.556   1.442   6.223 -0.0254  0.1807 -0.2659
 7055LIG      N42724   1.724   1.287   6.382  0.2851  0.2514  0.2487
 7055LIG     C142725   1.605   1.444   5.988  0.2208 -0.3942 -0.8717
 7055LIG     C242726   1.628   1.373   6.123  0.5064 -0.5956  0.2660
 7055LIG     C342727   1.627   1.597   6.013 -0.0696 -0.3267  0.2443
 7055LIG     C442728   1.692   1.400   5.871 -0.2427  1.0130  0.2309
 7055LIG     C542729   1.780   1.380   6.171 -0.4639 -0.2955  0.3448
 7055LIG     C642730   1.610   1.682   5.885  0.2427  0.7358  0.4659
 7055LIG     C742731   1.660   1.476   5.734  0.2626  0.3792 -0.3008
 7055LIG     C842732   1.678   1.628   5.759  0.2710 -0.2151  0.7812
 7055LIG     C942733   1.816   1.273   6.277  0.1021  0.8847  0.0190
 7055LIG    C1042734   1.569   1.222   6.094  0.2143  0.2284  0.1225
 7055LIG    C1142735   1.688   1.167   6.450 -0.3775  0.3391 -0.1294
 7055LIG    C1242736   1.757   1.398   6.479  1.0953  0.2024  0.5151
 7055LIG    C1342737   1.796   1.117   6.544  0.2053 -0.1256  0.1136
 7055LIG    C1442738   1.863   1.360   6.578 -0.5404  0.5296  0.3697
 7055LIG    C1542739   1.835   1.227   6.650  0.0805 -0.9422 -0.0565
 7055LIG    C1642740   1.649   1.128   6.031 -0.3785 -0.3022 -0.3814
 7055LIG    C1742741   1.453   1.176   6.160 -1.5317 -0.2284  0.1990
 7055LIG    C1842742   1.601   1.001   6.011  0.0486 -0.5191 -0.2514
 7055LIG    C1942743   1.406   1.049   6.151 -0.7180  0.7947 -0.1329
 7055LIG    C2042744   1.480   0.962   6.074 -0.1813 -0.3978 -0.1499
 7055LIG     H142745   1.496   1.442   5.966  0.1886 -0.4144 -0.7128
 7055LIG     H242746   1.727   1.613   6.058 -0.8392 -0.4817  2.1051
 7055LIG     H342747   1.559   1.654   6.080  0.2942  1.4272 -0.8042
 7055LIG     H442748   1.665   1.296   5.842  1.9486  0.5685 -0.3739
 7055LIG     H542749   1.799   1.419   5.892  0.0148 -1.2783  1.2053
 7055LIG     H642750   1.798   1.484   6.207  0.4665 -0.9958  2.0175
 7055LIG     H742751   1.844   1.357   6.083 -0.8866 -0.4603  0.0817
 7055LIG     H842752   1.652   1.782   5.905  2.2227 -0.2304  1.3672
 7055LIG     H942753   1.505   1.691   5.848  0.3275  0.8030  0.2425
 7055LIG    H1042754   1.556   1.454   5.701 -0.2624 -2.3259  2.6482
 7055LIG    H1142755   1.722   1.437   5.650 -0.2854 -1.1694 -0.0122
 7055LIG    H1242756   1.787   1.647   5.758  0.0359  1.5439  2.2699
 7055LIG    H1342757   1.639   1.686   5.673  0.0269  2.0143  2.3054
 7055LIG    H1442758   1.804   1.171   6.234 -0.5559  1.4628 -1.1950
 7055LIG    H1542759   1.917   1.278   6.322 -1.4534 -2.1071  4.5321
 7055LIG    H1642760   1.670   1.079   6.385 -0.3084  0.7827 -0.7662
 7055LIG    H1742761   1.590   1.179   6.501  0.3774  0.0080  1.4546
 7055LIG    H1842762   1.662   1.425   6.530  2.0794 -0.3438  2.7537
 7055LIG    H1942763   1.796   1.480   6.415  3.0403 -1.7210 -0.9412
 7055LIG    H2042764   1.595   1.395   6.298  0.4022 -1.4993 -1.4896
 7055LIG    H2142765   1.891   1.096   6.490 -0.3725 -0.4883 -0.7746
 7055LIG    H2242766   1.774   1.027   6.605  2.0043  0.1442  1.2548
 7055LIG    H2342767   1.868   1.437   6.658  0.8411 -0.5865  1.3974
 7055LIG    H2442768   1.957   1.358   6.519  0.6845 -2.6080  2.1950
 7055LIG    H2542769   1.924   1.192   6.708  1.1199 -0.3241 -1.2289
 7055LIG    H2642770   1.747   1.249   6.714 -0.4536 -1.6914 -0.5160
 7055LIG    H2742771   1.746   1.147   5.987  1.3273 -1.4232  2.5887
 7055LIG    H2842772   1.392   1.248   6.215  0.3168 -0.0997  2.2246
 7055LIG    H2942773   1.666   0.934   5.956  1.4617  0.0591  0.6510
 7055LIG    H3042774   1.321   1.020   6.210  1.3946 -1.6855  1.9651
 7055LIG    H3142775   1.436   0.868   6.044 -1.0537 -0.1078  0.1771
   6.82287   6.82287   8.76263
